mobley_5063386_GMX.gro created by acpype (v: 2023.10.27) on Wed May 20 23:51:45 2026
   15
    1MOL     C1    1   2.272   2.312   2.115
    1MOL     C2    2   2.165   2.372   2.182
    1MOL     C3    3   2.377   2.256   2.187
    1MOL     C4    4   2.163   2.375   2.322
    1MOL     C5    5   2.375   2.259   2.327
    1MOL     C6    6   2.268   2.318   2.394
    1MOL     N1    7   2.483   2.201   2.399
    1MOL     O1    8   2.577   2.148   2.335
    1MOL     O2    9   2.481   2.204   2.524
    1MOL     O3   10   2.264   2.322   2.530
    1MOL     H1   11   2.273   2.310   2.006
    1MOL     H2   12   2.083   2.416   2.126
    1MOL     H3   13   2.459   2.209   2.134
    1MOL     H4   14   2.080   2.422   2.373
    1MOL     H5   15   2.198   2.389   2.558
   4.60146   4.60146   4.60146
