14_dimethylnaphthalene
    24
  -0.5690000  -2.0630000   0.2180000   0.3420000  -1.0310000   0.0170000
  -0.1300000  -3.3880000   0.2400000   1.6960000  -1.3180000  -0.1610000
   3.0420000  -5.3090000  -0.0960000   3.9530000  -4.2770000  -0.2960000
   1.2290000  -3.6950000   0.0620000   2.1550000  -2.6450000  -0.1410000
   1.6880000  -5.0220000   0.0820000   3.5140000  -2.9530000  -0.3190000
   0.7630000  -6.1800000   0.2940000   4.5470000  -1.8910000  -0.5380000
  -1.6220000  -1.8390000   0.3560000  -0.0000000  -0.0000000   0.0000000
  -0.8720000  -4.1660000   0.3990000   2.3770000  -0.4840000  -0.3150000
   3.3960000  -6.3370000  -0.0810000   5.0050000  -4.5140000  -0.4340000
   1.0590000  -6.7400000   1.1870000  -0.2710000  -5.8380000   0.4190000
   0.7770000  -6.8560000  -0.5680000   5.2200000  -1.8370000   0.3240000
   5.1390000  -2.0990000  -1.4360000   4.0780000  -0.9110000  -0.6810000
