mobley_3715043_GMX.gro created by acpype (v: 2023.10.27) on Wed May 20 23:53:32 2026
 24
    1  MOL   C1    1  -0.057  -0.206   0.022
    1  MOL   C2    2   0.034  -0.103   0.002
    1  MOL   C3    3  -0.013  -0.339   0.024
    1  MOL   C4    4   0.170  -0.132  -0.016
    1  MOL   C5    5   0.304  -0.531  -0.010
    1  MOL   C6    6   0.395  -0.428  -0.030
    1  MOL   C7    7   0.123  -0.369   0.006
    1  MOL   C8    8   0.215  -0.265  -0.014
    1  MOL   C9    9   0.169  -0.502   0.008
    1  MOL  C10   10   0.351  -0.295  -0.032
    1  MOL  C11   11   0.076  -0.618   0.029
    1  MOL  C12   12   0.455  -0.189  -0.054
    1  MOL   H1   13  -0.162  -0.184   0.036
    1  MOL   H2   14  -0.000  -0.000   0.000
    1  MOL   H3   15  -0.087  -0.417   0.040
    1  MOL   H4   16   0.238  -0.048  -0.032
    1  MOL   H5   17   0.340  -0.634  -0.008
    1  MOL   H6   18   0.501  -0.451  -0.043
    1  MOL   H7   19   0.106  -0.674   0.119
    1  MOL   H8   20  -0.027  -0.584   0.042
    1  MOL   H9   21   0.078  -0.686  -0.057
    1  MOL  H10   22   0.522  -0.184   0.032
    1  MOL  H11   23   0.514  -0.210  -0.144
    1  MOL  H12   24   0.408  -0.091  -0.068
   13.68400    13.71200     5.24600
