%VERSION  VERSION_STAMP = V0001.000  DATE = 05/20/26  23:46:57                  
%FLAG TITLE                                                                     
%FORMAT(20a4)                                                                   
CUP08033_AM1BCC_v1_0                                                            
%FLAG POINTERS                                                                  
%FORMAT(10I8)                                                                   
      22       6       5      19      13      35      29      65       0       0
     143       1      19      35      65       8      15      13       6       0
       0       0       0       0       0       0       0       0      22       0
       0
%FLAG ATOM_NAME                                                                 
%FORMAT(20a4)                                                                   
C1  C2  C3  C4  C5  C6  C7  C8  C9  C10 Cl1 Cl2 Cl3 Cl4 Cl5 Cl6 Cl7 H1  H2  H3  
H4  H5  
%FLAG CHARGE                                                                    
%FORMAT(5E16.8)                                                                 
 -2.77343406E+00 -2.97387936E+00 -4.51913040E-01 -7.98136740E-01 -8.10892350E-01
  1.47418407E+00 -1.45231731E+00  1.52338428E+00  1.50516198E+00  2.41992144E+00
 -6.19558200E-02 -1.34845020E-01 -3.06863532E+00 -1.35573912E+00 -1.28284992E+00
 -1.63818477E+00 -1.63818477E+00  2.89734570E+00  2.93379030E+00  1.88965251E+00
  1.79854101E+00  2.03543091E+00
%FLAG ATOMIC_NUMBER                                                             
%FORMAT(10I8)                                                                   
       6       6       6       6       6       6       6       6       6       6
      17      17      17      17      17      17      17       1       1       1
       1       1
%FLAG MASS                                                                      
%FORMAT(5E16.8)                                                                 
  1.20100000E+01  1.20100000E+01  1.20100000E+01  1.20100000E+01  1.20100000E+01
  1.20100000E+01  1.20100000E+01  1.20100000E+01  1.20100000E+01  1.20100000E+01
  3.54500000E+01  3.54500000E+01  3.54500000E+01  3.54500000E+01  3.54500000E+01
  3.54500000E+01  3.54500000E+01  1.00800000E+00  1.00800000E+00  1.00800000E+00
  1.00800000E+00  1.00800000E+00
%FLAG ATOM_TYPE_INDEX                                                           
%FORMAT(10I8)                                                                   
       1       1       1       1       2       2       2       2       2       2
       3       3       3       3       3       3       3       4       4       5
       6       5
%FLAG NUMBER_EXCLUDED_ATOMS                                                     
%FORMAT(10I8)                                                                   
      15      11      13      13      16      11      14      11      11       8
       2       1       3       3       3       1       1       2       1       1
       1       1
%FLAG NONBONDED_PARM_INDEX                                                      
%FORMAT(10I8)                                                                   
       1       2       4       7      11      16       2       3       5       8
      12      17       4       5       6       9      13      18       7       8
       9      10      14      19      11      12      13      14      15      20
      16      17      18      19      20      21
%FLAG RESIDUE_LABEL                                                             
%FORMAT(20a4)                                                                   
MOL 
%FLAG RESIDUE_POINTER                                                           
%FORMAT(10I8)                                                                   
       1
%FLAG BOND_FORCE_CONSTANT                                                       
%FORMAT(5E16.8)                                                                 
  4.36000000E+02  2.43380000E+02  3.57290000E+02  1.96040000E+02  2.20100000E+02
  3.46430000E+02  1.63960000E+02  3.43780000E+02
%FLAG BOND_EQUIL_VALUE                                                          
%FORMAT(5E16.8)                                                                 
  1.33790000E+00  1.51540000E+00  1.08820000E+00  1.74150000E+00  1.54830000E+00
  1.09540000E+00  1.80930000E+00  1.09720000E+00
%FLAG ANGLE_FORCE_CONSTANT                                                      
%FORMAT(5E16.8)                                                                 
  6.22200000E+01  4.63700000E+01  6.12900000E+01  4.35800000E+01  6.29500000E+01
  4.34300000E+01  6.40800000E+01  4.16600000E+01  6.18400000E+01  4.26500000E+01
  6.26300000E+01  4.26500000E+01  6.21700000E+01  4.36600000E+01  6.97800000E+01
%FLAG ANGLE_EQUIL_VALUE                                                         
%FORMAT(5E16.8)                                                                 
  2.07572097E+00  2.10120279E+00  1.88390920E+00  1.93242938E+00  1.98374208E+00
  1.94482122E+00  2.14989749E+00  2.11760889E+00  1.81217614E+00  1.94028336E+00
  1.97902969E+00  1.94028336E+00  2.14518510E+00  1.82875677E+00  1.89699918E+00
%FLAG DIHEDRAL_FORCE_CONSTANT                                                   
%FORMAT(5E16.8)                                                                 
  0.00000000E+00  1.55555556E-01  2.60000000E-01  1.50000000E-01  5.78000000E+00
  1.33000000E+00  6.65000000E+00  5.20000000E-01  1.30000000E-01  1.80000000E-01
  1.42000000E+00  1.20000000E-01  1.10000000E+00
%FLAG DIHEDRAL_PERIODICITY                                                      
%FORMAT(5E16.8)                                                                 
  2.00000000E+00  3.00000000E+00  3.00000000E+00  1.00000000E+00  2.00000000E+00
  3.00000000E+00  2.00000000E+00  3.00000000E+00  3.00000000E+00  3.00000000E+00
  3.00000000E+00  3.00000000E+00  2.00000000E+00
%FLAG DIHEDRAL_PHASE                                                            
%FORMAT(5E16.8)                                                                 
  0.00000000E+00  0.00000000E+00  3.14159400E+00  0.00000000E+00  3.14159400E+00
  3.14159400E+00  3.14159400E+00  0.00000000E+00  0.00000000E+00  0.00000000E+00
  0.00000000E+00  0.00000000E+00  3.14159400E+00
%FLAG SCEE_SCALE_FACTOR                                                         
%FORMAT(5E16.8)                                                                 
  1.20000000E+00  1.20000000E+00  1.20000000E+00  1.20000000E+00  1.20000000E+00
  1.20000000E+00  1.20000000E+00  1.20000000E+00  1.20000000E+00  1.20000000E+00
  1.20000000E+00  1.20000000E+00  0.00000000E+00
%FLAG SCNB_SCALE_FACTOR                                                         
%FORMAT(5E16.8)                                                                 
  2.00000000E+00  2.00000000E+00  2.00000000E+00  2.00000000E+00  2.00000000E+00
  2.00000000E+00  2.00000000E+00  2.00000000E+00  2.00000000E+00  2.00000000E+00
  2.00000000E+00  2.00000000E+00  0.00000000E+00
%FLAG SOLTY                                                                     
%FORMAT(5E16.8)                                                                 
  0.00000000E+00  0.00000000E+00  0.00000000E+00  0.00000000E+00  0.00000000E+00
  0.00000000E+00
%FLAG LENNARD_JONES_ACOEF                                                       
%FORMAT(5E16.8)                                                                 
  6.96551276E+05  8.43969952E+05  1.02073671E+06  1.49062160E+06  1.80018612E+06
  3.17107030E+06  7.52549148E+04  9.27554496E+04  1.66104821E+05  6.90855956E+03
  8.12662403E+04  1.00235148E+05  1.79601155E+05  7.41026906E+03  7.94617769E+03
  5.63013422E+04  6.97998263E+04  1.25585106E+05  4.88692384E+03  5.22955465E+03
  3.39005767E+03
%FLAG LENNARD_JONES_BCOEF                                                       
%FORMAT(5E16.8)                                                                 
  5.24668528E+02  5.90251928E+02  6.63431737E+02  9.81118883E+02  1.10195051E+03
  1.82923847E+03  1.09570372E+02  1.24325688E+02  2.08087638E+02  2.10929191E+01
  1.21392023E+02  1.37787728E+02  2.30684859E+02  2.32899892E+01  2.57122925E+01
  1.01040256E+02  1.14981426E+02  1.92900608E+02  1.89134207E+01  2.08590256E+01
  1.67944276E+01
%FLAG BONDS_INC_HYDROGEN                                                        
%FORMAT(10I8)                                                                   
       0      51       3       3      54       3      12      57       6      15
      60       8      18      63       6
%FLAG BONDS_WITHOUT_HYDROGEN                                                    
%FORMAT(10I8)                                                                   
       0       3       1       0      12       2       3      15       2       6
       9       1       6      21       2       6      30       4       9      24
       2       9      33       4      12      18       5      12      21       5
      15      18       5      15      36       7      18      24       5      21
      27       5      21      39       7      24      27       5      24      42
       7      27      45       7      27      48       7
%FLAG ANGLES_INC_HYDROGEN                                                       
%FORMAT(10I8)                                                                   
       0       3      54       2       0      12      57       4       3       0
      51       2       3      15      60       6      12       0      51       8
      12      18      63      10      15       3      54       8      15      18
      63      10      18      12      57      10      18      15      60      12
      21      12      57      10      24      18      63      10      36      15
      60      14
%FLAG ANGLES_WITHOUT_HYDROGEN                                                   
%FORMAT(10I8)                                                                   
       0       3      15       1       0      12      18       3       0      12
      21       3       3       0      12       1       3      15      18       3
       3      15      36       5       6       9      24       1       6       9
      33       7       6      21      12       3       6      21      27       3
       6      21      39       5       9       6      21       1       9       6
      30       7       9      24      18       3       9      24      27       3
       9      24      42       5      12      18      15       9      12      18
      24       9      12      21      27       9      12      21      39      11
      15      18      24       9      18      12      21       9      18      15
      36      11      18      24      27       9      18      24      42      11
      21       6      30      13      21      27      24       9      21      27
      45      11      21      27      48      11      24       9      33      13
      24      27      45      11      24      27      48      11      27      21
      39      11      27      24      42      11      45      27      48      15
%FLAG DIHEDRALS_INC_HYDROGEN                                                    
%FORMAT(10I8)                                                                   
       0       3      15      60       1       0      12      18      63       2
       3       0      12      57       3       3      15      18      63       2
       6      21      12      57       2       9      24      18      63       2
      12       0       3      54       7      12      18      15      60       2
      51       0       3      15       7      15      18      12      57       9
      51       0      12      18       1      18      15       3      54       1
      51       0      12      21       1      21      12      18      63       9
      24      18      12      57       9      24      18      15      60       2
      27      21      12      57       9      27      24      18      63       9
      36      15       3      54       1      36      15      18      63      10
      39      21      12      57      10      42      24      18      63      10
      51       0       3      54       7      51       0      12      57       1
      54       3      15      60       1      57      12      18      63      12
      60      15      18      63       2      51       0     -12      -3      13
       0      15      -3     -54      13
%FLAG DIHEDRALS_WITHOUT_HYDROGEN                                                
%FORMAT(10I8)                                                                   
       0       3     -15      18       1       0       3      15      36       1
       0      12     -18      15       2       0      12      18      24       2
       0      12      21       6       2       0      12      21      27       2
       0      12      21      39       2       3       0     -12      18       1
       3       0      12      21       1       3      15     -18      12       2
       3      15      18      24       2       6       9      24      18       1
       6       9     -24      27       1       6       9      24      42       1
       6      21     -12      18       2       6      21     -27      24       2
       6      21      27      45       2       6      21      27      48       2
       9       6      21      12       1       9       6     -21      27       1
       9       6      21      39       1       9      24     -18      12       2
       9      24      18      15       2       9      24     -27      21       2
       9      24      27      45       2       9      24      27      48       2
      12       0      -3      15       4      12       0      -3      15       5
      12       0      -3      15       6      12      18      15      36       2
      12      18     -24      27       8      12      18      24      42       2
      12      21       6      30       1      12      21     -27      24       8
      12      21      27      45       2      12      21      27      48       2
      15      18      12      21       8      15      18      24      27       8
      15      18      24      42       2      18      12     -21      27       8
      18      12      21      39       2      18      24       9      33       1
      18      24     -27      21       8      18      24      27      45       2
      18      24      27      48       2      21       6      -9      24       4
      21       6      -9      24       5      21       6      -9      24       6
      21       6       9      33       7      21      12     -18      24       8
      21      27      24      42       2      24       9       6      30       7
      24      18      15      36       2      24      27      21      39       2
      27      21       6      30       1      27      24       9      33       1
      30       6       9      33       7      30       6      21      39       1
      33       9      24      42       1      39      21      27      45      11
      39      21      27      48      11      42      24      27      45      11
      42      24      27      48      11       9      21      -6     -30      13
       6      24      -9     -33      13
%FLAG EXCLUDED_ATOMS_LIST                                                       
%FORMAT(10I8)                                                                   
       2       3       5       6       7       8       9      10      13      14
      18      19      20      21      22       5       6       7       8       9
      13      18      19      20      21      22       4       5       7       8
       9      10      11      12      14      15      16      17      20       5
       6       7       8       9      10      11      12      14      15      16
      17      22       6       7       8       9      10      11      13      14
      15      16      17      18      19      20      21      22       7       8
       9      10      13      15      18      19      20      21      22       8
       9      10      12      13      14      15      16      17      18      19
      20      21      22       9      10      11      12      14      15      16
      17      18      20      22      10      11      12      13      14      15
      16      17      20      21      22      11      12      14      15      16
      17      20      22      12      14      15      19      21      22      16
      17      20      16      17      22      17       0      19      20      21
      22      22       0
%FLAG HBOND_ACOEF                                                               
%FORMAT(5E16.8)                                                                 

%FLAG HBOND_BCOEF                                                               
%FORMAT(5E16.8)                                                                 

%FLAG HBCUT                                                                     
%FORMAT(5E16.8)                                                                 

%FLAG AMBER_ATOM_TYPE                                                           
%FORMAT(20a4)                                                                   
c2  c2  c2  c2  c5  c5  c5  c5  c5  c5  cl  cl  cl  cl  cl  cl  cl  ha  ha  hc  
h1  hc  
%FLAG TREE_CHAIN_CLASSIFICATION                                                 
%FORMAT(20a4)                                                                   
BLA BLA BLA BLA BLA BLA BLA BLA BLA BLA BLA BLA BLA BLA BLA BLA BLA BLA BLA BLA 
BLA BLA 
%FLAG JOIN_ARRAY                                                                
%FORMAT(10I8)                                                                   
       0       0       0       0       0       0       0       0       0       0
       0       0       0       0       0       0       0       0       0       0
       0       0
%FLAG IROTAT                                                                    
%FORMAT(10I8)                                                                   
       0       0       0       0       0       0       0       0       0       0
       0       0       0       0       0       0       0       0       0       0
       0       0
%FLAG RADIUS_SET                                                                
%FORMAT(1a80)                                                                   
modified Bondi radii (mbondi)                                                   
%FLAG RADII                                                                     
%FORMAT(5E16.8)                                                                 
  1.70000000E+00  1.70000000E+00  1.70000000E+00  1.70000000E+00  1.70000000E+00
  1.70000000E+00  1.70000000E+00  1.70000000E+00  1.70000000E+00  1.70000000E+00
  1.70000000E+00  1.70000000E+00  1.70000000E+00  1.70000000E+00  1.70000000E+00
  1.70000000E+00  1.70000000E+00  1.30000000E+00  1.30000000E+00  1.30000000E+00
  1.30000000E+00  1.30000000E+00
%FLAG SCREEN                                                                    
%FORMAT(5E16.8)                                                                 
  7.20000000E-01  7.20000000E-01  7.20000000E-01  7.20000000E-01  7.20000000E-01
  7.20000000E-01  7.20000000E-01  7.20000000E-01  7.20000000E-01  7.20000000E-01
  8.00000000E-01  8.00000000E-01  8.00000000E-01  8.00000000E-01  8.00000000E-01
  8.00000000E-01  8.00000000E-01  8.50000000E-01  8.50000000E-01  8.50000000E-01
  8.50000000E-01  8.50000000E-01
%FLAG IPOL                                                                      
%FORMAT(1I8)                                                                    
       0
