; mobley_468867_GMX.top created by acpype (v: 2023.10.27) on Wed May 20 23:46:56 2026

[ defaults ]
; nbfunc        comb-rule       gen-pairs       fudgeLJ fudgeQQ
1               2               yes             0.5     0.8333333333

; Include mobley_468867_GMX.itp topology
#include "mobley_468867_GMX.itp"

; Ligand position restraints
#ifdef POSRES_LIG
#include "posre_mobley_468867.itp"
#endif

[ system ]
mobley_468867 in water

[ molecules ]
; Compound        nmols
 mobley_468867    1     
SOL              3338
