mobley_468867_GMX.gro created by acpype (v: 2023.10.27) on Wed May 20 23:46:56 2026
 22
    1  MOL   C1    1  -0.207   0.036   0.035
    1  MOL   C2    2  -0.096  -0.039   0.034
    1  MOL   C3    3  -0.279   0.028   0.321
    1  MOL   C4    4  -0.226  -0.091   0.350
    1  MOL   C5    5  -0.326  -0.040   0.085
    1  MOL   C6    6  -0.118  -0.179   0.082
    1  MOL   C7    7  -0.267  -0.182   0.119
    1  MOL   C8    8  -0.391   0.004   0.221
    1  MOL   C9    9  -0.302  -0.196   0.271
    1  MOL  C10   10  -0.445  -0.131   0.276
    1  MOL  CL1   11  -0.230   0.181   0.375
    1  MOL  CL2   12  -0.095  -0.124   0.452
    1  MOL  CL3   13  -0.084  -0.290  -0.053
    1  MOL  CL4   14  -0.509   0.133   0.203
    1  MOL  CL5   15  -0.291  -0.361   0.330
    1  MOL  CL6   16  -0.518  -0.122   0.441
    1  MOL  CL7   17  -0.568  -0.211   0.172
    1  MOL   H1   18  -0.211   0.140   0.003
    1  MOL   H2   19   0.001  -0.003   0.002
    1  MOL   H3   20  -0.400  -0.049   0.005
    1  MOL   H4   21  -0.051  -0.205   0.164
    1  MOL   H5   22  -0.320  -0.259   0.062
   11.38200    10.82400    10.09000
