CUP08033_AM1BCC_v1_0
    22
  -2.0700000   0.3630000   0.3540000  -0.9600000  -0.3850000   0.3440000
  -2.7930000   0.2820000   3.2080000  -2.2610000  -0.9100000   3.5020000
  -3.2560000  -0.4020000   0.8510000  -1.1770000  -1.7880000   0.8190000
  -2.6660000  -1.8180000   1.1940000  -3.9070000   0.0430000   2.2070000
  -3.0230000  -1.9560000   2.7090000  -4.4510000  -1.3120000   2.7590000
  -2.2970000   1.8060000   3.7520000  -0.9450000  -1.2380000   4.5160000
  -0.8370000  -2.9000000  -0.5290000  -5.0890000   1.3290000   2.0290000
  -2.9090000  -3.6060000   3.2960000  -5.1810000  -1.2200000   4.4100000
  -5.6830000  -2.1090000   1.7150000  -2.1120000   1.3970000   0.0340000
   0.0080000  -0.0260000   0.0150000  -3.9990000  -0.4860000   0.0480000
  -0.5090000  -2.0540000   1.6410000  -3.1990000  -2.5860000   0.6180000
