mobley_2123854_GMX.gro created by acpype (v: 2023.10.27) on Wed May 20 23:43:44 2026
   14
    1MOL     C1    1   2.364   2.345   2.081
    1MOL     C2    2   2.255   2.408   2.290
    1MOL     C3    3   2.467   2.292   2.296
    1MOL     C4    4   2.253   2.411   2.430
    1MOL     C5    5   2.465   2.295   2.435
    1MOL     C6    6   2.362   2.349   2.223
    1MOL     C7    7   2.358   2.355   2.502
    1MOL     N1    8   2.365   2.342   1.964
    1MOL     O1    9   2.356   2.358   2.638
    1MOL     H1   10   2.172   2.453   2.235
    1MOL     H2   11   2.551   2.246   2.245
    1MOL     H3   12   2.169   2.458   2.482
    1MOL     H4   13   2.547   2.251   2.491
    1MOL     H5   14   2.291   2.424   2.667
   4.71162   4.71162   4.71162
