mobley_2123854_GMX.gro created by acpype (v: 2023.10.27) on Wed May 20 23:43:44 2026
10208
    1MOL     C1    1   2.364   2.345   2.081
    1MOL     C2    2   2.255   2.408   2.290
    1MOL     C3    3   2.467   2.292   2.296
    1MOL     C4    4   2.253   2.411   2.430
    1MOL     C5    5   2.465   2.295   2.435
    1MOL     C6    6   2.362   2.349   2.223
    1MOL     C7    7   2.358   2.355   2.502
    1MOL     N1    8   2.365   2.342   1.964
    1MOL     O1    9   2.356   2.358   2.638
    1MOL     H1   10   2.172   2.453   2.235
    1MOL     H2   11   2.551   2.246   2.245
    1MOL     H3   12   2.169   2.458   2.482
    1MOL     H4   13   2.547   2.251   2.491
    1MOL     H5   14   2.291   2.424   2.667
    2SOL     OW   15   0.230   0.628   0.113
    2SOL    HW1   16   0.137   0.626   0.150
    2SOL    HW2   17   0.231   0.589   0.021
    3SOL     OW   18   0.225   0.275   0.996
    3SOL    HW1   19   0.260   0.258   1.088
    3SOL    HW2   20   0.137   0.230   0.984
    4SOL     OW   21   0.019   0.368   0.647
    4SOL    HW1   22  -0.063   0.411   0.686
    4SOL    HW2   23  -0.009   0.295   0.584
    5SOL     OW   24   0.569   1.275   1.165
    5SOL    HW1   25   0.476   1.268   1.128
    5SOL    HW2   26   0.580   1.364   1.209
    6SOL     OW   27   1.555   1.511   0.703
    6SOL    HW1   28   1.498   1.495   0.784
    6SOL    HW2   29   1.496   1.521   0.623
    7SOL     OW   30   1.135   0.703   0.717
    7SOL    HW1   31   1.192   0.781   0.692
    7SOL    HW2   32   1.075   0.729   0.793
    8SOL     OW   33   1.755   0.607   0.231
    8SOL    HW1   34   1.743   0.594   0.132
    8SOL    HW2   35   1.725   0.526   0.280
    9SOL     OW   36   0.768   1.144   1.023
    9SOL    HW1   37   0.690   1.161   1.083
    9SOL    HW2   38   0.802   1.231   0.987
   10SOL     OW   39   0.850   0.798   1.823
   10SOL    HW1   40   0.846   0.874   1.888
   10SOL    HW2   41   0.872   0.834   1.732
   11SOL     OW   42   0.685   1.012   0.665
   11SOL    HW1   43   0.754   0.996   0.735
   11SOL    HW2   44   0.612   1.069   0.703
   12SOL     OW   45   0.686   1.161   1.803
   12SOL    HW1   46   0.746   1.240   1.817
   12SOL    HW2   47   0.600   1.192   1.762
   13SOL     OW   48   0.335   1.435   1.061
   13SOL    HW1   49   0.257   1.404   1.008
   13SOL    HW2   50   0.393   1.493   1.004
   14SOL     OW   51   1.460   1.505   1.339
   14SOL    HW1   52   1.484   1.599   1.365
   14SOL    HW2   53   1.444   1.451   1.421
   15SOL     OW   54   0.438   0.392   1.499
   15SOL    HW1   55   0.520   0.336   1.508
   15SOL    HW2   56   0.357   0.334   1.503
   16SOL     OW   57   1.603   0.447   0.737
   16SOL    HW1   58   1.529   0.493   0.687
   16SOL    HW2   59   1.654   0.515   0.790
   17SOL     OW   60   0.231   1.713   0.483
   17SOL    HW1   61   0.265   1.790   0.537
   17SOL    HW2   62   0.275   1.713   0.393
   18SOL     OW   63   1.127   1.341   1.690
   18SOL    HW1   64   1.174   1.341   1.778
   18SOL    HW2   65   1.079   1.254   1.679
   19SOL     OW   66   0.230   1.434   0.538
   19SOL    HW1   67   0.204   1.530   0.538
   19SOL    HW2   68   0.159   1.380   0.583
   20SOL     OW   69   0.240   1.091   0.886
   20SOL    HW1   70   0.254   1.007   0.938
   20SOL    HW2   71   0.185   1.155   0.941
   21SOL     OW   72   0.620   1.786   1.439
   21SOL    HW1   73   0.528   1.769   1.474
   21SOL    HW2   74   0.648   1.878   1.465
   22SOL     OW   75   0.606   0.964   0.123
   22SOL    HW1   76   0.613   1.048   0.069
   22SOL    HW2   77   0.652   0.977   0.211
   23SOL     OW   78   1.594   0.114   1.480
   23SOL    HW1   79   1.576   0.181   1.408
   23SOL    HW2   80   1.591   0.160   1.569
   24SOL     OW   81   0.122   0.643   0.563
   24SOL    HW1   82   0.077   0.555   0.580
   24SOL    HW2   83   0.121   0.697   0.647
   25SOL     OW   84   1.842   1.767   0.359
   25SOL    HW1   85   1.896   1.738   0.439
   25SOL    HW2   86   1.872   1.857   0.330
   26SOL     OW   87   0.027   1.596   0.117
   26SOL    HW1   88   0.008   1.500   0.138
   26SOL    HW2   89  -0.006   1.654   0.192
   27SOL     OW   90   1.689   0.922   0.612
   27SOL    HW1   91   1.784   0.893   0.620
   27SOL    HW2   92   1.681   0.987   0.537
   28SOL     OW   93   1.641   1.108   0.432
   28SOL    HW1   94   1.727   1.110   0.380
   28SOL    HW2   95   1.655   1.155   0.520
   29SOL     OW   96   0.113   0.737   1.597
   29SOL    HW1   97   0.201   0.724   1.642
   29SOL    HW2   98   0.100   0.834   1.575
   30SOL     OW   99   0.613   1.365   0.726
   30SOL    HW1  100   0.564   1.278   0.735
   30SOL    HW2  101   0.590   1.408   0.639
   31SOL     OW  102   1.293   1.228   1.423
   31SOL    HW1  103   1.330   1.155   1.365
   31SOL    HW2  104   1.345   1.233   1.508
   32SOL     OW  105   0.809   0.004   0.502
   32SOL    HW1  106   0.849   0.095   0.493
   32SOL    HW2  107   0.709   0.012   0.508
   33SOL     OW  108   0.197   0.976   1.264
   33SOL    HW1  109   0.286   0.931   1.250
   33SOL    HW2  110   0.124   0.911   1.245
   34SOL     OW  111   1.525   0.999   0.190
   34SOL    HW1  112   1.462   0.923   0.203
   34SOL    HW2  113   1.573   1.017   0.276
   35SOL     OW  114   1.187   1.792   1.616
   35SOL    HW1  115   1.211   1.852   1.540
   35SOL    HW2  116   1.194   1.697   1.586
   36SOL     OW  117   0.317   0.251   1.801
   36SOL    HW1  118   0.388   0.322   1.807
   36SOL    HW2  119   0.229   0.290   1.829
   37SOL     OW  120   1.466   1.417   0.953
   37SOL    HW1  121   1.407   1.423   1.033
   37SOL    HW2  122   1.451   1.329   0.907
   38SOL     OW  123   1.667   1.714   0.572
   38SOL    HW1  124   1.626   1.691   0.484
   38SOL    HW2  125   1.649   1.640   0.637
   39SOL     OW  126   0.598   0.729   0.270
   39SOL    HW1  127   0.622   0.798   0.202
   39SOL    HW2  128   0.520   0.762   0.324
   40SOL     OW  129   1.281   0.345   0.944
   40SOL    HW1  130   1.195   0.295   0.931
   40SOL    HW2  131   1.343   0.291   1.000
   41SOL     OW  132   1.576   1.662   0.307
   41SOL    HW1  133   1.665   1.708   0.310
   41SOL    HW2  134   1.555   1.638   0.212
   42SOL     OW  135   0.807   0.605   1.465
   42SOL    HW1  136   0.760   0.602   1.554
   42SOL    HW2  137   0.756   0.550   1.399
   43SOL     OW  138   1.394   0.469   1.674
   43SOL    HW1  139   1.374   0.512   1.762
   43SOL    HW2  140   1.472   0.407   1.683
   44SOL     OW  141   0.973   0.890   1.572
   44SOL    HW1  142   1.019   0.806   1.543
   44SOL    HW2  143   0.917   0.924   1.497
   45SOL     OW  144   0.991   0.410   1.242
   45SOL    HW1  145   0.914   0.444   1.296
   45SOL    HW2  146   0.957   0.359   1.163
   46SOL     OW  147   1.041   0.701   0.429
   46SOL    HW1  148   1.067   0.697   0.525
   46SOL    HW2  149   0.956   0.650   0.415
   47SOL     OW  150   0.076   0.811   0.789
   47SOL    HW1  151   0.175   0.799   0.798
   47SOL    HW2  152   0.052   0.906   0.810
   48SOL     OW  153   0.130   1.821   1.571
   48SOL    HW1  154   0.120   1.806   1.670
   48SOL    HW2  155   0.044   1.857   1.535
   49SOL     OW  156   0.865   0.348   0.195
   49SOL    HW1  157   0.924   0.411   0.146
   49SOL    HW2  158   0.884   0.254   0.166
   50SOL     OW  159   1.719   0.585   1.831
   50SOL    HW1  160   1.693   0.674   1.795
   50SOL    HW2  161   1.717   0.517   1.758
   51SOL     OW  162   1.362   1.144   0.545
   51SOL    HW1  163   1.445   1.115   0.497
   51SOL    HW2  164   1.313   1.211   0.489
   52SOL     OW  165   0.550   0.196   0.885
   52SOL    HW1  166   0.545   0.191   0.985
   52SOL    HW2  167   0.552   0.292   0.856
   53SOL     OW  168   1.008   1.456   0.477
   53SOL    HW1  169   0.962   1.528   0.425
   53SOL    HW2  170   1.004   1.476   0.575
   54SOL     OW  171   0.351   1.801   0.853
   54SOL    HW1  172   0.401   1.715   0.859
   54SOL    HW2  173   0.416   1.878   0.850
   55SOL     OW  174   1.795   1.066   0.873
   55SOL    HW1  175   1.733   1.051   0.797
   55SOL    HW2  176   1.743   1.077   0.958
   56SOL     OW  177   1.227   1.550   1.506
   56SOL    HW1  178   1.233   1.473   1.570
   56SOL    HW2  179   1.175   1.524   1.426
   57SOL     OW  180   0.321   0.943   0.242
   57SOL    HW1  181   0.403   0.982   0.200
   57SOL    HW2  182   0.294   0.861   0.193
   58SOL     OW  183   1.458   0.735   0.728
   58SOL    HW1  184   1.453   0.670   0.803
   58SOL    HW2  185   1.538   0.794   0.741
   59SOL     OW  186   0.461   1.266   1.727
   59SOL    HW1  187   0.411   1.267   1.641
   59SOL    HW2  188   0.398   1.248   1.803
   60SOL     OW  189   1.111   1.776   0.237
   60SOL    HW1  190   1.051   1.714   0.287
   60SOL    HW2  191   1.142   1.732   0.152
   61SOL     OW  192   0.202   0.285   1.498
   61SOL    HW1  193   0.122   0.345   1.485
   61SOL    HW2  194   0.192   0.236   1.584
   62SOL     OW  195   1.632   1.377   0.081
   62SOL    HW1  196   1.600   1.471   0.071
   62SOL    HW2  197   1.556   1.314   0.069
   63SOL     OW  198   0.464   1.743   0.323
   63SOL    HW1  199   0.497   1.782   0.409
   63SOL    HW2  200   0.540   1.736   0.258
   64SOL     OW  201   1.400   0.107   0.426
   64SOL    HW1  202   1.376   0.070   0.336
   64SOL    HW2  203   1.499   0.123   0.430
   65SOL     OW  204   0.249   1.785   1.241
   65SOL    HW1  205   0.306   1.720   1.291
   65SOL    HW2  206   0.233   1.752   1.148
   66SOL     OW  207   0.940   1.698   0.904
   66SOL    HW1  208   1.020   1.641   0.925
   66SOL    HW2  209   0.891   1.658   0.827
   67SOL     OW  210   0.382   0.700   0.480
   67SOL    HW1  211   0.427   0.610   0.477
   67SOL    HW2  212   0.288   0.689   0.513
   68SOL     OW  213   1.547   0.222   1.729
   68SOL    HW1  214   1.542   0.259   1.821
   68SOL    HW2  215   1.475   0.153   1.717
   69SOL     OW  216   0.614   0.122   0.117
   69SOL    HW1  217   0.712   0.100   0.124
   69SOL    HW2  218   0.583   0.105   0.024
   70SOL     OW  219   0.781   0.264   1.749
   70SOL    HW1  220   0.848   0.203   1.792
   70SOL    HW2  221   0.708   0.283   1.814
   71SOL     OW  222   0.888   1.514   1.195
   71SOL    HW1  223   0.865   1.489   1.101
   71SOL    HW2  224   0.949   1.445   1.234
   72SOL     OW  225   1.351   0.590   1.433
   72SOL    HW1  226   1.379   0.547   1.518
   72SOL    HW2  227   1.376   0.686   1.434
   73SOL     OW  228   0.803   1.402   0.924
   73SOL    HW1  229   0.893   1.416   0.882
   73SOL    HW2  230   0.732   1.404   0.853
   74SOL     OW  231   0.922   0.503   0.899
   74SOL    HW1  232   0.897   0.494   0.803
   74SOL    HW2  233   0.970   0.421   0.930
   75SOL     OW  234   0.539   0.064   0.512
   75SOL    HW1  235   0.458   0.065   0.570
   75SOL    HW2  236   0.542   0.147   0.457
   76SOL     OW  237   1.434   1.188   0.041
   76SOL    HW1  238   1.466   1.112   0.098
   76SOL    HW2  239   1.342   1.215   0.071
   77SOL     OW  240   0.297   0.035   0.171
   77SOL    HW1  241   0.346   0.119   0.150
   77SOL    HW2  242   0.359  -0.030   0.216
   78SOL     OW  243   0.935   0.236   0.480
   78SOL    HW1  244   0.887   0.277   0.402
   78SOL    HW2  245   1.034   0.234   0.461
   79SOL     OW  246   1.076   0.683   1.464
   79SOL    HW1  247   0.996   0.622   1.467
   79SOL    HW2  248   1.157   0.630   1.440
   80SOL     OW  249   1.227   1.570   0.793
   80SOL    HW1  250   1.248   1.644   0.728
   80SOL    HW2  251   1.295   1.570   0.866
   81SOL     OW  252   0.459   1.152   0.741
   81SOL    HW1  253   0.388   1.125   0.806
   81SOL    HW2  254   0.433   1.124   0.648
   82SOL     OW  255   1.271   1.797   0.591
   82SOL    HW1  256   1.315   1.861   0.527
   82SOL    HW2  257   1.221   1.849   0.661
   83SOL     OW  258   1.032   0.549   0.016
   83SOL    HW1  259   0.991   0.631  -0.023
   83SOL    HW2  260   1.096   0.575   0.089
   84SOL     OW  261   0.078   0.556   1.386
   84SOL    HW1  262   0.170   0.555   1.345
   84SOL    HW2  263   0.072   0.630   1.453
   85SOL     OW  264   0.561   0.222   1.147
   85SOL    HW1  265   0.599   0.138   1.184
   85SOL    HW2  266   0.473   0.241   1.191
   86SOL     OW  267   0.866   0.454   0.642
   86SOL    HW1  268   0.834   0.526   0.580
   86SOL    HW2  269   0.890   0.373   0.589
   87SOL     OW  270   1.017   0.039   0.753
   87SOL    HW1  271   0.945   0.044   0.684
   87SOL    HW2  272   0.993  -0.030   0.822
   88SOL     OW  273   1.429   1.173   0.867
   88SOL    HW1  274   1.374   1.089   0.860
   88SOL    HW2  275   1.455   1.202   0.775
   89SOL     OW  276   1.466   0.590   0.992
   89SOL    HW1  277   1.436   0.495   0.999
   89SOL    HW2  278   1.539   0.606   1.058
   90SOL     OW  279   1.857   0.833   0.377
   90SOL    HW1  280   1.899   0.769   0.441
   90SOL    HW2  281   1.819   0.782   0.299
   91SOL     OW  282   0.488   1.385   0.174
   91SOL    HW1  283   0.401   1.370   0.221
   91SOL    HW2  284   0.471   1.411   0.079
   92SOL     OW  285   1.664   1.280   0.657
   92SOL    HW1  286   1.763   1.288   0.671
   92SOL    HW2  287   1.619   1.364   0.688
   93SOL     OW  288   1.390   0.575   0.078
   93SOL    HW1  289   1.336   0.554   0.159
   93SOL    HW2  290   1.481   0.534   0.087
   94SOL     OW  291   0.527   0.256   0.328
   94SOL    HW1  292   0.554   0.197   0.253
   94SOL    HW2  293   0.527   0.351   0.297
   95SOL     OW  294   1.754   1.223   1.588
   95SOL    HW1  295   1.845   1.184   1.575
   95SOL    HW2  296   1.762   1.319   1.612
   96SOL     OW  297   1.064   1.347   1.340
   96SOL    HW1  298   0.984   1.324   1.395
   96SOL    HW2  299   1.147   1.321   1.389
   97SOL     OW  300   1.592   1.629   1.625
   97SOL    HW1  301   1.619   1.663   1.535
   97SOL    HW2  302   1.671   1.591   1.671
   98SOL     OW  303   1.111   1.195   1.100
   98SOL    HW1  304   1.071   1.239   1.181
   98SOL    HW2  305   1.070   1.232   1.017
   99SOL     OW  306   1.638   1.099   1.079
   99SOL    HW1  307   1.643   1.180   1.138
   99SOL    HW2  308   1.552   1.101   1.028
  100SOL     OW  309   0.915   0.089   1.402
  100SOL    HW1  310   0.940   0.069   1.307
  100SOL    HW2  311   0.987   0.145   1.444
  101SOL     OW  312   0.980   1.116   1.719
  101SOL    HW1  313   0.881   1.122   1.729
  101SOL    HW2  314   1.003   1.036   1.663
  102SOL     OW  315   0.705   1.050   0.368
  102SOL    HW1  316   0.691   1.057   0.467
  102SOL    HW2  317   0.789   0.999   0.350
  103SOL     OW  318   0.410   0.813   1.251
  103SOL    HW1  319   0.496   0.825   1.301
  103SOL    HW2  320   0.368   0.726   1.278
  104SOL     OW  321   1.274   0.386   1.262
  104SOL    HW1  322   1.295   0.460   1.326
  104SOL    HW2  323   1.185   0.403   1.219
  105SOL     OW  324   0.064   1.564   1.331
  105SOL    HW1  325   0.018   1.646   1.297
  105SOL    HW2  326   0.162   1.583   1.340
  106SOL     OW  327   0.367   1.100   0.501
  106SOL    HW1  328   0.360   1.183   0.445
  106SOL    HW2  329   0.371   1.020   0.441
  107SOL     OW  330   0.566   0.537   0.865
  107SOL    HW1  331   0.578   0.603   0.791
  107SOL    HW2  332   0.612   0.571   0.948
  108SOL     OW  333   1.252   1.348   0.388
  108SOL    HW1  334   1.302   1.425   0.428
  108SOL    HW2  335   1.157   1.350   0.420
  109SOL     OW  336   1.272   1.445   1.142
  109SOL    HW1  337   1.319   1.458   1.229
  109SOL    HW2  338   1.206   1.371   1.151
  110SOL     OW  339   1.582   0.639   0.472
  110SOL    HW1  340   1.551   0.700   0.545
  110SOL    HW2  341   1.632   0.691   0.403
  111SOL     OW  342   0.354   1.510   1.329
  111SOL    HW1  343   0.333   1.466   1.242
  111SOL    HW2  344   0.451   1.536   1.332
  112SOL     OW  345   0.402   0.751   1.598
  112SOL    HW1  346   0.470   0.806   1.551
  112SOL    HW2  347   0.442   0.663   1.625
  113SOL     OW  348   1.587   0.779   1.670
  113SOL    HW1  349   1.495   0.817   1.665
  113SOL    HW2  350   1.647   0.826   1.605
  114SOL     OW  351   1.013   0.105   1.770
  114SOL    HW1  352   1.019   0.190   1.718
  114SOL    HW2  353   1.045   0.029   1.713
  115SOL     OW  354   0.504   0.050   1.740
  115SOL    HW1  355   0.462  -0.007   1.670
  115SOL    HW2  356   0.438   0.119   1.772
  116SOL     OW  357   0.573   0.870   1.029
  116SOL    HW1  358   0.617   0.959   1.020
  116SOL    HW2  359   0.510   0.870   1.106
  117SOL     OW  360   1.360   0.862   1.045
  117SOL    HW1  361   1.285   0.862   0.979
  117SOL    HW2  362   1.397   0.770   1.054
  118SOL     OW  363   1.209   0.525   0.275
  118SOL    HW1  364   1.222   0.441   0.329
  118SOL    HW2  365   1.180   0.599   0.335
  119SOL     OW  366   0.307   0.213   1.231
  119SOL    HW1  367   0.284   0.250   1.321
  119SOL    HW2  368   0.277   0.118   1.225
  120SOL     OW  369   0.037   1.310   1.282
  120SOL    HW1  370   0.090   1.261   1.350
  120SOL    HW2  371   0.059   1.408   1.287
  121SOL     OW  372   0.732   0.634   1.064
  121SOL    HW1  373   0.791   0.608   0.988
  121SOL    HW2  374   0.704   0.730   1.053
  122SOL     OW  375   1.728   0.935   1.854
  122SOL    HW1  376   1.682   0.928   1.765
  122SOL    HW2  377   1.666   0.979   1.920
  123SOL     OW  378   0.307   0.063   0.618
  123SOL    HW1  379   0.296   0.157   0.651
  123SOL    HW2  380   0.302   0.000   0.695
  124SOL     OW  381   1.622   0.367   0.374
  124SOL    HW1  382   1.624   0.291   0.438
  124SOL    HW2  383   1.574   0.444   0.414
  125SOL     OW  384   1.023   0.766   0.966
  125SOL    HW1  385   1.038   0.787   1.062
  125SOL    HW2  386   0.993   0.671   0.957
  126SOL     OW  387   0.980   1.573   1.700
  126SOL    HW1  388   0.960   1.617   1.612
  126SOL    HW2  389   1.019   1.482   1.684
  127SOL     OW  390   1.859   1.518   1.605
  127SOL    HW1  391   1.873   1.545   1.510
  127SOL    HW2  392   1.942   1.540   1.658
  128SOL     OW  393   0.350   0.898   1.804
  128SOL    HW1  394   0.426   0.942   1.852
  128SOL    HW2  395   0.385   0.851   1.722
  129SOL     OW  396   1.540   0.274   0.125
  129SOL    HW1  397   1.479   0.199   0.148
  129SOL    HW2  398   1.562   0.326   0.208
  130SOL     OW  399   1.303   0.838   0.042
  130SOL    HW1  400   1.337   0.745   0.057
  130SOL    HW2  401   1.321   0.865  -0.053
  131SOL     OW  402   1.068   1.333   0.849
  131SOL    HW1  403   1.075   1.249   0.794
  131SOL    HW2  404   1.130   1.402   0.813
  132SOL     OW  405   0.319   0.810   0.949
  132SOL    HW1  406   0.412   0.846   0.954
  132SOL    HW2  407   0.313   0.725   1.001
  133SOL     OW  408   0.339   0.509   1.006
  133SOL    HW1  409   0.287   0.426   0.989
  133SOL    HW2  410   0.416   0.514   0.942
  134SOL     OW  411   1.138   0.380   1.678
  134SOL    HW1  412   1.093   0.443   1.742
  134SOL    HW2  413   1.231   0.411   1.661
  135SOL     OW  414   1.160   0.207   1.477
  135SOL    HW1  415   1.160   0.271   1.554
  135SOL    HW2  416   1.188   0.255   1.394
  136SOL     OW  417   0.008   1.326   0.200
  136SOL    HW1  418  -0.085   1.347   0.169
  136SOL    HW2  419   0.018   1.227   0.213
  137SOL     OW  420   0.088   1.801   0.927
  137SOL    HW1  421   0.046   1.715   0.900
  137SOL    HW2  422   0.182   1.804   0.893
  138SOL     OW  423   0.504   1.568   0.910
  138SOL    HW1  424   0.570   1.642   0.919
  138SOL    HW2  425   0.548   1.489   0.868
  139SOL     OW  426   1.002   0.796   1.238
  139SOL    HW1  427   1.043   0.764   1.324
  139SOL    HW2  428   0.906   0.769   1.235
  140SOL     OW  429   0.040   0.544   1.114
  140SOL    HW1  430   0.125   0.511   1.073
  140SOL    HW2  431   0.053   0.559   1.212
  141SOL     OW  432   0.189   0.520   1.722
  141SOL    HW1  433   0.248   0.480   1.652
  141SOL    HW2  434   0.131   0.591   1.681
  142SOL     OW  435   1.369   0.950   1.660
  142SOL    HW1  436   1.408   1.039   1.680
  142SOL    HW2  437   1.379   0.930   1.563
  143SOL     OW  438   0.815   0.572   0.325
  143SOL    HW1  439   0.822   0.483   0.279
  143SOL    HW2  440   0.721   0.606   0.317
  144SOL     OW  441   1.657   0.604   1.206
  144SOL    HW1  442   1.619   0.535   1.268
  144SOL    HW2  443   1.739   0.568   1.162
  145SOL     OW  444   0.252   1.564   1.744
  145SOL    HW1  445   0.222   1.621   1.820
  145SOL    HW2  446   0.245   1.467   1.770
  146SOL     OW  447   0.671   0.464   1.269
  146SOL    HW1  448   0.637   0.375   1.239
  146SOL    HW2  449   0.697   0.518   1.189
  147SOL     OW  450   0.930   1.678   1.465
  147SOL    HW1  451   0.906   1.660   1.370
  147SOL    HW2  452   0.960   1.772   1.475
  148SOL     OW  453   0.473   0.500   0.191
  148SOL    HW1  454   0.534   0.580   0.195
  148SOL    HW2  455   0.378   0.531   0.198
  149SOL     OW  456   0.159   1.137   1.466
  149SOL    HW1  457   0.181   1.076   1.542
  149SOL    HW2  458   0.169   1.088   1.380
  150SOL     OW  459   1.347   1.059   1.234
  150SOL    HW1  460   1.371   0.996   1.160
  150SOL    HW2  461   1.257   1.099   1.216
  151SOL     OW  462   1.302   0.855   0.309
  151SOL    HW1  463   1.216   0.824   0.351
  151SOL    HW2  464   1.298   0.841   0.210
  152SOL     OW  465   1.759   1.747   1.154
  152SOL    HW1  466   1.820   1.777   1.081
  152SOL    HW2  467   1.721   1.658   1.132
  153SOL     OW  468   1.252   1.731   1.128
  153SOL    HW1  469   1.336   1.736   1.074
  153SOL    HW2  470   1.229   1.635   1.146
  154SOL     OW  471   0.083   1.258   1.022
  154SOL    HW1  472   0.078   1.257   1.122
  154SOL    HW2  473   0.000   1.217   0.984
  155SOL     OW  474   0.688   1.662   1.716
  155SOL    HW1  475   0.632   1.743   1.725
  155SOL    HW2  476   0.740   1.666   1.630
  156SOL     OW  477   0.903   0.086   0.133
  156SOL    HW1  478   0.954   0.087   0.047
  156SOL    HW2  479   0.959   0.044   0.204
  157SOL     OW  480   1.726   0.135   0.523
  157SOL    HW1  481   1.799   0.118   0.456
  157SOL    HW2  482   1.695   0.048   0.561
  158SOL     OW  483   1.388   1.573   0.477
  158SOL    HW1  484   1.455   1.585   0.403
  158SOL    HW2  485   1.348   1.662   0.500
  159SOL     OW  486   0.130   1.794   1.851
  159SOL    HW1  487   0.089   1.720   1.904
  159SOL    HW2  488   0.194   1.845   1.909
  160SOL     OW  489   1.280   0.927   0.672
  160SOL    HW1  490   1.340   0.846   0.674
  160SOL    HW2  491   1.320   0.996   0.612
  161SOL     OW  492   0.830   1.273   1.422
  161SOL    HW1  493   0.825   1.306   1.517
  161SOL    HW2  494   0.744   1.292   1.376
  162SOL     OW  495   0.672   1.616   0.154
  162SOL    HW1  496   0.681   1.626   0.055
  162SOL    HW2  497   0.632   1.527   0.175
  163SOL     OW  498   1.650   1.720   1.394
  163SOL    HW1  499   1.703   1.730   1.310
  163SOL    HW2  500   1.623   1.810   1.428
  164SOL     OW  501   1.841   0.175   0.963
  164SOL    HW1  502   1.880   0.090   0.927
  164SOL    HW2  503   1.743   0.177   0.944
  165SOL     OW  504   0.263   0.326   0.720
  165SOL    HW1  505   0.184   0.377   0.686
  165SOL    HW2  506   0.254   0.311   0.818
  166SOL     OW  507   1.194   1.612   0.031
  166SOL    HW1  508   1.200   1.519   0.068
  166SOL    HW2  509   1.135   1.612  -0.049
  167SOL     OW  510   0.822   1.002   1.372
  167SOL    HW1  511   0.862   1.001   1.280
  167SOL    HW2  512   0.832   1.094   1.412
  168SOL     OW  513   0.916   0.910   0.291
  168SOL    HW1  514   0.979   0.948   0.223
  168SOL    HW2  515   0.956   0.827   0.330
  169SOL     OW  516   1.504   1.607   0.044
  169SOL    HW1  517   1.412   1.644   0.051
  169SOL    HW2  518   1.542   1.627  -0.046
  170SOL     OW  519   0.372   1.288   1.490
  170SOL    HW1  520   0.359   1.381   1.456
  170SOL    HW2  521   0.288   1.236   1.477
  171SOL     OW  522   1.614   1.292   1.289
  171SOL    HW1  523   1.674   1.295   1.369
  171SOL    HW2  524   1.539   1.356   1.302
  172SOL     OW  525   1.039   1.098   0.696
  172SOL    HW1  526   0.969   1.051   0.750
  172SOL    HW2  527   1.098   1.030   0.653
  173SOL     OW  528   1.014   0.236   0.971
  173SOL    HW1  529   1.006   0.200   0.878
  173SOL    HW2  530   1.012   0.160   1.036
  174SOL     OW  531   0.590   1.487   0.491
  174SOL    HW1  532   0.632   1.429   0.421
  174SOL    HW2  533   0.546   1.566   0.447
  175SOL     OW  534   1.709   0.385   1.381
  175SOL    HW1  535   1.782   0.454   1.385
  175SOL    HW2  536   1.737   0.310   1.322
  176SOL     OW  537   0.255   1.348   0.290
  176SOL    HW1  538   0.159   1.349   0.263
  176SOL    HW2  539   0.267   1.401   0.374
  177SOL     OW  540   0.105   1.013   1.726
  177SOL    HW1  541   0.028   0.980   1.780
  177SOL    HW2  542   0.190   0.983   1.768
  178SOL     OW  543   0.672   0.203   1.489
  178SOL    HW1  544   0.762   0.187   1.449
  178SOL    HW2  545   0.680   0.208   1.588
  179SOL     OW  546   0.075   0.345   0.033
  179SOL    HW1  547  -0.017   0.317   0.004
  179SOL    HW2  548   0.106   0.422  -0.023
  180SOL     OW  549   1.440   0.856   1.398
  180SOL    HW1  550   1.383   0.908   1.335
  180SOL    HW2  551   1.536   0.868   1.374
  181SOL     OW  552   0.072   0.166   0.318
  181SOL    HW1  553   0.055   0.249   0.264
  181SOL    HW2  554   0.162   0.129   0.296
  182SOL     OW  555   1.183   1.335   0.119
  182SOL    HW1  556   1.084   1.324   0.121
  182SOL    HW2  557   1.217   1.350   0.212
  183SOL     OW  558   0.613   0.842   1.431
  183SOL    HW1  559   0.669   0.923   1.414
  183SOL    HW2  560   0.672   0.762   1.434
  184SOL     OW  561   1.493   1.767   0.959
  184SOL    HW1  562   1.526   1.831   0.890
  184SOL    HW2  563   1.559   1.761   1.034
  185SOL     OW  564   0.716   0.565   1.708
  185SOL    HW1  565   0.735   0.630   1.782
  185SOL    HW2  566   0.776   0.485   1.717
  186SOL     OW  567   1.450   1.220   1.633
  186SOL    HW1  568   1.441   1.210   1.732
  186SOL    HW2  569   1.546   1.213   1.607
  187SOL     OW  570   0.390   1.741   1.560
  187SOL    HW1  571   0.299   1.782   1.558
  187SOL    HW2  572   0.383   1.647   1.592
  188SOL     OW  573   1.674   0.883   1.254
  188SOL    HW1  574   1.647   0.794   1.217
  188SOL    HW2  575   1.675   0.951   1.181
  189SOL     OW  576   1.225   0.325   0.449
  189SOL    HW1  577   1.290   0.251   0.438
  189SOL    HW2  578   1.245   0.375   0.533
  190SOL     OW  579   0.594   0.745   0.652
  190SOL    HW1  580   0.644   0.830   0.633
  190SOL    HW2  581   0.506   0.747   0.604
  191SOL     OW  582   1.777   0.342   1.642
  191SOL    HW1  583   1.760   0.373   1.548
  191SOL    HW2  584   1.693   0.305   1.680
  192SOL     OW  585   1.730   0.934   1.517
  192SOL    HW1  586   1.768   1.025   1.532
  192SOL    HW2  587   1.722   0.917   1.418
  193SOL     OW  588   0.859   1.374   0.016
  193SOL    HW1  589   0.813   1.389   0.104
  193SOL    HW2  590   0.903   1.459  -0.014
  194SOL     OW  591   0.661   1.790   0.953
  194SOL    HW1  592   0.615   1.878   0.940
  194SOL    HW2  593   0.760   1.802   0.946
  195SOL     OW  594   0.859   0.956   0.861
  195SOL    HW1  595   0.913   0.887   0.909
  195SOL    HW2  596   0.827   1.025   0.927
  196SOL     OW  597   1.083   0.984   0.087
  196SOL    HW1  598   1.060   1.037   0.005
  196SOL    HW2  599   1.164   0.928   0.068
  197SOL     OW  600   1.861   1.569   0.851
  197SOL    HW1  601   1.790   1.557   0.781
  197SOL    HW2  602   1.862   1.490   0.911
  198SOL     OW  603   0.221   1.314   1.844
  198SOL    HW1  604   0.156   1.241   1.823
  198SOL    HW2  605   0.225   1.328   1.942
  199SOL     OW  606   0.079   1.240   0.653
  199SOL    HW1  607   0.078   1.193   0.741
  199SOL    HW2  608   0.161   1.212   0.602
  200SOL     OW  609   0.672   1.391   1.624
  200SOL    HW1  610   0.594   1.341   1.662
  200SOL    HW2  611   0.669   1.486   1.655
  201SOL     OW  612   1.824   0.192   1.227
  201SOL    HW1  613   1.820   0.102   1.271
  201SOL    HW2  614   1.827   0.181   1.128
  202SOL     OW  615   0.428   0.424   0.520
  202SOL    HW1  616   0.458   0.352   0.458
  202SOL    HW2  617   0.389   0.384   0.603
  203SOL     OW  618   1.705   1.487   1.104
  203SOL    HW1  619   1.612   1.462   1.077
  203SOL    HW2  620   1.731   1.437   1.186
  204SOL     OW  621   0.317   0.547   1.280
  204SOL    HW1  622   0.355   0.488   1.352
  204SOL    HW2  623   0.357   0.521   1.192
  205SOL     OW  624   0.812   1.586   0.687
  205SOL    HW1  625   0.844   1.596   0.593
  205SOL    HW2  626   0.733   1.524   0.689
  206SOL     OW  627   1.424   0.214   1.112
  206SOL    HW1  628   1.476   0.149   1.167
  206SOL    HW2  629   1.375   0.277   1.173
  207SOL     OW  630   1.001   0.034   1.154
  207SOL    HW1  631   0.938  -0.038   1.123
  207SOL    HW2  632   1.094  -0.002   1.154
  208SOL     OW  633   0.770   1.330   0.301
  208SOL    HW1  634   0.724   1.243   0.318
  208SOL    HW2  635   0.861   1.327   0.342
  209SOL     OW  636   0.618   1.567   1.284
  209SOL    HW1  637   0.613   1.649   1.341
  209SOL    HW2  638   0.707   1.564   1.239
  210SOL     OW  639   1.352   0.052   0.168
  210SOL    HW1  640   1.387   0.011   0.084
  210SOL    HW2  641   1.262   0.014   0.188
  211SOL     OW  642   1.300   0.453   0.691
  211SOL    HW1  643   1.241   0.533   0.695
  211SOL    HW2  644   1.315   0.418   0.784
  212SOL     OW  645   1.593   0.221   0.882
  212SOL    HW1  646   1.509   0.220   0.936
  212SOL    HW2  647   1.595   0.304   0.826
  213SOL     OW  648   0.039   1.077   0.300
  213SOL    HW1  649   0.138   1.066   0.291
  213SOL    HW2  650  -0.001   0.991   0.332
  214SOL     OW  651   0.875   1.646   0.337
  214SOL    HW1  652   0.798   1.611   0.283
  214SOL    HW2  653   0.843   1.717   0.399
  215SOL     OW  654   0.230   0.628   1.975
  215SOL    HW1  655   0.137   0.626   2.012
  215SOL    HW2  656   0.231   0.589   1.883
  216SOL     OW  657   0.225   0.275   2.858
  216SOL    HW1  658   0.260   0.258   2.950
  216SOL    HW2  659   0.137   0.230   2.846
  217SOL     OW  660   0.019   0.368   2.509
  217SOL    HW1  661  -0.063   0.411   2.548
  217SOL    HW2  662  -0.009   0.295   2.446
  218SOL     OW  663   0.569   1.275   3.027
  218SOL    HW1  664   0.476   1.268   2.990
  218SOL    HW2  665   0.580   1.364   3.071
  219SOL     OW  666   1.555   1.511   2.565
  219SOL    HW1  667   1.498   1.495   2.646
  219SOL    HW2  668   1.496   1.521   2.485
  220SOL     OW  669   1.135   0.703   2.579
  220SOL    HW1  670   1.192   0.781   2.554
  220SOL    HW2  671   1.075   0.729   2.655
  221SOL     OW  672   1.755   0.607   2.093
  221SOL    HW1  673   1.743   0.594   1.994
  221SOL    HW2  674   1.725   0.526   2.142
  222SOL     OW  675   0.768   1.144   2.885
  222SOL    HW1  676   0.690   1.161   2.945
  222SOL    HW2  677   0.802   1.231   2.849
  223SOL     OW  678   0.850   0.798   3.685
  223SOL    HW1  679   0.846   0.874   3.750
  223SOL    HW2  680   0.872   0.834   3.594
  224SOL     OW  681   0.685   1.012   2.527
  224SOL    HW1  682   0.754   0.996   2.597
  224SOL    HW2  683   0.612   1.069   2.565
  225SOL     OW  684   0.686   1.161   3.665
  225SOL    HW1  685   0.746   1.240   3.679
  225SOL    HW2  686   0.600   1.192   3.624
  226SOL     OW  687   0.335   1.435   2.923
  226SOL    HW1  688   0.257   1.404   2.870
  226SOL    HW2  689   0.393   1.493   2.866
  227SOL     OW  690   1.460   1.505   3.201
  227SOL    HW1  691   1.484   1.599   3.227
  227SOL    HW2  692   1.444   1.451   3.283
  228SOL     OW  693   0.438   0.392   3.361
  228SOL    HW1  694   0.520   0.336   3.370
  228SOL    HW2  695   0.357   0.334   3.365
  229SOL     OW  696   1.603   0.447   2.599
  229SOL    HW1  697   1.529   0.493   2.549
  229SOL    HW2  698   1.654   0.515   2.652
  230SOL     OW  699   0.231   1.713   2.345
  230SOL    HW1  700   0.265   1.790   2.399
  230SOL    HW2  701   0.275   1.713   2.255
  231SOL     OW  702   1.127   1.341   3.552
  231SOL    HW1  703   1.174   1.341   3.640
  231SOL    HW2  704   1.079   1.254   3.541
  232SOL     OW  705   0.230   1.434   2.400
  232SOL    HW1  706   0.204   1.530   2.400
  232SOL    HW2  707   0.159   1.380   2.445
  233SOL     OW  708   0.240   1.091   2.748
  233SOL    HW1  709   0.254   1.007   2.800
  233SOL    HW2  710   0.185   1.155   2.803
  234SOL     OW  711   0.620   1.786   3.301
  234SOL    HW1  712   0.528   1.769   3.336
  234SOL    HW2  713   0.648   1.878   3.327
  235SOL     OW  714   0.606   0.964   1.985
  235SOL    HW1  715   0.613   1.048   1.931
  235SOL    HW2  716   0.652   0.977   2.073
  236SOL     OW  717   1.594   0.114   3.342
  236SOL    HW1  718   1.576   0.181   3.270
  236SOL    HW2  719   1.591   0.160   3.431
  237SOL     OW  720   0.122   0.643   2.425
  237SOL    HW1  721   0.077   0.555   2.442
  237SOL    HW2  722   0.121   0.697   2.509
  238SOL     OW  723   1.842   1.767   2.221
  238SOL    HW1  724   1.896   1.738   2.301
  238SOL    HW2  725   1.872   1.857   2.192
  239SOL     OW  726   0.027   1.596   1.979
  239SOL    HW1  727   0.008   1.500   2.000
  239SOL    HW2  728  -0.006   1.654   2.054
  240SOL     OW  729   1.689   0.922   2.474
  240SOL    HW1  730   1.784   0.893   2.482
  240SOL    HW2  731   1.681   0.987   2.399
  241SOL     OW  732   1.641   1.108   2.294
  241SOL    HW1  733   1.727   1.110   2.242
  241SOL    HW2  734   1.655   1.155   2.382
  242SOL     OW  735   0.113   0.737   3.459
  242SOL    HW1  736   0.201   0.724   3.504
  242SOL    HW2  737   0.100   0.834   3.437
  243SOL     OW  738   0.613   1.365   2.588
  243SOL    HW1  739   0.564   1.278   2.597
  243SOL    HW2  740   0.590   1.408   2.501
  244SOL     OW  741   1.293   1.228   3.285
  244SOL    HW1  742   1.330   1.155   3.227
  244SOL    HW2  743   1.345   1.233   3.370
  245SOL     OW  744   0.809   0.004   2.364
  245SOL    HW1  745   0.849   0.095   2.355
  245SOL    HW2  746   0.709   0.012   2.370
  246SOL     OW  747   0.197   0.976   3.126
  246SOL    HW1  748   0.286   0.931   3.112
  246SOL    HW2  749   0.124   0.911   3.107
  247SOL     OW  750   1.525   0.999   2.052
  247SOL    HW1  751   1.462   0.923   2.065
  247SOL    HW2  752   1.573   1.017   2.138
  248SOL     OW  753   1.187   1.792   3.478
  248SOL    HW1  754   1.211   1.852   3.402
  248SOL    HW2  755   1.194   1.697   3.448
  249SOL     OW  756   0.317   0.251   3.663
  249SOL    HW1  757   0.388   0.322   3.669
  249SOL    HW2  758   0.229   0.290   3.691
  250SOL     OW  759   1.466   1.417   2.815
  250SOL    HW1  760   1.407   1.423   2.895
  250SOL    HW2  761   1.451   1.329   2.769
  251SOL     OW  762   1.667   1.714   2.434
  251SOL    HW1  763   1.626   1.691   2.346
  251SOL    HW2  764   1.649   1.640   2.499
  252SOL     OW  765   0.598   0.729   2.132
  252SOL    HW1  766   0.622   0.798   2.064
  252SOL    HW2  767   0.520   0.762   2.186
  253SOL     OW  768   1.281   0.345   2.806
  253SOL    HW1  769   1.195   0.295   2.793
  253SOL    HW2  770   1.343   0.291   2.862
  254SOL     OW  771   1.576   1.662   2.169
  254SOL    HW1  772   1.665   1.708   2.172
  254SOL    HW2  773   1.555   1.638   2.074
  255SOL     OW  774   0.807   0.605   3.327
  255SOL    HW1  775   0.760   0.602   3.416
  255SOL    HW2  776   0.756   0.550   3.261
  256SOL     OW  777   1.394   0.469   3.536
  256SOL    HW1  778   1.374   0.512   3.624
  256SOL    HW2  779   1.472   0.407   3.545
  257SOL     OW  780   0.973   0.890   3.434
  257SOL    HW1  781   1.019   0.806   3.405
  257SOL    HW2  782   0.917   0.924   3.359
  258SOL     OW  783   0.991   0.410   3.104
  258SOL    HW1  784   0.914   0.444   3.158
  258SOL    HW2  785   0.957   0.359   3.025
  259SOL     OW  786   1.041   0.701   2.291
  259SOL    HW1  787   1.067   0.697   2.387
  259SOL    HW2  788   0.956   0.650   2.277
  260SOL     OW  789   0.076   0.811   2.651
  260SOL    HW1  790   0.175   0.799   2.660
  260SOL    HW2  791   0.052   0.906   2.672
  261SOL     OW  792   0.130   1.821   3.433
  261SOL    HW1  793   0.120   1.806   3.532
  261SOL    HW2  794   0.044   1.857   3.397
  262SOL     OW  795   0.865   0.348   2.057
  262SOL    HW1  796   0.924   0.411   2.008
  262SOL    HW2  797   0.884   0.254   2.028
  263SOL     OW  798   1.719   0.585   3.693
  263SOL    HW1  799   1.693   0.674   3.657
  263SOL    HW2  800   1.717   0.517   3.620
  264SOL     OW  801   1.362   1.144   2.407
  264SOL    HW1  802   1.445   1.115   2.359
  264SOL    HW2  803   1.313   1.211   2.351
  265SOL     OW  804   0.550   0.196   2.747
  265SOL    HW1  805   0.545   0.191   2.847
  265SOL    HW2  806   0.552   0.292   2.718
  266SOL     OW  807   1.008   1.456   2.339
  266SOL    HW1  808   0.962   1.528   2.287
  266SOL    HW2  809   1.004   1.476   2.437
  267SOL     OW  810   0.351   1.801   2.715
  267SOL    HW1  811   0.401   1.715   2.721
  267SOL    HW2  812   0.416   1.878   2.712
  268SOL     OW  813   1.795   1.066   2.735
  268SOL    HW1  814   1.733   1.051   2.659
  268SOL    HW2  815   1.743   1.077   2.820
  269SOL     OW  816   1.227   1.550   3.368
  269SOL    HW1  817   1.233   1.473   3.432
  269SOL    HW2  818   1.175   1.524   3.288
  270SOL     OW  819   0.321   0.943   2.104
  270SOL    HW1  820   0.403   0.982   2.062
  270SOL    HW2  821   0.294   0.861   2.055
  271SOL     OW  822   1.458   0.735   2.590
  271SOL    HW1  823   1.453   0.670   2.665
  271SOL    HW2  824   1.538   0.794   2.603
  272SOL     OW  825   0.461   1.266   3.589
  272SOL    HW1  826   0.411   1.267   3.503
  272SOL    HW2  827   0.398   1.248   3.665
  273SOL     OW  828   1.111   1.776   2.099
  273SOL    HW1  829   1.051   1.714   2.149
  273SOL    HW2  830   1.142   1.732   2.014
  274SOL     OW  831   0.202   0.285   3.360
  274SOL    HW1  832   0.122   0.345   3.347
  274SOL    HW2  833   0.192   0.236   3.446
  275SOL     OW  834   1.632   1.377   1.943
  275SOL    HW1  835   1.600   1.471   1.933
  275SOL    HW2  836   1.556   1.314   1.931
  276SOL     OW  837   0.464   1.743   2.185
  276SOL    HW1  838   0.497   1.782   2.271
  276SOL    HW2  839   0.540   1.736   2.120
  277SOL     OW  840   1.400   0.107   2.288
  277SOL    HW1  841   1.376   0.070   2.198
  277SOL    HW2  842   1.499   0.123   2.292
  278SOL     OW  843   0.249   1.785   3.103
  278SOL    HW1  844   0.306   1.720   3.153
  278SOL    HW2  845   0.233   1.752   3.010
  279SOL     OW  846   0.940   1.698   2.766
  279SOL    HW1  847   1.020   1.641   2.787
  279SOL    HW2  848   0.891   1.658   2.689
  280SOL     OW  849   0.382   0.700   2.342
  280SOL    HW1  850   0.427   0.610   2.339
  280SOL    HW2  851   0.288   0.689   2.375
  281SOL     OW  852   1.547   0.222   3.591
  281SOL    HW1  853   1.542   0.259   3.683
  281SOL    HW2  854   1.475   0.153   3.579
  282SOL     OW  855   0.614   0.122   1.979
  282SOL    HW1  856   0.712   0.100   1.986
  282SOL    HW2  857   0.583   0.105   1.886
  283SOL     OW  858   0.781   0.264   3.611
  283SOL    HW1  859   0.848   0.203   3.654
  283SOL    HW2  860   0.708   0.283   3.676
  284SOL     OW  861   0.888   1.514   3.057
  284SOL    HW1  862   0.865   1.489   2.963
  284SOL    HW2  863   0.949   1.445   3.096
  285SOL     OW  864   1.351   0.590   3.295
  285SOL    HW1  865   1.379   0.547   3.380
  285SOL    HW2  866   1.376   0.686   3.296
  286SOL     OW  867   0.803   1.402   2.786
  286SOL    HW1  868   0.893   1.416   2.744
  286SOL    HW2  869   0.732   1.404   2.715
  287SOL     OW  870   0.922   0.503   2.761
  287SOL    HW1  871   0.897   0.494   2.665
  287SOL    HW2  872   0.970   0.421   2.792
  288SOL     OW  873   0.539   0.064   2.374
  288SOL    HW1  874   0.458   0.065   2.432
  288SOL    HW2  875   0.542   0.147   2.319
  289SOL     OW  876   1.434   1.188   1.903
  289SOL    HW1  877   1.466   1.112   1.960
  289SOL    HW2  878   1.342   1.215   1.933
  290SOL     OW  879   0.297   0.035   2.033
  290SOL    HW1  880   0.346   0.119   2.012
  290SOL    HW2  881   0.359  -0.030   2.078
  291SOL     OW  882   0.935   0.236   2.342
  291SOL    HW1  883   0.887   0.277   2.264
  291SOL    HW2  884   1.034   0.234   2.323
  292SOL     OW  885   1.076   0.683   3.326
  292SOL    HW1  886   0.996   0.622   3.329
  292SOL    HW2  887   1.157   0.630   3.302
  293SOL     OW  888   1.227   1.570   2.655
  293SOL    HW1  889   1.248   1.644   2.590
  293SOL    HW2  890   1.295   1.570   2.728
  294SOL     OW  891   0.459   1.152   2.603
  294SOL    HW1  892   0.388   1.125   2.668
  294SOL    HW2  893   0.433   1.124   2.510
  295SOL     OW  894   1.271   1.797   2.453
  295SOL    HW1  895   1.315   1.861   2.389
  295SOL    HW2  896   1.221   1.849   2.523
  296SOL     OW  897   1.032   0.549   1.878
  296SOL    HW1  898   0.991   0.631   1.839
  296SOL    HW2  899   1.096   0.575   1.951
  297SOL     OW  900   0.078   0.556   3.248
  297SOL    HW1  901   0.170   0.555   3.207
  297SOL    HW2  902   0.072   0.630   3.315
  298SOL     OW  903   0.561   0.222   3.009
  298SOL    HW1  904   0.599   0.138   3.046
  298SOL    HW2  905   0.473   0.241   3.053
  299SOL     OW  906   0.866   0.454   2.504
  299SOL    HW1  907   0.834   0.526   2.442
  299SOL    HW2  908   0.890   0.373   2.451
  300SOL     OW  909   1.017   0.039   2.615
  300SOL    HW1  910   0.945   0.044   2.546
  300SOL    HW2  911   0.993  -0.030   2.684
  301SOL     OW  912   1.429   1.173   2.729
  301SOL    HW1  913   1.374   1.089   2.722
  301SOL    HW2  914   1.455   1.202   2.637
  302SOL     OW  915   1.466   0.590   2.854
  302SOL    HW1  916   1.436   0.495   2.861
  302SOL    HW2  917   1.539   0.606   2.920
  303SOL     OW  918   1.857   0.833   2.239
  303SOL    HW1  919   1.899   0.769   2.303
  303SOL    HW2  920   1.819   0.782   2.161
  304SOL     OW  921   0.488   1.385   2.036
  304SOL    HW1  922   0.401   1.370   2.083
  304SOL    HW2  923   0.471   1.411   1.941
  305SOL     OW  924   1.664   1.280   2.519
  305SOL    HW1  925   1.763   1.288   2.533
  305SOL    HW2  926   1.619   1.364   2.550
  306SOL     OW  927   1.390   0.575   1.940
  306SOL    HW1  928   1.336   0.554   2.021
  306SOL    HW2  929   1.481   0.534   1.949
  307SOL     OW  930   0.527   0.256   2.190
  307SOL    HW1  931   0.554   0.197   2.115
  307SOL    HW2  932   0.527   0.351   2.159
  308SOL     OW  933   1.754   1.223   3.450
  308SOL    HW1  934   1.845   1.184   3.437
  308SOL    HW2  935   1.762   1.319   3.474
  309SOL     OW  936   1.064   1.347   3.202
  309SOL    HW1  937   0.984   1.324   3.257
  309SOL    HW2  938   1.147   1.321   3.251
  310SOL     OW  939   1.592   1.629   3.487
  310SOL    HW1  940   1.619   1.663   3.397
  310SOL    HW2  941   1.671   1.591   3.533
  311SOL     OW  942   1.111   1.195   2.962
  311SOL    HW1  943   1.071   1.239   3.043
  311SOL    HW2  944   1.070   1.232   2.879
  312SOL     OW  945   1.638   1.099   2.941
  312SOL    HW1  946   1.643   1.180   3.000
  312SOL    HW2  947   1.552   1.101   2.890
  313SOL     OW  948   0.915   0.089   3.264
  313SOL    HW1  949   0.940   0.069   3.169
  313SOL    HW2  950   0.987   0.145   3.306
  314SOL     OW  951   0.980   1.116   3.581
  314SOL    HW1  952   0.881   1.122   3.591
  314SOL    HW2  953   1.003   1.036   3.525
  315SOL     OW  954   0.705   1.050   2.230
  315SOL    HW1  955   0.691   1.057   2.329
  315SOL    HW2  956   0.789   0.999   2.212
  316SOL     OW  957   0.410   0.813   3.113
  316SOL    HW1  958   0.496   0.825   3.163
  316SOL    HW2  959   0.368   0.726   3.140
  317SOL     OW  960   1.274   0.386   3.124
  317SOL    HW1  961   1.295   0.460   3.188
  317SOL    HW2  962   1.185   0.403   3.081
  318SOL     OW  963   0.064   1.564   3.193
  318SOL    HW1  964   0.018   1.646   3.159
  318SOL    HW2  965   0.162   1.583   3.202
  319SOL     OW  966   0.367   1.100   2.363
  319SOL    HW1  967   0.360   1.183   2.307
  319SOL    HW2  968   0.371   1.020   2.303
  320SOL     OW  969   0.566   0.537   2.727
  320SOL    HW1  970   0.578   0.603   2.653
  320SOL    HW2  971   0.612   0.571   2.810
  321SOL     OW  972   1.252   1.348   2.250
  321SOL    HW1  973   1.302   1.425   2.290
  321SOL    HW2  974   1.157   1.350   2.282
  322SOL     OW  975   1.272   1.445   3.004
  322SOL    HW1  976   1.319   1.458   3.091
  322SOL    HW2  977   1.206   1.371   3.013
  323SOL     OW  978   1.582   0.639   2.334
  323SOL    HW1  979   1.551   0.700   2.407
  323SOL    HW2  980   1.632   0.691   2.265
  324SOL     OW  981   0.354   1.510   3.191
  324SOL    HW1  982   0.333   1.466   3.104
  324SOL    HW2  983   0.451   1.536   3.194
  325SOL     OW  984   0.402   0.751   3.460
  325SOL    HW1  985   0.470   0.806   3.413
  325SOL    HW2  986   0.442   0.663   3.487
  326SOL     OW  987   1.587   0.779   3.532
  326SOL    HW1  988   1.495   0.817   3.527
  326SOL    HW2  989   1.647   0.826   3.467
  327SOL     OW  990   1.013   0.105   3.632
  327SOL    HW1  991   1.019   0.190   3.580
  327SOL    HW2  992   1.045   0.029   3.575
  328SOL     OW  993   0.504   0.050   3.602
  328SOL    HW1  994   0.462  -0.007   3.532
  328SOL    HW2  995   0.438   0.119   3.634
  329SOL     OW  996   0.573   0.870   2.891
  329SOL    HW1  997   0.617   0.959   2.882
  329SOL    HW2  998   0.510   0.870   2.968
  330SOL     OW  999   1.360   0.862   2.907
  330SOL    HW1 1000   1.285   0.862   2.841
  330SOL    HW2 1001   1.397   0.770   2.916
  331SOL     OW 1002   1.209   0.525   2.137
  331SOL    HW1 1003   1.222   0.441   2.191
  331SOL    HW2 1004   1.180   0.599   2.197
  332SOL     OW 1005   0.307   0.213   3.093
  332SOL    HW1 1006   0.284   0.250   3.183
  332SOL    HW2 1007   0.277   0.118   3.087
  333SOL     OW 1008   0.037   1.310   3.144
  333SOL    HW1 1009   0.090   1.261   3.212
  333SOL    HW2 1010   0.059   1.408   3.149
  334SOL     OW 1011   0.732   0.634   2.926
  334SOL    HW1 1012   0.791   0.608   2.850
  334SOL    HW2 1013   0.704   0.730   2.915
  335SOL     OW 1014   1.728   0.935   3.716
  335SOL    HW1 1015   1.682   0.928   3.627
  335SOL    HW2 1016   1.666   0.979   3.782
  336SOL     OW 1017   0.307   0.063   2.480
  336SOL    HW1 1018   0.296   0.157   2.513
  336SOL    HW2 1019   0.302   0.000   2.557
  337SOL     OW 1020   1.622   0.367   2.236
  337SOL    HW1 1021   1.624   0.291   2.300
  337SOL    HW2 1022   1.574   0.444   2.276
  338SOL     OW 1023   1.023   0.766   2.828
  338SOL    HW1 1024   1.038   0.787   2.924
  338SOL    HW2 1025   0.993   0.671   2.819
  339SOL     OW 1026   0.980   1.573   3.562
  339SOL    HW1 1027   0.960   1.617   3.474
  339SOL    HW2 1028   1.019   1.482   3.546
  340SOL     OW 1029   1.859   1.518   3.467
  340SOL    HW1 1030   1.873   1.545   3.372
  340SOL    HW2 1031   1.942   1.540   3.520
  341SOL     OW 1032   0.350   0.898   3.666
  341SOL    HW1 1033   0.426   0.942   3.714
  341SOL    HW2 1034   0.385   0.851   3.584
  342SOL     OW 1035   1.540   0.274   1.987
  342SOL    HW1 1036   1.479   0.199   2.010
  342SOL    HW2 1037   1.562   0.326   2.070
  343SOL     OW 1038   1.303   0.838   1.904
  343SOL    HW1 1039   1.337   0.745   1.919
  343SOL    HW2 1040   1.321   0.865   1.809
  344SOL     OW 1041   1.068   1.333   2.711
  344SOL    HW1 1042   1.075   1.249   2.656
  344SOL    HW2 1043   1.130   1.402   2.675
  345SOL     OW 1044   0.319   0.810   2.811
  345SOL    HW1 1045   0.412   0.846   2.816
  345SOL    HW2 1046   0.313   0.725   2.863
  346SOL     OW 1047   0.339   0.509   2.868
  346SOL    HW1 1048   0.287   0.426   2.851
  346SOL    HW2 1049   0.416   0.514   2.804
  347SOL     OW 1050   1.138   0.380   3.540
  347SOL    HW1 1051   1.093   0.443   3.604
  347SOL    HW2 1052   1.231   0.411   3.523
  348SOL     OW 1053   1.160   0.207   3.339
  348SOL    HW1 1054   1.160   0.271   3.416
  348SOL    HW2 1055   1.188   0.255   3.256
  349SOL     OW 1056   0.008   1.326   2.062
  349SOL    HW1 1057  -0.085   1.347   2.031
  349SOL    HW2 1058   0.018   1.227   2.075
  350SOL     OW 1059   0.088   1.801   2.789
  350SOL    HW1 1060   0.046   1.715   2.762
  350SOL    HW2 1061   0.182   1.804   2.755
  351SOL     OW 1062   0.504   1.568   2.772
  351SOL    HW1 1063   0.570   1.642   2.781
  351SOL    HW2 1064   0.548   1.489   2.730
  352SOL     OW 1065   1.002   0.796   3.100
  352SOL    HW1 1066   1.043   0.764   3.186
  352SOL    HW2 1067   0.906   0.769   3.097
  353SOL     OW 1068   0.040   0.544   2.976
  353SOL    HW1 1069   0.125   0.511   2.935
  353SOL    HW2 1070   0.053   0.559   3.074
  354SOL     OW 1071   0.189   0.520   3.584
  354SOL    HW1 1072   0.248   0.480   3.514
  354SOL    HW2 1073   0.131   0.591   3.543
  355SOL     OW 1074   1.369   0.950   3.522
  355SOL    HW1 1075   1.408   1.039   3.542
  355SOL    HW2 1076   1.379   0.930   3.425
  356SOL     OW 1077   0.815   0.572   2.187
  356SOL    HW1 1078   0.822   0.483   2.141
  356SOL    HW2 1079   0.721   0.606   2.179
  357SOL     OW 1080   1.657   0.604   3.068
  357SOL    HW1 1081   1.619   0.535   3.130
  357SOL    HW2 1082   1.739   0.568   3.024
  358SOL     OW 1083   0.252   1.564   3.606
  358SOL    HW1 1084   0.222   1.621   3.682
  358SOL    HW2 1085   0.245   1.467   3.632
  359SOL     OW 1086   0.671   0.464   3.131
  359SOL    HW1 1087   0.637   0.375   3.101
  359SOL    HW2 1088   0.697   0.518   3.051
  360SOL     OW 1089   0.930   1.678   3.327
  360SOL    HW1 1090   0.906   1.660   3.232
  360SOL    HW2 1091   0.960   1.772   3.337
  361SOL     OW 1092   0.473   0.500   2.053
  361SOL    HW1 1093   0.534   0.580   2.057
  361SOL    HW2 1094   0.378   0.531   2.060
  362SOL     OW 1095   0.159   1.137   3.328
  362SOL    HW1 1096   0.181   1.076   3.404
  362SOL    HW2 1097   0.169   1.088   3.242
  363SOL     OW 1098   1.347   1.059   3.096
  363SOL    HW1 1099   1.371   0.996   3.022
  363SOL    HW2 1100   1.257   1.099   3.078
  364SOL     OW 1101   1.302   0.855   2.171
  364SOL    HW1 1102   1.216   0.824   2.213
  364SOL    HW2 1103   1.298   0.841   2.072
  365SOL     OW 1104   1.759   1.747   3.016
  365SOL    HW1 1105   1.820   1.777   2.943
  365SOL    HW2 1106   1.721   1.658   2.994
  366SOL     OW 1107   1.252   1.731   2.990
  366SOL    HW1 1108   1.336   1.736   2.936
  366SOL    HW2 1109   1.229   1.635   3.008
  367SOL     OW 1110   0.083   1.258   2.884
  367SOL    HW1 1111   0.078   1.257   2.984
  367SOL    HW2 1112   0.000   1.217   2.846
  368SOL     OW 1113   0.688   1.662   3.578
  368SOL    HW1 1114   0.632   1.743   3.587
  368SOL    HW2 1115   0.740   1.666   3.492
  369SOL     OW 1116   1.726   0.135   2.385
  369SOL    HW1 1117   1.799   0.118   2.318
  369SOL    HW2 1118   1.695   0.048   2.423
  370SOL     OW 1119   1.388   1.573   2.339
  370SOL    HW1 1120   1.455   1.585   2.265
  370SOL    HW2 1121   1.348   1.662   2.362
  371SOL     OW 1122   0.130   1.794   3.713
  371SOL    HW1 1123   0.089   1.720   3.766
  371SOL    HW2 1124   0.194   1.845   3.771
  372SOL     OW 1125   1.280   0.927   2.534
  372SOL    HW1 1126   1.340   0.846   2.536
  372SOL    HW2 1127   1.320   0.996   2.474
  373SOL     OW 1128   0.830   1.273   3.284
  373SOL    HW1 1129   0.825   1.306   3.379
  373SOL    HW2 1130   0.744   1.292   3.238
  374SOL     OW 1131   0.672   1.616   2.016
  374SOL    HW1 1132   0.681   1.626   1.917
  374SOL    HW2 1133   0.632   1.527   2.037
  375SOL     OW 1134   1.650   1.720   3.256
  375SOL    HW1 1135   1.703   1.730   3.172
  375SOL    HW2 1136   1.623   1.810   3.290
  376SOL     OW 1137   1.841   0.175   2.825
  376SOL    HW1 1138   1.880   0.090   2.789
  376SOL    HW2 1139   1.743   0.177   2.806
  377SOL     OW 1140   0.263   0.326   2.582
  377SOL    HW1 1141   0.184   0.377   2.548
  377SOL    HW2 1142   0.254   0.311   2.680
  378SOL     OW 1143   1.194   1.612   1.893
  378SOL    HW1 1144   1.200   1.519   1.930
  378SOL    HW2 1145   1.135   1.612   1.813
  379SOL     OW 1146   0.822   1.002   3.234
  379SOL    HW1 1147   0.862   1.001   3.142
  379SOL    HW2 1148   0.832   1.094   3.274
  380SOL     OW 1149   0.916   0.910   2.153
  380SOL    HW1 1150   0.979   0.948   2.085
  380SOL    HW2 1151   0.956   0.827   2.192
  381SOL     OW 1152   1.504   1.607   1.906
  381SOL    HW1 1153   1.412   1.644   1.913
  381SOL    HW2 1154   1.542   1.627   1.816
  382SOL     OW 1155   0.372   1.288   3.352
  382SOL    HW1 1156   0.359   1.381   3.318
  382SOL    HW2 1157   0.288   1.236   3.339
  383SOL     OW 1158   1.614   1.292   3.151
  383SOL    HW1 1159   1.674   1.295   3.231
  383SOL    HW2 1160   1.539   1.356   3.164
  384SOL     OW 1161   1.039   1.098   2.558
  384SOL    HW1 1162   0.969   1.051   2.612
  384SOL    HW2 1163   1.098   1.030   2.515
  385SOL     OW 1164   1.014   0.236   2.833
  385SOL    HW1 1165   1.006   0.200   2.740
  385SOL    HW2 1166   1.012   0.160   2.898
  386SOL     OW 1167   0.590   1.487   2.353
  386SOL    HW1 1168   0.632   1.429   2.283
  386SOL    HW2 1169   0.546   1.566   2.309
  387SOL     OW 1170   1.709   0.385   3.243
  387SOL    HW1 1171   1.782   0.454   3.247
  387SOL    HW2 1172   1.737   0.310   3.184
  388SOL     OW 1173   0.255   1.348   2.152
  388SOL    HW1 1174   0.159   1.349   2.125
  388SOL    HW2 1175   0.267   1.401   2.236
  389SOL     OW 1176   0.105   1.013   3.588
  389SOL    HW1 1177   0.028   0.980   3.642
  389SOL    HW2 1178   0.190   0.983   3.630
  390SOL     OW 1179   0.672   0.203   3.351
  390SOL    HW1 1180   0.762   0.187   3.311
  390SOL    HW2 1181   0.680   0.208   3.450
  391SOL     OW 1182   0.075   0.345   1.895
  391SOL    HW1 1183  -0.017   0.317   1.866
  391SOL    HW2 1184   0.106   0.422   1.839
  392SOL     OW 1185   1.440   0.856   3.260
  392SOL    HW1 1186   1.383   0.908   3.197
  392SOL    HW2 1187   1.536   0.868   3.236
  393SOL     OW 1188   0.072   0.166   2.180
  393SOL    HW1 1189   0.055   0.249   2.126
  393SOL    HW2 1190   0.162   0.129   2.158
  394SOL     OW 1191   1.183   1.335   1.981
  394SOL    HW1 1192   1.084   1.324   1.983
  394SOL    HW2 1193   1.217   1.350   2.074
  395SOL     OW 1194   0.613   0.842   3.293
  395SOL    HW1 1195   0.669   0.923   3.276
  395SOL    HW2 1196   0.672   0.762   3.296
  396SOL     OW 1197   1.493   1.767   2.821
  396SOL    HW1 1198   1.526   1.831   2.752
  396SOL    HW2 1199   1.559   1.761   2.896
  397SOL     OW 1200   0.716   0.565   3.570
  397SOL    HW1 1201   0.735   0.630   3.644
  397SOL    HW2 1202   0.776   0.485   3.579
  398SOL     OW 1203   1.450   1.220   3.495
  398SOL    HW1 1204   1.441   1.210   3.594
  398SOL    HW2 1205   1.546   1.213   3.469
  399SOL     OW 1206   0.390   1.741   3.422
  399SOL    HW1 1207   0.299   1.782   3.420
  399SOL    HW2 1208   0.383   1.647   3.454
  400SOL     OW 1209   1.674   0.883   3.116
  400SOL    HW1 1210   1.647   0.794   3.079
  400SOL    HW2 1211   1.675   0.951   3.043
  401SOL     OW 1212   1.225   0.325   2.311
  401SOL    HW1 1213   1.290   0.251   2.300
  401SOL    HW2 1214   1.245   0.375   2.395
  402SOL     OW 1215   0.594   0.745   2.514
  402SOL    HW1 1216   0.644   0.830   2.495
  402SOL    HW2 1217   0.506   0.747   2.466
  403SOL     OW 1218   1.777   0.342   3.504
  403SOL    HW1 1219   1.760   0.373   3.410
  403SOL    HW2 1220   1.693   0.305   3.542
  404SOL     OW 1221   1.730   0.934   3.379
  404SOL    HW1 1222   1.768   1.025   3.394
  404SOL    HW2 1223   1.722   0.917   3.280
  405SOL     OW 1224   0.859   1.374   1.878
  405SOL    HW1 1225   0.813   1.389   1.966
  405SOL    HW2 1226   0.903   1.459   1.848
  406SOL     OW 1227   0.661   1.790   2.815
  406SOL    HW1 1228   0.615   1.878   2.802
  406SOL    HW2 1229   0.760   1.802   2.808
  407SOL     OW 1230   0.859   0.956   2.723
  407SOL    HW1 1231   0.913   0.887   2.771
  407SOL    HW2 1232   0.827   1.025   2.789
  408SOL     OW 1233   1.083   0.984   1.949
  408SOL    HW1 1234   1.060   1.037   1.867
  408SOL    HW2 1235   1.164   0.928   1.930
  409SOL     OW 1236   1.861   1.569   2.713
  409SOL    HW1 1237   1.790   1.557   2.643
  409SOL    HW2 1238   1.862   1.490   2.773
  410SOL     OW 1239   0.221   1.314   3.706
  410SOL    HW1 1240   0.156   1.241   3.685
  410SOL    HW2 1241   0.225   1.328   3.804
  411SOL     OW 1242   0.079   1.240   2.515
  411SOL    HW1 1243   0.078   1.193   2.603
  411SOL    HW2 1244   0.161   1.212   2.464
  412SOL     OW 1245   0.672   1.391   3.486
  412SOL    HW1 1246   0.594   1.341   3.524
  412SOL    HW2 1247   0.669   1.486   3.517
  413SOL     OW 1248   1.824   0.192   3.089
  413SOL    HW1 1249   1.820   0.102   3.133
  413SOL    HW2 1250   1.827   0.181   2.990
  414SOL     OW 1251   0.428   0.424   2.382
  414SOL    HW1 1252   0.458   0.352   2.320
  414SOL    HW2 1253   0.389   0.384   2.465
  415SOL     OW 1254   1.705   1.487   2.966
  415SOL    HW1 1255   1.612   1.462   2.939
  415SOL    HW2 1256   1.731   1.437   3.048
  416SOL     OW 1257   0.317   0.547   3.142
  416SOL    HW1 1258   0.355   0.488   3.214
  416SOL    HW2 1259   0.357   0.521   3.054
  417SOL     OW 1260   0.812   1.586   2.549
  417SOL    HW1 1261   0.844   1.596   2.455
  417SOL    HW2 1262   0.733   1.524   2.551
  418SOL     OW 1263   1.424   0.214   2.974
  418SOL    HW1 1264   1.476   0.149   3.029
  418SOL    HW2 1265   1.375   0.277   3.035
  419SOL     OW 1266   1.001   0.034   3.016
  419SOL    HW1 1267   0.938  -0.038   2.985
  419SOL    HW2 1268   1.094  -0.002   3.016
  420SOL     OW 1269   0.770   1.330   2.163
  420SOL    HW1 1270   0.724   1.243   2.180
  420SOL    HW2 1271   0.861   1.327   2.204
  421SOL     OW 1272   0.618   1.567   3.146
  421SOL    HW1 1273   0.613   1.649   3.203
  421SOL    HW2 1274   0.707   1.564   3.101
  422SOL     OW 1275   1.352   0.052   2.030
  422SOL    HW1 1276   1.387   0.011   1.946
  422SOL    HW2 1277   1.262   0.014   2.050
  423SOL     OW 1278   1.300   0.453   2.553
  423SOL    HW1 1279   1.241   0.533   2.557
  423SOL    HW2 1280   1.315   0.418   2.646
  424SOL     OW 1281   1.593   0.221   2.744
  424SOL    HW1 1282   1.509   0.220   2.798
  424SOL    HW2 1283   1.595   0.304   2.688
  425SOL     OW 1284   0.039   1.077   2.162
  425SOL    HW1 1285   0.138   1.066   2.153
  425SOL    HW2 1286  -0.001   0.991   2.194
  426SOL     OW 1287   0.875   1.646   2.199
  426SOL    HW1 1288   0.798   1.611   2.145
  426SOL    HW2 1289   0.843   1.717   2.261
  427SOL     OW 1290   0.230   0.628   3.837
  427SOL    HW1 1291   0.137   0.626   3.874
  427SOL    HW2 1292   0.231   0.589   3.745
  428SOL     OW 1293   0.019   0.368   4.371
  428SOL    HW1 1294  -0.063   0.411   4.410
  428SOL    HW2 1295  -0.009   0.295   4.308
  429SOL     OW 1296   1.555   1.511   4.427
  429SOL    HW1 1297   1.498   1.495   4.508
  429SOL    HW2 1298   1.496   1.521   4.347
  430SOL     OW 1299   1.135   0.703   4.441
  430SOL    HW1 1300   1.192   0.781   4.416
  430SOL    HW2 1301   1.075   0.729   4.517
  431SOL     OW 1302   1.755   0.607   3.955
  431SOL    HW1 1303   1.743   0.594   3.856
  431SOL    HW2 1304   1.725   0.526   4.004
  432SOL     OW 1305   0.685   1.012   4.389
  432SOL    HW1 1306   0.754   0.996   4.459
  432SOL    HW2 1307   0.612   1.069   4.427
  433SOL     OW 1308   1.603   0.447   4.461
  433SOL    HW1 1309   1.529   0.493   4.411
  433SOL    HW2 1310   1.654   0.515   4.514
  434SOL     OW 1311   0.231   1.713   4.207
  434SOL    HW1 1312   0.265   1.790   4.261
  434SOL    HW2 1313   0.275   1.713   4.117
  435SOL     OW 1314   0.230   1.434   4.262
  435SOL    HW1 1315   0.204   1.530   4.262
  435SOL    HW2 1316   0.159   1.380   4.307
  436SOL     OW 1317   0.240   1.091   4.610
  436SOL    HW1 1318   0.254   1.007   4.662
  436SOL    HW2 1319   0.185   1.155   4.665
  437SOL     OW 1320   0.606   0.964   3.847
  437SOL    HW1 1321   0.613   1.048   3.793
  437SOL    HW2 1322   0.652   0.977   3.935
  438SOL     OW 1323   0.122   0.643   4.287
  438SOL    HW1 1324   0.077   0.555   4.304
  438SOL    HW2 1325   0.121   0.697   4.371
  439SOL     OW 1326   1.842   1.767   4.083
  439SOL    HW1 1327   1.896   1.738   4.163
  439SOL    HW2 1328   1.872   1.857   4.054
  440SOL     OW 1329   0.027   1.596   3.841
  440SOL    HW1 1330   0.008   1.500   3.862
  440SOL    HW2 1331  -0.006   1.654   3.916
  441SOL     OW 1332   1.689   0.922   4.336
  441SOL    HW1 1333   1.784   0.893   4.344
  441SOL    HW2 1334   1.681   0.987   4.261
  442SOL     OW 1335   1.641   1.108   4.156
  442SOL    HW1 1336   1.727   1.110   4.104
  442SOL    HW2 1337   1.655   1.155   4.244
  443SOL     OW 1338   0.613   1.365   4.450
  443SOL    HW1 1339   0.564   1.278   4.459
  443SOL    HW2 1340   0.590   1.408   4.363
  444SOL     OW 1341   0.809   0.004   4.226
  444SOL    HW1 1342   0.849   0.095   4.217
  444SOL    HW2 1343   0.709   0.012   4.232
  445SOL     OW 1344   1.525   0.999   3.914
  445SOL    HW1 1345   1.462   0.923   3.927
  445SOL    HW2 1346   1.573   1.017   4.000
  446SOL     OW 1347   1.466   1.417   4.677
  446SOL    HW1 1348   1.407   1.423   4.757
  446SOL    HW2 1349   1.451   1.329   4.631
  447SOL     OW 1350   1.667   1.714   4.296
  447SOL    HW1 1351   1.626   1.691   4.208
  447SOL    HW2 1352   1.649   1.640   4.361
  448SOL     OW 1353   0.598   0.729   3.994
  448SOL    HW1 1354   0.622   0.798   3.926
  448SOL    HW2 1355   0.520   0.762   4.048
  449SOL     OW 1356   1.281   0.345   4.668
  449SOL    HW1 1357   1.195   0.295   4.655
  449SOL    HW2 1358   1.343   0.291   4.724
  450SOL     OW 1359   1.576   1.662   4.031
  450SOL    HW1 1360   1.665   1.708   4.034
  450SOL    HW2 1361   1.555   1.638   3.936
  451SOL     OW 1362   1.041   0.701   4.153
  451SOL    HW1 1363   1.067   0.697   4.249
  451SOL    HW2 1364   0.956   0.650   4.139
  452SOL     OW 1365   0.076   0.811   4.513
  452SOL    HW1 1366   0.175   0.799   4.522
  452SOL    HW2 1367   0.052   0.906   4.534
  453SOL     OW 1368   0.865   0.348   3.919
  453SOL    HW1 1369   0.924   0.411   3.870
  453SOL    HW2 1370   0.884   0.254   3.890
  454SOL     OW 1371   1.362   1.144   4.269
  454SOL    HW1 1372   1.445   1.115   4.221
  454SOL    HW2 1373   1.313   1.211   4.213
  455SOL     OW 1374   1.008   1.456   4.201
  455SOL    HW1 1375   0.962   1.528   4.149
  455SOL    HW2 1376   1.004   1.476   4.299
  456SOL     OW 1377   0.351   1.801   4.577
  456SOL    HW1 1378   0.401   1.715   4.583
  456SOL    HW2 1379   0.416   1.878   4.574
  457SOL     OW 1380   1.795   1.066   4.597
  457SOL    HW1 1381   1.733   1.051   4.521
  457SOL    HW2 1382   1.743   1.077   4.682
  458SOL     OW 1383   0.321   0.943   3.966
  458SOL    HW1 1384   0.403   0.982   3.924
  458SOL    HW2 1385   0.294   0.861   3.917
  459SOL     OW 1386   1.458   0.735   4.452
  459SOL    HW1 1387   1.453   0.670   4.527
  459SOL    HW2 1388   1.538   0.794   4.465
  460SOL     OW 1389   1.111   1.776   3.961
  460SOL    HW1 1390   1.051   1.714   4.011
  460SOL    HW2 1391   1.142   1.732   3.876
  461SOL     OW 1392   1.632   1.377   3.805
  461SOL    HW1 1393   1.600   1.471   3.795
  461SOL    HW2 1394   1.556   1.314   3.793
  462SOL     OW 1395   0.464   1.743   4.047
  462SOL    HW1 1396   0.497   1.782   4.133
  462SOL    HW2 1397   0.540   1.736   3.982
  463SOL     OW 1398   1.400   0.107   4.150
  463SOL    HW1 1399   1.376   0.070   4.060
  463SOL    HW2 1400   1.499   0.123   4.154
  464SOL     OW 1401   0.382   0.700   4.204
  464SOL    HW1 1402   0.427   0.610   4.201
  464SOL    HW2 1403   0.288   0.689   4.237
  465SOL     OW 1404   0.614   0.122   3.841
  465SOL    HW1 1405   0.712   0.100   3.848
  465SOL    HW2 1406   0.583   0.105   3.748
  466SOL     OW 1407   0.539   0.064   4.236
  466SOL    HW1 1408   0.458   0.065   4.294
  466SOL    HW2 1409   0.542   0.147   4.181
  467SOL     OW 1410   1.434   1.188   3.765
  467SOL    HW1 1411   1.466   1.112   3.822
  467SOL    HW2 1412   1.342   1.215   3.795
  468SOL     OW 1413   0.297   0.035   3.895
  468SOL    HW1 1414   0.346   0.119   3.874
  468SOL    HW2 1415   0.359  -0.030   3.940
  469SOL     OW 1416   0.935   0.236   4.204
  469SOL    HW1 1417   0.887   0.277   4.126
  469SOL    HW2 1418   1.034   0.234   4.185
  470SOL     OW 1419   1.227   1.570   4.517
  470SOL    HW1 1420   1.248   1.644   4.452
  470SOL    HW2 1421   1.295   1.570   4.590
  471SOL     OW 1422   0.459   1.152   4.465
  471SOL    HW1 1423   0.388   1.125   4.530
  471SOL    HW2 1424   0.433   1.124   4.372
  472SOL     OW 1425   1.271   1.797   4.315
  472SOL    HW1 1426   1.315   1.861   4.251
  472SOL    HW2 1427   1.221   1.849   4.385
  473SOL     OW 1428   1.032   0.549   3.740
  473SOL    HW1 1429   0.991   0.631   3.701
  473SOL    HW2 1430   1.096   0.575   3.813
  474SOL     OW 1431   0.866   0.454   4.366
  474SOL    HW1 1432   0.834   0.526   4.304
  474SOL    HW2 1433   0.890   0.373   4.313
  475SOL     OW 1434   1.017   0.039   4.477
  475SOL    HW1 1435   0.945   0.044   4.408
  475SOL    HW2 1436   0.993  -0.030   4.546
  476SOL     OW 1437   1.857   0.833   4.101
  476SOL    HW1 1438   1.899   0.769   4.165
  476SOL    HW2 1439   1.819   0.782   4.023
  477SOL     OW 1440   0.488   1.385   3.898
  477SOL    HW1 1441   0.401   1.370   3.945
  477SOL    HW2 1442   0.471   1.411   3.803
  478SOL     OW 1443   1.664   1.280   4.381
  478SOL    HW1 1444   1.763   1.288   4.395
  478SOL    HW2 1445   1.619   1.364   4.412
  479SOL     OW 1446   1.390   0.575   3.802
  479SOL    HW1 1447   1.336   0.554   3.883
  479SOL    HW2 1448   1.481   0.534   3.811
  480SOL     OW 1449   0.527   0.256   4.052
  480SOL    HW1 1450   0.554   0.197   3.977
  480SOL    HW2 1451   0.527   0.351   4.021
  481SOL     OW 1452   0.705   1.050   4.092
  481SOL    HW1 1453   0.691   1.057   4.191
  481SOL    HW2 1454   0.789   0.999   4.074
  482SOL     OW 1455   0.367   1.100   4.225
  482SOL    HW1 1456   0.360   1.183   4.169
  482SOL    HW2 1457   0.371   1.020   4.165
  483SOL     OW 1458   0.566   0.537   4.589
  483SOL    HW1 1459   0.578   0.603   4.515
  483SOL    HW2 1460   0.612   0.571   4.672
  484SOL     OW 1461   1.252   1.348   4.112
  484SOL    HW1 1462   1.302   1.425   4.152
  484SOL    HW2 1463   1.157   1.350   4.144
  485SOL     OW 1464   1.582   0.639   4.196
  485SOL    HW1 1465   1.551   0.700   4.269
  485SOL    HW2 1466   1.632   0.691   4.127
  486SOL     OW 1467   1.209   0.525   3.999
  486SOL    HW1 1468   1.222   0.441   4.053
  486SOL    HW2 1469   1.180   0.599   4.059
  487SOL     OW 1470   0.732   0.634   4.788
  487SOL    HW1 1471   0.791   0.608   4.712
  487SOL    HW2 1472   0.704   0.730   4.777
  488SOL     OW 1473   0.307   0.063   4.342
  488SOL    HW1 1474   0.296   0.157   4.375
  488SOL    HW2 1475   0.302   0.000   4.419
  489SOL     OW 1476   1.622   0.367   4.098
  489SOL    HW1 1477   1.624   0.291   4.162
  489SOL    HW2 1478   1.574   0.444   4.138
  490SOL     OW 1479   1.540   0.274   3.849
  490SOL    HW1 1480   1.479   0.199   3.872
  490SOL    HW2 1481   1.562   0.326   3.932
  491SOL     OW 1482   1.303   0.838   3.766
  491SOL    HW1 1483   1.337   0.745   3.781
  491SOL    HW2 1484   1.321   0.865   3.671
  492SOL     OW 1485   1.068   1.333   4.573
  492SOL    HW1 1486   1.075   1.249   4.518
  492SOL    HW2 1487   1.130   1.402   4.537
  493SOL     OW 1488   0.319   0.810   4.673
  493SOL    HW1 1489   0.412   0.846   4.678
  493SOL    HW2 1490   0.313   0.725   4.725
  494SOL     OW 1491   0.008   1.326   3.924
  494SOL    HW1 1492  -0.085   1.347   3.893
  494SOL    HW2 1493   0.018   1.227   3.937
  495SOL     OW 1494   0.088   1.801   4.651
  495SOL    HW1 1495   0.046   1.715   4.624
  495SOL    HW2 1496   0.182   1.804   4.617
  496SOL     OW 1497   0.504   1.568   4.634
  496SOL    HW1 1498   0.570   1.642   4.643
  496SOL    HW2 1499   0.548   1.489   4.592
  497SOL     OW 1500   0.815   0.572   4.049
  497SOL    HW1 1501   0.822   0.483   4.003
  497SOL    HW2 1502   0.721   0.606   4.041
  498SOL     OW 1503   0.473   0.500   3.915
  498SOL    HW1 1504   0.534   0.580   3.919
  498SOL    HW2 1505   0.378   0.531   3.922
  499SOL     OW 1506   1.302   0.855   4.033
  499SOL    HW1 1507   1.216   0.824   4.075
  499SOL    HW2 1508   1.298   0.841   3.934
  500SOL     OW 1509   1.759   1.747   4.878
  500SOL    HW1 1510   1.820   1.777   4.805
  500SOL    HW2 1511   1.721   1.658   4.856
  501SOL     OW 1512   1.726   0.135   4.247
  501SOL    HW1 1513   1.799   0.118   4.180
  501SOL    HW2 1514   1.695   0.048   4.285
  502SOL     OW 1515   1.388   1.573   4.201
  502SOL    HW1 1516   1.455   1.585   4.127
  502SOL    HW2 1517   1.348   1.662   4.224
  503SOL     OW 1518   1.280   0.927   4.396
  503SOL    HW1 1519   1.340   0.846   4.398
  503SOL    HW2 1520   1.320   0.996   4.336
  504SOL     OW 1521   0.672   1.616   3.878
  504SOL    HW1 1522   0.681   1.626   3.779
  504SOL    HW2 1523   0.632   1.527   3.899
  505SOL     OW 1524   1.841   0.175   4.687
  505SOL    HW1 1525   1.880   0.090   4.651
  505SOL    HW2 1526   1.743   0.177   4.668
  506SOL     OW 1527   0.263   0.326   4.444
  506SOL    HW1 1528   0.184   0.377   4.410
  506SOL    HW2 1529   0.254   0.311   4.542
  507SOL     OW 1530   1.194   1.612   3.755
  507SOL    HW1 1531   1.200   1.519   3.792
  507SOL    HW2 1532   1.135   1.612   3.675
  508SOL     OW 1533   0.916   0.910   4.015
  508SOL    HW1 1534   0.979   0.948   3.947
  508SOL    HW2 1535   0.956   0.827   4.054
  509SOL     OW 1536   1.504   1.607   3.768
  509SOL    HW1 1537   1.412   1.644   3.775
  509SOL    HW2 1538   1.542   1.627   3.678
  510SOL     OW 1539   1.039   1.098   4.420
  510SOL    HW1 1540   0.969   1.051   4.474
  510SOL    HW2 1541   1.098   1.030   4.377
  511SOL     OW 1542   0.590   1.487   4.215
  511SOL    HW1 1543   0.632   1.429   4.145
  511SOL    HW2 1544   0.546   1.566   4.171
  512SOL     OW 1545   0.255   1.348   4.014
  512SOL    HW1 1546   0.159   1.349   3.987
  512SOL    HW2 1547   0.267   1.401   4.098
  513SOL     OW 1548   0.075   0.345   3.757
  513SOL    HW1 1549  -0.017   0.317   3.728
  513SOL    HW2 1550   0.106   0.422   3.701
  514SOL     OW 1551   0.072   0.166   4.042
  514SOL    HW1 1552   0.055   0.249   3.988
  514SOL    HW2 1553   0.162   0.129   4.020
  515SOL     OW 1554   1.183   1.335   3.843
  515SOL    HW1 1555   1.084   1.324   3.845
  515SOL    HW2 1556   1.217   1.350   3.936
  516SOL     OW 1557   1.674   0.883   4.978
  516SOL    HW1 1558   1.647   0.794   4.941
  516SOL    HW2 1559   1.675   0.951   4.905
  517SOL     OW 1560   1.225   0.325   4.173
  517SOL    HW1 1561   1.290   0.251   4.162
  517SOL    HW2 1562   1.245   0.375   4.257
  518SOL     OW 1563   0.594   0.745   4.376
  518SOL    HW1 1564   0.644   0.830   4.357
  518SOL    HW2 1565   0.506   0.747   4.328
  519SOL     OW 1566   0.859   1.374   3.740
  519SOL    HW1 1567   0.813   1.389   3.828
  519SOL    HW2 1568   0.903   1.459   3.710
  520SOL     OW 1569   0.661   1.790   4.677
  520SOL    HW1 1570   0.615   1.878   4.664
  520SOL    HW2 1571   0.760   1.802   4.670
  521SOL     OW 1572   0.859   0.956   4.585
  521SOL    HW1 1573   0.913   0.887   4.633
  521SOL    HW2 1574   0.827   1.025   4.651
  522SOL     OW 1575   1.083   0.984   3.811
  522SOL    HW1 1576   1.060   1.037   3.729
  522SOL    HW2 1577   1.164   0.928   3.792
  523SOL     OW 1578   1.861   1.569   4.575
  523SOL    HW1 1579   1.790   1.557   4.505
  523SOL    HW2 1580   1.862   1.490   4.635
  524SOL     OW 1581   0.079   1.240   4.377
  524SOL    HW1 1582   0.078   1.193   4.465
  524SOL    HW2 1583   0.161   1.212   4.326
  525SOL     OW 1584   1.824   0.192   4.951
  525SOL    HW1 1585   1.820   0.102   4.995
  525SOL    HW2 1586   1.827   0.181   4.852
  526SOL     OW 1587   0.428   0.424   4.244
  526SOL    HW1 1588   0.458   0.352   4.182
  526SOL    HW2 1589   0.389   0.384   4.327
  527SOL     OW 1590   0.812   1.586   4.411
  527SOL    HW1 1591   0.844   1.596   4.317
  527SOL    HW2 1592   0.733   1.524   4.413
  528SOL     OW 1593   0.770   1.330   4.025
  528SOL    HW1 1594   0.724   1.243   4.042
  528SOL    HW2 1595   0.861   1.327   4.066
  529SOL     OW 1596   1.352   0.052   3.892
  529SOL    HW1 1597   1.387   0.011   3.808
  529SOL    HW2 1598   1.262   0.014   3.912
  530SOL     OW 1599   1.300   0.453   4.415
  530SOL    HW1 1600   1.241   0.533   4.419
  530SOL    HW2 1601   1.315   0.418   4.508
  531SOL     OW 1602   1.593   0.221   4.606
  531SOL    HW1 1603   1.509   0.220   4.660
  531SOL    HW2 1604   1.595   0.304   4.550
  532SOL     OW 1605   0.039   1.077   4.024
  532SOL    HW1 1606   0.138   1.066   4.015
  532SOL    HW2 1607  -0.001   0.991   4.056
  533SOL     OW 1608   0.875   1.646   4.061
  533SOL    HW1 1609   0.798   1.611   4.007
  533SOL    HW2 1610   0.843   1.717   4.123
  534SOL     OW 1611   0.230   2.490   0.113
  534SOL    HW1 1612   0.137   2.488   0.150
  534SOL    HW2 1613   0.231   2.451   0.021
  535SOL     OW 1614   0.225   2.137   0.996
  535SOL    HW1 1615   0.260   2.120   1.088
  535SOL    HW2 1616   0.137   2.092   0.984
  536SOL     OW 1617   0.019   2.230   0.647
  536SOL    HW1 1618  -0.063   2.273   0.686
  536SOL    HW2 1619  -0.009   2.157   0.584
  537SOL     OW 1620   0.569   3.137   1.165
  537SOL    HW1 1621   0.476   3.130   1.128
  537SOL    HW2 1622   0.580   3.226   1.209
  538SOL     OW 1623   1.555   3.373   0.703
  538SOL    HW1 1624   1.498   3.357   0.784
  538SOL    HW2 1625   1.496   3.383   0.623
  539SOL     OW 1626   1.135   2.565   0.717
  539SOL    HW1 1627   1.192   2.643   0.692
  539SOL    HW2 1628   1.075   2.591   0.793
  540SOL     OW 1629   1.755   2.469   0.231
  540SOL    HW1 1630   1.743   2.456   0.132
  540SOL    HW2 1631   1.725   2.388   0.280
  541SOL     OW 1632   0.768   3.006   1.023
  541SOL    HW1 1633   0.690   3.023   1.083
  541SOL    HW2 1634   0.802   3.093   0.987
  542SOL     OW 1635   0.850   2.660   1.823
  542SOL    HW1 1636   0.846   2.736   1.888
  542SOL    HW2 1637   0.872   2.696   1.732
  543SOL     OW 1638   0.685   2.874   0.665
  543SOL    HW1 1639   0.754   2.858   0.735
  543SOL    HW2 1640   0.612   2.931   0.703
  544SOL     OW 1641   0.686   3.023   1.803
  544SOL    HW1 1642   0.746   3.102   1.817
  544SOL    HW2 1643   0.600   3.054   1.762
  545SOL     OW 1644   0.335   3.297   1.061
  545SOL    HW1 1645   0.257   3.266   1.008
  545SOL    HW2 1646   0.393   3.355   1.004
  546SOL     OW 1647   1.460   3.367   1.339
  546SOL    HW1 1648   1.484   3.461   1.365
  546SOL    HW2 1649   1.444   3.313   1.421
  547SOL     OW 1650   0.438   2.254   1.499
  547SOL    HW1 1651   0.520   2.198   1.508
  547SOL    HW2 1652   0.357   2.196   1.503
  548SOL     OW 1653   1.603   2.309   0.737
  548SOL    HW1 1654   1.529   2.355   0.687
  548SOL    HW2 1655   1.654   2.377   0.790
  549SOL     OW 1656   0.231   3.575   0.483
  549SOL    HW1 1657   0.265   3.652   0.537
  549SOL    HW2 1658   0.275   3.575   0.393
  550SOL     OW 1659   1.127   3.203   1.690
  550SOL    HW1 1660   1.174   3.203   1.778
  550SOL    HW2 1661   1.079   3.116   1.679
  551SOL     OW 1662   0.230   3.296   0.538
  551SOL    HW1 1663   0.204   3.392   0.538
  551SOL    HW2 1664   0.159   3.242   0.583
  552SOL     OW 1665   0.240   2.953   0.886
  552SOL    HW1 1666   0.254   2.869   0.938
  552SOL    HW2 1667   0.185   3.017   0.941
  553SOL     OW 1668   0.620   3.648   1.439
  553SOL    HW1 1669   0.528   3.631   1.474
  553SOL    HW2 1670   0.648   3.740   1.465
  554SOL     OW 1671   0.606   2.826   0.123
  554SOL    HW1 1672   0.613   2.910   0.069
  554SOL    HW2 1673   0.652   2.839   0.211
  555SOL     OW 1674   1.594   1.976   1.480
  555SOL    HW1 1675   1.576   2.043   1.408
  555SOL    HW2 1676   1.591   2.022   1.569
  556SOL     OW 1677   0.122   2.505   0.563
  556SOL    HW1 1678   0.077   2.417   0.580
  556SOL    HW2 1679   0.121   2.559   0.647
  557SOL     OW 1680   1.842   3.629   0.359
  557SOL    HW1 1681   1.896   3.600   0.439
  557SOL    HW2 1682   1.872   3.719   0.330
  558SOL     OW 1683   0.027   3.458   0.117
  558SOL    HW1 1684   0.008   3.362   0.138
  558SOL    HW2 1685  -0.006   3.516   0.192
  559SOL     OW 1686   1.689   2.784   0.612
  559SOL    HW1 1687   1.784   2.755   0.620
  559SOL    HW2 1688   1.681   2.849   0.537
  560SOL     OW 1689   1.641   2.970   0.432
  560SOL    HW1 1690   1.727   2.972   0.380
  560SOL    HW2 1691   1.655   3.017   0.520
  561SOL     OW 1692   0.113   2.599   1.597
  561SOL    HW1 1693   0.201   2.586   1.642
  561SOL    HW2 1694   0.100   2.696   1.575
  562SOL     OW 1695   0.613   3.227   0.726
  562SOL    HW1 1696   0.564   3.140   0.735
  562SOL    HW2 1697   0.590   3.270   0.639
  563SOL     OW 1698   1.293   3.090   1.423
  563SOL    HW1 1699   1.330   3.017   1.365
  563SOL    HW2 1700   1.345   3.095   1.508
  564SOL     OW 1701   0.809   1.866   0.502
  564SOL    HW1 1702   0.849   1.957   0.493
  564SOL    HW2 1703   0.709   1.874   0.508
  565SOL     OW 1704   0.197   2.838   1.264
  565SOL    HW1 1705   0.286   2.793   1.250
  565SOL    HW2 1706   0.124   2.773   1.245
  566SOL     OW 1707   1.525   2.861   0.190
  566SOL    HW1 1708   1.462   2.785   0.203
  566SOL    HW2 1709   1.573   2.879   0.276
  567SOL     OW 1710   1.187   3.654   1.616
  567SOL    HW1 1711   1.211   3.714   1.540
  567SOL    HW2 1712   1.194   3.559   1.586
  568SOL     OW 1713   0.317   2.113   1.801
  568SOL    HW1 1714   0.388   2.184   1.807
  568SOL    HW2 1715   0.229   2.152   1.829
  569SOL     OW 1716   1.466   3.279   0.953
  569SOL    HW1 1717   1.407   3.285   1.033
  569SOL    HW2 1718   1.451   3.191   0.907
  570SOL     OW 1719   1.667   3.576   0.572
  570SOL    HW1 1720   1.626   3.553   0.484
  570SOL    HW2 1721   1.649   3.502   0.637
  571SOL     OW 1722   0.598   2.591   0.270
  571SOL    HW1 1723   0.622   2.660   0.202
  571SOL    HW2 1724   0.520   2.624   0.324
  572SOL     OW 1725   1.281   2.207   0.944
  572SOL    HW1 1726   1.195   2.157   0.931
  572SOL    HW2 1727   1.343   2.153   1.000
  573SOL     OW 1728   1.576   3.524   0.307
  573SOL    HW1 1729   1.665   3.570   0.310
  573SOL    HW2 1730   1.555   3.500   0.212
  574SOL     OW 1731   0.807   2.467   1.465
  574SOL    HW1 1732   0.760   2.464   1.554
  574SOL    HW2 1733   0.756   2.412   1.399
  575SOL     OW 1734   1.394   2.331   1.674
  575SOL    HW1 1735   1.374   2.374   1.762
  575SOL    HW2 1736   1.472   2.269   1.683
  576SOL     OW 1737   0.973   2.752   1.572
  576SOL    HW1 1738   1.019   2.668   1.543
  576SOL    HW2 1739   0.917   2.786   1.497
  577SOL     OW 1740   0.991   2.272   1.242
  577SOL    HW1 1741   0.914   2.306   1.296
  577SOL    HW2 1742   0.957   2.221   1.163
  578SOL     OW 1743   1.041   2.563   0.429
  578SOL    HW1 1744   1.067   2.559   0.525
  578SOL    HW2 1745   0.956   2.512   0.415
  579SOL     OW 1746   0.076   2.673   0.789
  579SOL    HW1 1747   0.175   2.661   0.798
  579SOL    HW2 1748   0.052   2.768   0.810
  580SOL     OW 1749   0.130   3.683   1.571
  580SOL    HW1 1750   0.120   3.668   1.670
  580SOL    HW2 1751   0.044   3.719   1.535
  581SOL     OW 1752   0.865   2.210   0.195
  581SOL    HW1 1753   0.924   2.273   0.146
  581SOL    HW2 1754   0.884   2.116   0.166
  582SOL     OW 1755   1.719   2.447   1.831
  582SOL    HW1 1756   1.693   2.536   1.795
  582SOL    HW2 1757   1.717   2.379   1.758
  583SOL     OW 1758   1.362   3.006   0.545
  583SOL    HW1 1759   1.445   2.977   0.497
  583SOL    HW2 1760   1.313   3.073   0.489
  584SOL     OW 1761   0.550   2.058   0.885
  584SOL    HW1 1762   0.545   2.053   0.985
  584SOL    HW2 1763   0.552   2.154   0.856
  585SOL     OW 1764   1.008   3.318   0.477
  585SOL    HW1 1765   0.962   3.390   0.425
  585SOL    HW2 1766   1.004   3.338   0.575
  586SOL     OW 1767   0.351   3.663   0.853
  586SOL    HW1 1768   0.401   3.577   0.859
  586SOL    HW2 1769   0.416   3.740   0.850
  587SOL     OW 1770   1.795   2.928   0.873
  587SOL    HW1 1771   1.733   2.913   0.797
  587SOL    HW2 1772   1.743   2.939   0.958
  588SOL     OW 1773   1.227   3.412   1.506
  588SOL    HW1 1774   1.233   3.335   1.570
  588SOL    HW2 1775   1.175   3.386   1.426
  589SOL     OW 1776   0.321   2.805   0.242
  589SOL    HW1 1777   0.403   2.844   0.200
  589SOL    HW2 1778   0.294   2.723   0.193
  590SOL     OW 1779   1.458   2.597   0.728
  590SOL    HW1 1780   1.453   2.532   0.803
  590SOL    HW2 1781   1.538   2.656   0.741
  591SOL     OW 1782   0.461   3.128   1.727
  591SOL    HW1 1783   0.411   3.129   1.641
  591SOL    HW2 1784   0.398   3.110   1.803
  592SOL     OW 1785   1.111   3.638   0.237
  592SOL    HW1 1786   1.051   3.576   0.287
  592SOL    HW2 1787   1.142   3.594   0.152
  593SOL     OW 1788   0.202   2.147   1.498
  593SOL    HW1 1789   0.122   2.207   1.485
  593SOL    HW2 1790   0.192   2.098   1.584
  594SOL     OW 1791   1.632   3.239   0.081
  594SOL    HW1 1792   1.600   3.333   0.071
  594SOL    HW2 1793   1.556   3.176   0.069
  595SOL     OW 1794   0.464   3.605   0.323
  595SOL    HW1 1795   0.497   3.644   0.409
  595SOL    HW2 1796   0.540   3.598   0.258
  596SOL     OW 1797   1.400   1.969   0.426
  596SOL    HW1 1798   1.376   1.932   0.336
  596SOL    HW2 1799   1.499   1.985   0.430
  597SOL     OW 1800   0.249   3.647   1.241
  597SOL    HW1 1801   0.306   3.582   1.291
  597SOL    HW2 1802   0.233   3.614   1.148
  598SOL     OW 1803   0.940   3.560   0.904
  598SOL    HW1 1804   1.020   3.503   0.925
  598SOL    HW2 1805   0.891   3.520   0.827
  599SOL     OW 1806   0.382   2.562   0.480
  599SOL    HW1 1807   0.427   2.472   0.477
  599SOL    HW2 1808   0.288   2.551   0.513
  600SOL     OW 1809   1.547   2.084   1.729
  600SOL    HW1 1810   1.542   2.121   1.821
  600SOL    HW2 1811   1.475   2.015   1.717
  601SOL     OW 1812   0.781   2.126   1.749
  601SOL    HW1 1813   0.848   2.065   1.792
  601SOL    HW2 1814   0.708   2.145   1.814
  602SOL     OW 1815   0.888   3.376   1.195
  602SOL    HW1 1816   0.865   3.351   1.101
  602SOL    HW2 1817   0.949   3.307   1.234
  603SOL     OW 1818   1.351   2.452   1.433
  603SOL    HW1 1819   1.379   2.409   1.518
  603SOL    HW2 1820   1.376   2.548   1.434
  604SOL     OW 1821   0.803   3.264   0.924
  604SOL    HW1 1822   0.893   3.278   0.882
  604SOL    HW2 1823   0.732   3.266   0.853
  605SOL     OW 1824   0.922   2.365   0.899
  605SOL    HW1 1825   0.897   2.356   0.803
  605SOL    HW2 1826   0.970   2.283   0.930
  606SOL     OW 1827   0.539   1.926   0.512
  606SOL    HW1 1828   0.458   1.927   0.570
  606SOL    HW2 1829   0.542   2.009   0.457
  607SOL     OW 1830   1.434   3.050   0.041
  607SOL    HW1 1831   1.466   2.974   0.098
  607SOL    HW2 1832   1.342   3.077   0.071
  608SOL     OW 1833   0.297   1.897   0.171
  608SOL    HW1 1834   0.346   1.981   0.150
  608SOL    HW2 1835   0.359   1.832   0.216
  609SOL     OW 1836   0.935   2.098   0.480
  609SOL    HW1 1837   0.887   2.139   0.402
  609SOL    HW2 1838   1.034   2.096   0.461
  610SOL     OW 1839   1.076   2.545   1.464
  610SOL    HW1 1840   0.996   2.484   1.467
  610SOL    HW2 1841   1.157   2.492   1.440
  611SOL     OW 1842   1.227   3.432   0.793
  611SOL    HW1 1843   1.248   3.506   0.728
  611SOL    HW2 1844   1.295   3.432   0.866
  612SOL     OW 1845   0.459   3.014   0.741
  612SOL    HW1 1846   0.388   2.987   0.806
  612SOL    HW2 1847   0.433   2.986   0.648
  613SOL     OW 1848   1.271   3.659   0.591
  613SOL    HW1 1849   1.315   3.723   0.527
  613SOL    HW2 1850   1.221   3.711   0.661
  614SOL     OW 1851   1.032   2.411   0.016
  614SOL    HW1 1852   0.991   2.493  -0.023
  614SOL    HW2 1853   1.096   2.437   0.089
  615SOL     OW 1854   0.078   2.418   1.386
  615SOL    HW1 1855   0.170   2.417   1.345
  615SOL    HW2 1856   0.072   2.492   1.453
  616SOL     OW 1857   0.561   2.084   1.147
  616SOL    HW1 1858   0.599   2.000   1.184
  616SOL    HW2 1859   0.473   2.103   1.191
  617SOL     OW 1860   0.866   2.316   0.642
  617SOL    HW1 1861   0.834   2.388   0.580
  617SOL    HW2 1862   0.890   2.235   0.589
  618SOL     OW 1863   1.017   1.901   0.753
  618SOL    HW1 1864   0.945   1.906   0.684
  618SOL    HW2 1865   0.993   1.832   0.822
  619SOL     OW 1866   1.429   3.035   0.867
  619SOL    HW1 1867   1.374   2.951   0.860
  619SOL    HW2 1868   1.455   3.064   0.775
  620SOL     OW 1869   1.466   2.452   0.992
  620SOL    HW1 1870   1.436   2.357   0.999
  620SOL    HW2 1871   1.539   2.468   1.058
  621SOL     OW 1872   1.857   2.695   0.377
  621SOL    HW1 1873   1.899   2.631   0.441
  621SOL    HW2 1874   1.819   2.644   0.299
  622SOL     OW 1875   0.488   3.247   0.174
  622SOL    HW1 1876   0.401   3.232   0.221
  622SOL    HW2 1877   0.471   3.273   0.079
  623SOL     OW 1878   1.664   3.142   0.657
  623SOL    HW1 1879   1.763   3.150   0.671
  623SOL    HW2 1880   1.619   3.226   0.688
  624SOL     OW 1881   1.390   2.437   0.078
  624SOL    HW1 1882   1.336   2.416   0.159
  624SOL    HW2 1883   1.481   2.396   0.087
  625SOL     OW 1884   0.527   2.118   0.328
  625SOL    HW1 1885   0.554   2.059   0.253
  625SOL    HW2 1886   0.527   2.213   0.297
  626SOL     OW 1887   1.754   3.085   1.588
  626SOL    HW1 1888   1.845   3.046   1.575
  626SOL    HW2 1889   1.762   3.181   1.612
  627SOL     OW 1890   1.064   3.209   1.340
  627SOL    HW1 1891   0.984   3.186   1.395
  627SOL    HW2 1892   1.147   3.183   1.389
  628SOL     OW 1893   1.592   3.491   1.625
  628SOL    HW1 1894   1.619   3.525   1.535
  628SOL    HW2 1895   1.671   3.453   1.671
  629SOL     OW 1896   1.111   3.057   1.100
  629SOL    HW1 1897   1.071   3.101   1.181
  629SOL    HW2 1898   1.070   3.094   1.017
  630SOL     OW 1899   1.638   2.961   1.079
  630SOL    HW1 1900   1.643   3.042   1.138
  630SOL    HW2 1901   1.552   2.963   1.028
  631SOL     OW 1902   0.915   1.951   1.402
  631SOL    HW1 1903   0.940   1.931   1.307
  631SOL    HW2 1904   0.987   2.007   1.444
  632SOL     OW 1905   0.980   2.978   1.719
  632SOL    HW1 1906   0.881   2.984   1.729
  632SOL    HW2 1907   1.003   2.898   1.663
  633SOL     OW 1908   0.705   2.912   0.368
  633SOL    HW1 1909   0.691   2.919   0.467
  633SOL    HW2 1910   0.789   2.861   0.350
  634SOL     OW 1911   0.410   2.675   1.251
  634SOL    HW1 1912   0.496   2.687   1.301
  634SOL    HW2 1913   0.368   2.588   1.278
  635SOL     OW 1914   1.274   2.248   1.262
  635SOL    HW1 1915   1.295   2.322   1.326
  635SOL    HW2 1916   1.185   2.265   1.219
  636SOL     OW 1917   0.064   3.426   1.331
  636SOL    HW1 1918   0.018   3.508   1.297
  636SOL    HW2 1919   0.162   3.445   1.340
  637SOL     OW 1920   0.367   2.962   0.501
  637SOL    HW1 1921   0.360   3.045   0.445
  637SOL    HW2 1922   0.371   2.882   0.441
  638SOL     OW 1923   0.566   2.399   0.865
  638SOL    HW1 1924   0.578   2.465   0.791
  638SOL    HW2 1925   0.612   2.433   0.948
  639SOL     OW 1926   1.252   3.210   0.388
  639SOL    HW1 1927   1.302   3.287   0.428
  639SOL    HW2 1928   1.157   3.212   0.420
  640SOL     OW 1929   1.272   3.307   1.142
  640SOL    HW1 1930   1.319   3.320   1.229
  640SOL    HW2 1931   1.206   3.233   1.151
  641SOL     OW 1932   1.582   2.501   0.472
  641SOL    HW1 1933   1.551   2.562   0.545
  641SOL    HW2 1934   1.632   2.553   0.403
  642SOL     OW 1935   0.354   3.372   1.329
  642SOL    HW1 1936   0.333   3.328   1.242
  642SOL    HW2 1937   0.451   3.398   1.332
  643SOL     OW 1938   0.402   2.613   1.598
  643SOL    HW1 1939   0.470   2.668   1.551
  643SOL    HW2 1940   0.442   2.525   1.625
  644SOL     OW 1941   1.587   2.641   1.670
  644SOL    HW1 1942   1.495   2.679   1.665
  644SOL    HW2 1943   1.647   2.688   1.605
  645SOL     OW 1944   1.013   1.967   1.770
  645SOL    HW1 1945   1.019   2.052   1.718
  645SOL    HW2 1946   1.045   1.891   1.713
  646SOL     OW 1947   0.504   1.912   1.740
  646SOL    HW1 1948   0.462   1.855   1.670
  646SOL    HW2 1949   0.438   1.981   1.772
  647SOL     OW 1950   0.573   2.732   1.029
  647SOL    HW1 1951   0.617   2.821   1.020
  647SOL    HW2 1952   0.510   2.732   1.106
  648SOL     OW 1953   1.360   2.724   1.045
  648SOL    HW1 1954   1.285   2.724   0.979
  648SOL    HW2 1955   1.397   2.632   1.054
  649SOL     OW 1956   1.209   2.387   0.275
  649SOL    HW1 1957   1.222   2.303   0.329
  649SOL    HW2 1958   1.180   2.461   0.335
  650SOL     OW 1959   0.307   2.075   1.231
  650SOL    HW1 1960   0.284   2.112   1.321
  650SOL    HW2 1961   0.277   1.980   1.225
  651SOL     OW 1962   0.037   3.172   1.282
  651SOL    HW1 1963   0.090   3.123   1.350
  651SOL    HW2 1964   0.059   3.270   1.287
  652SOL     OW 1965   0.732   2.496   1.064
  652SOL    HW1 1966   0.791   2.470   0.988
  652SOL    HW2 1967   0.704   2.592   1.053
  653SOL     OW 1968   1.728   2.797   1.854
  653SOL    HW1 1969   1.682   2.790   1.765
  653SOL    HW2 1970   1.666   2.841   1.920
  654SOL     OW 1971   0.307   1.925   0.618
  654SOL    HW1 1972   0.296   2.019   0.651
  654SOL    HW2 1973   0.302   1.862   0.695
  655SOL     OW 1974   1.622   2.229   0.374
  655SOL    HW1 1975   1.624   2.153   0.438
  655SOL    HW2 1976   1.574   2.306   0.414
  656SOL     OW 1977   1.023   2.628   0.966
  656SOL    HW1 1978   1.038   2.649   1.062
  656SOL    HW2 1979   0.993   2.533   0.957
  657SOL     OW 1980   0.980   3.435   1.700
  657SOL    HW1 1981   0.960   3.479   1.612
  657SOL    HW2 1982   1.019   3.344   1.684
  658SOL     OW 1983   1.859   3.380   1.605
  658SOL    HW1 1984   1.873   3.407   1.510
  658SOL    HW2 1985   1.942   3.402   1.658
  659SOL     OW 1986   0.350   2.760   1.804
  659SOL    HW1 1987   0.426   2.804   1.852
  659SOL    HW2 1988   0.385   2.713   1.722
  660SOL     OW 1989   1.540   2.136   0.125
  660SOL    HW1 1990   1.479   2.061   0.148
  660SOL    HW2 1991   1.562   2.188   0.208
  661SOL     OW 1992   1.303   2.700   0.042
  661SOL    HW1 1993   1.337   2.607   0.057
  661SOL    HW2 1994   1.321   2.727  -0.053
  662SOL     OW 1995   1.068   3.195   0.849
  662SOL    HW1 1996   1.075   3.111   0.794
  662SOL    HW2 1997   1.130   3.264   0.813
  663SOL     OW 1998   0.319   2.672   0.949
  663SOL    HW1 1999   0.412   2.708   0.954
  663SOL    HW2 2000   0.313   2.587   1.001
  664SOL     OW 2001   0.339   2.371   1.006
  664SOL    HW1 2002   0.287   2.288   0.989
  664SOL    HW2 2003   0.416   2.376   0.942
  665SOL     OW 2004   1.138   2.242   1.678
  665SOL    HW1 2005   1.093   2.305   1.742
  665SOL    HW2 2006   1.231   2.273   1.661
  666SOL     OW 2007   1.160   2.069   1.477
  666SOL    HW1 2008   1.160   2.133   1.554
  666SOL    HW2 2009   1.188   2.117   1.394
  667SOL     OW 2010   0.008   3.188   0.200
  667SOL    HW1 2011  -0.085   3.209   0.169
  667SOL    HW2 2012   0.018   3.089   0.213
  668SOL     OW 2013   0.088   3.663   0.927
  668SOL    HW1 2014   0.046   3.577   0.900
  668SOL    HW2 2015   0.182   3.666   0.893
  669SOL     OW 2016   0.504   3.430   0.910
  669SOL    HW1 2017   0.570   3.504   0.919
  669SOL    HW2 2018   0.548   3.351   0.868
  670SOL     OW 2019   1.002   2.658   1.238
  670SOL    HW1 2020   1.043   2.626   1.324
  670SOL    HW2 2021   0.906   2.631   1.235
  671SOL     OW 2022   0.040   2.406   1.114
  671SOL    HW1 2023   0.125   2.373   1.073
  671SOL    HW2 2024   0.053   2.421   1.212
  672SOL     OW 2025   0.189   2.382   1.722
  672SOL    HW1 2026   0.248   2.342   1.652
  672SOL    HW2 2027   0.131   2.453   1.681
  673SOL     OW 2028   1.369   2.812   1.660
  673SOL    HW1 2029   1.408   2.901   1.680
  673SOL    HW2 2030   1.379   2.792   1.563
  674SOL     OW 2031   0.815   2.434   0.325
  674SOL    HW1 2032   0.822   2.345   0.279
  674SOL    HW2 2033   0.721   2.468   0.317
  675SOL     OW 2034   1.657   2.466   1.206
  675SOL    HW1 2035   1.619   2.397   1.268
  675SOL    HW2 2036   1.739   2.430   1.162
  676SOL     OW 2037   0.252   3.426   1.744
  676SOL    HW1 2038   0.222   3.483   1.820
  676SOL    HW2 2039   0.245   3.329   1.770
  677SOL     OW 2040   0.671   2.326   1.269
  677SOL    HW1 2041   0.637   2.237   1.239
  677SOL    HW2 2042   0.697   2.380   1.189
  678SOL     OW 2043   0.930   3.540   1.465
  678SOL    HW1 2044   0.906   3.522   1.370
  678SOL    HW2 2045   0.960   3.634   1.475
  679SOL     OW 2046   0.473   2.362   0.191
  679SOL    HW1 2047   0.534   2.442   0.195
  679SOL    HW2 2048   0.378   2.393   0.198
  680SOL     OW 2049   0.159   2.999   1.466
  680SOL    HW1 2050   0.181   2.938   1.542
  680SOL    HW2 2051   0.169   2.950   1.380
  681SOL     OW 2052   1.347   2.921   1.234
  681SOL    HW1 2053   1.371   2.858   1.160
  681SOL    HW2 2054   1.257   2.961   1.216
  682SOL     OW 2055   1.302   2.717   0.309
  682SOL    HW1 2056   1.216   2.686   0.351
  682SOL    HW2 2057   1.298   2.703   0.210
  683SOL     OW 2058   1.759   3.609   1.154
  683SOL    HW1 2059   1.820   3.639   1.081
  683SOL    HW2 2060   1.721   3.520   1.132
  684SOL     OW 2061   1.252   3.593   1.128
  684SOL    HW1 2062   1.336   3.598   1.074
  684SOL    HW2 2063   1.229   3.497   1.146
  685SOL     OW 2064   0.083   3.120   1.022
  685SOL    HW1 2065   0.078   3.119   1.122
  685SOL    HW2 2066   0.000   3.079   0.984
  686SOL     OW 2067   0.688   3.524   1.716
  686SOL    HW1 2068   0.632   3.605   1.725
  686SOL    HW2 2069   0.740   3.528   1.630
  687SOL     OW 2070   0.903   1.948   0.133
  687SOL    HW1 2071   0.954   1.949   0.047
  687SOL    HW2 2072   0.959   1.906   0.204
  688SOL     OW 2073   1.726   1.997   0.523
  688SOL    HW1 2074   1.799   1.980   0.456
  688SOL    HW2 2075   1.695   1.910   0.561
  689SOL     OW 2076   1.388   3.435   0.477
  689SOL    HW1 2077   1.455   3.447   0.403
  689SOL    HW2 2078   1.348   3.524   0.500
  690SOL     OW 2079   0.130   3.656   1.851
  690SOL    HW1 2080   0.089   3.582   1.904
  690SOL    HW2 2081   0.194   3.707   1.909
  691SOL     OW 2082   1.280   2.789   0.672
  691SOL    HW1 2083   1.340   2.708   0.674
  691SOL    HW2 2084   1.320   2.858   0.612
  692SOL     OW 2085   0.830   3.135   1.422
  692SOL    HW1 2086   0.825   3.168   1.517
  692SOL    HW2 2087   0.744   3.154   1.376
  693SOL     OW 2088   0.672   3.478   0.154
  693SOL    HW1 2089   0.681   3.488   0.055
  693SOL    HW2 2090   0.632   3.389   0.175
  694SOL     OW 2091   1.650   3.582   1.394
  694SOL    HW1 2092   1.703   3.592   1.310
  694SOL    HW2 2093   1.623   3.672   1.428
  695SOL     OW 2094   1.841   2.037   0.963
  695SOL    HW1 2095   1.880   1.952   0.927
  695SOL    HW2 2096   1.743   2.039   0.944
  696SOL     OW 2097   0.263   2.188   0.720
  696SOL    HW1 2098   0.184   2.239   0.686
  696SOL    HW2 2099   0.254   2.173   0.818
  697SOL     OW 2100   1.194   3.474   0.031
  697SOL    HW1 2101   1.200   3.381   0.068
  697SOL    HW2 2102   1.135   3.474  -0.049
  698SOL     OW 2103   0.822   2.864   1.372
  698SOL    HW1 2104   0.862   2.863   1.280
  698SOL    HW2 2105   0.832   2.956   1.412
  699SOL     OW 2106   0.916   2.772   0.291
  699SOL    HW1 2107   0.979   2.810   0.223
  699SOL    HW2 2108   0.956   2.689   0.330
  700SOL     OW 2109   1.504   3.469   0.044
  700SOL    HW1 2110   1.412   3.506   0.051
  700SOL    HW2 2111   1.542   3.489  -0.046
  701SOL     OW 2112   0.372   3.150   1.490
  701SOL    HW1 2113   0.359   3.243   1.456
  701SOL    HW2 2114   0.288   3.098   1.477
  702SOL     OW 2115   1.614   3.154   1.289
  702SOL    HW1 2116   1.674   3.157   1.369
  702SOL    HW2 2117   1.539   3.218   1.302
  703SOL     OW 2118   1.039   2.960   0.696
  703SOL    HW1 2119   0.969   2.913   0.750
  703SOL    HW2 2120   1.098   2.892   0.653
  704SOL     OW 2121   1.014   2.098   0.971
  704SOL    HW1 2122   1.006   2.062   0.878
  704SOL    HW2 2123   1.012   2.022   1.036
  705SOL     OW 2124   0.590   3.349   0.491
  705SOL    HW1 2125   0.632   3.291   0.421
  705SOL    HW2 2126   0.546   3.428   0.447
  706SOL     OW 2127   1.709   2.247   1.381
  706SOL    HW1 2128   1.782   2.316   1.385
  706SOL    HW2 2129   1.737   2.172   1.322
  707SOL     OW 2130   0.255   3.210   0.290
  707SOL    HW1 2131   0.159   3.211   0.263
  707SOL    HW2 2132   0.267   3.263   0.374
  708SOL     OW 2133   0.105   2.875   1.726
  708SOL    HW1 2134   0.028   2.842   1.780
  708SOL    HW2 2135   0.190   2.845   1.768
  709SOL     OW 2136   0.672   2.065   1.489
  709SOL    HW1 2137   0.762   2.049   1.449
  709SOL    HW2 2138   0.680   2.070   1.588
  710SOL     OW 2139   0.075   2.207   0.033
  710SOL    HW1 2140  -0.017   2.179   0.004
  710SOL    HW2 2141   0.106   2.284  -0.023
  711SOL     OW 2142   1.440   2.718   1.398
  711SOL    HW1 2143   1.383   2.770   1.335
  711SOL    HW2 2144   1.536   2.730   1.374
  712SOL     OW 2145   0.072   2.028   0.318
  712SOL    HW1 2146   0.055   2.111   0.264
  712SOL    HW2 2147   0.162   1.991   0.296
  713SOL     OW 2148   1.183   3.197   0.119
  713SOL    HW1 2149   1.084   3.186   0.121
  713SOL    HW2 2150   1.217   3.212   0.212
  714SOL     OW 2151   0.613   2.704   1.431
  714SOL    HW1 2152   0.669   2.785   1.414
  714SOL    HW2 2153   0.672   2.624   1.434
  715SOL     OW 2154   1.493   3.629   0.959
  715SOL    HW1 2155   1.526   3.693   0.890
  715SOL    HW2 2156   1.559   3.623   1.034
  716SOL     OW 2157   0.716   2.427   1.708
  716SOL    HW1 2158   0.735   2.492   1.782
  716SOL    HW2 2159   0.776   2.347   1.717
  717SOL     OW 2160   1.450   3.082   1.633
  717SOL    HW1 2161   1.441   3.072   1.732
  717SOL    HW2 2162   1.546   3.075   1.607
  718SOL     OW 2163   0.390   3.603   1.560
  718SOL    HW1 2164   0.299   3.644   1.558
  718SOL    HW2 2165   0.383   3.509   1.592
  719SOL     OW 2166   1.674   2.745   1.254
  719SOL    HW1 2167   1.647   2.656   1.217
  719SOL    HW2 2168   1.675   2.813   1.181
  720SOL     OW 2169   1.225   2.187   0.449
  720SOL    HW1 2170   1.290   2.113   0.438
  720SOL    HW2 2171   1.245   2.237   0.533
  721SOL     OW 2172   0.594   2.607   0.652
  721SOL    HW1 2173   0.644   2.692   0.633
  721SOL    HW2 2174   0.506   2.609   0.604
  722SOL     OW 2175   1.777   2.204   1.642
  722SOL    HW1 2176   1.760   2.235   1.548
  722SOL    HW2 2177   1.693   2.167   1.680
  723SOL     OW 2178   1.730   2.796   1.517
  723SOL    HW1 2179   1.768   2.887   1.532
  723SOL    HW2 2180   1.722   2.779   1.418
  724SOL     OW 2181   0.859   3.236   0.016
  724SOL    HW1 2182   0.813   3.251   0.104
  724SOL    HW2 2183   0.903   3.321  -0.014
  725SOL     OW 2184   0.661   3.652   0.953
  725SOL    HW1 2185   0.615   3.740   0.940
  725SOL    HW2 2186   0.760   3.664   0.946
  726SOL     OW 2187   0.859   2.818   0.861
  726SOL    HW1 2188   0.913   2.749   0.909
  726SOL    HW2 2189   0.827   2.887   0.927
  727SOL     OW 2190   1.083   2.846   0.087
  727SOL    HW1 2191   1.060   2.899   0.005
  727SOL    HW2 2192   1.164   2.790   0.068
  728SOL     OW 2193   1.861   3.431   0.851
  728SOL    HW1 2194   1.790   3.419   0.781
  728SOL    HW2 2195   1.862   3.352   0.911
  729SOL     OW 2196   0.221   3.176   1.844
  729SOL    HW1 2197   0.156   3.103   1.823
  729SOL    HW2 2198   0.225   3.190   1.942
  730SOL     OW 2199   0.079   3.102   0.653
  730SOL    HW1 2200   0.078   3.055   0.741
  730SOL    HW2 2201   0.161   3.074   0.602
  731SOL     OW 2202   0.672   3.253   1.624
  731SOL    HW1 2203   0.594   3.203   1.662
  731SOL    HW2 2204   0.669   3.348   1.655
  732SOL     OW 2205   1.824   2.054   1.227
  732SOL    HW1 2206   1.820   1.964   1.271
  732SOL    HW2 2207   1.827   2.043   1.128
  733SOL     OW 2208   0.428   2.286   0.520
  733SOL    HW1 2209   0.458   2.214   0.458
  733SOL    HW2 2210   0.389   2.246   0.603
  734SOL     OW 2211   1.705   3.349   1.104
  734SOL    HW1 2212   1.612   3.324   1.077
  734SOL    HW2 2213   1.731   3.299   1.186
  735SOL     OW 2214   0.317   2.409   1.280
  735SOL    HW1 2215   0.355   2.350   1.352
  735SOL    HW2 2216   0.357   2.383   1.192
  736SOL     OW 2217   0.812   3.448   0.687
  736SOL    HW1 2218   0.844   3.458   0.593
  736SOL    HW2 2219   0.733   3.386   0.689
  737SOL     OW 2220   1.424   2.076   1.112
  737SOL    HW1 2221   1.476   2.011   1.167
  737SOL    HW2 2222   1.375   2.139   1.173
  738SOL     OW 2223   1.001   1.896   1.154
  738SOL    HW1 2224   0.938   1.824   1.123
  738SOL    HW2 2225   1.094   1.860   1.154
  739SOL     OW 2226   0.770   3.192   0.301
  739SOL    HW1 2227   0.724   3.105   0.318
  739SOL    HW2 2228   0.861   3.189   0.342
  740SOL     OW 2229   0.618   3.429   1.284
  740SOL    HW1 2230   0.613   3.511   1.341
  740SOL    HW2 2231   0.707   3.426   1.239
  741SOL     OW 2232   1.352   1.914   0.168
  741SOL    HW1 2233   1.387   1.873   0.084
  741SOL    HW2 2234   1.262   1.876   0.188
  742SOL     OW 2235   1.300   2.315   0.691
  742SOL    HW1 2236   1.241   2.395   0.695
  742SOL    HW2 2237   1.315   2.280   0.784
  743SOL     OW 2238   1.593   2.083   0.882
  743SOL    HW1 2239   1.509   2.082   0.936
  743SOL    HW2 2240   1.595   2.166   0.826
  744SOL     OW 2241   0.039   2.939   0.300
  744SOL    HW1 2242   0.138   2.928   0.291
  744SOL    HW2 2243  -0.001   2.853   0.332
  745SOL     OW 2244   0.875   3.508   0.337
  745SOL    HW1 2245   0.798   3.473   0.283
  745SOL    HW2 2246   0.843   3.579   0.399
  746SOL     OW 2247   0.230   2.490   1.975
  746SOL    HW1 2248   0.137   2.488   2.012
  746SOL    HW2 2249   0.231   2.451   1.883
  747SOL     OW 2250   0.225   2.137   2.858
  747SOL    HW1 2251   0.260   2.120   2.950
  747SOL    HW2 2252   0.137   2.092   2.846
  748SOL     OW 2253   0.019   2.230   2.509
  748SOL    HW1 2254  -0.063   2.273   2.548
  748SOL    HW2 2255  -0.009   2.157   2.446
  749SOL     OW 2256   0.569   3.137   3.027
  749SOL    HW1 2257   0.476   3.130   2.990
  749SOL    HW2 2258   0.580   3.226   3.071
  750SOL     OW 2259   1.555   3.373   2.565
  750SOL    HW1 2260   1.498   3.357   2.646
  750SOL    HW2 2261   1.496   3.383   2.485
  751SOL     OW 2262   1.135   2.565   2.579
  751SOL    HW1 2263   1.192   2.643   2.554
  751SOL    HW2 2264   1.075   2.591   2.655
  752SOL     OW 2265   1.755   2.469   2.093
  752SOL    HW1 2266   1.743   2.456   1.994
  752SOL    HW2 2267   1.725   2.388   2.142
  753SOL     OW 2268   0.768   3.006   2.885
  753SOL    HW1 2269   0.690   3.023   2.945
  753SOL    HW2 2270   0.802   3.093   2.849
  754SOL     OW 2271   0.850   2.660   3.685
  754SOL    HW1 2272   0.846   2.736   3.750
  754SOL    HW2 2273   0.872   2.696   3.594
  755SOL     OW 2274   0.685   2.874   2.527
  755SOL    HW1 2275   0.754   2.858   2.597
  755SOL    HW2 2276   0.612   2.931   2.565
  756SOL     OW 2277   0.686   3.023   3.665
  756SOL    HW1 2278   0.746   3.102   3.679
  756SOL    HW2 2279   0.600   3.054   3.624
  757SOL     OW 2280   0.335   3.297   2.923
  757SOL    HW1 2281   0.257   3.266   2.870
  757SOL    HW2 2282   0.393   3.355   2.866
  758SOL     OW 2283   1.460   3.367   3.201
  758SOL    HW1 2284   1.484   3.461   3.227
  758SOL    HW2 2285   1.444   3.313   3.283
  759SOL     OW 2286   0.438   2.254   3.361
  759SOL    HW1 2287   0.520   2.198   3.370
  759SOL    HW2 2288   0.357   2.196   3.365
  760SOL     OW 2289   1.603   2.309   2.599
  760SOL    HW1 2290   1.529   2.355   2.549
  760SOL    HW2 2291   1.654   2.377   2.652
  761SOL     OW 2292   0.231   3.575   2.345
  761SOL    HW1 2293   0.265   3.652   2.399
  761SOL    HW2 2294   0.275   3.575   2.255
  762SOL     OW 2295   1.127   3.203   3.552
  762SOL    HW1 2296   1.174   3.203   3.640
  762SOL    HW2 2297   1.079   3.116   3.541
  763SOL     OW 2298   0.230   3.296   2.400
  763SOL    HW1 2299   0.204   3.392   2.400
  763SOL    HW2 2300   0.159   3.242   2.445
  764SOL     OW 2301   0.240   2.953   2.748
  764SOL    HW1 2302   0.254   2.869   2.800
  764SOL    HW2 2303   0.185   3.017   2.803
  765SOL     OW 2304   0.620   3.648   3.301
  765SOL    HW1 2305   0.528   3.631   3.336
  765SOL    HW2 2306   0.648   3.740   3.327
  766SOL     OW 2307   0.606   2.826   1.985
  766SOL    HW1 2308   0.613   2.910   1.931
  766SOL    HW2 2309   0.652   2.839   2.073
  767SOL     OW 2310   1.594   1.976   3.342
  767SOL    HW1 2311   1.576   2.043   3.270
  767SOL    HW2 2312   1.591   2.022   3.431
  768SOL     OW 2313   0.122   2.505   2.425
  768SOL    HW1 2314   0.077   2.417   2.442
  768SOL    HW2 2315   0.121   2.559   2.509
  769SOL     OW 2316   1.842   3.629   2.221
  769SOL    HW1 2317   1.896   3.600   2.301
  769SOL    HW2 2318   1.872   3.719   2.192
  770SOL     OW 2319   0.027   3.458   1.979
  770SOL    HW1 2320   0.008   3.362   2.000
  770SOL    HW2 2321  -0.006   3.516   2.054
  771SOL     OW 2322   1.689   2.784   2.474
  771SOL    HW1 2323   1.784   2.755   2.482
  771SOL    HW2 2324   1.681   2.849   2.399
  772SOL     OW 2325   1.641   2.970   2.294
  772SOL    HW1 2326   1.727   2.972   2.242
  772SOL    HW2 2327   1.655   3.017   2.382
  773SOL     OW 2328   0.113   2.599   3.459
  773SOL    HW1 2329   0.201   2.586   3.504
  773SOL    HW2 2330   0.100   2.696   3.437
  774SOL     OW 2331   0.613   3.227   2.588
  774SOL    HW1 2332   0.564   3.140   2.597
  774SOL    HW2 2333   0.590   3.270   2.501
  775SOL     OW 2334   1.293   3.090   3.285
  775SOL    HW1 2335   1.330   3.017   3.227
  775SOL    HW2 2336   1.345   3.095   3.370
  776SOL     OW 2337   0.809   1.866   2.364
  776SOL    HW1 2338   0.849   1.957   2.355
  776SOL    HW2 2339   0.709   1.874   2.370
  777SOL     OW 2340   0.197   2.838   3.126
  777SOL    HW1 2341   0.286   2.793   3.112
  777SOL    HW2 2342   0.124   2.773   3.107
  778SOL     OW 2343   1.525   2.861   2.052
  778SOL    HW1 2344   1.462   2.785   2.065
  778SOL    HW2 2345   1.573   2.879   2.138
  779SOL     OW 2346   1.187   3.654   3.478
  779SOL    HW1 2347   1.211   3.714   3.402
  779SOL    HW2 2348   1.194   3.559   3.448
  780SOL     OW 2349   0.317   2.113   3.663
  780SOL    HW1 2350   0.388   2.184   3.669
  780SOL    HW2 2351   0.229   2.152   3.691
  781SOL     OW 2352   1.466   3.279   2.815
  781SOL    HW1 2353   1.407   3.285   2.895
  781SOL    HW2 2354   1.451   3.191   2.769
  782SOL     OW 2355   1.667   3.576   2.434
  782SOL    HW1 2356   1.626   3.553   2.346
  782SOL    HW2 2357   1.649   3.502   2.499
  783SOL     OW 2358   0.598   2.591   2.132
  783SOL    HW1 2359   0.622   2.660   2.064
  783SOL    HW2 2360   0.520   2.624   2.186
  784SOL     OW 2361   1.281   2.207   2.806
  784SOL    HW1 2362   1.195   2.157   2.793
  784SOL    HW2 2363   1.343   2.153   2.862
  785SOL     OW 2364   1.576   3.524   2.169
  785SOL    HW1 2365   1.665   3.570   2.172
  785SOL    HW2 2366   1.555   3.500   2.074
  786SOL     OW 2367   0.807   2.467   3.327
  786SOL    HW1 2368   0.760   2.464   3.416
  786SOL    HW2 2369   0.756   2.412   3.261
  787SOL     OW 2370   1.394   2.331   3.536
  787SOL    HW1 2371   1.374   2.374   3.624
  787SOL    HW2 2372   1.472   2.269   3.545
  788SOL     OW 2373   0.973   2.752   3.434
  788SOL    HW1 2374   1.019   2.668   3.405
  788SOL    HW2 2375   0.917   2.786   3.359
  789SOL     OW 2376   0.991   2.272   3.104
  789SOL    HW1 2377   0.914   2.306   3.158
  789SOL    HW2 2378   0.957   2.221   3.025
  790SOL     OW 2379   1.041   2.563   2.291
  790SOL    HW1 2380   1.067   2.559   2.387
  790SOL    HW2 2381   0.956   2.512   2.277
  791SOL     OW 2382   0.076   2.673   2.651
  791SOL    HW1 2383   0.175   2.661   2.660
  791SOL    HW2 2384   0.052   2.768   2.672
  792SOL     OW 2385   0.130   3.683   3.433
  792SOL    HW1 2386   0.120   3.668   3.532
  792SOL    HW2 2387   0.044   3.719   3.397
  793SOL     OW 2388   0.865   2.210   2.057
  793SOL    HW1 2389   0.924   2.273   2.008
  793SOL    HW2 2390   0.884   2.116   2.028
  794SOL     OW 2391   1.719   2.447   3.693
  794SOL    HW1 2392   1.693   2.536   3.657
  794SOL    HW2 2393   1.717   2.379   3.620
  795SOL     OW 2394   1.362   3.006   2.407
  795SOL    HW1 2395   1.445   2.977   2.359
  795SOL    HW2 2396   1.313   3.073   2.351
  796SOL     OW 2397   0.550   2.058   2.747
  796SOL    HW1 2398   0.545   2.053   2.847
  796SOL    HW2 2399   0.552   2.154   2.718
  797SOL     OW 2400   1.008   3.318   2.339
  797SOL    HW1 2401   0.962   3.390   2.287
  797SOL    HW2 2402   1.004   3.338   2.437
  798SOL     OW 2403   0.351   3.663   2.715
  798SOL    HW1 2404   0.401   3.577   2.721
  798SOL    HW2 2405   0.416   3.740   2.712
  799SOL     OW 2406   1.795   2.928   2.735
  799SOL    HW1 2407   1.733   2.913   2.659
  799SOL    HW2 2408   1.743   2.939   2.820
  800SOL     OW 2409   1.227   3.412   3.368
  800SOL    HW1 2410   1.233   3.335   3.432
  800SOL    HW2 2411   1.175   3.386   3.288
  801SOL     OW 2412   0.321   2.805   2.104
  801SOL    HW1 2413   0.403   2.844   2.062
  801SOL    HW2 2414   0.294   2.723   2.055
  802SOL     OW 2415   1.458   2.597   2.590
  802SOL    HW1 2416   1.453   2.532   2.665
  802SOL    HW2 2417   1.538   2.656   2.603
  803SOL     OW 2418   0.461   3.128   3.589
  803SOL    HW1 2419   0.411   3.129   3.503
  803SOL    HW2 2420   0.398   3.110   3.665
  804SOL     OW 2421   1.111   3.638   2.099
  804SOL    HW1 2422   1.051   3.576   2.149
  804SOL    HW2 2423   1.142   3.594   2.014
  805SOL     OW 2424   0.202   2.147   3.360
  805SOL    HW1 2425   0.122   2.207   3.347
  805SOL    HW2 2426   0.192   2.098   3.446
  806SOL     OW 2427   1.632   3.239   1.943
  806SOL    HW1 2428   1.600   3.333   1.933
  806SOL    HW2 2429   1.556   3.176   1.931
  807SOL     OW 2430   0.464   3.605   2.185
  807SOL    HW1 2431   0.497   3.644   2.271
  807SOL    HW2 2432   0.540   3.598   2.120
  808SOL     OW 2433   1.400   1.969   2.288
  808SOL    HW1 2434   1.376   1.932   2.198
  808SOL    HW2 2435   1.499   1.985   2.292
  809SOL     OW 2436   0.249   3.647   3.103
  809SOL    HW1 2437   0.306   3.582   3.153
  809SOL    HW2 2438   0.233   3.614   3.010
  810SOL     OW 2439   0.940   3.560   2.766
  810SOL    HW1 2440   1.020   3.503   2.787
  810SOL    HW2 2441   0.891   3.520   2.689
  811SOL     OW 2442   0.382   2.562   2.342
  811SOL    HW1 2443   0.427   2.472   2.339
  811SOL    HW2 2444   0.288   2.551   2.375
  812SOL     OW 2445   1.547   2.084   3.591
  812SOL    HW1 2446   1.542   2.121   3.683
  812SOL    HW2 2447   1.475   2.015   3.579
  813SOL     OW 2448   0.614   1.984   1.979
  813SOL    HW1 2449   0.712   1.962   1.986
  813SOL    HW2 2450   0.583   1.967   1.886
  814SOL     OW 2451   0.781   2.126   3.611
  814SOL    HW1 2452   0.848   2.065   3.654
  814SOL    HW2 2453   0.708   2.145   3.676
  815SOL     OW 2454   0.888   3.376   3.057
  815SOL    HW1 2455   0.865   3.351   2.963
  815SOL    HW2 2456   0.949   3.307   3.096
  816SOL     OW 2457   1.351   2.452   3.295
  816SOL    HW1 2458   1.379   2.409   3.380
  816SOL    HW2 2459   1.376   2.548   3.296
  817SOL     OW 2460   0.803   3.264   2.786
  817SOL    HW1 2461   0.893   3.278   2.744
  817SOL    HW2 2462   0.732   3.266   2.715
  818SOL     OW 2463   0.922   2.365   2.761
  818SOL    HW1 2464   0.897   2.356   2.665
  818SOL    HW2 2465   0.970   2.283   2.792
  819SOL     OW 2466   0.539   1.926   2.374
  819SOL    HW1 2467   0.458   1.927   2.432
  819SOL    HW2 2468   0.542   2.009   2.319
  820SOL     OW 2469   1.434   3.050   1.903
  820SOL    HW1 2470   1.466   2.974   1.960
  820SOL    HW2 2471   1.342   3.077   1.933
  821SOL     OW 2472   0.297   1.897   2.033
  821SOL    HW1 2473   0.346   1.981   2.012
  821SOL    HW2 2474   0.359   1.832   2.078
  822SOL     OW 2475   0.935   2.098   2.342
  822SOL    HW1 2476   0.887   2.139   2.264
  822SOL    HW2 2477   1.034   2.096   2.323
  823SOL     OW 2478   1.076   2.545   3.326
  823SOL    HW1 2479   0.996   2.484   3.329
  823SOL    HW2 2480   1.157   2.492   3.302
  824SOL     OW 2481   1.227   3.432   2.655
  824SOL    HW1 2482   1.248   3.506   2.590
  824SOL    HW2 2483   1.295   3.432   2.728
  825SOL     OW 2484   0.459   3.014   2.603
  825SOL    HW1 2485   0.388   2.987   2.668
  825SOL    HW2 2486   0.433   2.986   2.510
  826SOL     OW 2487   1.271   3.659   2.453
  826SOL    HW1 2488   1.315   3.723   2.389
  826SOL    HW2 2489   1.221   3.711   2.523
  827SOL     OW 2490   1.032   2.411   1.878
  827SOL    HW1 2491   0.991   2.493   1.839
  827SOL    HW2 2492   1.096   2.437   1.951
  828SOL     OW 2493   0.078   2.418   3.248
  828SOL    HW1 2494   0.170   2.417   3.207
  828SOL    HW2 2495   0.072   2.492   3.315
  829SOL     OW 2496   0.561   2.084   3.009
  829SOL    HW1 2497   0.599   2.000   3.046
  829SOL    HW2 2498   0.473   2.103   3.053
  830SOL     OW 2499   0.866   2.316   2.504
  830SOL    HW1 2500   0.834   2.388   2.442
  830SOL    HW2 2501   0.890   2.235   2.451
  831SOL     OW 2502   1.017   1.901   2.615
  831SOL    HW1 2503   0.945   1.906   2.546
  831SOL    HW2 2504   0.993   1.832   2.684
  832SOL     OW 2505   1.429   3.035   2.729
  832SOL    HW1 2506   1.374   2.951   2.722
  832SOL    HW2 2507   1.455   3.064   2.637
  833SOL     OW 2508   1.466   2.452   2.854
  833SOL    HW1 2509   1.436   2.357   2.861
  833SOL    HW2 2510   1.539   2.468   2.920
  834SOL     OW 2511   1.857   2.695   2.239
  834SOL    HW1 2512   1.899   2.631   2.303
  834SOL    HW2 2513   1.819   2.644   2.161
  835SOL     OW 2514   0.488   3.247   2.036
  835SOL    HW1 2515   0.401   3.232   2.083
  835SOL    HW2 2516   0.471   3.273   1.941
  836SOL     OW 2517   1.664   3.142   2.519
  836SOL    HW1 2518   1.763   3.150   2.533
  836SOL    HW2 2519   1.619   3.226   2.550
  837SOL     OW 2520   1.390   2.437   1.940
  837SOL    HW1 2521   1.336   2.416   2.021
  837SOL    HW2 2522   1.481   2.396   1.949
  838SOL     OW 2523   0.527   2.118   2.190
  838SOL    HW1 2524   0.554   2.059   2.115
  838SOL    HW2 2525   0.527   2.213   2.159
  839SOL     OW 2526   1.754   3.085   3.450
  839SOL    HW1 2527   1.845   3.046   3.437
  839SOL    HW2 2528   1.762   3.181   3.474
  840SOL     OW 2529   1.064   3.209   3.202
  840SOL    HW1 2530   0.984   3.186   3.257
  840SOL    HW2 2531   1.147   3.183   3.251
  841SOL     OW 2532   1.592   3.491   3.487
  841SOL    HW1 2533   1.619   3.525   3.397
  841SOL    HW2 2534   1.671   3.453   3.533
  842SOL     OW 2535   1.111   3.057   2.962
  842SOL    HW1 2536   1.071   3.101   3.043
  842SOL    HW2 2537   1.070   3.094   2.879
  843SOL     OW 2538   1.638   2.961   2.941
  843SOL    HW1 2539   1.643   3.042   3.000
  843SOL    HW2 2540   1.552   2.963   2.890
  844SOL     OW 2541   0.915   1.951   3.264
  844SOL    HW1 2542   0.940   1.931   3.169
  844SOL    HW2 2543   0.987   2.007   3.306
  845SOL     OW 2544   0.980   2.978   3.581
  845SOL    HW1 2545   0.881   2.984   3.591
  845SOL    HW2 2546   1.003   2.898   3.525
  846SOL     OW 2547   0.705   2.912   2.230
  846SOL    HW1 2548   0.691   2.919   2.329
  846SOL    HW2 2549   0.789   2.861   2.212
  847SOL     OW 2550   0.410   2.675   3.113
  847SOL    HW1 2551   0.496   2.687   3.163
  847SOL    HW2 2552   0.368   2.588   3.140
  848SOL     OW 2553   1.274   2.248   3.124
  848SOL    HW1 2554   1.295   2.322   3.188
  848SOL    HW2 2555   1.185   2.265   3.081
  849SOL     OW 2556   0.064   3.426   3.193
  849SOL    HW1 2557   0.018   3.508   3.159
  849SOL    HW2 2558   0.162   3.445   3.202
  850SOL     OW 2559   0.367   2.962   2.363
  850SOL    HW1 2560   0.360   3.045   2.307
  850SOL    HW2 2561   0.371   2.882   2.303
  851SOL     OW 2562   0.566   2.399   2.727
  851SOL    HW1 2563   0.578   2.465   2.653
  851SOL    HW2 2564   0.612   2.433   2.810
  852SOL     OW 2565   1.252   3.210   2.250
  852SOL    HW1 2566   1.302   3.287   2.290
  852SOL    HW2 2567   1.157   3.212   2.282
  853SOL     OW 2568   1.272   3.307   3.004
  853SOL    HW1 2569   1.319   3.320   3.091
  853SOL    HW2 2570   1.206   3.233   3.013
  854SOL     OW 2571   1.582   2.501   2.334
  854SOL    HW1 2572   1.551   2.562   2.407
  854SOL    HW2 2573   1.632   2.553   2.265
  855SOL     OW 2574   0.354   3.372   3.191
  855SOL    HW1 2575   0.333   3.328   3.104
  855SOL    HW2 2576   0.451   3.398   3.194
  856SOL     OW 2577   0.402   2.613   3.460
  856SOL    HW1 2578   0.470   2.668   3.413
  856SOL    HW2 2579   0.442   2.525   3.487
  857SOL     OW 2580   1.587   2.641   3.532
  857SOL    HW1 2581   1.495   2.679   3.527
  857SOL    HW2 2582   1.647   2.688   3.467
  858SOL     OW 2583   1.013   1.967   3.632
  858SOL    HW1 2584   1.019   2.052   3.580
  858SOL    HW2 2585   1.045   1.891   3.575
  859SOL     OW 2586   0.504   1.912   3.602
  859SOL    HW1 2587   0.462   1.855   3.532
  859SOL    HW2 2588   0.438   1.981   3.634
  860SOL     OW 2589   0.573   2.732   2.891
  860SOL    HW1 2590   0.617   2.821   2.882
  860SOL    HW2 2591   0.510   2.732   2.968
  861SOL     OW 2592   1.360   2.724   2.907
  861SOL    HW1 2593   1.285   2.724   2.841
  861SOL    HW2 2594   1.397   2.632   2.916
  862SOL     OW 2595   1.209   2.387   2.137
  862SOL    HW1 2596   1.222   2.303   2.191
  862SOL    HW2 2597   1.180   2.461   2.197
  863SOL     OW 2598   0.307   2.075   3.093
  863SOL    HW1 2599   0.284   2.112   3.183
  863SOL    HW2 2600   0.277   1.980   3.087
  864SOL     OW 2601   0.037   3.172   3.144
  864SOL    HW1 2602   0.090   3.123   3.212
  864SOL    HW2 2603   0.059   3.270   3.149
  865SOL     OW 2604   0.732   2.496   2.926
  865SOL    HW1 2605   0.791   2.470   2.850
  865SOL    HW2 2606   0.704   2.592   2.915
  866SOL     OW 2607   1.728   2.797   3.716
  866SOL    HW1 2608   1.682   2.790   3.627
  866SOL    HW2 2609   1.666   2.841   3.782
  867SOL     OW 2610   0.307   1.925   2.480
  867SOL    HW1 2611   0.296   2.019   2.513
  867SOL    HW2 2612   0.302   1.862   2.557
  868SOL     OW 2613   1.622   2.229   2.236
  868SOL    HW1 2614   1.624   2.153   2.300
  868SOL    HW2 2615   1.574   2.306   2.276
  869SOL     OW 2616   1.023   2.628   2.828
  869SOL    HW1 2617   1.038   2.649   2.924
  869SOL    HW2 2618   0.993   2.533   2.819
  870SOL     OW 2619   0.980   3.435   3.562
  870SOL    HW1 2620   0.960   3.479   3.474
  870SOL    HW2 2621   1.019   3.344   3.546
  871SOL     OW 2622   1.859   3.380   3.467
  871SOL    HW1 2623   1.873   3.407   3.372
  871SOL    HW2 2624   1.942   3.402   3.520
  872SOL     OW 2625   0.350   2.760   3.666
  872SOL    HW1 2626   0.426   2.804   3.714
  872SOL    HW2 2627   0.385   2.713   3.584
  873SOL     OW 2628   1.540   2.136   1.987
  873SOL    HW1 2629   1.479   2.061   2.010
  873SOL    HW2 2630   1.562   2.188   2.070
  874SOL     OW 2631   1.303   2.700   1.904
  874SOL    HW1 2632   1.337   2.607   1.919
  874SOL    HW2 2633   1.321   2.727   1.809
  875SOL     OW 2634   1.068   3.195   2.711
  875SOL    HW1 2635   1.075   3.111   2.656
  875SOL    HW2 2636   1.130   3.264   2.675
  876SOL     OW 2637   0.319   2.672   2.811
  876SOL    HW1 2638   0.412   2.708   2.816
  876SOL    HW2 2639   0.313   2.587   2.863
  877SOL     OW 2640   0.339   2.371   2.868
  877SOL    HW1 2641   0.287   2.288   2.851
  877SOL    HW2 2642   0.416   2.376   2.804
  878SOL     OW 2643   1.138   2.242   3.540
  878SOL    HW1 2644   1.093   2.305   3.604
  878SOL    HW2 2645   1.231   2.273   3.523
  879SOL     OW 2646   1.160   2.069   3.339
  879SOL    HW1 2647   1.160   2.133   3.416
  879SOL    HW2 2648   1.188   2.117   3.256
  880SOL     OW 2649   0.008   3.188   2.062
  880SOL    HW1 2650  -0.085   3.209   2.031
  880SOL    HW2 2651   0.018   3.089   2.075
  881SOL     OW 2652   0.088   3.663   2.789
  881SOL    HW1 2653   0.046   3.577   2.762
  881SOL    HW2 2654   0.182   3.666   2.755
  882SOL     OW 2655   0.504   3.430   2.772
  882SOL    HW1 2656   0.570   3.504   2.781
  882SOL    HW2 2657   0.548   3.351   2.730
  883SOL     OW 2658   1.002   2.658   3.100
  883SOL    HW1 2659   1.043   2.626   3.186
  883SOL    HW2 2660   0.906   2.631   3.097
  884SOL     OW 2661   0.040   2.406   2.976
  884SOL    HW1 2662   0.125   2.373   2.935
  884SOL    HW2 2663   0.053   2.421   3.074
  885SOL     OW 2664   0.189   2.382   3.584
  885SOL    HW1 2665   0.248   2.342   3.514
  885SOL    HW2 2666   0.131   2.453   3.543
  886SOL     OW 2667   1.369   2.812   3.522
  886SOL    HW1 2668   1.408   2.901   3.542
  886SOL    HW2 2669   1.379   2.792   3.425
  887SOL     OW 2670   0.815   2.434   2.187
  887SOL    HW1 2671   0.822   2.345   2.141
  887SOL    HW2 2672   0.721   2.468   2.179
  888SOL     OW 2673   1.657   2.466   3.068
  888SOL    HW1 2674   1.619   2.397   3.130
  888SOL    HW2 2675   1.739   2.430   3.024
  889SOL     OW 2676   0.252   3.426   3.606
  889SOL    HW1 2677   0.222   3.483   3.682
  889SOL    HW2 2678   0.245   3.329   3.632
  890SOL     OW 2679   0.671   2.326   3.131
  890SOL    HW1 2680   0.637   2.237   3.101
  890SOL    HW2 2681   0.697   2.380   3.051
  891SOL     OW 2682   0.930   3.540   3.327
  891SOL    HW1 2683   0.906   3.522   3.232
  891SOL    HW2 2684   0.960   3.634   3.337
  892SOL     OW 2685   0.473   2.362   2.053
  892SOL    HW1 2686   0.534   2.442   2.057
  892SOL    HW2 2687   0.378   2.393   2.060
  893SOL     OW 2688   0.159   2.999   3.328
  893SOL    HW1 2689   0.181   2.938   3.404
  893SOL    HW2 2690   0.169   2.950   3.242
  894SOL     OW 2691   1.347   2.921   3.096
  894SOL    HW1 2692   1.371   2.858   3.022
  894SOL    HW2 2693   1.257   2.961   3.078
  895SOL     OW 2694   1.302   2.717   2.171
  895SOL    HW1 2695   1.216   2.686   2.213
  895SOL    HW2 2696   1.298   2.703   2.072
  896SOL     OW 2697   1.759   3.609   3.016
  896SOL    HW1 2698   1.820   3.639   2.943
  896SOL    HW2 2699   1.721   3.520   2.994
  897SOL     OW 2700   1.252   3.593   2.990
  897SOL    HW1 2701   1.336   3.598   2.936
  897SOL    HW2 2702   1.229   3.497   3.008
  898SOL     OW 2703   0.083   3.120   2.884
  898SOL    HW1 2704   0.078   3.119   2.984
  898SOL    HW2 2705   0.000   3.079   2.846
  899SOL     OW 2706   0.688   3.524   3.578
  899SOL    HW1 2707   0.632   3.605   3.587
  899SOL    HW2 2708   0.740   3.528   3.492
  900SOL     OW 2709   1.726   1.997   2.385
  900SOL    HW1 2710   1.799   1.980   2.318
  900SOL    HW2 2711   1.695   1.910   2.423
  901SOL     OW 2712   1.388   3.435   2.339
  901SOL    HW1 2713   1.455   3.447   2.265
  901SOL    HW2 2714   1.348   3.524   2.362
  902SOL     OW 2715   0.130   3.656   3.713
  902SOL    HW1 2716   0.089   3.582   3.766
  902SOL    HW2 2717   0.194   3.707   3.771
  903SOL     OW 2718   1.280   2.789   2.534
  903SOL    HW1 2719   1.340   2.708   2.536
  903SOL    HW2 2720   1.320   2.858   2.474
  904SOL     OW 2721   0.830   3.135   3.284
  904SOL    HW1 2722   0.825   3.168   3.379
  904SOL    HW2 2723   0.744   3.154   3.238
  905SOL     OW 2724   0.672   3.478   2.016
  905SOL    HW1 2725   0.681   3.488   1.917
  905SOL    HW2 2726   0.632   3.389   2.037
  906SOL     OW 2727   1.650   3.582   3.256
  906SOL    HW1 2728   1.703   3.592   3.172
  906SOL    HW2 2729   1.623   3.672   3.290
  907SOL     OW 2730   1.841   2.037   2.825
  907SOL    HW1 2731   1.880   1.952   2.789
  907SOL    HW2 2732   1.743   2.039   2.806
  908SOL     OW 2733   0.263   2.188   2.582
  908SOL    HW1 2734   0.184   2.239   2.548
  908SOL    HW2 2735   0.254   2.173   2.680
  909SOL     OW 2736   1.194   3.474   1.893
  909SOL    HW1 2737   1.200   3.381   1.930
  909SOL    HW2 2738   1.135   3.474   1.813
  910SOL     OW 2739   0.822   2.864   3.234
  910SOL    HW1 2740   0.862   2.863   3.142
  910SOL    HW2 2741   0.832   2.956   3.274
  911SOL     OW 2742   0.916   2.772   2.153
  911SOL    HW1 2743   0.979   2.810   2.085
  911SOL    HW2 2744   0.956   2.689   2.192
  912SOL     OW 2745   1.504   3.469   1.906
  912SOL    HW1 2746   1.412   3.506   1.913
  912SOL    HW2 2747   1.542   3.489   1.816
  913SOL     OW 2748   0.372   3.150   3.352
  913SOL    HW1 2749   0.359   3.243   3.318
  913SOL    HW2 2750   0.288   3.098   3.339
  914SOL     OW 2751   1.614   3.154   3.151
  914SOL    HW1 2752   1.674   3.157   3.231
  914SOL    HW2 2753   1.539   3.218   3.164
  915SOL     OW 2754   1.039   2.960   2.558
  915SOL    HW1 2755   0.969   2.913   2.612
  915SOL    HW2 2756   1.098   2.892   2.515
  916SOL     OW 2757   1.014   2.098   2.833
  916SOL    HW1 2758   1.006   2.062   2.740
  916SOL    HW2 2759   1.012   2.022   2.898
  917SOL     OW 2760   0.590   3.349   2.353
  917SOL    HW1 2761   0.632   3.291   2.283
  917SOL    HW2 2762   0.546   3.428   2.309
  918SOL     OW 2763   1.709   2.247   3.243
  918SOL    HW1 2764   1.782   2.316   3.247
  918SOL    HW2 2765   1.737   2.172   3.184
  919SOL     OW 2766   0.255   3.210   2.152
  919SOL    HW1 2767   0.159   3.211   2.125
  919SOL    HW2 2768   0.267   3.263   2.236
  920SOL     OW 2769   0.105   2.875   3.588
  920SOL    HW1 2770   0.028   2.842   3.642
  920SOL    HW2 2771   0.190   2.845   3.630
  921SOL     OW 2772   0.672   2.065   3.351
  921SOL    HW1 2773   0.762   2.049   3.311
  921SOL    HW2 2774   0.680   2.070   3.450
  922SOL     OW 2775   0.075   2.207   1.895
  922SOL    HW1 2776  -0.017   2.179   1.866
  922SOL    HW2 2777   0.106   2.284   1.839
  923SOL     OW 2778   1.440   2.718   3.260
  923SOL    HW1 2779   1.383   2.770   3.197
  923SOL    HW2 2780   1.536   2.730   3.236
  924SOL     OW 2781   0.072   2.028   2.180
  924SOL    HW1 2782   0.055   2.111   2.126
  924SOL    HW2 2783   0.162   1.991   2.158
  925SOL     OW 2784   1.183   3.197   1.981
  925SOL    HW1 2785   1.084   3.186   1.983
  925SOL    HW2 2786   1.217   3.212   2.074
  926SOL     OW 2787   0.613   2.704   3.293
  926SOL    HW1 2788   0.669   2.785   3.276
  926SOL    HW2 2789   0.672   2.624   3.296
  927SOL     OW 2790   1.493   3.629   2.821
  927SOL    HW1 2791   1.526   3.693   2.752
  927SOL    HW2 2792   1.559   3.623   2.896
  928SOL     OW 2793   0.716   2.427   3.570
  928SOL    HW1 2794   0.735   2.492   3.644
  928SOL    HW2 2795   0.776   2.347   3.579
  929SOL     OW 2796   1.450   3.082   3.495
  929SOL    HW1 2797   1.441   3.072   3.594
  929SOL    HW2 2798   1.546   3.075   3.469
  930SOL     OW 2799   0.390   3.603   3.422
  930SOL    HW1 2800   0.299   3.644   3.420
  930SOL    HW2 2801   0.383   3.509   3.454
  931SOL     OW 2802   1.674   2.745   3.116
  931SOL    HW1 2803   1.647   2.656   3.079
  931SOL    HW2 2804   1.675   2.813   3.043
  932SOL     OW 2805   1.225   2.187   2.311
  932SOL    HW1 2806   1.290   2.113   2.300
  932SOL    HW2 2807   1.245   2.237   2.395
  933SOL     OW 2808   0.594   2.607   2.514
  933SOL    HW1 2809   0.644   2.692   2.495
  933SOL    HW2 2810   0.506   2.609   2.466
  934SOL     OW 2811   1.777   2.204   3.504
  934SOL    HW1 2812   1.760   2.235   3.410
  934SOL    HW2 2813   1.693   2.167   3.542
  935SOL     OW 2814   1.730   2.796   3.379
  935SOL    HW1 2815   1.768   2.887   3.394
  935SOL    HW2 2816   1.722   2.779   3.280
  936SOL     OW 2817   0.859   3.236   1.878
  936SOL    HW1 2818   0.813   3.251   1.966
  936SOL    HW2 2819   0.903   3.321   1.848
  937SOL     OW 2820   0.661   3.652   2.815
  937SOL    HW1 2821   0.615   3.740   2.802
  937SOL    HW2 2822   0.760   3.664   2.808
  938SOL     OW 2823   0.859   2.818   2.723
  938SOL    HW1 2824   0.913   2.749   2.771
  938SOL    HW2 2825   0.827   2.887   2.789
  939SOL     OW 2826   1.083   2.846   1.949
  939SOL    HW1 2827   1.060   2.899   1.867
  939SOL    HW2 2828   1.164   2.790   1.930
  940SOL     OW 2829   1.861   3.431   2.713
  940SOL    HW1 2830   1.790   3.419   2.643
  940SOL    HW2 2831   1.862   3.352   2.773
  941SOL     OW 2832   0.221   3.176   3.706
  941SOL    HW1 2833   0.156   3.103   3.685
  941SOL    HW2 2834   0.225   3.190   3.804
  942SOL     OW 2835   0.079   3.102   2.515
  942SOL    HW1 2836   0.078   3.055   2.603
  942SOL    HW2 2837   0.161   3.074   2.464
  943SOL     OW 2838   0.672   3.253   3.486
  943SOL    HW1 2839   0.594   3.203   3.524
  943SOL    HW2 2840   0.669   3.348   3.517
  944SOL     OW 2841   1.824   2.054   3.089
  944SOL    HW1 2842   1.820   1.964   3.133
  944SOL    HW2 2843   1.827   2.043   2.990
  945SOL     OW 2844   0.428   2.286   2.382
  945SOL    HW1 2845   0.458   2.214   2.320
  945SOL    HW2 2846   0.389   2.246   2.465
  946SOL     OW 2847   1.705   3.349   2.966
  946SOL    HW1 2848   1.612   3.324   2.939
  946SOL    HW2 2849   1.731   3.299   3.048
  947SOL     OW 2850   0.317   2.409   3.142
  947SOL    HW1 2851   0.355   2.350   3.214
  947SOL    HW2 2852   0.357   2.383   3.054
  948SOL     OW 2853   0.812   3.448   2.549
  948SOL    HW1 2854   0.844   3.458   2.455
  948SOL    HW2 2855   0.733   3.386   2.551
  949SOL     OW 2856   1.424   2.076   2.974
  949SOL    HW1 2857   1.476   2.011   3.029
  949SOL    HW2 2858   1.375   2.139   3.035
  950SOL     OW 2859   1.001   1.896   3.016
  950SOL    HW1 2860   0.938   1.824   2.985
  950SOL    HW2 2861   1.094   1.860   3.016
  951SOL     OW 2862   0.770   3.192   2.163
  951SOL    HW1 2863   0.724   3.105   2.180
  951SOL    HW2 2864   0.861   3.189   2.204
  952SOL     OW 2865   0.618   3.429   3.146
  952SOL    HW1 2866   0.613   3.511   3.203
  952SOL    HW2 2867   0.707   3.426   3.101
  953SOL     OW 2868   1.352   1.914   2.030
  953SOL    HW1 2869   1.387   1.873   1.946
  953SOL    HW2 2870   1.262   1.876   2.050
  954SOL     OW 2871   1.300   2.315   2.553
  954SOL    HW1 2872   1.241   2.395   2.557
  954SOL    HW2 2873   1.315   2.280   2.646
  955SOL     OW 2874   1.593   2.083   2.744
  955SOL    HW1 2875   1.509   2.082   2.798
  955SOL    HW2 2876   1.595   2.166   2.688
  956SOL     OW 2877   0.039   2.939   2.162
  956SOL    HW1 2878   0.138   2.928   2.153
  956SOL    HW2 2879  -0.001   2.853   2.194
  957SOL     OW 2880   0.875   3.508   2.199
  957SOL    HW1 2881   0.798   3.473   2.145
  957SOL    HW2 2882   0.843   3.579   2.261
  958SOL     OW 2883   0.230   2.490   3.837
  958SOL    HW1 2884   0.137   2.488   3.874
  958SOL    HW2 2885   0.231   2.451   3.745
  959SOL     OW 2886   0.019   2.230   4.371
  959SOL    HW1 2887  -0.063   2.273   4.410
  959SOL    HW2 2888  -0.009   2.157   4.308
  960SOL     OW 2889   1.555   3.373   4.427
  960SOL    HW1 2890   1.498   3.357   4.508
  960SOL    HW2 2891   1.496   3.383   4.347
  961SOL     OW 2892   1.135   2.565   4.441
  961SOL    HW1 2893   1.192   2.643   4.416
  961SOL    HW2 2894   1.075   2.591   4.517
  962SOL     OW 2895   1.755   2.469   3.955
  962SOL    HW1 2896   1.743   2.456   3.856
  962SOL    HW2 2897   1.725   2.388   4.004
  963SOL     OW 2898   0.685   2.874   4.389
  963SOL    HW1 2899   0.754   2.858   4.459
  963SOL    HW2 2900   0.612   2.931   4.427
  964SOL     OW 2901   1.603   2.309   4.461
  964SOL    HW1 2902   1.529   2.355   4.411
  964SOL    HW2 2903   1.654   2.377   4.514
  965SOL     OW 2904   0.231   3.575   4.207
  965SOL    HW1 2905   0.265   3.652   4.261
  965SOL    HW2 2906   0.275   3.575   4.117
  966SOL     OW 2907   0.230   3.296   4.262
  966SOL    HW1 2908   0.204   3.392   4.262
  966SOL    HW2 2909   0.159   3.242   4.307
  967SOL     OW 2910   0.240   2.953   4.610
  967SOL    HW1 2911   0.254   2.869   4.662
  967SOL    HW2 2912   0.185   3.017   4.665
  968SOL     OW 2913   0.606   2.826   3.847
  968SOL    HW1 2914   0.613   2.910   3.793
  968SOL    HW2 2915   0.652   2.839   3.935
  969SOL     OW 2916   0.122   2.505   4.287
  969SOL    HW1 2917   0.077   2.417   4.304
  969SOL    HW2 2918   0.121   2.559   4.371
  970SOL     OW 2919   1.842   3.629   4.083
  970SOL    HW1 2920   1.896   3.600   4.163
  970SOL    HW2 2921   1.872   3.719   4.054
  971SOL     OW 2922   0.027   3.458   3.841
  971SOL    HW1 2923   0.008   3.362   3.862
  971SOL    HW2 2924  -0.006   3.516   3.916
  972SOL     OW 2925   1.689   2.784   4.336
  972SOL    HW1 2926   1.784   2.755   4.344
  972SOL    HW2 2927   1.681   2.849   4.261
  973SOL     OW 2928   1.641   2.970   4.156
  973SOL    HW1 2929   1.727   2.972   4.104
  973SOL    HW2 2930   1.655   3.017   4.244
  974SOL     OW 2931   0.613   3.227   4.450
  974SOL    HW1 2932   0.564   3.140   4.459
  974SOL    HW2 2933   0.590   3.270   4.363
  975SOL     OW 2934   0.809   1.866   4.226
  975SOL    HW1 2935   0.849   1.957   4.217
  975SOL    HW2 2936   0.709   1.874   4.232
  976SOL     OW 2937   1.525   2.861   3.914
  976SOL    HW1 2938   1.462   2.785   3.927
  976SOL    HW2 2939   1.573   2.879   4.000
  977SOL     OW 2940   1.466   3.279   4.677
  977SOL    HW1 2941   1.407   3.285   4.757
  977SOL    HW2 2942   1.451   3.191   4.631
  978SOL     OW 2943   1.667   3.576   4.296
  978SOL    HW1 2944   1.626   3.553   4.208
  978SOL    HW2 2945   1.649   3.502   4.361
  979SOL     OW 2946   0.598   2.591   3.994
  979SOL    HW1 2947   0.622   2.660   3.926
  979SOL    HW2 2948   0.520   2.624   4.048
  980SOL     OW 2949   1.281   2.207   4.668
  980SOL    HW1 2950   1.195   2.157   4.655
  980SOL    HW2 2951   1.343   2.153   4.724
  981SOL     OW 2952   1.576   3.524   4.031
  981SOL    HW1 2953   1.665   3.570   4.034
  981SOL    HW2 2954   1.555   3.500   3.936
  982SOL     OW 2955   1.041   2.563   4.153
  982SOL    HW1 2956   1.067   2.559   4.249
  982SOL    HW2 2957   0.956   2.512   4.139
  983SOL     OW 2958   0.076   2.673   4.513
  983SOL    HW1 2959   0.175   2.661   4.522
  983SOL    HW2 2960   0.052   2.768   4.534
  984SOL     OW 2961   0.865   2.210   3.919
  984SOL    HW1 2962   0.924   2.273   3.870
  984SOL    HW2 2963   0.884   2.116   3.890
  985SOL     OW 2964   1.362   3.006   4.269
  985SOL    HW1 2965   1.445   2.977   4.221
  985SOL    HW2 2966   1.313   3.073   4.213
  986SOL     OW 2967   0.550   2.058   4.609
  986SOL    HW1 2968   0.545   2.053   4.709
  986SOL    HW2 2969   0.552   2.154   4.580
  987SOL     OW 2970   1.008   3.318   4.201
  987SOL    HW1 2971   0.962   3.390   4.149
  987SOL    HW2 2972   1.004   3.338   4.299
  988SOL     OW 2973   0.351   3.663   4.577
  988SOL    HW1 2974   0.401   3.577   4.583
  988SOL    HW2 2975   0.416   3.740   4.574
  989SOL     OW 2976   1.795   2.928   4.597
  989SOL    HW1 2977   1.733   2.913   4.521
  989SOL    HW2 2978   1.743   2.939   4.682
  990SOL     OW 2979   0.321   2.805   3.966
  990SOL    HW1 2980   0.403   2.844   3.924
  990SOL    HW2 2981   0.294   2.723   3.917
  991SOL     OW 2982   1.458   2.597   4.452
  991SOL    HW1 2983   1.453   2.532   4.527
  991SOL    HW2 2984   1.538   2.656   4.465
  992SOL     OW 2985   1.111   3.638   3.961
  992SOL    HW1 2986   1.051   3.576   4.011
  992SOL    HW2 2987   1.142   3.594   3.876
  993SOL     OW 2988   1.632   3.239   3.805
  993SOL    HW1 2989   1.600   3.333   3.795
  993SOL    HW2 2990   1.556   3.176   3.793
  994SOL     OW 2991   0.464   3.605   4.047
  994SOL    HW1 2992   0.497   3.644   4.133
  994SOL    HW2 2993   0.540   3.598   3.982
  995SOL     OW 2994   1.400   1.969   4.150
  995SOL    HW1 2995   1.376   1.932   4.060
  995SOL    HW2 2996   1.499   1.985   4.154
  996SOL     OW 2997   0.382   2.562   4.204
  996SOL    HW1 2998   0.427   2.472   4.201
  996SOL    HW2 2999   0.288   2.551   4.237
  997SOL     OW 3000   0.614   1.984   3.841
  997SOL    HW1 3001   0.712   1.962   3.848
  997SOL    HW2 3002   0.583   1.967   3.748
  998SOL     OW 3003   0.539   1.926   4.236
  998SOL    HW1 3004   0.458   1.927   4.294
  998SOL    HW2 3005   0.542   2.009   4.181
  999SOL     OW 3006   1.434   3.050   3.765
  999SOL    HW1 3007   1.466   2.974   3.822
  999SOL    HW2 3008   1.342   3.077   3.795
 1000SOL     OW 3009   0.297   1.897   3.895
 1000SOL    HW1 3010   0.346   1.981   3.874
 1000SOL    HW2 3011   0.359   1.832   3.940
 1001SOL     OW 3012   0.935   2.098   4.204
 1001SOL    HW1 3013   0.887   2.139   4.126
 1001SOL    HW2 3014   1.034   2.096   4.185
 1002SOL     OW 3015   1.227   3.432   4.517
 1002SOL    HW1 3016   1.248   3.506   4.452
 1002SOL    HW2 3017   1.295   3.432   4.590
 1003SOL     OW 3018   0.459   3.014   4.465
 1003SOL    HW1 3019   0.388   2.987   4.530
 1003SOL    HW2 3020   0.433   2.986   4.372
 1004SOL     OW 3021   1.271   3.659   4.315
 1004SOL    HW1 3022   1.315   3.723   4.251
 1004SOL    HW2 3023   1.221   3.711   4.385
 1005SOL     OW 3024   1.032   2.411   3.740
 1005SOL    HW1 3025   0.991   2.493   3.701
 1005SOL    HW2 3026   1.096   2.437   3.813
 1006SOL     OW 3027   0.866   2.316   4.366
 1006SOL    HW1 3028   0.834   2.388   4.304
 1006SOL    HW2 3029   0.890   2.235   4.313
 1007SOL     OW 3030   1.017   1.901   4.477
 1007SOL    HW1 3031   0.945   1.906   4.408
 1007SOL    HW2 3032   0.993   1.832   4.546
 1008SOL     OW 3033   1.857   2.695   4.101
 1008SOL    HW1 3034   1.899   2.631   4.165
 1008SOL    HW2 3035   1.819   2.644   4.023
 1009SOL     OW 3036   0.488   3.247   3.898
 1009SOL    HW1 3037   0.401   3.232   3.945
 1009SOL    HW2 3038   0.471   3.273   3.803
 1010SOL     OW 3039   1.664   3.142   4.381
 1010SOL    HW1 3040   1.763   3.150   4.395
 1010SOL    HW2 3041   1.619   3.226   4.412
 1011SOL     OW 3042   1.390   2.437   3.802
 1011SOL    HW1 3043   1.336   2.416   3.883
 1011SOL    HW2 3044   1.481   2.396   3.811
 1012SOL     OW 3045   0.527   2.118   4.052
 1012SOL    HW1 3046   0.554   2.059   3.977
 1012SOL    HW2 3047   0.527   2.213   4.021
 1013SOL     OW 3048   0.705   2.912   4.092
 1013SOL    HW1 3049   0.691   2.919   4.191
 1013SOL    HW2 3050   0.789   2.861   4.074
 1014SOL     OW 3051   0.367   2.962   4.225
 1014SOL    HW1 3052   0.360   3.045   4.169
 1014SOL    HW2 3053   0.371   2.882   4.165
 1015SOL     OW 3054   0.566   2.399   4.589
 1015SOL    HW1 3055   0.578   2.465   4.515
 1015SOL    HW2 3056   0.612   2.433   4.672
 1016SOL     OW 3057   1.252   3.210   4.112
 1016SOL    HW1 3058   1.302   3.287   4.152
 1016SOL    HW2 3059   1.157   3.212   4.144
 1017SOL     OW 3060   1.582   2.501   4.196
 1017SOL    HW1 3061   1.551   2.562   4.269
 1017SOL    HW2 3062   1.632   2.553   4.127
 1018SOL     OW 3063   1.209   2.387   3.999
 1018SOL    HW1 3064   1.222   2.303   4.053
 1018SOL    HW2 3065   1.180   2.461   4.059
 1019SOL     OW 3066   0.732   2.496   4.788
 1019SOL    HW1 3067   0.791   2.470   4.712
 1019SOL    HW2 3068   0.704   2.592   4.777
 1020SOL     OW 3069   0.307   1.925   4.342
 1020SOL    HW1 3070   0.296   2.019   4.375
 1020SOL    HW2 3071   0.302   1.862   4.419
 1021SOL     OW 3072   1.622   2.229   4.098
 1021SOL    HW1 3073   1.624   2.153   4.162
 1021SOL    HW2 3074   1.574   2.306   4.138
 1022SOL     OW 3075   1.540   2.136   3.849
 1022SOL    HW1 3076   1.479   2.061   3.872
 1022SOL    HW2 3077   1.562   2.188   3.932
 1023SOL     OW 3078   1.303   2.700   3.766
 1023SOL    HW1 3079   1.337   2.607   3.781
 1023SOL    HW2 3080   1.321   2.727   3.671
 1024SOL     OW 3081   1.068   3.195   4.573
 1024SOL    HW1 3082   1.075   3.111   4.518
 1024SOL    HW2 3083   1.130   3.264   4.537
 1025SOL     OW 3084   0.319   2.672   4.673
 1025SOL    HW1 3085   0.412   2.708   4.678
 1025SOL    HW2 3086   0.313   2.587   4.725
 1026SOL     OW 3087   0.008   3.188   3.924
 1026SOL    HW1 3088  -0.085   3.209   3.893
 1026SOL    HW2 3089   0.018   3.089   3.937
 1027SOL     OW 3090   0.088   3.663   4.651
 1027SOL    HW1 3091   0.046   3.577   4.624
 1027SOL    HW2 3092   0.182   3.666   4.617
 1028SOL     OW 3093   0.504   3.430   4.634
 1028SOL    HW1 3094   0.570   3.504   4.643
 1028SOL    HW2 3095   0.548   3.351   4.592
 1029SOL     OW 3096   0.815   2.434   4.049
 1029SOL    HW1 3097   0.822   2.345   4.003
 1029SOL    HW2 3098   0.721   2.468   4.041
 1030SOL     OW 3099   0.473   2.362   3.915
 1030SOL    HW1 3100   0.534   2.442   3.919
 1030SOL    HW2 3101   0.378   2.393   3.922
 1031SOL     OW 3102   1.302   2.717   4.033
 1031SOL    HW1 3103   1.216   2.686   4.075
 1031SOL    HW2 3104   1.298   2.703   3.934
 1032SOL     OW 3105   1.759   3.609   4.878
 1032SOL    HW1 3106   1.820   3.639   4.805
 1032SOL    HW2 3107   1.721   3.520   4.856
 1033SOL     OW 3108   1.726   1.997   4.247
 1033SOL    HW1 3109   1.799   1.980   4.180
 1033SOL    HW2 3110   1.695   1.910   4.285
 1034SOL     OW 3111   1.388   3.435   4.201
 1034SOL    HW1 3112   1.455   3.447   4.127
 1034SOL    HW2 3113   1.348   3.524   4.224
 1035SOL     OW 3114   1.280   2.789   4.396
 1035SOL    HW1 3115   1.340   2.708   4.398
 1035SOL    HW2 3116   1.320   2.858   4.336
 1036SOL     OW 3117   0.672   3.478   3.878
 1036SOL    HW1 3118   0.681   3.488   3.779
 1036SOL    HW2 3119   0.632   3.389   3.899
 1037SOL     OW 3120   1.841   2.037   4.687
 1037SOL    HW1 3121   1.880   1.952   4.651
 1037SOL    HW2 3122   1.743   2.039   4.668
 1038SOL     OW 3123   0.263   2.188   4.444
 1038SOL    HW1 3124   0.184   2.239   4.410
 1038SOL    HW2 3125   0.254   2.173   4.542
 1039SOL     OW 3126   1.194   3.474   3.755
 1039SOL    HW1 3127   1.200   3.381   3.792
 1039SOL    HW2 3128   1.135   3.474   3.675
 1040SOL     OW 3129   0.916   2.772   4.015
 1040SOL    HW1 3130   0.979   2.810   3.947
 1040SOL    HW2 3131   0.956   2.689   4.054
 1041SOL     OW 3132   1.504   3.469   3.768
 1041SOL    HW1 3133   1.412   3.506   3.775
 1041SOL    HW2 3134   1.542   3.489   3.678
 1042SOL     OW 3135   1.039   2.960   4.420
 1042SOL    HW1 3136   0.969   2.913   4.474
 1042SOL    HW2 3137   1.098   2.892   4.377
 1043SOL     OW 3138   0.590   3.349   4.215
 1043SOL    HW1 3139   0.632   3.291   4.145
 1043SOL    HW2 3140   0.546   3.428   4.171
 1044SOL     OW 3141   0.255   3.210   4.014
 1044SOL    HW1 3142   0.159   3.211   3.987
 1044SOL    HW2 3143   0.267   3.263   4.098
 1045SOL     OW 3144   0.075   2.207   3.757
 1045SOL    HW1 3145  -0.017   2.179   3.728
 1045SOL    HW2 3146   0.106   2.284   3.701
 1046SOL     OW 3147   0.072   2.028   4.042
 1046SOL    HW1 3148   0.055   2.111   3.988
 1046SOL    HW2 3149   0.162   1.991   4.020
 1047SOL     OW 3150   1.183   3.197   3.843
 1047SOL    HW1 3151   1.084   3.186   3.845
 1047SOL    HW2 3152   1.217   3.212   3.936
 1048SOL     OW 3153   1.674   2.745   4.978
 1048SOL    HW1 3154   1.647   2.656   4.941
 1048SOL    HW2 3155   1.675   2.813   4.905
 1049SOL     OW 3156   1.225   2.187   4.173
 1049SOL    HW1 3157   1.290   2.113   4.162
 1049SOL    HW2 3158   1.245   2.237   4.257
 1050SOL     OW 3159   0.594   2.607   4.376
 1050SOL    HW1 3160   0.644   2.692   4.357
 1050SOL    HW2 3161   0.506   2.609   4.328
 1051SOL     OW 3162   0.859   3.236   3.740
 1051SOL    HW1 3163   0.813   3.251   3.828
 1051SOL    HW2 3164   0.903   3.321   3.710
 1052SOL     OW 3165   0.661   3.652   4.677
 1052SOL    HW1 3166   0.615   3.740   4.664
 1052SOL    HW2 3167   0.760   3.664   4.670
 1053SOL     OW 3168   0.859   2.818   4.585
 1053SOL    HW1 3169   0.913   2.749   4.633
 1053SOL    HW2 3170   0.827   2.887   4.651
 1054SOL     OW 3171   1.083   2.846   3.811
 1054SOL    HW1 3172   1.060   2.899   3.729
 1054SOL    HW2 3173   1.164   2.790   3.792
 1055SOL     OW 3174   1.861   3.431   4.575
 1055SOL    HW1 3175   1.790   3.419   4.505
 1055SOL    HW2 3176   1.862   3.352   4.635
 1056SOL     OW 3177   0.079   3.102   4.377
 1056SOL    HW1 3178   0.078   3.055   4.465
 1056SOL    HW2 3179   0.161   3.074   4.326
 1057SOL     OW 3180   0.428   2.286   4.244
 1057SOL    HW1 3181   0.458   2.214   4.182
 1057SOL    HW2 3182   0.389   2.246   4.327
 1058SOL     OW 3183   0.812   3.448   4.411
 1058SOL    HW1 3184   0.844   3.458   4.317
 1058SOL    HW2 3185   0.733   3.386   4.413
 1059SOL     OW 3186   0.770   3.192   4.025
 1059SOL    HW1 3187   0.724   3.105   4.042
 1059SOL    HW2 3188   0.861   3.189   4.066
 1060SOL     OW 3189   1.352   1.914   3.892
 1060SOL    HW1 3190   1.387   1.873   3.808
 1060SOL    HW2 3191   1.262   1.876   3.912
 1061SOL     OW 3192   1.300   2.315   4.415
 1061SOL    HW1 3193   1.241   2.395   4.419
 1061SOL    HW2 3194   1.315   2.280   4.508
 1062SOL     OW 3195   1.593   2.083   4.606
 1062SOL    HW1 3196   1.509   2.082   4.660
 1062SOL    HW2 3197   1.595   2.166   4.550
 1063SOL     OW 3198   0.039   2.939   4.024
 1063SOL    HW1 3199   0.138   2.928   4.015
 1063SOL    HW2 3200  -0.001   2.853   4.056
 1064SOL     OW 3201   0.875   3.508   4.061
 1064SOL    HW1 3202   0.798   3.473   4.007
 1064SOL    HW2 3203   0.843   3.579   4.123
 1065SOL     OW 3204   0.230   4.352   0.113
 1065SOL    HW1 3205   0.137   4.350   0.150
 1065SOL    HW2 3206   0.231   4.313   0.021
 1066SOL     OW 3207   0.225   3.999   0.996
 1066SOL    HW1 3208   0.260   3.982   1.088
 1066SOL    HW2 3209   0.137   3.954   0.984
 1067SOL     OW 3210   0.019   4.092   0.647
 1067SOL    HW1 3211  -0.063   4.135   0.686
 1067SOL    HW2 3212  -0.009   4.019   0.584
 1068SOL     OW 3213   1.135   4.427   0.717
 1068SOL    HW1 3214   1.192   4.505   0.692
 1068SOL    HW2 3215   1.075   4.453   0.793
 1069SOL     OW 3216   1.755   4.331   0.231
 1069SOL    HW1 3217   1.743   4.318   0.132
 1069SOL    HW2 3218   1.725   4.250   0.280
 1070SOL     OW 3219   0.850   4.522   1.823
 1070SOL    HW1 3220   0.846   4.598   1.888
 1070SOL    HW2 3221   0.872   4.558   1.732
 1071SOL     OW 3222   0.685   4.736   0.665
 1071SOL    HW1 3223   0.754   4.720   0.735
 1071SOL    HW2 3224   0.612   4.793   0.703
 1072SOL     OW 3225   0.438   4.116   1.499
 1072SOL    HW1 3226   0.520   4.060   1.508
 1072SOL    HW2 3227   0.357   4.058   1.503
 1073SOL     OW 3228   1.603   4.171   0.737
 1073SOL    HW1 3229   1.529   4.217   0.687
 1073SOL    HW2 3230   1.654   4.239   0.790
 1074SOL     OW 3231   1.594   3.838   1.480
 1074SOL    HW1 3232   1.576   3.905   1.408
 1074SOL    HW2 3233   1.591   3.884   1.569
 1075SOL     OW 3234   0.122   4.367   0.563
 1075SOL    HW1 3235   0.077   4.279   0.580
 1075SOL    HW2 3236   0.121   4.421   0.647
 1076SOL     OW 3237   0.113   4.461   1.597
 1076SOL    HW1 3238   0.201   4.448   1.642
 1076SOL    HW2 3239   0.100   4.558   1.575
 1077SOL     OW 3240   0.809   3.728   0.502
 1077SOL    HW1 3241   0.849   3.819   0.493
 1077SOL    HW2 3242   0.709   3.736   0.508
 1078SOL     OW 3243   0.197   4.700   1.264
 1078SOL    HW1 3244   0.286   4.655   1.250
 1078SOL    HW2 3245   0.124   4.635   1.245
 1079SOL     OW 3246   1.525   4.723   0.190
 1079SOL    HW1 3247   1.462   4.647   0.203
 1079SOL    HW2 3248   1.573   4.741   0.276
 1080SOL     OW 3249   0.317   3.975   1.801
 1080SOL    HW1 3250   0.388   4.046   1.807
 1080SOL    HW2 3251   0.229   4.014   1.829
 1081SOL     OW 3252   0.598   4.453   0.270
 1081SOL    HW1 3253   0.622   4.522   0.202
 1081SOL    HW2 3254   0.520   4.486   0.324
 1082SOL     OW 3255   1.281   4.069   0.944
 1082SOL    HW1 3256   1.195   4.019   0.931
 1082SOL    HW2 3257   1.343   4.015   1.000
 1083SOL     OW 3258   0.807   4.329   1.465
 1083SOL    HW1 3259   0.760   4.326   1.554
 1083SOL    HW2 3260   0.756   4.274   1.399
 1084SOL     OW 3261   1.394   4.193   1.674
 1084SOL    HW1 3262   1.374   4.236   1.762
 1084SOL    HW2 3263   1.472   4.131   1.683
 1085SOL     OW 3264   0.973   4.614   1.572
 1085SOL    HW1 3265   1.019   4.530   1.543
 1085SOL    HW2 3266   0.917   4.648   1.497
 1086SOL     OW 3267   0.991   4.134   1.242
 1086SOL    HW1 3268   0.914   4.168   1.296
 1086SOL    HW2 3269   0.957   4.083   1.163
 1087SOL     OW 3270   1.041   4.425   0.429
 1087SOL    HW1 3271   1.067   4.421   0.525
 1087SOL    HW2 3272   0.956   4.374   0.415
 1088SOL     OW 3273   0.076   4.535   0.789
 1088SOL    HW1 3274   0.175   4.523   0.798
 1088SOL    HW2 3275   0.052   4.630   0.810
 1089SOL     OW 3276   0.865   4.072   0.195
 1089SOL    HW1 3277   0.924   4.135   0.146
 1089SOL    HW2 3278   0.884   3.978   0.166
 1090SOL     OW 3279   1.719   4.309   1.831
 1090SOL    HW1 3280   1.693   4.398   1.795
 1090SOL    HW2 3281   1.717   4.241   1.758
 1091SOL     OW 3282   0.550   3.920   0.885
 1091SOL    HW1 3283   0.545   3.915   0.985
 1091SOL    HW2 3284   0.552   4.016   0.856
 1092SOL     OW 3285   1.458   4.459   0.728
 1092SOL    HW1 3286   1.453   4.394   0.803
 1092SOL    HW2 3287   1.538   4.518   0.741
 1093SOL     OW 3288   0.202   4.009   1.498
 1093SOL    HW1 3289   0.122   4.069   1.485
 1093SOL    HW2 3290   0.192   3.960   1.584
 1094SOL     OW 3291   1.400   3.831   0.426
 1094SOL    HW1 3292   1.376   3.794   0.336
 1094SOL    HW2 3293   1.499   3.847   0.430
 1095SOL     OW 3294   0.382   4.424   0.480
 1095SOL    HW1 3295   0.427   4.334   0.477
 1095SOL    HW2 3296   0.288   4.413   0.513
 1096SOL     OW 3297   1.547   3.946   1.729
 1096SOL    HW1 3298   1.542   3.983   1.821
 1096SOL    HW2 3299   1.475   3.877   1.717
 1097SOL     OW 3300   0.781   3.988   1.749
 1097SOL    HW1 3301   0.848   3.927   1.792
 1097SOL    HW2 3302   0.708   4.007   1.814
 1098SOL     OW 3303   1.351   4.314   1.433
 1098SOL    HW1 3304   1.379   4.271   1.518
 1098SOL    HW2 3305   1.376   4.410   1.434
 1099SOL     OW 3306   0.922   4.227   0.899
 1099SOL    HW1 3307   0.897   4.218   0.803
 1099SOL    HW2 3308   0.970   4.145   0.930
 1100SOL     OW 3309   0.539   3.788   0.512
 1100SOL    HW1 3310   0.458   3.789   0.570
 1100SOL    HW2 3311   0.542   3.871   0.457
 1101SOL     OW 3312   0.297   3.759   0.171
 1101SOL    HW1 3313   0.346   3.843   0.150
 1101SOL    HW2 3314   0.359   3.694   0.216
 1102SOL     OW 3315   0.935   3.960   0.480
 1102SOL    HW1 3316   0.887   4.001   0.402
 1102SOL    HW2 3317   1.034   3.958   0.461
 1103SOL     OW 3318   1.076   4.407   1.464
 1103SOL    HW1 3319   0.996   4.346   1.467
 1103SOL    HW2 3320   1.157   4.354   1.440
 1104SOL     OW 3321   1.032   4.273   0.016
 1104SOL    HW1 3322   0.991   4.355  -0.023
 1104SOL    HW2 3323   1.096   4.299   0.089
 1105SOL     OW 3324   0.078   4.280   1.386
 1105SOL    HW1 3325   0.170   4.279   1.345
 1105SOL    HW2 3326   0.072   4.354   1.453
 1106SOL     OW 3327   0.561   3.946   1.147
 1106SOL    HW1 3328   0.599   3.862   1.184
 1106SOL    HW2 3329   0.473   3.965   1.191
 1107SOL     OW 3330   0.866   4.178   0.642
 1107SOL    HW1 3331   0.834   4.250   0.580
 1107SOL    HW2 3332   0.890   4.097   0.589
 1108SOL     OW 3333   1.017   3.763   0.753
 1108SOL    HW1 3334   0.945   3.768   0.684
 1108SOL    HW2 3335   0.993   3.694   0.822
 1109SOL     OW 3336   1.466   4.314   0.992
 1109SOL    HW1 3337   1.436   4.219   0.999
 1109SOL    HW2 3338   1.539   4.330   1.058
 1110SOL     OW 3339   1.857   4.557   0.377
 1110SOL    HW1 3340   1.899   4.493   0.441
 1110SOL    HW2 3341   1.819   4.506   0.299
 1111SOL     OW 3342   1.390   4.299   0.078
 1111SOL    HW1 3343   1.336   4.278   0.159
 1111SOL    HW2 3344   1.481   4.258   0.087
 1112SOL     OW 3345   0.527   3.980   0.328
 1112SOL    HW1 3346   0.554   3.921   0.253
 1112SOL    HW2 3347   0.527   4.075   0.297
 1113SOL     OW 3348   1.638   4.823   1.079
 1113SOL    HW1 3349   1.643   4.904   1.138
 1113SOL    HW2 3350   1.552   4.825   1.028
 1114SOL     OW 3351   0.915   3.813   1.402
 1114SOL    HW1 3352   0.940   3.793   1.307
 1114SOL    HW2 3353   0.987   3.869   1.444
 1115SOL     OW 3354   0.410   4.537   1.251
 1115SOL    HW1 3355   0.496   4.549   1.301
 1115SOL    HW2 3356   0.368   4.450   1.278
 1116SOL     OW 3357   1.274   4.110   1.262
 1116SOL    HW1 3358   1.295   4.184   1.326
 1116SOL    HW2 3359   1.185   4.127   1.219
 1117SOL     OW 3360   0.566   4.261   0.865
 1117SOL    HW1 3361   0.578   4.327   0.791
 1117SOL    HW2 3362   0.612   4.295   0.948
 1118SOL     OW 3363   1.582   4.363   0.472
 1118SOL    HW1 3364   1.551   4.424   0.545
 1118SOL    HW2 3365   1.632   4.415   0.403
 1119SOL     OW 3366   0.402   4.475   1.598
 1119SOL    HW1 3367   0.470   4.530   1.551
 1119SOL    HW2 3368   0.442   4.387   1.625
 1120SOL     OW 3369   1.587   4.503   1.670
 1120SOL    HW1 3370   1.495   4.541   1.665
 1120SOL    HW2 3371   1.647   4.550   1.605
 1121SOL     OW 3372   1.013   3.829   1.770
 1121SOL    HW1 3373   1.019   3.914   1.718
 1121SOL    HW2 3374   1.045   3.753   1.713
 1122SOL     OW 3375   0.504   3.774   1.740
 1122SOL    HW1 3376   0.462   3.717   1.670
 1122SOL    HW2 3377   0.438   3.843   1.772
 1123SOL     OW 3378   0.573   4.594   1.029
 1123SOL    HW1 3379   0.617   4.683   1.020
 1123SOL    HW2 3380   0.510   4.594   1.106
 1124SOL     OW 3381   1.360   4.586   1.045
 1124SOL    HW1 3382   1.285   4.586   0.979
 1124SOL    HW2 3383   1.397   4.494   1.054
 1125SOL     OW 3384   1.209   4.249   0.275
 1125SOL    HW1 3385   1.222   4.165   0.329
 1125SOL    HW2 3386   1.180   4.323   0.335
 1126SOL     OW 3387   0.307   3.937   1.231
 1126SOL    HW1 3388   0.284   3.974   1.321
 1126SOL    HW2 3389   0.277   3.842   1.225
 1127SOL     OW 3390   0.732   4.358   1.064
 1127SOL    HW1 3391   0.791   4.332   0.988
 1127SOL    HW2 3392   0.704   4.454   1.053
 1128SOL     OW 3393   1.728   4.659   1.854
 1128SOL    HW1 3394   1.682   4.652   1.765
 1128SOL    HW2 3395   1.666   4.703   1.920
 1129SOL     OW 3396   0.307   3.787   0.618
 1129SOL    HW1 3397   0.296   3.881   0.651
 1129SOL    HW2 3398   0.302   3.724   0.695
 1130SOL     OW 3399   1.622   4.091   0.374
 1130SOL    HW1 3400   1.624   4.015   0.438
 1130SOL    HW2 3401   1.574   4.168   0.414
 1131SOL     OW 3402   1.023   4.490   0.966
 1131SOL    HW1 3403   1.038   4.511   1.062
 1131SOL    HW2 3404   0.993   4.395   0.957
 1132SOL     OW 3405   0.350   4.622   1.804
 1132SOL    HW1 3406   0.426   4.666   1.852
 1132SOL    HW2 3407   0.385   4.575   1.722
 1133SOL     OW 3408   1.540   3.998   0.125
 1133SOL    HW1 3409   1.479   3.923   0.148
 1133SOL    HW2 3410   1.562   4.050   0.208
 1134SOL     OW 3411   1.303   4.562   0.042
 1134SOL    HW1 3412   1.337   4.469   0.057
 1134SOL    HW2 3413   1.321   4.589  -0.053
 1135SOL     OW 3414   0.319   4.534   0.949
 1135SOL    HW1 3415   0.412   4.570   0.954
 1135SOL    HW2 3416   0.313   4.449   1.001
 1136SOL     OW 3417   0.339   4.233   1.006
 1136SOL    HW1 3418   0.287   4.150   0.989
 1136SOL    HW2 3419   0.416   4.238   0.942
 1137SOL     OW 3420   1.138   4.104   1.678
 1137SOL    HW1 3421   1.093   4.167   1.742
 1137SOL    HW2 3422   1.231   4.135   1.661
 1138SOL     OW 3423   1.160   3.931   1.477
 1138SOL    HW1 3424   1.160   3.995   1.554
 1138SOL    HW2 3425   1.188   3.979   1.394
 1139SOL     OW 3426   1.002   4.520   1.238
 1139SOL    HW1 3427   1.043   4.488   1.324
 1139SOL    HW2 3428   0.906   4.493   1.235
 1140SOL     OW 3429   0.040   4.268   1.114
 1140SOL    HW1 3430   0.125   4.235   1.073
 1140SOL    HW2 3431   0.053   4.283   1.212
 1141SOL     OW 3432   0.189   4.244   1.722
 1141SOL    HW1 3433   0.248   4.204   1.652
 1141SOL    HW2 3434   0.131   4.315   1.681
 1142SOL     OW 3435   0.815   4.296   0.325
 1142SOL    HW1 3436   0.822   4.207   0.279
 1142SOL    HW2 3437   0.721   4.330   0.317
 1143SOL     OW 3438   1.657   4.328   1.206
 1143SOL    HW1 3439   1.619   4.259   1.268
 1143SOL    HW2 3440   1.739   4.292   1.162
 1144SOL     OW 3441   0.671   4.188   1.269
 1144SOL    HW1 3442   0.637   4.099   1.239
 1144SOL    HW2 3443   0.697   4.242   1.189
 1145SOL     OW 3444   0.473   4.224   0.191
 1145SOL    HW1 3445   0.534   4.304   0.195
 1145SOL    HW2 3446   0.378   4.255   0.198
 1146SOL     OW 3447   1.347   4.783   1.234
 1146SOL    HW1 3448   1.371   4.720   1.160
 1146SOL    HW2 3449   1.257   4.823   1.216
 1147SOL     OW 3450   1.302   4.579   0.309
 1147SOL    HW1 3451   1.216   4.548   0.351
 1147SOL    HW2 3452   1.298   4.565   0.210
 1148SOL     OW 3453   0.903   3.810   0.133
 1148SOL    HW1 3454   0.954   3.811   0.047
 1148SOL    HW2 3455   0.959   3.768   0.204
 1149SOL     OW 3456   1.726   3.859   0.523
 1149SOL    HW1 3457   1.799   3.842   0.456
 1149SOL    HW2 3458   1.695   3.772   0.561
 1150SOL     OW 3459   1.280   4.651   0.672
 1150SOL    HW1 3460   1.340   4.570   0.674
 1150SOL    HW2 3461   1.320   4.720   0.612
 1151SOL     OW 3462   1.841   3.899   0.963
 1151SOL    HW1 3463   1.880   3.814   0.927
 1151SOL    HW2 3464   1.743   3.901   0.944
 1152SOL     OW 3465   0.263   4.050   0.720
 1152SOL    HW1 3466   0.184   4.101   0.686
 1152SOL    HW2 3467   0.254   4.035   0.818
 1153SOL     OW 3468   1.014   3.960   0.971
 1153SOL    HW1 3469   1.006   3.924   0.878
 1153SOL    HW2 3470   1.012   3.884   1.036
 1154SOL     OW 3471   1.709   4.109   1.381
 1154SOL    HW1 3472   1.782   4.178   1.385
 1154SOL    HW2 3473   1.737   4.034   1.322
 1155SOL     OW 3474   0.105   4.737   1.726
 1155SOL    HW1 3475   0.028   4.704   1.780
 1155SOL    HW2 3476   0.190   4.707   1.768
 1156SOL     OW 3477   0.672   3.927   1.489
 1156SOL    HW1 3478   0.762   3.911   1.449
 1156SOL    HW2 3479   0.680   3.932   1.588
 1157SOL     OW 3480   0.075   4.069   0.033
 1157SOL    HW1 3481  -0.017   4.041   0.004
 1157SOL    HW2 3482   0.106   4.146  -0.023
 1158SOL     OW 3483   1.440   4.580   1.398
 1158SOL    HW1 3484   1.383   4.632   1.335
 1158SOL    HW2 3485   1.536   4.592   1.374
 1159SOL     OW 3486   0.072   3.890   0.318
 1159SOL    HW1 3487   0.055   3.973   0.264
 1159SOL    HW2 3488   0.162   3.853   0.296
 1160SOL     OW 3489   0.613   4.566   1.431
 1160SOL    HW1 3490   0.669   4.647   1.414
 1160SOL    HW2 3491   0.672   4.486   1.434
 1161SOL     OW 3492   0.716   4.289   1.708
 1161SOL    HW1 3493   0.735   4.354   1.782
 1161SOL    HW2 3494   0.776   4.209   1.717
 1162SOL     OW 3495   1.674   4.607   1.254
 1162SOL    HW1 3496   1.647   4.518   1.217
 1162SOL    HW2 3497   1.675   4.675   1.181
 1163SOL     OW 3498   1.225   4.049   0.449
 1163SOL    HW1 3499   1.290   3.975   0.438
 1163SOL    HW2 3500   1.245   4.099   0.533
 1164SOL     OW 3501   0.594   4.469   0.652
 1164SOL    HW1 3502   0.644   4.554   0.633
 1164SOL    HW2 3503   0.506   4.471   0.604
 1165SOL     OW 3504   1.777   4.066   1.642
 1165SOL    HW1 3505   1.760   4.097   1.548
 1165SOL    HW2 3506   1.693   4.029   1.680
 1166SOL     OW 3507   1.730   4.658   1.517
 1166SOL    HW1 3508   1.768   4.749   1.532
 1166SOL    HW2 3509   1.722   4.641   1.418
 1167SOL     OW 3510   1.824   3.916   1.227
 1167SOL    HW1 3511   1.820   3.826   1.271
 1167SOL    HW2 3512   1.827   3.905   1.128
 1168SOL     OW 3513   0.428   4.148   0.520
 1168SOL    HW1 3514   0.458   4.076   0.458
 1168SOL    HW2 3515   0.389   4.108   0.603
 1169SOL     OW 3516   0.317   4.271   1.280
 1169SOL    HW1 3517   0.355   4.212   1.352
 1169SOL    HW2 3518   0.357   4.245   1.192
 1170SOL     OW 3519   1.424   3.938   1.112
 1170SOL    HW1 3520   1.476   3.873   1.167
 1170SOL    HW2 3521   1.375   4.001   1.173
 1171SOL     OW 3522   1.001   3.758   1.154
 1171SOL    HW1 3523   0.938   3.686   1.123
 1171SOL    HW2 3524   1.094   3.722   1.154
 1172SOL     OW 3525   1.352   3.776   0.168
 1172SOL    HW1 3526   1.387   3.735   0.084
 1172SOL    HW2 3527   1.262   3.738   0.188
 1173SOL     OW 3528   1.300   4.177   0.691
 1173SOL    HW1 3529   1.241   4.257   0.695
 1173SOL    HW2 3530   1.315   4.142   0.784
 1174SOL     OW 3531   1.593   3.945   0.882
 1174SOL    HW1 3532   1.509   3.944   0.936
 1174SOL    HW2 3533   1.595   4.028   0.826
 1175SOL     OW 3534   0.230   4.352   1.975
 1175SOL    HW1 3535   0.137   4.350   2.012
 1175SOL    HW2 3536   0.231   4.313   1.883
 1176SOL     OW 3537   0.225   3.999   2.858
 1176SOL    HW1 3538   0.260   3.982   2.950
 1176SOL    HW2 3539   0.137   3.954   2.846
 1177SOL     OW 3540   0.019   4.092   2.509
 1177SOL    HW1 3541  -0.063   4.135   2.548
 1177SOL    HW2 3542  -0.009   4.019   2.446
 1178SOL     OW 3543   1.135   4.427   2.579
 1178SOL    HW1 3544   1.192   4.505   2.554
 1178SOL    HW2 3545   1.075   4.453   2.655
 1179SOL     OW 3546   1.755   4.331   2.093
 1179SOL    HW1 3547   1.743   4.318   1.994
 1179SOL    HW2 3548   1.725   4.250   2.142
 1180SOL     OW 3549   0.850   4.522   3.685
 1180SOL    HW1 3550   0.846   4.598   3.750
 1180SOL    HW2 3551   0.872   4.558   3.594
 1181SOL     OW 3552   0.685   4.736   2.527
 1181SOL    HW1 3553   0.754   4.720   2.597
 1181SOL    HW2 3554   0.612   4.793   2.565
 1182SOL     OW 3555   0.438   4.116   3.361
 1182SOL    HW1 3556   0.520   4.060   3.370
 1182SOL    HW2 3557   0.357   4.058   3.365
 1183SOL     OW 3558   1.603   4.171   2.599
 1183SOL    HW1 3559   1.529   4.217   2.549
 1183SOL    HW2 3560   1.654   4.239   2.652
 1184SOL     OW 3561   1.594   3.838   3.342
 1184SOL    HW1 3562   1.576   3.905   3.270
 1184SOL    HW2 3563   1.591   3.884   3.431
 1185SOL     OW 3564   0.122   4.367   2.425
 1185SOL    HW1 3565   0.077   4.279   2.442
 1185SOL    HW2 3566   0.121   4.421   2.509
 1186SOL     OW 3567   0.113   4.461   3.459
 1186SOL    HW1 3568   0.201   4.448   3.504
 1186SOL    HW2 3569   0.100   4.558   3.437
 1187SOL     OW 3570   0.809   3.728   2.364
 1187SOL    HW1 3571   0.849   3.819   2.355
 1187SOL    HW2 3572   0.709   3.736   2.370
 1188SOL     OW 3573   0.197   4.700   3.126
 1188SOL    HW1 3574   0.286   4.655   3.112
 1188SOL    HW2 3575   0.124   4.635   3.107
 1189SOL     OW 3576   1.525   4.723   2.052
 1189SOL    HW1 3577   1.462   4.647   2.065
 1189SOL    HW2 3578   1.573   4.741   2.138
 1190SOL     OW 3579   0.317   3.975   3.663
 1190SOL    HW1 3580   0.388   4.046   3.669
 1190SOL    HW2 3581   0.229   4.014   3.691
 1191SOL     OW 3582   0.598   4.453   2.132
 1191SOL    HW1 3583   0.622   4.522   2.064
 1191SOL    HW2 3584   0.520   4.486   2.186
 1192SOL     OW 3585   1.281   4.069   2.806
 1192SOL    HW1 3586   1.195   4.019   2.793
 1192SOL    HW2 3587   1.343   4.015   2.862
 1193SOL     OW 3588   0.807   4.329   3.327
 1193SOL    HW1 3589   0.760   4.326   3.416
 1193SOL    HW2 3590   0.756   4.274   3.261
 1194SOL     OW 3591   1.394   4.193   3.536
 1194SOL    HW1 3592   1.374   4.236   3.624
 1194SOL    HW2 3593   1.472   4.131   3.545
 1195SOL     OW 3594   0.973   4.614   3.434
 1195SOL    HW1 3595   1.019   4.530   3.405
 1195SOL    HW2 3596   0.917   4.648   3.359
 1196SOL     OW 3597   0.991   4.134   3.104
 1196SOL    HW1 3598   0.914   4.168   3.158
 1196SOL    HW2 3599   0.957   4.083   3.025
 1197SOL     OW 3600   1.041   4.425   2.291
 1197SOL    HW1 3601   1.067   4.421   2.387
 1197SOL    HW2 3602   0.956   4.374   2.277
 1198SOL     OW 3603   0.076   4.535   2.651
 1198SOL    HW1 3604   0.175   4.523   2.660
 1198SOL    HW2 3605   0.052   4.630   2.672
 1199SOL     OW 3606   0.865   4.072   2.057
 1199SOL    HW1 3607   0.924   4.135   2.008
 1199SOL    HW2 3608   0.884   3.978   2.028
 1200SOL     OW 3609   1.719   4.309   3.693
 1200SOL    HW1 3610   1.693   4.398   3.657
 1200SOL    HW2 3611   1.717   4.241   3.620
 1201SOL     OW 3612   0.550   3.920   2.747
 1201SOL    HW1 3613   0.545   3.915   2.847
 1201SOL    HW2 3614   0.552   4.016   2.718
 1202SOL     OW 3615   1.458   4.459   2.590
 1202SOL    HW1 3616   1.453   4.394   2.665
 1202SOL    HW2 3617   1.538   4.518   2.603
 1203SOL     OW 3618   0.202   4.009   3.360
 1203SOL    HW1 3619   0.122   4.069   3.347
 1203SOL    HW2 3620   0.192   3.960   3.446
 1204SOL     OW 3621   1.400   3.831   2.288
 1204SOL    HW1 3622   1.376   3.794   2.198
 1204SOL    HW2 3623   1.499   3.847   2.292
 1205SOL     OW 3624   0.382   4.424   2.342
 1205SOL    HW1 3625   0.427   4.334   2.339
 1205SOL    HW2 3626   0.288   4.413   2.375
 1206SOL     OW 3627   1.547   3.946   3.591
 1206SOL    HW1 3628   1.542   3.983   3.683
 1206SOL    HW2 3629   1.475   3.877   3.579
 1207SOL     OW 3630   0.614   3.846   1.979
 1207SOL    HW1 3631   0.712   3.824   1.986
 1207SOL    HW2 3632   0.583   3.829   1.886
 1208SOL     OW 3633   0.781   3.988   3.611
 1208SOL    HW1 3634   0.848   3.927   3.654
 1208SOL    HW2 3635   0.708   4.007   3.676
 1209SOL     OW 3636   1.351   4.314   3.295
 1209SOL    HW1 3637   1.379   4.271   3.380
 1209SOL    HW2 3638   1.376   4.410   3.296
 1210SOL     OW 3639   0.922   4.227   2.761
 1210SOL    HW1 3640   0.897   4.218   2.665
 1210SOL    HW2 3641   0.970   4.145   2.792
 1211SOL     OW 3642   0.539   3.788   2.374
 1211SOL    HW1 3643   0.458   3.789   2.432
 1211SOL    HW2 3644   0.542   3.871   2.319
 1212SOL     OW 3645   0.297   3.759   2.033
 1212SOL    HW1 3646   0.346   3.843   2.012
 1212SOL    HW2 3647   0.359   3.694   2.078
 1213SOL     OW 3648   0.935   3.960   2.342
 1213SOL    HW1 3649   0.887   4.001   2.264
 1213SOL    HW2 3650   1.034   3.958   2.323
 1214SOL     OW 3651   1.076   4.407   3.326
 1214SOL    HW1 3652   0.996   4.346   3.329
 1214SOL    HW2 3653   1.157   4.354   3.302
 1215SOL     OW 3654   1.032   4.273   1.878
 1215SOL    HW1 3655   0.991   4.355   1.839
 1215SOL    HW2 3656   1.096   4.299   1.951
 1216SOL     OW 3657   0.078   4.280   3.248
 1216SOL    HW1 3658   0.170   4.279   3.207
 1216SOL    HW2 3659   0.072   4.354   3.315
 1217SOL     OW 3660   0.561   3.946   3.009
 1217SOL    HW1 3661   0.599   3.862   3.046
 1217SOL    HW2 3662   0.473   3.965   3.053
 1218SOL     OW 3663   0.866   4.178   2.504
 1218SOL    HW1 3664   0.834   4.250   2.442
 1218SOL    HW2 3665   0.890   4.097   2.451
 1219SOL     OW 3666   1.017   3.763   2.615
 1219SOL    HW1 3667   0.945   3.768   2.546
 1219SOL    HW2 3668   0.993   3.694   2.684
 1220SOL     OW 3669   1.466   4.314   2.854
 1220SOL    HW1 3670   1.436   4.219   2.861
 1220SOL    HW2 3671   1.539   4.330   2.920
 1221SOL     OW 3672   1.857   4.557   2.239
 1221SOL    HW1 3673   1.899   4.493   2.303
 1221SOL    HW2 3674   1.819   4.506   2.161
 1222SOL     OW 3675   1.390   4.299   1.940
 1222SOL    HW1 3676   1.336   4.278   2.021
 1222SOL    HW2 3677   1.481   4.258   1.949
 1223SOL     OW 3678   0.527   3.980   2.190
 1223SOL    HW1 3679   0.554   3.921   2.115
 1223SOL    HW2 3680   0.527   4.075   2.159
 1224SOL     OW 3681   1.638   4.823   2.941
 1224SOL    HW1 3682   1.643   4.904   3.000
 1224SOL    HW2 3683   1.552   4.825   2.890
 1225SOL     OW 3684   0.915   3.813   3.264
 1225SOL    HW1 3685   0.940   3.793   3.169
 1225SOL    HW2 3686   0.987   3.869   3.306
 1226SOL     OW 3687   0.410   4.537   3.113
 1226SOL    HW1 3688   0.496   4.549   3.163
 1226SOL    HW2 3689   0.368   4.450   3.140
 1227SOL     OW 3690   1.274   4.110   3.124
 1227SOL    HW1 3691   1.295   4.184   3.188
 1227SOL    HW2 3692   1.185   4.127   3.081
 1228SOL     OW 3693   0.566   4.261   2.727
 1228SOL    HW1 3694   0.578   4.327   2.653
 1228SOL    HW2 3695   0.612   4.295   2.810
 1229SOL     OW 3696   1.582   4.363   2.334
 1229SOL    HW1 3697   1.551   4.424   2.407
 1229SOL    HW2 3698   1.632   4.415   2.265
 1230SOL     OW 3699   0.402   4.475   3.460
 1230SOL    HW1 3700   0.470   4.530   3.413
 1230SOL    HW2 3701   0.442   4.387   3.487
 1231SOL     OW 3702   1.587   4.503   3.532
 1231SOL    HW1 3703   1.495   4.541   3.527
 1231SOL    HW2 3704   1.647   4.550   3.467
 1232SOL     OW 3705   1.013   3.829   3.632
 1232SOL    HW1 3706   1.019   3.914   3.580
 1232SOL    HW2 3707   1.045   3.753   3.575
 1233SOL     OW 3708   0.504   3.774   3.602
 1233SOL    HW1 3709   0.462   3.717   3.532
 1233SOL    HW2 3710   0.438   3.843   3.634
 1234SOL     OW 3711   0.573   4.594   2.891
 1234SOL    HW1 3712   0.617   4.683   2.882
 1234SOL    HW2 3713   0.510   4.594   2.968
 1235SOL     OW 3714   1.360   4.586   2.907
 1235SOL    HW1 3715   1.285   4.586   2.841
 1235SOL    HW2 3716   1.397   4.494   2.916
 1236SOL     OW 3717   1.209   4.249   2.137
 1236SOL    HW1 3718   1.222   4.165   2.191
 1236SOL    HW2 3719   1.180   4.323   2.197
 1237SOL     OW 3720   0.307   3.937   3.093
 1237SOL    HW1 3721   0.284   3.974   3.183
 1237SOL    HW2 3722   0.277   3.842   3.087
 1238SOL     OW 3723   0.732   4.358   2.926
 1238SOL    HW1 3724   0.791   4.332   2.850
 1238SOL    HW2 3725   0.704   4.454   2.915
 1239SOL     OW 3726   1.728   4.659   3.716
 1239SOL    HW1 3727   1.682   4.652   3.627
 1239SOL    HW2 3728   1.666   4.703   3.782
 1240SOL     OW 3729   0.307   3.787   2.480
 1240SOL    HW1 3730   0.296   3.881   2.513
 1240SOL    HW2 3731   0.302   3.724   2.557
 1241SOL     OW 3732   1.622   4.091   2.236
 1241SOL    HW1 3733   1.624   4.015   2.300
 1241SOL    HW2 3734   1.574   4.168   2.276
 1242SOL     OW 3735   1.023   4.490   2.828
 1242SOL    HW1 3736   1.038   4.511   2.924
 1242SOL    HW2 3737   0.993   4.395   2.819
 1243SOL     OW 3738   0.350   4.622   3.666
 1243SOL    HW1 3739   0.426   4.666   3.714
 1243SOL    HW2 3740   0.385   4.575   3.584
 1244SOL     OW 3741   1.540   3.998   1.987
 1244SOL    HW1 3742   1.479   3.923   2.010
 1244SOL    HW2 3743   1.562   4.050   2.070
 1245SOL     OW 3744   1.303   4.562   1.904
 1245SOL    HW1 3745   1.337   4.469   1.919
 1245SOL    HW2 3746   1.321   4.589   1.809
 1246SOL     OW 3747   0.319   4.534   2.811
 1246SOL    HW1 3748   0.412   4.570   2.816
 1246SOL    HW2 3749   0.313   4.449   2.863
 1247SOL     OW 3750   0.339   4.233   2.868
 1247SOL    HW1 3751   0.287   4.150   2.851
 1247SOL    HW2 3752   0.416   4.238   2.804
 1248SOL     OW 3753   1.138   4.104   3.540
 1248SOL    HW1 3754   1.093   4.167   3.604
 1248SOL    HW2 3755   1.231   4.135   3.523
 1249SOL     OW 3756   1.160   3.931   3.339
 1249SOL    HW1 3757   1.160   3.995   3.416
 1249SOL    HW2 3758   1.188   3.979   3.256
 1250SOL     OW 3759   1.002   4.520   3.100
 1250SOL    HW1 3760   1.043   4.488   3.186
 1250SOL    HW2 3761   0.906   4.493   3.097
 1251SOL     OW 3762   0.040   4.268   2.976
 1251SOL    HW1 3763   0.125   4.235   2.935
 1251SOL    HW2 3764   0.053   4.283   3.074
 1252SOL     OW 3765   0.189   4.244   3.584
 1252SOL    HW1 3766   0.248   4.204   3.514
 1252SOL    HW2 3767   0.131   4.315   3.543
 1253SOL     OW 3768   0.815   4.296   2.187
 1253SOL    HW1 3769   0.822   4.207   2.141
 1253SOL    HW2 3770   0.721   4.330   2.179
 1254SOL     OW 3771   1.657   4.328   3.068
 1254SOL    HW1 3772   1.619   4.259   3.130
 1254SOL    HW2 3773   1.739   4.292   3.024
 1255SOL     OW 3774   0.671   4.188   3.131
 1255SOL    HW1 3775   0.637   4.099   3.101
 1255SOL    HW2 3776   0.697   4.242   3.051
 1256SOL     OW 3777   0.473   4.224   2.053
 1256SOL    HW1 3778   0.534   4.304   2.057
 1256SOL    HW2 3779   0.378   4.255   2.060
 1257SOL     OW 3780   1.347   4.783   3.096
 1257SOL    HW1 3781   1.371   4.720   3.022
 1257SOL    HW2 3782   1.257   4.823   3.078
 1258SOL     OW 3783   1.302   4.579   2.171
 1258SOL    HW1 3784   1.216   4.548   2.213
 1258SOL    HW2 3785   1.298   4.565   2.072
 1259SOL     OW 3786   1.726   3.859   2.385
 1259SOL    HW1 3787   1.799   3.842   2.318
 1259SOL    HW2 3788   1.695   3.772   2.423
 1260SOL     OW 3789   1.280   4.651   2.534
 1260SOL    HW1 3790   1.340   4.570   2.536
 1260SOL    HW2 3791   1.320   4.720   2.474
 1261SOL     OW 3792   1.841   3.899   2.825
 1261SOL    HW1 3793   1.880   3.814   2.789
 1261SOL    HW2 3794   1.743   3.901   2.806
 1262SOL     OW 3795   0.263   4.050   2.582
 1262SOL    HW1 3796   0.184   4.101   2.548
 1262SOL    HW2 3797   0.254   4.035   2.680
 1263SOL     OW 3798   0.916   4.634   2.153
 1263SOL    HW1 3799   0.979   4.672   2.085
 1263SOL    HW2 3800   0.956   4.551   2.192
 1264SOL     OW 3801   1.014   3.960   2.833
 1264SOL    HW1 3802   1.006   3.924   2.740
 1264SOL    HW2 3803   1.012   3.884   2.898
 1265SOL     OW 3804   1.709   4.109   3.243
 1265SOL    HW1 3805   1.782   4.178   3.247
 1265SOL    HW2 3806   1.737   4.034   3.184
 1266SOL     OW 3807   0.105   4.737   3.588
 1266SOL    HW1 3808   0.028   4.704   3.642
 1266SOL    HW2 3809   0.190   4.707   3.630
 1267SOL     OW 3810   0.672   3.927   3.351
 1267SOL    HW1 3811   0.762   3.911   3.311
 1267SOL    HW2 3812   0.680   3.932   3.450
 1268SOL     OW 3813   0.075   4.069   1.895
 1268SOL    HW1 3814  -0.017   4.041   1.866
 1268SOL    HW2 3815   0.106   4.146   1.839
 1269SOL     OW 3816   1.440   4.580   3.260
 1269SOL    HW1 3817   1.383   4.632   3.197
 1269SOL    HW2 3818   1.536   4.592   3.236
 1270SOL     OW 3819   0.072   3.890   2.180
 1270SOL    HW1 3820   0.055   3.973   2.126
 1270SOL    HW2 3821   0.162   3.853   2.158
 1271SOL     OW 3822   0.613   4.566   3.293
 1271SOL    HW1 3823   0.669   4.647   3.276
 1271SOL    HW2 3824   0.672   4.486   3.296
 1272SOL     OW 3825   0.716   4.289   3.570
 1272SOL    HW1 3826   0.735   4.354   3.644
 1272SOL    HW2 3827   0.776   4.209   3.579
 1273SOL     OW 3828   1.674   4.607   3.116
 1273SOL    HW1 3829   1.647   4.518   3.079
 1273SOL    HW2 3830   1.675   4.675   3.043
 1274SOL     OW 3831   1.225   4.049   2.311
 1274SOL    HW1 3832   1.290   3.975   2.300
 1274SOL    HW2 3833   1.245   4.099   2.395
 1275SOL     OW 3834   0.594   4.469   2.514
 1275SOL    HW1 3835   0.644   4.554   2.495
 1275SOL    HW2 3836   0.506   4.471   2.466
 1276SOL     OW 3837   1.777   4.066   3.504
 1276SOL    HW1 3838   1.760   4.097   3.410
 1276SOL    HW2 3839   1.693   4.029   3.542
 1277SOL     OW 3840   1.730   4.658   3.379
 1277SOL    HW1 3841   1.768   4.749   3.394
 1277SOL    HW2 3842   1.722   4.641   3.280
 1278SOL     OW 3843   1.824   3.916   3.089
 1278SOL    HW1 3844   1.820   3.826   3.133
 1278SOL    HW2 3845   1.827   3.905   2.990
 1279SOL     OW 3846   0.428   4.148   2.382
 1279SOL    HW1 3847   0.458   4.076   2.320
 1279SOL    HW2 3848   0.389   4.108   2.465
 1280SOL     OW 3849   0.317   4.271   3.142
 1280SOL    HW1 3850   0.355   4.212   3.214
 1280SOL    HW2 3851   0.357   4.245   3.054
 1281SOL     OW 3852   1.424   3.938   2.974
 1281SOL    HW1 3853   1.476   3.873   3.029
 1281SOL    HW2 3854   1.375   4.001   3.035
 1282SOL     OW 3855   1.001   3.758   3.016
 1282SOL    HW1 3856   0.938   3.686   2.985
 1282SOL    HW2 3857   1.094   3.722   3.016
 1283SOL     OW 3858   1.352   3.776   2.030
 1283SOL    HW1 3859   1.387   3.735   1.946
 1283SOL    HW2 3860   1.262   3.738   2.050
 1284SOL     OW 3861   1.300   4.177   2.553
 1284SOL    HW1 3862   1.241   4.257   2.557
 1284SOL    HW2 3863   1.315   4.142   2.646
 1285SOL     OW 3864   1.593   3.945   2.744
 1285SOL    HW1 3865   1.509   3.944   2.798
 1285SOL    HW2 3866   1.595   4.028   2.688
 1286SOL     OW 3867   0.230   4.352   3.837
 1286SOL    HW1 3868   0.137   4.350   3.874
 1286SOL    HW2 3869   0.231   4.313   3.745
 1287SOL     OW 3870   0.019   4.092   4.371
 1287SOL    HW1 3871  -0.063   4.135   4.410
 1287SOL    HW2 3872  -0.009   4.019   4.308
 1288SOL     OW 3873   1.135   4.427   4.441
 1288SOL    HW1 3874   1.192   4.505   4.416
 1288SOL    HW2 3875   1.075   4.453   4.517
 1289SOL     OW 3876   1.755   4.331   3.955
 1289SOL    HW1 3877   1.743   4.318   3.856
 1289SOL    HW2 3878   1.725   4.250   4.004
 1290SOL     OW 3879   0.685   4.736   4.389
 1290SOL    HW1 3880   0.754   4.720   4.459
 1290SOL    HW2 3881   0.612   4.793   4.427
 1291SOL     OW 3882   1.603   4.171   4.461
 1291SOL    HW1 3883   1.529   4.217   4.411
 1291SOL    HW2 3884   1.654   4.239   4.514
 1292SOL     OW 3885   0.240   4.815   4.610
 1292SOL    HW1 3886   0.254   4.731   4.662
 1292SOL    HW2 3887   0.185   4.879   4.665
 1293SOL     OW 3888   0.122   4.367   4.287
 1293SOL    HW1 3889   0.077   4.279   4.304
 1293SOL    HW2 3890   0.121   4.421   4.371
 1294SOL     OW 3891   0.809   3.728   4.226
 1294SOL    HW1 3892   0.849   3.819   4.217
 1294SOL    HW2 3893   0.709   3.736   4.232
 1295SOL     OW 3894   1.525   4.723   3.914
 1295SOL    HW1 3895   1.462   4.647   3.927
 1295SOL    HW2 3896   1.573   4.741   4.000
 1296SOL     OW 3897   0.598   4.453   3.994
 1296SOL    HW1 3898   0.622   4.522   3.926
 1296SOL    HW2 3899   0.520   4.486   4.048
 1297SOL     OW 3900   1.281   4.069   4.668
 1297SOL    HW1 3901   1.195   4.019   4.655
 1297SOL    HW2 3902   1.343   4.015   4.724
 1298SOL     OW 3903   1.041   4.425   4.153
 1298SOL    HW1 3904   1.067   4.421   4.249
 1298SOL    HW2 3905   0.956   4.374   4.139
 1299SOL     OW 3906   0.076   4.535   4.513
 1299SOL    HW1 3907   0.175   4.523   4.522
 1299SOL    HW2 3908   0.052   4.630   4.534
 1300SOL     OW 3909   0.865   4.072   3.919
 1300SOL    HW1 3910   0.924   4.135   3.870
 1300SOL    HW2 3911   0.884   3.978   3.890
 1301SOL     OW 3912   0.550   3.920   4.609
 1301SOL    HW1 3913   0.545   3.915   4.709
 1301SOL    HW2 3914   0.552   4.016   4.580
 1302SOL     OW 3915   1.458   4.459   4.452
 1302SOL    HW1 3916   1.453   4.394   4.527
 1302SOL    HW2 3917   1.538   4.518   4.465
 1303SOL     OW 3918   1.400   3.831   4.150
 1303SOL    HW1 3919   1.376   3.794   4.060
 1303SOL    HW2 3920   1.499   3.847   4.154
 1304SOL     OW 3921   0.382   4.424   4.204
 1304SOL    HW1 3922   0.427   4.334   4.201
 1304SOL    HW2 3923   0.288   4.413   4.237
 1305SOL     OW 3924   0.614   3.846   3.841
 1305SOL    HW1 3925   0.712   3.824   3.848
 1305SOL    HW2 3926   0.583   3.829   3.748
 1306SOL     OW 3927   0.539   3.788   4.236
 1306SOL    HW1 3928   0.458   3.789   4.294
 1306SOL    HW2 3929   0.542   3.871   4.181
 1307SOL     OW 3930   0.297   3.759   3.895
 1307SOL    HW1 3931   0.346   3.843   3.874
 1307SOL    HW2 3932   0.359   3.694   3.940
 1308SOL     OW 3933   0.935   3.960   4.204
 1308SOL    HW1 3934   0.887   4.001   4.126
 1308SOL    HW2 3935   1.034   3.958   4.185
 1309SOL     OW 3936   1.032   4.273   3.740
 1309SOL    HW1 3937   0.991   4.355   3.701
 1309SOL    HW2 3938   1.096   4.299   3.813
 1310SOL     OW 3939   0.866   4.178   4.366
 1310SOL    HW1 3940   0.834   4.250   4.304
 1310SOL    HW2 3941   0.890   4.097   4.313
 1311SOL     OW 3942   1.017   3.763   4.477
 1311SOL    HW1 3943   0.945   3.768   4.408
 1311SOL    HW2 3944   0.993   3.694   4.546
 1312SOL     OW 3945   1.857   4.557   4.101
 1312SOL    HW1 3946   1.899   4.493   4.165
 1312SOL    HW2 3947   1.819   4.506   4.023
 1313SOL     OW 3948   1.390   4.299   3.802
 1313SOL    HW1 3949   1.336   4.278   3.883
 1313SOL    HW2 3950   1.481   4.258   3.811
 1314SOL     OW 3951   0.527   3.980   4.052
 1314SOL    HW1 3952   0.554   3.921   3.977
 1314SOL    HW2 3953   0.527   4.075   4.021
 1315SOL     OW 3954   1.111   4.919   4.824
 1315SOL    HW1 3955   1.071   4.963   4.905
 1315SOL    HW2 3956   1.070   4.956   4.741
 1316SOL     OW 3957   0.566   4.261   4.589
 1316SOL    HW1 3958   0.578   4.327   4.515
 1316SOL    HW2 3959   0.612   4.295   4.672
 1317SOL     OW 3960   1.582   4.363   4.196
 1317SOL    HW1 3961   1.551   4.424   4.269
 1317SOL    HW2 3962   1.632   4.415   4.127
 1318SOL     OW 3963   0.573   4.594   4.753
 1318SOL    HW1 3964   0.617   4.683   4.744
 1318SOL    HW2 3965   0.510   4.594   4.830
 1319SOL     OW 3966   1.209   4.249   3.999
 1319SOL    HW1 3967   1.222   4.165   4.053
 1319SOL    HW2 3968   1.180   4.323   4.059
 1320SOL     OW 3969   0.732   4.358   4.788
 1320SOL    HW1 3970   0.791   4.332   4.712
 1320SOL    HW2 3971   0.704   4.454   4.777
 1321SOL     OW 3972   0.307   3.787   4.342
 1321SOL    HW1 3973   0.296   3.881   4.375
 1321SOL    HW2 3974   0.302   3.724   4.419
 1322SOL     OW 3975   1.622   4.091   4.098
 1322SOL    HW1 3976   1.624   4.015   4.162
 1322SOL    HW2 3977   1.574   4.168   4.138
 1323SOL     OW 3978   1.540   3.998   3.849
 1323SOL    HW1 3979   1.479   3.923   3.872
 1323SOL    HW2 3980   1.562   4.050   3.932
 1324SOL     OW 3981   1.303   4.562   3.766
 1324SOL    HW1 3982   1.337   4.469   3.781
 1324SOL    HW2 3983   1.321   4.589   3.671
 1325SOL     OW 3984   0.319   4.534   4.673
 1325SOL    HW1 3985   0.412   4.570   4.678
 1325SOL    HW2 3986   0.313   4.449   4.725
 1326SOL     OW 3987   0.815   4.296   4.049
 1326SOL    HW1 3988   0.822   4.207   4.003
 1326SOL    HW2 3989   0.721   4.330   4.041
 1327SOL     OW 3990   0.473   4.224   3.915
 1327SOL    HW1 3991   0.534   4.304   3.919
 1327SOL    HW2 3992   0.378   4.255   3.922
 1328SOL     OW 3993   1.302   4.579   4.033
 1328SOL    HW1 3994   1.216   4.548   4.075
 1328SOL    HW2 3995   1.298   4.565   3.934
 1329SOL     OW 3996   1.726   3.859   4.247
 1329SOL    HW1 3997   1.799   3.842   4.180
 1329SOL    HW2 3998   1.695   3.772   4.285
 1330SOL     OW 3999   1.280   4.651   4.396
 1330SOL    HW1 4000   1.340   4.570   4.398
 1330SOL    HW2 4001   1.320   4.720   4.336
 1331SOL     OW 4002   1.841   3.899   4.687
 1331SOL    HW1 4003   1.880   3.814   4.651
 1331SOL    HW2 4004   1.743   3.901   4.668
 1332SOL     OW 4005   0.263   4.050   4.444
 1332SOL    HW1 4006   0.184   4.101   4.410
 1332SOL    HW2 4007   0.254   4.035   4.542
 1333SOL     OW 4008   0.916   4.634   4.015
 1333SOL    HW1 4009   0.979   4.672   3.947
 1333SOL    HW2 4010   0.956   4.551   4.054
 1334SOL     OW 4011   0.075   4.069   3.757
 1334SOL    HW1 4012  -0.017   4.041   3.728
 1334SOL    HW2 4013   0.106   4.146   3.701
 1335SOL     OW 4014   0.072   3.890   4.042
 1335SOL    HW1 4015   0.055   3.973   3.988
 1335SOL    HW2 4016   0.162   3.853   4.020
 1336SOL     OW 4017   1.674   4.607   4.978
 1336SOL    HW1 4018   1.647   4.518   4.941
 1336SOL    HW2 4019   1.675   4.675   4.905
 1337SOL     OW 4020   1.225   4.049   4.173
 1337SOL    HW1 4021   1.290   3.975   4.162
 1337SOL    HW2 4022   1.245   4.099   4.257
 1338SOL     OW 4023   0.594   4.469   4.376
 1338SOL    HW1 4024   0.644   4.554   4.357
 1338SOL    HW2 4025   0.506   4.471   4.328
 1339SOL     OW 4026   0.428   4.148   4.244
 1339SOL    HW1 4027   0.458   4.076   4.182
 1339SOL    HW2 4028   0.389   4.108   4.327
 1340SOL     OW 4029   1.352   3.776   3.892
 1340SOL    HW1 4030   1.387   3.735   3.808
 1340SOL    HW2 4031   1.262   3.738   3.912
 1341SOL     OW 4032   1.300   4.177   4.415
 1341SOL    HW1 4033   1.241   4.257   4.419
 1341SOL    HW2 4034   1.315   4.142   4.508
 1342SOL     OW 4035   1.593   3.945   4.606
 1342SOL    HW1 4036   1.509   3.944   4.660
 1342SOL    HW2 4037   1.595   4.028   4.550
 1343SOL     OW 4038   2.092   0.628   0.113
 1343SOL    HW1 4039   1.999   0.626   0.150
 1343SOL    HW2 4040   2.093   0.589   0.021
 1344SOL     OW 4041   2.087   0.275   0.996
 1344SOL    HW1 4042   2.122   0.258   1.088
 1344SOL    HW2 4043   1.999   0.230   0.984
 1345SOL     OW 4044   1.881   0.368   0.647
 1345SOL    HW1 4045   1.799   0.411   0.686
 1345SOL    HW2 4046   1.853   0.295   0.584
 1346SOL     OW 4047   2.431   1.275   1.165
 1346SOL    HW1 4048   2.338   1.268   1.128
 1346SOL    HW2 4049   2.442   1.364   1.209
 1347SOL     OW 4050   3.417   1.511   0.703
 1347SOL    HW1 4051   3.360   1.495   0.784
 1347SOL    HW2 4052   3.358   1.521   0.623
 1348SOL     OW 4053   2.997   0.703   0.717
 1348SOL    HW1 4054   3.054   0.781   0.692
 1348SOL    HW2 4055   2.937   0.729   0.793
 1349SOL     OW 4056   3.617   0.607   0.231
 1349SOL    HW1 4057   3.605   0.594   0.132
 1349SOL    HW2 4058   3.587   0.526   0.280
 1350SOL     OW 4059   2.630   1.144   1.023
 1350SOL    HW1 4060   2.552   1.161   1.083
 1350SOL    HW2 4061   2.664   1.231   0.987
 1351SOL     OW 4062   2.712   0.798   1.823
 1351SOL    HW1 4063   2.708   0.874   1.888
 1351SOL    HW2 4064   2.734   0.834   1.732
 1352SOL     OW 4065   2.547   1.012   0.665
 1352SOL    HW1 4066   2.616   0.996   0.735
 1352SOL    HW2 4067   2.474   1.069   0.703
 1353SOL     OW 4068   2.548   1.161   1.803
 1353SOL    HW1 4069   2.608   1.240   1.817
 1353SOL    HW2 4070   2.462   1.192   1.762
 1354SOL     OW 4071   2.197   1.435   1.061
 1354SOL    HW1 4072   2.119   1.404   1.008
 1354SOL    HW2 4073   2.255   1.493   1.004
 1355SOL     OW 4074   3.322   1.505   1.339
 1355SOL    HW1 4075   3.346   1.599   1.365
 1355SOL    HW2 4076   3.306   1.451   1.421
 1356SOL     OW 4077   2.300   0.392   1.499
 1356SOL    HW1 4078   2.382   0.336   1.508
 1356SOL    HW2 4079   2.219   0.334   1.503
 1357SOL     OW 4080   3.465   0.447   0.737
 1357SOL    HW1 4081   3.391   0.493   0.687
 1357SOL    HW2 4082   3.516   0.515   0.790
 1358SOL     OW 4083   2.093   1.713   0.483
 1358SOL    HW1 4084   2.127   1.790   0.537
 1358SOL    HW2 4085   2.137   1.713   0.393
 1359SOL     OW 4086   2.989   1.341   1.690
 1359SOL    HW1 4087   3.036   1.341   1.778
 1359SOL    HW2 4088   2.941   1.254   1.679
 1360SOL     OW 4089   2.092   1.434   0.538
 1360SOL    HW1 4090   2.066   1.530   0.538
 1360SOL    HW2 4091   2.021   1.380   0.583
 1361SOL     OW 4092   2.102   1.091   0.886
 1361SOL    HW1 4093   2.116   1.007   0.938
 1361SOL    HW2 4094   2.047   1.155   0.941
 1362SOL     OW 4095   2.482   1.786   1.439
 1362SOL    HW1 4096   2.390   1.769   1.474
 1362SOL    HW2 4097   2.510   1.878   1.465
 1363SOL     OW 4098   2.468   0.964   0.123
 1363SOL    HW1 4099   2.475   1.048   0.069
 1363SOL    HW2 4100   2.514   0.977   0.211
 1364SOL     OW 4101   3.456   0.114   1.480
 1364SOL    HW1 4102   3.438   0.181   1.408
 1364SOL    HW2 4103   3.453   0.160   1.569
 1365SOL     OW 4104   1.984   0.643   0.563
 1365SOL    HW1 4105   1.939   0.555   0.580
 1365SOL    HW2 4106   1.983   0.697   0.647
 1366SOL     OW 4107   3.704   1.767   0.359
 1366SOL    HW1 4108   3.758   1.738   0.439
 1366SOL    HW2 4109   3.734   1.857   0.330
 1367SOL     OW 4110   3.551   0.922   0.612
 1367SOL    HW1 4111   3.646   0.893   0.620
 1367SOL    HW2 4112   3.543   0.987   0.537
 1368SOL     OW 4113   3.503   1.108   0.432
 1368SOL    HW1 4114   3.589   1.110   0.380
 1368SOL    HW2 4115   3.517   1.155   0.520
 1369SOL     OW 4116   1.975   0.737   1.597
 1369SOL    HW1 4117   2.063   0.724   1.642
 1369SOL    HW2 4118   1.962   0.834   1.575
 1370SOL     OW 4119   2.475   1.365   0.726
 1370SOL    HW1 4120   2.426   1.278   0.735
 1370SOL    HW2 4121   2.452   1.408   0.639
 1371SOL     OW 4122   3.155   1.228   1.423
 1371SOL    HW1 4123   3.192   1.155   1.365
 1371SOL    HW2 4124   3.207   1.233   1.508
 1372SOL     OW 4125   2.671   0.004   0.502
 1372SOL    HW1 4126   2.711   0.095   0.493
 1372SOL    HW2 4127   2.571   0.012   0.508
 1373SOL     OW 4128   2.059   0.976   1.264
 1373SOL    HW1 4129   2.148   0.931   1.250
 1373SOL    HW2 4130   1.986   0.911   1.245
 1374SOL     OW 4131   3.387   0.999   0.190
 1374SOL    HW1 4132   3.324   0.923   0.203
 1374SOL    HW2 4133   3.435   1.017   0.276
 1375SOL     OW 4134   3.049   1.792   1.616
 1375SOL    HW1 4135   3.073   1.852   1.540
 1375SOL    HW2 4136   3.056   1.697   1.586
 1376SOL     OW 4137   2.179   0.251   1.801
 1376SOL    HW1 4138   2.250   0.322   1.807
 1376SOL    HW2 4139   2.091   0.290   1.829
 1377SOL     OW 4140   3.328   1.417   0.953
 1377SOL    HW1 4141   3.269   1.423   1.033
 1377SOL    HW2 4142   3.313   1.329   0.907
 1378SOL     OW 4143   3.529   1.714   0.572
 1378SOL    HW1 4144   3.488   1.691   0.484
 1378SOL    HW2 4145   3.511   1.640   0.637
 1379SOL     OW 4146   2.460   0.729   0.270
 1379SOL    HW1 4147   2.484   0.798   0.202
 1379SOL    HW2 4148   2.382   0.762   0.324
 1380SOL     OW 4149   3.143   0.345   0.944
 1380SOL    HW1 4150   3.057   0.295   0.931
 1380SOL    HW2 4151   3.205   0.291   1.000
 1381SOL     OW 4152   3.438   1.662   0.307
 1381SOL    HW1 4153   3.527   1.708   0.310
 1381SOL    HW2 4154   3.417   1.638   0.212
 1382SOL     OW 4155   2.669   0.605   1.465
 1382SOL    HW1 4156   2.622   0.602   1.554
 1382SOL    HW2 4157   2.618   0.550   1.399
 1383SOL     OW 4158   3.256   0.469   1.674
 1383SOL    HW1 4159   3.236   0.512   1.762
 1383SOL    HW2 4160   3.334   0.407   1.683
 1384SOL     OW 4161   2.835   0.890   1.572
 1384SOL    HW1 4162   2.881   0.806   1.543
 1384SOL    HW2 4163   2.779   0.924   1.497
 1385SOL     OW 4164   2.853   0.410   1.242
 1385SOL    HW1 4165   2.776   0.444   1.296
 1385SOL    HW2 4166   2.819   0.359   1.163
 1386SOL     OW 4167   2.903   0.701   0.429
 1386SOL    HW1 4168   2.929   0.697   0.525
 1386SOL    HW2 4169   2.818   0.650   0.415
 1387SOL     OW 4170   1.938   0.811   0.789
 1387SOL    HW1 4171   2.037   0.799   0.798
 1387SOL    HW2 4172   1.914   0.906   0.810
 1388SOL     OW 4173   1.992   1.821   1.571
 1388SOL    HW1 4174   1.982   1.806   1.670
 1388SOL    HW2 4175   1.906   1.857   1.535
 1389SOL     OW 4176   2.727   0.348   0.195
 1389SOL    HW1 4177   2.786   0.411   0.146
 1389SOL    HW2 4178   2.746   0.254   0.166
 1390SOL     OW 4179   3.581   0.585   1.831
 1390SOL    HW1 4180   3.555   0.674   1.795
 1390SOL    HW2 4181   3.579   0.517   1.758
 1391SOL     OW 4182   3.224   1.144   0.545
 1391SOL    HW1 4183   3.307   1.115   0.497
 1391SOL    HW2 4184   3.175   1.211   0.489
 1392SOL     OW 4185   2.412   0.196   0.885
 1392SOL    HW1 4186   2.407   0.191   0.985
 1392SOL    HW2 4187   2.414   0.292   0.856
 1393SOL     OW 4188   2.870   1.456   0.477
 1393SOL    HW1 4189   2.824   1.528   0.425
 1393SOL    HW2 4190   2.866   1.476   0.575
 1394SOL     OW 4191   2.213   1.801   0.853
 1394SOL    HW1 4192   2.263   1.715   0.859
 1394SOL    HW2 4193   2.278   1.878   0.850
 1395SOL     OW 4194   3.657   1.066   0.873
 1395SOL    HW1 4195   3.595   1.051   0.797
 1395SOL    HW2 4196   3.605   1.077   0.958
 1396SOL     OW 4197   3.089   1.550   1.506
 1396SOL    HW1 4198   3.095   1.473   1.570
 1396SOL    HW2 4199   3.037   1.524   1.426
 1397SOL     OW 4200   2.183   0.943   0.242
 1397SOL    HW1 4201   2.265   0.982   0.200
 1397SOL    HW2 4202   2.156   0.861   0.193
 1398SOL     OW 4203   3.320   0.735   0.728
 1398SOL    HW1 4204   3.315   0.670   0.803
 1398SOL    HW2 4205   3.400   0.794   0.741
 1399SOL     OW 4206   2.323   1.266   1.727
 1399SOL    HW1 4207   2.273   1.267   1.641
 1399SOL    HW2 4208   2.260   1.248   1.803
 1400SOL     OW 4209   2.973   1.776   0.237
 1400SOL    HW1 4210   2.913   1.714   0.287
 1400SOL    HW2 4211   3.004   1.732   0.152
 1401SOL     OW 4212   2.064   0.285   1.498
 1401SOL    HW1 4213   1.984   0.345   1.485
 1401SOL    HW2 4214   2.054   0.236   1.584
 1402SOL     OW 4215   3.494   1.377   0.081
 1402SOL    HW1 4216   3.462   1.471   0.071
 1402SOL    HW2 4217   3.418   1.314   0.069
 1403SOL     OW 4218   2.326   1.743   0.323
 1403SOL    HW1 4219   2.359   1.782   0.409
 1403SOL    HW2 4220   2.402   1.736   0.258
 1404SOL     OW 4221   3.262   0.107   0.426
 1404SOL    HW1 4222   3.238   0.070   0.336
 1404SOL    HW2 4223   3.361   0.123   0.430
 1405SOL     OW 4224   2.111   1.785   1.241
 1405SOL    HW1 4225   2.168   1.720   1.291
 1405SOL    HW2 4226   2.095   1.752   1.148
 1406SOL     OW 4227   2.802   1.698   0.904
 1406SOL    HW1 4228   2.882   1.641   0.925
 1406SOL    HW2 4229   2.753   1.658   0.827
 1407SOL     OW 4230   2.244   0.700   0.480
 1407SOL    HW1 4231   2.289   0.610   0.477
 1407SOL    HW2 4232   2.150   0.689   0.513
 1408SOL     OW 4233   3.409   0.222   1.729
 1408SOL    HW1 4234   3.404   0.259   1.821
 1408SOL    HW2 4235   3.337   0.153   1.717
 1409SOL     OW 4236   2.476   0.122   0.117
 1409SOL    HW1 4237   2.574   0.100   0.124
 1409SOL    HW2 4238   2.445   0.105   0.024
 1410SOL     OW 4239   2.643   0.264   1.749
 1410SOL    HW1 4240   2.710   0.203   1.792
 1410SOL    HW2 4241   2.570   0.283   1.814
 1411SOL     OW 4242   2.750   1.514   1.195
 1411SOL    HW1 4243   2.727   1.489   1.101
 1411SOL    HW2 4244   2.811   1.445   1.234
 1412SOL     OW 4245   3.213   0.590   1.433
 1412SOL    HW1 4246   3.241   0.547   1.518
 1412SOL    HW2 4247   3.238   0.686   1.434
 1413SOL     OW 4248   2.665   1.402   0.924
 1413SOL    HW1 4249   2.755   1.416   0.882
 1413SOL    HW2 4250   2.594   1.404   0.853
 1414SOL     OW 4251   2.784   0.503   0.899
 1414SOL    HW1 4252   2.759   0.494   0.803
 1414SOL    HW2 4253   2.832   0.421   0.930
 1415SOL     OW 4254   2.401   0.064   0.512
 1415SOL    HW1 4255   2.320   0.065   0.570
 1415SOL    HW2 4256   2.404   0.147   0.457
 1416SOL     OW 4257   3.296   1.188   0.041
 1416SOL    HW1 4258   3.328   1.112   0.098
 1416SOL    HW2 4259   3.204   1.215   0.071
 1417SOL     OW 4260   2.159   0.035   0.171
 1417SOL    HW1 4261   2.208   0.119   0.150
 1417SOL    HW2 4262   2.221  -0.030   0.216
 1418SOL     OW 4263   2.797   0.236   0.480
 1418SOL    HW1 4264   2.749   0.277   0.402
 1418SOL    HW2 4265   2.896   0.234   0.461
 1419SOL     OW 4266   2.938   0.683   1.464
 1419SOL    HW1 4267   2.858   0.622   1.467
 1419SOL    HW2 4268   3.019   0.630   1.440
 1420SOL     OW 4269   3.089   1.570   0.793
 1420SOL    HW1 4270   3.110   1.644   0.728
 1420SOL    HW2 4271   3.157   1.570   0.866
 1421SOL     OW 4272   2.321   1.152   0.741
 1421SOL    HW1 4273   2.250   1.125   0.806
 1421SOL    HW2 4274   2.295   1.124   0.648
 1422SOL     OW 4275   3.133   1.797   0.591
 1422SOL    HW1 4276   3.177   1.861   0.527
 1422SOL    HW2 4277   3.083   1.849   0.661
 1423SOL     OW 4278   2.894   0.549   0.016
 1423SOL    HW1 4279   2.853   0.631  -0.023
 1423SOL    HW2 4280   2.958   0.575   0.089
 1424SOL     OW 4281   1.940   0.556   1.386
 1424SOL    HW1 4282   2.032   0.555   1.345
 1424SOL    HW2 4283   1.934   0.630   1.453
 1425SOL     OW 4284   2.423   0.222   1.147
 1425SOL    HW1 4285   2.461   0.138   1.184
 1425SOL    HW2 4286   2.335   0.241   1.191
 1426SOL     OW 4287   2.728   0.454   0.642
 1426SOL    HW1 4288   2.696   0.526   0.580
 1426SOL    HW2 4289   2.752   0.373   0.589
 1427SOL     OW 4290   2.879   0.039   0.753
 1427SOL    HW1 4291   2.807   0.044   0.684
 1427SOL    HW2 4292   2.855  -0.030   0.822
 1428SOL     OW 4293   3.291   1.173   0.867
 1428SOL    HW1 4294   3.236   1.089   0.860
 1428SOL    HW2 4295   3.317   1.202   0.775
 1429SOL     OW 4296   3.328   0.590   0.992
 1429SOL    HW1 4297   3.298   0.495   0.999
 1429SOL    HW2 4298   3.401   0.606   1.058
 1430SOL     OW 4299   3.719   0.833   0.377
 1430SOL    HW1 4300   3.761   0.769   0.441
 1430SOL    HW2 4301   3.681   0.782   0.299
 1431SOL     OW 4302   2.350   1.385   0.174
 1431SOL    HW1 4303   2.263   1.370   0.221
 1431SOL    HW2 4304   2.333   1.411   0.079
 1432SOL     OW 4305   3.526   1.280   0.657
 1432SOL    HW1 4306   3.625   1.288   0.671
 1432SOL    HW2 4307   3.481   1.364   0.688
 1433SOL     OW 4308   3.252   0.575   0.078
 1433SOL    HW1 4309   3.198   0.554   0.159
 1433SOL    HW2 4310   3.343   0.534   0.087
 1434SOL     OW 4311   2.389   0.256   0.328
 1434SOL    HW1 4312   2.416   0.197   0.253
 1434SOL    HW2 4313   2.389   0.351   0.297
 1435SOL     OW 4314   3.616   1.223   1.588
 1435SOL    HW1 4315   3.707   1.184   1.575
 1435SOL    HW2 4316   3.624   1.319   1.612
 1436SOL     OW 4317   2.926   1.347   1.340
 1436SOL    HW1 4318   2.846   1.324   1.395
 1436SOL    HW2 4319   3.009   1.321   1.389
 1437SOL     OW 4320   3.454   1.629   1.625
 1437SOL    HW1 4321   3.481   1.663   1.535
 1437SOL    HW2 4322   3.533   1.591   1.671
 1438SOL     OW 4323   2.973   1.195   1.100
 1438SOL    HW1 4324   2.933   1.239   1.181
 1438SOL    HW2 4325   2.932   1.232   1.017
 1439SOL     OW 4326   3.500   1.099   1.079
 1439SOL    HW1 4327   3.505   1.180   1.138
 1439SOL    HW2 4328   3.414   1.101   1.028
 1440SOL     OW 4329   2.777   0.089   1.402
 1440SOL    HW1 4330   2.802   0.069   1.307
 1440SOL    HW2 4331   2.849   0.145   1.444
 1441SOL     OW 4332   2.842   1.116   1.719
 1441SOL    HW1 4333   2.743   1.122   1.729
 1441SOL    HW2 4334   2.865   1.036   1.663
 1442SOL     OW 4335   2.567   1.050   0.368
 1442SOL    HW1 4336   2.553   1.057   0.467
 1442SOL    HW2 4337   2.651   0.999   0.350
 1443SOL     OW 4338   2.272   0.813   1.251
 1443SOL    HW1 4339   2.358   0.825   1.301
 1443SOL    HW2 4340   2.230   0.726   1.278
 1444SOL     OW 4341   3.136   0.386   1.262
 1444SOL    HW1 4342   3.157   0.460   1.326
 1444SOL    HW2 4343   3.047   0.403   1.219
 1445SOL     OW 4344   1.926   1.564   1.331
 1445SOL    HW1 4345   1.880   1.646   1.297
 1445SOL    HW2 4346   2.024   1.583   1.340
 1446SOL     OW 4347   2.229   1.100   0.501
 1446SOL    HW1 4348   2.222   1.183   0.445
 1446SOL    HW2 4349   2.233   1.020   0.441
 1447SOL     OW 4350   2.428   0.537   0.865
 1447SOL    HW1 4351   2.440   0.603   0.791
 1447SOL    HW2 4352   2.474   0.571   0.948
 1448SOL     OW 4353   3.114   1.348   0.388
 1448SOL    HW1 4354   3.164   1.425   0.428
 1448SOL    HW2 4355   3.019   1.350   0.420
 1449SOL     OW 4356   3.134   1.445   1.142
 1449SOL    HW1 4357   3.181   1.458   1.229
 1449SOL    HW2 4358   3.068   1.371   1.151
 1450SOL     OW 4359   3.444   0.639   0.472
 1450SOL    HW1 4360   3.413   0.700   0.545
 1450SOL    HW2 4361   3.494   0.691   0.403
 1451SOL     OW 4362   2.216   1.510   1.329
 1451SOL    HW1 4363   2.195   1.466   1.242
 1451SOL    HW2 4364   2.313   1.536   1.332
 1452SOL     OW 4365   2.264   0.751   1.598
 1452SOL    HW1 4366   2.332   0.806   1.551
 1452SOL    HW2 4367   2.304   0.663   1.625
 1453SOL     OW 4368   3.449   0.779   1.670
 1453SOL    HW1 4369   3.357   0.817   1.665
 1453SOL    HW2 4370   3.509   0.826   1.605
 1454SOL     OW 4371   2.875   0.105   1.770
 1454SOL    HW1 4372   2.881   0.190   1.718
 1454SOL    HW2 4373   2.907   0.029   1.713
 1455SOL     OW 4374   2.366   0.050   1.740
 1455SOL    HW1 4375   2.324  -0.007   1.670
 1455SOL    HW2 4376   2.300   0.119   1.772
 1456SOL     OW 4377   2.435   0.870   1.029
 1456SOL    HW1 4378   2.479   0.959   1.020
 1456SOL    HW2 4379   2.372   0.870   1.106
 1457SOL     OW 4380   3.222   0.862   1.045
 1457SOL    HW1 4381   3.147   0.862   0.979
 1457SOL    HW2 4382   3.259   0.770   1.054
 1458SOL     OW 4383   3.071   0.525   0.275
 1458SOL    HW1 4384   3.084   0.441   0.329
 1458SOL    HW2 4385   3.042   0.599   0.335
 1459SOL     OW 4386   2.169   0.213   1.231
 1459SOL    HW1 4387   2.146   0.250   1.321
 1459SOL    HW2 4388   2.139   0.118   1.225
 1460SOL     OW 4389   1.899   1.310   1.282
 1460SOL    HW1 4390   1.952   1.261   1.350
 1460SOL    HW2 4391   1.921   1.408   1.287
 1461SOL     OW 4392   2.594   0.634   1.064
 1461SOL    HW1 4393   2.653   0.608   0.988
 1461SOL    HW2 4394   2.566   0.730   1.053
 1462SOL     OW 4395   3.590   0.935   1.854
 1462SOL    HW1 4396   3.544   0.928   1.765
 1462SOL    HW2 4397   3.528   0.979   1.920
 1463SOL     OW 4398   2.169   0.063   0.618
 1463SOL    HW1 4399   2.158   0.157   0.651
 1463SOL    HW2 4400   2.164   0.000   0.695
 1464SOL     OW 4401   3.484   0.367   0.374
 1464SOL    HW1 4402   3.486   0.291   0.438
 1464SOL    HW2 4403   3.436   0.444   0.414
 1465SOL     OW 4404   2.885   0.766   0.966
 1465SOL    HW1 4405   2.900   0.787   1.062
 1465SOL    HW2 4406   2.855   0.671   0.957
 1466SOL     OW 4407   2.842   1.573   1.700
 1466SOL    HW1 4408   2.822   1.617   1.612
 1466SOL    HW2 4409   2.881   1.482   1.684
 1467SOL     OW 4410   3.721   1.518   1.605
 1467SOL    HW1 4411   3.735   1.545   1.510
 1467SOL    HW2 4412   3.804   1.540   1.658
 1468SOL     OW 4413   2.212   0.898   1.804
 1468SOL    HW1 4414   2.288   0.942   1.852
 1468SOL    HW2 4415   2.247   0.851   1.722
 1469SOL     OW 4416   3.402   0.274   0.125
 1469SOL    HW1 4417   3.341   0.199   0.148
 1469SOL    HW2 4418   3.424   0.326   0.208
 1470SOL     OW 4419   3.165   0.838   0.042
 1470SOL    HW1 4420   3.199   0.745   0.057
 1470SOL    HW2 4421   3.183   0.865  -0.053
 1471SOL     OW 4422   2.930   1.333   0.849
 1471SOL    HW1 4423   2.937   1.249   0.794
 1471SOL    HW2 4424   2.992   1.402   0.813
 1472SOL     OW 4425   2.181   0.810   0.949
 1472SOL    HW1 4426   2.274   0.846   0.954
 1472SOL    HW2 4427   2.175   0.725   1.001
 1473SOL     OW 4428   2.201   0.509   1.006
 1473SOL    HW1 4429   2.149   0.426   0.989
 1473SOL    HW2 4430   2.278   0.514   0.942
 1474SOL     OW 4431   3.000   0.380   1.678
 1474SOL    HW1 4432   2.955   0.443   1.742
 1474SOL    HW2 4433   3.093   0.411   1.661
 1475SOL     OW 4434   3.022   0.207   1.477
 1475SOL    HW1 4435   3.022   0.271   1.554
 1475SOL    HW2 4436   3.050   0.255   1.394
 1476SOL     OW 4437   1.870   1.326   0.200
 1476SOL    HW1 4438   1.777   1.347   0.169
 1476SOL    HW2 4439   1.880   1.227   0.213
 1477SOL     OW 4440   1.950   1.801   0.927
 1477SOL    HW1 4441   1.908   1.715   0.900
 1477SOL    HW2 4442   2.044   1.804   0.893
 1478SOL     OW 4443   2.366   1.568   0.910
 1478SOL    HW1 4444   2.432   1.642   0.919
 1478SOL    HW2 4445   2.410   1.489   0.868
 1479SOL     OW 4446   2.864   0.796   1.238
 1479SOL    HW1 4447   2.905   0.764   1.324
 1479SOL    HW2 4448   2.768   0.769   1.235
 1480SOL     OW 4449   1.902   0.544   1.114
 1480SOL    HW1 4450   1.987   0.511   1.073
 1480SOL    HW2 4451   1.915   0.559   1.212
 1481SOL     OW 4452   2.051   0.520   1.722
 1481SOL    HW1 4453   2.110   0.480   1.652
 1481SOL    HW2 4454   1.993   0.591   1.681
 1482SOL     OW 4455   3.231   0.950   1.660
 1482SOL    HW1 4456   3.270   1.039   1.680
 1482SOL    HW2 4457   3.241   0.930   1.563
 1483SOL     OW 4458   2.677   0.572   0.325
 1483SOL    HW1 4459   2.684   0.483   0.279
 1483SOL    HW2 4460   2.583   0.606   0.317
 1484SOL     OW 4461   3.519   0.604   1.206
 1484SOL    HW1 4462   3.481   0.535   1.268
 1484SOL    HW2 4463   3.601   0.568   1.162
 1485SOL     OW 4464   2.114   1.564   1.744
 1485SOL    HW1 4465   2.084   1.621   1.820
 1485SOL    HW2 4466   2.107   1.467   1.770
 1486SOL     OW 4467   2.533   0.464   1.269
 1486SOL    HW1 4468   2.499   0.375   1.239
 1486SOL    HW2 4469   2.559   0.518   1.189
 1487SOL     OW 4470   2.792   1.678   1.465
 1487SOL    HW1 4471   2.768   1.660   1.370
 1487SOL    HW2 4472   2.822   1.772   1.475
 1488SOL     OW 4473   2.335   0.500   0.191
 1488SOL    HW1 4474   2.396   0.580   0.195
 1488SOL    HW2 4475   2.240   0.531   0.198
 1489SOL     OW 4476   2.021   1.137   1.466
 1489SOL    HW1 4477   2.043   1.076   1.542
 1489SOL    HW2 4478   2.031   1.088   1.380
 1490SOL     OW 4479   3.209   1.059   1.234
 1490SOL    HW1 4480   3.233   0.996   1.160
 1490SOL    HW2 4481   3.119   1.099   1.216
 1491SOL     OW 4482   3.164   0.855   0.309
 1491SOL    HW1 4483   3.078   0.824   0.351
 1491SOL    HW2 4484   3.160   0.841   0.210
 1492SOL     OW 4485   3.621   1.747   1.154
 1492SOL    HW1 4486   3.682   1.777   1.081
 1492SOL    HW2 4487   3.583   1.658   1.132
 1493SOL     OW 4488   3.114   1.731   1.128
 1493SOL    HW1 4489   3.198   1.736   1.074
 1493SOL    HW2 4490   3.091   1.635   1.146
 1494SOL     OW 4491   1.945   1.258   1.022
 1494SOL    HW1 4492   1.940   1.257   1.122
 1494SOL    HW2 4493   1.862   1.217   0.984
 1495SOL     OW 4494   2.550   1.662   1.716
 1495SOL    HW1 4495   2.494   1.743   1.725
 1495SOL    HW2 4496   2.602   1.666   1.630
 1496SOL     OW 4497   2.765   0.086   0.133
 1496SOL    HW1 4498   2.816   0.087   0.047
 1496SOL    HW2 4499   2.821   0.044   0.204
 1497SOL     OW 4500   3.588   0.135   0.523
 1497SOL    HW1 4501   3.661   0.118   0.456
 1497SOL    HW2 4502   3.557   0.048   0.561
 1498SOL     OW 4503   3.250   1.573   0.477
 1498SOL    HW1 4504   3.317   1.585   0.403
 1498SOL    HW2 4505   3.210   1.662   0.500
 1499SOL     OW 4506   1.992   1.794   1.851
 1499SOL    HW1 4507   1.951   1.720   1.904
 1499SOL    HW2 4508   2.056   1.845   1.909
 1500SOL     OW 4509   3.142   0.927   0.672
 1500SOL    HW1 4510   3.202   0.846   0.674
 1500SOL    HW2 4511   3.182   0.996   0.612
 1501SOL     OW 4512   2.692   1.273   1.422
 1501SOL    HW1 4513   2.687   1.306   1.517
 1501SOL    HW2 4514   2.606   1.292   1.376
 1502SOL     OW 4515   2.534   1.616   0.154
 1502SOL    HW1 4516   2.543   1.626   0.055
 1502SOL    HW2 4517   2.494   1.527   0.175
 1503SOL     OW 4518   3.512   1.720   1.394
 1503SOL    HW1 4519   3.565   1.730   1.310
 1503SOL    HW2 4520   3.485   1.810   1.428
 1504SOL     OW 4521   3.703   0.175   0.963
 1504SOL    HW1 4522   3.742   0.090   0.927
 1504SOL    HW2 4523   3.605   0.177   0.944
 1505SOL     OW 4524   2.125   0.326   0.720
 1505SOL    HW1 4525   2.046   0.377   0.686
 1505SOL    HW2 4526   2.116   0.311   0.818
 1506SOL     OW 4527   3.056   1.612   0.031
 1506SOL    HW1 4528   3.062   1.519   0.068
 1506SOL    HW2 4529   2.997   1.612  -0.049
 1507SOL     OW 4530   2.684   1.002   1.372
 1507SOL    HW1 4531   2.724   1.001   1.280
 1507SOL    HW2 4532   2.694   1.094   1.412
 1508SOL     OW 4533   2.778   0.910   0.291
 1508SOL    HW1 4534   2.841   0.948   0.223
 1508SOL    HW2 4535   2.818   0.827   0.330
 1509SOL     OW 4536   3.366   1.607   0.044
 1509SOL    HW1 4537   3.274   1.644   0.051
 1509SOL    HW2 4538   3.404   1.627  -0.046
 1510SOL     OW 4539   2.234   1.288   1.490
 1510SOL    HW1 4540   2.221   1.381   1.456
 1510SOL    HW2 4541   2.150   1.236   1.477
 1511SOL     OW 4542   3.476   1.292   1.289
 1511SOL    HW1 4543   3.536   1.295   1.369
 1511SOL    HW2 4544   3.401   1.356   1.302
 1512SOL     OW 4545   2.901   1.098   0.696
 1512SOL    HW1 4546   2.831   1.051   0.750
 1512SOL    HW2 4547   2.960   1.030   0.653
 1513SOL     OW 4548   2.876   0.236   0.971
 1513SOL    HW1 4549   2.868   0.200   0.878
 1513SOL    HW2 4550   2.874   0.160   1.036
 1514SOL     OW 4551   2.452   1.487   0.491
 1514SOL    HW1 4552   2.494   1.429   0.421
 1514SOL    HW2 4553   2.408   1.566   0.447
 1515SOL     OW 4554   3.571   0.385   1.381
 1515SOL    HW1 4555   3.644   0.454   1.385
 1515SOL    HW2 4556   3.599   0.310   1.322
 1516SOL     OW 4557   2.117   1.348   0.290
 1516SOL    HW1 4558   2.021   1.349   0.263
 1516SOL    HW2 4559   2.129   1.401   0.374
 1517SOL     OW 4560   1.967   1.013   1.726
 1517SOL    HW1 4561   1.890   0.980   1.780
 1517SOL    HW2 4562   2.052   0.983   1.768
 1518SOL     OW 4563   2.534   0.203   1.489
 1518SOL    HW1 4564   2.624   0.187   1.449
 1518SOL    HW2 4565   2.542   0.208   1.588
 1519SOL     OW 4566   3.302   0.856   1.398
 1519SOL    HW1 4567   3.245   0.908   1.335
 1519SOL    HW2 4568   3.398   0.868   1.374
 1520SOL     OW 4569   3.045   1.335   0.119
 1520SOL    HW1 4570   2.946   1.324   0.121
 1520SOL    HW2 4571   3.079   1.350   0.212
 1521SOL     OW 4572   2.475   0.842   1.431
 1521SOL    HW1 4573   2.531   0.923   1.414
 1521SOL    HW2 4574   2.534   0.762   1.434
 1522SOL     OW 4575   3.355   1.767   0.959
 1522SOL    HW1 4576   3.388   1.831   0.890
 1522SOL    HW2 4577   3.421   1.761   1.034
 1523SOL     OW 4578   2.578   0.565   1.708
 1523SOL    HW1 4579   2.597   0.630   1.782
 1523SOL    HW2 4580   2.638   0.485   1.717
 1524SOL     OW 4581   3.312   1.220   1.633
 1524SOL    HW1 4582   3.303   1.210   1.732
 1524SOL    HW2 4583   3.408   1.213   1.607
 1525SOL     OW 4584   2.252   1.741   1.560
 1525SOL    HW1 4585   2.161   1.782   1.558
 1525SOL    HW2 4586   2.245   1.647   1.592
 1526SOL     OW 4587   3.536   0.883   1.254
 1526SOL    HW1 4588   3.509   0.794   1.217
 1526SOL    HW2 4589   3.537   0.951   1.181
 1527SOL     OW 4590   3.087   0.325   0.449
 1527SOL    HW1 4591   3.152   0.251   0.438
 1527SOL    HW2 4592   3.107   0.375   0.533
 1528SOL     OW 4593   2.456   0.745   0.652
 1528SOL    HW1 4594   2.506   0.830   0.633
 1528SOL    HW2 4595   2.368   0.747   0.604
 1529SOL     OW 4596   3.639   0.342   1.642
 1529SOL    HW1 4597   3.622   0.373   1.548
 1529SOL    HW2 4598   3.555   0.305   1.680
 1530SOL     OW 4599   3.592   0.934   1.517
 1530SOL    HW1 4600   3.630   1.025   1.532
 1530SOL    HW2 4601   3.584   0.917   1.418
 1531SOL     OW 4602   2.721   1.374   0.016
 1531SOL    HW1 4603   2.675   1.389   0.104
 1531SOL    HW2 4604   2.765   1.459  -0.014
 1532SOL     OW 4605   2.523   1.790   0.953
 1532SOL    HW1 4606   2.477   1.878   0.940
 1532SOL    HW2 4607   2.622   1.802   0.946
 1533SOL     OW 4608   2.721   0.956   0.861
 1533SOL    HW1 4609   2.775   0.887   0.909
 1533SOL    HW2 4610   2.689   1.025   0.927
 1534SOL     OW 4611   2.945   0.984   0.087
 1534SOL    HW1 4612   2.922   1.037   0.005
 1534SOL    HW2 4613   3.026   0.928   0.068
 1535SOL     OW 4614   3.723   1.569   0.851
 1535SOL    HW1 4615   3.652   1.557   0.781
 1535SOL    HW2 4616   3.724   1.490   0.911
 1536SOL     OW 4617   2.083   1.314   1.844
 1536SOL    HW1 4618   2.018   1.241   1.823
 1536SOL    HW2 4619   2.087   1.328   1.942
 1537SOL     OW 4620   1.941   1.240   0.653
 1537SOL    HW1 4621   1.940   1.193   0.741
 1537SOL    HW2 4622   2.023   1.212   0.602
 1538SOL     OW 4623   2.534   1.391   1.624
 1538SOL    HW1 4624   2.456   1.341   1.662
 1538SOL    HW2 4625   2.531   1.486   1.655
 1539SOL     OW 4626   3.686   0.192   1.227
 1539SOL    HW1 4627   3.682   0.102   1.271
 1539SOL    HW2 4628   3.689   0.181   1.128
 1540SOL     OW 4629   2.290   0.424   0.520
 1540SOL    HW1 4630   2.320   0.352   0.458
 1540SOL    HW2 4631   2.251   0.384   0.603
 1541SOL     OW 4632   3.567   1.487   1.104
 1541SOL    HW1 4633   3.474   1.462   1.077
 1541SOL    HW2 4634   3.593   1.437   1.186
 1542SOL     OW 4635   2.179   0.547   1.280
 1542SOL    HW1 4636   2.217   0.488   1.352
 1542SOL    HW2 4637   2.219   0.521   1.192
 1543SOL     OW 4638   2.674   1.586   0.687
 1543SOL    HW1 4639   2.706   1.596   0.593
 1543SOL    HW2 4640   2.595   1.524   0.689
 1544SOL     OW 4641   3.286   0.214   1.112
 1544SOL    HW1 4642   3.338   0.149   1.167
 1544SOL    HW2 4643   3.237   0.277   1.173
 1545SOL     OW 4644   2.863   0.034   1.154
 1545SOL    HW1 4645   2.800  -0.038   1.123
 1545SOL    HW2 4646   2.956  -0.002   1.154
 1546SOL     OW 4647   2.632   1.330   0.301
 1546SOL    HW1 4648   2.586   1.243   0.318
 1546SOL    HW2 4649   2.723   1.327   0.342
 1547SOL     OW 4650   2.480   1.567   1.284
 1547SOL    HW1 4651   2.475   1.649   1.341
 1547SOL    HW2 4652   2.569   1.564   1.239
 1548SOL     OW 4653   3.214   0.052   0.168
 1548SOL    HW1 4654   3.249   0.011   0.084
 1548SOL    HW2 4655   3.124   0.014   0.188
 1549SOL     OW 4656   3.162   0.453   0.691
 1549SOL    HW1 4657   3.103   0.533   0.695
 1549SOL    HW2 4658   3.177   0.418   0.784
 1550SOL     OW 4659   3.455   0.221   0.882
 1550SOL    HW1 4660   3.371   0.220   0.936
 1550SOL    HW2 4661   3.457   0.304   0.826
 1551SOL     OW 4662   1.901   1.077   0.300
 1551SOL    HW1 4663   2.000   1.066   0.291
 1551SOL    HW2 4664   1.861   0.991   0.332
 1552SOL     OW 4665   2.737   1.646   0.337
 1552SOL    HW1 4666   2.660   1.611   0.283
 1552SOL    HW2 4667   2.705   1.717   0.399
 1553SOL     OW 4668   2.092   0.628   1.975
 1553SOL    HW1 4669   1.999   0.626   2.012
 1553SOL    HW2 4670   2.093   0.589   1.883
 1554SOL     OW 4671   2.087   0.275   2.858
 1554SOL    HW1 4672   2.122   0.258   2.950
 1554SOL    HW2 4673   1.999   0.230   2.846
 1555SOL     OW 4674   1.881   0.368   2.509
 1555SOL    HW1 4675   1.799   0.411   2.548
 1555SOL    HW2 4676   1.853   0.295   2.446
 1556SOL     OW 4677   2.431   1.275   3.027
 1556SOL    HW1 4678   2.338   1.268   2.990
 1556SOL    HW2 4679   2.442   1.364   3.071
 1557SOL     OW 4680   3.417   1.511   2.565
 1557SOL    HW1 4681   3.360   1.495   2.646
 1557SOL    HW2 4682   3.358   1.521   2.485
 1558SOL     OW 4683   2.997   0.703   2.579
 1558SOL    HW1 4684   3.054   0.781   2.554
 1558SOL    HW2 4685   2.937   0.729   2.655
 1559SOL     OW 4686   3.617   0.607   2.093
 1559SOL    HW1 4687   3.605   0.594   1.994
 1559SOL    HW2 4688   3.587   0.526   2.142
 1560SOL     OW 4689   2.630   1.144   2.885
 1560SOL    HW1 4690   2.552   1.161   2.945
 1560SOL    HW2 4691   2.664   1.231   2.849
 1561SOL     OW 4692   2.712   0.798   3.685
 1561SOL    HW1 4693   2.708   0.874   3.750
 1561SOL    HW2 4694   2.734   0.834   3.594
 1562SOL     OW 4695   2.547   1.012   2.527
 1562SOL    HW1 4696   2.616   0.996   2.597
 1562SOL    HW2 4697   2.474   1.069   2.565
 1563SOL     OW 4698   2.548   1.161   3.665
 1563SOL    HW1 4699   2.608   1.240   3.679
 1563SOL    HW2 4700   2.462   1.192   3.624
 1564SOL     OW 4701   2.197   1.435   2.923
 1564SOL    HW1 4702   2.119   1.404   2.870
 1564SOL    HW2 4703   2.255   1.493   2.866
 1565SOL     OW 4704   3.322   1.505   3.201
 1565SOL    HW1 4705   3.346   1.599   3.227
 1565SOL    HW2 4706   3.306   1.451   3.283
 1566SOL     OW 4707   2.300   0.392   3.361
 1566SOL    HW1 4708   2.382   0.336   3.370
 1566SOL    HW2 4709   2.219   0.334   3.365
 1567SOL     OW 4710   3.465   0.447   2.599
 1567SOL    HW1 4711   3.391   0.493   2.549
 1567SOL    HW2 4712   3.516   0.515   2.652
 1568SOL     OW 4713   2.093   1.713   2.345
 1568SOL    HW1 4714   2.127   1.790   2.399
 1568SOL    HW2 4715   2.137   1.713   2.255
 1569SOL     OW 4716   2.989   1.341   3.552
 1569SOL    HW1 4717   3.036   1.341   3.640
 1569SOL    HW2 4718   2.941   1.254   3.541
 1570SOL     OW 4719   2.092   1.434   2.400
 1570SOL    HW1 4720   2.066   1.530   2.400
 1570SOL    HW2 4721   2.021   1.380   2.445
 1571SOL     OW 4722   2.102   1.091   2.748
 1571SOL    HW1 4723   2.116   1.007   2.800
 1571SOL    HW2 4724   2.047   1.155   2.803
 1572SOL     OW 4725   2.482   1.786   3.301
 1572SOL    HW1 4726   2.390   1.769   3.336
 1572SOL    HW2 4727   2.510   1.878   3.327
 1573SOL     OW 4728   2.468   0.964   1.985
 1573SOL    HW1 4729   2.475   1.048   1.931
 1573SOL    HW2 4730   2.514   0.977   2.073
 1574SOL     OW 4731   3.456   0.114   3.342
 1574SOL    HW1 4732   3.438   0.181   3.270
 1574SOL    HW2 4733   3.453   0.160   3.431
 1575SOL     OW 4734   1.984   0.643   2.425
 1575SOL    HW1 4735   1.939   0.555   2.442
 1575SOL    HW2 4736   1.983   0.697   2.509
 1576SOL     OW 4737   3.704   1.767   2.221
 1576SOL    HW1 4738   3.758   1.738   2.301
 1576SOL    HW2 4739   3.734   1.857   2.192
 1577SOL     OW 4740   1.889   1.596   1.979
 1577SOL    HW1 4741   1.870   1.500   2.000
 1577SOL    HW2 4742   1.856   1.654   2.054
 1578SOL     OW 4743   3.551   0.922   2.474
 1578SOL    HW1 4744   3.646   0.893   2.482
 1578SOL    HW2 4745   3.543   0.987   2.399
 1579SOL     OW 4746   3.503   1.108   2.294
 1579SOL    HW1 4747   3.589   1.110   2.242
 1579SOL    HW2 4748   3.517   1.155   2.382
 1580SOL     OW 4749   1.975   0.737   3.459
 1580SOL    HW1 4750   2.063   0.724   3.504
 1580SOL    HW2 4751   1.962   0.834   3.437
 1581SOL     OW 4752   2.475   1.365   2.588
 1581SOL    HW1 4753   2.426   1.278   2.597
 1581SOL    HW2 4754   2.452   1.408   2.501
 1582SOL     OW 4755   3.155   1.228   3.285
 1582SOL    HW1 4756   3.192   1.155   3.227
 1582SOL    HW2 4757   3.207   1.233   3.370
 1583SOL     OW 4758   2.671   0.004   2.364
 1583SOL    HW1 4759   2.711   0.095   2.355
 1583SOL    HW2 4760   2.571   0.012   2.370
 1584SOL     OW 4761   2.059   0.976   3.126
 1584SOL    HW1 4762   2.148   0.931   3.112
 1584SOL    HW2 4763   1.986   0.911   3.107
 1585SOL     OW 4764   3.387   0.999   2.052
 1585SOL    HW1 4765   3.324   0.923   2.065
 1585SOL    HW2 4766   3.435   1.017   2.138
 1586SOL     OW 4767   3.049   1.792   3.478
 1586SOL    HW1 4768   3.073   1.852   3.402
 1586SOL    HW2 4769   3.056   1.697   3.448
 1587SOL     OW 4770   2.179   0.251   3.663
 1587SOL    HW1 4771   2.250   0.322   3.669
 1587SOL    HW2 4772   2.091   0.290   3.691
 1588SOL     OW 4773   3.328   1.417   2.815
 1588SOL    HW1 4774   3.269   1.423   2.895
 1588SOL    HW2 4775   3.313   1.329   2.769
 1589SOL     OW 4776   3.529   1.714   2.434
 1589SOL    HW1 4777   3.488   1.691   2.346
 1589SOL    HW2 4778   3.511   1.640   2.499
 1590SOL     OW 4779   2.460   0.729   2.132
 1590SOL    HW1 4780   2.484   0.798   2.064
 1590SOL    HW2 4781   2.382   0.762   2.186
 1591SOL     OW 4782   3.143   0.345   2.806
 1591SOL    HW1 4783   3.057   0.295   2.793
 1591SOL    HW2 4784   3.205   0.291   2.862
 1592SOL     OW 4785   3.438   1.662   2.169
 1592SOL    HW1 4786   3.527   1.708   2.172
 1592SOL    HW2 4787   3.417   1.638   2.074
 1593SOL     OW 4788   2.669   0.605   3.327
 1593SOL    HW1 4789   2.622   0.602   3.416
 1593SOL    HW2 4790   2.618   0.550   3.261
 1594SOL     OW 4791   3.256   0.469   3.536
 1594SOL    HW1 4792   3.236   0.512   3.624
 1594SOL    HW2 4793   3.334   0.407   3.545
 1595SOL     OW 4794   2.835   0.890   3.434
 1595SOL    HW1 4795   2.881   0.806   3.405
 1595SOL    HW2 4796   2.779   0.924   3.359
 1596SOL     OW 4797   2.853   0.410   3.104
 1596SOL    HW1 4798   2.776   0.444   3.158
 1596SOL    HW2 4799   2.819   0.359   3.025
 1597SOL     OW 4800   2.903   0.701   2.291
 1597SOL    HW1 4801   2.929   0.697   2.387
 1597SOL    HW2 4802   2.818   0.650   2.277
 1598SOL     OW 4803   1.938   0.811   2.651
 1598SOL    HW1 4804   2.037   0.799   2.660
 1598SOL    HW2 4805   1.914   0.906   2.672
 1599SOL     OW 4806   1.992   1.821   3.433
 1599SOL    HW1 4807   1.982   1.806   3.532
 1599SOL    HW2 4808   1.906   1.857   3.397
 1600SOL     OW 4809   2.727   0.348   2.057
 1600SOL    HW1 4810   2.786   0.411   2.008
 1600SOL    HW2 4811   2.746   0.254   2.028
 1601SOL     OW 4812   3.581   0.585   3.693
 1601SOL    HW1 4813   3.555   0.674   3.657
 1601SOL    HW2 4814   3.579   0.517   3.620
 1602SOL     OW 4815   3.224   1.144   2.407
 1602SOL    HW1 4816   3.307   1.115   2.359
 1602SOL    HW2 4817   3.175   1.211   2.351
 1603SOL     OW 4818   2.412   0.196   2.747
 1603SOL    HW1 4819   2.407   0.191   2.847
 1603SOL    HW2 4820   2.414   0.292   2.718
 1604SOL     OW 4821   2.870   1.456   2.339
 1604SOL    HW1 4822   2.824   1.528   2.287
 1604SOL    HW2 4823   2.866   1.476   2.437
 1605SOL     OW 4824   2.213   1.801   2.715
 1605SOL    HW1 4825   2.263   1.715   2.721
 1605SOL    HW2 4826   2.278   1.878   2.712
 1606SOL     OW 4827   3.657   1.066   2.735
 1606SOL    HW1 4828   3.595   1.051   2.659
 1606SOL    HW2 4829   3.605   1.077   2.820
 1607SOL     OW 4830   3.089   1.550   3.368
 1607SOL    HW1 4831   3.095   1.473   3.432
 1607SOL    HW2 4832   3.037   1.524   3.288
 1608SOL     OW 4833   2.183   0.943   2.104
 1608SOL    HW1 4834   2.265   0.982   2.062
 1608SOL    HW2 4835   2.156   0.861   2.055
 1609SOL     OW 4836   3.320   0.735   2.590
 1609SOL    HW1 4837   3.315   0.670   2.665
 1609SOL    HW2 4838   3.400   0.794   2.603
 1610SOL     OW 4839   2.323   1.266   3.589
 1610SOL    HW1 4840   2.273   1.267   3.503
 1610SOL    HW2 4841   2.260   1.248   3.665
 1611SOL     OW 4842   2.973   1.776   2.099
 1611SOL    HW1 4843   2.913   1.714   2.149
 1611SOL    HW2 4844   3.004   1.732   2.014
 1612SOL     OW 4845   2.064   0.285   3.360
 1612SOL    HW1 4846   1.984   0.345   3.347
 1612SOL    HW2 4847   2.054   0.236   3.446
 1613SOL     OW 4848   3.494   1.377   1.943
 1613SOL    HW1 4849   3.462   1.471   1.933
 1613SOL    HW2 4850   3.418   1.314   1.931
 1614SOL     OW 4851   2.326   1.743   2.185
 1614SOL    HW1 4852   2.359   1.782   2.271
 1614SOL    HW2 4853   2.402   1.736   2.120
 1615SOL     OW 4854   3.262   0.107   2.288
 1615SOL    HW1 4855   3.238   0.070   2.198
 1615SOL    HW2 4856   3.361   0.123   2.292
 1616SOL     OW 4857   2.111   1.785   3.103
 1616SOL    HW1 4858   2.168   1.720   3.153
 1616SOL    HW2 4859   2.095   1.752   3.010
 1617SOL     OW 4860   2.802   1.698   2.766
 1617SOL    HW1 4861   2.882   1.641   2.787
 1617SOL    HW2 4862   2.753   1.658   2.689
 1618SOL     OW 4863   2.244   0.700   2.342
 1618SOL    HW1 4864   2.289   0.610   2.339
 1618SOL    HW2 4865   2.150   0.689   2.375
 1619SOL     OW 4866   3.409   0.222   3.591
 1619SOL    HW1 4867   3.404   0.259   3.683
 1619SOL    HW2 4868   3.337   0.153   3.579
 1620SOL     OW 4869   2.476   0.122   1.979
 1620SOL    HW1 4870   2.574   0.100   1.986
 1620SOL    HW2 4871   2.445   0.105   1.886
 1621SOL     OW 4872   2.643   0.264   3.611
 1621SOL    HW1 4873   2.710   0.203   3.654
 1621SOL    HW2 4874   2.570   0.283   3.676
 1622SOL     OW 4875   2.750   1.514   3.057
 1622SOL    HW1 4876   2.727   1.489   2.963
 1622SOL    HW2 4877   2.811   1.445   3.096
 1623SOL     OW 4878   3.213   0.590   3.295
 1623SOL    HW1 4879   3.241   0.547   3.380
 1623SOL    HW2 4880   3.238   0.686   3.296
 1624SOL     OW 4881   2.665   1.402   2.786
 1624SOL    HW1 4882   2.755   1.416   2.744
 1624SOL    HW2 4883   2.594   1.404   2.715
 1625SOL     OW 4884   2.784   0.503   2.761
 1625SOL    HW1 4885   2.759   0.494   2.665
 1625SOL    HW2 4886   2.832   0.421   2.792
 1626SOL     OW 4887   2.401   0.064   2.374
 1626SOL    HW1 4888   2.320   0.065   2.432
 1626SOL    HW2 4889   2.404   0.147   2.319
 1627SOL     OW 4890   3.296   1.188   1.903
 1627SOL    HW1 4891   3.328   1.112   1.960
 1627SOL    HW2 4892   3.204   1.215   1.933
 1628SOL     OW 4893   2.159   0.035   2.033
 1628SOL    HW1 4894   2.208   0.119   2.012
 1628SOL    HW2 4895   2.221  -0.030   2.078
 1629SOL     OW 4896   2.797   0.236   2.342
 1629SOL    HW1 4897   2.749   0.277   2.264
 1629SOL    HW2 4898   2.896   0.234   2.323
 1630SOL     OW 4899   2.938   0.683   3.326
 1630SOL    HW1 4900   2.858   0.622   3.329
 1630SOL    HW2 4901   3.019   0.630   3.302
 1631SOL     OW 4902   3.089   1.570   2.655
 1631SOL    HW1 4903   3.110   1.644   2.590
 1631SOL    HW2 4904   3.157   1.570   2.728
 1632SOL     OW 4905   2.321   1.152   2.603
 1632SOL    HW1 4906   2.250   1.125   2.668
 1632SOL    HW2 4907   2.295   1.124   2.510
 1633SOL     OW 4908   3.133   1.797   2.453
 1633SOL    HW1 4909   3.177   1.861   2.389
 1633SOL    HW2 4910   3.083   1.849   2.523
 1634SOL     OW 4911   2.894   0.549   1.878
 1634SOL    HW1 4912   2.853   0.631   1.839
 1634SOL    HW2 4913   2.958   0.575   1.951
 1635SOL     OW 4914   1.940   0.556   3.248
 1635SOL    HW1 4915   2.032   0.555   3.207
 1635SOL    HW2 4916   1.934   0.630   3.315
 1636SOL     OW 4917   2.423   0.222   3.009
 1636SOL    HW1 4918   2.461   0.138   3.046
 1636SOL    HW2 4919   2.335   0.241   3.053
 1637SOL     OW 4920   2.728   0.454   2.504
 1637SOL    HW1 4921   2.696   0.526   2.442
 1637SOL    HW2 4922   2.752   0.373   2.451
 1638SOL     OW 4923   2.879   0.039   2.615
 1638SOL    HW1 4924   2.807   0.044   2.546
 1638SOL    HW2 4925   2.855  -0.030   2.684
 1639SOL     OW 4926   3.291   1.173   2.729
 1639SOL    HW1 4927   3.236   1.089   2.722
 1639SOL    HW2 4928   3.317   1.202   2.637
 1640SOL     OW 4929   3.328   0.590   2.854
 1640SOL    HW1 4930   3.298   0.495   2.861
 1640SOL    HW2 4931   3.401   0.606   2.920
 1641SOL     OW 4932   3.719   0.833   2.239
 1641SOL    HW1 4933   3.761   0.769   2.303
 1641SOL    HW2 4934   3.681   0.782   2.161
 1642SOL     OW 4935   2.350   1.385   2.036
 1642SOL    HW1 4936   2.263   1.370   2.083
 1642SOL    HW2 4937   2.333   1.411   1.941
 1643SOL     OW 4938   3.526   1.280   2.519
 1643SOL    HW1 4939   3.625   1.288   2.533
 1643SOL    HW2 4940   3.481   1.364   2.550
 1644SOL     OW 4941   3.252   0.575   1.940
 1644SOL    HW1 4942   3.198   0.554   2.021
 1644SOL    HW2 4943   3.343   0.534   1.949
 1645SOL     OW 4944   2.389   0.256   2.190
 1645SOL    HW1 4945   2.416   0.197   2.115
 1645SOL    HW2 4946   2.389   0.351   2.159
 1646SOL     OW 4947   3.616   1.223   3.450
 1646SOL    HW1 4948   3.707   1.184   3.437
 1646SOL    HW2 4949   3.624   1.319   3.474
 1647SOL     OW 4950   2.926   1.347   3.202
 1647SOL    HW1 4951   2.846   1.324   3.257
 1647SOL    HW2 4952   3.009   1.321   3.251
 1648SOL     OW 4953   3.454   1.629   3.487
 1648SOL    HW1 4954   3.481   1.663   3.397
 1648SOL    HW2 4955   3.533   1.591   3.533
 1649SOL     OW 4956   2.973   1.195   2.962
 1649SOL    HW1 4957   2.933   1.239   3.043
 1649SOL    HW2 4958   2.932   1.232   2.879
 1650SOL     OW 4959   3.500   1.099   2.941
 1650SOL    HW1 4960   3.505   1.180   3.000
 1650SOL    HW2 4961   3.414   1.101   2.890
 1651SOL     OW 4962   2.777   0.089   3.264
 1651SOL    HW1 4963   2.802   0.069   3.169
 1651SOL    HW2 4964   2.849   0.145   3.306
 1652SOL     OW 4965   2.842   1.116   3.581
 1652SOL    HW1 4966   2.743   1.122   3.591
 1652SOL    HW2 4967   2.865   1.036   3.525
 1653SOL     OW 4968   2.567   1.050   2.230
 1653SOL    HW1 4969   2.553   1.057   2.329
 1653SOL    HW2 4970   2.651   0.999   2.212
 1654SOL     OW 4971   2.272   0.813   3.113
 1654SOL    HW1 4972   2.358   0.825   3.163
 1654SOL    HW2 4973   2.230   0.726   3.140
 1655SOL     OW 4974   3.136   0.386   3.124
 1655SOL    HW1 4975   3.157   0.460   3.188
 1655SOL    HW2 4976   3.047   0.403   3.081
 1656SOL     OW 4977   1.926   1.564   3.193
 1656SOL    HW1 4978   1.880   1.646   3.159
 1656SOL    HW2 4979   2.024   1.583   3.202
 1657SOL     OW 4980   2.229   1.100   2.363
 1657SOL    HW1 4981   2.222   1.183   2.307
 1657SOL    HW2 4982   2.233   1.020   2.303
 1658SOL     OW 4983   2.428   0.537   2.727
 1658SOL    HW1 4984   2.440   0.603   2.653
 1658SOL    HW2 4985   2.474   0.571   2.810
 1659SOL     OW 4986   3.114   1.348   2.250
 1659SOL    HW1 4987   3.164   1.425   2.290
 1659SOL    HW2 4988   3.019   1.350   2.282
 1660SOL     OW 4989   3.134   1.445   3.004
 1660SOL    HW1 4990   3.181   1.458   3.091
 1660SOL    HW2 4991   3.068   1.371   3.013
 1661SOL     OW 4992   3.444   0.639   2.334
 1661SOL    HW1 4993   3.413   0.700   2.407
 1661SOL    HW2 4994   3.494   0.691   2.265
 1662SOL     OW 4995   2.216   1.510   3.191
 1662SOL    HW1 4996   2.195   1.466   3.104
 1662SOL    HW2 4997   2.313   1.536   3.194
 1663SOL     OW 4998   2.264   0.751   3.460
 1663SOL    HW1 4999   2.332   0.806   3.413
 1663SOL    HW2 5000   2.304   0.663   3.487
 1664SOL     OW 5001   3.449   0.779   3.532
 1664SOL    HW1 5002   3.357   0.817   3.527
 1664SOL    HW2 5003   3.509   0.826   3.467
 1665SOL     OW 5004   2.875   0.105   3.632
 1665SOL    HW1 5005   2.881   0.190   3.580
 1665SOL    HW2 5006   2.907   0.029   3.575
 1666SOL     OW 5007   2.366   0.050   3.602
 1666SOL    HW1 5008   2.324  -0.007   3.532
 1666SOL    HW2 5009   2.300   0.119   3.634
 1667SOL     OW 5010   2.435   0.870   2.891
 1667SOL    HW1 5011   2.479   0.959   2.882
 1667SOL    HW2 5012   2.372   0.870   2.968
 1668SOL     OW 5013   3.222   0.862   2.907
 1668SOL    HW1 5014   3.147   0.862   2.841
 1668SOL    HW2 5015   3.259   0.770   2.916
 1669SOL     OW 5016   3.071   0.525   2.137
 1669SOL    HW1 5017   3.084   0.441   2.191
 1669SOL    HW2 5018   3.042   0.599   2.197
 1670SOL     OW 5019   2.169   0.213   3.093
 1670SOL    HW1 5020   2.146   0.250   3.183
 1670SOL    HW2 5021   2.139   0.118   3.087
 1671SOL     OW 5022   1.899   1.310   3.144
 1671SOL    HW1 5023   1.952   1.261   3.212
 1671SOL    HW2 5024   1.921   1.408   3.149
 1672SOL     OW 5025   2.594   0.634   2.926
 1672SOL    HW1 5026   2.653   0.608   2.850
 1672SOL    HW2 5027   2.566   0.730   2.915
 1673SOL     OW 5028   3.590   0.935   3.716
 1673SOL    HW1 5029   3.544   0.928   3.627
 1673SOL    HW2 5030   3.528   0.979   3.782
 1674SOL     OW 5031   2.169   0.063   2.480
 1674SOL    HW1 5032   2.158   0.157   2.513
 1674SOL    HW2 5033   2.164   0.000   2.557
 1675SOL     OW 5034   3.484   0.367   2.236
 1675SOL    HW1 5035   3.486   0.291   2.300
 1675SOL    HW2 5036   3.436   0.444   2.276
 1676SOL     OW 5037   2.885   0.766   2.828
 1676SOL    HW1 5038   2.900   0.787   2.924
 1676SOL    HW2 5039   2.855   0.671   2.819
 1677SOL     OW 5040   2.842   1.573   3.562
 1677SOL    HW1 5041   2.822   1.617   3.474
 1677SOL    HW2 5042   2.881   1.482   3.546
 1678SOL     OW 5043   3.721   1.518   3.467
 1678SOL    HW1 5044   3.735   1.545   3.372
 1678SOL    HW2 5045   3.804   1.540   3.520
 1679SOL     OW 5046   2.212   0.898   3.666
 1679SOL    HW1 5047   2.288   0.942   3.714
 1679SOL    HW2 5048   2.247   0.851   3.584
 1680SOL     OW 5049   3.402   0.274   1.987
 1680SOL    HW1 5050   3.341   0.199   2.010
 1680SOL    HW2 5051   3.424   0.326   2.070
 1681SOL     OW 5052   3.165   0.838   1.904
 1681SOL    HW1 5053   3.199   0.745   1.919
 1681SOL    HW2 5054   3.183   0.865   1.809
 1682SOL     OW 5055   2.930   1.333   2.711
 1682SOL    HW1 5056   2.937   1.249   2.656
 1682SOL    HW2 5057   2.992   1.402   2.675
 1683SOL     OW 5058   2.181   0.810   2.811
 1683SOL    HW1 5059   2.274   0.846   2.816
 1683SOL    HW2 5060   2.175   0.725   2.863
 1684SOL     OW 5061   2.201   0.509   2.868
 1684SOL    HW1 5062   2.149   0.426   2.851
 1684SOL    HW2 5063   2.278   0.514   2.804
 1685SOL     OW 5064   3.000   0.380   3.540
 1685SOL    HW1 5065   2.955   0.443   3.604
 1685SOL    HW2 5066   3.093   0.411   3.523
 1686SOL     OW 5067   3.022   0.207   3.339
 1686SOL    HW1 5068   3.022   0.271   3.416
 1686SOL    HW2 5069   3.050   0.255   3.256
 1687SOL     OW 5070   1.870   1.326   2.062
 1687SOL    HW1 5071   1.777   1.347   2.031
 1687SOL    HW2 5072   1.880   1.227   2.075
 1688SOL     OW 5073   1.950   1.801   2.789
 1688SOL    HW1 5074   1.908   1.715   2.762
 1688SOL    HW2 5075   2.044   1.804   2.755
 1689SOL     OW 5076   2.366   1.568   2.772
 1689SOL    HW1 5077   2.432   1.642   2.781
 1689SOL    HW2 5078   2.410   1.489   2.730
 1690SOL     OW 5079   2.864   0.796   3.100
 1690SOL    HW1 5080   2.905   0.764   3.186
 1690SOL    HW2 5081   2.768   0.769   3.097
 1691SOL     OW 5082   1.902   0.544   2.976
 1691SOL    HW1 5083   1.987   0.511   2.935
 1691SOL    HW2 5084   1.915   0.559   3.074
 1692SOL     OW 5085   2.051   0.520   3.584
 1692SOL    HW1 5086   2.110   0.480   3.514
 1692SOL    HW2 5087   1.993   0.591   3.543
 1693SOL     OW 5088   3.231   0.950   3.522
 1693SOL    HW1 5089   3.270   1.039   3.542
 1693SOL    HW2 5090   3.241   0.930   3.425
 1694SOL     OW 5091   2.677   0.572   2.187
 1694SOL    HW1 5092   2.684   0.483   2.141
 1694SOL    HW2 5093   2.583   0.606   2.179
 1695SOL     OW 5094   3.519   0.604   3.068
 1695SOL    HW1 5095   3.481   0.535   3.130
 1695SOL    HW2 5096   3.601   0.568   3.024
 1696SOL     OW 5097   2.114   1.564   3.606
 1696SOL    HW1 5098   2.084   1.621   3.682
 1696SOL    HW2 5099   2.107   1.467   3.632
 1697SOL     OW 5100   2.533   0.464   3.131
 1697SOL    HW1 5101   2.499   0.375   3.101
 1697SOL    HW2 5102   2.559   0.518   3.051
 1698SOL     OW 5103   2.792   1.678   3.327
 1698SOL    HW1 5104   2.768   1.660   3.232
 1698SOL    HW2 5105   2.822   1.772   3.337
 1699SOL     OW 5106   2.335   0.500   2.053
 1699SOL    HW1 5107   2.396   0.580   2.057
 1699SOL    HW2 5108   2.240   0.531   2.060
 1700SOL     OW 5109   2.021   1.137   3.328
 1700SOL    HW1 5110   2.043   1.076   3.404
 1700SOL    HW2 5111   2.031   1.088   3.242
 1701SOL     OW 5112   3.209   1.059   3.096
 1701SOL    HW1 5113   3.233   0.996   3.022
 1701SOL    HW2 5114   3.119   1.099   3.078
 1702SOL     OW 5115   3.164   0.855   2.171
 1702SOL    HW1 5116   3.078   0.824   2.213
 1702SOL    HW2 5117   3.160   0.841   2.072
 1703SOL     OW 5118   3.621   1.747   3.016
 1703SOL    HW1 5119   3.682   1.777   2.943
 1703SOL    HW2 5120   3.583   1.658   2.994
 1704SOL     OW 5121   3.114   1.731   2.990
 1704SOL    HW1 5122   3.198   1.736   2.936
 1704SOL    HW2 5123   3.091   1.635   3.008
 1705SOL     OW 5124   1.945   1.258   2.884
 1705SOL    HW1 5125   1.940   1.257   2.984
 1705SOL    HW2 5126   1.862   1.217   2.846
 1706SOL     OW 5127   2.550   1.662   3.578
 1706SOL    HW1 5128   2.494   1.743   3.587
 1706SOL    HW2 5129   2.602   1.666   3.492
 1707SOL     OW 5130   3.588   0.135   2.385
 1707SOL    HW1 5131   3.661   0.118   2.318
 1707SOL    HW2 5132   3.557   0.048   2.423
 1708SOL     OW 5133   3.250   1.573   2.339
 1708SOL    HW1 5134   3.317   1.585   2.265
 1708SOL    HW2 5135   3.210   1.662   2.362
 1709SOL     OW 5136   1.992   1.794   3.713
 1709SOL    HW1 5137   1.951   1.720   3.766
 1709SOL    HW2 5138   2.056   1.845   3.771
 1710SOL     OW 5139   3.142   0.927   2.534
 1710SOL    HW1 5140   3.202   0.846   2.536
 1710SOL    HW2 5141   3.182   0.996   2.474
 1711SOL     OW 5142   2.692   1.273   3.284
 1711SOL    HW1 5143   2.687   1.306   3.379
 1711SOL    HW2 5144   2.606   1.292   3.238
 1712SOL     OW 5145   2.534   1.616   2.016
 1712SOL    HW1 5146   2.543   1.626   1.917
 1712SOL    HW2 5147   2.494   1.527   2.037
 1713SOL     OW 5148   3.512   1.720   3.256
 1713SOL    HW1 5149   3.565   1.730   3.172
 1713SOL    HW2 5150   3.485   1.810   3.290
 1714SOL     OW 5151   3.703   0.175   2.825
 1714SOL    HW1 5152   3.742   0.090   2.789
 1714SOL    HW2 5153   3.605   0.177   2.806
 1715SOL     OW 5154   2.125   0.326   2.582
 1715SOL    HW1 5155   2.046   0.377   2.548
 1715SOL    HW2 5156   2.116   0.311   2.680
 1716SOL     OW 5157   3.056   1.612   1.893
 1716SOL    HW1 5158   3.062   1.519   1.930
 1716SOL    HW2 5159   2.997   1.612   1.813
 1717SOL     OW 5160   2.684   1.002   3.234
 1717SOL    HW1 5161   2.724   1.001   3.142
 1717SOL    HW2 5162   2.694   1.094   3.274
 1718SOL     OW 5163   2.778   0.910   2.153
 1718SOL    HW1 5164   2.841   0.948   2.085
 1718SOL    HW2 5165   2.818   0.827   2.192
 1719SOL     OW 5166   3.366   1.607   1.906
 1719SOL    HW1 5167   3.274   1.644   1.913
 1719SOL    HW2 5168   3.404   1.627   1.816
 1720SOL     OW 5169   2.234   1.288   3.352
 1720SOL    HW1 5170   2.221   1.381   3.318
 1720SOL    HW2 5171   2.150   1.236   3.339
 1721SOL     OW 5172   3.476   1.292   3.151
 1721SOL    HW1 5173   3.536   1.295   3.231
 1721SOL    HW2 5174   3.401   1.356   3.164
 1722SOL     OW 5175   2.901   1.098   2.558
 1722SOL    HW1 5176   2.831   1.051   2.612
 1722SOL    HW2 5177   2.960   1.030   2.515
 1723SOL     OW 5178   2.876   0.236   2.833
 1723SOL    HW1 5179   2.868   0.200   2.740
 1723SOL    HW2 5180   2.874   0.160   2.898
 1724SOL     OW 5181   2.452   1.487   2.353
 1724SOL    HW1 5182   2.494   1.429   2.283
 1724SOL    HW2 5183   2.408   1.566   2.309
 1725SOL     OW 5184   3.571   0.385   3.243
 1725SOL    HW1 5185   3.644   0.454   3.247
 1725SOL    HW2 5186   3.599   0.310   3.184
 1726SOL     OW 5187   2.117   1.348   2.152
 1726SOL    HW1 5188   2.021   1.349   2.125
 1726SOL    HW2 5189   2.129   1.401   2.236
 1727SOL     OW 5190   1.967   1.013   3.588
 1727SOL    HW1 5191   1.890   0.980   3.642
 1727SOL    HW2 5192   2.052   0.983   3.630
 1728SOL     OW 5193   2.534   0.203   3.351
 1728SOL    HW1 5194   2.624   0.187   3.311
 1728SOL    HW2 5195   2.542   0.208   3.450
 1729SOL     OW 5196   1.937   0.345   1.895
 1729SOL    HW1 5197   1.845   0.317   1.866
 1729SOL    HW2 5198   1.968   0.422   1.839
 1730SOL     OW 5199   3.302   0.856   3.260
 1730SOL    HW1 5200   3.245   0.908   3.197
 1730SOL    HW2 5201   3.398   0.868   3.236
 1731SOL     OW 5202   1.934   0.166   2.180
 1731SOL    HW1 5203   1.917   0.249   2.126
 1731SOL    HW2 5204   2.024   0.129   2.158
 1732SOL     OW 5205   3.045   1.335   1.981
 1732SOL    HW1 5206   2.946   1.324   1.983
 1732SOL    HW2 5207   3.079   1.350   2.074
 1733SOL     OW 5208   2.475   0.842   3.293
 1733SOL    HW1 5209   2.531   0.923   3.276
 1733SOL    HW2 5210   2.534   0.762   3.296
 1734SOL     OW 5211   3.355   1.767   2.821
 1734SOL    HW1 5212   3.388   1.831   2.752
 1734SOL    HW2 5213   3.421   1.761   2.896
 1735SOL     OW 5214   2.578   0.565   3.570
 1735SOL    HW1 5215   2.597   0.630   3.644
 1735SOL    HW2 5216   2.638   0.485   3.579
 1736SOL     OW 5217   3.312   1.220   3.495
 1736SOL    HW1 5218   3.303   1.210   3.594
 1736SOL    HW2 5219   3.408   1.213   3.469
 1737SOL     OW 5220   2.252   1.741   3.422
 1737SOL    HW1 5221   2.161   1.782   3.420
 1737SOL    HW2 5222   2.245   1.647   3.454
 1738SOL     OW 5223   3.536   0.883   3.116
 1738SOL    HW1 5224   3.509   0.794   3.079
 1738SOL    HW2 5225   3.537   0.951   3.043
 1739SOL     OW 5226   3.087   0.325   2.311
 1739SOL    HW1 5227   3.152   0.251   2.300
 1739SOL    HW2 5228   3.107   0.375   2.395
 1740SOL     OW 5229   2.456   0.745   2.514
 1740SOL    HW1 5230   2.506   0.830   2.495
 1740SOL    HW2 5231   2.368   0.747   2.466
 1741SOL     OW 5232   3.639   0.342   3.504
 1741SOL    HW1 5233   3.622   0.373   3.410
 1741SOL    HW2 5234   3.555   0.305   3.542
 1742SOL     OW 5235   3.592   0.934   3.379
 1742SOL    HW1 5236   3.630   1.025   3.394
 1742SOL    HW2 5237   3.584   0.917   3.280
 1743SOL     OW 5238   2.721   1.374   1.878
 1743SOL    HW1 5239   2.675   1.389   1.966
 1743SOL    HW2 5240   2.765   1.459   1.848
 1744SOL     OW 5241   2.523   1.790   2.815
 1744SOL    HW1 5242   2.477   1.878   2.802
 1744SOL    HW2 5243   2.622   1.802   2.808
 1745SOL     OW 5244   2.721   0.956   2.723
 1745SOL    HW1 5245   2.775   0.887   2.771
 1745SOL    HW2 5246   2.689   1.025   2.789
 1746SOL     OW 5247   2.945   0.984   1.949
 1746SOL    HW1 5248   2.922   1.037   1.867
 1746SOL    HW2 5249   3.026   0.928   1.930
 1747SOL     OW 5250   3.723   1.569   2.713
 1747SOL    HW1 5251   3.652   1.557   2.643
 1747SOL    HW2 5252   3.724   1.490   2.773
 1748SOL     OW 5253   2.083   1.314   3.706
 1748SOL    HW1 5254   2.018   1.241   3.685
 1748SOL    HW2 5255   2.087   1.328   3.804
 1749SOL     OW 5256   1.941   1.240   2.515
 1749SOL    HW1 5257   1.940   1.193   2.603
 1749SOL    HW2 5258   2.023   1.212   2.464
 1750SOL     OW 5259   2.534   1.391   3.486
 1750SOL    HW1 5260   2.456   1.341   3.524
 1750SOL    HW2 5261   2.531   1.486   3.517
 1751SOL     OW 5262   3.686   0.192   3.089
 1751SOL    HW1 5263   3.682   0.102   3.133
 1751SOL    HW2 5264   3.689   0.181   2.990
 1752SOL     OW 5265   2.290   0.424   2.382
 1752SOL    HW1 5266   2.320   0.352   2.320
 1752SOL    HW2 5267   2.251   0.384   2.465
 1753SOL     OW 5268   3.567   1.487   2.966
 1753SOL    HW1 5269   3.474   1.462   2.939
 1753SOL    HW2 5270   3.593   1.437   3.048
 1754SOL     OW 5271   2.179   0.547   3.142
 1754SOL    HW1 5272   2.217   0.488   3.214
 1754SOL    HW2 5273   2.219   0.521   3.054
 1755SOL     OW 5274   2.674   1.586   2.549
 1755SOL    HW1 5275   2.706   1.596   2.455
 1755SOL    HW2 5276   2.595   1.524   2.551
 1756SOL     OW 5277   3.286   0.214   2.974
 1756SOL    HW1 5278   3.338   0.149   3.029
 1756SOL    HW2 5279   3.237   0.277   3.035
 1757SOL     OW 5280   2.863   0.034   3.016
 1757SOL    HW1 5281   2.800  -0.038   2.985
 1757SOL    HW2 5282   2.956  -0.002   3.016
 1758SOL     OW 5283   2.632   1.330   2.163
 1758SOL    HW1 5284   2.586   1.243   2.180
 1758SOL    HW2 5285   2.723   1.327   2.204
 1759SOL     OW 5286   2.480   1.567   3.146
 1759SOL    HW1 5287   2.475   1.649   3.203
 1759SOL    HW2 5288   2.569   1.564   3.101
 1760SOL     OW 5289   3.214   0.052   2.030
 1760SOL    HW1 5290   3.249   0.011   1.946
 1760SOL    HW2 5291   3.124   0.014   2.050
 1761SOL     OW 5292   3.162   0.453   2.553
 1761SOL    HW1 5293   3.103   0.533   2.557
 1761SOL    HW2 5294   3.177   0.418   2.646
 1762SOL     OW 5295   3.455   0.221   2.744
 1762SOL    HW1 5296   3.371   0.220   2.798
 1762SOL    HW2 5297   3.457   0.304   2.688
 1763SOL     OW 5298   1.901   1.077   2.162
 1763SOL    HW1 5299   2.000   1.066   2.153
 1763SOL    HW2 5300   1.861   0.991   2.194
 1764SOL     OW 5301   2.737   1.646   2.199
 1764SOL    HW1 5302   2.660   1.611   2.145
 1764SOL    HW2 5303   2.705   1.717   2.261
 1765SOL     OW 5304   2.092   0.628   3.837
 1765SOL    HW1 5305   1.999   0.626   3.874
 1765SOL    HW2 5306   2.093   0.589   3.745
 1766SOL     OW 5307   2.087   0.275   4.720
 1766SOL    HW1 5308   2.122   0.258   4.812
 1766SOL    HW2 5309   1.999   0.230   4.708
 1767SOL     OW 5310   1.881   0.368   4.371
 1767SOL    HW1 5311   1.799   0.411   4.410
 1767SOL    HW2 5312   1.853   0.295   4.308
 1768SOL     OW 5313   3.417   1.511   4.427
 1768SOL    HW1 5314   3.360   1.495   4.508
 1768SOL    HW2 5315   3.358   1.521   4.347
 1769SOL     OW 5316   2.997   0.703   4.441
 1769SOL    HW1 5317   3.054   0.781   4.416
 1769SOL    HW2 5318   2.937   0.729   4.517
 1770SOL     OW 5319   3.617   0.607   3.955
 1770SOL    HW1 5320   3.605   0.594   3.856
 1770SOL    HW2 5321   3.587   0.526   4.004
 1771SOL     OW 5322   2.547   1.012   4.389
 1771SOL    HW1 5323   2.616   0.996   4.459
 1771SOL    HW2 5324   2.474   1.069   4.427
 1772SOL     OW 5325   3.465   0.447   4.461
 1772SOL    HW1 5326   3.391   0.493   4.411
 1772SOL    HW2 5327   3.516   0.515   4.514
 1773SOL     OW 5328   2.093   1.713   4.207
 1773SOL    HW1 5329   2.127   1.790   4.261
 1773SOL    HW2 5330   2.137   1.713   4.117
 1774SOL     OW 5331   2.092   1.434   4.262
 1774SOL    HW1 5332   2.066   1.530   4.262
 1774SOL    HW2 5333   2.021   1.380   4.307
 1775SOL     OW 5334   2.102   1.091   4.610
 1775SOL    HW1 5335   2.116   1.007   4.662
 1775SOL    HW2 5336   2.047   1.155   4.665
 1776SOL     OW 5337   2.468   0.964   3.847
 1776SOL    HW1 5338   2.475   1.048   3.793
 1776SOL    HW2 5339   2.514   0.977   3.935
 1777SOL     OW 5340   1.984   0.643   4.287
 1777SOL    HW1 5341   1.939   0.555   4.304
 1777SOL    HW2 5342   1.983   0.697   4.371
 1778SOL     OW 5343   3.704   1.767   4.083
 1778SOL    HW1 5344   3.758   1.738   4.163
 1778SOL    HW2 5345   3.734   1.857   4.054
 1779SOL     OW 5346   1.889   1.596   3.841
 1779SOL    HW1 5347   1.870   1.500   3.862
 1779SOL    HW2 5348   1.856   1.654   3.916
 1780SOL     OW 5349   3.551   0.922   4.336
 1780SOL    HW1 5350   3.646   0.893   4.344
 1780SOL    HW2 5351   3.543   0.987   4.261
 1781SOL     OW 5352   3.503   1.108   4.156
 1781SOL    HW1 5353   3.589   1.110   4.104
 1781SOL    HW2 5354   3.517   1.155   4.244
 1782SOL     OW 5355   2.475   1.365   4.450
 1782SOL    HW1 5356   2.426   1.278   4.459
 1782SOL    HW2 5357   2.452   1.408   4.363
 1783SOL     OW 5358   2.671   0.004   4.226
 1783SOL    HW1 5359   2.711   0.095   4.217
 1783SOL    HW2 5360   2.571   0.012   4.232
 1784SOL     OW 5361   3.387   0.999   3.914
 1784SOL    HW1 5362   3.324   0.923   3.927
 1784SOL    HW2 5363   3.435   1.017   4.000
 1785SOL     OW 5364   3.328   1.417   4.677
 1785SOL    HW1 5365   3.269   1.423   4.757
 1785SOL    HW2 5366   3.313   1.329   4.631
 1786SOL     OW 5367   3.529   1.714   4.296
 1786SOL    HW1 5368   3.488   1.691   4.208
 1786SOL    HW2 5369   3.511   1.640   4.361
 1787SOL     OW 5370   2.460   0.729   3.994
 1787SOL    HW1 5371   2.484   0.798   3.926
 1787SOL    HW2 5372   2.382   0.762   4.048
 1788SOL     OW 5373   3.143   0.345   4.668
 1788SOL    HW1 5374   3.057   0.295   4.655
 1788SOL    HW2 5375   3.205   0.291   4.724
 1789SOL     OW 5376   3.438   1.662   4.031
 1789SOL    HW1 5377   3.527   1.708   4.034
 1789SOL    HW2 5378   3.417   1.638   3.936
 1790SOL     OW 5379   2.903   0.701   4.153
 1790SOL    HW1 5380   2.929   0.697   4.249
 1790SOL    HW2 5381   2.818   0.650   4.139
 1791SOL     OW 5382   1.938   0.811   4.513
 1791SOL    HW1 5383   2.037   0.799   4.522
 1791SOL    HW2 5384   1.914   0.906   4.534
 1792SOL     OW 5385   2.727   0.348   3.919
 1792SOL    HW1 5386   2.786   0.411   3.870
 1792SOL    HW2 5387   2.746   0.254   3.890
 1793SOL     OW 5388   3.224   1.144   4.269
 1793SOL    HW1 5389   3.307   1.115   4.221
 1793SOL    HW2 5390   3.175   1.211   4.213
 1794SOL     OW 5391   2.870   1.456   4.201
 1794SOL    HW1 5392   2.824   1.528   4.149
 1794SOL    HW2 5393   2.866   1.476   4.299
 1795SOL     OW 5394   2.213   1.801   4.577
 1795SOL    HW1 5395   2.263   1.715   4.583
 1795SOL    HW2 5396   2.278   1.878   4.574
 1796SOL     OW 5397   3.657   1.066   4.597
 1796SOL    HW1 5398   3.595   1.051   4.521
 1796SOL    HW2 5399   3.605   1.077   4.682
 1797SOL     OW 5400   2.183   0.943   3.966
 1797SOL    HW1 5401   2.265   0.982   3.924
 1797SOL    HW2 5402   2.156   0.861   3.917
 1798SOL     OW 5403   3.320   0.735   4.452
 1798SOL    HW1 5404   3.315   0.670   4.527
 1798SOL    HW2 5405   3.400   0.794   4.465
 1799SOL     OW 5406   2.973   1.776   3.961
 1799SOL    HW1 5407   2.913   1.714   4.011
 1799SOL    HW2 5408   3.004   1.732   3.876
 1800SOL     OW 5409   3.494   1.377   3.805
 1800SOL    HW1 5410   3.462   1.471   3.795
 1800SOL    HW2 5411   3.418   1.314   3.793
 1801SOL     OW 5412   2.326   1.743   4.047
 1801SOL    HW1 5413   2.359   1.782   4.133
 1801SOL    HW2 5414   2.402   1.736   3.982
 1802SOL     OW 5415   3.262   0.107   4.150
 1802SOL    HW1 5416   3.238   0.070   4.060
 1802SOL    HW2 5417   3.361   0.123   4.154
 1803SOL     OW 5418   2.244   0.700   4.204
 1803SOL    HW1 5419   2.289   0.610   4.201
 1803SOL    HW2 5420   2.150   0.689   4.237
 1804SOL     OW 5421   2.476   0.122   3.841
 1804SOL    HW1 5422   2.574   0.100   3.848
 1804SOL    HW2 5423   2.445   0.105   3.748
 1805SOL     OW 5424   2.401   0.064   4.236
 1805SOL    HW1 5425   2.320   0.065   4.294
 1805SOL    HW2 5426   2.404   0.147   4.181
 1806SOL     OW 5427   3.296   1.188   3.765
 1806SOL    HW1 5428   3.328   1.112   3.822
 1806SOL    HW2 5429   3.204   1.215   3.795
 1807SOL     OW 5430   2.159   0.035   3.895
 1807SOL    HW1 5431   2.208   0.119   3.874
 1807SOL    HW2 5432   2.221  -0.030   3.940
 1808SOL     OW 5433   2.797   0.236   4.204
 1808SOL    HW1 5434   2.749   0.277   4.126
 1808SOL    HW2 5435   2.896   0.234   4.185
 1809SOL     OW 5436   3.089   1.570   4.517
 1809SOL    HW1 5437   3.110   1.644   4.452
 1809SOL    HW2 5438   3.157   1.570   4.590
 1810SOL     OW 5439   2.321   1.152   4.465
 1810SOL    HW1 5440   2.250   1.125   4.530
 1810SOL    HW2 5441   2.295   1.124   4.372
 1811SOL     OW 5442   3.133   1.797   4.315
 1811SOL    HW1 5443   3.177   1.861   4.251
 1811SOL    HW2 5444   3.083   1.849   4.385
 1812SOL     OW 5445   2.894   0.549   3.740
 1812SOL    HW1 5446   2.853   0.631   3.701
 1812SOL    HW2 5447   2.958   0.575   3.813
 1813SOL     OW 5448   2.728   0.454   4.366
 1813SOL    HW1 5449   2.696   0.526   4.304
 1813SOL    HW2 5450   2.752   0.373   4.313
 1814SOL     OW 5451   2.879   0.039   4.477
 1814SOL    HW1 5452   2.807   0.044   4.408
 1814SOL    HW2 5453   2.855  -0.030   4.546
 1815SOL     OW 5454   3.719   0.833   4.101
 1815SOL    HW1 5455   3.761   0.769   4.165
 1815SOL    HW2 5456   3.681   0.782   4.023
 1816SOL     OW 5457   2.350   1.385   3.898
 1816SOL    HW1 5458   2.263   1.370   3.945
 1816SOL    HW2 5459   2.333   1.411   3.803
 1817SOL     OW 5460   3.526   1.280   4.381
 1817SOL    HW1 5461   3.625   1.288   4.395
 1817SOL    HW2 5462   3.481   1.364   4.412
 1818SOL     OW 5463   3.252   0.575   3.802
 1818SOL    HW1 5464   3.198   0.554   3.883
 1818SOL    HW2 5465   3.343   0.534   3.811
 1819SOL     OW 5466   2.389   0.256   4.052
 1819SOL    HW1 5467   2.416   0.197   3.977
 1819SOL    HW2 5468   2.389   0.351   4.021
 1820SOL     OW 5469   2.567   1.050   4.092
 1820SOL    HW1 5470   2.553   1.057   4.191
 1820SOL    HW2 5471   2.651   0.999   4.074
 1821SOL     OW 5472   2.229   1.100   4.225
 1821SOL    HW1 5473   2.222   1.183   4.169
 1821SOL    HW2 5474   2.233   1.020   4.165
 1822SOL     OW 5475   2.428   0.537   4.589
 1822SOL    HW1 5476   2.440   0.603   4.515
 1822SOL    HW2 5477   2.474   0.571   4.672
 1823SOL     OW 5478   3.114   1.348   4.112
 1823SOL    HW1 5479   3.164   1.425   4.152
 1823SOL    HW2 5480   3.019   1.350   4.144
 1824SOL     OW 5481   3.444   0.639   4.196
 1824SOL    HW1 5482   3.413   0.700   4.269
 1824SOL    HW2 5483   3.494   0.691   4.127
 1825SOL     OW 5484   3.071   0.525   3.999
 1825SOL    HW1 5485   3.084   0.441   4.053
 1825SOL    HW2 5486   3.042   0.599   4.059
 1826SOL     OW 5487   2.594   0.634   4.788
 1826SOL    HW1 5488   2.653   0.608   4.712
 1826SOL    HW2 5489   2.566   0.730   4.777
 1827SOL     OW 5490   2.169   0.063   4.342
 1827SOL    HW1 5491   2.158   0.157   4.375
 1827SOL    HW2 5492   2.164   0.000   4.419
 1828SOL     OW 5493   3.484   0.367   4.098
 1828SOL    HW1 5494   3.486   0.291   4.162
 1828SOL    HW2 5495   3.436   0.444   4.138
 1829SOL     OW 5496   3.402   0.274   3.849
 1829SOL    HW1 5497   3.341   0.199   3.872
 1829SOL    HW2 5498   3.424   0.326   3.932
 1830SOL     OW 5499   3.165   0.838   3.766
 1830SOL    HW1 5500   3.199   0.745   3.781
 1830SOL    HW2 5501   3.183   0.865   3.671
 1831SOL     OW 5502   2.930   1.333   4.573
 1831SOL    HW1 5503   2.937   1.249   4.518
 1831SOL    HW2 5504   2.992   1.402   4.537
 1832SOL     OW 5505   2.181   0.810   4.673
 1832SOL    HW1 5506   2.274   0.846   4.678
 1832SOL    HW2 5507   2.175   0.725   4.725
 1833SOL     OW 5508   1.870   1.326   3.924
 1833SOL    HW1 5509   1.777   1.347   3.893
 1833SOL    HW2 5510   1.880   1.227   3.937
 1834SOL     OW 5511   1.950   1.801   4.651
 1834SOL    HW1 5512   1.908   1.715   4.624
 1834SOL    HW2 5513   2.044   1.804   4.617
 1835SOL     OW 5514   2.366   1.568   4.634
 1835SOL    HW1 5515   2.432   1.642   4.643
 1835SOL    HW2 5516   2.410   1.489   4.592
 1836SOL     OW 5517   2.677   0.572   4.049
 1836SOL    HW1 5518   2.684   0.483   4.003
 1836SOL    HW2 5519   2.583   0.606   4.041
 1837SOL     OW 5520   2.335   0.500   3.915
 1837SOL    HW1 5521   2.396   0.580   3.919
 1837SOL    HW2 5522   2.240   0.531   3.922
 1838SOL     OW 5523   3.164   0.855   4.033
 1838SOL    HW1 5524   3.078   0.824   4.075
 1838SOL    HW2 5525   3.160   0.841   3.934
 1839SOL     OW 5526   3.621   1.747   4.878
 1839SOL    HW1 5527   3.682   1.777   4.805
 1839SOL    HW2 5528   3.583   1.658   4.856
 1840SOL     OW 5529   3.588   0.135   4.247
 1840SOL    HW1 5530   3.661   0.118   4.180
 1840SOL    HW2 5531   3.557   0.048   4.285
 1841SOL     OW 5532   3.250   1.573   4.201
 1841SOL    HW1 5533   3.317   1.585   4.127
 1841SOL    HW2 5534   3.210   1.662   4.224
 1842SOL     OW 5535   3.142   0.927   4.396
 1842SOL    HW1 5536   3.202   0.846   4.398
 1842SOL    HW2 5537   3.182   0.996   4.336
 1843SOL     OW 5538   2.534   1.616   3.878
 1843SOL    HW1 5539   2.543   1.626   3.779
 1843SOL    HW2 5540   2.494   1.527   3.899
 1844SOL     OW 5541   3.703   0.175   4.687
 1844SOL    HW1 5542   3.742   0.090   4.651
 1844SOL    HW2 5543   3.605   0.177   4.668
 1845SOL     OW 5544   2.125   0.326   4.444
 1845SOL    HW1 5545   2.046   0.377   4.410
 1845SOL    HW2 5546   2.116   0.311   4.542
 1846SOL     OW 5547   3.056   1.612   3.755
 1846SOL    HW1 5548   3.062   1.519   3.792
 1846SOL    HW2 5549   2.997   1.612   3.675
 1847SOL     OW 5550   2.778   0.910   4.015
 1847SOL    HW1 5551   2.841   0.948   3.947
 1847SOL    HW2 5552   2.818   0.827   4.054
 1848SOL     OW 5553   3.366   1.607   3.768
 1848SOL    HW1 5554   3.274   1.644   3.775
 1848SOL    HW2 5555   3.404   1.627   3.678
 1849SOL     OW 5556   2.901   1.098   4.420
 1849SOL    HW1 5557   2.831   1.051   4.474
 1849SOL    HW2 5558   2.960   1.030   4.377
 1850SOL     OW 5559   2.452   1.487   4.215
 1850SOL    HW1 5560   2.494   1.429   4.145
 1850SOL    HW2 5561   2.408   1.566   4.171
 1851SOL     OW 5562   2.117   1.348   4.014
 1851SOL    HW1 5563   2.021   1.349   3.987
 1851SOL    HW2 5564   2.129   1.401   4.098
 1852SOL     OW 5565   1.937   0.345   3.757
 1852SOL    HW1 5566   1.845   0.317   3.728
 1852SOL    HW2 5567   1.968   0.422   3.701
 1853SOL     OW 5568   1.934   0.166   4.042
 1853SOL    HW1 5569   1.917   0.249   3.988
 1853SOL    HW2 5570   2.024   0.129   4.020
 1854SOL     OW 5571   3.045   1.335   3.843
 1854SOL    HW1 5572   2.946   1.324   3.845
 1854SOL    HW2 5573   3.079   1.350   3.936
 1855SOL     OW 5574   3.536   0.883   4.978
 1855SOL    HW1 5575   3.509   0.794   4.941
 1855SOL    HW2 5576   3.537   0.951   4.905
 1856SOL     OW 5577   3.087   0.325   4.173
 1856SOL    HW1 5578   3.152   0.251   4.162
 1856SOL    HW2 5579   3.107   0.375   4.257
 1857SOL     OW 5580   2.456   0.745   4.376
 1857SOL    HW1 5581   2.506   0.830   4.357
 1857SOL    HW2 5582   2.368   0.747   4.328
 1858SOL     OW 5583   2.721   1.374   3.740
 1858SOL    HW1 5584   2.675   1.389   3.828
 1858SOL    HW2 5585   2.765   1.459   3.710
 1859SOL     OW 5586   2.523   1.790   4.677
 1859SOL    HW1 5587   2.477   1.878   4.664
 1859SOL    HW2 5588   2.622   1.802   4.670
 1860SOL     OW 5589   2.721   0.956   4.585
 1860SOL    HW1 5590   2.775   0.887   4.633
 1860SOL    HW2 5591   2.689   1.025   4.651
 1861SOL     OW 5592   2.945   0.984   3.811
 1861SOL    HW1 5593   2.922   1.037   3.729
 1861SOL    HW2 5594   3.026   0.928   3.792
 1862SOL     OW 5595   3.723   1.569   4.575
 1862SOL    HW1 5596   3.652   1.557   4.505
 1862SOL    HW2 5597   3.724   1.490   4.635
 1863SOL     OW 5598   1.941   1.240   4.377
 1863SOL    HW1 5599   1.940   1.193   4.465
 1863SOL    HW2 5600   2.023   1.212   4.326
 1864SOL     OW 5601   3.686   0.192   4.951
 1864SOL    HW1 5602   3.682   0.102   4.995
 1864SOL    HW2 5603   3.689   0.181   4.852
 1865SOL     OW 5604   2.290   0.424   4.244
 1865SOL    HW1 5605   2.320   0.352   4.182
 1865SOL    HW2 5606   2.251   0.384   4.327
 1866SOL     OW 5607   2.674   1.586   4.411
 1866SOL    HW1 5608   2.706   1.596   4.317
 1866SOL    HW2 5609   2.595   1.524   4.413
 1867SOL     OW 5610   2.632   1.330   4.025
 1867SOL    HW1 5611   2.586   1.243   4.042
 1867SOL    HW2 5612   2.723   1.327   4.066
 1868SOL     OW 5613   3.214   0.052   3.892
 1868SOL    HW1 5614   3.249   0.011   3.808
 1868SOL    HW2 5615   3.124   0.014   3.912
 1869SOL     OW 5616   3.162   0.453   4.415
 1869SOL    HW1 5617   3.103   0.533   4.419
 1869SOL    HW2 5618   3.177   0.418   4.508
 1870SOL     OW 5619   3.455   0.221   4.606
 1870SOL    HW1 5620   3.371   0.220   4.660
 1870SOL    HW2 5621   3.457   0.304   4.550
 1871SOL     OW 5622   1.901   1.077   4.024
 1871SOL    HW1 5623   2.000   1.066   4.015
 1871SOL    HW2 5624   1.861   0.991   4.056
 1872SOL     OW 5625   2.737   1.646   4.061
 1872SOL    HW1 5626   2.660   1.611   4.007
 1872SOL    HW2 5627   2.705   1.717   4.123
 1873SOL     OW 5628   2.092   2.490   0.113
 1873SOL    HW1 5629   1.999   2.488   0.150
 1873SOL    HW2 5630   2.093   2.451   0.021
 1874SOL     OW 5631   2.087   2.137   0.996
 1874SOL    HW1 5632   2.122   2.120   1.088
 1874SOL    HW2 5633   1.999   2.092   0.984
 1875SOL     OW 5634   1.881   2.230   0.647
 1875SOL    HW1 5635   1.799   2.273   0.686
 1875SOL    HW2 5636   1.853   2.157   0.584
 1876SOL     OW 5637   2.431   3.137   1.165
 1876SOL    HW1 5638   2.338   3.130   1.128
 1876SOL    HW2 5639   2.442   3.226   1.209
 1877SOL     OW 5640   3.417   3.373   0.703
 1877SOL    HW1 5641   3.360   3.357   0.784
 1877SOL    HW2 5642   3.358   3.383   0.623
 1878SOL     OW 5643   2.997   2.565   0.717
 1878SOL    HW1 5644   3.054   2.643   0.692
 1878SOL    HW2 5645   2.937   2.591   0.793
 1879SOL     OW 5646   3.617   2.469   0.231
 1879SOL    HW1 5647   3.605   2.456   0.132
 1879SOL    HW2 5648   3.587   2.388   0.280
 1880SOL     OW 5649   2.630   3.006   1.023
 1880SOL    HW1 5650   2.552   3.023   1.083
 1880SOL    HW2 5651   2.664   3.093   0.987
 1881SOL     OW 5652   2.712   2.660   1.823
 1881SOL    HW1 5653   2.708   2.736   1.888
 1881SOL    HW2 5654   2.734   2.696   1.732
 1882SOL     OW 5655   2.547   2.874   0.665
 1882SOL    HW1 5656   2.616   2.858   0.735
 1882SOL    HW2 5657   2.474   2.931   0.703
 1883SOL     OW 5658   2.548   3.023   1.803
 1883SOL    HW1 5659   2.608   3.102   1.817
 1883SOL    HW2 5660   2.462   3.054   1.762
 1884SOL     OW 5661   2.197   3.297   1.061
 1884SOL    HW1 5662   2.119   3.266   1.008
 1884SOL    HW2 5663   2.255   3.355   1.004
 1885SOL     OW 5664   3.322   3.367   1.339
 1885SOL    HW1 5665   3.346   3.461   1.365
 1885SOL    HW2 5666   3.306   3.313   1.421
 1886SOL     OW 5667   2.300   2.254   1.499
 1886SOL    HW1 5668   2.382   2.198   1.508
 1886SOL    HW2 5669   2.219   2.196   1.503
 1887SOL     OW 5670   3.465   2.309   0.737
 1887SOL    HW1 5671   3.391   2.355   0.687
 1887SOL    HW2 5672   3.516   2.377   0.790
 1888SOL     OW 5673   2.093   3.575   0.483
 1888SOL    HW1 5674   2.127   3.652   0.537
 1888SOL    HW2 5675   2.137   3.575   0.393
 1889SOL     OW 5676   2.989   3.203   1.690
 1889SOL    HW1 5677   3.036   3.203   1.778
 1889SOL    HW2 5678   2.941   3.116   1.679
 1890SOL     OW 5679   2.092   3.296   0.538
 1890SOL    HW1 5680   2.066   3.392   0.538
 1890SOL    HW2 5681   2.021   3.242   0.583
 1891SOL     OW 5682   2.102   2.953   0.886
 1891SOL    HW1 5683   2.116   2.869   0.938
 1891SOL    HW2 5684   2.047   3.017   0.941
 1892SOL     OW 5685   2.482   3.648   1.439
 1892SOL    HW1 5686   2.390   3.631   1.474
 1892SOL    HW2 5687   2.510   3.740   1.465
 1893SOL     OW 5688   2.468   2.826   0.123
 1893SOL    HW1 5689   2.475   2.910   0.069
 1893SOL    HW2 5690   2.514   2.839   0.211
 1894SOL     OW 5691   3.456   1.976   1.480
 1894SOL    HW1 5692   3.438   2.043   1.408
 1894SOL    HW2 5693   3.453   2.022   1.569
 1895SOL     OW 5694   1.984   2.505   0.563
 1895SOL    HW1 5695   1.939   2.417   0.580
 1895SOL    HW2 5696   1.983   2.559   0.647
 1896SOL     OW 5697   3.704   3.629   0.359
 1896SOL    HW1 5698   3.758   3.600   0.439
 1896SOL    HW2 5699   3.734   3.719   0.330
 1897SOL     OW 5700   3.551   2.784   0.612
 1897SOL    HW1 5701   3.646   2.755   0.620
 1897SOL    HW2 5702   3.543   2.849   0.537
 1898SOL     OW 5703   3.503   2.970   0.432
 1898SOL    HW1 5704   3.589   2.972   0.380
 1898SOL    HW2 5705   3.517   3.017   0.520
 1899SOL     OW 5706   1.975   2.599   1.597
 1899SOL    HW1 5707   2.063   2.586   1.642
 1899SOL    HW2 5708   1.962   2.696   1.575
 1900SOL     OW 5709   2.475   3.227   0.726
 1900SOL    HW1 5710   2.426   3.140   0.735
 1900SOL    HW2 5711   2.452   3.270   0.639
 1901SOL     OW 5712   3.155   3.090   1.423
 1901SOL    HW1 5713   3.192   3.017   1.365
 1901SOL    HW2 5714   3.207   3.095   1.508
 1902SOL     OW 5715   2.671   1.866   0.502
 1902SOL    HW1 5716   2.711   1.957   0.493
 1902SOL    HW2 5717   2.571   1.874   0.508
 1903SOL     OW 5718   2.059   2.838   1.264
 1903SOL    HW1 5719   2.148   2.793   1.250
 1903SOL    HW2 5720   1.986   2.773   1.245
 1904SOL     OW 5721   3.387   2.861   0.190
 1904SOL    HW1 5722   3.324   2.785   0.203
 1904SOL    HW2 5723   3.435   2.879   0.276
 1905SOL     OW 5724   3.049   3.654   1.616
 1905SOL    HW1 5725   3.073   3.714   1.540
 1905SOL    HW2 5726   3.056   3.559   1.586
 1906SOL     OW 5727   2.179   2.113   1.801
 1906SOL    HW1 5728   2.250   2.184   1.807
 1906SOL    HW2 5729   2.091   2.152   1.829
 1907SOL     OW 5730   3.328   3.279   0.953
 1907SOL    HW1 5731   3.269   3.285   1.033
 1907SOL    HW2 5732   3.313   3.191   0.907
 1908SOL     OW 5733   3.529   3.576   0.572
 1908SOL    HW1 5734   3.488   3.553   0.484
 1908SOL    HW2 5735   3.511   3.502   0.637
 1909SOL     OW 5736   2.460   2.591   0.270
 1909SOL    HW1 5737   2.484   2.660   0.202
 1909SOL    HW2 5738   2.382   2.624   0.324
 1910SOL     OW 5739   3.143   2.207   0.944
 1910SOL    HW1 5740   3.057   2.157   0.931
 1910SOL    HW2 5741   3.205   2.153   1.000
 1911SOL     OW 5742   3.438   3.524   0.307
 1911SOL    HW1 5743   3.527   3.570   0.310
 1911SOL    HW2 5744   3.417   3.500   0.212
 1912SOL     OW 5745   2.669   2.467   1.465
 1912SOL    HW1 5746   2.622   2.464   1.554
 1912SOL    HW2 5747   2.618   2.412   1.399
 1913SOL     OW 5748   3.256   2.331   1.674
 1913SOL    HW1 5749   3.236   2.374   1.762
 1913SOL    HW2 5750   3.334   2.269   1.683
 1914SOL     OW 5751   2.835   2.752   1.572
 1914SOL    HW1 5752   2.881   2.668   1.543
 1914SOL    HW2 5753   2.779   2.786   1.497
 1915SOL     OW 5754   2.853   2.272   1.242
 1915SOL    HW1 5755   2.776   2.306   1.296
 1915SOL    HW2 5756   2.819   2.221   1.163
 1916SOL     OW 5757   2.903   2.563   0.429
 1916SOL    HW1 5758   2.929   2.559   0.525
 1916SOL    HW2 5759   2.818   2.512   0.415
 1917SOL     OW 5760   1.938   2.673   0.789
 1917SOL    HW1 5761   2.037   2.661   0.798
 1917SOL    HW2 5762   1.914   2.768   0.810
 1918SOL     OW 5763   1.992   3.683   1.571
 1918SOL    HW1 5764   1.982   3.668   1.670
 1918SOL    HW2 5765   1.906   3.719   1.535
 1919SOL     OW 5766   2.727   2.210   0.195
 1919SOL    HW1 5767   2.786   2.273   0.146
 1919SOL    HW2 5768   2.746   2.116   0.166
 1920SOL     OW 5769   3.581   2.447   1.831
 1920SOL    HW1 5770   3.555   2.536   1.795
 1920SOL    HW2 5771   3.579   2.379   1.758
 1921SOL     OW 5772   3.224   3.006   0.545
 1921SOL    HW1 5773   3.307   2.977   0.497
 1921SOL    HW2 5774   3.175   3.073   0.489
 1922SOL     OW 5775   2.412   2.058   0.885
 1922SOL    HW1 5776   2.407   2.053   0.985
 1922SOL    HW2 5777   2.414   2.154   0.856
 1923SOL     OW 5778   2.870   3.318   0.477
 1923SOL    HW1 5779   2.824   3.390   0.425
 1923SOL    HW2 5780   2.866   3.338   0.575
 1924SOL     OW 5781   2.213   3.663   0.853
 1924SOL    HW1 5782   2.263   3.577   0.859
 1924SOL    HW2 5783   2.278   3.740   0.850
 1925SOL     OW 5784   3.657   2.928   0.873
 1925SOL    HW1 5785   3.595   2.913   0.797
 1925SOL    HW2 5786   3.605   2.939   0.958
 1926SOL     OW 5787   3.089   3.412   1.506
 1926SOL    HW1 5788   3.095   3.335   1.570
 1926SOL    HW2 5789   3.037   3.386   1.426
 1927SOL     OW 5790   2.183   2.805   0.242
 1927SOL    HW1 5791   2.265   2.844   0.200
 1927SOL    HW2 5792   2.156   2.723   0.193
 1928SOL     OW 5793   3.320   2.597   0.728
 1928SOL    HW1 5794   3.315   2.532   0.803
 1928SOL    HW2 5795   3.400   2.656   0.741
 1929SOL     OW 5796   2.323   3.128   1.727
 1929SOL    HW1 5797   2.273   3.129   1.641
 1929SOL    HW2 5798   2.260   3.110   1.803
 1930SOL     OW 5799   2.973   3.638   0.237
 1930SOL    HW1 5800   2.913   3.576   0.287
 1930SOL    HW2 5801   3.004   3.594   0.152
 1931SOL     OW 5802   2.064   2.147   1.498
 1931SOL    HW1 5803   1.984   2.207   1.485
 1931SOL    HW2 5804   2.054   2.098   1.584
 1932SOL     OW 5805   3.494   3.239   0.081
 1932SOL    HW1 5806   3.462   3.333   0.071
 1932SOL    HW2 5807   3.418   3.176   0.069
 1933SOL     OW 5808   2.326   3.605   0.323
 1933SOL    HW1 5809   2.359   3.644   0.409
 1933SOL    HW2 5810   2.402   3.598   0.258
 1934SOL     OW 5811   3.262   1.969   0.426
 1934SOL    HW1 5812   3.238   1.932   0.336
 1934SOL    HW2 5813   3.361   1.985   0.430
 1935SOL     OW 5814   2.111   3.647   1.241
 1935SOL    HW1 5815   2.168   3.582   1.291
 1935SOL    HW2 5816   2.095   3.614   1.148
 1936SOL     OW 5817   2.802   3.560   0.904
 1936SOL    HW1 5818   2.882   3.503   0.925
 1936SOL    HW2 5819   2.753   3.520   0.827
 1937SOL     OW 5820   2.244   2.562   0.480
 1937SOL    HW1 5821   2.289   2.472   0.477
 1937SOL    HW2 5822   2.150   2.551   0.513
 1938SOL     OW 5823   3.409   2.084   1.729
 1938SOL    HW1 5824   3.404   2.121   1.821
 1938SOL    HW2 5825   3.337   2.015   1.717
 1939SOL     OW 5826   2.643   2.126   1.749
 1939SOL    HW1 5827   2.710   2.065   1.792
 1939SOL    HW2 5828   2.570   2.145   1.814
 1940SOL     OW 5829   2.750   3.376   1.195
 1940SOL    HW1 5830   2.727   3.351   1.101
 1940SOL    HW2 5831   2.811   3.307   1.234
 1941SOL     OW 5832   3.213   2.452   1.433
 1941SOL    HW1 5833   3.241   2.409   1.518
 1941SOL    HW2 5834   3.238   2.548   1.434
 1942SOL     OW 5835   2.665   3.264   0.924
 1942SOL    HW1 5836   2.755   3.278   0.882
 1942SOL    HW2 5837   2.594   3.266   0.853
 1943SOL     OW 5838   2.784   2.365   0.899
 1943SOL    HW1 5839   2.759   2.356   0.803
 1943SOL    HW2 5840   2.832   2.283   0.930
 1944SOL     OW 5841   2.401   1.926   0.512
 1944SOL    HW1 5842   2.320   1.927   0.570
 1944SOL    HW2 5843   2.404   2.009   0.457
 1945SOL     OW 5844   3.296   3.050   0.041
 1945SOL    HW1 5845   3.328   2.974   0.098
 1945SOL    HW2 5846   3.204   3.077   0.071
 1946SOL     OW 5847   2.159   1.897   0.171
 1946SOL    HW1 5848   2.208   1.981   0.150
 1946SOL    HW2 5849   2.221   1.832   0.216
 1947SOL     OW 5850   2.797   2.098   0.480
 1947SOL    HW1 5851   2.749   2.139   0.402
 1947SOL    HW2 5852   2.896   2.096   0.461
 1948SOL     OW 5853   2.938   2.545   1.464
 1948SOL    HW1 5854   2.858   2.484   1.467
 1948SOL    HW2 5855   3.019   2.492   1.440
 1949SOL     OW 5856   3.089   3.432   0.793
 1949SOL    HW1 5857   3.110   3.506   0.728
 1949SOL    HW2 5858   3.157   3.432   0.866
 1950SOL     OW 5859   2.321   3.014   0.741
 1950SOL    HW1 5860   2.250   2.987   0.806
 1950SOL    HW2 5861   2.295   2.986   0.648
 1951SOL     OW 5862   3.133   3.659   0.591
 1951SOL    HW1 5863   3.177   3.723   0.527
 1951SOL    HW2 5864   3.083   3.711   0.661
 1952SOL     OW 5865   2.894   2.411   0.016
 1952SOL    HW1 5866   2.853   2.493  -0.023
 1952SOL    HW2 5867   2.958   2.437   0.089
 1953SOL     OW 5868   1.940   2.418   1.386
 1953SOL    HW1 5869   2.032   2.417   1.345
 1953SOL    HW2 5870   1.934   2.492   1.453
 1954SOL     OW 5871   2.423   2.084   1.147
 1954SOL    HW1 5872   2.461   2.000   1.184
 1954SOL    HW2 5873   2.335   2.103   1.191
 1955SOL     OW 5874   2.728   2.316   0.642
 1955SOL    HW1 5875   2.696   2.388   0.580
 1955SOL    HW2 5876   2.752   2.235   0.589
 1956SOL     OW 5877   2.879   1.901   0.753
 1956SOL    HW1 5878   2.807   1.906   0.684
 1956SOL    HW2 5879   2.855   1.832   0.822
 1957SOL     OW 5880   3.291   3.035   0.867
 1957SOL    HW1 5881   3.236   2.951   0.860
 1957SOL    HW2 5882   3.317   3.064   0.775
 1958SOL     OW 5883   3.328   2.452   0.992
 1958SOL    HW1 5884   3.298   2.357   0.999
 1958SOL    HW2 5885   3.401   2.468   1.058
 1959SOL     OW 5886   3.719   2.695   0.377
 1959SOL    HW1 5887   3.761   2.631   0.441
 1959SOL    HW2 5888   3.681   2.644   0.299
 1960SOL     OW 5889   2.350   3.247   0.174
 1960SOL    HW1 5890   2.263   3.232   0.221
 1960SOL    HW2 5891   2.333   3.273   0.079
 1961SOL     OW 5892   3.526   3.142   0.657
 1961SOL    HW1 5893   3.625   3.150   0.671
 1961SOL    HW2 5894   3.481   3.226   0.688
 1962SOL     OW 5895   3.252   2.437   0.078
 1962SOL    HW1 5896   3.198   2.416   0.159
 1962SOL    HW2 5897   3.343   2.396   0.087
 1963SOL     OW 5898   2.389   2.118   0.328
 1963SOL    HW1 5899   2.416   2.059   0.253
 1963SOL    HW2 5900   2.389   2.213   0.297
 1964SOL     OW 5901   3.616   3.085   1.588
 1964SOL    HW1 5902   3.707   3.046   1.575
 1964SOL    HW2 5903   3.624   3.181   1.612
 1965SOL     OW 5904   2.926   3.209   1.340
 1965SOL    HW1 5905   2.846   3.186   1.395
 1965SOL    HW2 5906   3.009   3.183   1.389
 1966SOL     OW 5907   3.454   3.491   1.625
 1966SOL    HW1 5908   3.481   3.525   1.535
 1966SOL    HW2 5909   3.533   3.453   1.671
 1967SOL     OW 5910   2.973   3.057   1.100
 1967SOL    HW1 5911   2.933   3.101   1.181
 1967SOL    HW2 5912   2.932   3.094   1.017
 1968SOL     OW 5913   3.500   2.961   1.079
 1968SOL    HW1 5914   3.505   3.042   1.138
 1968SOL    HW2 5915   3.414   2.963   1.028
 1969SOL     OW 5916   2.777   1.951   1.402
 1969SOL    HW1 5917   2.802   1.931   1.307
 1969SOL    HW2 5918   2.849   2.007   1.444
 1970SOL     OW 5919   2.842   2.978   1.719
 1970SOL    HW1 5920   2.743   2.984   1.729
 1970SOL    HW2 5921   2.865   2.898   1.663
 1971SOL     OW 5922   2.567   2.912   0.368
 1971SOL    HW1 5923   2.553   2.919   0.467
 1971SOL    HW2 5924   2.651   2.861   0.350
 1972SOL     OW 5925   2.272   2.675   1.251
 1972SOL    HW1 5926   2.358   2.687   1.301
 1972SOL    HW2 5927   2.230   2.588   1.278
 1973SOL     OW 5928   3.136   2.248   1.262
 1973SOL    HW1 5929   3.157   2.322   1.326
 1973SOL    HW2 5930   3.047   2.265   1.219
 1974SOL     OW 5931   1.926   3.426   1.331
 1974SOL    HW1 5932   1.880   3.508   1.297
 1974SOL    HW2 5933   2.024   3.445   1.340
 1975SOL     OW 5934   2.229   2.962   0.501
 1975SOL    HW1 5935   2.222   3.045   0.445
 1975SOL    HW2 5936   2.233   2.882   0.441
 1976SOL     OW 5937   2.428   2.399   0.865
 1976SOL    HW1 5938   2.440   2.465   0.791
 1976SOL    HW2 5939   2.474   2.433   0.948
 1977SOL     OW 5940   3.114   3.210   0.388
 1977SOL    HW1 5941   3.164   3.287   0.428
 1977SOL    HW2 5942   3.019   3.212   0.420
 1978SOL     OW 5943   3.134   3.307   1.142
 1978SOL    HW1 5944   3.181   3.320   1.229
 1978SOL    HW2 5945   3.068   3.233   1.151
 1979SOL     OW 5946   3.444   2.501   0.472
 1979SOL    HW1 5947   3.413   2.562   0.545
 1979SOL    HW2 5948   3.494   2.553   0.403
 1980SOL     OW 5949   2.216   3.372   1.329
 1980SOL    HW1 5950   2.195   3.328   1.242
 1980SOL    HW2 5951   2.313   3.398   1.332
 1981SOL     OW 5952   2.264   2.613   1.598
 1981SOL    HW1 5953   2.332   2.668   1.551
 1981SOL    HW2 5954   2.304   2.525   1.625
 1982SOL     OW 5955   3.449   2.641   1.670
 1982SOL    HW1 5956   3.357   2.679   1.665
 1982SOL    HW2 5957   3.509   2.688   1.605
 1983SOL     OW 5958   2.875   1.967   1.770
 1983SOL    HW1 5959   2.881   2.052   1.718
 1983SOL    HW2 5960   2.907   1.891   1.713
 1984SOL     OW 5961   2.366   1.912   1.740
 1984SOL    HW1 5962   2.324   1.855   1.670
 1984SOL    HW2 5963   2.300   1.981   1.772
 1985SOL     OW 5964   2.435   2.732   1.029
 1985SOL    HW1 5965   2.479   2.821   1.020
 1985SOL    HW2 5966   2.372   2.732   1.106
 1986SOL     OW 5967   3.222   2.724   1.045
 1986SOL    HW1 5968   3.147   2.724   0.979
 1986SOL    HW2 5969   3.259   2.632   1.054
 1987SOL     OW 5970   3.071   2.387   0.275
 1987SOL    HW1 5971   3.084   2.303   0.329
 1987SOL    HW2 5972   3.042   2.461   0.335
 1988SOL     OW 5973   2.169   2.075   1.231
 1988SOL    HW1 5974   2.146   2.112   1.321
 1988SOL    HW2 5975   2.139   1.980   1.225
 1989SOL     OW 5976   1.899   3.172   1.282
 1989SOL    HW1 5977   1.952   3.123   1.350
 1989SOL    HW2 5978   1.921   3.270   1.287
 1990SOL     OW 5979   2.594   2.496   1.064
 1990SOL    HW1 5980   2.653   2.470   0.988
 1990SOL    HW2 5981   2.566   2.592   1.053
 1991SOL     OW 5982   3.590   2.797   1.854
 1991SOL    HW1 5983   3.544   2.790   1.765
 1991SOL    HW2 5984   3.528   2.841   1.920
 1992SOL     OW 5985   2.169   1.925   0.618
 1992SOL    HW1 5986   2.158   2.019   0.651
 1992SOL    HW2 5987   2.164   1.862   0.695
 1993SOL     OW 5988   3.484   2.229   0.374
 1993SOL    HW1 5989   3.486   2.153   0.438
 1993SOL    HW2 5990   3.436   2.306   0.414
 1994SOL     OW 5991   2.885   2.628   0.966
 1994SOL    HW1 5992   2.900   2.649   1.062
 1994SOL    HW2 5993   2.855   2.533   0.957
 1995SOL     OW 5994   2.842   3.435   1.700
 1995SOL    HW1 5995   2.822   3.479   1.612
 1995SOL    HW2 5996   2.881   3.344   1.684
 1996SOL     OW 5997   3.721   3.380   1.605
 1996SOL    HW1 5998   3.735   3.407   1.510
 1996SOL    HW2 5999   3.804   3.402   1.658
 1997SOL     OW 6000   2.212   2.760   1.804
 1997SOL    HW1 6001   2.288   2.804   1.852
 1997SOL    HW2 6002   2.247   2.713   1.722
 1998SOL     OW 6003   3.402   2.136   0.125
 1998SOL    HW1 6004   3.341   2.061   0.148
 1998SOL    HW2 6005   3.424   2.188   0.208
 1999SOL     OW 6006   3.165   2.700   0.042
 1999SOL    HW1 6007   3.199   2.607   0.057
 1999SOL    HW2 6008   3.183   2.727  -0.053
 2000SOL     OW 6009   2.930   3.195   0.849
 2000SOL    HW1 6010   2.937   3.111   0.794
 2000SOL    HW2 6011   2.992   3.264   0.813
 2001SOL     OW 6012   2.181   2.672   0.949
 2001SOL    HW1 6013   2.274   2.708   0.954
 2001SOL    HW2 6014   2.175   2.587   1.001
 2002SOL     OW 6015   2.201   2.371   1.006
 2002SOL    HW1 6016   2.149   2.288   0.989
 2002SOL    HW2 6017   2.278   2.376   0.942
 2003SOL     OW 6018   3.000   2.242   1.678
 2003SOL    HW1 6019   2.955   2.305   1.742
 2003SOL    HW2 6020   3.093   2.273   1.661
 2004SOL     OW 6021   3.022   2.069   1.477
 2004SOL    HW1 6022   3.022   2.133   1.554
 2004SOL    HW2 6023   3.050   2.117   1.394
 2005SOL     OW 6024   1.870   3.188   0.200
 2005SOL    HW1 6025   1.777   3.209   0.169
 2005SOL    HW2 6026   1.880   3.089   0.213
 2006SOL     OW 6027   1.950   3.663   0.927
 2006SOL    HW1 6028   1.908   3.577   0.900
 2006SOL    HW2 6029   2.044   3.666   0.893
 2007SOL     OW 6030   2.366   3.430   0.910
 2007SOL    HW1 6031   2.432   3.504   0.919
 2007SOL    HW2 6032   2.410   3.351   0.868
 2008SOL     OW 6033   2.864   2.658   1.238
 2008SOL    HW1 6034   2.905   2.626   1.324
 2008SOL    HW2 6035   2.768   2.631   1.235
 2009SOL     OW 6036   1.902   2.406   1.114
 2009SOL    HW1 6037   1.987   2.373   1.073
 2009SOL    HW2 6038   1.915   2.421   1.212
 2010SOL     OW 6039   2.051   2.382   1.722
 2010SOL    HW1 6040   2.110   2.342   1.652
 2010SOL    HW2 6041   1.993   2.453   1.681
 2011SOL     OW 6042   3.231   2.812   1.660
 2011SOL    HW1 6043   3.270   2.901   1.680
 2011SOL    HW2 6044   3.241   2.792   1.563
 2012SOL     OW 6045   2.677   2.434   0.325
 2012SOL    HW1 6046   2.684   2.345   0.279
 2012SOL    HW2 6047   2.583   2.468   0.317
 2013SOL     OW 6048   3.519   2.466   1.206
 2013SOL    HW1 6049   3.481   2.397   1.268
 2013SOL    HW2 6050   3.601   2.430   1.162
 2014SOL     OW 6051   2.114   3.426   1.744
 2014SOL    HW1 6052   2.084   3.483   1.820
 2014SOL    HW2 6053   2.107   3.329   1.770
 2015SOL     OW 6054   2.533   2.326   1.269
 2015SOL    HW1 6055   2.499   2.237   1.239
 2015SOL    HW2 6056   2.559   2.380   1.189
 2016SOL     OW 6057   2.792   3.540   1.465
 2016SOL    HW1 6058   2.768   3.522   1.370
 2016SOL    HW2 6059   2.822   3.634   1.475
 2017SOL     OW 6060   2.335   2.362   0.191
 2017SOL    HW1 6061   2.396   2.442   0.195
 2017SOL    HW2 6062   2.240   2.393   0.198
 2018SOL     OW 6063   2.021   2.999   1.466
 2018SOL    HW1 6064   2.043   2.938   1.542
 2018SOL    HW2 6065   2.031   2.950   1.380
 2019SOL     OW 6066   3.209   2.921   1.234
 2019SOL    HW1 6067   3.233   2.858   1.160
 2019SOL    HW2 6068   3.119   2.961   1.216
 2020SOL     OW 6069   3.164   2.717   0.309
 2020SOL    HW1 6070   3.078   2.686   0.351
 2020SOL    HW2 6071   3.160   2.703   0.210
 2021SOL     OW 6072   3.621   3.609   1.154
 2021SOL    HW1 6073   3.682   3.639   1.081
 2021SOL    HW2 6074   3.583   3.520   1.132
 2022SOL     OW 6075   3.114   3.593   1.128
 2022SOL    HW1 6076   3.198   3.598   1.074
 2022SOL    HW2 6077   3.091   3.497   1.146
 2023SOL     OW 6078   1.945   3.120   1.022
 2023SOL    HW1 6079   1.940   3.119   1.122
 2023SOL    HW2 6080   1.862   3.079   0.984
 2024SOL     OW 6081   2.550   3.524   1.716
 2024SOL    HW1 6082   2.494   3.605   1.725
 2024SOL    HW2 6083   2.602   3.528   1.630
 2025SOL     OW 6084   2.765   1.948   0.133
 2025SOL    HW1 6085   2.816   1.949   0.047
 2025SOL    HW2 6086   2.821   1.906   0.204
 2026SOL     OW 6087   3.588   1.997   0.523
 2026SOL    HW1 6088   3.661   1.980   0.456
 2026SOL    HW2 6089   3.557   1.910   0.561
 2027SOL     OW 6090   3.250   3.435   0.477
 2027SOL    HW1 6091   3.317   3.447   0.403
 2027SOL    HW2 6092   3.210   3.524   0.500
 2028SOL     OW 6093   1.992   3.656   1.851
 2028SOL    HW1 6094   1.951   3.582   1.904
 2028SOL    HW2 6095   2.056   3.707   1.909
 2029SOL     OW 6096   3.142   2.789   0.672
 2029SOL    HW1 6097   3.202   2.708   0.674
 2029SOL    HW2 6098   3.182   2.858   0.612
 2030SOL     OW 6099   2.692   3.135   1.422
 2030SOL    HW1 6100   2.687   3.168   1.517
 2030SOL    HW2 6101   2.606   3.154   1.376
 2031SOL     OW 6102   2.534   3.478   0.154
 2031SOL    HW1 6103   2.543   3.488   0.055
 2031SOL    HW2 6104   2.494   3.389   0.175
 2032SOL     OW 6105   3.512   3.582   1.394
 2032SOL    HW1 6106   3.565   3.592   1.310
 2032SOL    HW2 6107   3.485   3.672   1.428
 2033SOL     OW 6108   3.703   2.037   0.963
 2033SOL    HW1 6109   3.742   1.952   0.927
 2033SOL    HW2 6110   3.605   2.039   0.944
 2034SOL     OW 6111   2.125   2.188   0.720
 2034SOL    HW1 6112   2.046   2.239   0.686
 2034SOL    HW2 6113   2.116   2.173   0.818
 2035SOL     OW 6114   3.056   3.474   0.031
 2035SOL    HW1 6115   3.062   3.381   0.068
 2035SOL    HW2 6116   2.997   3.474  -0.049
 2036SOL     OW 6117   2.684   2.864   1.372
 2036SOL    HW1 6118   2.724   2.863   1.280
 2036SOL    HW2 6119   2.694   2.956   1.412
 2037SOL     OW 6120   2.778   2.772   0.291
 2037SOL    HW1 6121   2.841   2.810   0.223
 2037SOL    HW2 6122   2.818   2.689   0.330
 2038SOL     OW 6123   3.366   3.469   0.044
 2038SOL    HW1 6124   3.274   3.506   0.051
 2038SOL    HW2 6125   3.404   3.489  -0.046
 2039SOL     OW 6126   2.234   3.150   1.490
 2039SOL    HW1 6127   2.221   3.243   1.456
 2039SOL    HW2 6128   2.150   3.098   1.477
 2040SOL     OW 6129   3.476   3.154   1.289
 2040SOL    HW1 6130   3.536   3.157   1.369
 2040SOL    HW2 6131   3.401   3.218   1.302
 2041SOL     OW 6132   2.901   2.960   0.696
 2041SOL    HW1 6133   2.831   2.913   0.750
 2041SOL    HW2 6134   2.960   2.892   0.653
 2042SOL     OW 6135   2.876   2.098   0.971
 2042SOL    HW1 6136   2.868   2.062   0.878
 2042SOL    HW2 6137   2.874   2.022   1.036
 2043SOL     OW 6138   2.452   3.349   0.491
 2043SOL    HW1 6139   2.494   3.291   0.421
 2043SOL    HW2 6140   2.408   3.428   0.447
 2044SOL     OW 6141   3.571   2.247   1.381
 2044SOL    HW1 6142   3.644   2.316   1.385
 2044SOL    HW2 6143   3.599   2.172   1.322
 2045SOL     OW 6144   2.117   3.210   0.290
 2045SOL    HW1 6145   2.021   3.211   0.263
 2045SOL    HW2 6146   2.129   3.263   0.374
 2046SOL     OW 6147   1.967   2.875   1.726
 2046SOL    HW1 6148   1.890   2.842   1.780
 2046SOL    HW2 6149   2.052   2.845   1.768
 2047SOL     OW 6150   2.534   2.065   1.489
 2047SOL    HW1 6151   2.624   2.049   1.449
 2047SOL    HW2 6152   2.542   2.070   1.588
 2048SOL     OW 6153   3.302   2.718   1.398
 2048SOL    HW1 6154   3.245   2.770   1.335
 2048SOL    HW2 6155   3.398   2.730   1.374
 2049SOL     OW 6156   1.934   2.028   0.318
 2049SOL    HW1 6157   1.917   2.111   0.264
 2049SOL    HW2 6158   2.024   1.991   0.296
 2050SOL     OW 6159   3.045   3.197   0.119
 2050SOL    HW1 6160   2.946   3.186   0.121
 2050SOL    HW2 6161   3.079   3.212   0.212
 2051SOL     OW 6162   2.475   2.704   1.431
 2051SOL    HW1 6163   2.531   2.785   1.414
 2051SOL    HW2 6164   2.534   2.624   1.434
 2052SOL     OW 6165   3.355   3.629   0.959
 2052SOL    HW1 6166   3.388   3.693   0.890
 2052SOL    HW2 6167   3.421   3.623   1.034
 2053SOL     OW 6168   2.578   2.427   1.708
 2053SOL    HW1 6169   2.597   2.492   1.782
 2053SOL    HW2 6170   2.638   2.347   1.717
 2054SOL     OW 6171   3.312   3.082   1.633
 2054SOL    HW1 6172   3.303   3.072   1.732
 2054SOL    HW2 6173   3.408   3.075   1.607
 2055SOL     OW 6174   2.252   3.603   1.560
 2055SOL    HW1 6175   2.161   3.644   1.558
 2055SOL    HW2 6176   2.245   3.509   1.592
 2056SOL     OW 6177   3.536   2.745   1.254
 2056SOL    HW1 6178   3.509   2.656   1.217
 2056SOL    HW2 6179   3.537   2.813   1.181
 2057SOL     OW 6180   3.087   2.187   0.449
 2057SOL    HW1 6181   3.152   2.113   0.438
 2057SOL    HW2 6182   3.107   2.237   0.533
 2058SOL     OW 6183   2.456   2.607   0.652
 2058SOL    HW1 6184   2.506   2.692   0.633
 2058SOL    HW2 6185   2.368   2.609   0.604
 2059SOL     OW 6186   3.639   2.204   1.642
 2059SOL    HW1 6187   3.622   2.235   1.548
 2059SOL    HW2 6188   3.555   2.167   1.680
 2060SOL     OW 6189   3.592   2.796   1.517
 2060SOL    HW1 6190   3.630   2.887   1.532
 2060SOL    HW2 6191   3.584   2.779   1.418
 2061SOL     OW 6192   2.721   3.236   0.016
 2061SOL    HW1 6193   2.675   3.251   0.104
 2061SOL    HW2 6194   2.765   3.321  -0.014
 2062SOL     OW 6195   2.523   3.652   0.953
 2062SOL    HW1 6196   2.477   3.740   0.940
 2062SOL    HW2 6197   2.622   3.664   0.946
 2063SOL     OW 6198   2.721   2.818   0.861
 2063SOL    HW1 6199   2.775   2.749   0.909
 2063SOL    HW2 6200   2.689   2.887   0.927
 2064SOL     OW 6201   2.945   2.846   0.087
 2064SOL    HW1 6202   2.922   2.899   0.005
 2064SOL    HW2 6203   3.026   2.790   0.068
 2065SOL     OW 6204   3.723   3.431   0.851
 2065SOL    HW1 6205   3.652   3.419   0.781
 2065SOL    HW2 6206   3.724   3.352   0.911
 2066SOL     OW 6207   2.083   3.176   1.844
 2066SOL    HW1 6208   2.018   3.103   1.823
 2066SOL    HW2 6209   2.087   3.190   1.942
 2067SOL     OW 6210   1.941   3.102   0.653
 2067SOL    HW1 6211   1.940   3.055   0.741
 2067SOL    HW2 6212   2.023   3.074   0.602
 2068SOL     OW 6213   2.534   3.253   1.624
 2068SOL    HW1 6214   2.456   3.203   1.662
 2068SOL    HW2 6215   2.531   3.348   1.655
 2069SOL     OW 6216   3.686   2.054   1.227
 2069SOL    HW1 6217   3.682   1.964   1.271
 2069SOL    HW2 6218   3.689   2.043   1.128
 2070SOL     OW 6219   2.290   2.286   0.520
 2070SOL    HW1 6220   2.320   2.214   0.458
 2070SOL    HW2 6221   2.251   2.246   0.603
 2071SOL     OW 6222   3.567   3.349   1.104
 2071SOL    HW1 6223   3.474   3.324   1.077
 2071SOL    HW2 6224   3.593   3.299   1.186
 2072SOL     OW 6225   2.179   2.409   1.280
 2072SOL    HW1 6226   2.217   2.350   1.352
 2072SOL    HW2 6227   2.219   2.383   1.192
 2073SOL     OW 6228   2.674   3.448   0.687
 2073SOL    HW1 6229   2.706   3.458   0.593
 2073SOL    HW2 6230   2.595   3.386   0.689
 2074SOL     OW 6231   3.286   2.076   1.112
 2074SOL    HW1 6232   3.338   2.011   1.167
 2074SOL    HW2 6233   3.237   2.139   1.173
 2075SOL     OW 6234   2.863   1.896   1.154
 2075SOL    HW1 6235   2.800   1.824   1.123
 2075SOL    HW2 6236   2.956   1.860   1.154
 2076SOL     OW 6237   2.632   3.192   0.301
 2076SOL    HW1 6238   2.586   3.105   0.318
 2076SOL    HW2 6239   2.723   3.189   0.342
 2077SOL     OW 6240   2.480   3.429   1.284
 2077SOL    HW1 6241   2.475   3.511   1.341
 2077SOL    HW2 6242   2.569   3.426   1.239
 2078SOL     OW 6243   3.214   1.914   0.168
 2078SOL    HW1 6244   3.249   1.873   0.084
 2078SOL    HW2 6245   3.124   1.876   0.188
 2079SOL     OW 6246   3.162   2.315   0.691
 2079SOL    HW1 6247   3.103   2.395   0.695
 2079SOL    HW2 6248   3.177   2.280   0.784
 2080SOL     OW 6249   3.455   2.083   0.882
 2080SOL    HW1 6250   3.371   2.082   0.936
 2080SOL    HW2 6251   3.457   2.166   0.826
 2081SOL     OW 6252   1.901   2.939   0.300
 2081SOL    HW1 6253   2.000   2.928   0.291
 2081SOL    HW2 6254   1.861   2.853   0.332
 2082SOL     OW 6255   2.737   3.508   0.337
 2082SOL    HW1 6256   2.660   3.473   0.283
 2082SOL    HW2 6257   2.705   3.579   0.399
 2083SOL     OW 6258   2.092   2.490   1.975
 2083SOL    HW1 6259   1.999   2.488   2.012
 2083SOL    HW2 6260   2.093   2.451   1.883
 2084SOL     OW 6261   2.087   2.137   2.858
 2084SOL    HW1 6262   2.122   2.120   2.950
 2084SOL    HW2 6263   1.999   2.092   2.846
 2085SOL     OW 6264   1.881   2.230   2.509
 2085SOL    HW1 6265   1.799   2.273   2.548
 2085SOL    HW2 6266   1.853   2.157   2.446
 2086SOL     OW 6267   2.431   3.137   3.027
 2086SOL    HW1 6268   2.338   3.130   2.990
 2086SOL    HW2 6269   2.442   3.226   3.071
 2087SOL     OW 6270   3.417   3.373   2.565
 2087SOL    HW1 6271   3.360   3.357   2.646
 2087SOL    HW2 6272   3.358   3.383   2.485
 2088SOL     OW 6273   2.997   2.565   2.579
 2088SOL    HW1 6274   3.054   2.643   2.554
 2088SOL    HW2 6275   2.937   2.591   2.655
 2089SOL     OW 6276   3.617   2.469   2.093
 2089SOL    HW1 6277   3.605   2.456   1.994
 2089SOL    HW2 6278   3.587   2.388   2.142
 2090SOL     OW 6279   2.630   3.006   2.885
 2090SOL    HW1 6280   2.552   3.023   2.945
 2090SOL    HW2 6281   2.664   3.093   2.849
 2091SOL     OW 6282   2.712   2.660   3.685
 2091SOL    HW1 6283   2.708   2.736   3.750
 2091SOL    HW2 6284   2.734   2.696   3.594
 2092SOL     OW 6285   2.547   2.874   2.527
 2092SOL    HW1 6286   2.616   2.858   2.597
 2092SOL    HW2 6287   2.474   2.931   2.565
 2093SOL     OW 6288   2.548   3.023   3.665
 2093SOL    HW1 6289   2.608   3.102   3.679
 2093SOL    HW2 6290   2.462   3.054   3.624
 2094SOL     OW 6291   2.197   3.297   2.923
 2094SOL    HW1 6292   2.119   3.266   2.870
 2094SOL    HW2 6293   2.255   3.355   2.866
 2095SOL     OW 6294   3.322   3.367   3.201
 2095SOL    HW1 6295   3.346   3.461   3.227
 2095SOL    HW2 6296   3.306   3.313   3.283
 2096SOL     OW 6297   2.300   2.254   3.361
 2096SOL    HW1 6298   2.382   2.198   3.370
 2096SOL    HW2 6299   2.219   2.196   3.365
 2097SOL     OW 6300   3.465   2.309   2.599
 2097SOL    HW1 6301   3.391   2.355   2.549
 2097SOL    HW2 6302   3.516   2.377   2.652
 2098SOL     OW 6303   2.093   3.575   2.345
 2098SOL    HW1 6304   2.127   3.652   2.399
 2098SOL    HW2 6305   2.137   3.575   2.255
 2099SOL     OW 6306   2.989   3.203   3.552
 2099SOL    HW1 6307   3.036   3.203   3.640
 2099SOL    HW2 6308   2.941   3.116   3.541
 2100SOL     OW 6309   2.092   3.296   2.400
 2100SOL    HW1 6310   2.066   3.392   2.400
 2100SOL    HW2 6311   2.021   3.242   2.445
 2101SOL     OW 6312   2.102   2.953   2.748
 2101SOL    HW1 6313   2.116   2.869   2.800
 2101SOL    HW2 6314   2.047   3.017   2.803
 2102SOL     OW 6315   2.482   3.648   3.301
 2102SOL    HW1 6316   2.390   3.631   3.336
 2102SOL    HW2 6317   2.510   3.740   3.327
 2103SOL     OW 6318   2.468   2.826   1.985
 2103SOL    HW1 6319   2.475   2.910   1.931
 2103SOL    HW2 6320   2.514   2.839   2.073
 2104SOL     OW 6321   3.456   1.976   3.342
 2104SOL    HW1 6322   3.438   2.043   3.270
 2104SOL    HW2 6323   3.453   2.022   3.431
 2105SOL     OW 6324   1.984   2.505   2.425
 2105SOL    HW1 6325   1.939   2.417   2.442
 2105SOL    HW2 6326   1.983   2.559   2.509
 2106SOL     OW 6327   3.704   3.629   2.221
 2106SOL    HW1 6328   3.758   3.600   2.301
 2106SOL    HW2 6329   3.734   3.719   2.192
 2107SOL     OW 6330   1.889   3.458   1.979
 2107SOL    HW1 6331   1.870   3.362   2.000
 2107SOL    HW2 6332   1.856   3.516   2.054
 2108SOL     OW 6333   3.551   2.784   2.474
 2108SOL    HW1 6334   3.646   2.755   2.482
 2108SOL    HW2 6335   3.543   2.849   2.399
 2109SOL     OW 6336   3.503   2.970   2.294
 2109SOL    HW1 6337   3.589   2.972   2.242
 2109SOL    HW2 6338   3.517   3.017   2.382
 2110SOL     OW 6339   1.975   2.599   3.459
 2110SOL    HW1 6340   2.063   2.586   3.504
 2110SOL    HW2 6341   1.962   2.696   3.437
 2111SOL     OW 6342   2.475   3.227   2.588
 2111SOL    HW1 6343   2.426   3.140   2.597
 2111SOL    HW2 6344   2.452   3.270   2.501
 2112SOL     OW 6345   3.155   3.090   3.285
 2112SOL    HW1 6346   3.192   3.017   3.227
 2112SOL    HW2 6347   3.207   3.095   3.370
 2113SOL     OW 6348   2.671   1.866   2.364
 2113SOL    HW1 6349   2.711   1.957   2.355
 2113SOL    HW2 6350   2.571   1.874   2.370
 2114SOL     OW 6351   2.059   2.838   3.126
 2114SOL    HW1 6352   2.148   2.793   3.112
 2114SOL    HW2 6353   1.986   2.773   3.107
 2115SOL     OW 6354   3.387   2.861   2.052
 2115SOL    HW1 6355   3.324   2.785   2.065
 2115SOL    HW2 6356   3.435   2.879   2.138
 2116SOL     OW 6357   3.049   3.654   3.478
 2116SOL    HW1 6358   3.073   3.714   3.402
 2116SOL    HW2 6359   3.056   3.559   3.448
 2117SOL     OW 6360   2.179   2.113   3.663
 2117SOL    HW1 6361   2.250   2.184   3.669
 2117SOL    HW2 6362   2.091   2.152   3.691
 2118SOL     OW 6363   3.328   3.279   2.815
 2118SOL    HW1 6364   3.269   3.285   2.895
 2118SOL    HW2 6365   3.313   3.191   2.769
 2119SOL     OW 6366   3.529   3.576   2.434
 2119SOL    HW1 6367   3.488   3.553   2.346
 2119SOL    HW2 6368   3.511   3.502   2.499
 2120SOL     OW 6369   2.460   2.591   2.132
 2120SOL    HW1 6370   2.484   2.660   2.064
 2120SOL    HW2 6371   2.382   2.624   2.186
 2121SOL     OW 6372   3.143   2.207   2.806
 2121SOL    HW1 6373   3.057   2.157   2.793
 2121SOL    HW2 6374   3.205   2.153   2.862
 2122SOL     OW 6375   3.438   3.524   2.169
 2122SOL    HW1 6376   3.527   3.570   2.172
 2122SOL    HW2 6377   3.417   3.500   2.074
 2123SOL     OW 6378   2.669   2.467   3.327
 2123SOL    HW1 6379   2.622   2.464   3.416
 2123SOL    HW2 6380   2.618   2.412   3.261
 2124SOL     OW 6381   3.256   2.331   3.536
 2124SOL    HW1 6382   3.236   2.374   3.624
 2124SOL    HW2 6383   3.334   2.269   3.545
 2125SOL     OW 6384   2.835   2.752   3.434
 2125SOL    HW1 6385   2.881   2.668   3.405
 2125SOL    HW2 6386   2.779   2.786   3.359
 2126SOL     OW 6387   2.853   2.272   3.104
 2126SOL    HW1 6388   2.776   2.306   3.158
 2126SOL    HW2 6389   2.819   2.221   3.025
 2127SOL     OW 6390   2.903   2.563   2.291
 2127SOL    HW1 6391   2.929   2.559   2.387
 2127SOL    HW2 6392   2.818   2.512   2.277
 2128SOL     OW 6393   1.938   2.673   2.651
 2128SOL    HW1 6394   2.037   2.661   2.660
 2128SOL    HW2 6395   1.914   2.768   2.672
 2129SOL     OW 6396   1.992   3.683   3.433
 2129SOL    HW1 6397   1.982   3.668   3.532
 2129SOL    HW2 6398   1.906   3.719   3.397
 2130SOL     OW 6399   2.727   2.210   2.057
 2130SOL    HW1 6400   2.786   2.273   2.008
 2130SOL    HW2 6401   2.746   2.116   2.028
 2131SOL     OW 6402   3.581   2.447   3.693
 2131SOL    HW1 6403   3.555   2.536   3.657
 2131SOL    HW2 6404   3.579   2.379   3.620
 2132SOL     OW 6405   3.224   3.006   2.407
 2132SOL    HW1 6406   3.307   2.977   2.359
 2132SOL    HW2 6407   3.175   3.073   2.351
 2133SOL     OW 6408   2.412   2.058   2.747
 2133SOL    HW1 6409   2.407   2.053   2.847
 2133SOL    HW2 6410   2.414   2.154   2.718
 2134SOL     OW 6411   2.870   3.318   2.339
 2134SOL    HW1 6412   2.824   3.390   2.287
 2134SOL    HW2 6413   2.866   3.338   2.437
 2135SOL     OW 6414   2.213   3.663   2.715
 2135SOL    HW1 6415   2.263   3.577   2.721
 2135SOL    HW2 6416   2.278   3.740   2.712
 2136SOL     OW 6417   3.657   2.928   2.735
 2136SOL    HW1 6418   3.595   2.913   2.659
 2136SOL    HW2 6419   3.605   2.939   2.820
 2137SOL     OW 6420   3.089   3.412   3.368
 2137SOL    HW1 6421   3.095   3.335   3.432
 2137SOL    HW2 6422   3.037   3.386   3.288
 2138SOL     OW 6423   2.183   2.805   2.104
 2138SOL    HW1 6424   2.265   2.844   2.062
 2138SOL    HW2 6425   2.156   2.723   2.055
 2139SOL     OW 6426   3.320   2.597   2.590
 2139SOL    HW1 6427   3.315   2.532   2.665
 2139SOL    HW2 6428   3.400   2.656   2.603
 2140SOL     OW 6429   2.323   3.128   3.589
 2140SOL    HW1 6430   2.273   3.129   3.503
 2140SOL    HW2 6431   2.260   3.110   3.665
 2141SOL     OW 6432   2.973   3.638   2.099
 2141SOL    HW1 6433   2.913   3.576   2.149
 2141SOL    HW2 6434   3.004   3.594   2.014
 2142SOL     OW 6435   2.064   2.147   3.360
 2142SOL    HW1 6436   1.984   2.207   3.347
 2142SOL    HW2 6437   2.054   2.098   3.446
 2143SOL     OW 6438   3.494   3.239   1.943
 2143SOL    HW1 6439   3.462   3.333   1.933
 2143SOL    HW2 6440   3.418   3.176   1.931
 2144SOL     OW 6441   2.326   3.605   2.185
 2144SOL    HW1 6442   2.359   3.644   2.271
 2144SOL    HW2 6443   2.402   3.598   2.120
 2145SOL     OW 6444   3.262   1.969   2.288
 2145SOL    HW1 6445   3.238   1.932   2.198
 2145SOL    HW2 6446   3.361   1.985   2.292
 2146SOL     OW 6447   2.111   3.647   3.103
 2146SOL    HW1 6448   2.168   3.582   3.153
 2146SOL    HW2 6449   2.095   3.614   3.010
 2147SOL     OW 6450   2.802   3.560   2.766
 2147SOL    HW1 6451   2.882   3.503   2.787
 2147SOL    HW2 6452   2.753   3.520   2.689
 2148SOL     OW 6453   3.409   2.084   3.591
 2148SOL    HW1 6454   3.404   2.121   3.683
 2148SOL    HW2 6455   3.337   2.015   3.579
 2149SOL     OW 6456   2.476   1.984   1.979
 2149SOL    HW1 6457   2.574   1.962   1.986
 2149SOL    HW2 6458   2.445   1.967   1.886
 2150SOL     OW 6459   2.643   2.126   3.611
 2150SOL    HW1 6460   2.710   2.065   3.654
 2150SOL    HW2 6461   2.570   2.145   3.676
 2151SOL     OW 6462   2.750   3.376   3.057
 2151SOL    HW1 6463   2.727   3.351   2.963
 2151SOL    HW2 6464   2.811   3.307   3.096
 2152SOL     OW 6465   3.213   2.452   3.295
 2152SOL    HW1 6466   3.241   2.409   3.380
 2152SOL    HW2 6467   3.238   2.548   3.296
 2153SOL     OW 6468   2.665   3.264   2.786
 2153SOL    HW1 6469   2.755   3.278   2.744
 2153SOL    HW2 6470   2.594   3.266   2.715
 2154SOL     OW 6471   2.784   2.365   2.761
 2154SOL    HW1 6472   2.759   2.356   2.665
 2154SOL    HW2 6473   2.832   2.283   2.792
 2155SOL     OW 6474   2.401   1.926   2.374
 2155SOL    HW1 6475   2.320   1.927   2.432
 2155SOL    HW2 6476   2.404   2.009   2.319
 2156SOL     OW 6477   3.296   3.050   1.903
 2156SOL    HW1 6478   3.328   2.974   1.960
 2156SOL    HW2 6479   3.204   3.077   1.933
 2157SOL     OW 6480   2.159   1.897   2.033
 2157SOL    HW1 6481   2.208   1.981   2.012
 2157SOL    HW2 6482   2.221   1.832   2.078
 2158SOL     OW 6483   2.797   2.098   2.342
 2158SOL    HW1 6484   2.749   2.139   2.264
 2158SOL    HW2 6485   2.896   2.096   2.323
 2159SOL     OW 6486   2.938   2.545   3.326
 2159SOL    HW1 6487   2.858   2.484   3.329
 2159SOL    HW2 6488   3.019   2.492   3.302
 2160SOL     OW 6489   3.089   3.432   2.655
 2160SOL    HW1 6490   3.110   3.506   2.590
 2160SOL    HW2 6491   3.157   3.432   2.728
 2161SOL     OW 6492   2.321   3.014   2.603
 2161SOL    HW1 6493   2.250   2.987   2.668
 2161SOL    HW2 6494   2.295   2.986   2.510
 2162SOL     OW 6495   3.133   3.659   2.453
 2162SOL    HW1 6496   3.177   3.723   2.389
 2162SOL    HW2 6497   3.083   3.711   2.523
 2163SOL     OW 6498   2.894   2.411   1.878
 2163SOL    HW1 6499   2.853   2.493   1.839
 2163SOL    HW2 6500   2.958   2.437   1.951
 2164SOL     OW 6501   1.940   2.418   3.248
 2164SOL    HW1 6502   2.032   2.417   3.207
 2164SOL    HW2 6503   1.934   2.492   3.315
 2165SOL     OW 6504   2.423   2.084   3.009
 2165SOL    HW1 6505   2.461   2.000   3.046
 2165SOL    HW2 6506   2.335   2.103   3.053
 2166SOL     OW 6507   2.728   2.316   2.504
 2166SOL    HW1 6508   2.696   2.388   2.442
 2166SOL    HW2 6509   2.752   2.235   2.451
 2167SOL     OW 6510   2.879   1.901   2.615
 2167SOL    HW1 6511   2.807   1.906   2.546
 2167SOL    HW2 6512   2.855   1.832   2.684
 2168SOL     OW 6513   3.291   3.035   2.729
 2168SOL    HW1 6514   3.236   2.951   2.722
 2168SOL    HW2 6515   3.317   3.064   2.637
 2169SOL     OW 6516   3.328   2.452   2.854
 2169SOL    HW1 6517   3.298   2.357   2.861
 2169SOL    HW2 6518   3.401   2.468   2.920
 2170SOL     OW 6519   3.719   2.695   2.239
 2170SOL    HW1 6520   3.761   2.631   2.303
 2170SOL    HW2 6521   3.681   2.644   2.161
 2171SOL     OW 6522   2.350   3.247   2.036
 2171SOL    HW1 6523   2.263   3.232   2.083
 2171SOL    HW2 6524   2.333   3.273   1.941
 2172SOL     OW 6525   3.526   3.142   2.519
 2172SOL    HW1 6526   3.625   3.150   2.533
 2172SOL    HW2 6527   3.481   3.226   2.550
 2173SOL     OW 6528   3.252   2.437   1.940
 2173SOL    HW1 6529   3.198   2.416   2.021
 2173SOL    HW2 6530   3.343   2.396   1.949
 2174SOL     OW 6531   3.616   3.085   3.450
 2174SOL    HW1 6532   3.707   3.046   3.437
 2174SOL    HW2 6533   3.624   3.181   3.474
 2175SOL     OW 6534   2.926   3.209   3.202
 2175SOL    HW1 6535   2.846   3.186   3.257
 2175SOL    HW2 6536   3.009   3.183   3.251
 2176SOL     OW 6537   3.454   3.491   3.487
 2176SOL    HW1 6538   3.481   3.525   3.397
 2176SOL    HW2 6539   3.533   3.453   3.533
 2177SOL     OW 6540   2.973   3.057   2.962
 2177SOL    HW1 6541   2.933   3.101   3.043
 2177SOL    HW2 6542   2.932   3.094   2.879
 2178SOL     OW 6543   3.500   2.961   2.941
 2178SOL    HW1 6544   3.505   3.042   3.000
 2178SOL    HW2 6545   3.414   2.963   2.890
 2179SOL     OW 6546   2.777   1.951   3.264
 2179SOL    HW1 6547   2.802   1.931   3.169
 2179SOL    HW2 6548   2.849   2.007   3.306
 2180SOL     OW 6549   2.842   2.978   3.581
 2180SOL    HW1 6550   2.743   2.984   3.591
 2180SOL    HW2 6551   2.865   2.898   3.525
 2181SOL     OW 6552   2.567   2.912   2.230
 2181SOL    HW1 6553   2.553   2.919   2.329
 2181SOL    HW2 6554   2.651   2.861   2.212
 2182SOL     OW 6555   2.272   2.675   3.113
 2182SOL    HW1 6556   2.358   2.687   3.163
 2182SOL    HW2 6557   2.230   2.588   3.140
 2183SOL     OW 6558   3.136   2.248   3.124
 2183SOL    HW1 6559   3.157   2.322   3.188
 2183SOL    HW2 6560   3.047   2.265   3.081
 2184SOL     OW 6561   1.926   3.426   3.193
 2184SOL    HW1 6562   1.880   3.508   3.159
 2184SOL    HW2 6563   2.024   3.445   3.202
 2185SOL     OW 6564   2.229   2.962   2.363
 2185SOL    HW1 6565   2.222   3.045   2.307
 2185SOL    HW2 6566   2.233   2.882   2.303
 2186SOL     OW 6567   3.114   3.210   2.250
 2186SOL    HW1 6568   3.164   3.287   2.290
 2186SOL    HW2 6569   3.019   3.212   2.282
 2187SOL     OW 6570   3.134   3.307   3.004
 2187SOL    HW1 6571   3.181   3.320   3.091
 2187SOL    HW2 6572   3.068   3.233   3.013
 2188SOL     OW 6573   3.444   2.501   2.334
 2188SOL    HW1 6574   3.413   2.562   2.407
 2188SOL    HW2 6575   3.494   2.553   2.265
 2189SOL     OW 6576   2.216   3.372   3.191
 2189SOL    HW1 6577   2.195   3.328   3.104
 2189SOL    HW2 6578   2.313   3.398   3.194
 2190SOL     OW 6579   2.264   2.613   3.460
 2190SOL    HW1 6580   2.332   2.668   3.413
 2190SOL    HW2 6581   2.304   2.525   3.487
 2191SOL     OW 6582   3.449   2.641   3.532
 2191SOL    HW1 6583   3.357   2.679   3.527
 2191SOL    HW2 6584   3.509   2.688   3.467
 2192SOL     OW 6585   2.875   1.967   3.632
 2192SOL    HW1 6586   2.881   2.052   3.580
 2192SOL    HW2 6587   2.907   1.891   3.575
 2193SOL     OW 6588   2.366   1.912   3.602
 2193SOL    HW1 6589   2.324   1.855   3.532
 2193SOL    HW2 6590   2.300   1.981   3.634
 2194SOL     OW 6591   2.435   2.732   2.891
 2194SOL    HW1 6592   2.479   2.821   2.882
 2194SOL    HW2 6593   2.372   2.732   2.968
 2195SOL     OW 6594   3.222   2.724   2.907
 2195SOL    HW1 6595   3.147   2.724   2.841
 2195SOL    HW2 6596   3.259   2.632   2.916
 2196SOL     OW 6597   3.071   2.387   2.137
 2196SOL    HW1 6598   3.084   2.303   2.191
 2196SOL    HW2 6599   3.042   2.461   2.197
 2197SOL     OW 6600   2.169   2.075   3.093
 2197SOL    HW1 6601   2.146   2.112   3.183
 2197SOL    HW2 6602   2.139   1.980   3.087
 2198SOL     OW 6603   1.899   3.172   3.144
 2198SOL    HW1 6604   1.952   3.123   3.212
 2198SOL    HW2 6605   1.921   3.270   3.149
 2199SOL     OW 6606   2.594   2.496   2.926
 2199SOL    HW1 6607   2.653   2.470   2.850
 2199SOL    HW2 6608   2.566   2.592   2.915
 2200SOL     OW 6609   3.590   2.797   3.716
 2200SOL    HW1 6610   3.544   2.790   3.627
 2200SOL    HW2 6611   3.528   2.841   3.782
 2201SOL     OW 6612   2.169   1.925   2.480
 2201SOL    HW1 6613   2.158   2.019   2.513
 2201SOL    HW2 6614   2.164   1.862   2.557
 2202SOL     OW 6615   3.484   2.229   2.236
 2202SOL    HW1 6616   3.486   2.153   2.300
 2202SOL    HW2 6617   3.436   2.306   2.276
 2203SOL     OW 6618   2.885   2.628   2.828
 2203SOL    HW1 6619   2.900   2.649   2.924
 2203SOL    HW2 6620   2.855   2.533   2.819
 2204SOL     OW 6621   2.842   3.435   3.562
 2204SOL    HW1 6622   2.822   3.479   3.474
 2204SOL    HW2 6623   2.881   3.344   3.546
 2205SOL     OW 6624   3.721   3.380   3.467
 2205SOL    HW1 6625   3.735   3.407   3.372
 2205SOL    HW2 6626   3.804   3.402   3.520
 2206SOL     OW 6627   2.212   2.760   3.666
 2206SOL    HW1 6628   2.288   2.804   3.714
 2206SOL    HW2 6629   2.247   2.713   3.584
 2207SOL     OW 6630   3.402   2.136   1.987
 2207SOL    HW1 6631   3.341   2.061   2.010
 2207SOL    HW2 6632   3.424   2.188   2.070
 2208SOL     OW 6633   3.165   2.700   1.904
 2208SOL    HW1 6634   3.199   2.607   1.919
 2208SOL    HW2 6635   3.183   2.727   1.809
 2209SOL     OW 6636   2.930   3.195   2.711
 2209SOL    HW1 6637   2.937   3.111   2.656
 2209SOL    HW2 6638   2.992   3.264   2.675
 2210SOL     OW 6639   2.181   2.672   2.811
 2210SOL    HW1 6640   2.274   2.708   2.816
 2210SOL    HW2 6641   2.175   2.587   2.863
 2211SOL     OW 6642   2.201   2.371   2.868
 2211SOL    HW1 6643   2.149   2.288   2.851
 2211SOL    HW2 6644   2.278   2.376   2.804
 2212SOL     OW 6645   3.000   2.242   3.540
 2212SOL    HW1 6646   2.955   2.305   3.604
 2212SOL    HW2 6647   3.093   2.273   3.523
 2213SOL     OW 6648   3.022   2.069   3.339
 2213SOL    HW1 6649   3.022   2.133   3.416
 2213SOL    HW2 6650   3.050   2.117   3.256
 2214SOL     OW 6651   1.870   3.188   2.062
 2214SOL    HW1 6652   1.777   3.209   2.031
 2214SOL    HW2 6653   1.880   3.089   2.075
 2215SOL     OW 6654   1.950   3.663   2.789
 2215SOL    HW1 6655   1.908   3.577   2.762
 2215SOL    HW2 6656   2.044   3.666   2.755
 2216SOL     OW 6657   2.366   3.430   2.772
 2216SOL    HW1 6658   2.432   3.504   2.781
 2216SOL    HW2 6659   2.410   3.351   2.730
 2217SOL     OW 6660   2.864   2.658   3.100
 2217SOL    HW1 6661   2.905   2.626   3.186
 2217SOL    HW2 6662   2.768   2.631   3.097
 2218SOL     OW 6663   1.902   2.406   2.976
 2218SOL    HW1 6664   1.987   2.373   2.935
 2218SOL    HW2 6665   1.915   2.421   3.074
 2219SOL     OW 6666   2.051   2.382   3.584
 2219SOL    HW1 6667   2.110   2.342   3.514
 2219SOL    HW2 6668   1.993   2.453   3.543
 2220SOL     OW 6669   3.231   2.812   3.522
 2220SOL    HW1 6670   3.270   2.901   3.542
 2220SOL    HW2 6671   3.241   2.792   3.425
 2221SOL     OW 6672   2.677   2.434   2.187
 2221SOL    HW1 6673   2.684   2.345   2.141
 2221SOL    HW2 6674   2.583   2.468   2.179
 2222SOL     OW 6675   3.519   2.466   3.068
 2222SOL    HW1 6676   3.481   2.397   3.130
 2222SOL    HW2 6677   3.601   2.430   3.024
 2223SOL     OW 6678   2.114   3.426   3.606
 2223SOL    HW1 6679   2.084   3.483   3.682
 2223SOL    HW2 6680   2.107   3.329   3.632
 2224SOL     OW 6681   2.533   2.326   3.131
 2224SOL    HW1 6682   2.499   2.237   3.101
 2224SOL    HW2 6683   2.559   2.380   3.051
 2225SOL     OW 6684   2.792   3.540   3.327
 2225SOL    HW1 6685   2.768   3.522   3.232
 2225SOL    HW2 6686   2.822   3.634   3.337
 2226SOL     OW 6687   2.021   2.999   3.328
 2226SOL    HW1 6688   2.043   2.938   3.404
 2226SOL    HW2 6689   2.031   2.950   3.242
 2227SOL     OW 6690   3.209   2.921   3.096
 2227SOL    HW1 6691   3.233   2.858   3.022
 2227SOL    HW2 6692   3.119   2.961   3.078
 2228SOL     OW 6693   3.164   2.717   2.171
 2228SOL    HW1 6694   3.078   2.686   2.213
 2228SOL    HW2 6695   3.160   2.703   2.072
 2229SOL     OW 6696   3.621   3.609   3.016
 2229SOL    HW1 6697   3.682   3.639   2.943
 2229SOL    HW2 6698   3.583   3.520   2.994
 2230SOL     OW 6699   3.114   3.593   2.990
 2230SOL    HW1 6700   3.198   3.598   2.936
 2230SOL    HW2 6701   3.091   3.497   3.008
 2231SOL     OW 6702   1.945   3.120   2.884
 2231SOL    HW1 6703   1.940   3.119   2.984
 2231SOL    HW2 6704   1.862   3.079   2.846
 2232SOL     OW 6705   2.550   3.524   3.578
 2232SOL    HW1 6706   2.494   3.605   3.587
 2232SOL    HW2 6707   2.602   3.528   3.492
 2233SOL     OW 6708   3.588   1.997   2.385
 2233SOL    HW1 6709   3.661   1.980   2.318
 2233SOL    HW2 6710   3.557   1.910   2.423
 2234SOL     OW 6711   3.250   3.435   2.339
 2234SOL    HW1 6712   3.317   3.447   2.265
 2234SOL    HW2 6713   3.210   3.524   2.362
 2235SOL     OW 6714   1.992   3.656   3.713
 2235SOL    HW1 6715   1.951   3.582   3.766
 2235SOL    HW2 6716   2.056   3.707   3.771
 2236SOL     OW 6717   3.142   2.789   2.534
 2236SOL    HW1 6718   3.202   2.708   2.536
 2236SOL    HW2 6719   3.182   2.858   2.474
 2237SOL     OW 6720   2.692   3.135   3.284
 2237SOL    HW1 6721   2.687   3.168   3.379
 2237SOL    HW2 6722   2.606   3.154   3.238
 2238SOL     OW 6723   2.534   3.478   2.016
 2238SOL    HW1 6724   2.543   3.488   1.917
 2238SOL    HW2 6725   2.494   3.389   2.037
 2239SOL     OW 6726   3.512   3.582   3.256
 2239SOL    HW1 6727   3.565   3.592   3.172
 2239SOL    HW2 6728   3.485   3.672   3.290
 2240SOL     OW 6729   3.703   2.037   2.825
 2240SOL    HW1 6730   3.742   1.952   2.789
 2240SOL    HW2 6731   3.605   2.039   2.806
 2241SOL     OW 6732   2.125   2.188   2.582
 2241SOL    HW1 6733   2.046   2.239   2.548
 2241SOL    HW2 6734   2.116   2.173   2.680
 2242SOL     OW 6735   3.056   3.474   1.893
 2242SOL    HW1 6736   3.062   3.381   1.930
 2242SOL    HW2 6737   2.997   3.474   1.813
 2243SOL     OW 6738   2.684   2.864   3.234
 2243SOL    HW1 6739   2.724   2.863   3.142
 2243SOL    HW2 6740   2.694   2.956   3.274
 2244SOL     OW 6741   2.778   2.772   2.153
 2244SOL    HW1 6742   2.841   2.810   2.085
 2244SOL    HW2 6743   2.818   2.689   2.192
 2245SOL     OW 6744   3.366   3.469   1.906
 2245SOL    HW1 6745   3.274   3.506   1.913
 2245SOL    HW2 6746   3.404   3.489   1.816
 2246SOL     OW 6747   2.234   3.150   3.352
 2246SOL    HW1 6748   2.221   3.243   3.318
 2246SOL    HW2 6749   2.150   3.098   3.339
 2247SOL     OW 6750   3.476   3.154   3.151
 2247SOL    HW1 6751   3.536   3.157   3.231
 2247SOL    HW2 6752   3.401   3.218   3.164
 2248SOL     OW 6753   2.901   2.960   2.558
 2248SOL    HW1 6754   2.831   2.913   2.612
 2248SOL    HW2 6755   2.960   2.892   2.515
 2249SOL     OW 6756   2.876   2.098   2.833
 2249SOL    HW1 6757   2.868   2.062   2.740
 2249SOL    HW2 6758   2.874   2.022   2.898
 2250SOL     OW 6759   2.452   3.349   2.353
 2250SOL    HW1 6760   2.494   3.291   2.283
 2250SOL    HW2 6761   2.408   3.428   2.309
 2251SOL     OW 6762   3.571   2.247   3.243
 2251SOL    HW1 6763   3.644   2.316   3.247
 2251SOL    HW2 6764   3.599   2.172   3.184
 2252SOL     OW 6765   2.117   3.210   2.152
 2252SOL    HW1 6766   2.021   3.211   2.125
 2252SOL    HW2 6767   2.129   3.263   2.236
 2253SOL     OW 6768   1.967   2.875   3.588
 2253SOL    HW1 6769   1.890   2.842   3.642
 2253SOL    HW2 6770   2.052   2.845   3.630
 2254SOL     OW 6771   2.534   2.065   3.351
 2254SOL    HW1 6772   2.624   2.049   3.311
 2254SOL    HW2 6773   2.542   2.070   3.450
 2255SOL     OW 6774   1.937   2.207   1.895
 2255SOL    HW1 6775   1.845   2.179   1.866
 2255SOL    HW2 6776   1.968   2.284   1.839
 2256SOL     OW 6777   3.302   2.718   3.260
 2256SOL    HW1 6778   3.245   2.770   3.197
 2256SOL    HW2 6779   3.398   2.730   3.236
 2257SOL     OW 6780   1.934   2.028   2.180
 2257SOL    HW1 6781   1.917   2.111   2.126
 2257SOL    HW2 6782   2.024   1.991   2.158
 2258SOL     OW 6783   3.045   3.197   1.981
 2258SOL    HW1 6784   2.946   3.186   1.983
 2258SOL    HW2 6785   3.079   3.212   2.074
 2259SOL     OW 6786   2.475   2.704   3.293
 2259SOL    HW1 6787   2.531   2.785   3.276
 2259SOL    HW2 6788   2.534   2.624   3.296
 2260SOL     OW 6789   3.355   3.629   2.821
 2260SOL    HW1 6790   3.388   3.693   2.752
 2260SOL    HW2 6791   3.421   3.623   2.896
 2261SOL     OW 6792   2.578   2.427   3.570
 2261SOL    HW1 6793   2.597   2.492   3.644
 2261SOL    HW2 6794   2.638   2.347   3.579
 2262SOL     OW 6795   3.312   3.082   3.495
 2262SOL    HW1 6796   3.303   3.072   3.594
 2262SOL    HW2 6797   3.408   3.075   3.469
 2263SOL     OW 6798   2.252   3.603   3.422
 2263SOL    HW1 6799   2.161   3.644   3.420
 2263SOL    HW2 6800   2.245   3.509   3.454
 2264SOL     OW 6801   3.536   2.745   3.116
 2264SOL    HW1 6802   3.509   2.656   3.079
 2264SOL    HW2 6803   3.537   2.813   3.043
 2265SOL     OW 6804   3.087   2.187   2.311
 2265SOL    HW1 6805   3.152   2.113   2.300
 2265SOL    HW2 6806   3.107   2.237   2.395
 2266SOL     OW 6807   2.456   2.607   2.514
 2266SOL    HW1 6808   2.506   2.692   2.495
 2266SOL    HW2 6809   2.368   2.609   2.466
 2267SOL     OW 6810   3.639   2.204   3.504
 2267SOL    HW1 6811   3.622   2.235   3.410
 2267SOL    HW2 6812   3.555   2.167   3.542
 2268SOL     OW 6813   3.592   2.796   3.379
 2268SOL    HW1 6814   3.630   2.887   3.394
 2268SOL    HW2 6815   3.584   2.779   3.280
 2269SOL     OW 6816   2.721   3.236   1.878
 2269SOL    HW1 6817   2.675   3.251   1.966
 2269SOL    HW2 6818   2.765   3.321   1.848
 2270SOL     OW 6819   2.523   3.652   2.815
 2270SOL    HW1 6820   2.477   3.740   2.802
 2270SOL    HW2 6821   2.622   3.664   2.808
 2271SOL     OW 6822   2.721   2.818   2.723
 2271SOL    HW1 6823   2.775   2.749   2.771
 2271SOL    HW2 6824   2.689   2.887   2.789
 2272SOL     OW 6825   2.945   2.846   1.949
 2272SOL    HW1 6826   2.922   2.899   1.867
 2272SOL    HW2 6827   3.026   2.790   1.930
 2273SOL     OW 6828   3.723   3.431   2.713
 2273SOL    HW1 6829   3.652   3.419   2.643
 2273SOL    HW2 6830   3.724   3.352   2.773
 2274SOL     OW 6831   2.083   3.176   3.706
 2274SOL    HW1 6832   2.018   3.103   3.685
 2274SOL    HW2 6833   2.087   3.190   3.804
 2275SOL     OW 6834   1.941   3.102   2.515
 2275SOL    HW1 6835   1.940   3.055   2.603
 2275SOL    HW2 6836   2.023   3.074   2.464
 2276SOL     OW 6837   2.534   3.253   3.486
 2276SOL    HW1 6838   2.456   3.203   3.524
 2276SOL    HW2 6839   2.531   3.348   3.517
 2277SOL     OW 6840   3.686   2.054   3.089
 2277SOL    HW1 6841   3.682   1.964   3.133
 2277SOL    HW2 6842   3.689   2.043   2.990
 2278SOL     OW 6843   3.567   3.349   2.966
 2278SOL    HW1 6844   3.474   3.324   2.939
 2278SOL    HW2 6845   3.593   3.299   3.048
 2279SOL     OW 6846   2.179   2.409   3.142
 2279SOL    HW1 6847   2.217   2.350   3.214
 2279SOL    HW2 6848   2.219   2.383   3.054
 2280SOL     OW 6849   2.674   3.448   2.549
 2280SOL    HW1 6850   2.706   3.458   2.455
 2280SOL    HW2 6851   2.595   3.386   2.551
 2281SOL     OW 6852   3.286   2.076   2.974
 2281SOL    HW1 6853   3.338   2.011   3.029
 2281SOL    HW2 6854   3.237   2.139   3.035
 2282SOL     OW 6855   2.863   1.896   3.016
 2282SOL    HW1 6856   2.800   1.824   2.985
 2282SOL    HW2 6857   2.956   1.860   3.016
 2283SOL     OW 6858   2.632   3.192   2.163
 2283SOL    HW1 6859   2.586   3.105   2.180
 2283SOL    HW2 6860   2.723   3.189   2.204
 2284SOL     OW 6861   2.480   3.429   3.146
 2284SOL    HW1 6862   2.475   3.511   3.203
 2284SOL    HW2 6863   2.569   3.426   3.101
 2285SOL     OW 6864   3.214   1.914   2.030
 2285SOL    HW1 6865   3.249   1.873   1.946
 2285SOL    HW2 6866   3.124   1.876   2.050
 2286SOL     OW 6867   3.162   2.315   2.553
 2286SOL    HW1 6868   3.103   2.395   2.557
 2286SOL    HW2 6869   3.177   2.280   2.646
 2287SOL     OW 6870   3.455   2.083   2.744
 2287SOL    HW1 6871   3.371   2.082   2.798
 2287SOL    HW2 6872   3.457   2.166   2.688
 2288SOL     OW 6873   1.901   2.939   2.162
 2288SOL    HW1 6874   2.000   2.928   2.153
 2288SOL    HW2 6875   1.861   2.853   2.194
 2289SOL     OW 6876   2.737   3.508   2.199
 2289SOL    HW1 6877   2.660   3.473   2.145
 2289SOL    HW2 6878   2.705   3.579   2.261
 2290SOL     OW 6879   2.092   2.490   3.837
 2290SOL    HW1 6880   1.999   2.488   3.874
 2290SOL    HW2 6881   2.093   2.451   3.745
 2291SOL     OW 6882   2.087   2.137   4.720
 2291SOL    HW1 6883   2.122   2.120   4.812
 2291SOL    HW2 6884   1.999   2.092   4.708
 2292SOL     OW 6885   1.881   2.230   4.371
 2292SOL    HW1 6886   1.799   2.273   4.410
 2292SOL    HW2 6887   1.853   2.157   4.308
 2293SOL     OW 6888   3.417   3.373   4.427
 2293SOL    HW1 6889   3.360   3.357   4.508
 2293SOL    HW2 6890   3.358   3.383   4.347
 2294SOL     OW 6891   2.997   2.565   4.441
 2294SOL    HW1 6892   3.054   2.643   4.416
 2294SOL    HW2 6893   2.937   2.591   4.517
 2295SOL     OW 6894   3.617   2.469   3.955
 2295SOL    HW1 6895   3.605   2.456   3.856
 2295SOL    HW2 6896   3.587   2.388   4.004
 2296SOL     OW 6897   2.547   2.874   4.389
 2296SOL    HW1 6898   2.616   2.858   4.459
 2296SOL    HW2 6899   2.474   2.931   4.427
 2297SOL     OW 6900   3.465   2.309   4.461
 2297SOL    HW1 6901   3.391   2.355   4.411
 2297SOL    HW2 6902   3.516   2.377   4.514
 2298SOL     OW 6903   2.093   3.575   4.207
 2298SOL    HW1 6904   2.127   3.652   4.261
 2298SOL    HW2 6905   2.137   3.575   4.117
 2299SOL     OW 6906   2.092   3.296   4.262
 2299SOL    HW1 6907   2.066   3.392   4.262
 2299SOL    HW2 6908   2.021   3.242   4.307
 2300SOL     OW 6909   2.102   2.953   4.610
 2300SOL    HW1 6910   2.116   2.869   4.662
 2300SOL    HW2 6911   2.047   3.017   4.665
 2301SOL     OW 6912   2.468   2.826   3.847
 2301SOL    HW1 6913   2.475   2.910   3.793
 2301SOL    HW2 6914   2.514   2.839   3.935
 2302SOL     OW 6915   1.984   2.505   4.287
 2302SOL    HW1 6916   1.939   2.417   4.304
 2302SOL    HW2 6917   1.983   2.559   4.371
 2303SOL     OW 6918   3.704   3.629   4.083
 2303SOL    HW1 6919   3.758   3.600   4.163
 2303SOL    HW2 6920   3.734   3.719   4.054
 2304SOL     OW 6921   1.889   3.458   3.841
 2304SOL    HW1 6922   1.870   3.362   3.862
 2304SOL    HW2 6923   1.856   3.516   3.916
 2305SOL     OW 6924   3.551   2.784   4.336
 2305SOL    HW1 6925   3.646   2.755   4.344
 2305SOL    HW2 6926   3.543   2.849   4.261
 2306SOL     OW 6927   3.503   2.970   4.156
 2306SOL    HW1 6928   3.589   2.972   4.104
 2306SOL    HW2 6929   3.517   3.017   4.244
 2307SOL     OW 6930   2.475   3.227   4.450
 2307SOL    HW1 6931   2.426   3.140   4.459
 2307SOL    HW2 6932   2.452   3.270   4.363
 2308SOL     OW 6933   2.671   1.866   4.226
 2308SOL    HW1 6934   2.711   1.957   4.217
 2308SOL    HW2 6935   2.571   1.874   4.232
 2309SOL     OW 6936   3.387   2.861   3.914
 2309SOL    HW1 6937   3.324   2.785   3.927
 2309SOL    HW2 6938   3.435   2.879   4.000
 2310SOL     OW 6939   3.328   3.279   4.677
 2310SOL    HW1 6940   3.269   3.285   4.757
 2310SOL    HW2 6941   3.313   3.191   4.631
 2311SOL     OW 6942   3.529   3.576   4.296
 2311SOL    HW1 6943   3.488   3.553   4.208
 2311SOL    HW2 6944   3.511   3.502   4.361
 2312SOL     OW 6945   2.460   2.591   3.994
 2312SOL    HW1 6946   2.484   2.660   3.926
 2312SOL    HW2 6947   2.382   2.624   4.048
 2313SOL     OW 6948   3.143   2.207   4.668
 2313SOL    HW1 6949   3.057   2.157   4.655
 2313SOL    HW2 6950   3.205   2.153   4.724
 2314SOL     OW 6951   3.438   3.524   4.031
 2314SOL    HW1 6952   3.527   3.570   4.034
 2314SOL    HW2 6953   3.417   3.500   3.936
 2315SOL     OW 6954   2.903   2.563   4.153
 2315SOL    HW1 6955   2.929   2.559   4.249
 2315SOL    HW2 6956   2.818   2.512   4.139
 2316SOL     OW 6957   1.938   2.673   4.513
 2316SOL    HW1 6958   2.037   2.661   4.522
 2316SOL    HW2 6959   1.914   2.768   4.534
 2317SOL     OW 6960   2.727   2.210   3.919
 2317SOL    HW1 6961   2.786   2.273   3.870
 2317SOL    HW2 6962   2.746   2.116   3.890
 2318SOL     OW 6963   3.224   3.006   4.269
 2318SOL    HW1 6964   3.307   2.977   4.221
 2318SOL    HW2 6965   3.175   3.073   4.213
 2319SOL     OW 6966   2.412   2.058   4.609
 2319SOL    HW1 6967   2.407   2.053   4.709
 2319SOL    HW2 6968   2.414   2.154   4.580
 2320SOL     OW 6969   2.870   3.318   4.201
 2320SOL    HW1 6970   2.824   3.390   4.149
 2320SOL    HW2 6971   2.866   3.338   4.299
 2321SOL     OW 6972   2.213   3.663   4.577
 2321SOL    HW1 6973   2.263   3.577   4.583
 2321SOL    HW2 6974   2.278   3.740   4.574
 2322SOL     OW 6975   3.657   2.928   4.597
 2322SOL    HW1 6976   3.595   2.913   4.521
 2322SOL    HW2 6977   3.605   2.939   4.682
 2323SOL     OW 6978   2.183   2.805   3.966
 2323SOL    HW1 6979   2.265   2.844   3.924
 2323SOL    HW2 6980   2.156   2.723   3.917
 2324SOL     OW 6981   3.320   2.597   4.452
 2324SOL    HW1 6982   3.315   2.532   4.527
 2324SOL    HW2 6983   3.400   2.656   4.465
 2325SOL     OW 6984   2.973   3.638   3.961
 2325SOL    HW1 6985   2.913   3.576   4.011
 2325SOL    HW2 6986   3.004   3.594   3.876
 2326SOL     OW 6987   3.494   3.239   3.805
 2326SOL    HW1 6988   3.462   3.333   3.795
 2326SOL    HW2 6989   3.418   3.176   3.793
 2327SOL     OW 6990   2.326   3.605   4.047
 2327SOL    HW1 6991   2.359   3.644   4.133
 2327SOL    HW2 6992   2.402   3.598   3.982
 2328SOL     OW 6993   3.262   1.969   4.150
 2328SOL    HW1 6994   3.238   1.932   4.060
 2328SOL    HW2 6995   3.361   1.985   4.154
 2329SOL     OW 6996   2.244   2.562   4.204
 2329SOL    HW1 6997   2.289   2.472   4.201
 2329SOL    HW2 6998   2.150   2.551   4.237
 2330SOL     OW 6999   2.476   1.984   3.841
 2330SOL    HW1 7000   2.574   1.962   3.848
 2330SOL    HW2 7001   2.445   1.967   3.748
 2331SOL     OW 7002   2.401   1.926   4.236
 2331SOL    HW1 7003   2.320   1.927   4.294
 2331SOL    HW2 7004   2.404   2.009   4.181
 2332SOL     OW 7005   3.296   3.050   3.765
 2332SOL    HW1 7006   3.328   2.974   3.822
 2332SOL    HW2 7007   3.204   3.077   3.795
 2333SOL     OW 7008   2.159   1.897   3.895
 2333SOL    HW1 7009   2.208   1.981   3.874
 2333SOL    HW2 7010   2.221   1.832   3.940
 2334SOL     OW 7011   2.797   2.098   4.204
 2334SOL    HW1 7012   2.749   2.139   4.126
 2334SOL    HW2 7013   2.896   2.096   4.185
 2335SOL     OW 7014   3.089   3.432   4.517
 2335SOL    HW1 7015   3.110   3.506   4.452
 2335SOL    HW2 7016   3.157   3.432   4.590
 2336SOL     OW 7017   2.321   3.014   4.465
 2336SOL    HW1 7018   2.250   2.987   4.530
 2336SOL    HW2 7019   2.295   2.986   4.372
 2337SOL     OW 7020   3.133   3.659   4.315
 2337SOL    HW1 7021   3.177   3.723   4.251
 2337SOL    HW2 7022   3.083   3.711   4.385
 2338SOL     OW 7023   2.894   2.411   3.740
 2338SOL    HW1 7024   2.853   2.493   3.701
 2338SOL    HW2 7025   2.958   2.437   3.813
 2339SOL     OW 7026   2.728   2.316   4.366
 2339SOL    HW1 7027   2.696   2.388   4.304
 2339SOL    HW2 7028   2.752   2.235   4.313
 2340SOL     OW 7029   2.879   1.901   4.477
 2340SOL    HW1 7030   2.807   1.906   4.408
 2340SOL    HW2 7031   2.855   1.832   4.546
 2341SOL     OW 7032   3.719   2.695   4.101
 2341SOL    HW1 7033   3.761   2.631   4.165
 2341SOL    HW2 7034   3.681   2.644   4.023
 2342SOL     OW 7035   2.350   3.247   3.898
 2342SOL    HW1 7036   2.263   3.232   3.945
 2342SOL    HW2 7037   2.333   3.273   3.803
 2343SOL     OW 7038   3.526   3.142   4.381
 2343SOL    HW1 7039   3.625   3.150   4.395
 2343SOL    HW2 7040   3.481   3.226   4.412
 2344SOL     OW 7041   3.252   2.437   3.802
 2344SOL    HW1 7042   3.198   2.416   3.883
 2344SOL    HW2 7043   3.343   2.396   3.811
 2345SOL     OW 7044   2.389   2.118   4.052
 2345SOL    HW1 7045   2.416   2.059   3.977
 2345SOL    HW2 7046   2.389   2.213   4.021
 2346SOL     OW 7047   2.567   2.912   4.092
 2346SOL    HW1 7048   2.553   2.919   4.191
 2346SOL    HW2 7049   2.651   2.861   4.074
 2347SOL     OW 7050   2.229   2.962   4.225
 2347SOL    HW1 7051   2.222   3.045   4.169
 2347SOL    HW2 7052   2.233   2.882   4.165
 2348SOL     OW 7053   2.428   2.399   4.589
 2348SOL    HW1 7054   2.440   2.465   4.515
 2348SOL    HW2 7055   2.474   2.433   4.672
 2349SOL     OW 7056   3.114   3.210   4.112
 2349SOL    HW1 7057   3.164   3.287   4.152
 2349SOL    HW2 7058   3.019   3.212   4.144
 2350SOL     OW 7059   3.444   2.501   4.196
 2350SOL    HW1 7060   3.413   2.562   4.269
 2350SOL    HW2 7061   3.494   2.553   4.127
 2351SOL     OW 7062   3.071   2.387   3.999
 2351SOL    HW1 7063   3.084   2.303   4.053
 2351SOL    HW2 7064   3.042   2.461   4.059
 2352SOL     OW 7065   2.594   2.496   4.788
 2352SOL    HW1 7066   2.653   2.470   4.712
 2352SOL    HW2 7067   2.566   2.592   4.777
 2353SOL     OW 7068   2.169   1.925   4.342
 2353SOL    HW1 7069   2.158   2.019   4.375
 2353SOL    HW2 7070   2.164   1.862   4.419
 2354SOL     OW 7071   3.484   2.229   4.098
 2354SOL    HW1 7072   3.486   2.153   4.162
 2354SOL    HW2 7073   3.436   2.306   4.138
 2355SOL     OW 7074   3.402   2.136   3.849
 2355SOL    HW1 7075   3.341   2.061   3.872
 2355SOL    HW2 7076   3.424   2.188   3.932
 2356SOL     OW 7077   3.165   2.700   3.766
 2356SOL    HW1 7078   3.199   2.607   3.781
 2356SOL    HW2 7079   3.183   2.727   3.671
 2357SOL     OW 7080   2.930   3.195   4.573
 2357SOL    HW1 7081   2.937   3.111   4.518
 2357SOL    HW2 7082   2.992   3.264   4.537
 2358SOL     OW 7083   2.181   2.672   4.673
 2358SOL    HW1 7084   2.274   2.708   4.678
 2358SOL    HW2 7085   2.175   2.587   4.725
 2359SOL     OW 7086   1.870   3.188   3.924
 2359SOL    HW1 7087   1.777   3.209   3.893
 2359SOL    HW2 7088   1.880   3.089   3.937
 2360SOL     OW 7089   1.950   3.663   4.651
 2360SOL    HW1 7090   1.908   3.577   4.624
 2360SOL    HW2 7091   2.044   3.666   4.617
 2361SOL     OW 7092   2.366   3.430   4.634
 2361SOL    HW1 7093   2.432   3.504   4.643
 2361SOL    HW2 7094   2.410   3.351   4.592
 2362SOL     OW 7095   2.677   2.434   4.049
 2362SOL    HW1 7096   2.684   2.345   4.003
 2362SOL    HW2 7097   2.583   2.468   4.041
 2363SOL     OW 7098   2.335   2.362   3.915
 2363SOL    HW1 7099   2.396   2.442   3.919
 2363SOL    HW2 7100   2.240   2.393   3.922
 2364SOL     OW 7101   3.164   2.717   4.033
 2364SOL    HW1 7102   3.078   2.686   4.075
 2364SOL    HW2 7103   3.160   2.703   3.934
 2365SOL     OW 7104   3.621   3.609   4.878
 2365SOL    HW1 7105   3.682   3.639   4.805
 2365SOL    HW2 7106   3.583   3.520   4.856
 2366SOL     OW 7107   3.588   1.997   4.247
 2366SOL    HW1 7108   3.661   1.980   4.180
 2366SOL    HW2 7109   3.557   1.910   4.285
 2367SOL     OW 7110   3.250   3.435   4.201
 2367SOL    HW1 7111   3.317   3.447   4.127
 2367SOL    HW2 7112   3.210   3.524   4.224
 2368SOL     OW 7113   3.142   2.789   4.396
 2368SOL    HW1 7114   3.202   2.708   4.398
 2368SOL    HW2 7115   3.182   2.858   4.336
 2369SOL     OW 7116   2.534   3.478   3.878
 2369SOL    HW1 7117   2.543   3.488   3.779
 2369SOL    HW2 7118   2.494   3.389   3.899
 2370SOL     OW 7119   3.703   2.037   4.687
 2370SOL    HW1 7120   3.742   1.952   4.651
 2370SOL    HW2 7121   3.605   2.039   4.668
 2371SOL     OW 7122   2.125   2.188   4.444
 2371SOL    HW1 7123   2.046   2.239   4.410
 2371SOL    HW2 7124   2.116   2.173   4.542
 2372SOL     OW 7125   3.056   3.474   3.755
 2372SOL    HW1 7126   3.062   3.381   3.792
 2372SOL    HW2 7127   2.997   3.474   3.675
 2373SOL     OW 7128   2.778   2.772   4.015
 2373SOL    HW1 7129   2.841   2.810   3.947
 2373SOL    HW2 7130   2.818   2.689   4.054
 2374SOL     OW 7131   3.366   3.469   3.768
 2374SOL    HW1 7132   3.274   3.506   3.775
 2374SOL    HW2 7133   3.404   3.489   3.678
 2375SOL     OW 7134   2.901   2.960   4.420
 2375SOL    HW1 7135   2.831   2.913   4.474
 2375SOL    HW2 7136   2.960   2.892   4.377
 2376SOL     OW 7137   2.452   3.349   4.215
 2376SOL    HW1 7138   2.494   3.291   4.145
 2376SOL    HW2 7139   2.408   3.428   4.171
 2377SOL     OW 7140   2.117   3.210   4.014
 2377SOL    HW1 7141   2.021   3.211   3.987
 2377SOL    HW2 7142   2.129   3.263   4.098
 2378SOL     OW 7143   1.937   2.207   3.757
 2378SOL    HW1 7144   1.845   2.179   3.728
 2378SOL    HW2 7145   1.968   2.284   3.701
 2379SOL     OW 7146   1.934   2.028   4.042
 2379SOL    HW1 7147   1.917   2.111   3.988
 2379SOL    HW2 7148   2.024   1.991   4.020
 2380SOL     OW 7149   3.045   3.197   3.843
 2380SOL    HW1 7150   2.946   3.186   3.845
 2380SOL    HW2 7151   3.079   3.212   3.936
 2381SOL     OW 7152   3.536   2.745   4.978
 2381SOL    HW1 7153   3.509   2.656   4.941
 2381SOL    HW2 7154   3.537   2.813   4.905
 2382SOL     OW 7155   3.087   2.187   4.173
 2382SOL    HW1 7156   3.152   2.113   4.162
 2382SOL    HW2 7157   3.107   2.237   4.257
 2383SOL     OW 7158   2.456   2.607   4.376
 2383SOL    HW1 7159   2.506   2.692   4.357
 2383SOL    HW2 7160   2.368   2.609   4.328
 2384SOL     OW 7161   2.721   3.236   3.740
 2384SOL    HW1 7162   2.675   3.251   3.828
 2384SOL    HW2 7163   2.765   3.321   3.710
 2385SOL     OW 7164   2.523   3.652   4.677
 2385SOL    HW1 7165   2.477   3.740   4.664
 2385SOL    HW2 7166   2.622   3.664   4.670
 2386SOL     OW 7167   2.721   2.818   4.585
 2386SOL    HW1 7168   2.775   2.749   4.633
 2386SOL    HW2 7169   2.689   2.887   4.651
 2387SOL     OW 7170   2.945   2.846   3.811
 2387SOL    HW1 7171   2.922   2.899   3.729
 2387SOL    HW2 7172   3.026   2.790   3.792
 2388SOL     OW 7173   3.723   3.431   4.575
 2388SOL    HW1 7174   3.652   3.419   4.505
 2388SOL    HW2 7175   3.724   3.352   4.635
 2389SOL     OW 7176   1.941   3.102   4.377
 2389SOL    HW1 7177   1.940   3.055   4.465
 2389SOL    HW2 7178   2.023   3.074   4.326
 2390SOL     OW 7179   2.290   2.286   4.244
 2390SOL    HW1 7180   2.320   2.214   4.182
 2390SOL    HW2 7181   2.251   2.246   4.327
 2391SOL     OW 7182   2.674   3.448   4.411
 2391SOL    HW1 7183   2.706   3.458   4.317
 2391SOL    HW2 7184   2.595   3.386   4.413
 2392SOL     OW 7185   2.632   3.192   4.025
 2392SOL    HW1 7186   2.586   3.105   4.042
 2392SOL    HW2 7187   2.723   3.189   4.066
 2393SOL     OW 7188   3.214   1.914   3.892
 2393SOL    HW1 7189   3.249   1.873   3.808
 2393SOL    HW2 7190   3.124   1.876   3.912
 2394SOL     OW 7191   3.162   2.315   4.415
 2394SOL    HW1 7192   3.103   2.395   4.419
 2394SOL    HW2 7193   3.177   2.280   4.508
 2395SOL     OW 7194   3.455   2.083   4.606
 2395SOL    HW1 7195   3.371   2.082   4.660
 2395SOL    HW2 7196   3.457   2.166   4.550
 2396SOL     OW 7197   1.901   2.939   4.024
 2396SOL    HW1 7198   2.000   2.928   4.015
 2396SOL    HW2 7199   1.861   2.853   4.056
 2397SOL     OW 7200   2.737   3.508   4.061
 2397SOL    HW1 7201   2.660   3.473   4.007
 2397SOL    HW2 7202   2.705   3.579   4.123
 2398SOL     OW 7203   2.092   4.352   0.113
 2398SOL    HW1 7204   1.999   4.350   0.150
 2398SOL    HW2 7205   2.093   4.313   0.021
 2399SOL     OW 7206   2.087   3.999   0.996
 2399SOL    HW1 7207   2.122   3.982   1.088
 2399SOL    HW2 7208   1.999   3.954   0.984
 2400SOL     OW 7209   1.881   4.092   0.647
 2400SOL    HW1 7210   1.799   4.135   0.686
 2400SOL    HW2 7211   1.853   4.019   0.584
 2401SOL     OW 7212   2.997   4.427   0.717
 2401SOL    HW1 7213   3.054   4.505   0.692
 2401SOL    HW2 7214   2.937   4.453   0.793
 2402SOL     OW 7215   3.617   4.331   0.231
 2402SOL    HW1 7216   3.605   4.318   0.132
 2402SOL    HW2 7217   3.587   4.250   0.280
 2403SOL     OW 7218   2.712   4.522   1.823
 2403SOL    HW1 7219   2.708   4.598   1.888
 2403SOL    HW2 7220   2.734   4.558   1.732
 2404SOL     OW 7221   2.547   4.736   0.665
 2404SOL    HW1 7222   2.616   4.720   0.735
 2404SOL    HW2 7223   2.474   4.793   0.703
 2405SOL     OW 7224   2.300   4.116   1.499
 2405SOL    HW1 7225   2.382   4.060   1.508
 2405SOL    HW2 7226   2.219   4.058   1.503
 2406SOL     OW 7227   3.465   4.171   0.737
 2406SOL    HW1 7228   3.391   4.217   0.687
 2406SOL    HW2 7229   3.516   4.239   0.790
 2407SOL     OW 7230   3.456   3.838   1.480
 2407SOL    HW1 7231   3.438   3.905   1.408
 2407SOL    HW2 7232   3.453   3.884   1.569
 2408SOL     OW 7233   1.984   4.367   0.563
 2408SOL    HW1 7234   1.939   4.279   0.580
 2408SOL    HW2 7235   1.983   4.421   0.647
 2409SOL     OW 7236   1.975   4.461   1.597
 2409SOL    HW1 7237   2.063   4.448   1.642
 2409SOL    HW2 7238   1.962   4.558   1.575
 2410SOL     OW 7239   2.671   3.728   0.502
 2410SOL    HW1 7240   2.711   3.819   0.493
 2410SOL    HW2 7241   2.571   3.736   0.508
 2411SOL     OW 7242   2.059   4.700   1.264
 2411SOL    HW1 7243   2.148   4.655   1.250
 2411SOL    HW2 7244   1.986   4.635   1.245
 2412SOL     OW 7245   3.387   4.723   0.190
 2412SOL    HW1 7246   3.324   4.647   0.203
 2412SOL    HW2 7247   3.435   4.741   0.276
 2413SOL     OW 7248   2.179   3.975   1.801
 2413SOL    HW1 7249   2.250   4.046   1.807
 2413SOL    HW2 7250   2.091   4.014   1.829
 2414SOL     OW 7251   2.460   4.453   0.270
 2414SOL    HW1 7252   2.484   4.522   0.202
 2414SOL    HW2 7253   2.382   4.486   0.324
 2415SOL     OW 7254   3.143   4.069   0.944
 2415SOL    HW1 7255   3.057   4.019   0.931
 2415SOL    HW2 7256   3.205   4.015   1.000
 2416SOL     OW 7257   2.669   4.329   1.465
 2416SOL    HW1 7258   2.622   4.326   1.554
 2416SOL    HW2 7259   2.618   4.274   1.399
 2417SOL     OW 7260   3.256   4.193   1.674
 2417SOL    HW1 7261   3.236   4.236   1.762
 2417SOL    HW2 7262   3.334   4.131   1.683
 2418SOL     OW 7263   2.835   4.614   1.572
 2418SOL    HW1 7264   2.881   4.530   1.543
 2418SOL    HW2 7265   2.779   4.648   1.497
 2419SOL     OW 7266   2.853   4.134   1.242
 2419SOL    HW1 7267   2.776   4.168   1.296
 2419SOL    HW2 7268   2.819   4.083   1.163
 2420SOL     OW 7269   2.903   4.425   0.429
 2420SOL    HW1 7270   2.929   4.421   0.525
 2420SOL    HW2 7271   2.818   4.374   0.415
 2421SOL     OW 7272   1.938   4.535   0.789
 2421SOL    HW1 7273   2.037   4.523   0.798
 2421SOL    HW2 7274   1.914   4.630   0.810
 2422SOL     OW 7275   2.727   4.072   0.195
 2422SOL    HW1 7276   2.786   4.135   0.146
 2422SOL    HW2 7277   2.746   3.978   0.166
 2423SOL     OW 7278   3.581   4.309   1.831
 2423SOL    HW1 7279   3.555   4.398   1.795
 2423SOL    HW2 7280   3.579   4.241   1.758
 2424SOL     OW 7281   2.412   3.920   0.885
 2424SOL    HW1 7282   2.407   3.915   0.985
 2424SOL    HW2 7283   2.414   4.016   0.856
 2425SOL     OW 7284   3.320   4.459   0.728
 2425SOL    HW1 7285   3.315   4.394   0.803
 2425SOL    HW2 7286   3.400   4.518   0.741
 2426SOL     OW 7287   2.064   4.009   1.498
 2426SOL    HW1 7288   1.984   4.069   1.485
 2426SOL    HW2 7289   2.054   3.960   1.584
 2427SOL     OW 7290   3.262   3.831   0.426
 2427SOL    HW1 7291   3.238   3.794   0.336
 2427SOL    HW2 7292   3.361   3.847   0.430
 2428SOL     OW 7293   2.244   4.424   0.480
 2428SOL    HW1 7294   2.289   4.334   0.477
 2428SOL    HW2 7295   2.150   4.413   0.513
 2429SOL     OW 7296   3.409   3.946   1.729
 2429SOL    HW1 7297   3.404   3.983   1.821
 2429SOL    HW2 7298   3.337   3.877   1.717
 2430SOL     OW 7299   2.643   3.988   1.749
 2430SOL    HW1 7300   2.710   3.927   1.792
 2430SOL    HW2 7301   2.570   4.007   1.814
 2431SOL     OW 7302   3.213   4.314   1.433
 2431SOL    HW1 7303   3.241   4.271   1.518
 2431SOL    HW2 7304   3.238   4.410   1.434
 2432SOL     OW 7305   2.784   4.227   0.899
 2432SOL    HW1 7306   2.759   4.218   0.803
 2432SOL    HW2 7307   2.832   4.145   0.930
 2433SOL     OW 7308   2.401   3.788   0.512
 2433SOL    HW1 7309   2.320   3.789   0.570
 2433SOL    HW2 7310   2.404   3.871   0.457
 2434SOL     OW 7311   2.159   3.759   0.171
 2434SOL    HW1 7312   2.208   3.843   0.150
 2434SOL    HW2 7313   2.221   3.694   0.216
 2435SOL     OW 7314   2.797   3.960   0.480
 2435SOL    HW1 7315   2.749   4.001   0.402
 2435SOL    HW2 7316   2.896   3.958   0.461
 2436SOL     OW 7317   2.938   4.407   1.464
 2436SOL    HW1 7318   2.858   4.346   1.467
 2436SOL    HW2 7319   3.019   4.354   1.440
 2437SOL     OW 7320   2.894   4.273   0.016
 2437SOL    HW1 7321   2.853   4.355  -0.023
 2437SOL    HW2 7322   2.958   4.299   0.089
 2438SOL     OW 7323   1.940   4.280   1.386
 2438SOL    HW1 7324   2.032   4.279   1.345
 2438SOL    HW2 7325   1.934   4.354   1.453
 2439SOL     OW 7326   2.423   3.946   1.147
 2439SOL    HW1 7327   2.461   3.862   1.184
 2439SOL    HW2 7328   2.335   3.965   1.191
 2440SOL     OW 7329   2.728   4.178   0.642
 2440SOL    HW1 7330   2.696   4.250   0.580
 2440SOL    HW2 7331   2.752   4.097   0.589
 2441SOL     OW 7332   2.879   3.763   0.753
 2441SOL    HW1 7333   2.807   3.768   0.684
 2441SOL    HW2 7334   2.855   3.694   0.822
 2442SOL     OW 7335   3.328   4.314   0.992
 2442SOL    HW1 7336   3.298   4.219   0.999
 2442SOL    HW2 7337   3.401   4.330   1.058
 2443SOL     OW 7338   3.719   4.557   0.377
 2443SOL    HW1 7339   3.761   4.493   0.441
 2443SOL    HW2 7340   3.681   4.506   0.299
 2444SOL     OW 7341   3.252   4.299   0.078
 2444SOL    HW1 7342   3.198   4.278   0.159
 2444SOL    HW2 7343   3.343   4.258   0.087
 2445SOL     OW 7344   2.389   3.980   0.328
 2445SOL    HW1 7345   2.416   3.921   0.253
 2445SOL    HW2 7346   2.389   4.075   0.297
 2446SOL     OW 7347   3.500   4.823   1.079
 2446SOL    HW1 7348   3.505   4.904   1.138
 2446SOL    HW2 7349   3.414   4.825   1.028
 2447SOL     OW 7350   2.777   3.813   1.402
 2447SOL    HW1 7351   2.802   3.793   1.307
 2447SOL    HW2 7352   2.849   3.869   1.444
 2448SOL     OW 7353   2.272   4.537   1.251
 2448SOL    HW1 7354   2.358   4.549   1.301
 2448SOL    HW2 7355   2.230   4.450   1.278
 2449SOL     OW 7356   3.136   4.110   1.262
 2449SOL    HW1 7357   3.157   4.184   1.326
 2449SOL    HW2 7358   3.047   4.127   1.219
 2450SOL     OW 7359   2.428   4.261   0.865
 2450SOL    HW1 7360   2.440   4.327   0.791
 2450SOL    HW2 7361   2.474   4.295   0.948
 2451SOL     OW 7362   3.444   4.363   0.472
 2451SOL    HW1 7363   3.413   4.424   0.545
 2451SOL    HW2 7364   3.494   4.415   0.403
 2452SOL     OW 7365   2.264   4.475   1.598
 2452SOL    HW1 7366   2.332   4.530   1.551
 2452SOL    HW2 7367   2.304   4.387   1.625
 2453SOL     OW 7368   3.449   4.503   1.670
 2453SOL    HW1 7369   3.357   4.541   1.665
 2453SOL    HW2 7370   3.509   4.550   1.605
 2454SOL     OW 7371   2.875   3.829   1.770
 2454SOL    HW1 7372   2.881   3.914   1.718
 2454SOL    HW2 7373   2.907   3.753   1.713
 2455SOL     OW 7374   2.366   3.774   1.740
 2455SOL    HW1 7375   2.324   3.717   1.670
 2455SOL    HW2 7376   2.300   3.843   1.772
 2456SOL     OW 7377   2.435   4.594   1.029
 2456SOL    HW1 7378   2.479   4.683   1.020
 2456SOL    HW2 7379   2.372   4.594   1.106
 2457SOL     OW 7380   3.222   4.586   1.045
 2457SOL    HW1 7381   3.147   4.586   0.979
 2457SOL    HW2 7382   3.259   4.494   1.054
 2458SOL     OW 7383   3.071   4.249   0.275
 2458SOL    HW1 7384   3.084   4.165   0.329
 2458SOL    HW2 7385   3.042   4.323   0.335
 2459SOL     OW 7386   2.169   3.937   1.231
 2459SOL    HW1 7387   2.146   3.974   1.321
 2459SOL    HW2 7388   2.139   3.842   1.225
 2460SOL     OW 7389   2.594   4.358   1.064
 2460SOL    HW1 7390   2.653   4.332   0.988
 2460SOL    HW2 7391   2.566   4.454   1.053
 2461SOL     OW 7392   3.590   4.659   1.854
 2461SOL    HW1 7393   3.544   4.652   1.765
 2461SOL    HW2 7394   3.528   4.703   1.920
 2462SOL     OW 7395   2.169   3.787   0.618
 2462SOL    HW1 7396   2.158   3.881   0.651
 2462SOL    HW2 7397   2.164   3.724   0.695
 2463SOL     OW 7398   3.484   4.091   0.374
 2463SOL    HW1 7399   3.486   4.015   0.438
 2463SOL    HW2 7400   3.436   4.168   0.414
 2464SOL     OW 7401   2.885   4.490   0.966
 2464SOL    HW1 7402   2.900   4.511   1.062
 2464SOL    HW2 7403   2.855   4.395   0.957
 2465SOL     OW 7404   2.212   4.622   1.804
 2465SOL    HW1 7405   2.288   4.666   1.852
 2465SOL    HW2 7406   2.247   4.575   1.722
 2466SOL     OW 7407   3.402   3.998   0.125
 2466SOL    HW1 7408   3.341   3.923   0.148
 2466SOL    HW2 7409   3.424   4.050   0.208
 2467SOL     OW 7410   3.165   4.562   0.042
 2467SOL    HW1 7411   3.199   4.469   0.057
 2467SOL    HW2 7412   3.183   4.589  -0.053
 2468SOL     OW 7413   2.181   4.534   0.949
 2468SOL    HW1 7414   2.274   4.570   0.954
 2468SOL    HW2 7415   2.175   4.449   1.001
 2469SOL     OW 7416   2.201   4.233   1.006
 2469SOL    HW1 7417   2.149   4.150   0.989
 2469SOL    HW2 7418   2.278   4.238   0.942
 2470SOL     OW 7419   3.000   4.104   1.678
 2470SOL    HW1 7420   2.955   4.167   1.742
 2470SOL    HW2 7421   3.093   4.135   1.661
 2471SOL     OW 7422   3.022   3.931   1.477
 2471SOL    HW1 7423   3.022   3.995   1.554
 2471SOL    HW2 7424   3.050   3.979   1.394
 2472SOL     OW 7425   2.864   4.520   1.238
 2472SOL    HW1 7426   2.905   4.488   1.324
 2472SOL    HW2 7427   2.768   4.493   1.235
 2473SOL     OW 7428   1.902   4.268   1.114
 2473SOL    HW1 7429   1.987   4.235   1.073
 2473SOL    HW2 7430   1.915   4.283   1.212
 2474SOL     OW 7431   2.051   4.244   1.722
 2474SOL    HW1 7432   2.110   4.204   1.652
 2474SOL    HW2 7433   1.993   4.315   1.681
 2475SOL     OW 7434   2.677   4.296   0.325
 2475SOL    HW1 7435   2.684   4.207   0.279
 2475SOL    HW2 7436   2.583   4.330   0.317
 2476SOL     OW 7437   3.519   4.328   1.206
 2476SOL    HW1 7438   3.481   4.259   1.268
 2476SOL    HW2 7439   3.601   4.292   1.162
 2477SOL     OW 7440   2.533   4.188   1.269
 2477SOL    HW1 7441   2.499   4.099   1.239
 2477SOL    HW2 7442   2.559   4.242   1.189
 2478SOL     OW 7443   2.335   4.224   0.191
 2478SOL    HW1 7444   2.396   4.304   0.195
 2478SOL    HW2 7445   2.240   4.255   0.198
 2479SOL     OW 7446   3.209   4.783   1.234
 2479SOL    HW1 7447   3.233   4.720   1.160
 2479SOL    HW2 7448   3.119   4.823   1.216
 2480SOL     OW 7449   3.164   4.579   0.309
 2480SOL    HW1 7450   3.078   4.548   0.351
 2480SOL    HW2 7451   3.160   4.565   0.210
 2481SOL     OW 7452   2.765   3.810   0.133
 2481SOL    HW1 7453   2.816   3.811   0.047
 2481SOL    HW2 7454   2.821   3.768   0.204
 2482SOL     OW 7455   3.588   3.859   0.523
 2482SOL    HW1 7456   3.661   3.842   0.456
 2482SOL    HW2 7457   3.557   3.772   0.561
 2483SOL     OW 7458   3.142   4.651   0.672
 2483SOL    HW1 7459   3.202   4.570   0.674
 2483SOL    HW2 7460   3.182   4.720   0.612
 2484SOL     OW 7461   3.703   3.899   0.963
 2484SOL    HW1 7462   3.742   3.814   0.927
 2484SOL    HW2 7463   3.605   3.901   0.944
 2485SOL     OW 7464   2.125   4.050   0.720
 2485SOL    HW1 7465   2.046   4.101   0.686
 2485SOL    HW2 7466   2.116   4.035   0.818
 2486SOL     OW 7467   2.876   3.960   0.971
 2486SOL    HW1 7468   2.868   3.924   0.878
 2486SOL    HW2 7469   2.874   3.884   1.036
 2487SOL     OW 7470   3.571   4.109   1.381
 2487SOL    HW1 7471   3.644   4.178   1.385
 2487SOL    HW2 7472   3.599   4.034   1.322
 2488SOL     OW 7473   1.967   4.737   1.726
 2488SOL    HW1 7474   1.890   4.704   1.780
 2488SOL    HW2 7475   2.052   4.707   1.768
 2489SOL     OW 7476   2.534   3.927   1.489
 2489SOL    HW1 7477   2.624   3.911   1.449
 2489SOL    HW2 7478   2.542   3.932   1.588
 2490SOL     OW 7479   3.302   4.580   1.398
 2490SOL    HW1 7480   3.245   4.632   1.335
 2490SOL    HW2 7481   3.398   4.592   1.374
 2491SOL     OW 7482   1.934   3.890   0.318
 2491SOL    HW1 7483   1.917   3.973   0.264
 2491SOL    HW2 7484   2.024   3.853   0.296
 2492SOL     OW 7485   2.475   4.566   1.431
 2492SOL    HW1 7486   2.531   4.647   1.414
 2492SOL    HW2 7487   2.534   4.486   1.434
 2493SOL     OW 7488   2.578   4.289   1.708
 2493SOL    HW1 7489   2.597   4.354   1.782
 2493SOL    HW2 7490   2.638   4.209   1.717
 2494SOL     OW 7491   3.536   4.607   1.254
 2494SOL    HW1 7492   3.509   4.518   1.217
 2494SOL    HW2 7493   3.537   4.675   1.181
 2495SOL     OW 7494   3.087   4.049   0.449
 2495SOL    HW1 7495   3.152   3.975   0.438
 2495SOL    HW2 7496   3.107   4.099   0.533
 2496SOL     OW 7497   2.456   4.469   0.652
 2496SOL    HW1 7498   2.506   4.554   0.633
 2496SOL    HW2 7499   2.368   4.471   0.604
 2497SOL     OW 7500   3.639   4.066   1.642
 2497SOL    HW1 7501   3.622   4.097   1.548
 2497SOL    HW2 7502   3.555   4.029   1.680
 2498SOL     OW 7503   3.592   4.658   1.517
 2498SOL    HW1 7504   3.630   4.749   1.532
 2498SOL    HW2 7505   3.584   4.641   1.418
 2499SOL     OW 7506   3.686   3.916   1.227
 2499SOL    HW1 7507   3.682   3.826   1.271
 2499SOL    HW2 7508   3.689   3.905   1.128
 2500SOL     OW 7509   2.290   4.148   0.520
 2500SOL    HW1 7510   2.320   4.076   0.458
 2500SOL    HW2 7511   2.251   4.108   0.603
 2501SOL     OW 7512   2.179   4.271   1.280
 2501SOL    HW1 7513   2.217   4.212   1.352
 2501SOL    HW2 7514   2.219   4.245   1.192
 2502SOL     OW 7515   3.286   3.938   1.112
 2502SOL    HW1 7516   3.338   3.873   1.167
 2502SOL    HW2 7517   3.237   4.001   1.173
 2503SOL     OW 7518   2.863   3.758   1.154
 2503SOL    HW1 7519   2.800   3.686   1.123
 2503SOL    HW2 7520   2.956   3.722   1.154
 2504SOL     OW 7521   3.214   3.776   0.168
 2504SOL    HW1 7522   3.249   3.735   0.084
 2504SOL    HW2 7523   3.124   3.738   0.188
 2505SOL     OW 7524   3.162   4.177   0.691
 2505SOL    HW1 7525   3.103   4.257   0.695
 2505SOL    HW2 7526   3.177   4.142   0.784
 2506SOL     OW 7527   3.455   3.945   0.882
 2506SOL    HW1 7528   3.371   3.944   0.936
 2506SOL    HW2 7529   3.457   4.028   0.826
 2507SOL     OW 7530   2.092   4.352   1.975
 2507SOL    HW1 7531   1.999   4.350   2.012
 2507SOL    HW2 7532   2.093   4.313   1.883
 2508SOL     OW 7533   2.087   3.999   2.858
 2508SOL    HW1 7534   2.122   3.982   2.950
 2508SOL    HW2 7535   1.999   3.954   2.846
 2509SOL     OW 7536   1.881   4.092   2.509
 2509SOL    HW1 7537   1.799   4.135   2.548
 2509SOL    HW2 7538   1.853   4.019   2.446
 2510SOL     OW 7539   2.997   4.427   2.579
 2510SOL    HW1 7540   3.054   4.505   2.554
 2510SOL    HW2 7541   2.937   4.453   2.655
 2511SOL     OW 7542   3.617   4.331   2.093
 2511SOL    HW1 7543   3.605   4.318   1.994
 2511SOL    HW2 7544   3.587   4.250   2.142
 2512SOL     OW 7545   2.712   4.522   3.685
 2512SOL    HW1 7546   2.708   4.598   3.750
 2512SOL    HW2 7547   2.734   4.558   3.594
 2513SOL     OW 7548   2.547   4.736   2.527
 2513SOL    HW1 7549   2.616   4.720   2.597
 2513SOL    HW2 7550   2.474   4.793   2.565
 2514SOL     OW 7551   2.300   4.116   3.361
 2514SOL    HW1 7552   2.382   4.060   3.370
 2514SOL    HW2 7553   2.219   4.058   3.365
 2515SOL     OW 7554   3.465   4.171   2.599
 2515SOL    HW1 7555   3.391   4.217   2.549
 2515SOL    HW2 7556   3.516   4.239   2.652
 2516SOL     OW 7557   3.456   3.838   3.342
 2516SOL    HW1 7558   3.438   3.905   3.270
 2516SOL    HW2 7559   3.453   3.884   3.431
 2517SOL     OW 7560   1.984   4.367   2.425
 2517SOL    HW1 7561   1.939   4.279   2.442
 2517SOL    HW2 7562   1.983   4.421   2.509
 2518SOL     OW 7563   1.975   4.461   3.459
 2518SOL    HW1 7564   2.063   4.448   3.504
 2518SOL    HW2 7565   1.962   4.558   3.437
 2519SOL     OW 7566   2.671   3.728   2.364
 2519SOL    HW1 7567   2.711   3.819   2.355
 2519SOL    HW2 7568   2.571   3.736   2.370
 2520SOL     OW 7569   2.059   4.700   3.126
 2520SOL    HW1 7570   2.148   4.655   3.112
 2520SOL    HW2 7571   1.986   4.635   3.107
 2521SOL     OW 7572   3.387   4.723   2.052
 2521SOL    HW1 7573   3.324   4.647   2.065
 2521SOL    HW2 7574   3.435   4.741   2.138
 2522SOL     OW 7575   2.179   3.975   3.663
 2522SOL    HW1 7576   2.250   4.046   3.669
 2522SOL    HW2 7577   2.091   4.014   3.691
 2523SOL     OW 7578   2.460   4.453   2.132
 2523SOL    HW1 7579   2.484   4.522   2.064
 2523SOL    HW2 7580   2.382   4.486   2.186
 2524SOL     OW 7581   3.143   4.069   2.806
 2524SOL    HW1 7582   3.057   4.019   2.793
 2524SOL    HW2 7583   3.205   4.015   2.862
 2525SOL     OW 7584   2.669   4.329   3.327
 2525SOL    HW1 7585   2.622   4.326   3.416
 2525SOL    HW2 7586   2.618   4.274   3.261
 2526SOL     OW 7587   3.256   4.193   3.536
 2526SOL    HW1 7588   3.236   4.236   3.624
 2526SOL    HW2 7589   3.334   4.131   3.545
 2527SOL     OW 7590   2.835   4.614   3.434
 2527SOL    HW1 7591   2.881   4.530   3.405
 2527SOL    HW2 7592   2.779   4.648   3.359
 2528SOL     OW 7593   2.853   4.134   3.104
 2528SOL    HW1 7594   2.776   4.168   3.158
 2528SOL    HW2 7595   2.819   4.083   3.025
 2529SOL     OW 7596   2.903   4.425   2.291
 2529SOL    HW1 7597   2.929   4.421   2.387
 2529SOL    HW2 7598   2.818   4.374   2.277
 2530SOL     OW 7599   1.938   4.535   2.651
 2530SOL    HW1 7600   2.037   4.523   2.660
 2530SOL    HW2 7601   1.914   4.630   2.672
 2531SOL     OW 7602   2.727   4.072   2.057
 2531SOL    HW1 7603   2.786   4.135   2.008
 2531SOL    HW2 7604   2.746   3.978   2.028
 2532SOL     OW 7605   3.581   4.309   3.693
 2532SOL    HW1 7606   3.555   4.398   3.657
 2532SOL    HW2 7607   3.579   4.241   3.620
 2533SOL     OW 7608   2.412   3.920   2.747
 2533SOL    HW1 7609   2.407   3.915   2.847
 2533SOL    HW2 7610   2.414   4.016   2.718
 2534SOL     OW 7611   3.320   4.459   2.590
 2534SOL    HW1 7612   3.315   4.394   2.665
 2534SOL    HW2 7613   3.400   4.518   2.603
 2535SOL     OW 7614   2.064   4.009   3.360
 2535SOL    HW1 7615   1.984   4.069   3.347
 2535SOL    HW2 7616   2.054   3.960   3.446
 2536SOL     OW 7617   3.262   3.831   2.288
 2536SOL    HW1 7618   3.238   3.794   2.198
 2536SOL    HW2 7619   3.361   3.847   2.292
 2537SOL     OW 7620   2.244   4.424   2.342
 2537SOL    HW1 7621   2.289   4.334   2.339
 2537SOL    HW2 7622   2.150   4.413   2.375
 2538SOL     OW 7623   3.409   3.946   3.591
 2538SOL    HW1 7624   3.404   3.983   3.683
 2538SOL    HW2 7625   3.337   3.877   3.579
 2539SOL     OW 7626   2.476   3.846   1.979
 2539SOL    HW1 7627   2.574   3.824   1.986
 2539SOL    HW2 7628   2.445   3.829   1.886
 2540SOL     OW 7629   2.643   3.988   3.611
 2540SOL    HW1 7630   2.710   3.927   3.654
 2540SOL    HW2 7631   2.570   4.007   3.676
 2541SOL     OW 7632   3.213   4.314   3.295
 2541SOL    HW1 7633   3.241   4.271   3.380
 2541SOL    HW2 7634   3.238   4.410   3.296
 2542SOL     OW 7635   2.784   4.227   2.761
 2542SOL    HW1 7636   2.759   4.218   2.665
 2542SOL    HW2 7637   2.832   4.145   2.792
 2543SOL     OW 7638   2.401   3.788   2.374
 2543SOL    HW1 7639   2.320   3.789   2.432
 2543SOL    HW2 7640   2.404   3.871   2.319
 2544SOL     OW 7641   2.159   3.759   2.033
 2544SOL    HW1 7642   2.208   3.843   2.012
 2544SOL    HW2 7643   2.221   3.694   2.078
 2545SOL     OW 7644   2.797   3.960   2.342
 2545SOL    HW1 7645   2.749   4.001   2.264
 2545SOL    HW2 7646   2.896   3.958   2.323
 2546SOL     OW 7647   2.938   4.407   3.326
 2546SOL    HW1 7648   2.858   4.346   3.329
 2546SOL    HW2 7649   3.019   4.354   3.302
 2547SOL     OW 7650   2.894   4.273   1.878
 2547SOL    HW1 7651   2.853   4.355   1.839
 2547SOL    HW2 7652   2.958   4.299   1.951
 2548SOL     OW 7653   1.940   4.280   3.248
 2548SOL    HW1 7654   2.032   4.279   3.207
 2548SOL    HW2 7655   1.934   4.354   3.315
 2549SOL     OW 7656   2.423   3.946   3.009
 2549SOL    HW1 7657   2.461   3.862   3.046
 2549SOL    HW2 7658   2.335   3.965   3.053
 2550SOL     OW 7659   2.728   4.178   2.504
 2550SOL    HW1 7660   2.696   4.250   2.442
 2550SOL    HW2 7661   2.752   4.097   2.451
 2551SOL     OW 7662   2.879   3.763   2.615
 2551SOL    HW1 7663   2.807   3.768   2.546
 2551SOL    HW2 7664   2.855   3.694   2.684
 2552SOL     OW 7665   3.328   4.314   2.854
 2552SOL    HW1 7666   3.298   4.219   2.861
 2552SOL    HW2 7667   3.401   4.330   2.920
 2553SOL     OW 7668   3.719   4.557   2.239
 2553SOL    HW1 7669   3.761   4.493   2.303
 2553SOL    HW2 7670   3.681   4.506   2.161
 2554SOL     OW 7671   3.252   4.299   1.940
 2554SOL    HW1 7672   3.198   4.278   2.021
 2554SOL    HW2 7673   3.343   4.258   1.949
 2555SOL     OW 7674   2.389   3.980   2.190
 2555SOL    HW1 7675   2.416   3.921   2.115
 2555SOL    HW2 7676   2.389   4.075   2.159
 2556SOL     OW 7677   3.500   4.823   2.941
 2556SOL    HW1 7678   3.505   4.904   3.000
 2556SOL    HW2 7679   3.414   4.825   2.890
 2557SOL     OW 7680   2.777   3.813   3.264
 2557SOL    HW1 7681   2.802   3.793   3.169
 2557SOL    HW2 7682   2.849   3.869   3.306
 2558SOL     OW 7683   2.272   4.537   3.113
 2558SOL    HW1 7684   2.358   4.549   3.163
 2558SOL    HW2 7685   2.230   4.450   3.140
 2559SOL     OW 7686   3.136   4.110   3.124
 2559SOL    HW1 7687   3.157   4.184   3.188
 2559SOL    HW2 7688   3.047   4.127   3.081
 2560SOL     OW 7689   2.428   4.261   2.727
 2560SOL    HW1 7690   2.440   4.327   2.653
 2560SOL    HW2 7691   2.474   4.295   2.810
 2561SOL     OW 7692   3.444   4.363   2.334
 2561SOL    HW1 7693   3.413   4.424   2.407
 2561SOL    HW2 7694   3.494   4.415   2.265
 2562SOL     OW 7695   2.264   4.475   3.460
 2562SOL    HW1 7696   2.332   4.530   3.413
 2562SOL    HW2 7697   2.304   4.387   3.487
 2563SOL     OW 7698   3.449   4.503   3.532
 2563SOL    HW1 7699   3.357   4.541   3.527
 2563SOL    HW2 7700   3.509   4.550   3.467
 2564SOL     OW 7701   2.875   3.829   3.632
 2564SOL    HW1 7702   2.881   3.914   3.580
 2564SOL    HW2 7703   2.907   3.753   3.575
 2565SOL     OW 7704   2.366   3.774   3.602
 2565SOL    HW1 7705   2.324   3.717   3.532
 2565SOL    HW2 7706   2.300   3.843   3.634
 2566SOL     OW 7707   2.435   4.594   2.891
 2566SOL    HW1 7708   2.479   4.683   2.882
 2566SOL    HW2 7709   2.372   4.594   2.968
 2567SOL     OW 7710   3.222   4.586   2.907
 2567SOL    HW1 7711   3.147   4.586   2.841
 2567SOL    HW2 7712   3.259   4.494   2.916
 2568SOL     OW 7713   3.071   4.249   2.137
 2568SOL    HW1 7714   3.084   4.165   2.191
 2568SOL    HW2 7715   3.042   4.323   2.197
 2569SOL     OW 7716   2.169   3.937   3.093
 2569SOL    HW1 7717   2.146   3.974   3.183
 2569SOL    HW2 7718   2.139   3.842   3.087
 2570SOL     OW 7719   2.594   4.358   2.926
 2570SOL    HW1 7720   2.653   4.332   2.850
 2570SOL    HW2 7721   2.566   4.454   2.915
 2571SOL     OW 7722   3.590   4.659   3.716
 2571SOL    HW1 7723   3.544   4.652   3.627
 2571SOL    HW2 7724   3.528   4.703   3.782
 2572SOL     OW 7725   2.169   3.787   2.480
 2572SOL    HW1 7726   2.158   3.881   2.513
 2572SOL    HW2 7727   2.164   3.724   2.557
 2573SOL     OW 7728   3.484   4.091   2.236
 2573SOL    HW1 7729   3.486   4.015   2.300
 2573SOL    HW2 7730   3.436   4.168   2.276
 2574SOL     OW 7731   2.885   4.490   2.828
 2574SOL    HW1 7732   2.900   4.511   2.924
 2574SOL    HW2 7733   2.855   4.395   2.819
 2575SOL     OW 7734   2.212   4.622   3.666
 2575SOL    HW1 7735   2.288   4.666   3.714
 2575SOL    HW2 7736   2.247   4.575   3.584
 2576SOL     OW 7737   3.402   3.998   1.987
 2576SOL    HW1 7738   3.341   3.923   2.010
 2576SOL    HW2 7739   3.424   4.050   2.070
 2577SOL     OW 7740   3.165   4.562   1.904
 2577SOL    HW1 7741   3.199   4.469   1.919
 2577SOL    HW2 7742   3.183   4.589   1.809
 2578SOL     OW 7743   2.181   4.534   2.811
 2578SOL    HW1 7744   2.274   4.570   2.816
 2578SOL    HW2 7745   2.175   4.449   2.863
 2579SOL     OW 7746   2.201   4.233   2.868
 2579SOL    HW1 7747   2.149   4.150   2.851
 2579SOL    HW2 7748   2.278   4.238   2.804
 2580SOL     OW 7749   3.000   4.104   3.540
 2580SOL    HW1 7750   2.955   4.167   3.604
 2580SOL    HW2 7751   3.093   4.135   3.523
 2581SOL     OW 7752   3.022   3.931   3.339
 2581SOL    HW1 7753   3.022   3.995   3.416
 2581SOL    HW2 7754   3.050   3.979   3.256
 2582SOL     OW 7755   2.864   4.520   3.100
 2582SOL    HW1 7756   2.905   4.488   3.186
 2582SOL    HW2 7757   2.768   4.493   3.097
 2583SOL     OW 7758   1.902   4.268   2.976
 2583SOL    HW1 7759   1.987   4.235   2.935
 2583SOL    HW2 7760   1.915   4.283   3.074
 2584SOL     OW 7761   2.051   4.244   3.584
 2584SOL    HW1 7762   2.110   4.204   3.514
 2584SOL    HW2 7763   1.993   4.315   3.543
 2585SOL     OW 7764   2.677   4.296   2.187
 2585SOL    HW1 7765   2.684   4.207   2.141
 2585SOL    HW2 7766   2.583   4.330   2.179
 2586SOL     OW 7767   3.519   4.328   3.068
 2586SOL    HW1 7768   3.481   4.259   3.130
 2586SOL    HW2 7769   3.601   4.292   3.024
 2587SOL     OW 7770   2.533   4.188   3.131
 2587SOL    HW1 7771   2.499   4.099   3.101
 2587SOL    HW2 7772   2.559   4.242   3.051
 2588SOL     OW 7773   2.335   4.224   2.053
 2588SOL    HW1 7774   2.396   4.304   2.057
 2588SOL    HW2 7775   2.240   4.255   2.060
 2589SOL     OW 7776   3.209   4.783   3.096
 2589SOL    HW1 7777   3.233   4.720   3.022
 2589SOL    HW2 7778   3.119   4.823   3.078
 2590SOL     OW 7779   3.164   4.579   2.171
 2590SOL    HW1 7780   3.078   4.548   2.213
 2590SOL    HW2 7781   3.160   4.565   2.072
 2591SOL     OW 7782   3.588   3.859   2.385
 2591SOL    HW1 7783   3.661   3.842   2.318
 2591SOL    HW2 7784   3.557   3.772   2.423
 2592SOL     OW 7785   3.142   4.651   2.534
 2592SOL    HW1 7786   3.202   4.570   2.536
 2592SOL    HW2 7787   3.182   4.720   2.474
 2593SOL     OW 7788   3.703   3.899   2.825
 2593SOL    HW1 7789   3.742   3.814   2.789
 2593SOL    HW2 7790   3.605   3.901   2.806
 2594SOL     OW 7791   2.125   4.050   2.582
 2594SOL    HW1 7792   2.046   4.101   2.548
 2594SOL    HW2 7793   2.116   4.035   2.680
 2595SOL     OW 7794   2.778   4.634   2.153
 2595SOL    HW1 7795   2.841   4.672   2.085
 2595SOL    HW2 7796   2.818   4.551   2.192
 2596SOL     OW 7797   2.876   3.960   2.833
 2596SOL    HW1 7798   2.868   3.924   2.740
 2596SOL    HW2 7799   2.874   3.884   2.898
 2597SOL     OW 7800   3.571   4.109   3.243
 2597SOL    HW1 7801   3.644   4.178   3.247
 2597SOL    HW2 7802   3.599   4.034   3.184
 2598SOL     OW 7803   1.967   4.737   3.588
 2598SOL    HW1 7804   1.890   4.704   3.642
 2598SOL    HW2 7805   2.052   4.707   3.630
 2599SOL     OW 7806   2.534   3.927   3.351
 2599SOL    HW1 7807   2.624   3.911   3.311
 2599SOL    HW2 7808   2.542   3.932   3.450
 2600SOL     OW 7809   1.937   4.069   1.895
 2600SOL    HW1 7810   1.845   4.041   1.866
 2600SOL    HW2 7811   1.968   4.146   1.839
 2601SOL     OW 7812   3.302   4.580   3.260
 2601SOL    HW1 7813   3.245   4.632   3.197
 2601SOL    HW2 7814   3.398   4.592   3.236
 2602SOL     OW 7815   1.934   3.890   2.180
 2602SOL    HW1 7816   1.917   3.973   2.126
 2602SOL    HW2 7817   2.024   3.853   2.158
 2603SOL     OW 7818   2.475   4.566   3.293
 2603SOL    HW1 7819   2.531   4.647   3.276
 2603SOL    HW2 7820   2.534   4.486   3.296
 2604SOL     OW 7821   2.578   4.289   3.570
 2604SOL    HW1 7822   2.597   4.354   3.644
 2604SOL    HW2 7823   2.638   4.209   3.579
 2605SOL     OW 7824   3.536   4.607   3.116
 2605SOL    HW1 7825   3.509   4.518   3.079
 2605SOL    HW2 7826   3.537   4.675   3.043
 2606SOL     OW 7827   3.087   4.049   2.311
 2606SOL    HW1 7828   3.152   3.975   2.300
 2606SOL    HW2 7829   3.107   4.099   2.395
 2607SOL     OW 7830   2.456   4.469   2.514
 2607SOL    HW1 7831   2.506   4.554   2.495
 2607SOL    HW2 7832   2.368   4.471   2.466
 2608SOL     OW 7833   3.639   4.066   3.504
 2608SOL    HW1 7834   3.622   4.097   3.410
 2608SOL    HW2 7835   3.555   4.029   3.542
 2609SOL     OW 7836   3.592   4.658   3.379
 2609SOL    HW1 7837   3.630   4.749   3.394
 2609SOL    HW2 7838   3.584   4.641   3.280
 2610SOL     OW 7839   3.686   3.916   3.089
 2610SOL    HW1 7840   3.682   3.826   3.133
 2610SOL    HW2 7841   3.689   3.905   2.990
 2611SOL     OW 7842   2.290   4.148   2.382
 2611SOL    HW1 7843   2.320   4.076   2.320
 2611SOL    HW2 7844   2.251   4.108   2.465
 2612SOL     OW 7845   2.179   4.271   3.142
 2612SOL    HW1 7846   2.217   4.212   3.214
 2612SOL    HW2 7847   2.219   4.245   3.054
 2613SOL     OW 7848   3.286   3.938   2.974
 2613SOL    HW1 7849   3.338   3.873   3.029
 2613SOL    HW2 7850   3.237   4.001   3.035
 2614SOL     OW 7851   2.863   3.758   3.016
 2614SOL    HW1 7852   2.800   3.686   2.985
 2614SOL    HW2 7853   2.956   3.722   3.016
 2615SOL     OW 7854   3.214   3.776   2.030
 2615SOL    HW1 7855   3.249   3.735   1.946
 2615SOL    HW2 7856   3.124   3.738   2.050
 2616SOL     OW 7857   3.162   4.177   2.553
 2616SOL    HW1 7858   3.103   4.257   2.557
 2616SOL    HW2 7859   3.177   4.142   2.646
 2617SOL     OW 7860   3.455   3.945   2.744
 2617SOL    HW1 7861   3.371   3.944   2.798
 2617SOL    HW2 7862   3.457   4.028   2.688
 2618SOL     OW 7863   2.092   4.352   3.837
 2618SOL    HW1 7864   1.999   4.350   3.874
 2618SOL    HW2 7865   2.093   4.313   3.745
 2619SOL     OW 7866   2.087   3.999   4.720
 2619SOL    HW1 7867   2.122   3.982   4.812
 2619SOL    HW2 7868   1.999   3.954   4.708
 2620SOL     OW 7869   1.881   4.092   4.371
 2620SOL    HW1 7870   1.799   4.135   4.410
 2620SOL    HW2 7871   1.853   4.019   4.308
 2621SOL     OW 7872   2.997   4.427   4.441
 2621SOL    HW1 7873   3.054   4.505   4.416
 2621SOL    HW2 7874   2.937   4.453   4.517
 2622SOL     OW 7875   3.617   4.331   3.955
 2622SOL    HW1 7876   3.605   4.318   3.856
 2622SOL    HW2 7877   3.587   4.250   4.004
 2623SOL     OW 7878   2.547   4.736   4.389
 2623SOL    HW1 7879   2.616   4.720   4.459
 2623SOL    HW2 7880   2.474   4.793   4.427
 2624SOL     OW 7881   3.465   4.171   4.461
 2624SOL    HW1 7882   3.391   4.217   4.411
 2624SOL    HW2 7883   3.516   4.239   4.514
 2625SOL     OW 7884   1.984   4.367   4.287
 2625SOL    HW1 7885   1.939   4.279   4.304
 2625SOL    HW2 7886   1.983   4.421   4.371
 2626SOL     OW 7887   2.671   3.728   4.226
 2626SOL    HW1 7888   2.711   3.819   4.217
 2626SOL    HW2 7889   2.571   3.736   4.232
 2627SOL     OW 7890   3.387   4.723   3.914
 2627SOL    HW1 7891   3.324   4.647   3.927
 2627SOL    HW2 7892   3.435   4.741   4.000
 2628SOL     OW 7893   2.460   4.453   3.994
 2628SOL    HW1 7894   2.484   4.522   3.926
 2628SOL    HW2 7895   2.382   4.486   4.048
 2629SOL     OW 7896   3.143   4.069   4.668
 2629SOL    HW1 7897   3.057   4.019   4.655
 2629SOL    HW2 7898   3.205   4.015   4.724
 2630SOL     OW 7899   2.903   4.425   4.153
 2630SOL    HW1 7900   2.929   4.421   4.249
 2630SOL    HW2 7901   2.818   4.374   4.139
 2631SOL     OW 7902   1.938   4.535   4.513
 2631SOL    HW1 7903   2.037   4.523   4.522
 2631SOL    HW2 7904   1.914   4.630   4.534
 2632SOL     OW 7905   2.727   4.072   3.919
 2632SOL    HW1 7906   2.786   4.135   3.870
 2632SOL    HW2 7907   2.746   3.978   3.890
 2633SOL     OW 7908   2.412   3.920   4.609
 2633SOL    HW1 7909   2.407   3.915   4.709
 2633SOL    HW2 7910   2.414   4.016   4.580
 2634SOL     OW 7911   3.320   4.459   4.452
 2634SOL    HW1 7912   3.315   4.394   4.527
 2634SOL    HW2 7913   3.400   4.518   4.465
 2635SOL     OW 7914   3.262   3.831   4.150
 2635SOL    HW1 7915   3.238   3.794   4.060
 2635SOL    HW2 7916   3.361   3.847   4.154
 2636SOL     OW 7917   2.244   4.424   4.204
 2636SOL    HW1 7918   2.289   4.334   4.201
 2636SOL    HW2 7919   2.150   4.413   4.237
 2637SOL     OW 7920   2.476   3.846   3.841
 2637SOL    HW1 7921   2.574   3.824   3.848
 2637SOL    HW2 7922   2.445   3.829   3.748
 2638SOL     OW 7923   2.401   3.788   4.236
 2638SOL    HW1 7924   2.320   3.789   4.294
 2638SOL    HW2 7925   2.404   3.871   4.181
 2639SOL     OW 7926   2.159   3.759   3.895
 2639SOL    HW1 7927   2.208   3.843   3.874
 2639SOL    HW2 7928   2.221   3.694   3.940
 2640SOL     OW 7929   2.797   3.960   4.204
 2640SOL    HW1 7930   2.749   4.001   4.126
 2640SOL    HW2 7931   2.896   3.958   4.185
 2641SOL     OW 7932   2.894   4.273   3.740
 2641SOL    HW1 7933   2.853   4.355   3.701
 2641SOL    HW2 7934   2.958   4.299   3.813
 2642SOL     OW 7935   2.728   4.178   4.366
 2642SOL    HW1 7936   2.696   4.250   4.304
 2642SOL    HW2 7937   2.752   4.097   4.313
 2643SOL     OW 7938   2.879   3.763   4.477
 2643SOL    HW1 7939   2.807   3.768   4.408
 2643SOL    HW2 7940   2.855   3.694   4.546
 2644SOL     OW 7941   3.719   4.557   4.101
 2644SOL    HW1 7942   3.761   4.493   4.165
 2644SOL    HW2 7943   3.681   4.506   4.023
 2645SOL     OW 7944   3.252   4.299   3.802
 2645SOL    HW1 7945   3.198   4.278   3.883
 2645SOL    HW2 7946   3.343   4.258   3.811
 2646SOL     OW 7947   2.389   3.980   4.052
 2646SOL    HW1 7948   2.416   3.921   3.977
 2646SOL    HW2 7949   2.389   4.075   4.021
 2647SOL     OW 7950   2.973   4.919   4.824
 2647SOL    HW1 7951   2.933   4.963   4.905
 2647SOL    HW2 7952   2.932   4.956   4.741
 2648SOL     OW 7953   2.428   4.261   4.589
 2648SOL    HW1 7954   2.440   4.327   4.515
 2648SOL    HW2 7955   2.474   4.295   4.672
 2649SOL     OW 7956   3.444   4.363   4.196
 2649SOL    HW1 7957   3.413   4.424   4.269
 2649SOL    HW2 7958   3.494   4.415   4.127
 2650SOL     OW 7959   2.435   4.594   4.753
 2650SOL    HW1 7960   2.479   4.683   4.744
 2650SOL    HW2 7961   2.372   4.594   4.830
 2651SOL     OW 7962   3.071   4.249   3.999
 2651SOL    HW1 7963   3.084   4.165   4.053
 2651SOL    HW2 7964   3.042   4.323   4.059
 2652SOL     OW 7965   2.594   4.358   4.788
 2652SOL    HW1 7966   2.653   4.332   4.712
 2652SOL    HW2 7967   2.566   4.454   4.777
 2653SOL     OW 7968   2.169   3.787   4.342
 2653SOL    HW1 7969   2.158   3.881   4.375
 2653SOL    HW2 7970   2.164   3.724   4.419
 2654SOL     OW 7971   3.484   4.091   4.098
 2654SOL    HW1 7972   3.486   4.015   4.162
 2654SOL    HW2 7973   3.436   4.168   4.138
 2655SOL     OW 7974   3.402   3.998   3.849
 2655SOL    HW1 7975   3.341   3.923   3.872
 2655SOL    HW2 7976   3.424   4.050   3.932
 2656SOL     OW 7977   3.165   4.562   3.766
 2656SOL    HW1 7978   3.199   4.469   3.781
 2656SOL    HW2 7979   3.183   4.589   3.671
 2657SOL     OW 7980   2.181   4.534   4.673
 2657SOL    HW1 7981   2.274   4.570   4.678
 2657SOL    HW2 7982   2.175   4.449   4.725
 2658SOL     OW 7983   2.677   4.296   4.049
 2658SOL    HW1 7984   2.684   4.207   4.003
 2658SOL    HW2 7985   2.583   4.330   4.041
 2659SOL     OW 7986   2.335   4.224   3.915
 2659SOL    HW1 7987   2.396   4.304   3.919
 2659SOL    HW2 7988   2.240   4.255   3.922
 2660SOL     OW 7989   3.164   4.579   4.033
 2660SOL    HW1 7990   3.078   4.548   4.075
 2660SOL    HW2 7991   3.160   4.565   3.934
 2661SOL     OW 7992   3.588   3.859   4.247
 2661SOL    HW1 7993   3.661   3.842   4.180
 2661SOL    HW2 7994   3.557   3.772   4.285
 2662SOL     OW 7995   3.142   4.651   4.396
 2662SOL    HW1 7996   3.202   4.570   4.398
 2662SOL    HW2 7997   3.182   4.720   4.336
 2663SOL     OW 7998   3.703   3.899   4.687
 2663SOL    HW1 7999   3.742   3.814   4.651
 2663SOL    HW2 8000   3.605   3.901   4.668
 2664SOL     OW 8001   2.125   4.050   4.444
 2664SOL    HW1 8002   2.046   4.101   4.410
 2664SOL    HW2 8003   2.116   4.035   4.542
 2665SOL     OW 8004   2.778   4.634   4.015
 2665SOL    HW1 8005   2.841   4.672   3.947
 2665SOL    HW2 8006   2.818   4.551   4.054
 2666SOL     OW 8007   1.937   4.069   3.757
 2666SOL    HW1 8008   1.845   4.041   3.728
 2666SOL    HW2 8009   1.968   4.146   3.701
 2667SOL     OW 8010   1.934   3.890   4.042
 2667SOL    HW1 8011   1.917   3.973   3.988
 2667SOL    HW2 8012   2.024   3.853   4.020
 2668SOL     OW 8013   3.536   4.607   4.978
 2668SOL    HW1 8014   3.509   4.518   4.941
 2668SOL    HW2 8015   3.537   4.675   4.905
 2669SOL     OW 8016   3.087   4.049   4.173
 2669SOL    HW1 8017   3.152   3.975   4.162
 2669SOL    HW2 8018   3.107   4.099   4.257
 2670SOL     OW 8019   2.456   4.469   4.376
 2670SOL    HW1 8020   2.506   4.554   4.357
 2670SOL    HW2 8021   2.368   4.471   4.328
 2671SOL     OW 8022   2.290   4.148   4.244
 2671SOL    HW1 8023   2.320   4.076   4.182
 2671SOL    HW2 8024   2.251   4.108   4.327
 2672SOL     OW 8025   3.214   3.776   3.892
 2672SOL    HW1 8026   3.249   3.735   3.808
 2672SOL    HW2 8027   3.124   3.738   3.912
 2673SOL     OW 8028   3.162   4.177   4.415
 2673SOL    HW1 8029   3.103   4.257   4.419
 2673SOL    HW2 8030   3.177   4.142   4.508
 2674SOL     OW 8031   3.455   3.945   4.606
 2674SOL    HW1 8032   3.371   3.944   4.660
 2674SOL    HW2 8033   3.457   4.028   4.550
 2675SOL     OW 8034   3.954   0.628   0.113
 2675SOL    HW1 8035   3.861   0.626   0.150
 2675SOL    HW2 8036   3.955   0.589   0.021
 2676SOL     OW 8037   3.949   0.275   0.996
 2676SOL    HW1 8038   3.984   0.258   1.088
 2676SOL    HW2 8039   3.861   0.230   0.984
 2677SOL     OW 8040   3.743   0.368   0.647
 2677SOL    HW1 8041   3.661   0.411   0.686
 2677SOL    HW2 8042   3.715   0.295   0.584
 2678SOL     OW 8043   4.293   1.275   1.165
 2678SOL    HW1 8044   4.200   1.268   1.128
 2678SOL    HW2 8045   4.304   1.364   1.209
 2679SOL     OW 8046   4.492   1.144   1.023
 2679SOL    HW1 8047   4.414   1.161   1.083
 2679SOL    HW2 8048   4.526   1.231   0.987
 2680SOL     OW 8049   4.574   0.798   1.823
 2680SOL    HW1 8050   4.570   0.874   1.888
 2680SOL    HW2 8051   4.596   0.834   1.732
 2681SOL     OW 8052   4.409   1.012   0.665
 2681SOL    HW1 8053   4.478   0.996   0.735
 2681SOL    HW2 8054   4.336   1.069   0.703
 2682SOL     OW 8055   4.410   1.161   1.803
 2682SOL    HW1 8056   4.470   1.240   1.817
 2682SOL    HW2 8057   4.324   1.192   1.762
 2683SOL     OW 8058   4.059   1.435   1.061
 2683SOL    HW1 8059   3.981   1.404   1.008
 2683SOL    HW2 8060   4.117   1.493   1.004
 2684SOL     OW 8061   4.162   0.392   1.499
 2684SOL    HW1 8062   4.244   0.336   1.508
 2684SOL    HW2 8063   4.081   0.334   1.503
 2685SOL     OW 8064   3.955   1.713   0.483
 2685SOL    HW1 8065   3.989   1.790   0.537
 2685SOL    HW2 8066   3.999   1.713   0.393
 2686SOL     OW 8067   3.954   1.434   0.538
 2686SOL    HW1 8068   3.928   1.530   0.538
 2686SOL    HW2 8069   3.883   1.380   0.583
 2687SOL     OW 8070   3.964   1.091   0.886
 2687SOL    HW1 8071   3.978   1.007   0.938
 2687SOL    HW2 8072   3.909   1.155   0.941
 2688SOL     OW 8073   4.344   1.786   1.439
 2688SOL    HW1 8074   4.252   1.769   1.474
 2688SOL    HW2 8075   4.372   1.878   1.465
 2689SOL     OW 8076   4.330   0.964   0.123
 2689SOL    HW1 8077   4.337   1.048   0.069
 2689SOL    HW2 8078   4.376   0.977   0.211
 2690SOL     OW 8079   3.846   0.643   0.563
 2690SOL    HW1 8080   3.801   0.555   0.580
 2690SOL    HW2 8081   3.845   0.697   0.647
 2691SOL     OW 8082   3.837   0.737   1.597
 2691SOL    HW1 8083   3.925   0.724   1.642
 2691SOL    HW2 8084   3.824   0.834   1.575
 2692SOL     OW 8085   4.337   1.365   0.726
 2692SOL    HW1 8086   4.288   1.278   0.735
 2692SOL    HW2 8087   4.314   1.408   0.639
 2693SOL     OW 8088   4.533   0.004   0.502
 2693SOL    HW1 8089   4.573   0.095   0.493
 2693SOL    HW2 8090   4.433   0.012   0.508
 2694SOL     OW 8091   3.921   0.976   1.264
 2694SOL    HW1 8092   4.010   0.931   1.250
 2694SOL    HW2 8093   3.848   0.911   1.245
 2695SOL     OW 8094   4.041   0.251   1.801
 2695SOL    HW1 8095   4.112   0.322   1.807
 2695SOL    HW2 8096   3.953   0.290   1.829
 2696SOL     OW 8097   4.322   0.729   0.270
 2696SOL    HW1 8098   4.346   0.798   0.202
 2696SOL    HW2 8099   4.244   0.762   0.324
 2697SOL     OW 8100   4.531   0.605   1.465
 2697SOL    HW1 8101   4.484   0.602   1.554
 2697SOL    HW2 8102   4.480   0.550   1.399
 2698SOL     OW 8103   4.715   0.410   1.242
 2698SOL    HW1 8104   4.638   0.444   1.296
 2698SOL    HW2 8105   4.681   0.359   1.163
 2699SOL     OW 8106   3.800   0.811   0.789
 2699SOL    HW1 8107   3.899   0.799   0.798
 2699SOL    HW2 8108   3.776   0.906   0.810
 2700SOL     OW 8109   3.854   1.821   1.571
 2700SOL    HW1 8110   3.844   1.806   1.670
 2700SOL    HW2 8111   3.768   1.857   1.535
 2701SOL     OW 8112   4.589   0.348   0.195
 2701SOL    HW1 8113   4.648   0.411   0.146
 2701SOL    HW2 8114   4.608   0.254   0.166
 2702SOL     OW 8115   4.274   0.196   0.885
 2702SOL    HW1 8116   4.269   0.191   0.985
 2702SOL    HW2 8117   4.276   0.292   0.856
 2703SOL     OW 8118   4.732   1.456   0.477
 2703SOL    HW1 8119   4.686   1.528   0.425
 2703SOL    HW2 8120   4.728   1.476   0.575
 2704SOL     OW 8121   4.075   1.801   0.853
 2704SOL    HW1 8122   4.125   1.715   0.859
 2704SOL    HW2 8123   4.140   1.878   0.850
 2705SOL     OW 8124   4.045   0.943   0.242
 2705SOL    HW1 8125   4.127   0.982   0.200
 2705SOL    HW2 8126   4.018   0.861   0.193
 2706SOL     OW 8127   4.185   1.266   1.727
 2706SOL    HW1 8128   4.135   1.267   1.641
 2706SOL    HW2 8129   4.122   1.248   1.803
 2707SOL     OW 8130   3.926   0.285   1.498
 2707SOL    HW1 8131   3.846   0.345   1.485
 2707SOL    HW2 8132   3.916   0.236   1.584
 2708SOL     OW 8133   4.188   1.743   0.323
 2708SOL    HW1 8134   4.221   1.782   0.409
 2708SOL    HW2 8135   4.264   1.736   0.258
 2709SOL     OW 8136   3.973   1.785   1.241
 2709SOL    HW1 8137   4.030   1.720   1.291
 2709SOL    HW2 8138   3.957   1.752   1.148
 2710SOL     OW 8139   4.106   0.700   0.480
 2710SOL    HW1 8140   4.151   0.610   0.477
 2710SOL    HW2 8141   4.012   0.689   0.513
 2711SOL     OW 8142   4.338   0.122   0.117
 2711SOL    HW1 8143   4.436   0.100   0.124
 2711SOL    HW2 8144   4.307   0.105   0.024
 2712SOL     OW 8145   4.505   0.264   1.749
 2712SOL    HW1 8146   4.572   0.203   1.792
 2712SOL    HW2 8147   4.432   0.283   1.814
 2713SOL     OW 8148   4.527   1.402   0.924
 2713SOL    HW1 8149   4.617   1.416   0.882
 2713SOL    HW2 8150   4.456   1.404   0.853
 2714SOL     OW 8151   4.646   0.503   0.899
 2714SOL    HW1 8152   4.621   0.494   0.803
 2714SOL    HW2 8153   4.694   0.421   0.930
 2715SOL     OW 8154   4.263   0.064   0.512
 2715SOL    HW1 8155   4.182   0.065   0.570
 2715SOL    HW2 8156   4.266   0.147   0.457
 2716SOL     OW 8157   4.021   0.035   0.171
 2716SOL    HW1 8158   4.070   0.119   0.150
 2716SOL    HW2 8159   4.083  -0.030   0.216
 2717SOL     OW 8160   4.951   1.570   0.793
 2717SOL    HW1 8161   4.972   1.644   0.728
 2717SOL    HW2 8162   5.019   1.570   0.866
 2718SOL     OW 8163   4.183   1.152   0.741
 2718SOL    HW1 8164   4.112   1.125   0.806
 2718SOL    HW2 8165   4.157   1.124   0.648
 2719SOL     OW 8166   3.802   0.556   1.386
 2719SOL    HW1 8167   3.894   0.555   1.345
 2719SOL    HW2 8168   3.796   0.630   1.453
 2720SOL     OW 8169   4.285   0.222   1.147
 2720SOL    HW1 8170   4.323   0.138   1.184
 2720SOL    HW2 8171   4.197   0.241   1.191
 2721SOL     OW 8172   4.212   1.385   0.174
 2721SOL    HW1 8173   4.125   1.370   0.221
 2721SOL    HW2 8174   4.195   1.411   0.079
 2722SOL     OW 8175   4.251   0.256   0.328
 2722SOL    HW1 8176   4.278   0.197   0.253
 2722SOL    HW2 8177   4.251   0.351   0.297
 2723SOL     OW 8178   4.639   0.089   1.402
 2723SOL    HW1 8179   4.664   0.069   1.307
 2723SOL    HW2 8180   4.711   0.145   1.444
 2724SOL     OW 8181   4.429   1.050   0.368
 2724SOL    HW1 8182   4.415   1.057   0.467
 2724SOL    HW2 8183   4.513   0.999   0.350
 2725SOL     OW 8184   4.134   0.813   1.251
 2725SOL    HW1 8185   4.220   0.825   1.301
 2725SOL    HW2 8186   4.092   0.726   1.278
 2726SOL     OW 8187   3.788   1.564   1.331
 2726SOL    HW1 8188   3.742   1.646   1.297
 2726SOL    HW2 8189   3.886   1.583   1.340
 2727SOL     OW 8190   4.091   1.100   0.501
 2727SOL    HW1 8191   4.084   1.183   0.445
 2727SOL    HW2 8192   4.095   1.020   0.441
 2728SOL     OW 8193   4.290   0.537   0.865
 2728SOL    HW1 8194   4.302   0.603   0.791
 2728SOL    HW2 8195   4.336   0.571   0.948
 2729SOL     OW 8196   4.078   1.510   1.329
 2729SOL    HW1 8197   4.057   1.466   1.242
 2729SOL    HW2 8198   4.175   1.536   1.332
 2730SOL     OW 8199   4.126   0.751   1.598
 2730SOL    HW1 8200   4.194   0.806   1.551
 2730SOL    HW2 8201   4.166   0.663   1.625
 2731SOL     OW 8202   4.228   0.050   1.740
 2731SOL    HW1 8203   4.186  -0.007   1.670
 2731SOL    HW2 8204   4.162   0.119   1.772
 2732SOL     OW 8205   4.297   0.870   1.029
 2732SOL    HW1 8206   4.341   0.959   1.020
 2732SOL    HW2 8207   4.234   0.870   1.106
 2733SOL     OW 8208   4.933   0.525   0.275
 2733SOL    HW1 8209   4.946   0.441   0.329
 2733SOL    HW2 8210   4.904   0.599   0.335
 2734SOL     OW 8211   4.031   0.213   1.231
 2734SOL    HW1 8212   4.008   0.250   1.321
 2734SOL    HW2 8213   4.001   0.118   1.225
 2735SOL     OW 8214   3.761   1.310   1.282
 2735SOL    HW1 8215   3.814   1.261   1.350
 2735SOL    HW2 8216   3.783   1.408   1.287
 2736SOL     OW 8217   4.456   0.634   1.064
 2736SOL    HW1 8218   4.515   0.608   0.988
 2736SOL    HW2 8219   4.428   0.730   1.053
 2737SOL     OW 8220   4.031   0.063   0.618
 2737SOL    HW1 8221   4.020   0.157   0.651
 2737SOL    HW2 8222   4.026   0.000   0.695
 2738SOL     OW 8223   4.747   0.766   0.966
 2738SOL    HW1 8224   4.762   0.787   1.062
 2738SOL    HW2 8225   4.717   0.671   0.957
 2739SOL     OW 8226   4.704   1.573   1.700
 2739SOL    HW1 8227   4.684   1.617   1.612
 2739SOL    HW2 8228   4.743   1.482   1.684
 2740SOL     OW 8229   4.074   0.898   1.804
 2740SOL    HW1 8230   4.150   0.942   1.852
 2740SOL    HW2 8231   4.109   0.851   1.722
 2741SOL     OW 8232   4.043   0.810   0.949
 2741SOL    HW1 8233   4.136   0.846   0.954
 2741SOL    HW2 8234   4.037   0.725   1.001
 2742SOL     OW 8235   4.063   0.509   1.006
 2742SOL    HW1 8236   4.011   0.426   0.989
 2742SOL    HW2 8237   4.140   0.514   0.942
 2743SOL     OW 8238   3.732   1.326   0.200
 2743SOL    HW1 8239   3.639   1.347   0.169
 2743SOL    HW2 8240   3.742   1.227   0.213
 2744SOL     OW 8241   3.812   1.801   0.927
 2744SOL    HW1 8242   3.770   1.715   0.900
 2744SOL    HW2 8243   3.906   1.804   0.893
 2745SOL     OW 8244   4.228   1.568   0.910
 2745SOL    HW1 8245   4.294   1.642   0.919
 2745SOL    HW2 8246   4.272   1.489   0.868
 2746SOL     OW 8247   4.726   0.796   1.238
 2746SOL    HW1 8248   4.767   0.764   1.324
 2746SOL    HW2 8249   4.630   0.769   1.235
 2747SOL     OW 8250   3.764   0.544   1.114
 2747SOL    HW1 8251   3.849   0.511   1.073
 2747SOL    HW2 8252   3.777   0.559   1.212
 2748SOL     OW 8253   3.913   0.520   1.722
 2748SOL    HW1 8254   3.972   0.480   1.652
 2748SOL    HW2 8255   3.855   0.591   1.681
 2749SOL     OW 8256   4.539   0.572   0.325
 2749SOL    HW1 8257   4.546   0.483   0.279
 2749SOL    HW2 8258   4.445   0.606   0.317
 2750SOL     OW 8259   3.976   1.564   1.744
 2750SOL    HW1 8260   3.946   1.621   1.820
 2750SOL    HW2 8261   3.969   1.467   1.770
 2751SOL     OW 8262   4.395   0.464   1.269
 2751SOL    HW1 8263   4.361   0.375   1.239
 2751SOL    HW2 8264   4.421   0.518   1.189
 2752SOL     OW 8265   4.197   0.500   0.191
 2752SOL    HW1 8266   4.258   0.580   0.195
 2752SOL    HW2 8267   4.102   0.531   0.198
 2753SOL     OW 8268   3.883   1.137   1.466
 2753SOL    HW1 8269   3.905   1.076   1.542
 2753SOL    HW2 8270   3.893   1.088   1.380
 2754SOL     OW 8271   3.807   1.258   1.022
 2754SOL    HW1 8272   3.802   1.257   1.122
 2754SOL    HW2 8273   3.724   1.217   0.984
 2755SOL     OW 8274   4.412   1.662   1.716
 2755SOL    HW1 8275   4.356   1.743   1.725
 2755SOL    HW2 8276   4.464   1.666   1.630
 2756SOL     OW 8277   4.627   0.086   0.133
 2756SOL    HW1 8278   4.678   0.087   0.047
 2756SOL    HW2 8279   4.683   0.044   0.204
 2757SOL     OW 8280   3.854   1.794   1.851
 2757SOL    HW1 8281   3.813   1.720   1.904
 2757SOL    HW2 8282   3.918   1.845   1.909
 2758SOL     OW 8283   4.554   1.273   1.422
 2758SOL    HW1 8284   4.549   1.306   1.517
 2758SOL    HW2 8285   4.468   1.292   1.376
 2759SOL     OW 8286   4.396   1.616   0.154
 2759SOL    HW1 8287   4.405   1.626   0.055
 2759SOL    HW2 8288   4.356   1.527   0.175
 2760SOL     OW 8289   3.987   0.326   0.720
 2760SOL    HW1 8290   3.908   0.377   0.686
 2760SOL    HW2 8291   3.978   0.311   0.818
 2761SOL     OW 8292   4.918   1.612   0.031
 2761SOL    HW1 8293   4.924   1.519   0.068
 2761SOL    HW2 8294   4.859   1.612  -0.049
 2762SOL     OW 8295   4.546   1.002   1.372
 2762SOL    HW1 8296   4.586   1.001   1.280
 2762SOL    HW2 8297   4.556   1.094   1.412
 2763SOL     OW 8298   4.096   1.288   1.490
 2763SOL    HW1 8299   4.083   1.381   1.456
 2763SOL    HW2 8300   4.012   1.236   1.477
 2764SOL     OW 8301   4.314   1.487   0.491
 2764SOL    HW1 8302   4.356   1.429   0.421
 2764SOL    HW2 8303   4.270   1.566   0.447
 2765SOL     OW 8304   3.979   1.348   0.290
 2765SOL    HW1 8305   3.883   1.349   0.263
 2765SOL    HW2 8306   3.991   1.401   0.374
 2766SOL     OW 8307   3.829   1.013   1.726
 2766SOL    HW1 8308   3.752   0.980   1.780
 2766SOL    HW2 8309   3.914   0.983   1.768
 2767SOL     OW 8310   4.396   0.203   1.489
 2767SOL    HW1 8311   4.486   0.187   1.449
 2767SOL    HW2 8312   4.404   0.208   1.588
 2768SOL     OW 8313   4.337   0.842   1.431
 2768SOL    HW1 8314   4.393   0.923   1.414
 2768SOL    HW2 8315   4.396   0.762   1.434
 2769SOL     OW 8316   4.440   0.565   1.708
 2769SOL    HW1 8317   4.459   0.630   1.782
 2769SOL    HW2 8318   4.500   0.485   1.717
 2770SOL     OW 8319   4.114   1.741   1.560
 2770SOL    HW1 8320   4.023   1.782   1.558
 2770SOL    HW2 8321   4.107   1.647   1.592
 2771SOL     OW 8322   4.949   0.325   0.449
 2771SOL    HW1 8323   5.014   0.251   0.438
 2771SOL    HW2 8324   4.969   0.375   0.533
 2772SOL     OW 8325   4.318   0.745   0.652
 2772SOL    HW1 8326   4.368   0.830   0.633
 2772SOL    HW2 8327   4.230   0.747   0.604
 2773SOL     OW 8328   4.385   1.790   0.953
 2773SOL    HW1 8329   4.339   1.878   0.940
 2773SOL    HW2 8330   4.484   1.802   0.946
 2774SOL     OW 8331   4.583   0.956   0.861
 2774SOL    HW1 8332   4.637   0.887   0.909
 2774SOL    HW2 8333   4.551   1.025   0.927
 2775SOL     OW 8334   4.807   0.984   0.087
 2775SOL    HW1 8335   4.784   1.037   0.005
 2775SOL    HW2 8336   4.888   0.928   0.068
 2776SOL     OW 8337   3.945   1.314   1.844
 2776SOL    HW1 8338   3.880   1.241   1.823
 2776SOL    HW2 8339   3.949   1.328   1.942
 2777SOL     OW 8340   3.803   1.240   0.653
 2777SOL    HW1 8341   3.802   1.193   0.741
 2777SOL    HW2 8342   3.885   1.212   0.602
 2778SOL     OW 8343   4.396   1.391   1.624
 2778SOL    HW1 8344   4.318   1.341   1.662
 2778SOL    HW2 8345   4.393   1.486   1.655
 2779SOL     OW 8346   4.152   0.424   0.520
 2779SOL    HW1 8347   4.182   0.352   0.458
 2779SOL    HW2 8348   4.113   0.384   0.603
 2780SOL     OW 8349   4.041   0.547   1.280
 2780SOL    HW1 8350   4.079   0.488   1.352
 2780SOL    HW2 8351   4.081   0.521   1.192
 2781SOL     OW 8352   4.536   1.586   0.687
 2781SOL    HW1 8353   4.568   1.596   0.593
 2781SOL    HW2 8354   4.457   1.524   0.689
 2782SOL     OW 8355   4.494   1.330   0.301
 2782SOL    HW1 8356   4.448   1.243   0.318
 2782SOL    HW2 8357   4.585   1.327   0.342
 2783SOL     OW 8358   4.342   1.567   1.284
 2783SOL    HW1 8359   4.337   1.649   1.341
 2783SOL    HW2 8360   4.431   1.564   1.239
 2784SOL     OW 8361   3.763   1.077   0.300
 2784SOL    HW1 8362   3.862   1.066   0.291
 2784SOL    HW2 8363   3.723   0.991   0.332
 2785SOL     OW 8364   4.599   1.646   0.337
 2785SOL    HW1 8365   4.522   1.611   0.283
 2785SOL    HW2 8366   4.567   1.717   0.399
 2786SOL     OW 8367   3.954   0.628   1.975
 2786SOL    HW1 8368   3.861   0.626   2.012
 2786SOL    HW2 8369   3.955   0.589   1.883
 2787SOL     OW 8370   3.949   0.275   2.858
 2787SOL    HW1 8371   3.984   0.258   2.950
 2787SOL    HW2 8372   3.861   0.230   2.846
 2788SOL     OW 8373   3.743   0.368   2.509
 2788SOL    HW1 8374   3.661   0.411   2.548
 2788SOL    HW2 8375   3.715   0.295   2.446
 2789SOL     OW 8376   4.293   1.275   3.027
 2789SOL    HW1 8377   4.200   1.268   2.990
 2789SOL    HW2 8378   4.304   1.364   3.071
 2790SOL     OW 8379   4.492   1.144   2.885
 2790SOL    HW1 8380   4.414   1.161   2.945
 2790SOL    HW2 8381   4.526   1.231   2.849
 2791SOL     OW 8382   4.574   0.798   3.685
 2791SOL    HW1 8383   4.570   0.874   3.750
 2791SOL    HW2 8384   4.596   0.834   3.594
 2792SOL     OW 8385   4.409   1.012   2.527
 2792SOL    HW1 8386   4.478   0.996   2.597
 2792SOL    HW2 8387   4.336   1.069   2.565
 2793SOL     OW 8388   4.410   1.161   3.665
 2793SOL    HW1 8389   4.470   1.240   3.679
 2793SOL    HW2 8390   4.324   1.192   3.624
 2794SOL     OW 8391   4.059   1.435   2.923
 2794SOL    HW1 8392   3.981   1.404   2.870
 2794SOL    HW2 8393   4.117   1.493   2.866
 2795SOL     OW 8394   4.162   0.392   3.361
 2795SOL    HW1 8395   4.244   0.336   3.370
 2795SOL    HW2 8396   4.081   0.334   3.365
 2796SOL     OW 8397   3.955   1.713   2.345
 2796SOL    HW1 8398   3.989   1.790   2.399
 2796SOL    HW2 8399   3.999   1.713   2.255
 2797SOL     OW 8400   3.954   1.434   2.400
 2797SOL    HW1 8401   3.928   1.530   2.400
 2797SOL    HW2 8402   3.883   1.380   2.445
 2798SOL     OW 8403   3.964   1.091   2.748
 2798SOL    HW1 8404   3.978   1.007   2.800
 2798SOL    HW2 8405   3.909   1.155   2.803
 2799SOL     OW 8406   4.344   1.786   3.301
 2799SOL    HW1 8407   4.252   1.769   3.336
 2799SOL    HW2 8408   4.372   1.878   3.327
 2800SOL     OW 8409   4.330   0.964   1.985
 2800SOL    HW1 8410   4.337   1.048   1.931
 2800SOL    HW2 8411   4.376   0.977   2.073
 2801SOL     OW 8412   3.846   0.643   2.425
 2801SOL    HW1 8413   3.801   0.555   2.442
 2801SOL    HW2 8414   3.845   0.697   2.509
 2802SOL     OW 8415   3.751   1.596   1.979
 2802SOL    HW1 8416   3.732   1.500   2.000
 2802SOL    HW2 8417   3.718   1.654   2.054
 2803SOL     OW 8418   3.837   0.737   3.459
 2803SOL    HW1 8419   3.925   0.724   3.504
 2803SOL    HW2 8420   3.824   0.834   3.437
 2804SOL     OW 8421   4.337   1.365   2.588
 2804SOL    HW1 8422   4.288   1.278   2.597
 2804SOL    HW2 8423   4.314   1.408   2.501
 2805SOL     OW 8424   4.533   0.004   2.364
 2805SOL    HW1 8425   4.573   0.095   2.355
 2805SOL    HW2 8426   4.433   0.012   2.370
 2806SOL     OW 8427   3.921   0.976   3.126
 2806SOL    HW1 8428   4.010   0.931   3.112
 2806SOL    HW2 8429   3.848   0.911   3.107
 2807SOL     OW 8430   4.041   0.251   3.663
 2807SOL    HW1 8431   4.112   0.322   3.669
 2807SOL    HW2 8432   3.953   0.290   3.691
 2808SOL     OW 8433   4.322   0.729   2.132
 2808SOL    HW1 8434   4.346   0.798   2.064
 2808SOL    HW2 8435   4.244   0.762   2.186
 2809SOL     OW 8436   4.531   0.605   3.327
 2809SOL    HW1 8437   4.484   0.602   3.416
 2809SOL    HW2 8438   4.480   0.550   3.261
 2810SOL     OW 8439   4.715   0.410   3.104
 2810SOL    HW1 8440   4.638   0.444   3.158
 2810SOL    HW2 8441   4.681   0.359   3.025
 2811SOL     OW 8442   3.800   0.811   2.651
 2811SOL    HW1 8443   3.899   0.799   2.660
 2811SOL    HW2 8444   3.776   0.906   2.672
 2812SOL     OW 8445   3.854   1.821   3.433
 2812SOL    HW1 8446   3.844   1.806   3.532
 2812SOL    HW2 8447   3.768   1.857   3.397
 2813SOL     OW 8448   4.589   0.348   2.057
 2813SOL    HW1 8449   4.648   0.411   2.008
 2813SOL    HW2 8450   4.608   0.254   2.028
 2814SOL     OW 8451   4.274   0.196   2.747
 2814SOL    HW1 8452   4.269   0.191   2.847
 2814SOL    HW2 8453   4.276   0.292   2.718
 2815SOL     OW 8454   4.732   1.456   2.339
 2815SOL    HW1 8455   4.686   1.528   2.287
 2815SOL    HW2 8456   4.728   1.476   2.437
 2816SOL     OW 8457   4.075   1.801   2.715
 2816SOL    HW1 8458   4.125   1.715   2.721
 2816SOL    HW2 8459   4.140   1.878   2.712
 2817SOL     OW 8460   4.045   0.943   2.104
 2817SOL    HW1 8461   4.127   0.982   2.062
 2817SOL    HW2 8462   4.018   0.861   2.055
 2818SOL     OW 8463   4.185   1.266   3.589
 2818SOL    HW1 8464   4.135   1.267   3.503
 2818SOL    HW2 8465   4.122   1.248   3.665
 2819SOL     OW 8466   3.926   0.285   3.360
 2819SOL    HW1 8467   3.846   0.345   3.347
 2819SOL    HW2 8468   3.916   0.236   3.446
 2820SOL     OW 8469   4.188   1.743   2.185
 2820SOL    HW1 8470   4.221   1.782   2.271
 2820SOL    HW2 8471   4.264   1.736   2.120
 2821SOL     OW 8472   3.973   1.785   3.103
 2821SOL    HW1 8473   4.030   1.720   3.153
 2821SOL    HW2 8474   3.957   1.752   3.010
 2822SOL     OW 8475   4.106   0.700   2.342
 2822SOL    HW1 8476   4.151   0.610   2.339
 2822SOL    HW2 8477   4.012   0.689   2.375
 2823SOL     OW 8478   4.338   0.122   1.979
 2823SOL    HW1 8479   4.436   0.100   1.986
 2823SOL    HW2 8480   4.307   0.105   1.886
 2824SOL     OW 8481   4.505   0.264   3.611
 2824SOL    HW1 8482   4.572   0.203   3.654
 2824SOL    HW2 8483   4.432   0.283   3.676
 2825SOL     OW 8484   4.527   1.402   2.786
 2825SOL    HW1 8485   4.617   1.416   2.744
 2825SOL    HW2 8486   4.456   1.404   2.715
 2826SOL     OW 8487   4.646   0.503   2.761
 2826SOL    HW1 8488   4.621   0.494   2.665
 2826SOL    HW2 8489   4.694   0.421   2.792
 2827SOL     OW 8490   4.263   0.064   2.374
 2827SOL    HW1 8491   4.182   0.065   2.432
 2827SOL    HW2 8492   4.266   0.147   2.319
 2828SOL     OW 8493   4.021   0.035   2.033
 2828SOL    HW1 8494   4.070   0.119   2.012
 2828SOL    HW2 8495   4.083  -0.030   2.078
 2829SOL     OW 8496   4.951   1.570   2.655
 2829SOL    HW1 8497   4.972   1.644   2.590
 2829SOL    HW2 8498   5.019   1.570   2.728
 2830SOL     OW 8499   4.183   1.152   2.603
 2830SOL    HW1 8500   4.112   1.125   2.668
 2830SOL    HW2 8501   4.157   1.124   2.510
 2831SOL     OW 8502   3.802   0.556   3.248
 2831SOL    HW1 8503   3.894   0.555   3.207
 2831SOL    HW2 8504   3.796   0.630   3.315
 2832SOL     OW 8505   4.285   0.222   3.009
 2832SOL    HW1 8506   4.323   0.138   3.046
 2832SOL    HW2 8507   4.197   0.241   3.053
 2833SOL     OW 8508   4.212   1.385   2.036
 2833SOL    HW1 8509   4.125   1.370   2.083
 2833SOL    HW2 8510   4.195   1.411   1.941
 2834SOL     OW 8511   4.251   0.256   2.190
 2834SOL    HW1 8512   4.278   0.197   2.115
 2834SOL    HW2 8513   4.251   0.351   2.159
 2835SOL     OW 8514   4.639   0.089   3.264
 2835SOL    HW1 8515   4.664   0.069   3.169
 2835SOL    HW2 8516   4.711   0.145   3.306
 2836SOL     OW 8517   4.429   1.050   2.230
 2836SOL    HW1 8518   4.415   1.057   2.329
 2836SOL    HW2 8519   4.513   0.999   2.212
 2837SOL     OW 8520   4.134   0.813   3.113
 2837SOL    HW1 8521   4.220   0.825   3.163
 2837SOL    HW2 8522   4.092   0.726   3.140
 2838SOL     OW 8523   3.788   1.564   3.193
 2838SOL    HW1 8524   3.742   1.646   3.159
 2838SOL    HW2 8525   3.886   1.583   3.202
 2839SOL     OW 8526   4.091   1.100   2.363
 2839SOL    HW1 8527   4.084   1.183   2.307
 2839SOL    HW2 8528   4.095   1.020   2.303
 2840SOL     OW 8529   4.290   0.537   2.727
 2840SOL    HW1 8530   4.302   0.603   2.653
 2840SOL    HW2 8531   4.336   0.571   2.810
 2841SOL     OW 8532   4.078   1.510   3.191
 2841SOL    HW1 8533   4.057   1.466   3.104
 2841SOL    HW2 8534   4.175   1.536   3.194
 2842SOL     OW 8535   4.126   0.751   3.460
 2842SOL    HW1 8536   4.194   0.806   3.413
 2842SOL    HW2 8537   4.166   0.663   3.487
 2843SOL     OW 8538   4.228   0.050   3.602
 2843SOL    HW1 8539   4.186  -0.007   3.532
 2843SOL    HW2 8540   4.162   0.119   3.634
 2844SOL     OW 8541   4.297   0.870   2.891
 2844SOL    HW1 8542   4.341   0.959   2.882
 2844SOL    HW2 8543   4.234   0.870   2.968
 2845SOL     OW 8544   4.933   0.525   2.137
 2845SOL    HW1 8545   4.946   0.441   2.191
 2845SOL    HW2 8546   4.904   0.599   2.197
 2846SOL     OW 8547   4.031   0.213   3.093
 2846SOL    HW1 8548   4.008   0.250   3.183
 2846SOL    HW2 8549   4.001   0.118   3.087
 2847SOL     OW 8550   3.761   1.310   3.144
 2847SOL    HW1 8551   3.814   1.261   3.212
 2847SOL    HW2 8552   3.783   1.408   3.149
 2848SOL     OW 8553   4.456   0.634   2.926
 2848SOL    HW1 8554   4.515   0.608   2.850
 2848SOL    HW2 8555   4.428   0.730   2.915
 2849SOL     OW 8556   4.031   0.063   2.480
 2849SOL    HW1 8557   4.020   0.157   2.513
 2849SOL    HW2 8558   4.026   0.000   2.557
 2850SOL     OW 8559   4.747   0.766   2.828
 2850SOL    HW1 8560   4.762   0.787   2.924
 2850SOL    HW2 8561   4.717   0.671   2.819
 2851SOL     OW 8562   4.704   1.573   3.562
 2851SOL    HW1 8563   4.684   1.617   3.474
 2851SOL    HW2 8564   4.743   1.482   3.546
 2852SOL     OW 8565   4.074   0.898   3.666
 2852SOL    HW1 8566   4.150   0.942   3.714
 2852SOL    HW2 8567   4.109   0.851   3.584
 2853SOL     OW 8568   4.043   0.810   2.811
 2853SOL    HW1 8569   4.136   0.846   2.816
 2853SOL    HW2 8570   4.037   0.725   2.863
 2854SOL     OW 8571   4.063   0.509   2.868
 2854SOL    HW1 8572   4.011   0.426   2.851
 2854SOL    HW2 8573   4.140   0.514   2.804
 2855SOL     OW 8574   3.732   1.326   2.062
 2855SOL    HW1 8575   3.639   1.347   2.031
 2855SOL    HW2 8576   3.742   1.227   2.075
 2856SOL     OW 8577   3.812   1.801   2.789
 2856SOL    HW1 8578   3.770   1.715   2.762
 2856SOL    HW2 8579   3.906   1.804   2.755
 2857SOL     OW 8580   4.228   1.568   2.772
 2857SOL    HW1 8581   4.294   1.642   2.781
 2857SOL    HW2 8582   4.272   1.489   2.730
 2858SOL     OW 8583   4.726   0.796   3.100
 2858SOL    HW1 8584   4.767   0.764   3.186
 2858SOL    HW2 8585   4.630   0.769   3.097
 2859SOL     OW 8586   3.764   0.544   2.976
 2859SOL    HW1 8587   3.849   0.511   2.935
 2859SOL    HW2 8588   3.777   0.559   3.074
 2860SOL     OW 8589   3.913   0.520   3.584
 2860SOL    HW1 8590   3.972   0.480   3.514
 2860SOL    HW2 8591   3.855   0.591   3.543
 2861SOL     OW 8592   4.539   0.572   2.187
 2861SOL    HW1 8593   4.546   0.483   2.141
 2861SOL    HW2 8594   4.445   0.606   2.179
 2862SOL     OW 8595   3.976   1.564   3.606
 2862SOL    HW1 8596   3.946   1.621   3.682
 2862SOL    HW2 8597   3.969   1.467   3.632
 2863SOL     OW 8598   4.395   0.464   3.131
 2863SOL    HW1 8599   4.361   0.375   3.101
 2863SOL    HW2 8600   4.421   0.518   3.051
 2864SOL     OW 8601   4.197   0.500   2.053
 2864SOL    HW1 8602   4.258   0.580   2.057
 2864SOL    HW2 8603   4.102   0.531   2.060
 2865SOL     OW 8604   3.883   1.137   3.328
 2865SOL    HW1 8605   3.905   1.076   3.404
 2865SOL    HW2 8606   3.893   1.088   3.242
 2866SOL     OW 8607   3.807   1.258   2.884
 2866SOL    HW1 8608   3.802   1.257   2.984
 2866SOL    HW2 8609   3.724   1.217   2.846
 2867SOL     OW 8610   4.412   1.662   3.578
 2867SOL    HW1 8611   4.356   1.743   3.587
 2867SOL    HW2 8612   4.464   1.666   3.492
 2868SOL     OW 8613   4.627   0.086   1.995
 2868SOL    HW1 8614   4.678   0.087   1.909
 2868SOL    HW2 8615   4.683   0.044   2.066
 2869SOL     OW 8616   3.854   1.794   3.713
 2869SOL    HW1 8617   3.813   1.720   3.766
 2869SOL    HW2 8618   3.918   1.845   3.771
 2870SOL     OW 8619   4.554   1.273   3.284
 2870SOL    HW1 8620   4.549   1.306   3.379
 2870SOL    HW2 8621   4.468   1.292   3.238
 2871SOL     OW 8622   4.396   1.616   2.016
 2871SOL    HW1 8623   4.405   1.626   1.917
 2871SOL    HW2 8624   4.356   1.527   2.037
 2872SOL     OW 8625   3.987   0.326   2.582
 2872SOL    HW1 8626   3.908   0.377   2.548
 2872SOL    HW2 8627   3.978   0.311   2.680
 2873SOL     OW 8628   4.546   1.002   3.234
 2873SOL    HW1 8629   4.586   1.001   3.142
 2873SOL    HW2 8630   4.556   1.094   3.274
 2874SOL     OW 8631   4.096   1.288   3.352
 2874SOL    HW1 8632   4.083   1.381   3.318
 2874SOL    HW2 8633   4.012   1.236   3.339
 2875SOL     OW 8634   4.314   1.487   2.353
 2875SOL    HW1 8635   4.356   1.429   2.283
 2875SOL    HW2 8636   4.270   1.566   2.309
 2876SOL     OW 8637   3.979   1.348   2.152
 2876SOL    HW1 8638   3.883   1.349   2.125
 2876SOL    HW2 8639   3.991   1.401   2.236
 2877SOL     OW 8640   3.829   1.013   3.588
 2877SOL    HW1 8641   3.752   0.980   3.642
 2877SOL    HW2 8642   3.914   0.983   3.630
 2878SOL     OW 8643   4.396   0.203   3.351
 2878SOL    HW1 8644   4.486   0.187   3.311
 2878SOL    HW2 8645   4.404   0.208   3.450
 2879SOL     OW 8646   3.799   0.345   1.895
 2879SOL    HW1 8647   3.707   0.317   1.866
 2879SOL    HW2 8648   3.830   0.422   1.839
 2880SOL     OW 8649   3.796   0.166   2.180
 2880SOL    HW1 8650   3.779   0.249   2.126
 2880SOL    HW2 8651   3.886   0.129   2.158
 2881SOL     OW 8652   4.337   0.842   3.293
 2881SOL    HW1 8653   4.393   0.923   3.276
 2881SOL    HW2 8654   4.396   0.762   3.296
 2882SOL     OW 8655   4.440   0.565   3.570
 2882SOL    HW1 8656   4.459   0.630   3.644
 2882SOL    HW2 8657   4.500   0.485   3.579
 2883SOL     OW 8658   4.114   1.741   3.422
 2883SOL    HW1 8659   4.023   1.782   3.420
 2883SOL    HW2 8660   4.107   1.647   3.454
 2884SOL     OW 8661   4.949   0.325   2.311
 2884SOL    HW1 8662   5.014   0.251   2.300
 2884SOL    HW2 8663   4.969   0.375   2.395
 2885SOL     OW 8664   4.318   0.745   2.514
 2885SOL    HW1 8665   4.368   0.830   2.495
 2885SOL    HW2 8666   4.230   0.747   2.466
 2886SOL     OW 8667   4.385   1.790   2.815
 2886SOL    HW1 8668   4.339   1.878   2.802
 2886SOL    HW2 8669   4.484   1.802   2.808
 2887SOL     OW 8670   4.583   0.956   2.723
 2887SOL    HW1 8671   4.637   0.887   2.771
 2887SOL    HW2 8672   4.551   1.025   2.789
 2888SOL     OW 8673   3.945   1.314   3.706
 2888SOL    HW1 8674   3.880   1.241   3.685
 2888SOL    HW2 8675   3.949   1.328   3.804
 2889SOL     OW 8676   3.803   1.240   2.515
 2889SOL    HW1 8677   3.802   1.193   2.603
 2889SOL    HW2 8678   3.885   1.212   2.464
 2890SOL     OW 8679   4.396   1.391   3.486
 2890SOL    HW1 8680   4.318   1.341   3.524
 2890SOL    HW2 8681   4.393   1.486   3.517
 2891SOL     OW 8682   4.152   0.424   2.382
 2891SOL    HW1 8683   4.182   0.352   2.320
 2891SOL    HW2 8684   4.113   0.384   2.465
 2892SOL     OW 8685   4.041   0.547   3.142
 2892SOL    HW1 8686   4.079   0.488   3.214
 2892SOL    HW2 8687   4.081   0.521   3.054
 2893SOL     OW 8688   4.536   1.586   2.549
 2893SOL    HW1 8689   4.568   1.596   2.455
 2893SOL    HW2 8690   4.457   1.524   2.551
 2894SOL     OW 8691   4.494   1.330   2.163
 2894SOL    HW1 8692   4.448   1.243   2.180
 2894SOL    HW2 8693   4.585   1.327   2.204
 2895SOL     OW 8694   4.342   1.567   3.146
 2895SOL    HW1 8695   4.337   1.649   3.203
 2895SOL    HW2 8696   4.431   1.564   3.101
 2896SOL     OW 8697   3.763   1.077   2.162
 2896SOL    HW1 8698   3.862   1.066   2.153
 2896SOL    HW2 8699   3.723   0.991   2.194
 2897SOL     OW 8700   4.599   1.646   2.199
 2897SOL    HW1 8701   4.522   1.611   2.145
 2897SOL    HW2 8702   4.567   1.717   2.261
 2898SOL     OW 8703   3.954   0.628   3.837
 2898SOL    HW1 8704   3.861   0.626   3.874
 2898SOL    HW2 8705   3.955   0.589   3.745
 2899SOL     OW 8706   3.949   0.275   4.720
 2899SOL    HW1 8707   3.984   0.258   4.812
 2899SOL    HW2 8708   3.861   0.230   4.708
 2900SOL     OW 8709   3.743   0.368   4.371
 2900SOL    HW1 8710   3.661   0.411   4.410
 2900SOL    HW2 8711   3.715   0.295   4.308
 2901SOL     OW 8712   4.492   1.144   4.747
 2901SOL    HW1 8713   4.414   1.161   4.807
 2901SOL    HW2 8714   4.526   1.231   4.711
 2902SOL     OW 8715   4.409   1.012   4.389
 2902SOL    HW1 8716   4.478   0.996   4.459
 2902SOL    HW2 8717   4.336   1.069   4.427
 2903SOL     OW 8718   3.955   1.713   4.207
 2903SOL    HW1 8719   3.989   1.790   4.261
 2903SOL    HW2 8720   3.999   1.713   4.117
 2904SOL     OW 8721   3.954   1.434   4.262
 2904SOL    HW1 8722   3.928   1.530   4.262
 2904SOL    HW2 8723   3.883   1.380   4.307
 2905SOL     OW 8724   3.964   1.091   4.610
 2905SOL    HW1 8725   3.978   1.007   4.662
 2905SOL    HW2 8726   3.909   1.155   4.665
 2906SOL     OW 8727   4.330   0.964   3.847
 2906SOL    HW1 8728   4.337   1.048   3.793
 2906SOL    HW2 8729   4.376   0.977   3.935
 2907SOL     OW 8730   3.846   0.643   4.287
 2907SOL    HW1 8731   3.801   0.555   4.304
 2907SOL    HW2 8732   3.845   0.697   4.371
 2908SOL     OW 8733   3.751   1.596   3.841
 2908SOL    HW1 8734   3.732   1.500   3.862
 2908SOL    HW2 8735   3.718   1.654   3.916
 2909SOL     OW 8736   4.337   1.365   4.450
 2909SOL    HW1 8737   4.288   1.278   4.459
 2909SOL    HW2 8738   4.314   1.408   4.363
 2910SOL     OW 8739   4.533   0.004   4.226
 2910SOL    HW1 8740   4.573   0.095   4.217
 2910SOL    HW2 8741   4.433   0.012   4.232
 2911SOL     OW 8742   4.322   0.729   3.994
 2911SOL    HW1 8743   4.346   0.798   3.926
 2911SOL    HW2 8744   4.244   0.762   4.048
 2912SOL     OW 8745   3.800   0.811   4.513
 2912SOL    HW1 8746   3.899   0.799   4.522
 2912SOL    HW2 8747   3.776   0.906   4.534
 2913SOL     OW 8748   4.589   0.348   3.919
 2913SOL    HW1 8749   4.648   0.411   3.870
 2913SOL    HW2 8750   4.608   0.254   3.890
 2914SOL     OW 8751   4.732   1.456   4.201
 2914SOL    HW1 8752   4.686   1.528   4.149
 2914SOL    HW2 8753   4.728   1.476   4.299
 2915SOL     OW 8754   4.075   1.801   4.577
 2915SOL    HW1 8755   4.125   1.715   4.583
 2915SOL    HW2 8756   4.140   1.878   4.574
 2916SOL     OW 8757   4.045   0.943   3.966
 2916SOL    HW1 8758   4.127   0.982   3.924
 2916SOL    HW2 8759   4.018   0.861   3.917
 2917SOL     OW 8760   4.188   1.743   4.047
 2917SOL    HW1 8761   4.221   1.782   4.133
 2917SOL    HW2 8762   4.264   1.736   3.982
 2918SOL     OW 8763   4.106   0.700   4.204
 2918SOL    HW1 8764   4.151   0.610   4.201
 2918SOL    HW2 8765   4.012   0.689   4.237
 2919SOL     OW 8766   4.338   0.122   3.841
 2919SOL    HW1 8767   4.436   0.100   3.848
 2919SOL    HW2 8768   4.307   0.105   3.748
 2920SOL     OW 8769   4.527   1.402   4.648
 2920SOL    HW1 8770   4.617   1.416   4.606
 2920SOL    HW2 8771   4.456   1.404   4.577
 2921SOL     OW 8772   4.263   0.064   4.236
 2921SOL    HW1 8773   4.182   0.065   4.294
 2921SOL    HW2 8774   4.266   0.147   4.181
 2922SOL     OW 8775   4.021   0.035   3.895
 2922SOL    HW1 8776   4.070   0.119   3.874
 2922SOL    HW2 8777   4.083  -0.030   3.940
 2923SOL     OW 8778   4.951   1.570   4.517
 2923SOL    HW1 8779   4.972   1.644   4.452
 2923SOL    HW2 8780   5.019   1.570   4.590
 2924SOL     OW 8781   4.183   1.152   4.465
 2924SOL    HW1 8782   4.112   1.125   4.530
 2924SOL    HW2 8783   4.157   1.124   4.372
 2925SOL     OW 8784   4.212   1.385   3.898
 2925SOL    HW1 8785   4.125   1.370   3.945
 2925SOL    HW2 8786   4.195   1.411   3.803
 2926SOL     OW 8787   4.251   0.256   4.052
 2926SOL    HW1 8788   4.278   0.197   3.977
 2926SOL    HW2 8789   4.251   0.351   4.021
 2927SOL     OW 8790   4.429   1.050   4.092
 2927SOL    HW1 8791   4.415   1.057   4.191
 2927SOL    HW2 8792   4.513   0.999   4.074
 2928SOL     OW 8793   4.091   1.100   4.225
 2928SOL    HW1 8794   4.084   1.183   4.169
 2928SOL    HW2 8795   4.095   1.020   4.165
 2929SOL     OW 8796   4.290   0.537   4.589
 2929SOL    HW1 8797   4.302   0.603   4.515
 2929SOL    HW2 8798   4.336   0.571   4.672
 2930SOL     OW 8799   4.933   0.525   3.999
 2930SOL    HW1 8800   4.946   0.441   4.053
 2930SOL    HW2 8801   4.904   0.599   4.059
 2931SOL     OW 8802   4.456   0.634   4.788
 2931SOL    HW1 8803   4.515   0.608   4.712
 2931SOL    HW2 8804   4.428   0.730   4.777
 2932SOL     OW 8805   4.031   0.063   4.342
 2932SOL    HW1 8806   4.020   0.157   4.375
 2932SOL    HW2 8807   4.026   0.000   4.419
 2933SOL     OW 8808   4.747   0.766   4.690
 2933SOL    HW1 8809   4.762   0.787   4.786
 2933SOL    HW2 8810   4.717   0.671   4.681
 2934SOL     OW 8811   4.043   0.810   4.673
 2934SOL    HW1 8812   4.136   0.846   4.678
 2934SOL    HW2 8813   4.037   0.725   4.725
 2935SOL     OW 8814   3.732   1.326   3.924
 2935SOL    HW1 8815   3.639   1.347   3.893
 2935SOL    HW2 8816   3.742   1.227   3.937
 2936SOL     OW 8817   3.812   1.801   4.651
 2936SOL    HW1 8818   3.770   1.715   4.624
 2936SOL    HW2 8819   3.906   1.804   4.617
 2937SOL     OW 8820   4.228   1.568   4.634
 2937SOL    HW1 8821   4.294   1.642   4.643
 2937SOL    HW2 8822   4.272   1.489   4.592
 2938SOL     OW 8823   4.726   0.796   4.962
 2938SOL    HW1 8824   4.767   0.764   5.048
 2938SOL    HW2 8825   4.630   0.769   4.959
 2939SOL     OW 8826   4.539   0.572   4.049
 2939SOL    HW1 8827   4.546   0.483   4.003
 2939SOL    HW2 8828   4.445   0.606   4.041
 2940SOL     OW 8829   4.197   0.500   3.915
 2940SOL    HW1 8830   4.258   0.580   3.919
 2940SOL    HW2 8831   4.102   0.531   3.922
 2941SOL     OW 8832   4.627   0.086   3.857
 2941SOL    HW1 8833   4.678   0.087   3.771
 2941SOL    HW2 8834   4.683   0.044   3.928
 2942SOL     OW 8835   4.396   1.616   3.878
 2942SOL    HW1 8836   4.405   1.626   3.779
 2942SOL    HW2 8837   4.356   1.527   3.899
 2943SOL     OW 8838   3.987   0.326   4.444
 2943SOL    HW1 8839   3.908   0.377   4.410
 2943SOL    HW2 8840   3.978   0.311   4.542
 2944SOL     OW 8841   4.314   1.487   4.215
 2944SOL    HW1 8842   4.356   1.429   4.145
 2944SOL    HW2 8843   4.270   1.566   4.171
 2945SOL     OW 8844   3.979   1.348   4.014
 2945SOL    HW1 8845   3.883   1.349   3.987
 2945SOL    HW2 8846   3.991   1.401   4.098
 2946SOL     OW 8847   3.799   0.345   3.757
 2946SOL    HW1 8848   3.707   0.317   3.728
 2946SOL    HW2 8849   3.830   0.422   3.701
 2947SOL     OW 8850   3.796   0.166   4.042
 2947SOL    HW1 8851   3.779   0.249   3.988
 2947SOL    HW2 8852   3.886   0.129   4.020
 2948SOL     OW 8853   4.949   0.325   4.173
 2948SOL    HW1 8854   5.014   0.251   4.162
 2948SOL    HW2 8855   4.969   0.375   4.257
 2949SOL     OW 8856   4.318   0.745   4.376
 2949SOL    HW1 8857   4.368   0.830   4.357
 2949SOL    HW2 8858   4.230   0.747   4.328
 2950SOL     OW 8859   4.385   1.790   4.677
 2950SOL    HW1 8860   4.339   1.878   4.664
 2950SOL    HW2 8861   4.484   1.802   4.670
 2951SOL     OW 8862   4.583   0.956   4.585
 2951SOL    HW1 8863   4.637   0.887   4.633
 2951SOL    HW2 8864   4.551   1.025   4.651
 2952SOL     OW 8865   3.803   1.240   4.377
 2952SOL    HW1 8866   3.802   1.193   4.465
 2952SOL    HW2 8867   3.885   1.212   4.326
 2953SOL     OW 8868   4.152   0.424   4.244
 2953SOL    HW1 8869   4.182   0.352   4.182
 2953SOL    HW2 8870   4.113   0.384   4.327
 2954SOL     OW 8871   4.536   1.586   4.411
 2954SOL    HW1 8872   4.568   1.596   4.317
 2954SOL    HW2 8873   4.457   1.524   4.413
 2955SOL     OW 8874   4.494   1.330   4.025
 2955SOL    HW1 8875   4.448   1.243   4.042
 2955SOL    HW2 8876   4.585   1.327   4.066
 2956SOL     OW 8877   3.763   1.077   4.024
 2956SOL    HW1 8878   3.862   1.066   4.015
 2956SOL    HW2 8879   3.723   0.991   4.056
 2957SOL     OW 8880   4.599   1.646   4.061
 2957SOL    HW1 8881   4.522   1.611   4.007
 2957SOL    HW2 8882   4.567   1.717   4.123
 2958SOL     OW 8883   3.954   2.490   0.113
 2958SOL    HW1 8884   3.861   2.488   0.150
 2958SOL    HW2 8885   3.955   2.451   0.021
 2959SOL     OW 8886   3.949   2.137   0.996
 2959SOL    HW1 8887   3.984   2.120   1.088
 2959SOL    HW2 8888   3.861   2.092   0.984
 2960SOL     OW 8889   3.743   2.230   0.647
 2960SOL    HW1 8890   3.661   2.273   0.686
 2960SOL    HW2 8891   3.715   2.157   0.584
 2961SOL     OW 8892   4.293   3.137   1.165
 2961SOL    HW1 8893   4.200   3.130   1.128
 2961SOL    HW2 8894   4.304   3.226   1.209
 2962SOL     OW 8895   4.492   3.006   1.023
 2962SOL    HW1 8896   4.414   3.023   1.083
 2962SOL    HW2 8897   4.526   3.093   0.987
 2963SOL     OW 8898   4.574   2.660   1.823
 2963SOL    HW1 8899   4.570   2.736   1.888
 2963SOL    HW2 8900   4.596   2.696   1.732
 2964SOL     OW 8901   4.409   2.874   0.665
 2964SOL    HW1 8902   4.478   2.858   0.735
 2964SOL    HW2 8903   4.336   2.931   0.703
 2965SOL     OW 8904   4.410   3.023   1.803
 2965SOL    HW1 8905   4.470   3.102   1.817
 2965SOL    HW2 8906   4.324   3.054   1.762
 2966SOL     OW 8907   4.059   3.297   1.061
 2966SOL    HW1 8908   3.981   3.266   1.008
 2966SOL    HW2 8909   4.117   3.355   1.004
 2967SOL     OW 8910   4.162   2.254   1.499
 2967SOL    HW1 8911   4.244   2.198   1.508
 2967SOL    HW2 8912   4.081   2.196   1.503
 2968SOL     OW 8913   3.955   3.575   0.483
 2968SOL    HW1 8914   3.989   3.652   0.537
 2968SOL    HW2 8915   3.999   3.575   0.393
 2969SOL     OW 8916   3.954   3.296   0.538
 2969SOL    HW1 8917   3.928   3.392   0.538
 2969SOL    HW2 8918   3.883   3.242   0.583
 2970SOL     OW 8919   3.964   2.953   0.886
 2970SOL    HW1 8920   3.978   2.869   0.938
 2970SOL    HW2 8921   3.909   3.017   0.941
 2971SOL     OW 8922   4.344   3.648   1.439
 2971SOL    HW1 8923   4.252   3.631   1.474
 2971SOL    HW2 8924   4.372   3.740   1.465
 2972SOL     OW 8925   4.330   2.826   0.123
 2972SOL    HW1 8926   4.337   2.910   0.069
 2972SOL    HW2 8927   4.376   2.839   0.211
 2973SOL     OW 8928   3.846   2.505   0.563
 2973SOL    HW1 8929   3.801   2.417   0.580
 2973SOL    HW2 8930   3.845   2.559   0.647
 2974SOL     OW 8931   3.837   2.599   1.597
 2974SOL    HW1 8932   3.925   2.586   1.642
 2974SOL    HW2 8933   3.824   2.696   1.575
 2975SOL     OW 8934   4.337   3.227   0.726
 2975SOL    HW1 8935   4.288   3.140   0.735
 2975SOL    HW2 8936   4.314   3.270   0.639
 2976SOL     OW 8937   4.533   1.866   0.502
 2976SOL    HW1 8938   4.573   1.957   0.493
 2976SOL    HW2 8939   4.433   1.874   0.508
 2977SOL     OW 8940   3.921   2.838   1.264
 2977SOL    HW1 8941   4.010   2.793   1.250
 2977SOL    HW2 8942   3.848   2.773   1.245
 2978SOL     OW 8943   4.041   2.113   1.801
 2978SOL    HW1 8944   4.112   2.184   1.807
 2978SOL    HW2 8945   3.953   2.152   1.829
 2979SOL     OW 8946   4.322   2.591   0.270
 2979SOL    HW1 8947   4.346   2.660   0.202
 2979SOL    HW2 8948   4.244   2.624   0.324
 2980SOL     OW 8949   4.531   2.467   1.465
 2980SOL    HW1 8950   4.484   2.464   1.554
 2980SOL    HW2 8951   4.480   2.412   1.399
 2981SOL     OW 8952   4.715   2.272   1.242
 2981SOL    HW1 8953   4.638   2.306   1.296
 2981SOL    HW2 8954   4.681   2.221   1.163
 2982SOL     OW 8955   3.800   2.673   0.789
 2982SOL    HW1 8956   3.899   2.661   0.798
 2982SOL    HW2 8957   3.776   2.768   0.810
 2983SOL     OW 8958   3.854   3.683   1.571
 2983SOL    HW1 8959   3.844   3.668   1.670
 2983SOL    HW2 8960   3.768   3.719   1.535
 2984SOL     OW 8961   4.589   2.210   0.195
 2984SOL    HW1 8962   4.648   2.273   0.146
 2984SOL    HW2 8963   4.608   2.116   0.166
 2985SOL     OW 8964   4.274   2.058   0.885
 2985SOL    HW1 8965   4.269   2.053   0.985
 2985SOL    HW2 8966   4.276   2.154   0.856
 2986SOL     OW 8967   4.732   3.318   0.477
 2986SOL    HW1 8968   4.686   3.390   0.425
 2986SOL    HW2 8969   4.728   3.338   0.575
 2987SOL     OW 8970   4.075   3.663   0.853
 2987SOL    HW1 8971   4.125   3.577   0.859
 2987SOL    HW2 8972   4.140   3.740   0.850
 2988SOL     OW 8973   4.045   2.805   0.242
 2988SOL    HW1 8974   4.127   2.844   0.200
 2988SOL    HW2 8975   4.018   2.723   0.193
 2989SOL     OW 8976   4.185   3.128   1.727
 2989SOL    HW1 8977   4.135   3.129   1.641
 2989SOL    HW2 8978   4.122   3.110   1.803
 2990SOL     OW 8979   3.926   2.147   1.498
 2990SOL    HW1 8980   3.846   2.207   1.485
 2990SOL    HW2 8981   3.916   2.098   1.584
 2991SOL     OW 8982   4.188   3.605   0.323
 2991SOL    HW1 8983   4.221   3.644   0.409
 2991SOL    HW2 8984   4.264   3.598   0.258
 2992SOL     OW 8985   3.973   3.647   1.241
 2992SOL    HW1 8986   4.030   3.582   1.291
 2992SOL    HW2 8987   3.957   3.614   1.148
 2993SOL     OW 8988   4.106   2.562   0.480
 2993SOL    HW1 8989   4.151   2.472   0.477
 2993SOL    HW2 8990   4.012   2.551   0.513
 2994SOL     OW 8991   4.505   2.126   1.749
 2994SOL    HW1 8992   4.572   2.065   1.792
 2994SOL    HW2 8993   4.432   2.145   1.814
 2995SOL     OW 8994   4.527   3.264   0.924
 2995SOL    HW1 8995   4.617   3.278   0.882
 2995SOL    HW2 8996   4.456   3.266   0.853
 2996SOL     OW 8997   4.646   2.365   0.899
 2996SOL    HW1 8998   4.621   2.356   0.803
 2996SOL    HW2 8999   4.694   2.283   0.930
 2997SOL     OW 9000   4.263   1.926   0.512
 2997SOL    HW1 9001   4.182   1.927   0.570
 2997SOL    HW2 9002   4.266   2.009   0.457
 2998SOL     OW 9003   4.021   1.897   0.171
 2998SOL    HW1 9004   4.070   1.981   0.150
 2998SOL    HW2 9005   4.083   1.832   0.216
 2999SOL     OW 9006   4.951   3.432   0.793
 2999SOL    HW1 9007   4.972   3.506   0.728
 2999SOL    HW2 9008   5.019   3.432   0.866
 3000SOL     OW 9009   4.183   3.014   0.741
 3000SOL    HW1 9010   4.112   2.987   0.806
 3000SOL    HW2 9011   4.157   2.986   0.648
 3001SOL     OW 9012   3.802   2.418   1.386
 3001SOL    HW1 9013   3.894   2.417   1.345
 3001SOL    HW2 9014   3.796   2.492   1.453
 3002SOL     OW 9015   4.285   2.084   1.147
 3002SOL    HW1 9016   4.323   2.000   1.184
 3002SOL    HW2 9017   4.197   2.103   1.191
 3003SOL     OW 9018   4.212   3.247   0.174
 3003SOL    HW1 9019   4.125   3.232   0.221
 3003SOL    HW2 9020   4.195   3.273   0.079
 3004SOL     OW 9021   4.251   2.118   0.328
 3004SOL    HW1 9022   4.278   2.059   0.253
 3004SOL    HW2 9023   4.251   2.213   0.297
 3005SOL     OW 9024   4.639   1.951   1.402
 3005SOL    HW1 9025   4.664   1.931   1.307
 3005SOL    HW2 9026   4.711   2.007   1.444
 3006SOL     OW 9027   4.429   2.912   0.368
 3006SOL    HW1 9028   4.415   2.919   0.467
 3006SOL    HW2 9029   4.513   2.861   0.350
 3007SOL     OW 9030   4.134   2.675   1.251
 3007SOL    HW1 9031   4.220   2.687   1.301
 3007SOL    HW2 9032   4.092   2.588   1.278
 3008SOL     OW 9033   3.788   3.426   1.331
 3008SOL    HW1 9034   3.742   3.508   1.297
 3008SOL    HW2 9035   3.886   3.445   1.340
 3009SOL     OW 9036   4.091   2.962   0.501
 3009SOL    HW1 9037   4.084   3.045   0.445
 3009SOL    HW2 9038   4.095   2.882   0.441
 3010SOL     OW 9039   4.290   2.399   0.865
 3010SOL    HW1 9040   4.302   2.465   0.791
 3010SOL    HW2 9041   4.336   2.433   0.948
 3011SOL     OW 9042   4.078   3.372   1.329
 3011SOL    HW1 9043   4.057   3.328   1.242
 3011SOL    HW2 9044   4.175   3.398   1.332
 3012SOL     OW 9045   4.126   2.613   1.598
 3012SOL    HW1 9046   4.194   2.668   1.551
 3012SOL    HW2 9047   4.166   2.525   1.625
 3013SOL     OW 9048   4.228   1.912   1.740
 3013SOL    HW1 9049   4.186   1.855   1.670
 3013SOL    HW2 9050   4.162   1.981   1.772
 3014SOL     OW 9051   4.297   2.732   1.029
 3014SOL    HW1 9052   4.341   2.821   1.020
 3014SOL    HW2 9053   4.234   2.732   1.106
 3015SOL     OW 9054   4.933   2.387   0.275
 3015SOL    HW1 9055   4.946   2.303   0.329
 3015SOL    HW2 9056   4.904   2.461   0.335
 3016SOL     OW 9057   4.031   2.075   1.231
 3016SOL    HW1 9058   4.008   2.112   1.321
 3016SOL    HW2 9059   4.001   1.980   1.225
 3017SOL     OW 9060   3.761   3.172   1.282
 3017SOL    HW1 9061   3.814   3.123   1.350
 3017SOL    HW2 9062   3.783   3.270   1.287
 3018SOL     OW 9063   4.456   2.496   1.064
 3018SOL    HW1 9064   4.515   2.470   0.988
 3018SOL    HW2 9065   4.428   2.592   1.053
 3019SOL     OW 9066   4.031   1.925   0.618
 3019SOL    HW1 9067   4.020   2.019   0.651
 3019SOL    HW2 9068   4.026   1.862   0.695
 3020SOL     OW 9069   4.747   2.628   0.966
 3020SOL    HW1 9070   4.762   2.649   1.062
 3020SOL    HW2 9071   4.717   2.533   0.957
 3021SOL     OW 9072   4.704   3.435   1.700
 3021SOL    HW1 9073   4.684   3.479   1.612
 3021SOL    HW2 9074   4.743   3.344   1.684
 3022SOL     OW 9075   4.074   2.760   1.804
 3022SOL    HW1 9076   4.150   2.804   1.852
 3022SOL    HW2 9077   4.109   2.713   1.722
 3023SOL     OW 9078   4.043   2.672   0.949
 3023SOL    HW1 9079   4.136   2.708   0.954
 3023SOL    HW2 9080   4.037   2.587   1.001
 3024SOL     OW 9081   4.063   2.371   1.006
 3024SOL    HW1 9082   4.011   2.288   0.989
 3024SOL    HW2 9083   4.140   2.376   0.942
 3025SOL     OW 9084   3.732   3.188   0.200
 3025SOL    HW1 9085   3.639   3.209   0.169
 3025SOL    HW2 9086   3.742   3.089   0.213
 3026SOL     OW 9087   3.812   3.663   0.927
 3026SOL    HW1 9088   3.770   3.577   0.900
 3026SOL    HW2 9089   3.906   3.666   0.893
 3027SOL     OW 9090   4.228   3.430   0.910
 3027SOL    HW1 9091   4.294   3.504   0.919
 3027SOL    HW2 9092   4.272   3.351   0.868
 3028SOL     OW 9093   4.726   2.658   1.238
 3028SOL    HW1 9094   4.767   2.626   1.324
 3028SOL    HW2 9095   4.630   2.631   1.235
 3029SOL     OW 9096   3.764   2.406   1.114
 3029SOL    HW1 9097   3.849   2.373   1.073
 3029SOL    HW2 9098   3.777   2.421   1.212
 3030SOL     OW 9099   3.913   2.382   1.722
 3030SOL    HW1 9100   3.972   2.342   1.652
 3030SOL    HW2 9101   3.855   2.453   1.681
 3031SOL     OW 9102   4.539   2.434   0.325
 3031SOL    HW1 9103   4.546   2.345   0.279
 3031SOL    HW2 9104   4.445   2.468   0.317
 3032SOL     OW 9105   3.976   3.426   1.744
 3032SOL    HW1 9106   3.946   3.483   1.820
 3032SOL    HW2 9107   3.969   3.329   1.770
 3033SOL     OW 9108   4.395   2.326   1.269
 3033SOL    HW1 9109   4.361   2.237   1.239
 3033SOL    HW2 9110   4.421   2.380   1.189
 3034SOL     OW 9111   4.197   2.362   0.191
 3034SOL    HW1 9112   4.258   2.442   0.195
 3034SOL    HW2 9113   4.102   2.393   0.198
 3035SOL     OW 9114   3.883   2.999   1.466
 3035SOL    HW1 9115   3.905   2.938   1.542
 3035SOL    HW2 9116   3.893   2.950   1.380
 3036SOL     OW 9117   3.807   3.120   1.022
 3036SOL    HW1 9118   3.802   3.119   1.122
 3036SOL    HW2 9119   3.724   3.079   0.984
 3037SOL     OW 9120   4.412   3.524   1.716
 3037SOL    HW1 9121   4.356   3.605   1.725
 3037SOL    HW2 9122   4.464   3.528   1.630
 3038SOL     OW 9123   4.627   1.948   0.133
 3038SOL    HW1 9124   4.678   1.949   0.047
 3038SOL    HW2 9125   4.683   1.906   0.204
 3039SOL     OW 9126   3.854   3.656   1.851
 3039SOL    HW1 9127   3.813   3.582   1.904
 3039SOL    HW2 9128   3.918   3.707   1.909
 3040SOL     OW 9129   4.554   3.135   1.422
 3040SOL    HW1 9130   4.549   3.168   1.517
 3040SOL    HW2 9131   4.468   3.154   1.376
 3041SOL     OW 9132   4.396   3.478   0.154
 3041SOL    HW1 9133   4.405   3.488   0.055
 3041SOL    HW2 9134   4.356   3.389   0.175
 3042SOL     OW 9135   3.987   2.188   0.720
 3042SOL    HW1 9136   3.908   2.239   0.686
 3042SOL    HW2 9137   3.978   2.173   0.818
 3043SOL     OW 9138   4.918   3.474   0.031
 3043SOL    HW1 9139   4.924   3.381   0.068
 3043SOL    HW2 9140   4.859   3.474  -0.049
 3044SOL     OW 9141   4.546   2.864   1.372
 3044SOL    HW1 9142   4.586   2.863   1.280
 3044SOL    HW2 9143   4.556   2.956   1.412
 3045SOL     OW 9144   4.096   3.150   1.490
 3045SOL    HW1 9145   4.083   3.243   1.456
 3045SOL    HW2 9146   4.012   3.098   1.477
 3046SOL     OW 9147   4.314   3.349   0.491
 3046SOL    HW1 9148   4.356   3.291   0.421
 3046SOL    HW2 9149   4.270   3.428   0.447
 3047SOL     OW 9150   3.979   3.210   0.290
 3047SOL    HW1 9151   3.883   3.211   0.263
 3047SOL    HW2 9152   3.991   3.263   0.374
 3048SOL     OW 9153   3.829   2.875   1.726
 3048SOL    HW1 9154   3.752   2.842   1.780
 3048SOL    HW2 9155   3.914   2.845   1.768
 3049SOL     OW 9156   4.396   2.065   1.489
 3049SOL    HW1 9157   4.486   2.049   1.449
 3049SOL    HW2 9158   4.404   2.070   1.588
 3050SOL     OW 9159   3.796   2.028   0.318
 3050SOL    HW1 9160   3.779   2.111   0.264
 3050SOL    HW2 9161   3.886   1.991   0.296
 3051SOL     OW 9162   4.337   2.704   1.431
 3051SOL    HW1 9163   4.393   2.785   1.414
 3051SOL    HW2 9164   4.396   2.624   1.434
 3052SOL     OW 9165   4.440   2.427   1.708
 3052SOL    HW1 9166   4.459   2.492   1.782
 3052SOL    HW2 9167   4.500   2.347   1.717
 3053SOL     OW 9168   4.114   3.603   1.560
 3053SOL    HW1 9169   4.023   3.644   1.558
 3053SOL    HW2 9170   4.107   3.509   1.592
 3054SOL     OW 9171   4.949   2.187   0.449
 3054SOL    HW1 9172   5.014   2.113   0.438
 3054SOL    HW2 9173   4.969   2.237   0.533
 3055SOL     OW 9174   4.318   2.607   0.652
 3055SOL    HW1 9175   4.368   2.692   0.633
 3055SOL    HW2 9176   4.230   2.609   0.604
 3056SOL     OW 9177   4.385   3.652   0.953
 3056SOL    HW1 9178   4.339   3.740   0.940
 3056SOL    HW2 9179   4.484   3.664   0.946
 3057SOL     OW 9180   4.583   2.818   0.861
 3057SOL    HW1 9181   4.637   2.749   0.909
 3057SOL    HW2 9182   4.551   2.887   0.927
 3058SOL     OW 9183   4.807   2.846   0.087
 3058SOL    HW1 9184   4.784   2.899   0.005
 3058SOL    HW2 9185   4.888   2.790   0.068
 3059SOL     OW 9186   3.945   3.176   1.844
 3059SOL    HW1 9187   3.880   3.103   1.823
 3059SOL    HW2 9188   3.949   3.190   1.942
 3060SOL     OW 9189   3.803   3.102   0.653
 3060SOL    HW1 9190   3.802   3.055   0.741
 3060SOL    HW2 9191   3.885   3.074   0.602
 3061SOL     OW 9192   4.396   3.253   1.624
 3061SOL    HW1 9193   4.318   3.203   1.662
 3061SOL    HW2 9194   4.393   3.348   1.655
 3062SOL     OW 9195   4.152   2.286   0.520
 3062SOL    HW1 9196   4.182   2.214   0.458
 3062SOL    HW2 9197   4.113   2.246   0.603
 3063SOL     OW 9198   4.041   2.409   1.280
 3063SOL    HW1 9199   4.079   2.350   1.352
 3063SOL    HW2 9200   4.081   2.383   1.192
 3064SOL     OW 9201   4.536   3.448   0.687
 3064SOL    HW1 9202   4.568   3.458   0.593
 3064SOL    HW2 9203   4.457   3.386   0.689
 3065SOL     OW 9204   4.725   1.896   1.154
 3065SOL    HW1 9205   4.662   1.824   1.123
 3065SOL    HW2 9206   4.818   1.860   1.154
 3066SOL     OW 9207   4.494   3.192   0.301
 3066SOL    HW1 9208   4.448   3.105   0.318
 3066SOL    HW2 9209   4.585   3.189   0.342
 3067SOL     OW 9210   4.342   3.429   1.284
 3067SOL    HW1 9211   4.337   3.511   1.341
 3067SOL    HW2 9212   4.431   3.426   1.239
 3068SOL     OW 9213   3.763   2.939   0.300
 3068SOL    HW1 9214   3.862   2.928   0.291
 3068SOL    HW2 9215   3.723   2.853   0.332
 3069SOL     OW 9216   4.599   3.508   0.337
 3069SOL    HW1 9217   4.522   3.473   0.283
 3069SOL    HW2 9218   4.567   3.579   0.399
 3070SOL     OW 9219   3.954   2.490   1.975
 3070SOL    HW1 9220   3.861   2.488   2.012
 3070SOL    HW2 9221   3.955   2.451   1.883
 3071SOL     OW 9222   3.949   2.137   2.858
 3071SOL    HW1 9223   3.984   2.120   2.950
 3071SOL    HW2 9224   3.861   2.092   2.846
 3072SOL     OW 9225   3.743   2.230   2.509
 3072SOL    HW1 9226   3.661   2.273   2.548
 3072SOL    HW2 9227   3.715   2.157   2.446
 3073SOL     OW 9228   4.293   3.137   3.027
 3073SOL    HW1 9229   4.200   3.130   2.990
 3073SOL    HW2 9230   4.304   3.226   3.071
 3074SOL     OW 9231   4.492   3.006   2.885
 3074SOL    HW1 9232   4.414   3.023   2.945
 3074SOL    HW2 9233   4.526   3.093   2.849
 3075SOL     OW 9234   4.574   2.660   3.685
 3075SOL    HW1 9235   4.570   2.736   3.750
 3075SOL    HW2 9236   4.596   2.696   3.594
 3076SOL     OW 9237   4.409   2.874   2.527
 3076SOL    HW1 9238   4.478   2.858   2.597
 3076SOL    HW2 9239   4.336   2.931   2.565
 3077SOL     OW 9240   4.410   3.023   3.665
 3077SOL    HW1 9241   4.470   3.102   3.679
 3077SOL    HW2 9242   4.324   3.054   3.624
 3078SOL     OW 9243   4.059   3.297   2.923
 3078SOL    HW1 9244   3.981   3.266   2.870
 3078SOL    HW2 9245   4.117   3.355   2.866
 3079SOL     OW 9246   4.162   2.254   3.361
 3079SOL    HW1 9247   4.244   2.198   3.370
 3079SOL    HW2 9248   4.081   2.196   3.365
 3080SOL     OW 9249   3.955   3.575   2.345
 3080SOL    HW1 9250   3.989   3.652   2.399
 3080SOL    HW2 9251   3.999   3.575   2.255
 3081SOL     OW 9252   3.954   3.296   2.400
 3081SOL    HW1 9253   3.928   3.392   2.400
 3081SOL    HW2 9254   3.883   3.242   2.445
 3082SOL     OW 9255   3.964   2.953   2.748
 3082SOL    HW1 9256   3.978   2.869   2.800
 3082SOL    HW2 9257   3.909   3.017   2.803
 3083SOL     OW 9258   4.344   3.648   3.301
 3083SOL    HW1 9259   4.252   3.631   3.336
 3083SOL    HW2 9260   4.372   3.740   3.327
 3084SOL     OW 9261   4.330   2.826   1.985
 3084SOL    HW1 9262   4.337   2.910   1.931
 3084SOL    HW2 9263   4.376   2.839   2.073
 3085SOL     OW 9264   3.846   2.505   2.425
 3085SOL    HW1 9265   3.801   2.417   2.442
 3085SOL    HW2 9266   3.845   2.559   2.509
 3086SOL     OW 9267   3.751   3.458   1.979
 3086SOL    HW1 9268   3.732   3.362   2.000
 3086SOL    HW2 9269   3.718   3.516   2.054
 3087SOL     OW 9270   3.837   2.599   3.459
 3087SOL    HW1 9271   3.925   2.586   3.504
 3087SOL    HW2 9272   3.824   2.696   3.437
 3088SOL     OW 9273   4.337   3.227   2.588
 3088SOL    HW1 9274   4.288   3.140   2.597
 3088SOL    HW2 9275   4.314   3.270   2.501
 3089SOL     OW 9276   4.533   1.866   2.364
 3089SOL    HW1 9277   4.573   1.957   2.355
 3089SOL    HW2 9278   4.433   1.874   2.370
 3090SOL     OW 9279   3.921   2.838   3.126
 3090SOL    HW1 9280   4.010   2.793   3.112
 3090SOL    HW2 9281   3.848   2.773   3.107
 3091SOL     OW 9282   4.041   2.113   3.663
 3091SOL    HW1 9283   4.112   2.184   3.669
 3091SOL    HW2 9284   3.953   2.152   3.691
 3092SOL     OW 9285   4.322   2.591   2.132
 3092SOL    HW1 9286   4.346   2.660   2.064
 3092SOL    HW2 9287   4.244   2.624   2.186
 3093SOL     OW 9288   4.531   2.467   3.327
 3093SOL    HW1 9289   4.484   2.464   3.416
 3093SOL    HW2 9290   4.480   2.412   3.261
 3094SOL     OW 9291   4.715   2.272   3.104
 3094SOL    HW1 9292   4.638   2.306   3.158
 3094SOL    HW2 9293   4.681   2.221   3.025
 3095SOL     OW 9294   3.800   2.673   2.651
 3095SOL    HW1 9295   3.899   2.661   2.660
 3095SOL    HW2 9296   3.776   2.768   2.672
 3096SOL     OW 9297   3.854   3.683   3.433
 3096SOL    HW1 9298   3.844   3.668   3.532
 3096SOL    HW2 9299   3.768   3.719   3.397
 3097SOL     OW 9300   4.589   2.210   2.057
 3097SOL    HW1 9301   4.648   2.273   2.008
 3097SOL    HW2 9302   4.608   2.116   2.028
 3098SOL     OW 9303   4.274   2.058   2.747
 3098SOL    HW1 9304   4.269   2.053   2.847
 3098SOL    HW2 9305   4.276   2.154   2.718
 3099SOL     OW 9306   4.732   3.318   2.339
 3099SOL    HW1 9307   4.686   3.390   2.287
 3099SOL    HW2 9308   4.728   3.338   2.437
 3100SOL     OW 9309   4.075   3.663   2.715
 3100SOL    HW1 9310   4.125   3.577   2.721
 3100SOL    HW2 9311   4.140   3.740   2.712
 3101SOL     OW 9312   4.045   2.805   2.104
 3101SOL    HW1 9313   4.127   2.844   2.062
 3101SOL    HW2 9314   4.018   2.723   2.055
 3102SOL     OW 9315   4.185   3.128   3.589
 3102SOL    HW1 9316   4.135   3.129   3.503
 3102SOL    HW2 9317   4.122   3.110   3.665
 3103SOL     OW 9318   3.926   2.147   3.360
 3103SOL    HW1 9319   3.846   2.207   3.347
 3103SOL    HW2 9320   3.916   2.098   3.446
 3104SOL     OW 9321   4.188   3.605   2.185
 3104SOL    HW1 9322   4.221   3.644   2.271
 3104SOL    HW2 9323   4.264   3.598   2.120
 3105SOL     OW 9324   3.973   3.647   3.103
 3105SOL    HW1 9325   4.030   3.582   3.153
 3105SOL    HW2 9326   3.957   3.614   3.010
 3106SOL     OW 9327   4.106   2.562   2.342
 3106SOL    HW1 9328   4.151   2.472   2.339
 3106SOL    HW2 9329   4.012   2.551   2.375
 3107SOL     OW 9330   4.338   1.984   1.979
 3107SOL    HW1 9331   4.436   1.962   1.986
 3107SOL    HW2 9332   4.307   1.967   1.886
 3108SOL     OW 9333   4.505   2.126   3.611
 3108SOL    HW1 9334   4.572   2.065   3.654
 3108SOL    HW2 9335   4.432   2.145   3.676
 3109SOL     OW 9336   4.527   3.264   2.786
 3109SOL    HW1 9337   4.617   3.278   2.744
 3109SOL    HW2 9338   4.456   3.266   2.715
 3110SOL     OW 9339   4.646   2.365   2.761
 3110SOL    HW1 9340   4.621   2.356   2.665
 3110SOL    HW2 9341   4.694   2.283   2.792
 3111SOL     OW 9342   4.263   1.926   2.374
 3111SOL    HW1 9343   4.182   1.927   2.432
 3111SOL    HW2 9344   4.266   2.009   2.319
 3112SOL     OW 9345   4.021   1.897   2.033
 3112SOL    HW1 9346   4.070   1.981   2.012
 3112SOL    HW2 9347   4.083   1.832   2.078
 3113SOL     OW 9348   4.951   3.432   2.655
 3113SOL    HW1 9349   4.972   3.506   2.590
 3113SOL    HW2 9350   5.019   3.432   2.728
 3114SOL     OW 9351   4.183   3.014   2.603
 3114SOL    HW1 9352   4.112   2.987   2.668
 3114SOL    HW2 9353   4.157   2.986   2.510
 3115SOL     OW 9354   3.802   2.418   3.248
 3115SOL    HW1 9355   3.894   2.417   3.207
 3115SOL    HW2 9356   3.796   2.492   3.315
 3116SOL     OW 9357   4.285   2.084   3.009
 3116SOL    HW1 9358   4.323   2.000   3.046
 3116SOL    HW2 9359   4.197   2.103   3.053
 3117SOL     OW 9360   4.212   3.247   2.036
 3117SOL    HW1 9361   4.125   3.232   2.083
 3117SOL    HW2 9362   4.195   3.273   1.941
 3118SOL     OW 9363   4.251   2.118   2.190
 3118SOL    HW1 9364   4.278   2.059   2.115
 3118SOL    HW2 9365   4.251   2.213   2.159
 3119SOL     OW 9366   4.639   1.951   3.264
 3119SOL    HW1 9367   4.664   1.931   3.169
 3119SOL    HW2 9368   4.711   2.007   3.306
 3120SOL     OW 9369   4.429   2.912   2.230
 3120SOL    HW1 9370   4.415   2.919   2.329
 3120SOL    HW2 9371   4.513   2.861   2.212
 3121SOL     OW 9372   4.134   2.675   3.113
 3121SOL    HW1 9373   4.220   2.687   3.163
 3121SOL    HW2 9374   4.092   2.588   3.140
 3122SOL     OW 9375   3.788   3.426   3.193
 3122SOL    HW1 9376   3.742   3.508   3.159
 3122SOL    HW2 9377   3.886   3.445   3.202
 3123SOL     OW 9378   4.091   2.962   2.363
 3123SOL    HW1 9379   4.084   3.045   2.307
 3123SOL    HW2 9380   4.095   2.882   2.303
 3124SOL     OW 9381   4.290   2.399   2.727
 3124SOL    HW1 9382   4.302   2.465   2.653
 3124SOL    HW2 9383   4.336   2.433   2.810
 3125SOL     OW 9384   4.078   3.372   3.191
 3125SOL    HW1 9385   4.057   3.328   3.104
 3125SOL    HW2 9386   4.175   3.398   3.194
 3126SOL     OW 9387   4.126   2.613   3.460
 3126SOL    HW1 9388   4.194   2.668   3.413
 3126SOL    HW2 9389   4.166   2.525   3.487
 3127SOL     OW 9390   4.228   1.912   3.602
 3127SOL    HW1 9391   4.186   1.855   3.532
 3127SOL    HW2 9392   4.162   1.981   3.634
 3128SOL     OW 9393   4.297   2.732   2.891
 3128SOL    HW1 9394   4.341   2.821   2.882
 3128SOL    HW2 9395   4.234   2.732   2.968
 3129SOL     OW 9396   4.933   2.387   2.137
 3129SOL    HW1 9397   4.946   2.303   2.191
 3129SOL    HW2 9398   4.904   2.461   2.197
 3130SOL     OW 9399   4.031   2.075   3.093
 3130SOL    HW1 9400   4.008   2.112   3.183
 3130SOL    HW2 9401   4.001   1.980   3.087
 3131SOL     OW 9402   3.761   3.172   3.144
 3131SOL    HW1 9403   3.814   3.123   3.212
 3131SOL    HW2 9404   3.783   3.270   3.149
 3132SOL     OW 9405   4.456   2.496   2.926
 3132SOL    HW1 9406   4.515   2.470   2.850
 3132SOL    HW2 9407   4.428   2.592   2.915
 3133SOL     OW 9408   4.031   1.925   2.480
 3133SOL    HW1 9409   4.020   2.019   2.513
 3133SOL    HW2 9410   4.026   1.862   2.557
 3134SOL     OW 9411   4.747   2.628   2.828
 3134SOL    HW1 9412   4.762   2.649   2.924
 3134SOL    HW2 9413   4.717   2.533   2.819
 3135SOL     OW 9414   4.704   3.435   3.562
 3135SOL    HW1 9415   4.684   3.479   3.474
 3135SOL    HW2 9416   4.743   3.344   3.546
 3136SOL     OW 9417   4.074   2.760   3.666
 3136SOL    HW1 9418   4.150   2.804   3.714
 3136SOL    HW2 9419   4.109   2.713   3.584
 3137SOL     OW 9420   4.043   2.672   2.811
 3137SOL    HW1 9421   4.136   2.708   2.816
 3137SOL    HW2 9422   4.037   2.587   2.863
 3138SOL     OW 9423   4.063   2.371   2.868
 3138SOL    HW1 9424   4.011   2.288   2.851
 3138SOL    HW2 9425   4.140   2.376   2.804
 3139SOL     OW 9426   3.732   3.188   2.062
 3139SOL    HW1 9427   3.639   3.209   2.031
 3139SOL    HW2 9428   3.742   3.089   2.075
 3140SOL     OW 9429   3.812   3.663   2.789
 3140SOL    HW1 9430   3.770   3.577   2.762
 3140SOL    HW2 9431   3.906   3.666   2.755
 3141SOL     OW 9432   4.228   3.430   2.772
 3141SOL    HW1 9433   4.294   3.504   2.781
 3141SOL    HW2 9434   4.272   3.351   2.730
 3142SOL     OW 9435   4.726   2.658   3.100
 3142SOL    HW1 9436   4.767   2.626   3.186
 3142SOL    HW2 9437   4.630   2.631   3.097
 3143SOL     OW 9438   3.764   2.406   2.976
 3143SOL    HW1 9439   3.849   2.373   2.935
 3143SOL    HW2 9440   3.777   2.421   3.074
 3144SOL     OW 9441   3.913   2.382   3.584
 3144SOL    HW1 9442   3.972   2.342   3.514
 3144SOL    HW2 9443   3.855   2.453   3.543
 3145SOL     OW 9444   4.539   2.434   2.187
 3145SOL    HW1 9445   4.546   2.345   2.141
 3145SOL    HW2 9446   4.445   2.468   2.179
 3146SOL     OW 9447   3.976   3.426   3.606
 3146SOL    HW1 9448   3.946   3.483   3.682
 3146SOL    HW2 9449   3.969   3.329   3.632
 3147SOL     OW 9450   4.395   2.326   3.131
 3147SOL    HW1 9451   4.361   2.237   3.101
 3147SOL    HW2 9452   4.421   2.380   3.051
 3148SOL     OW 9453   4.197   2.362   2.053
 3148SOL    HW1 9454   4.258   2.442   2.057
 3148SOL    HW2 9455   4.102   2.393   2.060
 3149SOL     OW 9456   3.883   2.999   3.328
 3149SOL    HW1 9457   3.905   2.938   3.404
 3149SOL    HW2 9458   3.893   2.950   3.242
 3150SOL     OW 9459   3.807   3.120   2.884
 3150SOL    HW1 9460   3.802   3.119   2.984
 3150SOL    HW2 9461   3.724   3.079   2.846
 3151SOL     OW 9462   4.412   3.524   3.578
 3151SOL    HW1 9463   4.356   3.605   3.587
 3151SOL    HW2 9464   4.464   3.528   3.492
 3152SOL     OW 9465   4.627   1.948   1.995
 3152SOL    HW1 9466   4.678   1.949   1.909
 3152SOL    HW2 9467   4.683   1.906   2.066
 3153SOL     OW 9468   3.854   3.656   3.713
 3153SOL    HW1 9469   3.813   3.582   3.766
 3153SOL    HW2 9470   3.918   3.707   3.771
 3154SOL     OW 9471   4.554   3.135   3.284
 3154SOL    HW1 9472   4.549   3.168   3.379
 3154SOL    HW2 9473   4.468   3.154   3.238
 3155SOL     OW 9474   4.396   3.478   2.016
 3155SOL    HW1 9475   4.405   3.488   1.917
 3155SOL    HW2 9476   4.356   3.389   2.037
 3156SOL     OW 9477   3.987   2.188   2.582
 3156SOL    HW1 9478   3.908   2.239   2.548
 3156SOL    HW2 9479   3.978   2.173   2.680
 3157SOL     OW 9480   4.546   2.864   3.234
 3157SOL    HW1 9481   4.586   2.863   3.142
 3157SOL    HW2 9482   4.556   2.956   3.274
 3158SOL     OW 9483   4.096   3.150   3.352
 3158SOL    HW1 9484   4.083   3.243   3.318
 3158SOL    HW2 9485   4.012   3.098   3.339
 3159SOL     OW 9486   4.314   3.349   2.353
 3159SOL    HW1 9487   4.356   3.291   2.283
 3159SOL    HW2 9488   4.270   3.428   2.309
 3160SOL     OW 9489   3.979   3.210   2.152
 3160SOL    HW1 9490   3.883   3.211   2.125
 3160SOL    HW2 9491   3.991   3.263   2.236
 3161SOL     OW 9492   3.829   2.875   3.588
 3161SOL    HW1 9493   3.752   2.842   3.642
 3161SOL    HW2 9494   3.914   2.845   3.630
 3162SOL     OW 9495   4.396   2.065   3.351
 3162SOL    HW1 9496   4.486   2.049   3.311
 3162SOL    HW2 9497   4.404   2.070   3.450
 3163SOL     OW 9498   3.799   2.207   1.895
 3163SOL    HW1 9499   3.707   2.179   1.866
 3163SOL    HW2 9500   3.830   2.284   1.839
 3164SOL     OW 9501   3.796   2.028   2.180
 3164SOL    HW1 9502   3.779   2.111   2.126
 3164SOL    HW2 9503   3.886   1.991   2.158
 3165SOL     OW 9504   4.337   2.704   3.293
 3165SOL    HW1 9505   4.393   2.785   3.276
 3165SOL    HW2 9506   4.396   2.624   3.296
 3166SOL     OW 9507   4.440   2.427   3.570
 3166SOL    HW1 9508   4.459   2.492   3.644
 3166SOL    HW2 9509   4.500   2.347   3.579
 3167SOL     OW 9510   4.114   3.603   3.422
 3167SOL    HW1 9511   4.023   3.644   3.420
 3167SOL    HW2 9512   4.107   3.509   3.454
 3168SOL     OW 9513   4.949   2.187   2.311
 3168SOL    HW1 9514   5.014   2.113   2.300
 3168SOL    HW2 9515   4.969   2.237   2.395
 3169SOL     OW 9516   4.318   2.607   2.514
 3169SOL    HW1 9517   4.368   2.692   2.495
 3169SOL    HW2 9518   4.230   2.609   2.466
 3170SOL     OW 9519   4.385   3.652   2.815
 3170SOL    HW1 9520   4.339   3.740   2.802
 3170SOL    HW2 9521   4.484   3.664   2.808
 3171SOL     OW 9522   4.583   2.818   2.723
 3171SOL    HW1 9523   4.637   2.749   2.771
 3171SOL    HW2 9524   4.551   2.887   2.789
 3172SOL     OW 9525   3.945   3.176   3.706
 3172SOL    HW1 9526   3.880   3.103   3.685
 3172SOL    HW2 9527   3.949   3.190   3.804
 3173SOL     OW 9528   3.803   3.102   2.515
 3173SOL    HW1 9529   3.802   3.055   2.603
 3173SOL    HW2 9530   3.885   3.074   2.464
 3174SOL     OW 9531   4.396   3.253   3.486
 3174SOL    HW1 9532   4.318   3.203   3.524
 3174SOL    HW2 9533   4.393   3.348   3.517
 3175SOL     OW 9534   4.152   2.286   2.382
 3175SOL    HW1 9535   4.182   2.214   2.320
 3175SOL    HW2 9536   4.113   2.246   2.465
 3176SOL     OW 9537   4.041   2.409   3.142
 3176SOL    HW1 9538   4.079   2.350   3.214
 3176SOL    HW2 9539   4.081   2.383   3.054
 3177SOL     OW 9540   4.536   3.448   2.549
 3177SOL    HW1 9541   4.568   3.458   2.455
 3177SOL    HW2 9542   4.457   3.386   2.551
 3178SOL     OW 9543   4.725   1.896   3.016
 3178SOL    HW1 9544   4.662   1.824   2.985
 3178SOL    HW2 9545   4.818   1.860   3.016
 3179SOL     OW 9546   4.494   3.192   2.163
 3179SOL    HW1 9547   4.448   3.105   2.180
 3179SOL    HW2 9548   4.585   3.189   2.204
 3180SOL     OW 9549   4.342   3.429   3.146
 3180SOL    HW1 9550   4.337   3.511   3.203
 3180SOL    HW2 9551   4.431   3.426   3.101
 3181SOL     OW 9552   3.763   2.939   2.162
 3181SOL    HW1 9553   3.862   2.928   2.153
 3181SOL    HW2 9554   3.723   2.853   2.194
 3182SOL     OW 9555   4.599   3.508   2.199
 3182SOL    HW1 9556   4.522   3.473   2.145
 3182SOL    HW2 9557   4.567   3.579   2.261
 3183SOL     OW 9558   3.954   2.490   3.837
 3183SOL    HW1 9559   3.861   2.488   3.874
 3183SOL    HW2 9560   3.955   2.451   3.745
 3184SOL     OW 9561   3.949   2.137   4.720
 3184SOL    HW1 9562   3.984   2.120   4.812
 3184SOL    HW2 9563   3.861   2.092   4.708
 3185SOL     OW 9564   3.743   2.230   4.371
 3185SOL    HW1 9565   3.661   2.273   4.410
 3185SOL    HW2 9566   3.715   2.157   4.308
 3186SOL     OW 9567   4.492   3.006   4.747
 3186SOL    HW1 9568   4.414   3.023   4.807
 3186SOL    HW2 9569   4.526   3.093   4.711
 3187SOL     OW 9570   4.409   2.874   4.389
 3187SOL    HW1 9571   4.478   2.858   4.459
 3187SOL    HW2 9572   4.336   2.931   4.427
 3188SOL     OW 9573   3.955   3.575   4.207
 3188SOL    HW1 9574   3.989   3.652   4.261
 3188SOL    HW2 9575   3.999   3.575   4.117
 3189SOL     OW 9576   3.954   3.296   4.262
 3189SOL    HW1 9577   3.928   3.392   4.262
 3189SOL    HW2 9578   3.883   3.242   4.307
 3190SOL     OW 9579   3.964   2.953   4.610
 3190SOL    HW1 9580   3.978   2.869   4.662
 3190SOL    HW2 9581   3.909   3.017   4.665
 3191SOL     OW 9582   4.330   2.826   3.847
 3191SOL    HW1 9583   4.337   2.910   3.793
 3191SOL    HW2 9584   4.376   2.839   3.935
 3192SOL     OW 9585   3.846   2.505   4.287
 3192SOL    HW1 9586   3.801   2.417   4.304
 3192SOL    HW2 9587   3.845   2.559   4.371
 3193SOL     OW 9588   3.751   3.458   3.841
 3193SOL    HW1 9589   3.732   3.362   3.862
 3193SOL    HW2 9590   3.718   3.516   3.916
 3194SOL     OW 9591   4.337   3.227   4.450
 3194SOL    HW1 9592   4.288   3.140   4.459
 3194SOL    HW2 9593   4.314   3.270   4.363
 3195SOL     OW 9594   4.533   1.866   4.226
 3195SOL    HW1 9595   4.573   1.957   4.217
 3195SOL    HW2 9596   4.433   1.874   4.232
 3196SOL     OW 9597   4.322   2.591   3.994
 3196SOL    HW1 9598   4.346   2.660   3.926
 3196SOL    HW2 9599   4.244   2.624   4.048
 3197SOL     OW 9600   3.800   2.673   4.513
 3197SOL    HW1 9601   3.899   2.661   4.522
 3197SOL    HW2 9602   3.776   2.768   4.534
 3198SOL     OW 9603   4.589   2.210   3.919
 3198SOL    HW1 9604   4.648   2.273   3.870
 3198SOL    HW2 9605   4.608   2.116   3.890
 3199SOL     OW 9606   4.274   2.058   4.609
 3199SOL    HW1 9607   4.269   2.053   4.709
 3199SOL    HW2 9608   4.276   2.154   4.580
 3200SOL     OW 9609   4.732   3.318   4.201
 3200SOL    HW1 9610   4.686   3.390   4.149
 3200SOL    HW2 9611   4.728   3.338   4.299
 3201SOL     OW 9612   4.075   3.663   4.577
 3201SOL    HW1 9613   4.125   3.577   4.583
 3201SOL    HW2 9614   4.140   3.740   4.574
 3202SOL     OW 9615   4.045   2.805   3.966
 3202SOL    HW1 9616   4.127   2.844   3.924
 3202SOL    HW2 9617   4.018   2.723   3.917
 3203SOL     OW 9618   4.188   3.605   4.047
 3203SOL    HW1 9619   4.221   3.644   4.133
 3203SOL    HW2 9620   4.264   3.598   3.982
 3204SOL     OW 9621   4.106   2.562   4.204
 3204SOL    HW1 9622   4.151   2.472   4.201
 3204SOL    HW2 9623   4.012   2.551   4.237
 3205SOL     OW 9624   4.338   1.984   3.841
 3205SOL    HW1 9625   4.436   1.962   3.848
 3205SOL    HW2 9626   4.307   1.967   3.748
 3206SOL     OW 9627   4.527   3.264   4.648
 3206SOL    HW1 9628   4.617   3.278   4.606
 3206SOL    HW2 9629   4.456   3.266   4.577
 3207SOL     OW 9630   4.263   1.926   4.236
 3207SOL    HW1 9631   4.182   1.927   4.294
 3207SOL    HW2 9632   4.266   2.009   4.181
 3208SOL     OW 9633   4.021   1.897   3.895
 3208SOL    HW1 9634   4.070   1.981   3.874
 3208SOL    HW2 9635   4.083   1.832   3.940
 3209SOL     OW 9636   4.951   3.432   4.517
 3209SOL    HW1 9637   4.972   3.506   4.452
 3209SOL    HW2 9638   5.019   3.432   4.590
 3210SOL     OW 9639   4.183   3.014   4.465
 3210SOL    HW1 9640   4.112   2.987   4.530
 3210SOL    HW2 9641   4.157   2.986   4.372
 3211SOL     OW 9642   4.212   3.247   3.898
 3211SOL    HW1 9643   4.125   3.232   3.945
 3211SOL    HW2 9644   4.195   3.273   3.803
 3212SOL     OW 9645   4.251   2.118   4.052
 3212SOL    HW1 9646   4.278   2.059   3.977
 3212SOL    HW2 9647   4.251   2.213   4.021
 3213SOL     OW 9648   4.429   2.912   4.092
 3213SOL    HW1 9649   4.415   2.919   4.191
 3213SOL    HW2 9650   4.513   2.861   4.074
 3214SOL     OW 9651   4.091   2.962   4.225
 3214SOL    HW1 9652   4.084   3.045   4.169
 3214SOL    HW2 9653   4.095   2.882   4.165
 3215SOL     OW 9654   4.290   2.399   4.589
 3215SOL    HW1 9655   4.302   2.465   4.515
 3215SOL    HW2 9656   4.336   2.433   4.672
 3216SOL     OW 9657   4.933   2.387   3.999
 3216SOL    HW1 9658   4.946   2.303   4.053
 3216SOL    HW2 9659   4.904   2.461   4.059
 3217SOL     OW 9660   4.456   2.496   4.788
 3217SOL    HW1 9661   4.515   2.470   4.712
 3217SOL    HW2 9662   4.428   2.592   4.777
 3218SOL     OW 9663   4.031   1.925   4.342
 3218SOL    HW1 9664   4.020   2.019   4.375
 3218SOL    HW2 9665   4.026   1.862   4.419
 3219SOL     OW 9666   4.747   2.628   4.690
 3219SOL    HW1 9667   4.762   2.649   4.786
 3219SOL    HW2 9668   4.717   2.533   4.681
 3220SOL     OW 9669   4.043   2.672   4.673
 3220SOL    HW1 9670   4.136   2.708   4.678
 3220SOL    HW2 9671   4.037   2.587   4.725
 3221SOL     OW 9672   3.732   3.188   3.924
 3221SOL    HW1 9673   3.639   3.209   3.893
 3221SOL    HW2 9674   3.742   3.089   3.937
 3222SOL     OW 9675   3.812   3.663   4.651
 3222SOL    HW1 9676   3.770   3.577   4.624
 3222SOL    HW2 9677   3.906   3.666   4.617
 3223SOL     OW 9678   4.228   3.430   4.634
 3223SOL    HW1 9679   4.294   3.504   4.643
 3223SOL    HW2 9680   4.272   3.351   4.592
 3224SOL     OW 9681   4.726   2.658   4.962
 3224SOL    HW1 9682   4.767   2.626   5.048
 3224SOL    HW2 9683   4.630   2.631   4.959
 3225SOL     OW 9684   4.539   2.434   4.049
 3225SOL    HW1 9685   4.546   2.345   4.003
 3225SOL    HW2 9686   4.445   2.468   4.041
 3226SOL     OW 9687   4.197   2.362   3.915
 3226SOL    HW1 9688   4.258   2.442   3.919
 3226SOL    HW2 9689   4.102   2.393   3.922
 3227SOL     OW 9690   4.627   1.948   3.857
 3227SOL    HW1 9691   4.678   1.949   3.771
 3227SOL    HW2 9692   4.683   1.906   3.928
 3228SOL     OW 9693   4.396   3.478   3.878
 3228SOL    HW1 9694   4.405   3.488   3.779
 3228SOL    HW2 9695   4.356   3.389   3.899
 3229SOL     OW 9696   3.987   2.188   4.444
 3229SOL    HW1 9697   3.908   2.239   4.410
 3229SOL    HW2 9698   3.978   2.173   4.542
 3230SOL     OW 9699   4.314   3.349   4.215
 3230SOL    HW1 9700   4.356   3.291   4.145
 3230SOL    HW2 9701   4.270   3.428   4.171
 3231SOL     OW 9702   3.979   3.210   4.014
 3231SOL    HW1 9703   3.883   3.211   3.987
 3231SOL    HW2 9704   3.991   3.263   4.098
 3232SOL     OW 9705   3.799   2.207   3.757
 3232SOL    HW1 9706   3.707   2.179   3.728
 3232SOL    HW2 9707   3.830   2.284   3.701
 3233SOL     OW 9708   3.796   2.028   4.042
 3233SOL    HW1 9709   3.779   2.111   3.988
 3233SOL    HW2 9710   3.886   1.991   4.020
 3234SOL     OW 9711   4.949   2.187   4.173
 3234SOL    HW1 9712   5.014   2.113   4.162
 3234SOL    HW2 9713   4.969   2.237   4.257
 3235SOL     OW 9714   4.318   2.607   4.376
 3235SOL    HW1 9715   4.368   2.692   4.357
 3235SOL    HW2 9716   4.230   2.609   4.328
 3236SOL     OW 9717   4.385   3.652   4.677
 3236SOL    HW1 9718   4.339   3.740   4.664
 3236SOL    HW2 9719   4.484   3.664   4.670
 3237SOL     OW 9720   4.583   2.818   4.585
 3237SOL    HW1 9721   4.637   2.749   4.633
 3237SOL    HW2 9722   4.551   2.887   4.651
 3238SOL     OW 9723   3.803   3.102   4.377
 3238SOL    HW1 9724   3.802   3.055   4.465
 3238SOL    HW2 9725   3.885   3.074   4.326
 3239SOL     OW 9726   4.152   2.286   4.244
 3239SOL    HW1 9727   4.182   2.214   4.182
 3239SOL    HW2 9728   4.113   2.246   4.327
 3240SOL     OW 9729   4.536   3.448   4.411
 3240SOL    HW1 9730   4.568   3.458   4.317
 3240SOL    HW2 9731   4.457   3.386   4.413
 3241SOL     OW 9732   4.494   3.192   4.025
 3241SOL    HW1 9733   4.448   3.105   4.042
 3241SOL    HW2 9734   4.585   3.189   4.066
 3242SOL     OW 9735   3.763   2.939   4.024
 3242SOL    HW1 9736   3.862   2.928   4.015
 3242SOL    HW2 9737   3.723   2.853   4.056
 3243SOL     OW 9738   4.599   3.508   4.061
 3243SOL    HW1 9739   4.522   3.473   4.007
 3243SOL    HW2 9740   4.567   3.579   4.123
 3244SOL     OW 9741   3.954   4.352   0.113
 3244SOL    HW1 9742   3.861   4.350   0.150
 3244SOL    HW2 9743   3.955   4.313   0.021
 3245SOL     OW 9744   3.949   3.999   0.996
 3245SOL    HW1 9745   3.984   3.982   1.088
 3245SOL    HW2 9746   3.861   3.954   0.984
 3246SOL     OW 9747   3.743   4.092   0.647
 3246SOL    HW1 9748   3.661   4.135   0.686
 3246SOL    HW2 9749   3.715   4.019   0.584
 3247SOL     OW 9750   4.574   4.522   1.823
 3247SOL    HW1 9751   4.570   4.598   1.888
 3247SOL    HW2 9752   4.596   4.558   1.732
 3248SOL     OW 9753   4.409   4.736   0.665
 3248SOL    HW1 9754   4.478   4.720   0.735
 3248SOL    HW2 9755   4.336   4.793   0.703
 3249SOL     OW 9756   4.162   4.116   1.499
 3249SOL    HW1 9757   4.244   4.060   1.508
 3249SOL    HW2 9758   4.081   4.058   1.503
 3250SOL     OW 9759   3.846   4.367   0.563
 3250SOL    HW1 9760   3.801   4.279   0.580
 3250SOL    HW2 9761   3.845   4.421   0.647
 3251SOL     OW 9762   3.837   4.461   1.597
 3251SOL    HW1 9763   3.925   4.448   1.642
 3251SOL    HW2 9764   3.824   4.558   1.575
 3252SOL     OW 9765   4.533   3.728   0.502
 3252SOL    HW1 9766   4.573   3.819   0.493
 3252SOL    HW2 9767   4.433   3.736   0.508
 3253SOL     OW 9768   3.921   4.700   1.264
 3253SOL    HW1 9769   4.010   4.655   1.250
 3253SOL    HW2 9770   3.848   4.635   1.245
 3254SOL     OW 9771   4.041   3.975   1.801
 3254SOL    HW1 9772   4.112   4.046   1.807
 3254SOL    HW2 9773   3.953   4.014   1.829
 3255SOL     OW 9774   4.322   4.453   0.270
 3255SOL    HW1 9775   4.346   4.522   0.202
 3255SOL    HW2 9776   4.244   4.486   0.324
 3256SOL     OW 9777   4.531   4.329   1.465
 3256SOL    HW1 9778   4.484   4.326   1.554
 3256SOL    HW2 9779   4.480   4.274   1.399
 3257SOL     OW 9780   4.715   4.134   1.242
 3257SOL    HW1 9781   4.638   4.168   1.296
 3257SOL    HW2 9782   4.681   4.083   1.163
 3258SOL     OW 9783   3.800   4.535   0.789
 3258SOL    HW1 9784   3.899   4.523   0.798
 3258SOL    HW2 9785   3.776   4.630   0.810
 3259SOL     OW 9786   4.589   4.072   0.195
 3259SOL    HW1 9787   4.648   4.135   0.146
 3259SOL    HW2 9788   4.608   3.978   0.166
 3260SOL     OW 9789   4.274   3.920   0.885
 3260SOL    HW1 9790   4.269   3.915   0.985
 3260SOL    HW2 9791   4.276   4.016   0.856
 3261SOL     OW 9792   3.926   4.009   1.498
 3261SOL    HW1 9793   3.846   4.069   1.485
 3261SOL    HW2 9794   3.916   3.960   1.584
 3262SOL     OW 9795   4.106   4.424   0.480
 3262SOL    HW1 9796   4.151   4.334   0.477
 3262SOL    HW2 9797   4.012   4.413   0.513
 3263SOL     OW 9798   4.505   3.988   1.749
 3263SOL    HW1 9799   4.572   3.927   1.792
 3263SOL    HW2 9800   4.432   4.007   1.814
 3264SOL     OW 9801   4.646   4.227   0.899
 3264SOL    HW1 9802   4.621   4.218   0.803
 3264SOL    HW2 9803   4.694   4.145   0.930
 3265SOL     OW 9804   4.263   3.788   0.512
 3265SOL    HW1 9805   4.182   3.789   0.570
 3265SOL    HW2 9806   4.266   3.871   0.457
 3266SOL     OW 9807   4.021   3.759   0.171
 3266SOL    HW1 9808   4.070   3.843   0.150
 3266SOL    HW2 9809   4.083   3.694   0.216
 3267SOL     OW 9810   3.802   4.280   1.386
 3267SOL    HW1 9811   3.894   4.279   1.345
 3267SOL    HW2 9812   3.796   4.354   1.453
 3268SOL     OW 9813   4.285   3.946   1.147
 3268SOL    HW1 9814   4.323   3.862   1.184
 3268SOL    HW2 9815   4.197   3.965   1.191
 3269SOL     OW 9816   4.251   3.980   0.328
 3269SOL    HW1 9817   4.278   3.921   0.253
 3269SOL    HW2 9818   4.251   4.075   0.297
 3270SOL     OW 9819   4.639   3.813   1.402
 3270SOL    HW1 9820   4.664   3.793   1.307
 3270SOL    HW2 9821   4.711   3.869   1.444
 3271SOL     OW 9822   4.134   4.537   1.251
 3271SOL    HW1 9823   4.220   4.549   1.301
 3271SOL    HW2 9824   4.092   4.450   1.278
 3272SOL     OW 9825   4.290   4.261   0.865
 3272SOL    HW1 9826   4.302   4.327   0.791
 3272SOL    HW2 9827   4.336   4.295   0.948
 3273SOL     OW 9828   4.126   4.475   1.598
 3273SOL    HW1 9829   4.194   4.530   1.551
 3273SOL    HW2 9830   4.166   4.387   1.625
 3274SOL     OW 9831   4.228   3.774   1.740
 3274SOL    HW1 9832   4.186   3.717   1.670
 3274SOL    HW2 9833   4.162   3.843   1.772
 3275SOL     OW 9834   4.297   4.594   1.029
 3275SOL    HW1 9835   4.341   4.683   1.020
 3275SOL    HW2 9836   4.234   4.594   1.106
 3276SOL     OW 9837   4.933   4.249   0.275
 3276SOL    HW1 9838   4.946   4.165   0.329
 3276SOL    HW2 9839   4.904   4.323   0.335
 3277SOL     OW 9840   4.031   3.937   1.231
 3277SOL    HW1 9841   4.008   3.974   1.321
 3277SOL    HW2 9842   4.001   3.842   1.225
 3278SOL     OW 9843   4.456   4.358   1.064
 3278SOL    HW1 9844   4.515   4.332   0.988
 3278SOL    HW2 9845   4.428   4.454   1.053
 3279SOL     OW 9846   4.031   3.787   0.618
 3279SOL    HW1 9847   4.020   3.881   0.651
 3279SOL    HW2 9848   4.026   3.724   0.695
 3280SOL     OW 9849   4.747   4.490   0.966
 3280SOL    HW1 9850   4.762   4.511   1.062
 3280SOL    HW2 9851   4.717   4.395   0.957
 3281SOL     OW 9852   4.074   4.622   1.804
 3281SOL    HW1 9853   4.150   4.666   1.852
 3281SOL    HW2 9854   4.109   4.575   1.722
 3282SOL     OW 9855   4.043   4.534   0.949
 3282SOL    HW1 9856   4.136   4.570   0.954
 3282SOL    HW2 9857   4.037   4.449   1.001
 3283SOL     OW 9858   4.063   4.233   1.006
 3283SOL    HW1 9859   4.011   4.150   0.989
 3283SOL    HW2 9860   4.140   4.238   0.942
 3284SOL     OW 9861   4.726   4.520   1.238
 3284SOL    HW1 9862   4.767   4.488   1.324
 3284SOL    HW2 9863   4.630   4.493   1.235
 3285SOL     OW 9864   3.764   4.268   1.114
 3285SOL    HW1 9865   3.849   4.235   1.073
 3285SOL    HW2 9866   3.777   4.283   1.212
 3286SOL     OW 9867   3.913   4.244   1.722
 3286SOL    HW1 9868   3.972   4.204   1.652
 3286SOL    HW2 9869   3.855   4.315   1.681
 3287SOL     OW 9870   4.539   4.296   0.325
 3287SOL    HW1 9871   4.546   4.207   0.279
 3287SOL    HW2 9872   4.445   4.330   0.317
 3288SOL     OW 9873   4.395   4.188   1.269
 3288SOL    HW1 9874   4.361   4.099   1.239
 3288SOL    HW2 9875   4.421   4.242   1.189
 3289SOL     OW 9876   4.197   4.224   0.191
 3289SOL    HW1 9877   4.258   4.304   0.195
 3289SOL    HW2 9878   4.102   4.255   0.198
 3290SOL     OW 9879   4.627   3.810   0.133
 3290SOL    HW1 9880   4.678   3.811   0.047
 3290SOL    HW2 9881   4.683   3.768   0.204
 3291SOL     OW 9882   3.987   4.050   0.720
 3291SOL    HW1 9883   3.908   4.101   0.686
 3291SOL    HW2 9884   3.978   4.035   0.818
 3292SOL     OW 9885   4.763   4.822   0.696
 3292SOL    HW1 9886   4.693   4.775   0.750
 3292SOL    HW2 9887   4.822   4.754   0.653
 3293SOL     OW 9888   3.829   4.737   1.726
 3293SOL    HW1 9889   3.752   4.704   1.780
 3293SOL    HW2 9890   3.914   4.707   1.768
 3294SOL     OW 9891   4.396   3.927   1.489
 3294SOL    HW1 9892   4.486   3.911   1.449
 3294SOL    HW2 9893   4.404   3.932   1.588
 3295SOL     OW 9894   3.796   3.890   0.318
 3295SOL    HW1 9895   3.779   3.973   0.264
 3295SOL    HW2 9896   3.886   3.853   0.296
 3296SOL     OW 9897   4.337   4.566   1.431
 3296SOL    HW1 9898   4.393   4.647   1.414
 3296SOL    HW2 9899   4.396   4.486   1.434
 3297SOL     OW 9900   4.440   4.289   1.708
 3297SOL    HW1 9901   4.459   4.354   1.782
 3297SOL    HW2 9902   4.500   4.209   1.717
 3298SOL     OW 9903   4.949   4.049   0.449
 3298SOL    HW1 9904   5.014   3.975   0.438
 3298SOL    HW2 9905   4.969   4.099   0.533
 3299SOL     OW 9906   4.318   4.469   0.652
 3299SOL    HW1 9907   4.368   4.554   0.633
 3299SOL    HW2 9908   4.230   4.471   0.604
 3300SOL     OW 9909   4.583   4.680   0.861
 3300SOL    HW1 9910   4.637   4.611   0.909
 3300SOL    HW2 9911   4.551   4.749   0.927
 3301SOL     OW 9912   4.152   4.148   0.520
 3301SOL    HW1 9913   4.182   4.076   0.458
 3301SOL    HW2 9914   4.113   4.108   0.603
 3302SOL     OW 9915   4.041   4.271   1.280
 3302SOL    HW1 9916   4.079   4.212   1.352
 3302SOL    HW2 9917   4.081   4.245   1.192
 3303SOL     OW 9918   4.725   3.758   1.154
 3303SOL    HW1 9919   4.662   3.686   1.123
 3303SOL    HW2 9920   4.818   3.722   1.154
 3304SOL     OW 9921   3.954   4.352   1.975
 3304SOL    HW1 9922   3.861   4.350   2.012
 3304SOL    HW2 9923   3.955   4.313   1.883
 3305SOL     OW 9924   3.949   3.999   2.858
 3305SOL    HW1 9925   3.984   3.982   2.950
 3305SOL    HW2 9926   3.861   3.954   2.846
 3306SOL     OW 9927   3.743   4.092   2.509
 3306SOL    HW1 9928   3.661   4.135   2.548
 3306SOL    HW2 9929   3.715   4.019   2.446
 3307SOL     OW 9930   4.574   4.522   3.685
 3307SOL    HW1 9931   4.570   4.598   3.750
 3307SOL    HW2 9932   4.596   4.558   3.594
 3308SOL     OW 9933   4.409   4.736   2.527
 3308SOL    HW1 9934   4.478   4.720   2.597
 3308SOL    HW2 9935   4.336   4.793   2.565
 3309SOL     OW 9936   4.162   4.116   3.361
 3309SOL    HW1 9937   4.244   4.060   3.370
 3309SOL    HW2 9938   4.081   4.058   3.365
 3310SOL     OW 9939   3.846   4.367   2.425
 3310SOL    HW1 9940   3.801   4.279   2.442
 3310SOL    HW2 9941   3.845   4.421   2.509
 3311SOL     OW 9942   3.837   4.461   3.459
 3311SOL    HW1 9943   3.925   4.448   3.504
 3311SOL    HW2 9944   3.824   4.558   3.437
 3312SOL     OW 9945   4.533   3.728   2.364
 3312SOL    HW1 9946   4.573   3.819   2.355
 3312SOL    HW2 9947   4.433   3.736   2.370
 3313SOL     OW 9948   3.921   4.700   3.126
 3313SOL    HW1 9949   4.010   4.655   3.112
 3313SOL    HW2 9950   3.848   4.635   3.107
 3314SOL     OW 9951   4.041   3.975   3.663
 3314SOL    HW1 9952   4.112   4.046   3.669
 3314SOL    HW2 9953   3.953   4.014   3.691
 3315SOL     OW 9954   4.322   4.453   2.132
 3315SOL    HW1 9955   4.346   4.522   2.064
 3315SOL    HW2 9956   4.244   4.486   2.186
 3316SOL     OW 9957   4.531   4.329   3.327
 3316SOL    HW1 9958   4.484   4.326   3.416
 3316SOL    HW2 9959   4.480   4.274   3.261
 3317SOL     OW 9960   4.715   4.134   3.104
 3317SOL    HW1 9961   4.638   4.168   3.158
 3317SOL    HW2 9962   4.681   4.083   3.025
 3318SOL     OW 9963   3.800   4.535   2.651
 3318SOL    HW1 9964   3.899   4.523   2.660
 3318SOL    HW2 9965   3.776   4.630   2.672
 3319SOL     OW 9966   4.589   4.072   2.057
 3319SOL    HW1 9967   4.648   4.135   2.008
 3319SOL    HW2 9968   4.608   3.978   2.028
 3320SOL     OW 9969   4.274   3.920   2.747
 3320SOL    HW1 9970   4.269   3.915   2.847
 3320SOL    HW2 9971   4.276   4.016   2.718
 3321SOL     OW 9972   3.926   4.009   3.360
 3321SOL    HW1 9973   3.846   4.069   3.347
 3321SOL    HW2 9974   3.916   3.960   3.446
 3322SOL     OW 9975   4.106   4.424   2.342
 3322SOL    HW1 9976   4.151   4.334   2.339
 3322SOL    HW2 9977   4.012   4.413   2.375
 3323SOL     OW 9978   4.338   3.846   1.979
 3323SOL    HW1 9979   4.436   3.824   1.986
 3323SOL    HW2 9980   4.307   3.829   1.886
 3324SOL     OW 9981   4.505   3.988   3.611
 3324SOL    HW1 9982   4.572   3.927   3.654
 3324SOL    HW2 9983   4.432   4.007   3.676
 3325SOL     OW 9984   4.646   4.227   2.761
 3325SOL    HW1 9985   4.621   4.218   2.665
 3325SOL    HW2 9986   4.694   4.145   2.792
 3326SOL     OW 9987   4.263   3.788   2.374
 3326SOL    HW1 9988   4.182   3.789   2.432
 3326SOL    HW2 9989   4.266   3.871   2.319
 3327SOL     OW 9990   4.021   3.759   2.033
 3327SOL    HW1 9991   4.070   3.843   2.012
 3327SOL    HW2 9992   4.083   3.694   2.078
 3328SOL     OW 9993   3.802   4.280   3.248
 3328SOL    HW1 9994   3.894   4.279   3.207
 3328SOL    HW2 9995   3.796   4.354   3.315
 3329SOL     OW 9996   4.285   3.946   3.009
 3329SOL    HW1 9997   4.323   3.862   3.046
 3329SOL    HW2 9998   4.197   3.965   3.053
 3330SOL     OW 9999   4.251   3.980   2.190
 3330SOL    HW110000   4.278   3.921   2.115
 3330SOL    HW210001   4.251   4.075   2.159
 3331SOL     OW10002   4.639   3.813   3.264
 3331SOL    HW110003   4.664   3.793   3.169
 3331SOL    HW210004   4.711   3.869   3.306
 3332SOL     OW10005   4.134   4.537   3.113
 3332SOL    HW110006   4.220   4.549   3.163
 3332SOL    HW210007   4.092   4.450   3.140
 3333SOL     OW10008   4.290   4.261   2.727
 3333SOL    HW110009   4.302   4.327   2.653
 3333SOL    HW210010   4.336   4.295   2.810
 3334SOL     OW10011   4.126   4.475   3.460
 3334SOL    HW110012   4.194   4.530   3.413
 3334SOL    HW210013   4.166   4.387   3.487
 3335SOL     OW10014   4.228   3.774   3.602
 3335SOL    HW110015   4.186   3.717   3.532
 3335SOL    HW210016   4.162   3.843   3.634
 3336SOL     OW10017   4.297   4.594   2.891
 3336SOL    HW110018   4.341   4.683   2.882
 3336SOL    HW210019   4.234   4.594   2.968
 3337SOL     OW10020   4.933   4.249   2.137
 3337SOL    HW110021   4.946   4.165   2.191
 3337SOL    HW210022   4.904   4.323   2.197
 3338SOL     OW10023   4.031   3.937   3.093
 3338SOL    HW110024   4.008   3.974   3.183
 3338SOL    HW210025   4.001   3.842   3.087
 3339SOL     OW10026   4.456   4.358   2.926
 3339SOL    HW110027   4.515   4.332   2.850
 3339SOL    HW210028   4.428   4.454   2.915
 3340SOL     OW10029   4.031   3.787   2.480
 3340SOL    HW110030   4.020   3.881   2.513
 3340SOL    HW210031   4.026   3.724   2.557
 3341SOL     OW10032   4.747   4.490   2.828
 3341SOL    HW110033   4.762   4.511   2.924
 3341SOL    HW210034   4.717   4.395   2.819
 3342SOL     OW10035   4.074   4.622   3.666
 3342SOL    HW110036   4.150   4.666   3.714
 3342SOL    HW210037   4.109   4.575   3.584
 3343SOL     OW10038   4.043   4.534   2.811
 3343SOL    HW110039   4.136   4.570   2.816
 3343SOL    HW210040   4.037   4.449   2.863
 3344SOL     OW10041   4.063   4.233   2.868
 3344SOL    HW110042   4.011   4.150   2.851
 3344SOL    HW210043   4.140   4.238   2.804
 3345SOL     OW10044   4.726   4.520   3.100
 3345SOL    HW110045   4.767   4.488   3.186
 3345SOL    HW210046   4.630   4.493   3.097
 3346SOL     OW10047   3.764   4.268   2.976
 3346SOL    HW110048   3.849   4.235   2.935
 3346SOL    HW210049   3.777   4.283   3.074
 3347SOL     OW10050   3.913   4.244   3.584
 3347SOL    HW110051   3.972   4.204   3.514
 3347SOL    HW210052   3.855   4.315   3.543
 3348SOL     OW10053   4.539   4.296   2.187
 3348SOL    HW110054   4.546   4.207   2.141
 3348SOL    HW210055   4.445   4.330   2.179
 3349SOL     OW10056   4.395   4.188   3.131
 3349SOL    HW110057   4.361   4.099   3.101
 3349SOL    HW210058   4.421   4.242   3.051
 3350SOL     OW10059   4.197   4.224   2.053
 3350SOL    HW110060   4.258   4.304   2.057
 3350SOL    HW210061   4.102   4.255   2.060
 3351SOL     OW10062   4.627   3.810   1.995
 3351SOL    HW110063   4.678   3.811   1.909
 3351SOL    HW210064   4.683   3.768   2.066
 3352SOL     OW10065   3.987   4.050   2.582
 3352SOL    HW110066   3.908   4.101   2.548
 3352SOL    HW210067   3.978   4.035   2.680
 3353SOL     OW10068   4.763   4.822   2.558
 3353SOL    HW110069   4.693   4.775   2.612
 3353SOL    HW210070   4.822   4.754   2.515
 3354SOL     OW10071   3.829   4.737   3.588
 3354SOL    HW110072   3.752   4.704   3.642
 3354SOL    HW210073   3.914   4.707   3.630
 3355SOL     OW10074   4.396   3.927   3.351
 3355SOL    HW110075   4.486   3.911   3.311
 3355SOL    HW210076   4.404   3.932   3.450
 3356SOL     OW10077   3.799   4.069   1.895
 3356SOL    HW110078   3.707   4.041   1.866
 3356SOL    HW210079   3.830   4.146   1.839
 3357SOL     OW10080   3.796   3.890   2.180
 3357SOL    HW110081   3.779   3.973   2.126
 3357SOL    HW210082   3.886   3.853   2.158
 3358SOL     OW10083   4.337   4.566   3.293
 3358SOL    HW110084   4.393   4.647   3.276
 3358SOL    HW210085   4.396   4.486   3.296
 3359SOL     OW10086   4.440   4.289   3.570
 3359SOL    HW110087   4.459   4.354   3.644
 3359SOL    HW210088   4.500   4.209   3.579
 3360SOL     OW10089   4.949   4.049   2.311
 3360SOL    HW110090   5.014   3.975   2.300
 3360SOL    HW210091   4.969   4.099   2.395
 3361SOL     OW10092   4.318   4.469   2.514
 3361SOL    HW110093   4.368   4.554   2.495
 3361SOL    HW210094   4.230   4.471   2.466
 3362SOL     OW10095   4.583   4.680   2.723
 3362SOL    HW110096   4.637   4.611   2.771
 3362SOL    HW210097   4.551   4.749   2.789
 3363SOL     OW10098   4.152   4.148   2.382
 3363SOL    HW110099   4.182   4.076   2.320
 3363SOL    HW210100   4.113   4.108   2.465
 3364SOL     OW10101   4.041   4.271   3.142
 3364SOL    HW110102   4.079   4.212   3.214
 3364SOL    HW210103   4.081   4.245   3.054
 3365SOL     OW10104   4.725   3.758   3.016
 3365SOL    HW110105   4.662   3.686   2.985
 3365SOL    HW210106   4.818   3.722   3.016
 3366SOL     OW10107   3.954   4.352   3.837
 3366SOL    HW110108   3.861   4.350   3.874
 3366SOL    HW210109   3.955   4.313   3.745
 3367SOL     OW10110   3.949   3.999   4.720
 3367SOL    HW110111   3.984   3.982   4.812
 3367SOL    HW210112   3.861   3.954   4.708
 3368SOL     OW10113   3.743   4.092   4.371
 3368SOL    HW110114   3.661   4.135   4.410
 3368SOL    HW210115   3.715   4.019   4.308
 3369SOL     OW10116   4.409   4.736   4.389
 3369SOL    HW110117   4.478   4.720   4.459
 3369SOL    HW210118   4.336   4.793   4.427
 3370SOL     OW10119   3.846   4.367   4.287
 3370SOL    HW110120   3.801   4.279   4.304
 3370SOL    HW210121   3.845   4.421   4.371
 3371SOL     OW10122   4.533   3.728   4.226
 3371SOL    HW110123   4.573   3.819   4.217
 3371SOL    HW210124   4.433   3.736   4.232
 3372SOL     OW10125   4.322   4.453   3.994
 3372SOL    HW110126   4.346   4.522   3.926
 3372SOL    HW210127   4.244   4.486   4.048
 3373SOL     OW10128   3.800   4.535   4.513
 3373SOL    HW110129   3.899   4.523   4.522
 3373SOL    HW210130   3.776   4.630   4.534
 3374SOL     OW10131   4.589   4.072   3.919
 3374SOL    HW110132   4.648   4.135   3.870
 3374SOL    HW210133   4.608   3.978   3.890
 3375SOL     OW10134   4.274   3.920   4.609
 3375SOL    HW110135   4.269   3.915   4.709
 3375SOL    HW210136   4.276   4.016   4.580
 3376SOL     OW10137   4.106   4.424   4.204
 3376SOL    HW110138   4.151   4.334   4.201
 3376SOL    HW210139   4.012   4.413   4.237
 3377SOL     OW10140   4.338   3.846   3.841
 3377SOL    HW110141   4.436   3.824   3.848
 3377SOL    HW210142   4.307   3.829   3.748
 3378SOL     OW10143   4.263   3.788   4.236
 3378SOL    HW110144   4.182   3.789   4.294
 3378SOL    HW210145   4.266   3.871   4.181
 3379SOL     OW10146   4.021   3.759   3.895
 3379SOL    HW110147   4.070   3.843   3.874
 3379SOL    HW210148   4.083   3.694   3.940
 3380SOL     OW10149   4.251   3.980   4.052
 3380SOL    HW110150   4.278   3.921   3.977
 3380SOL    HW210151   4.251   4.075   4.021
 3381SOL     OW10152   4.290   4.261   4.589
 3381SOL    HW110153   4.302   4.327   4.515
 3381SOL    HW210154   4.336   4.295   4.672
 3382SOL     OW10155   4.297   4.594   4.753
 3382SOL    HW110156   4.341   4.683   4.744
 3382SOL    HW210157   4.234   4.594   4.830
 3383SOL     OW10158   4.933   4.249   3.999
 3383SOL    HW110159   4.946   4.165   4.053
 3383SOL    HW210160   4.904   4.323   4.059
 3384SOL     OW10161   4.456   4.358   4.788
 3384SOL    HW110162   4.515   4.332   4.712
 3384SOL    HW210163   4.428   4.454   4.777
 3385SOL     OW10164   4.031   3.787   4.342
 3385SOL    HW110165   4.020   3.881   4.375
 3385SOL    HW210166   4.026   3.724   4.419
 3386SOL     OW10167   4.747   4.490   4.690
 3386SOL    HW110168   4.762   4.511   4.786
 3386SOL    HW210169   4.717   4.395   4.681
 3387SOL     OW10170   4.043   4.534   4.673
 3387SOL    HW110171   4.136   4.570   4.678
 3387SOL    HW210172   4.037   4.449   4.725
 3388SOL     OW10173   4.726   4.520   4.962
 3388SOL    HW110174   4.767   4.488   5.048
 3388SOL    HW210175   4.630   4.493   4.959
 3389SOL     OW10176   4.539   4.296   4.049
 3389SOL    HW110177   4.546   4.207   4.003
 3389SOL    HW210178   4.445   4.330   4.041
 3390SOL     OW10179   4.197   4.224   3.915
 3390SOL    HW110180   4.258   4.304   3.919
 3390SOL    HW210181   4.102   4.255   3.922
 3391SOL     OW10182   4.627   3.810   3.857
 3391SOL    HW110183   4.678   3.811   3.771
 3391SOL    HW210184   4.683   3.768   3.928
 3392SOL     OW10185   3.987   4.050   4.444
 3392SOL    HW110186   3.908   4.101   4.410
 3392SOL    HW210187   3.978   4.035   4.542
 3393SOL     OW10188   4.763   4.822   4.420
 3393SOL    HW110189   4.693   4.775   4.474
 3393SOL    HW210190   4.822   4.754   4.377
 3394SOL     OW10191   3.799   4.069   3.757
 3394SOL    HW110192   3.707   4.041   3.728
 3394SOL    HW210193   3.830   4.146   3.701
 3395SOL     OW10194   3.796   3.890   4.042
 3395SOL    HW110195   3.779   3.973   3.988
 3395SOL    HW210196   3.886   3.853   4.020
 3396SOL     OW10197   4.949   4.049   4.173
 3396SOL    HW110198   5.014   3.975   4.162
 3396SOL    HW210199   4.969   4.099   4.257
 3397SOL     OW10200   4.318   4.469   4.376
 3397SOL    HW110201   4.368   4.554   4.357
 3397SOL    HW210202   4.230   4.471   4.328
 3398SOL     OW10203   4.583   4.680   4.585
 3398SOL    HW110204   4.637   4.611   4.633
 3398SOL    HW210205   4.551   4.749   4.651
 3399SOL     OW10206   4.152   4.148   4.244
 3399SOL    HW110207   4.182   4.076   4.182
 3399SOL    HW210208   4.113   4.108   4.327
   4.71162   4.71162   4.71162
