mobley_7142697_GMX.gro created by acpype (v: 2023.10.27) on Wed May 20 23:55:12 2026
 19
    1  MOL   C1    1   0.004  -0.072   0.086
    1  MOL   C2    2   0.127  -0.043   0.170
    1  MOL   C3    3   0.256  -0.064   0.090
    1  MOL   C4    4   0.380  -0.038   0.175
    1  MOL   C5    5   0.508  -0.055   0.093
    1  MOL   N1    6   0.625  -0.032   0.177
    1  MOL   H1    7  -0.087  -0.056   0.146
    1  MOL   H2    8  -0.001  -0.005  -0.000
    1  MOL   H3    9   0.004  -0.175   0.051
    1  MOL   H4   10   0.128  -0.109   0.258
    1  MOL   H5   11   0.123   0.060   0.207
    1  MOL   H6   12   0.256   0.004   0.003
    1  MOL   H7   13   0.258  -0.166   0.050
    1  MOL   H8   14   0.381  -0.107   0.260
    1  MOL   H9   15   0.376   0.064   0.216
    1  MOL  H10   16   0.509   0.015   0.009
    1  MOL  H11   17   0.513  -0.156   0.052
    1  MOL  H12   18   0.596   0.013   0.263
    1  MOL  H13   19   0.687   0.033   0.130
   15.48000     4.77200     5.27400
