n_pentylamine
    19
   0.0370000  -0.7160000   0.8640000   1.2740000  -0.4300000   1.7010000
   2.5560000  -0.6360000   0.8950000   3.7990000  -0.3800000   1.7500000
   5.0770000  -0.5510000   0.9310000   6.2490000  -0.3240000   1.7680000
  -0.8680000  -0.5620000   1.4600000  -0.0110000  -0.0510000  -0.0040000
   0.0370000  -1.7500000   0.5060000   1.2750000  -1.0890000   2.5770000
   1.2280000   0.6010000   2.0710000   2.5590000   0.0400000   0.0310000
   2.5840000  -1.6600000   0.5030000   3.8070000  -1.0740000   2.6000000
   3.7550000   0.6360000   2.1630000   5.0880000   0.1530000   0.0920000
   5.1270000  -1.5640000   0.5170000   5.9580000   0.1260000   2.6330000
   6.8720000   0.3300000   1.2990000
