; mobley_7142697_GMX.itp created by acpype (v: 2023.10.27) on Wed May 20 23:55:12 2026

[ atomtypes ]
;name   bond_type     mass     charge   ptype   sigma         epsilon       Amb
 c3       c3          0.00000  0.00000   A     3.39771e-01   4.51035e-01 ; 1.91  0.1078
 n8       n8          0.00000  0.00000   A     3.65019e-01   1.35143e-01 ; 2.05  0.0323
 hc       hc          0.00000  0.00000   A     2.60018e-01   8.70272e-02 ; 1.46  0.0208
 h1       h1          0.00000  0.00000   A     2.42200e-01   8.70272e-02 ; 1.36  0.0208
 hn       hn          0.00000  0.00000   A     1.10650e-01   4.18400e-02 ; 0.62  0.0100

[ moleculetype ]
;name            nrexcl
 mobley_7142697   3

[ atoms ]
;   nr  type  resi  res  atom  cgnr     charge      mass       ; qtot   bond_type
     1   c3     1   MOL    C1    1    -0.093100     12.01000 ; qtot -0.093
     2   c3     1   MOL    C2    2    -0.080400     12.01000 ; qtot -0.173
     3   c3     1   MOL    C3    3    -0.075400     12.01000 ; qtot -0.249
     4   c3     1   MOL    C4    4    -0.122400     12.01000 ; qtot -0.371
     5   c3     1   MOL    C5    5     0.149800     12.01000 ; qtot -0.221
     6   n8     1   MOL    N1    6    -0.906801     14.01000 ; qtot -1.128
     7   hc     1   MOL    H1    7     0.033367      1.00800 ; qtot -1.095
     8   hc     1   MOL    H2    8     0.033367      1.00800 ; qtot -1.062
     9   hc     1   MOL    H3    9     0.033367      1.00800 ; qtot -1.028
    10   hc     1   MOL    H4   10     0.038700      1.00800 ; qtot -0.989
    11   hc     1   MOL    H5   11     0.038700      1.00800 ; qtot -0.951
    12   hc     1   MOL    H6   12     0.041700      1.00800 ; qtot -0.909
    13   hc     1   MOL    H7   13     0.041700      1.00800 ; qtot -0.867
    14   hc     1   MOL    H8   14     0.038200      1.00800 ; qtot -0.829
    15   hc     1   MOL    H9   15     0.038200      1.00800 ; qtot -0.791
    16   h1     1   MOL   H10   16     0.051700      1.00800 ; qtot -0.739
    17   h1     1   MOL   H11   17     0.051700      1.00800 ; qtot -0.688
    18   hn     1   MOL   H12   18     0.343800      1.00800 ; qtot -0.344
    19   hn     1   MOL   H13   19     0.343800      1.00800 ; qtot 0.000

[ bonds ]
;   ai     aj funct   r             k
     1      2   1    1.5354e-01    1.9154e+05 ;     C1 - C2    
     1      7   1    1.0962e-01    2.8891e+05 ;     C1 - H1    
     1      8   1    1.0962e-01    2.8891e+05 ;     C1 - H2    
     1      9   1    1.0962e-01    2.8891e+05 ;     C1 - H3    
     2      3   1    1.5354e-01    1.9154e+05 ;     C2 - C3    
     2     10   1    1.0962e-01    2.8891e+05 ;     C2 - H4    
     2     11   1    1.0962e-01    2.8891e+05 ;     C2 - H5    
     3      4   1    1.5354e-01    1.9154e+05 ;     C3 - C4    
     3     12   1    1.0962e-01    2.8891e+05 ;     C3 - H6    
     3     13   1    1.0962e-01    2.8891e+05 ;     C3 - H7    
     4      5   1    1.5354e-01    1.9154e+05 ;     C4 - C5    
     4     14   1    1.0962e-01    2.8891e+05 ;     C4 - H8    
     4     15   1    1.0962e-01    2.8891e+05 ;     C4 - H9    
     5      6   1    1.4651e-01    2.1239e+05 ;     C5 - N1    
     5     16   1    1.0969e-01    2.8804e+05 ;     C5 - H10   
     5     17   1    1.0969e-01    2.8804e+05 ;     C5 - H11   
     6     18   1    1.0192e-01    3.8550e+05 ;     N1 - H12   
     6     19   1    1.0192e-01    3.8550e+05 ;     N1 - H13   

[ pairs ]
;   ai     aj    funct
     1      4      1 ;     C1 - C4    
     1     12      1 ;     C1 - H6    
     1     13      1 ;     C1 - H7    
     2      5      1 ;     C2 - C5    
     2     14      1 ;     C2 - H8    
     2     15      1 ;     C2 - H9    
     3      6      1 ;     C3 - N1    
     3     16      1 ;     C3 - H10   
     3     17      1 ;     C3 - H11   
     4     10      1 ;     C4 - H4    
     4     11      1 ;     C4 - H5    
     4     18      1 ;     C4 - H12   
     4     19      1 ;     C4 - H13   
     5     12      1 ;     C5 - H6    
     5     13      1 ;     C5 - H7    
     6     14      1 ;     N1 - H8    
     6     15      1 ;     N1 - H9    
     7      3      1 ;     H1 - C3    
     7     10      1 ;     H1 - H4    
     7     11      1 ;     H1 - H5    
     8      3      1 ;     H2 - C3    
     8     10      1 ;     H2 - H4    
     8     11      1 ;     H2 - H5    
     9      3      1 ;     H3 - C3    
     9     10      1 ;     H3 - H4    
     9     11      1 ;     H3 - H5    
    10     12      1 ;     H4 - H6    
    10     13      1 ;     H4 - H7    
    11     12      1 ;     H5 - H6    
    11     13      1 ;     H5 - H7    
    12     14      1 ;     H6 - H8    
    12     15      1 ;     H6 - H9    
    13     14      1 ;     H7 - H8    
    13     15      1 ;     H7 - H9    
    14     16      1 ;     H8 - H10   
    14     17      1 ;     H8 - H11   
    15     16      1 ;     H9 - H10   
    15     17      1 ;     H9 - H11   
    16     18      1 ;    H10 - H12   
    16     19      1 ;    H10 - H13   
    17     18      1 ;    H11 - H12   
    17     19      1 ;    H11 - H13   

[ angles ]
;   ai     aj     ak    funct   theta         cth
     1      2      3      1    1.1263e+02    5.0099e+02 ;     C1 - C2     - C3    
     1      2     10      1    1.0968e+02    3.6208e+02 ;     C1 - C2     - H4    
     1      2     11      1    1.0968e+02    3.6208e+02 ;     C1 - C2     - H5    
     2      1      7      1    1.0968e+02    3.6208e+02 ;     C2 - C1     - H1    
     2      1      8      1    1.0968e+02    3.6208e+02 ;     C2 - C1     - H2    
     2      1      9      1    1.0968e+02    3.6208e+02 ;     C2 - C1     - H3    
     2      3      4      1    1.1263e+02    5.0099e+02 ;     C2 - C3     - C4    
     2      3     12      1    1.0968e+02    3.6208e+02 ;     C2 - C3     - H6    
     2      3     13      1    1.0968e+02    3.6208e+02 ;     C2 - C3     - H7    
     3      2     10      1    1.0968e+02    3.6208e+02 ;     C3 - C2     - H4    
     3      2     11      1    1.0968e+02    3.6208e+02 ;     C3 - C2     - H5    
     3      4      5      1    1.1263e+02    5.0099e+02 ;     C3 - C4     - C5    
     3      4     14      1    1.0968e+02    3.6208e+02 ;     C3 - C4     - H8    
     3      4     15      1    1.0968e+02    3.6208e+02 ;     C3 - C4     - H9    
     4      3     12      1    1.0968e+02    3.6208e+02 ;     C4 - C3     - H6    
     4      3     13      1    1.0968e+02    3.6208e+02 ;     C4 - C3     - H7    
     4      5      6      1    1.1091e+02    5.4794e+02 ;     C4 - C5     - N1    
     4      5     16      1    1.0959e+02    3.6217e+02 ;     C4 - C5     - H10   
     4      5     17      1    1.0959e+02    3.6217e+02 ;     C4 - C5     - H11   
     5      4     14      1    1.0968e+02    3.6208e+02 ;     C5 - C4     - H8    
     5      4     15      1    1.0968e+02    3.6208e+02 ;     C5 - C4     - H9    
     5      6     18      1    1.0961e+02    4.7003e+02 ;     C5 - N1     - H12   
     5      6     19      1    1.0961e+02    4.7003e+02 ;     C5 - N1     - H13   
     6      5     16      1    1.0812e+02    4.0342e+02 ;     N1 - C5     - H10   
     6      5     17      1    1.0812e+02    4.0342e+02 ;     N1 - C5     - H11   
     7      1      8      1    1.0773e+02    2.9957e+02 ;     H1 - C1     - H2    
     7      1      9      1    1.0773e+02    2.9957e+02 ;     H1 - C1     - H3    
     8      1      9      1    1.0773e+02    2.9957e+02 ;     H2 - C1     - H3    
    10      2     11      1    1.0773e+02    2.9957e+02 ;     H4 - C2     - H5    
    12      3     13      1    1.0773e+02    2.9957e+02 ;     H6 - C3     - H7    
    14      4     15      1    1.0773e+02    2.9957e+02 ;     H8 - C4     - H9    
    16      5     17      1    1.0855e+02    2.9824e+02 ;    H10 - C5     - H11   
    18      6     19      1    1.0638e+02    4.0074e+02 ;    H12 - N1     - H13   

[ dihedrals ] ; propers
; for gromacs 4.5 or higher, using funct 9
;    i      j      k      l   func   phase     kd      pn
     1      2      3      4      9     0.00   2.17568   3 ;     C1-    C2-    C3-    C4
     1      2      3     12      9     0.00   0.54392   3 ;     C1-    C2-    C3-    H6
     1      2      3     13      9     0.00   0.54392   3 ;     C1-    C2-    C3-    H7
     2      3      4      5      9     0.00   2.17568   3 ;     C2-    C3-    C4-    C5
     2      3      4     14      9     0.00   0.54392   3 ;     C2-    C3-    C4-    H8
     2      3      4     15      9     0.00   0.54392   3 ;     C2-    C3-    C4-    H9
     3      4      5      6      9     0.00   2.17568   3 ;     C3-    C4-    C5-    N1
     3      4      5     16      9     0.00   0.65084   3 ;     C3-    C4-    C5-   H10
     3      4      5     17      9     0.00   0.65084   3 ;     C3-    C4-    C5-   H11
     4      3      2     10      9     0.00   0.54392   3 ;     C4-    C3-    C2-    H4
     4      3      2     11      9     0.00   0.54392   3 ;     C4-    C3-    C2-    H5
     4      5      6     18      9   180.00   0.12552   3 ;     C4-    C5-    N1-   H12
     4      5      6     19      9   180.00   0.12552   3 ;     C4-    C5-    N1-   H13
     5      4      3     12      9     0.00   0.54392   3 ;     C5-    C4-    C3-    H6
     5      4      3     13      9     0.00   0.54392   3 ;     C5-    C4-    C3-    H7
     6      5      4     14      9     0.00   0.20920   3 ;     N1-    C5-    C4-    H8
     6      5      4     15      9     0.00   0.20920   3 ;     N1-    C5-    C4-    H9
     7      1      2      3      9     0.00   0.54392   3 ;     H1-    C1-    C2-    C3
     7      1      2     10      9     0.00   0.50208   3 ;     H1-    C1-    C2-    H4
     7      1      2     11      9     0.00   0.50208   3 ;     H1-    C1-    C2-    H5
     8      1      2      3      9     0.00   0.54392   3 ;     H2-    C1-    C2-    C3
     8      1      2     10      9     0.00   0.50208   3 ;     H2-    C1-    C2-    H4
     8      1      2     11      9     0.00   0.50208   3 ;     H2-    C1-    C2-    H5
     9      1      2      3      9     0.00   0.54392   3 ;     H3-    C1-    C2-    C3
     9      1      2     10      9     0.00   0.50208   3 ;     H3-    C1-    C2-    H4
     9      1      2     11      9     0.00   0.50208   3 ;     H3-    C1-    C2-    H5
    10      2      3     12      9     0.00   0.50208   3 ;     H4-    C2-    C3-    H6
    10      2      3     13      9     0.00   0.50208   3 ;     H4-    C2-    C3-    H7
    11      2      3     12      9     0.00   0.50208   3 ;     H5-    C2-    C3-    H6
    11      2      3     13      9     0.00   0.50208   3 ;     H5-    C2-    C3-    H7
    12      3      4     14      9     0.00   0.50208   3 ;     H6-    C3-    C4-    H8
    12      3      4     15      9     0.00   0.50208   3 ;     H6-    C3-    C4-    H9
    13      3      4     14      9     0.00   0.50208   3 ;     H7-    C3-    C4-    H8
    13      3      4     15      9     0.00   0.50208   3 ;     H7-    C3-    C4-    H9
    14      4      5     16      9     0.00   0.65084   3 ;     H8-    C4-    C5-   H10
    14      4      5     17      9     0.00   0.65084   3 ;     H8-    C4-    C5-   H11
    15      4      5     16      9     0.00   0.65084   3 ;     H9-    C4-    C5-   H10
    15      4      5     17      9     0.00   0.65084   3 ;     H9-    C4-    C5-   H11
    16      5      6     18      9     0.00   1.25520   3 ;    H10-    C5-    N1-   H12
    16      5      6     19      9     0.00   1.25520   3 ;    H10-    C5-    N1-   H13
    17      5      6     18      9     0.00   1.25520   3 ;    H11-    C5-    N1-   H12
    17      5      6     19      9     0.00   1.25520   3 ;    H11-    C5-    N1-   H13
