mobley_4587267_GMX.gro created by acpype (v: 2023.10.27) on Wed May 20 23:44:57 2026
   26
    1MOL     C1    1   2.372   2.458   2.617
    1MOL     C2    2   2.467   2.390   2.155
    1MOL     C3    3   2.460   2.370   2.528
    1MOL     C4    4   2.360   2.453   2.244
    1MOL     C5    5   2.382   2.278   2.432
    1MOL     C6    6   2.288   2.354   2.337
    1MOL     O1    7   2.455   2.535   2.702
    1MOL     O2    8   2.524   2.489   2.071
    1MOL     O3    9   2.539   2.288   2.615
    1MOL     O4   10   2.263   2.512   2.157
    1MOL     O5   11   2.306   2.184   2.507
    1MOL     O6   12   2.216   2.259   2.258
    1MOL     H1   13   2.306   2.397   2.680
    1MOL     H2   14   2.312   2.527   2.557
    1MOL     H3   15   2.424   2.313   2.090
    1MOL     H4   16   2.548   2.345   2.213
    1MOL     H5   17   2.531   2.433   2.472
    1MOL     H6   18   2.403   2.536   2.302
    1MOL     H7   19   2.455   2.221   2.373
    1MOL     H8   20   2.214   2.410   2.395
    1MOL     H9   21   2.396   2.589   2.757
    1MOL    H10   22   2.591   2.444   2.017
    1MOL    H11   23   2.591   2.349   2.669
    1MOL    H12   24   2.196   2.552   2.214
    1MOL    H13   25   2.369   2.133   2.560
    1MOL    H14   26   2.152   2.309   2.206
   4.77888   4.77888   4.77888
