mobley_1036761_GMX.gro created by acpype (v: 2023.10.27) on Wed May 20 23:41:58 2026
   20
    1MOL     C1    1   2.207   2.096   2.257
    1MOL     C2    2   2.304   2.153   2.154
    1MOL     C3    3   2.205   2.178   2.386
    1MOL     C4    4   2.275   2.301   2.127
    1MOL     C5    5   2.176   2.326   2.358
    1MOL     C6    6   2.273   2.386   2.255
    1MOL     N1    7   2.407   2.397   2.311
    1MOL     H1    8   2.106   2.093   2.214
    1MOL     H2    9   2.235   1.992   2.280
    1MOL     H3   10   2.407   2.141   2.190
    1MOL     H4   11   2.296   2.097   2.061
    1MOL     H5   12   2.128   2.138   2.453
    1MOL     H6   13   2.301   2.167   2.437
    1MOL     H7   14   2.350   2.341   2.056
    1MOL     H8   15   2.178   2.310   2.076
    1MOL     H9   16   2.074   2.335   2.320
    1MOL    H10   17   2.181   2.382   2.452
    1MOL    H11   18   2.239   2.487   2.229
    1MOL    H12   19   2.409   2.475   2.377
    1MOL    H13   20   2.473   2.420   2.237
   4.52247   4.52247   4.52247
