mobley_1036761_GMX.gro created by acpype (v: 2023.10.27) on Wed May 20 23:41:58 2026
 8996
    1MOL     C1    1   2.207   2.096   2.257
    1MOL     C2    2   2.304   2.153   2.154
    1MOL     C3    3   2.205   2.178   2.386
    1MOL     C4    4   2.275   2.301   2.127
    1MOL     C5    5   2.176   2.326   2.358
    1MOL     C6    6   2.273   2.386   2.255
    1MOL     N1    7   2.407   2.397   2.311
    1MOL     H1    8   2.106   2.093   2.214
    1MOL     H2    9   2.235   1.992   2.280
    1MOL     H3   10   2.407   2.141   2.190
    1MOL     H4   11   2.296   2.097   2.061
    1MOL     H5   12   2.128   2.138   2.453
    1MOL     H6   13   2.301   2.167   2.437
    1MOL     H7   14   2.350   2.341   2.056
    1MOL     H8   15   2.178   2.310   2.076
    1MOL     H9   16   2.074   2.335   2.320
    1MOL    H10   17   2.181   2.382   2.452
    1MOL    H11   18   2.239   2.487   2.229
    1MOL    H12   19   2.409   2.475   2.377
    1MOL    H13   20   2.473   2.420   2.237
    2SOL     OW   21   0.230   0.628   0.113
    2SOL    HW1   22   0.137   0.626   0.150
    2SOL    HW2   23   0.231   0.589   0.021
    3SOL     OW   24   0.225   0.275   0.996
    3SOL    HW1   25   0.260   0.258   1.088
    3SOL    HW2   26   0.137   0.230   0.984
    4SOL     OW   27   0.019   0.368   0.647
    4SOL    HW1   28  -0.063   0.411   0.686
    4SOL    HW2   29  -0.009   0.295   0.584
    5SOL     OW   30   0.569   1.275   1.165
    5SOL    HW1   31   0.476   1.268   1.128
    5SOL    HW2   32   0.580   1.364   1.209
    6SOL     OW   33   1.555   1.511   0.703
    6SOL    HW1   34   1.498   1.495   0.784
    6SOL    HW2   35   1.496   1.521   0.623
    7SOL     OW   36   1.135   0.703   0.717
    7SOL    HW1   37   1.192   0.781   0.692
    7SOL    HW2   38   1.075   0.729   0.793
    8SOL     OW   39   1.755   0.607   0.231
    8SOL    HW1   40   1.743   0.594   0.132
    8SOL    HW2   41   1.725   0.526   0.280
    9SOL     OW   42   0.768   1.144   1.023
    9SOL    HW1   43   0.690   1.161   1.083
    9SOL    HW2   44   0.802   1.231   0.987
   10SOL     OW   45   0.850   0.798   1.823
   10SOL    HW1   46   0.846   0.874   1.888
   10SOL    HW2   47   0.872   0.834   1.732
   11SOL     OW   48   0.685   1.012   0.665
   11SOL    HW1   49   0.754   0.996   0.735
   11SOL    HW2   50   0.612   1.069   0.703
   12SOL     OW   51   0.686   1.161   1.803
   12SOL    HW1   52   0.746   1.240   1.817
   12SOL    HW2   53   0.600   1.192   1.762
   13SOL     OW   54   0.335   1.435   1.061
   13SOL    HW1   55   0.257   1.404   1.008
   13SOL    HW2   56   0.393   1.493   1.004
   14SOL     OW   57   1.460   1.505   1.339
   14SOL    HW1   58   1.484   1.599   1.365
   14SOL    HW2   59   1.444   1.451   1.421
   15SOL     OW   60   0.438   0.392   1.499
   15SOL    HW1   61   0.520   0.336   1.508
   15SOL    HW2   62   0.357   0.334   1.503
   16SOL     OW   63   1.603   0.447   0.737
   16SOL    HW1   64   1.529   0.493   0.687
   16SOL    HW2   65   1.654   0.515   0.790
   17SOL     OW   66   0.231   1.713   0.483
   17SOL    HW1   67   0.265   1.790   0.537
   17SOL    HW2   68   0.275   1.713   0.393
   18SOL     OW   69   1.127   1.341   1.690
   18SOL    HW1   70   1.174   1.341   1.778
   18SOL    HW2   71   1.079   1.254   1.679
   19SOL     OW   72   0.230   1.434   0.538
   19SOL    HW1   73   0.204   1.530   0.538
   19SOL    HW2   74   0.159   1.380   0.583
   20SOL     OW   75   0.240   1.091   0.886
   20SOL    HW1   76   0.254   1.007   0.938
   20SOL    HW2   77   0.185   1.155   0.941
   21SOL     OW   78   0.620   1.786   1.439
   21SOL    HW1   79   0.528   1.769   1.474
   21SOL    HW2   80   0.648   1.878   1.465
   22SOL     OW   81   0.606   0.964   0.123
   22SOL    HW1   82   0.613   1.048   0.069
   22SOL    HW2   83   0.652   0.977   0.211
   23SOL     OW   84   1.594   0.114   1.480
   23SOL    HW1   85   1.576   0.181   1.408
   23SOL    HW2   86   1.591   0.160   1.569
   24SOL     OW   87   0.122   0.643   0.563
   24SOL    HW1   88   0.077   0.555   0.580
   24SOL    HW2   89   0.121   0.697   0.647
   25SOL     OW   90   1.842   1.767   0.359
   25SOL    HW1   91   1.896   1.738   0.439
   25SOL    HW2   92   1.872   1.857   0.330
   26SOL     OW   93   0.027   1.596   0.117
   26SOL    HW1   94   0.008   1.500   0.138
   26SOL    HW2   95  -0.006   1.654   0.192
   27SOL     OW   96   1.689   0.922   0.612
   27SOL    HW1   97   1.784   0.893   0.620
   27SOL    HW2   98   1.681   0.987   0.537
   28SOL     OW   99   1.641   1.108   0.432
   28SOL    HW1  100   1.727   1.110   0.380
   28SOL    HW2  101   1.655   1.155   0.520
   29SOL     OW  102   0.113   0.737   1.597
   29SOL    HW1  103   0.201   0.724   1.642
   29SOL    HW2  104   0.100   0.834   1.575
   30SOL     OW  105   0.613   1.365   0.726
   30SOL    HW1  106   0.564   1.278   0.735
   30SOL    HW2  107   0.590   1.408   0.639
   31SOL     OW  108   1.293   1.228   1.423
   31SOL    HW1  109   1.330   1.155   1.365
   31SOL    HW2  110   1.345   1.233   1.508
   32SOL     OW  111   0.809   0.004   0.502
   32SOL    HW1  112   0.849   0.095   0.493
   32SOL    HW2  113   0.709   0.012   0.508
   33SOL     OW  114   0.197   0.976   1.264
   33SOL    HW1  115   0.286   0.931   1.250
   33SOL    HW2  116   0.124   0.911   1.245
   34SOL     OW  117   1.525   0.999   0.190
   34SOL    HW1  118   1.462   0.923   0.203
   34SOL    HW2  119   1.573   1.017   0.276
   35SOL     OW  120   1.187   1.792   1.616
   35SOL    HW1  121   1.211   1.852   1.540
   35SOL    HW2  122   1.194   1.697   1.586
   36SOL     OW  123   0.317   0.251   1.801
   36SOL    HW1  124   0.388   0.322   1.807
   36SOL    HW2  125   0.229   0.290   1.829
   37SOL     OW  126   1.466   1.417   0.953
   37SOL    HW1  127   1.407   1.423   1.033
   37SOL    HW2  128   1.451   1.329   0.907
   38SOL     OW  129   1.667   1.714   0.572
   38SOL    HW1  130   1.626   1.691   0.484
   38SOL    HW2  131   1.649   1.640   0.637
   39SOL     OW  132   0.598   0.729   0.270
   39SOL    HW1  133   0.622   0.798   0.202
   39SOL    HW2  134   0.520   0.762   0.324
   40SOL     OW  135   1.281   0.345   0.944
   40SOL    HW1  136   1.195   0.295   0.931
   40SOL    HW2  137   1.343   0.291   1.000
   41SOL     OW  138   1.576   1.662   0.307
   41SOL    HW1  139   1.665   1.708   0.310
   41SOL    HW2  140   1.555   1.638   0.212
   42SOL     OW  141   0.807   0.605   1.465
   42SOL    HW1  142   0.760   0.602   1.554
   42SOL    HW2  143   0.756   0.550   1.399
   43SOL     OW  144   1.394   0.469   1.674
   43SOL    HW1  145   1.374   0.512   1.762
   43SOL    HW2  146   1.472   0.407   1.683
   44SOL     OW  147   0.973   0.890   1.572
   44SOL    HW1  148   1.019   0.806   1.543
   44SOL    HW2  149   0.917   0.924   1.497
   45SOL     OW  150   0.991   0.410   1.242
   45SOL    HW1  151   0.914   0.444   1.296
   45SOL    HW2  152   0.957   0.359   1.163
   46SOL     OW  153   1.041   0.701   0.429
   46SOL    HW1  154   1.067   0.697   0.525
   46SOL    HW2  155   0.956   0.650   0.415
   47SOL     OW  156   0.076   0.811   0.789
   47SOL    HW1  157   0.175   0.799   0.798
   47SOL    HW2  158   0.052   0.906   0.810
   48SOL     OW  159   0.130   1.821   1.571
   48SOL    HW1  160   0.120   1.806   1.670
   48SOL    HW2  161   0.044   1.857   1.535
   49SOL     OW  162   0.865   0.348   0.195
   49SOL    HW1  163   0.924   0.411   0.146
   49SOL    HW2  164   0.884   0.254   0.166
   50SOL     OW  165   1.719   0.585   1.831
   50SOL    HW1  166   1.693   0.674   1.795
   50SOL    HW2  167   1.717   0.517   1.758
   51SOL     OW  168   1.362   1.144   0.545
   51SOL    HW1  169   1.445   1.115   0.497
   51SOL    HW2  170   1.313   1.211   0.489
   52SOL     OW  171   0.550   0.196   0.885
   52SOL    HW1  172   0.545   0.191   0.985
   52SOL    HW2  173   0.552   0.292   0.856
   53SOL     OW  174   1.008   1.456   0.477
   53SOL    HW1  175   0.962   1.528   0.425
   53SOL    HW2  176   1.004   1.476   0.575
   54SOL     OW  177   0.351   1.801   0.853
   54SOL    HW1  178   0.401   1.715   0.859
   54SOL    HW2  179   0.416   1.878   0.850
   55SOL     OW  180   1.795   1.066   0.873
   55SOL    HW1  181   1.733   1.051   0.797
   55SOL    HW2  182   1.743   1.077   0.958
   56SOL     OW  183   1.227   1.550   1.506
   56SOL    HW1  184   1.233   1.473   1.570
   56SOL    HW2  185   1.175   1.524   1.426
   57SOL     OW  186   0.321   0.943   0.242
   57SOL    HW1  187   0.403   0.982   0.200
   57SOL    HW2  188   0.294   0.861   0.193
   58SOL     OW  189   1.458   0.735   0.728
   58SOL    HW1  190   1.453   0.670   0.803
   58SOL    HW2  191   1.538   0.794   0.741
   59SOL     OW  192   0.461   1.266   1.727
   59SOL    HW1  193   0.411   1.267   1.641
   59SOL    HW2  194   0.398   1.248   1.803
   60SOL     OW  195   1.111   1.776   0.237
   60SOL    HW1  196   1.051   1.714   0.287
   60SOL    HW2  197   1.142   1.732   0.152
   61SOL     OW  198   0.202   0.285   1.498
   61SOL    HW1  199   0.122   0.345   1.485
   61SOL    HW2  200   0.192   0.236   1.584
   62SOL     OW  201   1.632   1.377   0.081
   62SOL    HW1  202   1.600   1.471   0.071
   62SOL    HW2  203   1.556   1.314   0.069
   63SOL     OW  204   0.464   1.743   0.323
   63SOL    HW1  205   0.497   1.782   0.409
   63SOL    HW2  206   0.540   1.736   0.258
   64SOL     OW  207   1.400   0.107   0.426
   64SOL    HW1  208   1.376   0.070   0.336
   64SOL    HW2  209   1.499   0.123   0.430
   65SOL     OW  210   0.249   1.785   1.241
   65SOL    HW1  211   0.306   1.720   1.291
   65SOL    HW2  212   0.233   1.752   1.148
   66SOL     OW  213   0.940   1.698   0.904
   66SOL    HW1  214   1.020   1.641   0.925
   66SOL    HW2  215   0.891   1.658   0.827
   67SOL     OW  216   0.382   0.700   0.480
   67SOL    HW1  217   0.427   0.610   0.477
   67SOL    HW2  218   0.288   0.689   0.513
   68SOL     OW  219   1.547   0.222   1.729
   68SOL    HW1  220   1.542   0.259   1.821
   68SOL    HW2  221   1.475   0.153   1.717
   69SOL     OW  222   0.614   0.122   0.117
   69SOL    HW1  223   0.712   0.100   0.124
   69SOL    HW2  224   0.583   0.105   0.024
   70SOL     OW  225   0.781   0.264   1.749
   70SOL    HW1  226   0.848   0.203   1.792
   70SOL    HW2  227   0.708   0.283   1.814
   71SOL     OW  228   0.888   1.514   1.195
   71SOL    HW1  229   0.865   1.489   1.101
   71SOL    HW2  230   0.949   1.445   1.234
   72SOL     OW  231   1.351   0.590   1.433
   72SOL    HW1  232   1.379   0.547   1.518
   72SOL    HW2  233   1.376   0.686   1.434
   73SOL     OW  234   0.803   1.402   0.924
   73SOL    HW1  235   0.893   1.416   0.882
   73SOL    HW2  236   0.732   1.404   0.853
   74SOL     OW  237   0.922   0.503   0.899
   74SOL    HW1  238   0.897   0.494   0.803
   74SOL    HW2  239   0.970   0.421   0.930
   75SOL     OW  240   0.539   0.064   0.512
   75SOL    HW1  241   0.458   0.065   0.570
   75SOL    HW2  242   0.542   0.147   0.457
   76SOL     OW  243   1.434   1.188   0.041
   76SOL    HW1  244   1.466   1.112   0.098
   76SOL    HW2  245   1.342   1.215   0.071
   77SOL     OW  246   0.297   0.035   0.171
   77SOL    HW1  247   0.346   0.119   0.150
   77SOL    HW2  248   0.359  -0.030   0.216
   78SOL     OW  249   0.935   0.236   0.480
   78SOL    HW1  250   0.887   0.277   0.402
   78SOL    HW2  251   1.034   0.234   0.461
   79SOL     OW  252   1.076   0.683   1.464
   79SOL    HW1  253   0.996   0.622   1.467
   79SOL    HW2  254   1.157   0.630   1.440
   80SOL     OW  255   1.227   1.570   0.793
   80SOL    HW1  256   1.248   1.644   0.728
   80SOL    HW2  257   1.295   1.570   0.866
   81SOL     OW  258   0.459   1.152   0.741
   81SOL    HW1  259   0.388   1.125   0.806
   81SOL    HW2  260   0.433   1.124   0.648
   82SOL     OW  261   1.271   1.797   0.591
   82SOL    HW1  262   1.315   1.861   0.527
   82SOL    HW2  263   1.221   1.849   0.661
   83SOL     OW  264   1.032   0.549   0.016
   83SOL    HW1  265   0.991   0.631  -0.023
   83SOL    HW2  266   1.096   0.575   0.089
   84SOL     OW  267   0.078   0.556   1.386
   84SOL    HW1  268   0.170   0.555   1.345
   84SOL    HW2  269   0.072   0.630   1.453
   85SOL     OW  270   0.561   0.222   1.147
   85SOL    HW1  271   0.599   0.138   1.184
   85SOL    HW2  272   0.473   0.241   1.191
   86SOL     OW  273   0.866   0.454   0.642
   86SOL    HW1  274   0.834   0.526   0.580
   86SOL    HW2  275   0.890   0.373   0.589
   87SOL     OW  276   1.017   0.039   0.753
   87SOL    HW1  277   0.945   0.044   0.684
   87SOL    HW2  278   0.993  -0.030   0.822
   88SOL     OW  279   1.429   1.173   0.867
   88SOL    HW1  280   1.374   1.089   0.860
   88SOL    HW2  281   1.455   1.202   0.775
   89SOL     OW  282   1.466   0.590   0.992
   89SOL    HW1  283   1.436   0.495   0.999
   89SOL    HW2  284   1.539   0.606   1.058
   90SOL     OW  285   1.857   0.833   0.377
   90SOL    HW1  286   1.899   0.769   0.441
   90SOL    HW2  287   1.819   0.782   0.299
   91SOL     OW  288   0.488   1.385   0.174
   91SOL    HW1  289   0.401   1.370   0.221
   91SOL    HW2  290   0.471   1.411   0.079
   92SOL     OW  291   1.664   1.280   0.657
   92SOL    HW1  292   1.763   1.288   0.671
   92SOL    HW2  293   1.619   1.364   0.688
   93SOL     OW  294   1.390   0.575   0.078
   93SOL    HW1  295   1.336   0.554   0.159
   93SOL    HW2  296   1.481   0.534   0.087
   94SOL     OW  297   0.527   0.256   0.328
   94SOL    HW1  298   0.554   0.197   0.253
   94SOL    HW2  299   0.527   0.351   0.297
   95SOL     OW  300   1.754   1.223   1.588
   95SOL    HW1  301   1.845   1.184   1.575
   95SOL    HW2  302   1.762   1.319   1.612
   96SOL     OW  303   1.064   1.347   1.340
   96SOL    HW1  304   0.984   1.324   1.395
   96SOL    HW2  305   1.147   1.321   1.389
   97SOL     OW  306   1.592   1.629   1.625
   97SOL    HW1  307   1.619   1.663   1.535
   97SOL    HW2  308   1.671   1.591   1.671
   98SOL     OW  309   1.111   1.195   1.100
   98SOL    HW1  310   1.071   1.239   1.181
   98SOL    HW2  311   1.070   1.232   1.017
   99SOL     OW  312   1.638   1.099   1.079
   99SOL    HW1  313   1.643   1.180   1.138
   99SOL    HW2  314   1.552   1.101   1.028
  100SOL     OW  315   0.915   0.089   1.402
  100SOL    HW1  316   0.940   0.069   1.307
  100SOL    HW2  317   0.987   0.145   1.444
  101SOL     OW  318   0.980   1.116   1.719
  101SOL    HW1  319   0.881   1.122   1.729
  101SOL    HW2  320   1.003   1.036   1.663
  102SOL     OW  321   0.705   1.050   0.368
  102SOL    HW1  322   0.691   1.057   0.467
  102SOL    HW2  323   0.789   0.999   0.350
  103SOL     OW  324   0.410   0.813   1.251
  103SOL    HW1  325   0.496   0.825   1.301
  103SOL    HW2  326   0.368   0.726   1.278
  104SOL     OW  327   1.274   0.386   1.262
  104SOL    HW1  328   1.295   0.460   1.326
  104SOL    HW2  329   1.185   0.403   1.219
  105SOL     OW  330   0.064   1.564   1.331
  105SOL    HW1  331   0.018   1.646   1.297
  105SOL    HW2  332   0.162   1.583   1.340
  106SOL     OW  333   0.367   1.100   0.501
  106SOL    HW1  334   0.360   1.183   0.445
  106SOL    HW2  335   0.371   1.020   0.441
  107SOL     OW  336   0.566   0.537   0.865
  107SOL    HW1  337   0.578   0.603   0.791
  107SOL    HW2  338   0.612   0.571   0.948
  108SOL     OW  339   1.252   1.348   0.388
  108SOL    HW1  340   1.302   1.425   0.428
  108SOL    HW2  341   1.157   1.350   0.420
  109SOL     OW  342   1.272   1.445   1.142
  109SOL    HW1  343   1.319   1.458   1.229
  109SOL    HW2  344   1.206   1.371   1.151
  110SOL     OW  345   1.582   0.639   0.472
  110SOL    HW1  346   1.551   0.700   0.545
  110SOL    HW2  347   1.632   0.691   0.403
  111SOL     OW  348   0.354   1.510   1.329
  111SOL    HW1  349   0.333   1.466   1.242
  111SOL    HW2  350   0.451   1.536   1.332
  112SOL     OW  351   0.402   0.751   1.598
  112SOL    HW1  352   0.470   0.806   1.551
  112SOL    HW2  353   0.442   0.663   1.625
  113SOL     OW  354   1.587   0.779   1.670
  113SOL    HW1  355   1.495   0.817   1.665
  113SOL    HW2  356   1.647   0.826   1.605
  114SOL     OW  357   1.013   0.105   1.770
  114SOL    HW1  358   1.019   0.190   1.718
  114SOL    HW2  359   1.045   0.029   1.713
  115SOL     OW  360   0.504   0.050   1.740
  115SOL    HW1  361   0.462  -0.007   1.670
  115SOL    HW2  362   0.438   0.119   1.772
  116SOL     OW  363   0.573   0.870   1.029
  116SOL    HW1  364   0.617   0.959   1.020
  116SOL    HW2  365   0.510   0.870   1.106
  117SOL     OW  366   1.360   0.862   1.045
  117SOL    HW1  367   1.285   0.862   0.979
  117SOL    HW2  368   1.397   0.770   1.054
  118SOL     OW  369   1.209   0.525   0.275
  118SOL    HW1  370   1.222   0.441   0.329
  118SOL    HW2  371   1.180   0.599   0.335
  119SOL     OW  372   0.307   0.213   1.231
  119SOL    HW1  373   0.284   0.250   1.321
  119SOL    HW2  374   0.277   0.118   1.225
  120SOL     OW  375   0.037   1.310   1.282
  120SOL    HW1  376   0.090   1.261   1.350
  120SOL    HW2  377   0.059   1.408   1.287
  121SOL     OW  378   0.732   0.634   1.064
  121SOL    HW1  379   0.791   0.608   0.988
  121SOL    HW2  380   0.704   0.730   1.053
  122SOL     OW  381   1.728   0.935   1.854
  122SOL    HW1  382   1.682   0.928   1.765
  122SOL    HW2  383   1.666   0.979   1.920
  123SOL     OW  384   0.307   0.063   0.618
  123SOL    HW1  385   0.296   0.157   0.651
  123SOL    HW2  386   0.302   0.000   0.695
  124SOL     OW  387   1.622   0.367   0.374
  124SOL    HW1  388   1.624   0.291   0.438
  124SOL    HW2  389   1.574   0.444   0.414
  125SOL     OW  390   1.023   0.766   0.966
  125SOL    HW1  391   1.038   0.787   1.062
  125SOL    HW2  392   0.993   0.671   0.957
  126SOL     OW  393   0.980   1.573   1.700
  126SOL    HW1  394   0.960   1.617   1.612
  126SOL    HW2  395   1.019   1.482   1.684
  127SOL     OW  396   1.859   1.518   1.605
  127SOL    HW1  397   1.873   1.545   1.510
  127SOL    HW2  398   1.942   1.540   1.658
  128SOL     OW  399   0.350   0.898   1.804
  128SOL    HW1  400   0.426   0.942   1.852
  128SOL    HW2  401   0.385   0.851   1.722
  129SOL     OW  402   1.540   0.274   0.125
  129SOL    HW1  403   1.479   0.199   0.148
  129SOL    HW2  404   1.562   0.326   0.208
  130SOL     OW  405   1.303   0.838   0.042
  130SOL    HW1  406   1.337   0.745   0.057
  130SOL    HW2  407   1.321   0.865  -0.053
  131SOL     OW  408   1.068   1.333   0.849
  131SOL    HW1  409   1.075   1.249   0.794
  131SOL    HW2  410   1.130   1.402   0.813
  132SOL     OW  411   0.319   0.810   0.949
  132SOL    HW1  412   0.412   0.846   0.954
  132SOL    HW2  413   0.313   0.725   1.001
  133SOL     OW  414   0.339   0.509   1.006
  133SOL    HW1  415   0.287   0.426   0.989
  133SOL    HW2  416   0.416   0.514   0.942
  134SOL     OW  417   1.138   0.380   1.678
  134SOL    HW1  418   1.093   0.443   1.742
  134SOL    HW2  419   1.231   0.411   1.661
  135SOL     OW  420   1.160   0.207   1.477
  135SOL    HW1  421   1.160   0.271   1.554
  135SOL    HW2  422   1.188   0.255   1.394
  136SOL     OW  423   0.008   1.326   0.200
  136SOL    HW1  424  -0.085   1.347   0.169
  136SOL    HW2  425   0.018   1.227   0.213
  137SOL     OW  426   0.088   1.801   0.927
  137SOL    HW1  427   0.046   1.715   0.900
  137SOL    HW2  428   0.182   1.804   0.893
  138SOL     OW  429   0.504   1.568   0.910
  138SOL    HW1  430   0.570   1.642   0.919
  138SOL    HW2  431   0.548   1.489   0.868
  139SOL     OW  432   1.002   0.796   1.238
  139SOL    HW1  433   1.043   0.764   1.324
  139SOL    HW2  434   0.906   0.769   1.235
  140SOL     OW  435   0.040   0.544   1.114
  140SOL    HW1  436   0.125   0.511   1.073
  140SOL    HW2  437   0.053   0.559   1.212
  141SOL     OW  438   0.189   0.520   1.722
  141SOL    HW1  439   0.248   0.480   1.652
  141SOL    HW2  440   0.131   0.591   1.681
  142SOL     OW  441   1.369   0.950   1.660
  142SOL    HW1  442   1.408   1.039   1.680
  142SOL    HW2  443   1.379   0.930   1.563
  143SOL     OW  444   0.815   0.572   0.325
  143SOL    HW1  445   0.822   0.483   0.279
  143SOL    HW2  446   0.721   0.606   0.317
  144SOL     OW  447   1.657   0.604   1.206
  144SOL    HW1  448   1.619   0.535   1.268
  144SOL    HW2  449   1.739   0.568   1.162
  145SOL     OW  450   0.252   1.564   1.744
  145SOL    HW1  451   0.222   1.621   1.820
  145SOL    HW2  452   0.245   1.467   1.770
  146SOL     OW  453   0.671   0.464   1.269
  146SOL    HW1  454   0.637   0.375   1.239
  146SOL    HW2  455   0.697   0.518   1.189
  147SOL     OW  456   0.930   1.678   1.465
  147SOL    HW1  457   0.906   1.660   1.370
  147SOL    HW2  458   0.960   1.772   1.475
  148SOL     OW  459   0.473   0.500   0.191
  148SOL    HW1  460   0.534   0.580   0.195
  148SOL    HW2  461   0.378   0.531   0.198
  149SOL     OW  462   0.159   1.137   1.466
  149SOL    HW1  463   0.181   1.076   1.542
  149SOL    HW2  464   0.169   1.088   1.380
  150SOL     OW  465   1.347   1.059   1.234
  150SOL    HW1  466   1.371   0.996   1.160
  150SOL    HW2  467   1.257   1.099   1.216
  151SOL     OW  468   1.302   0.855   0.309
  151SOL    HW1  469   1.216   0.824   0.351
  151SOL    HW2  470   1.298   0.841   0.210
  152SOL     OW  471   1.759   1.747   1.154
  152SOL    HW1  472   1.820   1.777   1.081
  152SOL    HW2  473   1.721   1.658   1.132
  153SOL     OW  474   1.252   1.731   1.128
  153SOL    HW1  475   1.336   1.736   1.074
  153SOL    HW2  476   1.229   1.635   1.146
  154SOL     OW  477   0.083   1.258   1.022
  154SOL    HW1  478   0.078   1.257   1.122
  154SOL    HW2  479   0.000   1.217   0.984
  155SOL     OW  480   0.688   1.662   1.716
  155SOL    HW1  481   0.632   1.743   1.725
  155SOL    HW2  482   0.740   1.666   1.630
  156SOL     OW  483   0.903   0.086   0.133
  156SOL    HW1  484   0.954   0.087   0.047
  156SOL    HW2  485   0.959   0.044   0.204
  157SOL     OW  486   1.726   0.135   0.523
  157SOL    HW1  487   1.799   0.118   0.456
  157SOL    HW2  488   1.695   0.048   0.561
  158SOL     OW  489   1.388   1.573   0.477
  158SOL    HW1  490   1.455   1.585   0.403
  158SOL    HW2  491   1.348   1.662   0.500
  159SOL     OW  492   0.130   1.794   1.851
  159SOL    HW1  493   0.089   1.720   1.904
  159SOL    HW2  494   0.194   1.845   1.909
  160SOL     OW  495   1.280   0.927   0.672
  160SOL    HW1  496   1.340   0.846   0.674
  160SOL    HW2  497   1.320   0.996   0.612
  161SOL     OW  498   0.830   1.273   1.422
  161SOL    HW1  499   0.825   1.306   1.517
  161SOL    HW2  500   0.744   1.292   1.376
  162SOL     OW  501   0.672   1.616   0.154
  162SOL    HW1  502   0.681   1.626   0.055
  162SOL    HW2  503   0.632   1.527   0.175
  163SOL     OW  504   1.650   1.720   1.394
  163SOL    HW1  505   1.703   1.730   1.310
  163SOL    HW2  506   1.623   1.810   1.428
  164SOL     OW  507   1.841   0.175   0.963
  164SOL    HW1  508   1.880   0.090   0.927
  164SOL    HW2  509   1.743   0.177   0.944
  165SOL     OW  510   0.263   0.326   0.720
  165SOL    HW1  511   0.184   0.377   0.686
  165SOL    HW2  512   0.254   0.311   0.818
  166SOL     OW  513   1.194   1.612   0.031
  166SOL    HW1  514   1.200   1.519   0.068
  166SOL    HW2  515   1.135   1.612  -0.049
  167SOL     OW  516   0.822   1.002   1.372
  167SOL    HW1  517   0.862   1.001   1.280
  167SOL    HW2  518   0.832   1.094   1.412
  168SOL     OW  519   0.916   0.910   0.291
  168SOL    HW1  520   0.979   0.948   0.223
  168SOL    HW2  521   0.956   0.827   0.330
  169SOL     OW  522   1.504   1.607   0.044
  169SOL    HW1  523   1.412   1.644   0.051
  169SOL    HW2  524   1.542   1.627  -0.046
  170SOL     OW  525   0.372   1.288   1.490
  170SOL    HW1  526   0.359   1.381   1.456
  170SOL    HW2  527   0.288   1.236   1.477
  171SOL     OW  528   1.614   1.292   1.289
  171SOL    HW1  529   1.674   1.295   1.369
  171SOL    HW2  530   1.539   1.356   1.302
  172SOL     OW  531   1.039   1.098   0.696
  172SOL    HW1  532   0.969   1.051   0.750
  172SOL    HW2  533   1.098   1.030   0.653
  173SOL     OW  534   1.014   0.236   0.971
  173SOL    HW1  535   1.006   0.200   0.878
  173SOL    HW2  536   1.012   0.160   1.036
  174SOL     OW  537   0.590   1.487   0.491
  174SOL    HW1  538   0.632   1.429   0.421
  174SOL    HW2  539   0.546   1.566   0.447
  175SOL     OW  540   1.709   0.385   1.381
  175SOL    HW1  541   1.782   0.454   1.385
  175SOL    HW2  542   1.737   0.310   1.322
  176SOL     OW  543   0.255   1.348   0.290
  176SOL    HW1  544   0.159   1.349   0.263
  176SOL    HW2  545   0.267   1.401   0.374
  177SOL     OW  546   0.105   1.013   1.726
  177SOL    HW1  547   0.028   0.980   1.780
  177SOL    HW2  548   0.190   0.983   1.768
  178SOL     OW  549   0.672   0.203   1.489
  178SOL    HW1  550   0.762   0.187   1.449
  178SOL    HW2  551   0.680   0.208   1.588
  179SOL     OW  552   0.075   0.345   0.033
  179SOL    HW1  553  -0.017   0.317   0.004
  179SOL    HW2  554   0.106   0.422  -0.023
  180SOL     OW  555   1.440   0.856   1.398
  180SOL    HW1  556   1.383   0.908   1.335
  180SOL    HW2  557   1.536   0.868   1.374
  181SOL     OW  558   0.072   0.166   0.318
  181SOL    HW1  559   0.055   0.249   0.264
  181SOL    HW2  560   0.162   0.129   0.296
  182SOL     OW  561   1.183   1.335   0.119
  182SOL    HW1  562   1.084   1.324   0.121
  182SOL    HW2  563   1.217   1.350   0.212
  183SOL     OW  564   0.613   0.842   1.431
  183SOL    HW1  565   0.669   0.923   1.414
  183SOL    HW2  566   0.672   0.762   1.434
  184SOL     OW  567   1.493   1.767   0.959
  184SOL    HW1  568   1.526   1.831   0.890
  184SOL    HW2  569   1.559   1.761   1.034
  185SOL     OW  570   0.716   0.565   1.708
  185SOL    HW1  571   0.735   0.630   1.782
  185SOL    HW2  572   0.776   0.485   1.717
  186SOL     OW  573   1.450   1.220   1.633
  186SOL    HW1  574   1.441   1.210   1.732
  186SOL    HW2  575   1.546   1.213   1.607
  187SOL     OW  576   0.390   1.741   1.560
  187SOL    HW1  577   0.299   1.782   1.558
  187SOL    HW2  578   0.383   1.647   1.592
  188SOL     OW  579   1.674   0.883   1.254
  188SOL    HW1  580   1.647   0.794   1.217
  188SOL    HW2  581   1.675   0.951   1.181
  189SOL     OW  582   1.225   0.325   0.449
  189SOL    HW1  583   1.290   0.251   0.438
  189SOL    HW2  584   1.245   0.375   0.533
  190SOL     OW  585   0.594   0.745   0.652
  190SOL    HW1  586   0.644   0.830   0.633
  190SOL    HW2  587   0.506   0.747   0.604
  191SOL     OW  588   1.777   0.342   1.642
  191SOL    HW1  589   1.760   0.373   1.548
  191SOL    HW2  590   1.693   0.305   1.680
  192SOL     OW  591   1.730   0.934   1.517
  192SOL    HW1  592   1.768   1.025   1.532
  192SOL    HW2  593   1.722   0.917   1.418
  193SOL     OW  594   0.859   1.374   0.016
  193SOL    HW1  595   0.813   1.389   0.104
  193SOL    HW2  596   0.903   1.459  -0.014
  194SOL     OW  597   0.661   1.790   0.953
  194SOL    HW1  598   0.615   1.878   0.940
  194SOL    HW2  599   0.760   1.802   0.946
  195SOL     OW  600   0.859   0.956   0.861
  195SOL    HW1  601   0.913   0.887   0.909
  195SOL    HW2  602   0.827   1.025   0.927
  196SOL     OW  603   1.083   0.984   0.087
  196SOL    HW1  604   1.060   1.037   0.005
  196SOL    HW2  605   1.164   0.928   0.068
  197SOL     OW  606   1.861   1.569   0.851
  197SOL    HW1  607   1.790   1.557   0.781
  197SOL    HW2  608   1.862   1.490   0.911
  198SOL     OW  609   0.221   1.314   1.844
  198SOL    HW1  610   0.156   1.241   1.823
  198SOL    HW2  611   0.225   1.328   1.942
  199SOL     OW  612   0.079   1.240   0.653
  199SOL    HW1  613   0.078   1.193   0.741
  199SOL    HW2  614   0.161   1.212   0.602
  200SOL     OW  615   0.672   1.391   1.624
  200SOL    HW1  616   0.594   1.341   1.662
  200SOL    HW2  617   0.669   1.486   1.655
  201SOL     OW  618   1.824   0.192   1.227
  201SOL    HW1  619   1.820   0.102   1.271
  201SOL    HW2  620   1.827   0.181   1.128
  202SOL     OW  621   0.428   0.424   0.520
  202SOL    HW1  622   0.458   0.352   0.458
  202SOL    HW2  623   0.389   0.384   0.603
  203SOL     OW  624   1.705   1.487   1.104
  203SOL    HW1  625   1.612   1.462   1.077
  203SOL    HW2  626   1.731   1.437   1.186
  204SOL     OW  627   0.317   0.547   1.280
  204SOL    HW1  628   0.355   0.488   1.352
  204SOL    HW2  629   0.357   0.521   1.192
  205SOL     OW  630   0.812   1.586   0.687
  205SOL    HW1  631   0.844   1.596   0.593
  205SOL    HW2  632   0.733   1.524   0.689
  206SOL     OW  633   1.424   0.214   1.112
  206SOL    HW1  634   1.476   0.149   1.167
  206SOL    HW2  635   1.375   0.277   1.173
  207SOL     OW  636   1.001   0.034   1.154
  207SOL    HW1  637   0.938  -0.038   1.123
  207SOL    HW2  638   1.094  -0.002   1.154
  208SOL     OW  639   0.770   1.330   0.301
  208SOL    HW1  640   0.724   1.243   0.318
  208SOL    HW2  641   0.861   1.327   0.342
  209SOL     OW  642   0.618   1.567   1.284
  209SOL    HW1  643   0.613   1.649   1.341
  209SOL    HW2  644   0.707   1.564   1.239
  210SOL     OW  645   1.352   0.052   0.168
  210SOL    HW1  646   1.387   0.011   0.084
  210SOL    HW2  647   1.262   0.014   0.188
  211SOL     OW  648   1.300   0.453   0.691
  211SOL    HW1  649   1.241   0.533   0.695
  211SOL    HW2  650   1.315   0.418   0.784
  212SOL     OW  651   1.593   0.221   0.882
  212SOL    HW1  652   1.509   0.220   0.936
  212SOL    HW2  653   1.595   0.304   0.826
  213SOL     OW  654   0.039   1.077   0.300
  213SOL    HW1  655   0.138   1.066   0.291
  213SOL    HW2  656  -0.001   0.991   0.332
  214SOL     OW  657   0.875   1.646   0.337
  214SOL    HW1  658   0.798   1.611   0.283
  214SOL    HW2  659   0.843   1.717   0.399
  215SOL     OW  660   0.230   0.628   1.975
  215SOL    HW1  661   0.137   0.626   2.012
  215SOL    HW2  662   0.231   0.589   1.883
  216SOL     OW  663   0.225   0.275   2.858
  216SOL    HW1  664   0.260   0.258   2.950
  216SOL    HW2  665   0.137   0.230   2.846
  217SOL     OW  666   0.019   0.368   2.509
  217SOL    HW1  667  -0.063   0.411   2.548
  217SOL    HW2  668  -0.009   0.295   2.446
  218SOL     OW  669   0.569   1.275   3.027
  218SOL    HW1  670   0.476   1.268   2.990
  218SOL    HW2  671   0.580   1.364   3.071
  219SOL     OW  672   1.555   1.511   2.565
  219SOL    HW1  673   1.498   1.495   2.646
  219SOL    HW2  674   1.496   1.521   2.485
  220SOL     OW  675   1.135   0.703   2.579
  220SOL    HW1  676   1.192   0.781   2.554
  220SOL    HW2  677   1.075   0.729   2.655
  221SOL     OW  678   1.755   0.607   2.093
  221SOL    HW1  679   1.743   0.594   1.994
  221SOL    HW2  680   1.725   0.526   2.142
  222SOL     OW  681   0.768   1.144   2.885
  222SOL    HW1  682   0.690   1.161   2.945
  222SOL    HW2  683   0.802   1.231   2.849
  223SOL     OW  684   0.850   0.798   3.685
  223SOL    HW1  685   0.846   0.874   3.750
  223SOL    HW2  686   0.872   0.834   3.594
  224SOL     OW  687   0.685   1.012   2.527
  224SOL    HW1  688   0.754   0.996   2.597
  224SOL    HW2  689   0.612   1.069   2.565
  225SOL     OW  690   0.686   1.161   3.665
  225SOL    HW1  691   0.746   1.240   3.679
  225SOL    HW2  692   0.600   1.192   3.624
  226SOL     OW  693   0.335   1.435   2.923
  226SOL    HW1  694   0.257   1.404   2.870
  226SOL    HW2  695   0.393   1.493   2.866
  227SOL     OW  696   1.460   1.505   3.201
  227SOL    HW1  697   1.484   1.599   3.227
  227SOL    HW2  698   1.444   1.451   3.283
  228SOL     OW  699   0.438   0.392   3.361
  228SOL    HW1  700   0.520   0.336   3.370
  228SOL    HW2  701   0.357   0.334   3.365
  229SOL     OW  702   1.603   0.447   2.599
  229SOL    HW1  703   1.529   0.493   2.549
  229SOL    HW2  704   1.654   0.515   2.652
  230SOL     OW  705   0.231   1.713   2.345
  230SOL    HW1  706   0.265   1.790   2.399
  230SOL    HW2  707   0.275   1.713   2.255
  231SOL     OW  708   1.127   1.341   3.552
  231SOL    HW1  709   1.174   1.341   3.640
  231SOL    HW2  710   1.079   1.254   3.541
  232SOL     OW  711   0.230   1.434   2.400
  232SOL    HW1  712   0.204   1.530   2.400
  232SOL    HW2  713   0.159   1.380   2.445
  233SOL     OW  714   0.240   1.091   2.748
  233SOL    HW1  715   0.254   1.007   2.800
  233SOL    HW2  716   0.185   1.155   2.803
  234SOL     OW  717   0.620   1.786   3.301
  234SOL    HW1  718   0.528   1.769   3.336
  234SOL    HW2  719   0.648   1.878   3.327
  235SOL     OW  720   0.606   0.964   1.985
  235SOL    HW1  721   0.613   1.048   1.931
  235SOL    HW2  722   0.652   0.977   2.073
  236SOL     OW  723   1.594   0.114   3.342
  236SOL    HW1  724   1.576   0.181   3.270
  236SOL    HW2  725   1.591   0.160   3.431
  237SOL     OW  726   0.122   0.643   2.425
  237SOL    HW1  727   0.077   0.555   2.442
  237SOL    HW2  728   0.121   0.697   2.509
  238SOL     OW  729   1.842   1.767   2.221
  238SOL    HW1  730   1.896   1.738   2.301
  238SOL    HW2  731   1.872   1.857   2.192
  239SOL     OW  732   0.027   1.596   1.979
  239SOL    HW1  733   0.008   1.500   2.000
  239SOL    HW2  734  -0.006   1.654   2.054
  240SOL     OW  735   1.689   0.922   2.474
  240SOL    HW1  736   1.784   0.893   2.482
  240SOL    HW2  737   1.681   0.987   2.399
  241SOL     OW  738   1.641   1.108   2.294
  241SOL    HW1  739   1.727   1.110   2.242
  241SOL    HW2  740   1.655   1.155   2.382
  242SOL     OW  741   0.113   0.737   3.459
  242SOL    HW1  742   0.201   0.724   3.504
  242SOL    HW2  743   0.100   0.834   3.437
  243SOL     OW  744   0.613   1.365   2.588
  243SOL    HW1  745   0.564   1.278   2.597
  243SOL    HW2  746   0.590   1.408   2.501
  244SOL     OW  747   1.293   1.228   3.285
  244SOL    HW1  748   1.330   1.155   3.227
  244SOL    HW2  749   1.345   1.233   3.370
  245SOL     OW  750   0.809   0.004   2.364
  245SOL    HW1  751   0.849   0.095   2.355
  245SOL    HW2  752   0.709   0.012   2.370
  246SOL     OW  753   0.197   0.976   3.126
  246SOL    HW1  754   0.286   0.931   3.112
  246SOL    HW2  755   0.124   0.911   3.107
  247SOL     OW  756   1.525   0.999   2.052
  247SOL    HW1  757   1.462   0.923   2.065
  247SOL    HW2  758   1.573   1.017   2.138
  248SOL     OW  759   1.187   1.792   3.478
  248SOL    HW1  760   1.211   1.852   3.402
  248SOL    HW2  761   1.194   1.697   3.448
  249SOL     OW  762   0.317   0.251   3.663
  249SOL    HW1  763   0.388   0.322   3.669
  249SOL    HW2  764   0.229   0.290   3.691
  250SOL     OW  765   1.466   1.417   2.815
  250SOL    HW1  766   1.407   1.423   2.895
  250SOL    HW2  767   1.451   1.329   2.769
  251SOL     OW  768   1.667   1.714   2.434
  251SOL    HW1  769   1.626   1.691   2.346
  251SOL    HW2  770   1.649   1.640   2.499
  252SOL     OW  771   0.598   0.729   2.132
  252SOL    HW1  772   0.622   0.798   2.064
  252SOL    HW2  773   0.520   0.762   2.186
  253SOL     OW  774   1.281   0.345   2.806
  253SOL    HW1  775   1.195   0.295   2.793
  253SOL    HW2  776   1.343   0.291   2.862
  254SOL     OW  777   1.576   1.662   2.169
  254SOL    HW1  778   1.665   1.708   2.172
  254SOL    HW2  779   1.555   1.638   2.074
  255SOL     OW  780   0.807   0.605   3.327
  255SOL    HW1  781   0.760   0.602   3.416
  255SOL    HW2  782   0.756   0.550   3.261
  256SOL     OW  783   1.394   0.469   3.536
  256SOL    HW1  784   1.374   0.512   3.624
  256SOL    HW2  785   1.472   0.407   3.545
  257SOL     OW  786   0.973   0.890   3.434
  257SOL    HW1  787   1.019   0.806   3.405
  257SOL    HW2  788   0.917   0.924   3.359
  258SOL     OW  789   0.991   0.410   3.104
  258SOL    HW1  790   0.914   0.444   3.158
  258SOL    HW2  791   0.957   0.359   3.025
  259SOL     OW  792   1.041   0.701   2.291
  259SOL    HW1  793   1.067   0.697   2.387
  259SOL    HW2  794   0.956   0.650   2.277
  260SOL     OW  795   0.076   0.811   2.651
  260SOL    HW1  796   0.175   0.799   2.660
  260SOL    HW2  797   0.052   0.906   2.672
  261SOL     OW  798   0.130   1.821   3.433
  261SOL    HW1  799   0.120   1.806   3.532
  261SOL    HW2  800   0.044   1.857   3.397
  262SOL     OW  801   0.865   0.348   2.057
  262SOL    HW1  802   0.924   0.411   2.008
  262SOL    HW2  803   0.884   0.254   2.028
  263SOL     OW  804   1.719   0.585   3.693
  263SOL    HW1  805   1.693   0.674   3.657
  263SOL    HW2  806   1.717   0.517   3.620
  264SOL     OW  807   1.362   1.144   2.407
  264SOL    HW1  808   1.445   1.115   2.359
  264SOL    HW2  809   1.313   1.211   2.351
  265SOL     OW  810   0.550   0.196   2.747
  265SOL    HW1  811   0.545   0.191   2.847
  265SOL    HW2  812   0.552   0.292   2.718
  266SOL     OW  813   1.008   1.456   2.339
  266SOL    HW1  814   0.962   1.528   2.287
  266SOL    HW2  815   1.004   1.476   2.437
  267SOL     OW  816   0.351   1.801   2.715
  267SOL    HW1  817   0.401   1.715   2.721
  267SOL    HW2  818   0.416   1.878   2.712
  268SOL     OW  819   1.795   1.066   2.735
  268SOL    HW1  820   1.733   1.051   2.659
  268SOL    HW2  821   1.743   1.077   2.820
  269SOL     OW  822   1.227   1.550   3.368
  269SOL    HW1  823   1.233   1.473   3.432
  269SOL    HW2  824   1.175   1.524   3.288
  270SOL     OW  825   0.321   0.943   2.104
  270SOL    HW1  826   0.403   0.982   2.062
  270SOL    HW2  827   0.294   0.861   2.055
  271SOL     OW  828   1.458   0.735   2.590
  271SOL    HW1  829   1.453   0.670   2.665
  271SOL    HW2  830   1.538   0.794   2.603
  272SOL     OW  831   0.461   1.266   3.589
  272SOL    HW1  832   0.411   1.267   3.503
  272SOL    HW2  833   0.398   1.248   3.665
  273SOL     OW  834   1.111   1.776   2.099
  273SOL    HW1  835   1.051   1.714   2.149
  273SOL    HW2  836   1.142   1.732   2.014
  274SOL     OW  837   0.202   0.285   3.360
  274SOL    HW1  838   0.122   0.345   3.347
  274SOL    HW2  839   0.192   0.236   3.446
  275SOL     OW  840   1.632   1.377   1.943
  275SOL    HW1  841   1.600   1.471   1.933
  275SOL    HW2  842   1.556   1.314   1.931
  276SOL     OW  843   0.464   1.743   2.185
  276SOL    HW1  844   0.497   1.782   2.271
  276SOL    HW2  845   0.540   1.736   2.120
  277SOL     OW  846   1.400   0.107   2.288
  277SOL    HW1  847   1.376   0.070   2.198
  277SOL    HW2  848   1.499   0.123   2.292
  278SOL     OW  849   0.249   1.785   3.103
  278SOL    HW1  850   0.306   1.720   3.153
  278SOL    HW2  851   0.233   1.752   3.010
  279SOL     OW  852   0.940   1.698   2.766
  279SOL    HW1  853   1.020   1.641   2.787
  279SOL    HW2  854   0.891   1.658   2.689
  280SOL     OW  855   0.382   0.700   2.342
  280SOL    HW1  856   0.427   0.610   2.339
  280SOL    HW2  857   0.288   0.689   2.375
  281SOL     OW  858   1.547   0.222   3.591
  281SOL    HW1  859   1.542   0.259   3.683
  281SOL    HW2  860   1.475   0.153   3.579
  282SOL     OW  861   0.614   0.122   1.979
  282SOL    HW1  862   0.712   0.100   1.986
  282SOL    HW2  863   0.583   0.105   1.886
  283SOL     OW  864   0.781   0.264   3.611
  283SOL    HW1  865   0.848   0.203   3.654
  283SOL    HW2  866   0.708   0.283   3.676
  284SOL     OW  867   0.888   1.514   3.057
  284SOL    HW1  868   0.865   1.489   2.963
  284SOL    HW2  869   0.949   1.445   3.096
  285SOL     OW  870   1.351   0.590   3.295
  285SOL    HW1  871   1.379   0.547   3.380
  285SOL    HW2  872   1.376   0.686   3.296
  286SOL     OW  873   0.803   1.402   2.786
  286SOL    HW1  874   0.893   1.416   2.744
  286SOL    HW2  875   0.732   1.404   2.715
  287SOL     OW  876   0.922   0.503   2.761
  287SOL    HW1  877   0.897   0.494   2.665
  287SOL    HW2  878   0.970   0.421   2.792
  288SOL     OW  879   0.539   0.064   2.374
  288SOL    HW1  880   0.458   0.065   2.432
  288SOL    HW2  881   0.542   0.147   2.319
  289SOL     OW  882   1.434   1.188   1.903
  289SOL    HW1  883   1.466   1.112   1.960
  289SOL    HW2  884   1.342   1.215   1.933
  290SOL     OW  885   0.297   0.035   2.033
  290SOL    HW1  886   0.346   0.119   2.012
  290SOL    HW2  887   0.359  -0.030   2.078
  291SOL     OW  888   0.935   0.236   2.342
  291SOL    HW1  889   0.887   0.277   2.264
  291SOL    HW2  890   1.034   0.234   2.323
  292SOL     OW  891   1.076   0.683   3.326
  292SOL    HW1  892   0.996   0.622   3.329
  292SOL    HW2  893   1.157   0.630   3.302
  293SOL     OW  894   1.227   1.570   2.655
  293SOL    HW1  895   1.248   1.644   2.590
  293SOL    HW2  896   1.295   1.570   2.728
  294SOL     OW  897   0.459   1.152   2.603
  294SOL    HW1  898   0.388   1.125   2.668
  294SOL    HW2  899   0.433   1.124   2.510
  295SOL     OW  900   1.271   1.797   2.453
  295SOL    HW1  901   1.315   1.861   2.389
  295SOL    HW2  902   1.221   1.849   2.523
  296SOL     OW  903   1.032   0.549   1.878
  296SOL    HW1  904   0.991   0.631   1.839
  296SOL    HW2  905   1.096   0.575   1.951
  297SOL     OW  906   0.078   0.556   3.248
  297SOL    HW1  907   0.170   0.555   3.207
  297SOL    HW2  908   0.072   0.630   3.315
  298SOL     OW  909   0.561   0.222   3.009
  298SOL    HW1  910   0.599   0.138   3.046
  298SOL    HW2  911   0.473   0.241   3.053
  299SOL     OW  912   0.866   0.454   2.504
  299SOL    HW1  913   0.834   0.526   2.442
  299SOL    HW2  914   0.890   0.373   2.451
  300SOL     OW  915   1.017   0.039   2.615
  300SOL    HW1  916   0.945   0.044   2.546
  300SOL    HW2  917   0.993  -0.030   2.684
  301SOL     OW  918   1.429   1.173   2.729
  301SOL    HW1  919   1.374   1.089   2.722
  301SOL    HW2  920   1.455   1.202   2.637
  302SOL     OW  921   1.466   0.590   2.854
  302SOL    HW1  922   1.436   0.495   2.861
  302SOL    HW2  923   1.539   0.606   2.920
  303SOL     OW  924   1.857   0.833   2.239
  303SOL    HW1  925   1.899   0.769   2.303
  303SOL    HW2  926   1.819   0.782   2.161
  304SOL     OW  927   0.488   1.385   2.036
  304SOL    HW1  928   0.401   1.370   2.083
  304SOL    HW2  929   0.471   1.411   1.941
  305SOL     OW  930   1.664   1.280   2.519
  305SOL    HW1  931   1.763   1.288   2.533
  305SOL    HW2  932   1.619   1.364   2.550
  306SOL     OW  933   1.390   0.575   1.940
  306SOL    HW1  934   1.336   0.554   2.021
  306SOL    HW2  935   1.481   0.534   1.949
  307SOL     OW  936   0.527   0.256   2.190
  307SOL    HW1  937   0.554   0.197   2.115
  307SOL    HW2  938   0.527   0.351   2.159
  308SOL     OW  939   1.754   1.223   3.450
  308SOL    HW1  940   1.845   1.184   3.437
  308SOL    HW2  941   1.762   1.319   3.474
  309SOL     OW  942   1.064   1.347   3.202
  309SOL    HW1  943   0.984   1.324   3.257
  309SOL    HW2  944   1.147   1.321   3.251
  310SOL     OW  945   1.592   1.629   3.487
  310SOL    HW1  946   1.619   1.663   3.397
  310SOL    HW2  947   1.671   1.591   3.533
  311SOL     OW  948   1.111   1.195   2.962
  311SOL    HW1  949   1.071   1.239   3.043
  311SOL    HW2  950   1.070   1.232   2.879
  312SOL     OW  951   1.638   1.099   2.941
  312SOL    HW1  952   1.643   1.180   3.000
  312SOL    HW2  953   1.552   1.101   2.890
  313SOL     OW  954   0.915   0.089   3.264
  313SOL    HW1  955   0.940   0.069   3.169
  313SOL    HW2  956   0.987   0.145   3.306
  314SOL     OW  957   0.980   1.116   3.581
  314SOL    HW1  958   0.881   1.122   3.591
  314SOL    HW2  959   1.003   1.036   3.525
  315SOL     OW  960   0.705   1.050   2.230
  315SOL    HW1  961   0.691   1.057   2.329
  315SOL    HW2  962   0.789   0.999   2.212
  316SOL     OW  963   0.410   0.813   3.113
  316SOL    HW1  964   0.496   0.825   3.163
  316SOL    HW2  965   0.368   0.726   3.140
  317SOL     OW  966   1.274   0.386   3.124
  317SOL    HW1  967   1.295   0.460   3.188
  317SOL    HW2  968   1.185   0.403   3.081
  318SOL     OW  969   0.064   1.564   3.193
  318SOL    HW1  970   0.018   1.646   3.159
  318SOL    HW2  971   0.162   1.583   3.202
  319SOL     OW  972   0.367   1.100   2.363
  319SOL    HW1  973   0.360   1.183   2.307
  319SOL    HW2  974   0.371   1.020   2.303
  320SOL     OW  975   0.566   0.537   2.727
  320SOL    HW1  976   0.578   0.603   2.653
  320SOL    HW2  977   0.612   0.571   2.810
  321SOL     OW  978   1.252   1.348   2.250
  321SOL    HW1  979   1.302   1.425   2.290
  321SOL    HW2  980   1.157   1.350   2.282
  322SOL     OW  981   1.272   1.445   3.004
  322SOL    HW1  982   1.319   1.458   3.091
  322SOL    HW2  983   1.206   1.371   3.013
  323SOL     OW  984   1.582   0.639   2.334
  323SOL    HW1  985   1.551   0.700   2.407
  323SOL    HW2  986   1.632   0.691   2.265
  324SOL     OW  987   0.354   1.510   3.191
  324SOL    HW1  988   0.333   1.466   3.104
  324SOL    HW2  989   0.451   1.536   3.194
  325SOL     OW  990   0.402   0.751   3.460
  325SOL    HW1  991   0.470   0.806   3.413
  325SOL    HW2  992   0.442   0.663   3.487
  326SOL     OW  993   1.587   0.779   3.532
  326SOL    HW1  994   1.495   0.817   3.527
  326SOL    HW2  995   1.647   0.826   3.467
  327SOL     OW  996   1.013   0.105   3.632
  327SOL    HW1  997   1.019   0.190   3.580
  327SOL    HW2  998   1.045   0.029   3.575
  328SOL     OW  999   0.504   0.050   3.602
  328SOL    HW1 1000   0.462  -0.007   3.532
  328SOL    HW2 1001   0.438   0.119   3.634
  329SOL     OW 1002   0.573   0.870   2.891
  329SOL    HW1 1003   0.617   0.959   2.882
  329SOL    HW2 1004   0.510   0.870   2.968
  330SOL     OW 1005   1.360   0.862   2.907
  330SOL    HW1 1006   1.285   0.862   2.841
  330SOL    HW2 1007   1.397   0.770   2.916
  331SOL     OW 1008   1.209   0.525   2.137
  331SOL    HW1 1009   1.222   0.441   2.191
  331SOL    HW2 1010   1.180   0.599   2.197
  332SOL     OW 1011   0.307   0.213   3.093
  332SOL    HW1 1012   0.284   0.250   3.183
  332SOL    HW2 1013   0.277   0.118   3.087
  333SOL     OW 1014   0.037   1.310   3.144
  333SOL    HW1 1015   0.090   1.261   3.212
  333SOL    HW2 1016   0.059   1.408   3.149
  334SOL     OW 1017   0.732   0.634   2.926
  334SOL    HW1 1018   0.791   0.608   2.850
  334SOL    HW2 1019   0.704   0.730   2.915
  335SOL     OW 1020   1.728   0.935   3.716
  335SOL    HW1 1021   1.682   0.928   3.627
  335SOL    HW2 1022   1.666   0.979   3.782
  336SOL     OW 1023   0.307   0.063   2.480
  336SOL    HW1 1024   0.296   0.157   2.513
  336SOL    HW2 1025   0.302   0.000   2.557
  337SOL     OW 1026   1.622   0.367   2.236
  337SOL    HW1 1027   1.624   0.291   2.300
  337SOL    HW2 1028   1.574   0.444   2.276
  338SOL     OW 1029   1.023   0.766   2.828
  338SOL    HW1 1030   1.038   0.787   2.924
  338SOL    HW2 1031   0.993   0.671   2.819
  339SOL     OW 1032   0.980   1.573   3.562
  339SOL    HW1 1033   0.960   1.617   3.474
  339SOL    HW2 1034   1.019   1.482   3.546
  340SOL     OW 1035   1.859   1.518   3.467
  340SOL    HW1 1036   1.873   1.545   3.372
  340SOL    HW2 1037   1.942   1.540   3.520
  341SOL     OW 1038   0.350   0.898   3.666
  341SOL    HW1 1039   0.426   0.942   3.714
  341SOL    HW2 1040   0.385   0.851   3.584
  342SOL     OW 1041   1.540   0.274   1.987
  342SOL    HW1 1042   1.479   0.199   2.010
  342SOL    HW2 1043   1.562   0.326   2.070
  343SOL     OW 1044   1.303   0.838   1.904
  343SOL    HW1 1045   1.337   0.745   1.919
  343SOL    HW2 1046   1.321   0.865   1.809
  344SOL     OW 1047   1.068   1.333   2.711
  344SOL    HW1 1048   1.075   1.249   2.656
  344SOL    HW2 1049   1.130   1.402   2.675
  345SOL     OW 1050   0.319   0.810   2.811
  345SOL    HW1 1051   0.412   0.846   2.816
  345SOL    HW2 1052   0.313   0.725   2.863
  346SOL     OW 1053   0.339   0.509   2.868
  346SOL    HW1 1054   0.287   0.426   2.851
  346SOL    HW2 1055   0.416   0.514   2.804
  347SOL     OW 1056   1.138   0.380   3.540
  347SOL    HW1 1057   1.093   0.443   3.604
  347SOL    HW2 1058   1.231   0.411   3.523
  348SOL     OW 1059   1.160   0.207   3.339
  348SOL    HW1 1060   1.160   0.271   3.416
  348SOL    HW2 1061   1.188   0.255   3.256
  349SOL     OW 1062   0.008   1.326   2.062
  349SOL    HW1 1063  -0.085   1.347   2.031
  349SOL    HW2 1064   0.018   1.227   2.075
  350SOL     OW 1065   0.088   1.801   2.789
  350SOL    HW1 1066   0.046   1.715   2.762
  350SOL    HW2 1067   0.182   1.804   2.755
  351SOL     OW 1068   0.504   1.568   2.772
  351SOL    HW1 1069   0.570   1.642   2.781
  351SOL    HW2 1070   0.548   1.489   2.730
  352SOL     OW 1071   1.002   0.796   3.100
  352SOL    HW1 1072   1.043   0.764   3.186
  352SOL    HW2 1073   0.906   0.769   3.097
  353SOL     OW 1074   0.040   0.544   2.976
  353SOL    HW1 1075   0.125   0.511   2.935
  353SOL    HW2 1076   0.053   0.559   3.074
  354SOL     OW 1077   0.189   0.520   3.584
  354SOL    HW1 1078   0.248   0.480   3.514
  354SOL    HW2 1079   0.131   0.591   3.543
  355SOL     OW 1080   1.369   0.950   3.522
  355SOL    HW1 1081   1.408   1.039   3.542
  355SOL    HW2 1082   1.379   0.930   3.425
  356SOL     OW 1083   0.815   0.572   2.187
  356SOL    HW1 1084   0.822   0.483   2.141
  356SOL    HW2 1085   0.721   0.606   2.179
  357SOL     OW 1086   1.657   0.604   3.068
  357SOL    HW1 1087   1.619   0.535   3.130
  357SOL    HW2 1088   1.739   0.568   3.024
  358SOL     OW 1089   0.252   1.564   3.606
  358SOL    HW1 1090   0.222   1.621   3.682
  358SOL    HW2 1091   0.245   1.467   3.632
  359SOL     OW 1092   0.671   0.464   3.131
  359SOL    HW1 1093   0.637   0.375   3.101
  359SOL    HW2 1094   0.697   0.518   3.051
  360SOL     OW 1095   0.930   1.678   3.327
  360SOL    HW1 1096   0.906   1.660   3.232
  360SOL    HW2 1097   0.960   1.772   3.337
  361SOL     OW 1098   0.473   0.500   2.053
  361SOL    HW1 1099   0.534   0.580   2.057
  361SOL    HW2 1100   0.378   0.531   2.060
  362SOL     OW 1101   0.159   1.137   3.328
  362SOL    HW1 1102   0.181   1.076   3.404
  362SOL    HW2 1103   0.169   1.088   3.242
  363SOL     OW 1104   1.347   1.059   3.096
  363SOL    HW1 1105   1.371   0.996   3.022
  363SOL    HW2 1106   1.257   1.099   3.078
  364SOL     OW 1107   1.302   0.855   2.171
  364SOL    HW1 1108   1.216   0.824   2.213
  364SOL    HW2 1109   1.298   0.841   2.072
  365SOL     OW 1110   1.759   1.747   3.016
  365SOL    HW1 1111   1.820   1.777   2.943
  365SOL    HW2 1112   1.721   1.658   2.994
  366SOL     OW 1113   1.252   1.731   2.990
  366SOL    HW1 1114   1.336   1.736   2.936
  366SOL    HW2 1115   1.229   1.635   3.008
  367SOL     OW 1116   0.083   1.258   2.884
  367SOL    HW1 1117   0.078   1.257   2.984
  367SOL    HW2 1118   0.000   1.217   2.846
  368SOL     OW 1119   0.688   1.662   3.578
  368SOL    HW1 1120   0.632   1.743   3.587
  368SOL    HW2 1121   0.740   1.666   3.492
  369SOL     OW 1122   1.726   0.135   2.385
  369SOL    HW1 1123   1.799   0.118   2.318
  369SOL    HW2 1124   1.695   0.048   2.423
  370SOL     OW 1125   1.388   1.573   2.339
  370SOL    HW1 1126   1.455   1.585   2.265
  370SOL    HW2 1127   1.348   1.662   2.362
  371SOL     OW 1128   0.130   1.794   3.713
  371SOL    HW1 1129   0.089   1.720   3.766
  371SOL    HW2 1130   0.194   1.845   3.771
  372SOL     OW 1131   1.280   0.927   2.534
  372SOL    HW1 1132   1.340   0.846   2.536
  372SOL    HW2 1133   1.320   0.996   2.474
  373SOL     OW 1134   0.830   1.273   3.284
  373SOL    HW1 1135   0.825   1.306   3.379
  373SOL    HW2 1136   0.744   1.292   3.238
  374SOL     OW 1137   0.672   1.616   2.016
  374SOL    HW1 1138   0.681   1.626   1.917
  374SOL    HW2 1139   0.632   1.527   2.037
  375SOL     OW 1140   1.650   1.720   3.256
  375SOL    HW1 1141   1.703   1.730   3.172
  375SOL    HW2 1142   1.623   1.810   3.290
  376SOL     OW 1143   1.841   0.175   2.825
  376SOL    HW1 1144   1.880   0.090   2.789
  376SOL    HW2 1145   1.743   0.177   2.806
  377SOL     OW 1146   0.263   0.326   2.582
  377SOL    HW1 1147   0.184   0.377   2.548
  377SOL    HW2 1148   0.254   0.311   2.680
  378SOL     OW 1149   1.194   1.612   1.893
  378SOL    HW1 1150   1.200   1.519   1.930
  378SOL    HW2 1151   1.135   1.612   1.813
  379SOL     OW 1152   0.822   1.002   3.234
  379SOL    HW1 1153   0.862   1.001   3.142
  379SOL    HW2 1154   0.832   1.094   3.274
  380SOL     OW 1155   0.916   0.910   2.153
  380SOL    HW1 1156   0.979   0.948   2.085
  380SOL    HW2 1157   0.956   0.827   2.192
  381SOL     OW 1158   1.504   1.607   1.906
  381SOL    HW1 1159   1.412   1.644   1.913
  381SOL    HW2 1160   1.542   1.627   1.816
  382SOL     OW 1161   0.372   1.288   3.352
  382SOL    HW1 1162   0.359   1.381   3.318
  382SOL    HW2 1163   0.288   1.236   3.339
  383SOL     OW 1164   1.614   1.292   3.151
  383SOL    HW1 1165   1.674   1.295   3.231
  383SOL    HW2 1166   1.539   1.356   3.164
  384SOL     OW 1167   1.039   1.098   2.558
  384SOL    HW1 1168   0.969   1.051   2.612
  384SOL    HW2 1169   1.098   1.030   2.515
  385SOL     OW 1170   1.014   0.236   2.833
  385SOL    HW1 1171   1.006   0.200   2.740
  385SOL    HW2 1172   1.012   0.160   2.898
  386SOL     OW 1173   0.590   1.487   2.353
  386SOL    HW1 1174   0.632   1.429   2.283
  386SOL    HW2 1175   0.546   1.566   2.309
  387SOL     OW 1176   1.709   0.385   3.243
  387SOL    HW1 1177   1.782   0.454   3.247
  387SOL    HW2 1178   1.737   0.310   3.184
  388SOL     OW 1179   0.255   1.348   2.152
  388SOL    HW1 1180   0.159   1.349   2.125
  388SOL    HW2 1181   0.267   1.401   2.236
  389SOL     OW 1182   0.105   1.013   3.588
  389SOL    HW1 1183   0.028   0.980   3.642
  389SOL    HW2 1184   0.190   0.983   3.630
  390SOL     OW 1185   0.672   0.203   3.351
  390SOL    HW1 1186   0.762   0.187   3.311
  390SOL    HW2 1187   0.680   0.208   3.450
  391SOL     OW 1188   0.075   0.345   1.895
  391SOL    HW1 1189  -0.017   0.317   1.866
  391SOL    HW2 1190   0.106   0.422   1.839
  392SOL     OW 1191   1.440   0.856   3.260
  392SOL    HW1 1192   1.383   0.908   3.197
  392SOL    HW2 1193   1.536   0.868   3.236
  393SOL     OW 1194   0.072   0.166   2.180
  393SOL    HW1 1195   0.055   0.249   2.126
  393SOL    HW2 1196   0.162   0.129   2.158
  394SOL     OW 1197   1.183   1.335   1.981
  394SOL    HW1 1198   1.084   1.324   1.983
  394SOL    HW2 1199   1.217   1.350   2.074
  395SOL     OW 1200   0.613   0.842   3.293
  395SOL    HW1 1201   0.669   0.923   3.276
  395SOL    HW2 1202   0.672   0.762   3.296
  396SOL     OW 1203   1.493   1.767   2.821
  396SOL    HW1 1204   1.526   1.831   2.752
  396SOL    HW2 1205   1.559   1.761   2.896
  397SOL     OW 1206   0.716   0.565   3.570
  397SOL    HW1 1207   0.735   0.630   3.644
  397SOL    HW2 1208   0.776   0.485   3.579
  398SOL     OW 1209   1.450   1.220   3.495
  398SOL    HW1 1210   1.441   1.210   3.594
  398SOL    HW2 1211   1.546   1.213   3.469
  399SOL     OW 1212   0.390   1.741   3.422
  399SOL    HW1 1213   0.299   1.782   3.420
  399SOL    HW2 1214   0.383   1.647   3.454
  400SOL     OW 1215   1.674   0.883   3.116
  400SOL    HW1 1216   1.647   0.794   3.079
  400SOL    HW2 1217   1.675   0.951   3.043
  401SOL     OW 1218   1.225   0.325   2.311
  401SOL    HW1 1219   1.290   0.251   2.300
  401SOL    HW2 1220   1.245   0.375   2.395
  402SOL     OW 1221   0.594   0.745   2.514
  402SOL    HW1 1222   0.644   0.830   2.495
  402SOL    HW2 1223   0.506   0.747   2.466
  403SOL     OW 1224   1.777   0.342   3.504
  403SOL    HW1 1225   1.760   0.373   3.410
  403SOL    HW2 1226   1.693   0.305   3.542
  404SOL     OW 1227   1.730   0.934   3.379
  404SOL    HW1 1228   1.768   1.025   3.394
  404SOL    HW2 1229   1.722   0.917   3.280
  405SOL     OW 1230   0.859   1.374   1.878
  405SOL    HW1 1231   0.813   1.389   1.966
  405SOL    HW2 1232   0.903   1.459   1.848
  406SOL     OW 1233   0.661   1.790   2.815
  406SOL    HW1 1234   0.615   1.878   2.802
  406SOL    HW2 1235   0.760   1.802   2.808
  407SOL     OW 1236   0.859   0.956   2.723
  407SOL    HW1 1237   0.913   0.887   2.771
  407SOL    HW2 1238   0.827   1.025   2.789
  408SOL     OW 1239   1.083   0.984   1.949
  408SOL    HW1 1240   1.060   1.037   1.867
  408SOL    HW2 1241   1.164   0.928   1.930
  409SOL     OW 1242   1.861   1.569   2.713
  409SOL    HW1 1243   1.790   1.557   2.643
  409SOL    HW2 1244   1.862   1.490   2.773
  410SOL     OW 1245   0.221   1.314   3.706
  410SOL    HW1 1246   0.156   1.241   3.685
  410SOL    HW2 1247   0.225   1.328   3.804
  411SOL     OW 1248   0.079   1.240   2.515
  411SOL    HW1 1249   0.078   1.193   2.603
  411SOL    HW2 1250   0.161   1.212   2.464
  412SOL     OW 1251   0.672   1.391   3.486
  412SOL    HW1 1252   0.594   1.341   3.524
  412SOL    HW2 1253   0.669   1.486   3.517
  413SOL     OW 1254   1.824   0.192   3.089
  413SOL    HW1 1255   1.820   0.102   3.133
  413SOL    HW2 1256   1.827   0.181   2.990
  414SOL     OW 1257   0.428   0.424   2.382
  414SOL    HW1 1258   0.458   0.352   2.320
  414SOL    HW2 1259   0.389   0.384   2.465
  415SOL     OW 1260   1.705   1.487   2.966
  415SOL    HW1 1261   1.612   1.462   2.939
  415SOL    HW2 1262   1.731   1.437   3.048
  416SOL     OW 1263   0.317   0.547   3.142
  416SOL    HW1 1264   0.355   0.488   3.214
  416SOL    HW2 1265   0.357   0.521   3.054
  417SOL     OW 1266   0.812   1.586   2.549
  417SOL    HW1 1267   0.844   1.596   2.455
  417SOL    HW2 1268   0.733   1.524   2.551
  418SOL     OW 1269   1.424   0.214   2.974
  418SOL    HW1 1270   1.476   0.149   3.029
  418SOL    HW2 1271   1.375   0.277   3.035
  419SOL     OW 1272   1.001   0.034   3.016
  419SOL    HW1 1273   0.938  -0.038   2.985
  419SOL    HW2 1274   1.094  -0.002   3.016
  420SOL     OW 1275   0.770   1.330   2.163
  420SOL    HW1 1276   0.724   1.243   2.180
  420SOL    HW2 1277   0.861   1.327   2.204
  421SOL     OW 1278   0.618   1.567   3.146
  421SOL    HW1 1279   0.613   1.649   3.203
  421SOL    HW2 1280   0.707   1.564   3.101
  422SOL     OW 1281   1.352   0.052   2.030
  422SOL    HW1 1282   1.387   0.011   1.946
  422SOL    HW2 1283   1.262   0.014   2.050
  423SOL     OW 1284   1.300   0.453   2.553
  423SOL    HW1 1285   1.241   0.533   2.557
  423SOL    HW2 1286   1.315   0.418   2.646
  424SOL     OW 1287   1.593   0.221   2.744
  424SOL    HW1 1288   1.509   0.220   2.798
  424SOL    HW2 1289   1.595   0.304   2.688
  425SOL     OW 1290   0.039   1.077   2.162
  425SOL    HW1 1291   0.138   1.066   2.153
  425SOL    HW2 1292  -0.001   0.991   2.194
  426SOL     OW 1293   0.875   1.646   2.199
  426SOL    HW1 1294   0.798   1.611   2.145
  426SOL    HW2 1295   0.843   1.717   2.261
  427SOL     OW 1296   0.230   0.628   3.837
  427SOL    HW1 1297   0.137   0.626   3.874
  427SOL    HW2 1298   0.231   0.589   3.745
  428SOL     OW 1299   0.019   0.368   4.371
  428SOL    HW1 1300  -0.063   0.411   4.410
  428SOL    HW2 1301  -0.009   0.295   4.308
  429SOL     OW 1302   1.755   0.607   3.955
  429SOL    HW1 1303   1.743   0.594   3.856
  429SOL    HW2 1304   1.725   0.526   4.004
  430SOL     OW 1305   0.685   1.012   4.389
  430SOL    HW1 1306   0.754   0.996   4.459
  430SOL    HW2 1307   0.612   1.069   4.427
  431SOL     OW 1308   1.603   0.447   4.461
  431SOL    HW1 1309   1.529   0.493   4.411
  431SOL    HW2 1310   1.654   0.515   4.514
  432SOL     OW 1311   0.231   1.713   4.207
  432SOL    HW1 1312   0.265   1.790   4.261
  432SOL    HW2 1313   0.275   1.713   4.117
  433SOL     OW 1314   0.230   1.434   4.262
  433SOL    HW1 1315   0.204   1.530   4.262
  433SOL    HW2 1316   0.159   1.380   4.307
  434SOL     OW 1317   0.606   0.964   3.847
  434SOL    HW1 1318   0.613   1.048   3.793
  434SOL    HW2 1319   0.652   0.977   3.935
  435SOL     OW 1320   0.122   0.643   4.287
  435SOL    HW1 1321   0.077   0.555   4.304
  435SOL    HW2 1322   0.121   0.697   4.371
  436SOL     OW 1323   1.842   1.767   4.083
  436SOL    HW1 1324   1.896   1.738   4.163
  436SOL    HW2 1325   1.872   1.857   4.054
  437SOL     OW 1326   0.027   1.596   3.841
  437SOL    HW1 1327   0.008   1.500   3.862
  437SOL    HW2 1328  -0.006   1.654   3.916
  438SOL     OW 1329   1.689   0.922   4.336
  438SOL    HW1 1330   1.784   0.893   4.344
  438SOL    HW2 1331   1.681   0.987   4.261
  439SOL     OW 1332   1.641   1.108   4.156
  439SOL    HW1 1333   1.727   1.110   4.104
  439SOL    HW2 1334   1.655   1.155   4.244
  440SOL     OW 1335   0.613   1.365   4.450
  440SOL    HW1 1336   0.564   1.278   4.459
  440SOL    HW2 1337   0.590   1.408   4.363
  441SOL     OW 1338   0.809   0.004   4.226
  441SOL    HW1 1339   0.849   0.095   4.217
  441SOL    HW2 1340   0.709   0.012   4.232
  442SOL     OW 1341   1.525   0.999   3.914
  442SOL    HW1 1342   1.462   0.923   3.927
  442SOL    HW2 1343   1.573   1.017   4.000
  443SOL     OW 1344   1.667   1.714   4.296
  443SOL    HW1 1345   1.626   1.691   4.208
  443SOL    HW2 1346   1.649   1.640   4.361
  444SOL     OW 1347   0.598   0.729   3.994
  444SOL    HW1 1348   0.622   0.798   3.926
  444SOL    HW2 1349   0.520   0.762   4.048
  445SOL     OW 1350   1.281   0.345   4.668
  445SOL    HW1 1351   1.195   0.295   4.655
  445SOL    HW2 1352   1.343   0.291   4.724
  446SOL     OW 1353   1.576   1.662   4.031
  446SOL    HW1 1354   1.665   1.708   4.034
  446SOL    HW2 1355   1.555   1.638   3.936
  447SOL     OW 1356   1.041   0.701   4.153
  447SOL    HW1 1357   1.067   0.697   4.249
  447SOL    HW2 1358   0.956   0.650   4.139
  448SOL     OW 1359   0.076   0.811   4.513
  448SOL    HW1 1360   0.175   0.799   4.522
  448SOL    HW2 1361   0.052   0.906   4.534
  449SOL     OW 1362   0.865   0.348   3.919
  449SOL    HW1 1363   0.924   0.411   3.870
  449SOL    HW2 1364   0.884   0.254   3.890
  450SOL     OW 1365   1.362   1.144   4.269
  450SOL    HW1 1366   1.445   1.115   4.221
  450SOL    HW2 1367   1.313   1.211   4.213
  451SOL     OW 1368   1.008   1.456   4.201
  451SOL    HW1 1369   0.962   1.528   4.149
  451SOL    HW2 1370   1.004   1.476   4.299
  452SOL     OW 1371   0.351   1.801   4.577
  452SOL    HW1 1372   0.401   1.715   4.583
  452SOL    HW2 1373   0.416   1.878   4.574
  453SOL     OW 1374   1.795   1.066   4.597
  453SOL    HW1 1375   1.733   1.051   4.521
  453SOL    HW2 1376   1.743   1.077   4.682
  454SOL     OW 1377   0.321   0.943   3.966
  454SOL    HW1 1378   0.403   0.982   3.924
  454SOL    HW2 1379   0.294   0.861   3.917
  455SOL     OW 1380   1.111   1.776   3.961
  455SOL    HW1 1381   1.051   1.714   4.011
  455SOL    HW2 1382   1.142   1.732   3.876
  456SOL     OW 1383   1.632   1.377   3.805
  456SOL    HW1 1384   1.600   1.471   3.795
  456SOL    HW2 1385   1.556   1.314   3.793
  457SOL     OW 1386   0.464   1.743   4.047
  457SOL    HW1 1387   0.497   1.782   4.133
  457SOL    HW2 1388   0.540   1.736   3.982
  458SOL     OW 1389   1.400   0.107   4.150
  458SOL    HW1 1390   1.376   0.070   4.060
  458SOL    HW2 1391   1.499   0.123   4.154
  459SOL     OW 1392   0.940   1.698   4.628
  459SOL    HW1 1393   1.020   1.641   4.649
  459SOL    HW2 1394   0.891   1.658   4.551
  460SOL     OW 1395   0.382   0.700   4.204
  460SOL    HW1 1396   0.427   0.610   4.201
  460SOL    HW2 1397   0.288   0.689   4.237
  461SOL     OW 1398   0.614   0.122   3.841
  461SOL    HW1 1399   0.712   0.100   3.848
  461SOL    HW2 1400   0.583   0.105   3.748
  462SOL     OW 1401   0.539   0.064   4.236
  462SOL    HW1 1402   0.458   0.065   4.294
  462SOL    HW2 1403   0.542   0.147   4.181
  463SOL     OW 1404   1.434   1.188   3.765
  463SOL    HW1 1405   1.466   1.112   3.822
  463SOL    HW2 1406   1.342   1.215   3.795
  464SOL     OW 1407   0.297   0.035   3.895
  464SOL    HW1 1408   0.346   0.119   3.874
  464SOL    HW2 1409   0.359  -0.030   3.940
  465SOL     OW 1410   0.935   0.236   4.204
  465SOL    HW1 1411   0.887   0.277   4.126
  465SOL    HW2 1412   1.034   0.234   4.185
  466SOL     OW 1413   0.459   1.152   4.465
  466SOL    HW1 1414   0.388   1.125   4.530
  466SOL    HW2 1415   0.433   1.124   4.372
  467SOL     OW 1416   1.271   1.797   4.315
  467SOL    HW1 1417   1.315   1.861   4.251
  467SOL    HW2 1418   1.221   1.849   4.385
  468SOL     OW 1419   1.032   0.549   3.740
  468SOL    HW1 1420   0.991   0.631   3.701
  468SOL    HW2 1421   1.096   0.575   3.813
  469SOL     OW 1422   0.866   0.454   4.366
  469SOL    HW1 1423   0.834   0.526   4.304
  469SOL    HW2 1424   0.890   0.373   4.313
  470SOL     OW 1425   1.857   0.833   4.101
  470SOL    HW1 1426   1.899   0.769   4.165
  470SOL    HW2 1427   1.819   0.782   4.023
  471SOL     OW 1428   0.488   1.385   3.898
  471SOL    HW1 1429   0.401   1.370   3.945
  471SOL    HW2 1430   0.471   1.411   3.803
  472SOL     OW 1431   1.664   1.280   4.381
  472SOL    HW1 1432   1.763   1.288   4.395
  472SOL    HW2 1433   1.619   1.364   4.412
  473SOL     OW 1434   1.390   0.575   3.802
  473SOL    HW1 1435   1.336   0.554   3.883
  473SOL    HW2 1436   1.481   0.534   3.811
  474SOL     OW 1437   0.527   0.256   4.052
  474SOL    HW1 1438   0.554   0.197   3.977
  474SOL    HW2 1439   0.527   0.351   4.021
  475SOL     OW 1440   0.705   1.050   4.092
  475SOL    HW1 1441   0.691   1.057   4.191
  475SOL    HW2 1442   0.789   0.999   4.074
  476SOL     OW 1443   0.367   1.100   4.225
  476SOL    HW1 1444   0.360   1.183   4.169
  476SOL    HW2 1445   0.371   1.020   4.165
  477SOL     OW 1446   1.252   1.348   4.112
  477SOL    HW1 1447   1.302   1.425   4.152
  477SOL    HW2 1448   1.157   1.350   4.144
  478SOL     OW 1449   1.582   0.639   4.196
  478SOL    HW1 1450   1.551   0.700   4.269
  478SOL    HW2 1451   1.632   0.691   4.127
  479SOL     OW 1452   1.209   0.525   3.999
  479SOL    HW1 1453   1.222   0.441   4.053
  479SOL    HW2 1454   1.180   0.599   4.059
  480SOL     OW 1455   0.307   0.063   4.342
  480SOL    HW1 1456   0.296   0.157   4.375
  480SOL    HW2 1457   0.302   0.000   4.419
  481SOL     OW 1458   1.622   0.367   4.098
  481SOL    HW1 1459   1.624   0.291   4.162
  481SOL    HW2 1460   1.574   0.444   4.138
  482SOL     OW 1461   1.540   0.274   3.849
  482SOL    HW1 1462   1.479   0.199   3.872
  482SOL    HW2 1463   1.562   0.326   3.932
  483SOL     OW 1464   1.303   0.838   3.766
  483SOL    HW1 1465   1.337   0.745   3.781
  483SOL    HW2 1466   1.321   0.865   3.671
  484SOL     OW 1467   0.008   1.326   3.924
  484SOL    HW1 1468  -0.085   1.347   3.893
  484SOL    HW2 1469   0.018   1.227   3.937
  485SOL     OW 1470   0.815   0.572   4.049
  485SOL    HW1 1471   0.822   0.483   4.003
  485SOL    HW2 1472   0.721   0.606   4.041
  486SOL     OW 1473   0.473   0.500   3.915
  486SOL    HW1 1474   0.534   0.580   3.919
  486SOL    HW2 1475   0.378   0.531   3.922
  487SOL     OW 1476   1.302   0.855   4.033
  487SOL    HW1 1477   1.216   0.824   4.075
  487SOL    HW2 1478   1.298   0.841   3.934
  488SOL     OW 1479   1.726   0.135   4.247
  488SOL    HW1 1480   1.799   0.118   4.180
  488SOL    HW2 1481   1.695   0.048   4.285
  489SOL     OW 1482   1.388   1.573   4.201
  489SOL    HW1 1483   1.455   1.585   4.127
  489SOL    HW2 1484   1.348   1.662   4.224
  490SOL     OW 1485   0.672   1.616   3.878
  490SOL    HW1 1486   0.681   1.626   3.779
  490SOL    HW2 1487   0.632   1.527   3.899
  491SOL     OW 1488   1.194   1.612   3.755
  491SOL    HW1 1489   1.200   1.519   3.792
  491SOL    HW2 1490   1.135   1.612   3.675
  492SOL     OW 1491   0.916   0.910   4.015
  492SOL    HW1 1492   0.979   0.948   3.947
  492SOL    HW2 1493   0.956   0.827   4.054
  493SOL     OW 1494   1.504   1.607   3.768
  493SOL    HW1 1495   1.412   1.644   3.775
  493SOL    HW2 1496   1.542   1.627   3.678
  494SOL     OW 1497   0.590   1.487   4.215
  494SOL    HW1 1498   0.632   1.429   4.145
  494SOL    HW2 1499   0.546   1.566   4.171
  495SOL     OW 1500   0.255   1.348   4.014
  495SOL    HW1 1501   0.159   1.349   3.987
  495SOL    HW2 1502   0.267   1.401   4.098
  496SOL     OW 1503   0.075   0.345   3.757
  496SOL    HW1 1504  -0.017   0.317   3.728
  496SOL    HW2 1505   0.106   0.422   3.701
  497SOL     OW 1506   0.072   0.166   4.042
  497SOL    HW1 1507   0.055   0.249   3.988
  497SOL    HW2 1508   0.162   0.129   4.020
  498SOL     OW 1509   1.183   1.335   3.843
  498SOL    HW1 1510   1.084   1.324   3.845
  498SOL    HW2 1511   1.217   1.350   3.936
  499SOL     OW 1512   1.225   0.325   4.173
  499SOL    HW1 1513   1.290   0.251   4.162
  499SOL    HW2 1514   1.245   0.375   4.257
  500SOL     OW 1515   0.594   0.745   4.376
  500SOL    HW1 1516   0.644   0.830   4.357
  500SOL    HW2 1517   0.506   0.747   4.328
  501SOL     OW 1518   0.859   1.374   3.740
  501SOL    HW1 1519   0.813   1.389   3.828
  501SOL    HW2 1520   0.903   1.459   3.710
  502SOL     OW 1521   0.661   1.790   4.677
  502SOL    HW1 1522   0.615   1.878   4.664
  502SOL    HW2 1523   0.760   1.802   4.670
  503SOL     OW 1524   0.859   0.956   4.585
  503SOL    HW1 1525   0.913   0.887   4.633
  503SOL    HW2 1526   0.827   1.025   4.651
  504SOL     OW 1527   1.083   0.984   3.811
  504SOL    HW1 1528   1.060   1.037   3.729
  504SOL    HW2 1529   1.164   0.928   3.792
  505SOL     OW 1530   0.079   1.240   4.377
  505SOL    HW1 1531   0.078   1.193   4.465
  505SOL    HW2 1532   0.161   1.212   4.326
  506SOL     OW 1533   0.428   0.424   4.244
  506SOL    HW1 1534   0.458   0.352   4.182
  506SOL    HW2 1535   0.389   0.384   4.327
  507SOL     OW 1536   0.812   1.586   4.411
  507SOL    HW1 1537   0.844   1.596   4.317
  507SOL    HW2 1538   0.733   1.524   4.413
  508SOL     OW 1539   0.770   1.330   4.025
  508SOL    HW1 1540   0.724   1.243   4.042
  508SOL    HW2 1541   0.861   1.327   4.066
  509SOL     OW 1542   1.352   0.052   3.892
  509SOL    HW1 1543   1.387   0.011   3.808
  509SOL    HW2 1544   1.262   0.014   3.912
  510SOL     OW 1545   1.300   0.453   4.415
  510SOL    HW1 1546   1.241   0.533   4.419
  510SOL    HW2 1547   1.315   0.418   4.508
  511SOL     OW 1548   0.039   1.077   4.024
  511SOL    HW1 1549   0.138   1.066   4.015
  511SOL    HW2 1550  -0.001   0.991   4.056
  512SOL     OW 1551   0.875   1.646   4.061
  512SOL    HW1 1552   0.798   1.611   4.007
  512SOL    HW2 1553   0.843   1.717   4.123
  513SOL     OW 1554   0.230   2.490   0.113
  513SOL    HW1 1555   0.137   2.488   0.150
  513SOL    HW2 1556   0.231   2.451   0.021
  514SOL     OW 1557   0.225   2.137   0.996
  514SOL    HW1 1558   0.260   2.120   1.088
  514SOL    HW2 1559   0.137   2.092   0.984
  515SOL     OW 1560   0.019   2.230   0.647
  515SOL    HW1 1561  -0.063   2.273   0.686
  515SOL    HW2 1562  -0.009   2.157   0.584
  516SOL     OW 1563   0.569   3.137   1.165
  516SOL    HW1 1564   0.476   3.130   1.128
  516SOL    HW2 1565   0.580   3.226   1.209
  517SOL     OW 1566   1.555   3.373   0.703
  517SOL    HW1 1567   1.498   3.357   0.784
  517SOL    HW2 1568   1.496   3.383   0.623
  518SOL     OW 1569   1.135   2.565   0.717
  518SOL    HW1 1570   1.192   2.643   0.692
  518SOL    HW2 1571   1.075   2.591   0.793
  519SOL     OW 1572   1.755   2.469   0.231
  519SOL    HW1 1573   1.743   2.456   0.132
  519SOL    HW2 1574   1.725   2.388   0.280
  520SOL     OW 1575   0.768   3.006   1.023
  520SOL    HW1 1576   0.690   3.023   1.083
  520SOL    HW2 1577   0.802   3.093   0.987
  521SOL     OW 1578   0.850   2.660   1.823
  521SOL    HW1 1579   0.846   2.736   1.888
  521SOL    HW2 1580   0.872   2.696   1.732
  522SOL     OW 1581   0.685   2.874   0.665
  522SOL    HW1 1582   0.754   2.858   0.735
  522SOL    HW2 1583   0.612   2.931   0.703
  523SOL     OW 1584   0.686   3.023   1.803
  523SOL    HW1 1585   0.746   3.102   1.817
  523SOL    HW2 1586   0.600   3.054   1.762
  524SOL     OW 1587   0.335   3.297   1.061
  524SOL    HW1 1588   0.257   3.266   1.008
  524SOL    HW2 1589   0.393   3.355   1.004
  525SOL     OW 1590   1.460   3.367   1.339
  525SOL    HW1 1591   1.484   3.461   1.365
  525SOL    HW2 1592   1.444   3.313   1.421
  526SOL     OW 1593   0.438   2.254   1.499
  526SOL    HW1 1594   0.520   2.198   1.508
  526SOL    HW2 1595   0.357   2.196   1.503
  527SOL     OW 1596   1.603   2.309   0.737
  527SOL    HW1 1597   1.529   2.355   0.687
  527SOL    HW2 1598   1.654   2.377   0.790
  528SOL     OW 1599   0.231   3.575   0.483
  528SOL    HW1 1600   0.265   3.652   0.537
  528SOL    HW2 1601   0.275   3.575   0.393
  529SOL     OW 1602   1.127   3.203   1.690
  529SOL    HW1 1603   1.174   3.203   1.778
  529SOL    HW2 1604   1.079   3.116   1.679
  530SOL     OW 1605   0.230   3.296   0.538
  530SOL    HW1 1606   0.204   3.392   0.538
  530SOL    HW2 1607   0.159   3.242   0.583
  531SOL     OW 1608   0.240   2.953   0.886
  531SOL    HW1 1609   0.254   2.869   0.938
  531SOL    HW2 1610   0.185   3.017   0.941
  532SOL     OW 1611   0.620   3.648   1.439
  532SOL    HW1 1612   0.528   3.631   1.474
  532SOL    HW2 1613   0.648   3.740   1.465
  533SOL     OW 1614   0.606   2.826   0.123
  533SOL    HW1 1615   0.613   2.910   0.069
  533SOL    HW2 1616   0.652   2.839   0.211
  534SOL     OW 1617   1.594   1.976   1.480
  534SOL    HW1 1618   1.576   2.043   1.408
  534SOL    HW2 1619   1.591   2.022   1.569
  535SOL     OW 1620   0.122   2.505   0.563
  535SOL    HW1 1621   0.077   2.417   0.580
  535SOL    HW2 1622   0.121   2.559   0.647
  536SOL     OW 1623   1.842   3.629   0.359
  536SOL    HW1 1624   1.896   3.600   0.439
  536SOL    HW2 1625   1.872   3.719   0.330
  537SOL     OW 1626   0.027   3.458   0.117
  537SOL    HW1 1627   0.008   3.362   0.138
  537SOL    HW2 1628  -0.006   3.516   0.192
  538SOL     OW 1629   1.689   2.784   0.612
  538SOL    HW1 1630   1.784   2.755   0.620
  538SOL    HW2 1631   1.681   2.849   0.537
  539SOL     OW 1632   1.641   2.970   0.432
  539SOL    HW1 1633   1.727   2.972   0.380
  539SOL    HW2 1634   1.655   3.017   0.520
  540SOL     OW 1635   0.113   2.599   1.597
  540SOL    HW1 1636   0.201   2.586   1.642
  540SOL    HW2 1637   0.100   2.696   1.575
  541SOL     OW 1638   0.613   3.227   0.726
  541SOL    HW1 1639   0.564   3.140   0.735
  541SOL    HW2 1640   0.590   3.270   0.639
  542SOL     OW 1641   1.293   3.090   1.423
  542SOL    HW1 1642   1.330   3.017   1.365
  542SOL    HW2 1643   1.345   3.095   1.508
  543SOL     OW 1644   0.809   1.866   0.502
  543SOL    HW1 1645   0.849   1.957   0.493
  543SOL    HW2 1646   0.709   1.874   0.508
  544SOL     OW 1647   0.197   2.838   1.264
  544SOL    HW1 1648   0.286   2.793   1.250
  544SOL    HW2 1649   0.124   2.773   1.245
  545SOL     OW 1650   1.525   2.861   0.190
  545SOL    HW1 1651   1.462   2.785   0.203
  545SOL    HW2 1652   1.573   2.879   0.276
  546SOL     OW 1653   1.187   3.654   1.616
  546SOL    HW1 1654   1.211   3.714   1.540
  546SOL    HW2 1655   1.194   3.559   1.586
  547SOL     OW 1656   0.317   2.113   1.801
  547SOL    HW1 1657   0.388   2.184   1.807
  547SOL    HW2 1658   0.229   2.152   1.829
  548SOL     OW 1659   1.466   3.279   0.953
  548SOL    HW1 1660   1.407   3.285   1.033
  548SOL    HW2 1661   1.451   3.191   0.907
  549SOL     OW 1662   1.667   3.576   0.572
  549SOL    HW1 1663   1.626   3.553   0.484
  549SOL    HW2 1664   1.649   3.502   0.637
  550SOL     OW 1665   0.598   2.591   0.270
  550SOL    HW1 1666   0.622   2.660   0.202
  550SOL    HW2 1667   0.520   2.624   0.324
  551SOL     OW 1668   1.281   2.207   0.944
  551SOL    HW1 1669   1.195   2.157   0.931
  551SOL    HW2 1670   1.343   2.153   1.000
  552SOL     OW 1671   1.576   3.524   0.307
  552SOL    HW1 1672   1.665   3.570   0.310
  552SOL    HW2 1673   1.555   3.500   0.212
  553SOL     OW 1674   0.807   2.467   1.465
  553SOL    HW1 1675   0.760   2.464   1.554
  553SOL    HW2 1676   0.756   2.412   1.399
  554SOL     OW 1677   1.394   2.331   1.674
  554SOL    HW1 1678   1.374   2.374   1.762
  554SOL    HW2 1679   1.472   2.269   1.683
  555SOL     OW 1680   0.973   2.752   1.572
  555SOL    HW1 1681   1.019   2.668   1.543
  555SOL    HW2 1682   0.917   2.786   1.497
  556SOL     OW 1683   0.991   2.272   1.242
  556SOL    HW1 1684   0.914   2.306   1.296
  556SOL    HW2 1685   0.957   2.221   1.163
  557SOL     OW 1686   1.041   2.563   0.429
  557SOL    HW1 1687   1.067   2.559   0.525
  557SOL    HW2 1688   0.956   2.512   0.415
  558SOL     OW 1689   0.076   2.673   0.789
  558SOL    HW1 1690   0.175   2.661   0.798
  558SOL    HW2 1691   0.052   2.768   0.810
  559SOL     OW 1692   0.130   3.683   1.571
  559SOL    HW1 1693   0.120   3.668   1.670
  559SOL    HW2 1694   0.044   3.719   1.535
  560SOL     OW 1695   0.865   2.210   0.195
  560SOL    HW1 1696   0.924   2.273   0.146
  560SOL    HW2 1697   0.884   2.116   0.166
  561SOL     OW 1698   1.719   2.447   1.831
  561SOL    HW1 1699   1.693   2.536   1.795
  561SOL    HW2 1700   1.717   2.379   1.758
  562SOL     OW 1701   1.362   3.006   0.545
  562SOL    HW1 1702   1.445   2.977   0.497
  562SOL    HW2 1703   1.313   3.073   0.489
  563SOL     OW 1704   0.550   2.058   0.885
  563SOL    HW1 1705   0.545   2.053   0.985
  563SOL    HW2 1706   0.552   2.154   0.856
  564SOL     OW 1707   1.008   3.318   0.477
  564SOL    HW1 1708   0.962   3.390   0.425
  564SOL    HW2 1709   1.004   3.338   0.575
  565SOL     OW 1710   0.351   3.663   0.853
  565SOL    HW1 1711   0.401   3.577   0.859
  565SOL    HW2 1712   0.416   3.740   0.850
  566SOL     OW 1713   1.795   2.928   0.873
  566SOL    HW1 1714   1.733   2.913   0.797
  566SOL    HW2 1715   1.743   2.939   0.958
  567SOL     OW 1716   1.227   3.412   1.506
  567SOL    HW1 1717   1.233   3.335   1.570
  567SOL    HW2 1718   1.175   3.386   1.426
  568SOL     OW 1719   0.321   2.805   0.242
  568SOL    HW1 1720   0.403   2.844   0.200
  568SOL    HW2 1721   0.294   2.723   0.193
  569SOL     OW 1722   1.458   2.597   0.728
  569SOL    HW1 1723   1.453   2.532   0.803
  569SOL    HW2 1724   1.538   2.656   0.741
  570SOL     OW 1725   0.461   3.128   1.727
  570SOL    HW1 1726   0.411   3.129   1.641
  570SOL    HW2 1727   0.398   3.110   1.803
  571SOL     OW 1728   1.111   3.638   0.237
  571SOL    HW1 1729   1.051   3.576   0.287
  571SOL    HW2 1730   1.142   3.594   0.152
  572SOL     OW 1731   0.202   2.147   1.498
  572SOL    HW1 1732   0.122   2.207   1.485
  572SOL    HW2 1733   0.192   2.098   1.584
  573SOL     OW 1734   1.632   3.239   0.081
  573SOL    HW1 1735   1.600   3.333   0.071
  573SOL    HW2 1736   1.556   3.176   0.069
  574SOL     OW 1737   0.464   3.605   0.323
  574SOL    HW1 1738   0.497   3.644   0.409
  574SOL    HW2 1739   0.540   3.598   0.258
  575SOL     OW 1740   1.400   1.969   0.426
  575SOL    HW1 1741   1.376   1.932   0.336
  575SOL    HW2 1742   1.499   1.985   0.430
  576SOL     OW 1743   0.249   3.647   1.241
  576SOL    HW1 1744   0.306   3.582   1.291
  576SOL    HW2 1745   0.233   3.614   1.148
  577SOL     OW 1746   0.940   3.560   0.904
  577SOL    HW1 1747   1.020   3.503   0.925
  577SOL    HW2 1748   0.891   3.520   0.827
  578SOL     OW 1749   0.382   2.562   0.480
  578SOL    HW1 1750   0.427   2.472   0.477
  578SOL    HW2 1751   0.288   2.551   0.513
  579SOL     OW 1752   1.547   2.084   1.729
  579SOL    HW1 1753   1.542   2.121   1.821
  579SOL    HW2 1754   1.475   2.015   1.717
  580SOL     OW 1755   0.781   2.126   1.749
  580SOL    HW1 1756   0.848   2.065   1.792
  580SOL    HW2 1757   0.708   2.145   1.814
  581SOL     OW 1758   0.888   3.376   1.195
  581SOL    HW1 1759   0.865   3.351   1.101
  581SOL    HW2 1760   0.949   3.307   1.234
  582SOL     OW 1761   1.351   2.452   1.433
  582SOL    HW1 1762   1.379   2.409   1.518
  582SOL    HW2 1763   1.376   2.548   1.434
  583SOL     OW 1764   0.803   3.264   0.924
  583SOL    HW1 1765   0.893   3.278   0.882
  583SOL    HW2 1766   0.732   3.266   0.853
  584SOL     OW 1767   0.922   2.365   0.899
  584SOL    HW1 1768   0.897   2.356   0.803
  584SOL    HW2 1769   0.970   2.283   0.930
  585SOL     OW 1770   0.539   1.926   0.512
  585SOL    HW1 1771   0.458   1.927   0.570
  585SOL    HW2 1772   0.542   2.009   0.457
  586SOL     OW 1773   1.434   3.050   0.041
  586SOL    HW1 1774   1.466   2.974   0.098
  586SOL    HW2 1775   1.342   3.077   0.071
  587SOL     OW 1776   0.935   2.098   0.480
  587SOL    HW1 1777   0.887   2.139   0.402
  587SOL    HW2 1778   1.034   2.096   0.461
  588SOL     OW 1779   1.076   2.545   1.464
  588SOL    HW1 1780   0.996   2.484   1.467
  588SOL    HW2 1781   1.157   2.492   1.440
  589SOL     OW 1782   1.227   3.432   0.793
  589SOL    HW1 1783   1.248   3.506   0.728
  589SOL    HW2 1784   1.295   3.432   0.866
  590SOL     OW 1785   0.459   3.014   0.741
  590SOL    HW1 1786   0.388   2.987   0.806
  590SOL    HW2 1787   0.433   2.986   0.648
  591SOL     OW 1788   1.271   3.659   0.591
  591SOL    HW1 1789   1.315   3.723   0.527
  591SOL    HW2 1790   1.221   3.711   0.661
  592SOL     OW 1791   1.032   2.411   0.016
  592SOL    HW1 1792   0.991   2.493  -0.023
  592SOL    HW2 1793   1.096   2.437   0.089
  593SOL     OW 1794   0.078   2.418   1.386
  593SOL    HW1 1795   0.170   2.417   1.345
  593SOL    HW2 1796   0.072   2.492   1.453
  594SOL     OW 1797   0.561   2.084   1.147
  594SOL    HW1 1798   0.599   2.000   1.184
  594SOL    HW2 1799   0.473   2.103   1.191
  595SOL     OW 1800   0.866   2.316   0.642
  595SOL    HW1 1801   0.834   2.388   0.580
  595SOL    HW2 1802   0.890   2.235   0.589
  596SOL     OW 1803   1.017   1.901   0.753
  596SOL    HW1 1804   0.945   1.906   0.684
  596SOL    HW2 1805   0.993   1.832   0.822
  597SOL     OW 1806   1.429   3.035   0.867
  597SOL    HW1 1807   1.374   2.951   0.860
  597SOL    HW2 1808   1.455   3.064   0.775
  598SOL     OW 1809   1.466   2.452   0.992
  598SOL    HW1 1810   1.436   2.357   0.999
  598SOL    HW2 1811   1.539   2.468   1.058
  599SOL     OW 1812   1.857   2.695   0.377
  599SOL    HW1 1813   1.899   2.631   0.441
  599SOL    HW2 1814   1.819   2.644   0.299
  600SOL     OW 1815   0.488   3.247   0.174
  600SOL    HW1 1816   0.401   3.232   0.221
  600SOL    HW2 1817   0.471   3.273   0.079
  601SOL     OW 1818   1.664   3.142   0.657
  601SOL    HW1 1819   1.763   3.150   0.671
  601SOL    HW2 1820   1.619   3.226   0.688
  602SOL     OW 1821   1.390   2.437   0.078
  602SOL    HW1 1822   1.336   2.416   0.159
  602SOL    HW2 1823   1.481   2.396   0.087
  603SOL     OW 1824   0.527   2.118   0.328
  603SOL    HW1 1825   0.554   2.059   0.253
  603SOL    HW2 1826   0.527   2.213   0.297
  604SOL     OW 1827   1.754   3.085   1.588
  604SOL    HW1 1828   1.845   3.046   1.575
  604SOL    HW2 1829   1.762   3.181   1.612
  605SOL     OW 1830   1.064   3.209   1.340
  605SOL    HW1 1831   0.984   3.186   1.395
  605SOL    HW2 1832   1.147   3.183   1.389
  606SOL     OW 1833   1.592   3.491   1.625
  606SOL    HW1 1834   1.619   3.525   1.535
  606SOL    HW2 1835   1.671   3.453   1.671
  607SOL     OW 1836   1.111   3.057   1.100
  607SOL    HW1 1837   1.071   3.101   1.181
  607SOL    HW2 1838   1.070   3.094   1.017
  608SOL     OW 1839   1.638   2.961   1.079
  608SOL    HW1 1840   1.643   3.042   1.138
  608SOL    HW2 1841   1.552   2.963   1.028
  609SOL     OW 1842   0.915   1.951   1.402
  609SOL    HW1 1843   0.940   1.931   1.307
  609SOL    HW2 1844   0.987   2.007   1.444
  610SOL     OW 1845   0.980   2.978   1.719
  610SOL    HW1 1846   0.881   2.984   1.729
  610SOL    HW2 1847   1.003   2.898   1.663
  611SOL     OW 1848   0.705   2.912   0.368
  611SOL    HW1 1849   0.691   2.919   0.467
  611SOL    HW2 1850   0.789   2.861   0.350
  612SOL     OW 1851   0.410   2.675   1.251
  612SOL    HW1 1852   0.496   2.687   1.301
  612SOL    HW2 1853   0.368   2.588   1.278
  613SOL     OW 1854   1.274   2.248   1.262
  613SOL    HW1 1855   1.295   2.322   1.326
  613SOL    HW2 1856   1.185   2.265   1.219
  614SOL     OW 1857   0.064   3.426   1.331
  614SOL    HW1 1858   0.018   3.508   1.297
  614SOL    HW2 1859   0.162   3.445   1.340
  615SOL     OW 1860   0.367   2.962   0.501
  615SOL    HW1 1861   0.360   3.045   0.445
  615SOL    HW2 1862   0.371   2.882   0.441
  616SOL     OW 1863   0.566   2.399   0.865
  616SOL    HW1 1864   0.578   2.465   0.791
  616SOL    HW2 1865   0.612   2.433   0.948
  617SOL     OW 1866   1.252   3.210   0.388
  617SOL    HW1 1867   1.302   3.287   0.428
  617SOL    HW2 1868   1.157   3.212   0.420
  618SOL     OW 1869   1.272   3.307   1.142
  618SOL    HW1 1870   1.319   3.320   1.229
  618SOL    HW2 1871   1.206   3.233   1.151
  619SOL     OW 1872   1.582   2.501   0.472
  619SOL    HW1 1873   1.551   2.562   0.545
  619SOL    HW2 1874   1.632   2.553   0.403
  620SOL     OW 1875   0.354   3.372   1.329
  620SOL    HW1 1876   0.333   3.328   1.242
  620SOL    HW2 1877   0.451   3.398   1.332
  621SOL     OW 1878   0.402   2.613   1.598
  621SOL    HW1 1879   0.470   2.668   1.551
  621SOL    HW2 1880   0.442   2.525   1.625
  622SOL     OW 1881   1.587   2.641   1.670
  622SOL    HW1 1882   1.495   2.679   1.665
  622SOL    HW2 1883   1.647   2.688   1.605
  623SOL     OW 1884   1.013   1.967   1.770
  623SOL    HW1 1885   1.019   2.052   1.718
  623SOL    HW2 1886   1.045   1.891   1.713
  624SOL     OW 1887   0.504   1.912   1.740
  624SOL    HW1 1888   0.462   1.855   1.670
  624SOL    HW2 1889   0.438   1.981   1.772
  625SOL     OW 1890   0.573   2.732   1.029
  625SOL    HW1 1891   0.617   2.821   1.020
  625SOL    HW2 1892   0.510   2.732   1.106
  626SOL     OW 1893   1.360   2.724   1.045
  626SOL    HW1 1894   1.285   2.724   0.979
  626SOL    HW2 1895   1.397   2.632   1.054
  627SOL     OW 1896   1.209   2.387   0.275
  627SOL    HW1 1897   1.222   2.303   0.329
  627SOL    HW2 1898   1.180   2.461   0.335
  628SOL     OW 1899   0.307   2.075   1.231
  628SOL    HW1 1900   0.284   2.112   1.321
  628SOL    HW2 1901   0.277   1.980   1.225
  629SOL     OW 1902   0.037   3.172   1.282
  629SOL    HW1 1903   0.090   3.123   1.350
  629SOL    HW2 1904   0.059   3.270   1.287
  630SOL     OW 1905   0.732   2.496   1.064
  630SOL    HW1 1906   0.791   2.470   0.988
  630SOL    HW2 1907   0.704   2.592   1.053
  631SOL     OW 1908   1.728   2.797   1.854
  631SOL    HW1 1909   1.682   2.790   1.765
  631SOL    HW2 1910   1.666   2.841   1.920
  632SOL     OW 1911   0.307   1.925   0.618
  632SOL    HW1 1912   0.296   2.019   0.651
  632SOL    HW2 1913   0.302   1.862   0.695
  633SOL     OW 1914   1.622   2.229   0.374
  633SOL    HW1 1915   1.624   2.153   0.438
  633SOL    HW2 1916   1.574   2.306   0.414
  634SOL     OW 1917   1.023   2.628   0.966
  634SOL    HW1 1918   1.038   2.649   1.062
  634SOL    HW2 1919   0.993   2.533   0.957
  635SOL     OW 1920   0.980   3.435   1.700
  635SOL    HW1 1921   0.960   3.479   1.612
  635SOL    HW2 1922   1.019   3.344   1.684
  636SOL     OW 1923   1.859   3.380   1.605
  636SOL    HW1 1924   1.873   3.407   1.510
  636SOL    HW2 1925   1.942   3.402   1.658
  637SOL     OW 1926   0.350   2.760   1.804
  637SOL    HW1 1927   0.426   2.804   1.852
  637SOL    HW2 1928   0.385   2.713   1.722
  638SOL     OW 1929   1.540   2.136   0.125
  638SOL    HW1 1930   1.479   2.061   0.148
  638SOL    HW2 1931   1.562   2.188   0.208
  639SOL     OW 1932   1.303   2.700   0.042
  639SOL    HW1 1933   1.337   2.607   0.057
  639SOL    HW2 1934   1.321   2.727  -0.053
  640SOL     OW 1935   1.068   3.195   0.849
  640SOL    HW1 1936   1.075   3.111   0.794
  640SOL    HW2 1937   1.130   3.264   0.813
  641SOL     OW 1938   0.319   2.672   0.949
  641SOL    HW1 1939   0.412   2.708   0.954
  641SOL    HW2 1940   0.313   2.587   1.001
  642SOL     OW 1941   0.339   2.371   1.006
  642SOL    HW1 1942   0.287   2.288   0.989
  642SOL    HW2 1943   0.416   2.376   0.942
  643SOL     OW 1944   1.138   2.242   1.678
  643SOL    HW1 1945   1.093   2.305   1.742
  643SOL    HW2 1946   1.231   2.273   1.661
  644SOL     OW 1947   1.160   2.069   1.477
  644SOL    HW1 1948   1.160   2.133   1.554
  644SOL    HW2 1949   1.188   2.117   1.394
  645SOL     OW 1950   0.008   3.188   0.200
  645SOL    HW1 1951  -0.085   3.209   0.169
  645SOL    HW2 1952   0.018   3.089   0.213
  646SOL     OW 1953   0.088   3.663   0.927
  646SOL    HW1 1954   0.046   3.577   0.900
  646SOL    HW2 1955   0.182   3.666   0.893
  647SOL     OW 1956   0.504   3.430   0.910
  647SOL    HW1 1957   0.570   3.504   0.919
  647SOL    HW2 1958   0.548   3.351   0.868
  648SOL     OW 1959   1.002   2.658   1.238
  648SOL    HW1 1960   1.043   2.626   1.324
  648SOL    HW2 1961   0.906   2.631   1.235
  649SOL     OW 1962   0.040   2.406   1.114
  649SOL    HW1 1963   0.125   2.373   1.073
  649SOL    HW2 1964   0.053   2.421   1.212
  650SOL     OW 1965   0.189   2.382   1.722
  650SOL    HW1 1966   0.248   2.342   1.652
  650SOL    HW2 1967   0.131   2.453   1.681
  651SOL     OW 1968   1.369   2.812   1.660
  651SOL    HW1 1969   1.408   2.901   1.680
  651SOL    HW2 1970   1.379   2.792   1.563
  652SOL     OW 1971   0.815   2.434   0.325
  652SOL    HW1 1972   0.822   2.345   0.279
  652SOL    HW2 1973   0.721   2.468   0.317
  653SOL     OW 1974   1.657   2.466   1.206
  653SOL    HW1 1975   1.619   2.397   1.268
  653SOL    HW2 1976   1.739   2.430   1.162
  654SOL     OW 1977   0.252   3.426   1.744
  654SOL    HW1 1978   0.222   3.483   1.820
  654SOL    HW2 1979   0.245   3.329   1.770
  655SOL     OW 1980   0.671   2.326   1.269
  655SOL    HW1 1981   0.637   2.237   1.239
  655SOL    HW2 1982   0.697   2.380   1.189
  656SOL     OW 1983   0.930   3.540   1.465
  656SOL    HW1 1984   0.906   3.522   1.370
  656SOL    HW2 1985   0.960   3.634   1.475
  657SOL     OW 1986   0.473   2.362   0.191
  657SOL    HW1 1987   0.534   2.442   0.195
  657SOL    HW2 1988   0.378   2.393   0.198
  658SOL     OW 1989   0.159   2.999   1.466
  658SOL    HW1 1990   0.181   2.938   1.542
  658SOL    HW2 1991   0.169   2.950   1.380
  659SOL     OW 1992   1.347   2.921   1.234
  659SOL    HW1 1993   1.371   2.858   1.160
  659SOL    HW2 1994   1.257   2.961   1.216
  660SOL     OW 1995   1.302   2.717   0.309
  660SOL    HW1 1996   1.216   2.686   0.351
  660SOL    HW2 1997   1.298   2.703   0.210
  661SOL     OW 1998   1.759   3.609   1.154
  661SOL    HW1 1999   1.820   3.639   1.081
  661SOL    HW2 2000   1.721   3.520   1.132
  662SOL     OW 2001   1.252   3.593   1.128
  662SOL    HW1 2002   1.336   3.598   1.074
  662SOL    HW2 2003   1.229   3.497   1.146
  663SOL     OW 2004   0.083   3.120   1.022
  663SOL    HW1 2005   0.078   3.119   1.122
  663SOL    HW2 2006   0.000   3.079   0.984
  664SOL     OW 2007   0.688   3.524   1.716
  664SOL    HW1 2008   0.632   3.605   1.725
  664SOL    HW2 2009   0.740   3.528   1.630
  665SOL     OW 2010   0.903   1.948   0.133
  665SOL    HW1 2011   0.954   1.949   0.047
  665SOL    HW2 2012   0.959   1.906   0.204
  666SOL     OW 2013   1.726   1.997   0.523
  666SOL    HW1 2014   1.799   1.980   0.456
  666SOL    HW2 2015   1.695   1.910   0.561
  667SOL     OW 2016   1.388   3.435   0.477
  667SOL    HW1 2017   1.455   3.447   0.403
  667SOL    HW2 2018   1.348   3.524   0.500
  668SOL     OW 2019   0.130   3.656   1.851
  668SOL    HW1 2020   0.089   3.582   1.904
  668SOL    HW2 2021   0.194   3.707   1.909
  669SOL     OW 2022   1.280   2.789   0.672
  669SOL    HW1 2023   1.340   2.708   0.674
  669SOL    HW2 2024   1.320   2.858   0.612
  670SOL     OW 2025   0.830   3.135   1.422
  670SOL    HW1 2026   0.825   3.168   1.517
  670SOL    HW2 2027   0.744   3.154   1.376
  671SOL     OW 2028   0.672   3.478   0.154
  671SOL    HW1 2029   0.681   3.488   0.055
  671SOL    HW2 2030   0.632   3.389   0.175
  672SOL     OW 2031   1.650   3.582   1.394
  672SOL    HW1 2032   1.703   3.592   1.310
  672SOL    HW2 2033   1.623   3.672   1.428
  673SOL     OW 2034   1.841   2.037   0.963
  673SOL    HW1 2035   1.880   1.952   0.927
  673SOL    HW2 2036   1.743   2.039   0.944
  674SOL     OW 2037   0.263   2.188   0.720
  674SOL    HW1 2038   0.184   2.239   0.686
  674SOL    HW2 2039   0.254   2.173   0.818
  675SOL     OW 2040   1.194   3.474   0.031
  675SOL    HW1 2041   1.200   3.381   0.068
  675SOL    HW2 2042   1.135   3.474  -0.049
  676SOL     OW 2043   0.822   2.864   1.372
  676SOL    HW1 2044   0.862   2.863   1.280
  676SOL    HW2 2045   0.832   2.956   1.412
  677SOL     OW 2046   0.916   2.772   0.291
  677SOL    HW1 2047   0.979   2.810   0.223
  677SOL    HW2 2048   0.956   2.689   0.330
  678SOL     OW 2049   1.504   3.469   0.044
  678SOL    HW1 2050   1.412   3.506   0.051
  678SOL    HW2 2051   1.542   3.489  -0.046
  679SOL     OW 2052   0.372   3.150   1.490
  679SOL    HW1 2053   0.359   3.243   1.456
  679SOL    HW2 2054   0.288   3.098   1.477
  680SOL     OW 2055   1.614   3.154   1.289
  680SOL    HW1 2056   1.674   3.157   1.369
  680SOL    HW2 2057   1.539   3.218   1.302
  681SOL     OW 2058   1.039   2.960   0.696
  681SOL    HW1 2059   0.969   2.913   0.750
  681SOL    HW2 2060   1.098   2.892   0.653
  682SOL     OW 2061   1.014   2.098   0.971
  682SOL    HW1 2062   1.006   2.062   0.878
  682SOL    HW2 2063   1.012   2.022   1.036
  683SOL     OW 2064   0.590   3.349   0.491
  683SOL    HW1 2065   0.632   3.291   0.421
  683SOL    HW2 2066   0.546   3.428   0.447
  684SOL     OW 2067   1.709   2.247   1.381
  684SOL    HW1 2068   1.782   2.316   1.385
  684SOL    HW2 2069   1.737   2.172   1.322
  685SOL     OW 2070   0.255   3.210   0.290
  685SOL    HW1 2071   0.159   3.211   0.263
  685SOL    HW2 2072   0.267   3.263   0.374
  686SOL     OW 2073   0.105   2.875   1.726
  686SOL    HW1 2074   0.028   2.842   1.780
  686SOL    HW2 2075   0.190   2.845   1.768
  687SOL     OW 2076   0.672   2.065   1.489
  687SOL    HW1 2077   0.762   2.049   1.449
  687SOL    HW2 2078   0.680   2.070   1.588
  688SOL     OW 2079   0.075   2.207   0.033
  688SOL    HW1 2080  -0.017   2.179   0.004
  688SOL    HW2 2081   0.106   2.284  -0.023
  689SOL     OW 2082   1.440   2.718   1.398
  689SOL    HW1 2083   1.383   2.770   1.335
  689SOL    HW2 2084   1.536   2.730   1.374
  690SOL     OW 2085   0.072   2.028   0.318
  690SOL    HW1 2086   0.055   2.111   0.264
  690SOL    HW2 2087   0.162   1.991   0.296
  691SOL     OW 2088   1.183   3.197   0.119
  691SOL    HW1 2089   1.084   3.186   0.121
  691SOL    HW2 2090   1.217   3.212   0.212
  692SOL     OW 2091   0.613   2.704   1.431
  692SOL    HW1 2092   0.669   2.785   1.414
  692SOL    HW2 2093   0.672   2.624   1.434
  693SOL     OW 2094   1.493   3.629   0.959
  693SOL    HW1 2095   1.526   3.693   0.890
  693SOL    HW2 2096   1.559   3.623   1.034
  694SOL     OW 2097   0.716   2.427   1.708
  694SOL    HW1 2098   0.735   2.492   1.782
  694SOL    HW2 2099   0.776   2.347   1.717
  695SOL     OW 2100   1.450   3.082   1.633
  695SOL    HW1 2101   1.441   3.072   1.732
  695SOL    HW2 2102   1.546   3.075   1.607
  696SOL     OW 2103   0.390   3.603   1.560
  696SOL    HW1 2104   0.299   3.644   1.558
  696SOL    HW2 2105   0.383   3.509   1.592
  697SOL     OW 2106   1.674   2.745   1.254
  697SOL    HW1 2107   1.647   2.656   1.217
  697SOL    HW2 2108   1.675   2.813   1.181
  698SOL     OW 2109   1.225   2.187   0.449
  698SOL    HW1 2110   1.290   2.113   0.438
  698SOL    HW2 2111   1.245   2.237   0.533
  699SOL     OW 2112   0.594   2.607   0.652
  699SOL    HW1 2113   0.644   2.692   0.633
  699SOL    HW2 2114   0.506   2.609   0.604
  700SOL     OW 2115   1.777   2.204   1.642
  700SOL    HW1 2116   1.760   2.235   1.548
  700SOL    HW2 2117   1.693   2.167   1.680
  701SOL     OW 2118   1.730   2.796   1.517
  701SOL    HW1 2119   1.768   2.887   1.532
  701SOL    HW2 2120   1.722   2.779   1.418
  702SOL     OW 2121   0.859   3.236   0.016
  702SOL    HW1 2122   0.813   3.251   0.104
  702SOL    HW2 2123   0.903   3.321  -0.014
  703SOL     OW 2124   0.661   3.652   0.953
  703SOL    HW1 2125   0.615   3.740   0.940
  703SOL    HW2 2126   0.760   3.664   0.946
  704SOL     OW 2127   0.859   2.818   0.861
  704SOL    HW1 2128   0.913   2.749   0.909
  704SOL    HW2 2129   0.827   2.887   0.927
  705SOL     OW 2130   1.083   2.846   0.087
  705SOL    HW1 2131   1.060   2.899   0.005
  705SOL    HW2 2132   1.164   2.790   0.068
  706SOL     OW 2133   1.861   3.431   0.851
  706SOL    HW1 2134   1.790   3.419   0.781
  706SOL    HW2 2135   1.862   3.352   0.911
  707SOL     OW 2136   0.221   3.176   1.844
  707SOL    HW1 2137   0.156   3.103   1.823
  707SOL    HW2 2138   0.225   3.190   1.942
  708SOL     OW 2139   0.079   3.102   0.653
  708SOL    HW1 2140   0.078   3.055   0.741
  708SOL    HW2 2141   0.161   3.074   0.602
  709SOL     OW 2142   0.672   3.253   1.624
  709SOL    HW1 2143   0.594   3.203   1.662
  709SOL    HW2 2144   0.669   3.348   1.655
  710SOL     OW 2145   1.824   2.054   1.227
  710SOL    HW1 2146   1.820   1.964   1.271
  710SOL    HW2 2147   1.827   2.043   1.128
  711SOL     OW 2148   0.428   2.286   0.520
  711SOL    HW1 2149   0.458   2.214   0.458
  711SOL    HW2 2150   0.389   2.246   0.603
  712SOL     OW 2151   1.705   3.349   1.104
  712SOL    HW1 2152   1.612   3.324   1.077
  712SOL    HW2 2153   1.731   3.299   1.186
  713SOL     OW 2154   0.317   2.409   1.280
  713SOL    HW1 2155   0.355   2.350   1.352
  713SOL    HW2 2156   0.357   2.383   1.192
  714SOL     OW 2157   0.812   3.448   0.687
  714SOL    HW1 2158   0.844   3.458   0.593
  714SOL    HW2 2159   0.733   3.386   0.689
  715SOL     OW 2160   1.424   2.076   1.112
  715SOL    HW1 2161   1.476   2.011   1.167
  715SOL    HW2 2162   1.375   2.139   1.173
  716SOL     OW 2163   1.001   1.896   1.154
  716SOL    HW1 2164   0.938   1.824   1.123
  716SOL    HW2 2165   1.094   1.860   1.154
  717SOL     OW 2166   0.770   3.192   0.301
  717SOL    HW1 2167   0.724   3.105   0.318
  717SOL    HW2 2168   0.861   3.189   0.342
  718SOL     OW 2169   0.618   3.429   1.284
  718SOL    HW1 2170   0.613   3.511   1.341
  718SOL    HW2 2171   0.707   3.426   1.239
  719SOL     OW 2172   1.352   1.914   0.168
  719SOL    HW1 2173   1.387   1.873   0.084
  719SOL    HW2 2174   1.262   1.876   0.188
  720SOL     OW 2175   1.300   2.315   0.691
  720SOL    HW1 2176   1.241   2.395   0.695
  720SOL    HW2 2177   1.315   2.280   0.784
  721SOL     OW 2178   1.593   2.083   0.882
  721SOL    HW1 2179   1.509   2.082   0.936
  721SOL    HW2 2180   1.595   2.166   0.826
  722SOL     OW 2181   0.039   2.939   0.300
  722SOL    HW1 2182   0.138   2.928   0.291
  722SOL    HW2 2183  -0.001   2.853   0.332
  723SOL     OW 2184   0.875   3.508   0.337
  723SOL    HW1 2185   0.798   3.473   0.283
  723SOL    HW2 2186   0.843   3.579   0.399
  724SOL     OW 2187   0.230   2.490   1.975
  724SOL    HW1 2188   0.137   2.488   2.012
  724SOL    HW2 2189   0.231   2.451   1.883
  725SOL     OW 2190   0.225   2.137   2.858
  725SOL    HW1 2191   0.260   2.120   2.950
  725SOL    HW2 2192   0.137   2.092   2.846
  726SOL     OW 2193   0.019   2.230   2.509
  726SOL    HW1 2194  -0.063   2.273   2.548
  726SOL    HW2 2195  -0.009   2.157   2.446
  727SOL     OW 2196   0.569   3.137   3.027
  727SOL    HW1 2197   0.476   3.130   2.990
  727SOL    HW2 2198   0.580   3.226   3.071
  728SOL     OW 2199   1.555   3.373   2.565
  728SOL    HW1 2200   1.498   3.357   2.646
  728SOL    HW2 2201   1.496   3.383   2.485
  729SOL     OW 2202   1.135   2.565   2.579
  729SOL    HW1 2203   1.192   2.643   2.554
  729SOL    HW2 2204   1.075   2.591   2.655
  730SOL     OW 2205   1.755   2.469   2.093
  730SOL    HW1 2206   1.743   2.456   1.994
  730SOL    HW2 2207   1.725   2.388   2.142
  731SOL     OW 2208   0.768   3.006   2.885
  731SOL    HW1 2209   0.690   3.023   2.945
  731SOL    HW2 2210   0.802   3.093   2.849
  732SOL     OW 2211   0.850   2.660   3.685
  732SOL    HW1 2212   0.846   2.736   3.750
  732SOL    HW2 2213   0.872   2.696   3.594
  733SOL     OW 2214   0.685   2.874   2.527
  733SOL    HW1 2215   0.754   2.858   2.597
  733SOL    HW2 2216   0.612   2.931   2.565
  734SOL     OW 2217   0.686   3.023   3.665
  734SOL    HW1 2218   0.746   3.102   3.679
  734SOL    HW2 2219   0.600   3.054   3.624
  735SOL     OW 2220   0.335   3.297   2.923
  735SOL    HW1 2221   0.257   3.266   2.870
  735SOL    HW2 2222   0.393   3.355   2.866
  736SOL     OW 2223   1.460   3.367   3.201
  736SOL    HW1 2224   1.484   3.461   3.227
  736SOL    HW2 2225   1.444   3.313   3.283
  737SOL     OW 2226   0.438   2.254   3.361
  737SOL    HW1 2227   0.520   2.198   3.370
  737SOL    HW2 2228   0.357   2.196   3.365
  738SOL     OW 2229   1.603   2.309   2.599
  738SOL    HW1 2230   1.529   2.355   2.549
  738SOL    HW2 2231   1.654   2.377   2.652
  739SOL     OW 2232   0.231   3.575   2.345
  739SOL    HW1 2233   0.265   3.652   2.399
  739SOL    HW2 2234   0.275   3.575   2.255
  740SOL     OW 2235   1.127   3.203   3.552
  740SOL    HW1 2236   1.174   3.203   3.640
  740SOL    HW2 2237   1.079   3.116   3.541
  741SOL     OW 2238   0.230   3.296   2.400
  741SOL    HW1 2239   0.204   3.392   2.400
  741SOL    HW2 2240   0.159   3.242   2.445
  742SOL     OW 2241   0.240   2.953   2.748
  742SOL    HW1 2242   0.254   2.869   2.800
  742SOL    HW2 2243   0.185   3.017   2.803
  743SOL     OW 2244   0.620   3.648   3.301
  743SOL    HW1 2245   0.528   3.631   3.336
  743SOL    HW2 2246   0.648   3.740   3.327
  744SOL     OW 2247   0.606   2.826   1.985
  744SOL    HW1 2248   0.613   2.910   1.931
  744SOL    HW2 2249   0.652   2.839   2.073
  745SOL     OW 2250   1.594   1.976   3.342
  745SOL    HW1 2251   1.576   2.043   3.270
  745SOL    HW2 2252   1.591   2.022   3.431
  746SOL     OW 2253   0.122   2.505   2.425
  746SOL    HW1 2254   0.077   2.417   2.442
  746SOL    HW2 2255   0.121   2.559   2.509
  747SOL     OW 2256   1.842   3.629   2.221
  747SOL    HW1 2257   1.896   3.600   2.301
  747SOL    HW2 2258   1.872   3.719   2.192
  748SOL     OW 2259   0.027   3.458   1.979
  748SOL    HW1 2260   0.008   3.362   2.000
  748SOL    HW2 2261  -0.006   3.516   2.054
  749SOL     OW 2262   1.689   2.784   2.474
  749SOL    HW1 2263   1.784   2.755   2.482
  749SOL    HW2 2264   1.681   2.849   2.399
  750SOL     OW 2265   1.641   2.970   2.294
  750SOL    HW1 2266   1.727   2.972   2.242
  750SOL    HW2 2267   1.655   3.017   2.382
  751SOL     OW 2268   0.113   2.599   3.459
  751SOL    HW1 2269   0.201   2.586   3.504
  751SOL    HW2 2270   0.100   2.696   3.437
  752SOL     OW 2271   0.613   3.227   2.588
  752SOL    HW1 2272   0.564   3.140   2.597
  752SOL    HW2 2273   0.590   3.270   2.501
  753SOL     OW 2274   1.293   3.090   3.285
  753SOL    HW1 2275   1.330   3.017   3.227
  753SOL    HW2 2276   1.345   3.095   3.370
  754SOL     OW 2277   0.809   1.866   2.364
  754SOL    HW1 2278   0.849   1.957   2.355
  754SOL    HW2 2279   0.709   1.874   2.370
  755SOL     OW 2280   0.197   2.838   3.126
  755SOL    HW1 2281   0.286   2.793   3.112
  755SOL    HW2 2282   0.124   2.773   3.107
  756SOL     OW 2283   1.525   2.861   2.052
  756SOL    HW1 2284   1.462   2.785   2.065
  756SOL    HW2 2285   1.573   2.879   2.138
  757SOL     OW 2286   1.187   3.654   3.478
  757SOL    HW1 2287   1.211   3.714   3.402
  757SOL    HW2 2288   1.194   3.559   3.448
  758SOL     OW 2289   0.317   2.113   3.663
  758SOL    HW1 2290   0.388   2.184   3.669
  758SOL    HW2 2291   0.229   2.152   3.691
  759SOL     OW 2292   1.466   3.279   2.815
  759SOL    HW1 2293   1.407   3.285   2.895
  759SOL    HW2 2294   1.451   3.191   2.769
  760SOL     OW 2295   1.667   3.576   2.434
  760SOL    HW1 2296   1.626   3.553   2.346
  760SOL    HW2 2297   1.649   3.502   2.499
  761SOL     OW 2298   0.598   2.591   2.132
  761SOL    HW1 2299   0.622   2.660   2.064
  761SOL    HW2 2300   0.520   2.624   2.186
  762SOL     OW 2301   1.281   2.207   2.806
  762SOL    HW1 2302   1.195   2.157   2.793
  762SOL    HW2 2303   1.343   2.153   2.862
  763SOL     OW 2304   1.576   3.524   2.169
  763SOL    HW1 2305   1.665   3.570   2.172
  763SOL    HW2 2306   1.555   3.500   2.074
  764SOL     OW 2307   0.807   2.467   3.327
  764SOL    HW1 2308   0.760   2.464   3.416
  764SOL    HW2 2309   0.756   2.412   3.261
  765SOL     OW 2310   1.394   2.331   3.536
  765SOL    HW1 2311   1.374   2.374   3.624
  765SOL    HW2 2312   1.472   2.269   3.545
  766SOL     OW 2313   0.973   2.752   3.434
  766SOL    HW1 2314   1.019   2.668   3.405
  766SOL    HW2 2315   0.917   2.786   3.359
  767SOL     OW 2316   0.991   2.272   3.104
  767SOL    HW1 2317   0.914   2.306   3.158
  767SOL    HW2 2318   0.957   2.221   3.025
  768SOL     OW 2319   1.041   2.563   2.291
  768SOL    HW1 2320   1.067   2.559   2.387
  768SOL    HW2 2321   0.956   2.512   2.277
  769SOL     OW 2322   0.076   2.673   2.651
  769SOL    HW1 2323   0.175   2.661   2.660
  769SOL    HW2 2324   0.052   2.768   2.672
  770SOL     OW 2325   0.130   3.683   3.433
  770SOL    HW1 2326   0.120   3.668   3.532
  770SOL    HW2 2327   0.044   3.719   3.397
  771SOL     OW 2328   0.865   2.210   2.057
  771SOL    HW1 2329   0.924   2.273   2.008
  771SOL    HW2 2330   0.884   2.116   2.028
  772SOL     OW 2331   1.719   2.447   3.693
  772SOL    HW1 2332   1.693   2.536   3.657
  772SOL    HW2 2333   1.717   2.379   3.620
  773SOL     OW 2334   1.362   3.006   2.407
  773SOL    HW1 2335   1.445   2.977   2.359
  773SOL    HW2 2336   1.313   3.073   2.351
  774SOL     OW 2337   0.550   2.058   2.747
  774SOL    HW1 2338   0.545   2.053   2.847
  774SOL    HW2 2339   0.552   2.154   2.718
  775SOL     OW 2340   1.008   3.318   2.339
  775SOL    HW1 2341   0.962   3.390   2.287
  775SOL    HW2 2342   1.004   3.338   2.437
  776SOL     OW 2343   0.351   3.663   2.715
  776SOL    HW1 2344   0.401   3.577   2.721
  776SOL    HW2 2345   0.416   3.740   2.712
  777SOL     OW 2346   1.795   2.928   2.735
  777SOL    HW1 2347   1.733   2.913   2.659
  777SOL    HW2 2348   1.743   2.939   2.820
  778SOL     OW 2349   1.227   3.412   3.368
  778SOL    HW1 2350   1.233   3.335   3.432
  778SOL    HW2 2351   1.175   3.386   3.288
  779SOL     OW 2352   0.321   2.805   2.104
  779SOL    HW1 2353   0.403   2.844   2.062
  779SOL    HW2 2354   0.294   2.723   2.055
  780SOL     OW 2355   1.458   2.597   2.590
  780SOL    HW1 2356   1.453   2.532   2.665
  780SOL    HW2 2357   1.538   2.656   2.603
  781SOL     OW 2358   0.461   3.128   3.589
  781SOL    HW1 2359   0.411   3.129   3.503
  781SOL    HW2 2360   0.398   3.110   3.665
  782SOL     OW 2361   1.111   3.638   2.099
  782SOL    HW1 2362   1.051   3.576   2.149
  782SOL    HW2 2363   1.142   3.594   2.014
  783SOL     OW 2364   0.202   2.147   3.360
  783SOL    HW1 2365   0.122   2.207   3.347
  783SOL    HW2 2366   0.192   2.098   3.446
  784SOL     OW 2367   1.632   3.239   1.943
  784SOL    HW1 2368   1.600   3.333   1.933
  784SOL    HW2 2369   1.556   3.176   1.931
  785SOL     OW 2370   0.464   3.605   2.185
  785SOL    HW1 2371   0.497   3.644   2.271
  785SOL    HW2 2372   0.540   3.598   2.120
  786SOL     OW 2373   1.400   1.969   2.288
  786SOL    HW1 2374   1.376   1.932   2.198
  786SOL    HW2 2375   1.499   1.985   2.292
  787SOL     OW 2376   0.249   3.647   3.103
  787SOL    HW1 2377   0.306   3.582   3.153
  787SOL    HW2 2378   0.233   3.614   3.010
  788SOL     OW 2379   0.940   3.560   2.766
  788SOL    HW1 2380   1.020   3.503   2.787
  788SOL    HW2 2381   0.891   3.520   2.689
  789SOL     OW 2382   0.382   2.562   2.342
  789SOL    HW1 2383   0.427   2.472   2.339
  789SOL    HW2 2384   0.288   2.551   2.375
  790SOL     OW 2385   1.547   2.084   3.591
  790SOL    HW1 2386   1.542   2.121   3.683
  790SOL    HW2 2387   1.475   2.015   3.579
  791SOL     OW 2388   0.614   1.984   1.979
  791SOL    HW1 2389   0.712   1.962   1.986
  791SOL    HW2 2390   0.583   1.967   1.886
  792SOL     OW 2391   0.781   2.126   3.611
  792SOL    HW1 2392   0.848   2.065   3.654
  792SOL    HW2 2393   0.708   2.145   3.676
  793SOL     OW 2394   0.888   3.376   3.057
  793SOL    HW1 2395   0.865   3.351   2.963
  793SOL    HW2 2396   0.949   3.307   3.096
  794SOL     OW 2397   1.351   2.452   3.295
  794SOL    HW1 2398   1.379   2.409   3.380
  794SOL    HW2 2399   1.376   2.548   3.296
  795SOL     OW 2400   0.803   3.264   2.786
  795SOL    HW1 2401   0.893   3.278   2.744
  795SOL    HW2 2402   0.732   3.266   2.715
  796SOL     OW 2403   0.922   2.365   2.761
  796SOL    HW1 2404   0.897   2.356   2.665
  796SOL    HW2 2405   0.970   2.283   2.792
  797SOL     OW 2406   0.539   1.926   2.374
  797SOL    HW1 2407   0.458   1.927   2.432
  797SOL    HW2 2408   0.542   2.009   2.319
  798SOL     OW 2409   1.434   3.050   1.903
  798SOL    HW1 2410   1.466   2.974   1.960
  798SOL    HW2 2411   1.342   3.077   1.933
  799SOL     OW 2412   0.297   1.897   2.033
  799SOL    HW1 2413   0.346   1.981   2.012
  799SOL    HW2 2414   0.359   1.832   2.078
  800SOL     OW 2415   0.935   2.098   2.342
  800SOL    HW1 2416   0.887   2.139   2.264
  800SOL    HW2 2417   1.034   2.096   2.323
  801SOL     OW 2418   1.076   2.545   3.326
  801SOL    HW1 2419   0.996   2.484   3.329
  801SOL    HW2 2420   1.157   2.492   3.302
  802SOL     OW 2421   1.227   3.432   2.655
  802SOL    HW1 2422   1.248   3.506   2.590
  802SOL    HW2 2423   1.295   3.432   2.728
  803SOL     OW 2424   0.459   3.014   2.603
  803SOL    HW1 2425   0.388   2.987   2.668
  803SOL    HW2 2426   0.433   2.986   2.510
  804SOL     OW 2427   1.271   3.659   2.453
  804SOL    HW1 2428   1.315   3.723   2.389
  804SOL    HW2 2429   1.221   3.711   2.523
  805SOL     OW 2430   1.032   2.411   1.878
  805SOL    HW1 2431   0.991   2.493   1.839
  805SOL    HW2 2432   1.096   2.437   1.951
  806SOL     OW 2433   0.078   2.418   3.248
  806SOL    HW1 2434   0.170   2.417   3.207
  806SOL    HW2 2435   0.072   2.492   3.315
  807SOL     OW 2436   0.561   2.084   3.009
  807SOL    HW1 2437   0.599   2.000   3.046
  807SOL    HW2 2438   0.473   2.103   3.053
  808SOL     OW 2439   0.866   2.316   2.504
  808SOL    HW1 2440   0.834   2.388   2.442
  808SOL    HW2 2441   0.890   2.235   2.451
  809SOL     OW 2442   1.017   1.901   2.615
  809SOL    HW1 2443   0.945   1.906   2.546
  809SOL    HW2 2444   0.993   1.832   2.684
  810SOL     OW 2445   1.429   3.035   2.729
  810SOL    HW1 2446   1.374   2.951   2.722
  810SOL    HW2 2447   1.455   3.064   2.637
  811SOL     OW 2448   1.466   2.452   2.854
  811SOL    HW1 2449   1.436   2.357   2.861
  811SOL    HW2 2450   1.539   2.468   2.920
  812SOL     OW 2451   1.857   2.695   2.239
  812SOL    HW1 2452   1.899   2.631   2.303
  812SOL    HW2 2453   1.819   2.644   2.161
  813SOL     OW 2454   0.488   3.247   2.036
  813SOL    HW1 2455   0.401   3.232   2.083
  813SOL    HW2 2456   0.471   3.273   1.941
  814SOL     OW 2457   1.664   3.142   2.519
  814SOL    HW1 2458   1.763   3.150   2.533
  814SOL    HW2 2459   1.619   3.226   2.550
  815SOL     OW 2460   1.390   2.437   1.940
  815SOL    HW1 2461   1.336   2.416   2.021
  815SOL    HW2 2462   1.481   2.396   1.949
  816SOL     OW 2463   0.527   2.118   2.190
  816SOL    HW1 2464   0.554   2.059   2.115
  816SOL    HW2 2465   0.527   2.213   2.159
  817SOL     OW 2466   1.754   3.085   3.450
  817SOL    HW1 2467   1.845   3.046   3.437
  817SOL    HW2 2468   1.762   3.181   3.474
  818SOL     OW 2469   1.064   3.209   3.202
  818SOL    HW1 2470   0.984   3.186   3.257
  818SOL    HW2 2471   1.147   3.183   3.251
  819SOL     OW 2472   1.592   3.491   3.487
  819SOL    HW1 2473   1.619   3.525   3.397
  819SOL    HW2 2474   1.671   3.453   3.533
  820SOL     OW 2475   1.111   3.057   2.962
  820SOL    HW1 2476   1.071   3.101   3.043
  820SOL    HW2 2477   1.070   3.094   2.879
  821SOL     OW 2478   1.638   2.961   2.941
  821SOL    HW1 2479   1.643   3.042   3.000
  821SOL    HW2 2480   1.552   2.963   2.890
  822SOL     OW 2481   0.915   1.951   3.264
  822SOL    HW1 2482   0.940   1.931   3.169
  822SOL    HW2 2483   0.987   2.007   3.306
  823SOL     OW 2484   0.980   2.978   3.581
  823SOL    HW1 2485   0.881   2.984   3.591
  823SOL    HW2 2486   1.003   2.898   3.525
  824SOL     OW 2487   0.705   2.912   2.230
  824SOL    HW1 2488   0.691   2.919   2.329
  824SOL    HW2 2489   0.789   2.861   2.212
  825SOL     OW 2490   0.410   2.675   3.113
  825SOL    HW1 2491   0.496   2.687   3.163
  825SOL    HW2 2492   0.368   2.588   3.140
  826SOL     OW 2493   1.274   2.248   3.124
  826SOL    HW1 2494   1.295   2.322   3.188
  826SOL    HW2 2495   1.185   2.265   3.081
  827SOL     OW 2496   0.064   3.426   3.193
  827SOL    HW1 2497   0.018   3.508   3.159
  827SOL    HW2 2498   0.162   3.445   3.202
  828SOL     OW 2499   0.367   2.962   2.363
  828SOL    HW1 2500   0.360   3.045   2.307
  828SOL    HW2 2501   0.371   2.882   2.303
  829SOL     OW 2502   0.566   2.399   2.727
  829SOL    HW1 2503   0.578   2.465   2.653
  829SOL    HW2 2504   0.612   2.433   2.810
  830SOL     OW 2505   1.252   3.210   2.250
  830SOL    HW1 2506   1.302   3.287   2.290
  830SOL    HW2 2507   1.157   3.212   2.282
  831SOL     OW 2508   1.272   3.307   3.004
  831SOL    HW1 2509   1.319   3.320   3.091
  831SOL    HW2 2510   1.206   3.233   3.013
  832SOL     OW 2511   1.582   2.501   2.334
  832SOL    HW1 2512   1.551   2.562   2.407
  832SOL    HW2 2513   1.632   2.553   2.265
  833SOL     OW 2514   0.354   3.372   3.191
  833SOL    HW1 2515   0.333   3.328   3.104
  833SOL    HW2 2516   0.451   3.398   3.194
  834SOL     OW 2517   0.402   2.613   3.460
  834SOL    HW1 2518   0.470   2.668   3.413
  834SOL    HW2 2519   0.442   2.525   3.487
  835SOL     OW 2520   1.587   2.641   3.532
  835SOL    HW1 2521   1.495   2.679   3.527
  835SOL    HW2 2522   1.647   2.688   3.467
  836SOL     OW 2523   1.013   1.967   3.632
  836SOL    HW1 2524   1.019   2.052   3.580
  836SOL    HW2 2525   1.045   1.891   3.575
  837SOL     OW 2526   0.504   1.912   3.602
  837SOL    HW1 2527   0.462   1.855   3.532
  837SOL    HW2 2528   0.438   1.981   3.634
  838SOL     OW 2529   0.573   2.732   2.891
  838SOL    HW1 2530   0.617   2.821   2.882
  838SOL    HW2 2531   0.510   2.732   2.968
  839SOL     OW 2532   1.360   2.724   2.907
  839SOL    HW1 2533   1.285   2.724   2.841
  839SOL    HW2 2534   1.397   2.632   2.916
  840SOL     OW 2535   1.209   2.387   2.137
  840SOL    HW1 2536   1.222   2.303   2.191
  840SOL    HW2 2537   1.180   2.461   2.197
  841SOL     OW 2538   0.307   2.075   3.093
  841SOL    HW1 2539   0.284   2.112   3.183
  841SOL    HW2 2540   0.277   1.980   3.087
  842SOL     OW 2541   0.037   3.172   3.144
  842SOL    HW1 2542   0.090   3.123   3.212
  842SOL    HW2 2543   0.059   3.270   3.149
  843SOL     OW 2544   0.732   2.496   2.926
  843SOL    HW1 2545   0.791   2.470   2.850
  843SOL    HW2 2546   0.704   2.592   2.915
  844SOL     OW 2547   1.728   2.797   3.716
  844SOL    HW1 2548   1.682   2.790   3.627
  844SOL    HW2 2549   1.666   2.841   3.782
  845SOL     OW 2550   0.307   1.925   2.480
  845SOL    HW1 2551   0.296   2.019   2.513
  845SOL    HW2 2552   0.302   1.862   2.557
  846SOL     OW 2553   1.622   2.229   2.236
  846SOL    HW1 2554   1.624   2.153   2.300
  846SOL    HW2 2555   1.574   2.306   2.276
  847SOL     OW 2556   1.023   2.628   2.828
  847SOL    HW1 2557   1.038   2.649   2.924
  847SOL    HW2 2558   0.993   2.533   2.819
  848SOL     OW 2559   0.980   3.435   3.562
  848SOL    HW1 2560   0.960   3.479   3.474
  848SOL    HW2 2561   1.019   3.344   3.546
  849SOL     OW 2562   1.859   3.380   3.467
  849SOL    HW1 2563   1.873   3.407   3.372
  849SOL    HW2 2564   1.942   3.402   3.520
  850SOL     OW 2565   0.350   2.760   3.666
  850SOL    HW1 2566   0.426   2.804   3.714
  850SOL    HW2 2567   0.385   2.713   3.584
  851SOL     OW 2568   1.540   2.136   1.987
  851SOL    HW1 2569   1.479   2.061   2.010
  851SOL    HW2 2570   1.562   2.188   2.070
  852SOL     OW 2571   1.303   2.700   1.904
  852SOL    HW1 2572   1.337   2.607   1.919
  852SOL    HW2 2573   1.321   2.727   1.809
  853SOL     OW 2574   1.068   3.195   2.711
  853SOL    HW1 2575   1.075   3.111   2.656
  853SOL    HW2 2576   1.130   3.264   2.675
  854SOL     OW 2577   0.319   2.672   2.811
  854SOL    HW1 2578   0.412   2.708   2.816
  854SOL    HW2 2579   0.313   2.587   2.863
  855SOL     OW 2580   0.339   2.371   2.868
  855SOL    HW1 2581   0.287   2.288   2.851
  855SOL    HW2 2582   0.416   2.376   2.804
  856SOL     OW 2583   1.138   2.242   3.540
  856SOL    HW1 2584   1.093   2.305   3.604
  856SOL    HW2 2585   1.231   2.273   3.523
  857SOL     OW 2586   1.160   2.069   3.339
  857SOL    HW1 2587   1.160   2.133   3.416
  857SOL    HW2 2588   1.188   2.117   3.256
  858SOL     OW 2589   0.008   3.188   2.062
  858SOL    HW1 2590  -0.085   3.209   2.031
  858SOL    HW2 2591   0.018   3.089   2.075
  859SOL     OW 2592   0.088   3.663   2.789
  859SOL    HW1 2593   0.046   3.577   2.762
  859SOL    HW2 2594   0.182   3.666   2.755
  860SOL     OW 2595   0.504   3.430   2.772
  860SOL    HW1 2596   0.570   3.504   2.781
  860SOL    HW2 2597   0.548   3.351   2.730
  861SOL     OW 2598   1.002   2.658   3.100
  861SOL    HW1 2599   1.043   2.626   3.186
  861SOL    HW2 2600   0.906   2.631   3.097
  862SOL     OW 2601   0.040   2.406   2.976
  862SOL    HW1 2602   0.125   2.373   2.935
  862SOL    HW2 2603   0.053   2.421   3.074
  863SOL     OW 2604   0.189   2.382   3.584
  863SOL    HW1 2605   0.248   2.342   3.514
  863SOL    HW2 2606   0.131   2.453   3.543
  864SOL     OW 2607   1.369   2.812   3.522
  864SOL    HW1 2608   1.408   2.901   3.542
  864SOL    HW2 2609   1.379   2.792   3.425
  865SOL     OW 2610   0.815   2.434   2.187
  865SOL    HW1 2611   0.822   2.345   2.141
  865SOL    HW2 2612   0.721   2.468   2.179
  866SOL     OW 2613   1.657   2.466   3.068
  866SOL    HW1 2614   1.619   2.397   3.130
  866SOL    HW2 2615   1.739   2.430   3.024
  867SOL     OW 2616   0.252   3.426   3.606
  867SOL    HW1 2617   0.222   3.483   3.682
  867SOL    HW2 2618   0.245   3.329   3.632
  868SOL     OW 2619   0.671   2.326   3.131
  868SOL    HW1 2620   0.637   2.237   3.101
  868SOL    HW2 2621   0.697   2.380   3.051
  869SOL     OW 2622   0.930   3.540   3.327
  869SOL    HW1 2623   0.906   3.522   3.232
  869SOL    HW2 2624   0.960   3.634   3.337
  870SOL     OW 2625   0.473   2.362   2.053
  870SOL    HW1 2626   0.534   2.442   2.057
  870SOL    HW2 2627   0.378   2.393   2.060
  871SOL     OW 2628   0.159   2.999   3.328
  871SOL    HW1 2629   0.181   2.938   3.404
  871SOL    HW2 2630   0.169   2.950   3.242
  872SOL     OW 2631   1.347   2.921   3.096
  872SOL    HW1 2632   1.371   2.858   3.022
  872SOL    HW2 2633   1.257   2.961   3.078
  873SOL     OW 2634   1.302   2.717   2.171
  873SOL    HW1 2635   1.216   2.686   2.213
  873SOL    HW2 2636   1.298   2.703   2.072
  874SOL     OW 2637   1.759   3.609   3.016
  874SOL    HW1 2638   1.820   3.639   2.943
  874SOL    HW2 2639   1.721   3.520   2.994
  875SOL     OW 2640   1.252   3.593   2.990
  875SOL    HW1 2641   1.336   3.598   2.936
  875SOL    HW2 2642   1.229   3.497   3.008
  876SOL     OW 2643   0.083   3.120   2.884
  876SOL    HW1 2644   0.078   3.119   2.984
  876SOL    HW2 2645   0.000   3.079   2.846
  877SOL     OW 2646   0.688   3.524   3.578
  877SOL    HW1 2647   0.632   3.605   3.587
  877SOL    HW2 2648   0.740   3.528   3.492
  878SOL     OW 2649   1.726   1.997   2.385
  878SOL    HW1 2650   1.799   1.980   2.318
  878SOL    HW2 2651   1.695   1.910   2.423
  879SOL     OW 2652   1.388   3.435   2.339
  879SOL    HW1 2653   1.455   3.447   2.265
  879SOL    HW2 2654   1.348   3.524   2.362
  880SOL     OW 2655   0.130   3.656   3.713
  880SOL    HW1 2656   0.089   3.582   3.766
  880SOL    HW2 2657   0.194   3.707   3.771
  881SOL     OW 2658   1.280   2.789   2.534
  881SOL    HW1 2659   1.340   2.708   2.536
  881SOL    HW2 2660   1.320   2.858   2.474
  882SOL     OW 2661   0.830   3.135   3.284
  882SOL    HW1 2662   0.825   3.168   3.379
  882SOL    HW2 2663   0.744   3.154   3.238
  883SOL     OW 2664   0.672   3.478   2.016
  883SOL    HW1 2665   0.681   3.488   1.917
  883SOL    HW2 2666   0.632   3.389   2.037
  884SOL     OW 2667   1.650   3.582   3.256
  884SOL    HW1 2668   1.703   3.592   3.172
  884SOL    HW2 2669   1.623   3.672   3.290
  885SOL     OW 2670   1.841   2.037   2.825
  885SOL    HW1 2671   1.880   1.952   2.789
  885SOL    HW2 2672   1.743   2.039   2.806
  886SOL     OW 2673   0.263   2.188   2.582
  886SOL    HW1 2674   0.184   2.239   2.548
  886SOL    HW2 2675   0.254   2.173   2.680
  887SOL     OW 2676   1.194   3.474   1.893
  887SOL    HW1 2677   1.200   3.381   1.930
  887SOL    HW2 2678   1.135   3.474   1.813
  888SOL     OW 2679   0.822   2.864   3.234
  888SOL    HW1 2680   0.862   2.863   3.142
  888SOL    HW2 2681   0.832   2.956   3.274
  889SOL     OW 2682   0.916   2.772   2.153
  889SOL    HW1 2683   0.979   2.810   2.085
  889SOL    HW2 2684   0.956   2.689   2.192
  890SOL     OW 2685   1.504   3.469   1.906
  890SOL    HW1 2686   1.412   3.506   1.913
  890SOL    HW2 2687   1.542   3.489   1.816
  891SOL     OW 2688   0.372   3.150   3.352
  891SOL    HW1 2689   0.359   3.243   3.318
  891SOL    HW2 2690   0.288   3.098   3.339
  892SOL     OW 2691   1.614   3.154   3.151
  892SOL    HW1 2692   1.674   3.157   3.231
  892SOL    HW2 2693   1.539   3.218   3.164
  893SOL     OW 2694   1.039   2.960   2.558
  893SOL    HW1 2695   0.969   2.913   2.612
  893SOL    HW2 2696   1.098   2.892   2.515
  894SOL     OW 2697   1.014   2.098   2.833
  894SOL    HW1 2698   1.006   2.062   2.740
  894SOL    HW2 2699   1.012   2.022   2.898
  895SOL     OW 2700   0.590   3.349   2.353
  895SOL    HW1 2701   0.632   3.291   2.283
  895SOL    HW2 2702   0.546   3.428   2.309
  896SOL     OW 2703   1.709   2.247   3.243
  896SOL    HW1 2704   1.782   2.316   3.247
  896SOL    HW2 2705   1.737   2.172   3.184
  897SOL     OW 2706   0.255   3.210   2.152
  897SOL    HW1 2707   0.159   3.211   2.125
  897SOL    HW2 2708   0.267   3.263   2.236
  898SOL     OW 2709   0.105   2.875   3.588
  898SOL    HW1 2710   0.028   2.842   3.642
  898SOL    HW2 2711   0.190   2.845   3.630
  899SOL     OW 2712   0.672   2.065   3.351
  899SOL    HW1 2713   0.762   2.049   3.311
  899SOL    HW2 2714   0.680   2.070   3.450
  900SOL     OW 2715   0.075   2.207   1.895
  900SOL    HW1 2716  -0.017   2.179   1.866
  900SOL    HW2 2717   0.106   2.284   1.839
  901SOL     OW 2718   1.440   2.718   3.260
  901SOL    HW1 2719   1.383   2.770   3.197
  901SOL    HW2 2720   1.536   2.730   3.236
  902SOL     OW 2721   0.072   2.028   2.180
  902SOL    HW1 2722   0.055   2.111   2.126
  902SOL    HW2 2723   0.162   1.991   2.158
  903SOL     OW 2724   1.183   3.197   1.981
  903SOL    HW1 2725   1.084   3.186   1.983
  903SOL    HW2 2726   1.217   3.212   2.074
  904SOL     OW 2727   0.613   2.704   3.293
  904SOL    HW1 2728   0.669   2.785   3.276
  904SOL    HW2 2729   0.672   2.624   3.296
  905SOL     OW 2730   1.493   3.629   2.821
  905SOL    HW1 2731   1.526   3.693   2.752
  905SOL    HW2 2732   1.559   3.623   2.896
  906SOL     OW 2733   0.716   2.427   3.570
  906SOL    HW1 2734   0.735   2.492   3.644
  906SOL    HW2 2735   0.776   2.347   3.579
  907SOL     OW 2736   1.450   3.082   3.495
  907SOL    HW1 2737   1.441   3.072   3.594
  907SOL    HW2 2738   1.546   3.075   3.469
  908SOL     OW 2739   0.390   3.603   3.422
  908SOL    HW1 2740   0.299   3.644   3.420
  908SOL    HW2 2741   0.383   3.509   3.454
  909SOL     OW 2742   1.674   2.745   3.116
  909SOL    HW1 2743   1.647   2.656   3.079
  909SOL    HW2 2744   1.675   2.813   3.043
  910SOL     OW 2745   1.225   2.187   2.311
  910SOL    HW1 2746   1.290   2.113   2.300
  910SOL    HW2 2747   1.245   2.237   2.395
  911SOL     OW 2748   0.594   2.607   2.514
  911SOL    HW1 2749   0.644   2.692   2.495
  911SOL    HW2 2750   0.506   2.609   2.466
  912SOL     OW 2751   1.777   2.204   3.504
  912SOL    HW1 2752   1.760   2.235   3.410
  912SOL    HW2 2753   1.693   2.167   3.542
  913SOL     OW 2754   1.730   2.796   3.379
  913SOL    HW1 2755   1.768   2.887   3.394
  913SOL    HW2 2756   1.722   2.779   3.280
  914SOL     OW 2757   0.859   3.236   1.878
  914SOL    HW1 2758   0.813   3.251   1.966
  914SOL    HW2 2759   0.903   3.321   1.848
  915SOL     OW 2760   0.661   3.652   2.815
  915SOL    HW1 2761   0.615   3.740   2.802
  915SOL    HW2 2762   0.760   3.664   2.808
  916SOL     OW 2763   0.859   2.818   2.723
  916SOL    HW1 2764   0.913   2.749   2.771
  916SOL    HW2 2765   0.827   2.887   2.789
  917SOL     OW 2766   1.083   2.846   1.949
  917SOL    HW1 2767   1.060   2.899   1.867
  917SOL    HW2 2768   1.164   2.790   1.930
  918SOL     OW 2769   1.861   3.431   2.713
  918SOL    HW1 2770   1.790   3.419   2.643
  918SOL    HW2 2771   1.862   3.352   2.773
  919SOL     OW 2772   0.221   3.176   3.706
  919SOL    HW1 2773   0.156   3.103   3.685
  919SOL    HW2 2774   0.225   3.190   3.804
  920SOL     OW 2775   0.079   3.102   2.515
  920SOL    HW1 2776   0.078   3.055   2.603
  920SOL    HW2 2777   0.161   3.074   2.464
  921SOL     OW 2778   0.672   3.253   3.486
  921SOL    HW1 2779   0.594   3.203   3.524
  921SOL    HW2 2780   0.669   3.348   3.517
  922SOL     OW 2781   1.824   2.054   3.089
  922SOL    HW1 2782   1.820   1.964   3.133
  922SOL    HW2 2783   1.827   2.043   2.990
  923SOL     OW 2784   0.428   2.286   2.382
  923SOL    HW1 2785   0.458   2.214   2.320
  923SOL    HW2 2786   0.389   2.246   2.465
  924SOL     OW 2787   1.705   3.349   2.966
  924SOL    HW1 2788   1.612   3.324   2.939
  924SOL    HW2 2789   1.731   3.299   3.048
  925SOL     OW 2790   0.317   2.409   3.142
  925SOL    HW1 2791   0.355   2.350   3.214
  925SOL    HW2 2792   0.357   2.383   3.054
  926SOL     OW 2793   0.812   3.448   2.549
  926SOL    HW1 2794   0.844   3.458   2.455
  926SOL    HW2 2795   0.733   3.386   2.551
  927SOL     OW 2796   1.424   2.076   2.974
  927SOL    HW1 2797   1.476   2.011   3.029
  927SOL    HW2 2798   1.375   2.139   3.035
  928SOL     OW 2799   1.001   1.896   3.016
  928SOL    HW1 2800   0.938   1.824   2.985
  928SOL    HW2 2801   1.094   1.860   3.016
  929SOL     OW 2802   0.770   3.192   2.163
  929SOL    HW1 2803   0.724   3.105   2.180
  929SOL    HW2 2804   0.861   3.189   2.204
  930SOL     OW 2805   0.618   3.429   3.146
  930SOL    HW1 2806   0.613   3.511   3.203
  930SOL    HW2 2807   0.707   3.426   3.101
  931SOL     OW 2808   1.352   1.914   2.030
  931SOL    HW1 2809   1.387   1.873   1.946
  931SOL    HW2 2810   1.262   1.876   2.050
  932SOL     OW 2811   1.300   2.315   2.553
  932SOL    HW1 2812   1.241   2.395   2.557
  932SOL    HW2 2813   1.315   2.280   2.646
  933SOL     OW 2814   1.593   2.083   2.744
  933SOL    HW1 2815   1.509   2.082   2.798
  933SOL    HW2 2816   1.595   2.166   2.688
  934SOL     OW 2817   0.039   2.939   2.162
  934SOL    HW1 2818   0.138   2.928   2.153
  934SOL    HW2 2819  -0.001   2.853   2.194
  935SOL     OW 2820   0.875   3.508   2.199
  935SOL    HW1 2821   0.798   3.473   2.145
  935SOL    HW2 2822   0.843   3.579   2.261
  936SOL     OW 2823   0.230   2.490   3.837
  936SOL    HW1 2824   0.137   2.488   3.874
  936SOL    HW2 2825   0.231   2.451   3.745
  937SOL     OW 2826   0.019   2.230   4.371
  937SOL    HW1 2827  -0.063   2.273   4.410
  937SOL    HW2 2828  -0.009   2.157   4.308
  938SOL     OW 2829   1.755   2.469   3.955
  938SOL    HW1 2830   1.743   2.456   3.856
  938SOL    HW2 2831   1.725   2.388   4.004
  939SOL     OW 2832   0.685   2.874   4.389
  939SOL    HW1 2833   0.754   2.858   4.459
  939SOL    HW2 2834   0.612   2.931   4.427
  940SOL     OW 2835   1.603   2.309   4.461
  940SOL    HW1 2836   1.529   2.355   4.411
  940SOL    HW2 2837   1.654   2.377   4.514
  941SOL     OW 2838   0.231   3.575   4.207
  941SOL    HW1 2839   0.265   3.652   4.261
  941SOL    HW2 2840   0.275   3.575   4.117
  942SOL     OW 2841   0.230   3.296   4.262
  942SOL    HW1 2842   0.204   3.392   4.262
  942SOL    HW2 2843   0.159   3.242   4.307
  943SOL     OW 2844   0.606   2.826   3.847
  943SOL    HW1 2845   0.613   2.910   3.793
  943SOL    HW2 2846   0.652   2.839   3.935
  944SOL     OW 2847   0.122   2.505   4.287
  944SOL    HW1 2848   0.077   2.417   4.304
  944SOL    HW2 2849   0.121   2.559   4.371
  945SOL     OW 2850   1.842   3.629   4.083
  945SOL    HW1 2851   1.896   3.600   4.163
  945SOL    HW2 2852   1.872   3.719   4.054
  946SOL     OW 2853   0.027   3.458   3.841
  946SOL    HW1 2854   0.008   3.362   3.862
  946SOL    HW2 2855  -0.006   3.516   3.916
  947SOL     OW 2856   1.689   2.784   4.336
  947SOL    HW1 2857   1.784   2.755   4.344
  947SOL    HW2 2858   1.681   2.849   4.261
  948SOL     OW 2859   1.641   2.970   4.156
  948SOL    HW1 2860   1.727   2.972   4.104
  948SOL    HW2 2861   1.655   3.017   4.244
  949SOL     OW 2862   0.613   3.227   4.450
  949SOL    HW1 2863   0.564   3.140   4.459
  949SOL    HW2 2864   0.590   3.270   4.363
  950SOL     OW 2865   0.809   1.866   4.226
  950SOL    HW1 2866   0.849   1.957   4.217
  950SOL    HW2 2867   0.709   1.874   4.232
  951SOL     OW 2868   1.525   2.861   3.914
  951SOL    HW1 2869   1.462   2.785   3.927
  951SOL    HW2 2870   1.573   2.879   4.000
  952SOL     OW 2871   1.667   3.576   4.296
  952SOL    HW1 2872   1.626   3.553   4.208
  952SOL    HW2 2873   1.649   3.502   4.361
  953SOL     OW 2874   0.598   2.591   3.994
  953SOL    HW1 2875   0.622   2.660   3.926
  953SOL    HW2 2876   0.520   2.624   4.048
  954SOL     OW 2877   1.281   2.207   4.668
  954SOL    HW1 2878   1.195   2.157   4.655
  954SOL    HW2 2879   1.343   2.153   4.724
  955SOL     OW 2880   1.576   3.524   4.031
  955SOL    HW1 2881   1.665   3.570   4.034
  955SOL    HW2 2882   1.555   3.500   3.936
  956SOL     OW 2883   1.041   2.563   4.153
  956SOL    HW1 2884   1.067   2.559   4.249
  956SOL    HW2 2885   0.956   2.512   4.139
  957SOL     OW 2886   0.076   2.673   4.513
  957SOL    HW1 2887   0.175   2.661   4.522
  957SOL    HW2 2888   0.052   2.768   4.534
  958SOL     OW 2889   0.865   2.210   3.919
  958SOL    HW1 2890   0.924   2.273   3.870
  958SOL    HW2 2891   0.884   2.116   3.890
  959SOL     OW 2892   1.362   3.006   4.269
  959SOL    HW1 2893   1.445   2.977   4.221
  959SOL    HW2 2894   1.313   3.073   4.213
  960SOL     OW 2895   1.008   3.318   4.201
  960SOL    HW1 2896   0.962   3.390   4.149
  960SOL    HW2 2897   1.004   3.338   4.299
  961SOL     OW 2898   0.351   3.663   4.577
  961SOL    HW1 2899   0.401   3.577   4.583
  961SOL    HW2 2900   0.416   3.740   4.574
  962SOL     OW 2901   1.795   2.928   4.597
  962SOL    HW1 2902   1.733   2.913   4.521
  962SOL    HW2 2903   1.743   2.939   4.682
  963SOL     OW 2904   0.321   2.805   3.966
  963SOL    HW1 2905   0.403   2.844   3.924
  963SOL    HW2 2906   0.294   2.723   3.917
  964SOL     OW 2907   1.111   3.638   3.961
  964SOL    HW1 2908   1.051   3.576   4.011
  964SOL    HW2 2909   1.142   3.594   3.876
  965SOL     OW 2910   1.632   3.239   3.805
  965SOL    HW1 2911   1.600   3.333   3.795
  965SOL    HW2 2912   1.556   3.176   3.793
  966SOL     OW 2913   0.464   3.605   4.047
  966SOL    HW1 2914   0.497   3.644   4.133
  966SOL    HW2 2915   0.540   3.598   3.982
  967SOL     OW 2916   1.400   1.969   4.150
  967SOL    HW1 2917   1.376   1.932   4.060
  967SOL    HW2 2918   1.499   1.985   4.154
  968SOL     OW 2919   0.940   3.560   4.628
  968SOL    HW1 2920   1.020   3.503   4.649
  968SOL    HW2 2921   0.891   3.520   4.551
  969SOL     OW 2922   0.382   2.562   4.204
  969SOL    HW1 2923   0.427   2.472   4.201
  969SOL    HW2 2924   0.288   2.551   4.237
  970SOL     OW 2925   0.614   1.984   3.841
  970SOL    HW1 2926   0.712   1.962   3.848
  970SOL    HW2 2927   0.583   1.967   3.748
  971SOL     OW 2928   0.539   1.926   4.236
  971SOL    HW1 2929   0.458   1.927   4.294
  971SOL    HW2 2930   0.542   2.009   4.181
  972SOL     OW 2931   1.434   3.050   3.765
  972SOL    HW1 2932   1.466   2.974   3.822
  972SOL    HW2 2933   1.342   3.077   3.795
  973SOL     OW 2934   0.297   1.897   3.895
  973SOL    HW1 2935   0.346   1.981   3.874
  973SOL    HW2 2936   0.359   1.832   3.940
  974SOL     OW 2937   0.935   2.098   4.204
  974SOL    HW1 2938   0.887   2.139   4.126
  974SOL    HW2 2939   1.034   2.096   4.185
  975SOL     OW 2940   0.459   3.014   4.465
  975SOL    HW1 2941   0.388   2.987   4.530
  975SOL    HW2 2942   0.433   2.986   4.372
  976SOL     OW 2943   1.271   3.659   4.315
  976SOL    HW1 2944   1.315   3.723   4.251
  976SOL    HW2 2945   1.221   3.711   4.385
  977SOL     OW 2946   1.032   2.411   3.740
  977SOL    HW1 2947   0.991   2.493   3.701
  977SOL    HW2 2948   1.096   2.437   3.813
  978SOL     OW 2949   0.866   2.316   4.366
  978SOL    HW1 2950   0.834   2.388   4.304
  978SOL    HW2 2951   0.890   2.235   4.313
  979SOL     OW 2952   1.857   2.695   4.101
  979SOL    HW1 2953   1.899   2.631   4.165
  979SOL    HW2 2954   1.819   2.644   4.023
  980SOL     OW 2955   0.488   3.247   3.898
  980SOL    HW1 2956   0.401   3.232   3.945
  980SOL    HW2 2957   0.471   3.273   3.803
  981SOL     OW 2958   1.664   3.142   4.381
  981SOL    HW1 2959   1.763   3.150   4.395
  981SOL    HW2 2960   1.619   3.226   4.412
  982SOL     OW 2961   1.390   2.437   3.802
  982SOL    HW1 2962   1.336   2.416   3.883
  982SOL    HW2 2963   1.481   2.396   3.811
  983SOL     OW 2964   0.527   2.118   4.052
  983SOL    HW1 2965   0.554   2.059   3.977
  983SOL    HW2 2966   0.527   2.213   4.021
  984SOL     OW 2967   0.705   2.912   4.092
  984SOL    HW1 2968   0.691   2.919   4.191
  984SOL    HW2 2969   0.789   2.861   4.074
  985SOL     OW 2970   0.367   2.962   4.225
  985SOL    HW1 2971   0.360   3.045   4.169
  985SOL    HW2 2972   0.371   2.882   4.165
  986SOL     OW 2973   1.252   3.210   4.112
  986SOL    HW1 2974   1.302   3.287   4.152
  986SOL    HW2 2975   1.157   3.212   4.144
  987SOL     OW 2976   1.582   2.501   4.196
  987SOL    HW1 2977   1.551   2.562   4.269
  987SOL    HW2 2978   1.632   2.553   4.127
  988SOL     OW 2979   1.209   2.387   3.999
  988SOL    HW1 2980   1.222   2.303   4.053
  988SOL    HW2 2981   1.180   2.461   4.059
  989SOL     OW 2982   0.307   1.925   4.342
  989SOL    HW1 2983   0.296   2.019   4.375
  989SOL    HW2 2984   0.302   1.862   4.419
  990SOL     OW 2985   1.622   2.229   4.098
  990SOL    HW1 2986   1.624   2.153   4.162
  990SOL    HW2 2987   1.574   2.306   4.138
  991SOL     OW 2988   1.540   2.136   3.849
  991SOL    HW1 2989   1.479   2.061   3.872
  991SOL    HW2 2990   1.562   2.188   3.932
  992SOL     OW 2991   1.303   2.700   3.766
  992SOL    HW1 2992   1.337   2.607   3.781
  992SOL    HW2 2993   1.321   2.727   3.671
  993SOL     OW 2994   0.008   3.188   3.924
  993SOL    HW1 2995  -0.085   3.209   3.893
  993SOL    HW2 2996   0.018   3.089   3.937
  994SOL     OW 2997   0.815   2.434   4.049
  994SOL    HW1 2998   0.822   2.345   4.003
  994SOL    HW2 2999   0.721   2.468   4.041
  995SOL     OW 3000   0.473   2.362   3.915
  995SOL    HW1 3001   0.534   2.442   3.919
  995SOL    HW2 3002   0.378   2.393   3.922
  996SOL     OW 3003   1.302   2.717   4.033
  996SOL    HW1 3004   1.216   2.686   4.075
  996SOL    HW2 3005   1.298   2.703   3.934
  997SOL     OW 3006   1.726   1.997   4.247
  997SOL    HW1 3007   1.799   1.980   4.180
  997SOL    HW2 3008   1.695   1.910   4.285
  998SOL     OW 3009   1.388   3.435   4.201
  998SOL    HW1 3010   1.455   3.447   4.127
  998SOL    HW2 3011   1.348   3.524   4.224
  999SOL     OW 3012   0.672   3.478   3.878
  999SOL    HW1 3013   0.681   3.488   3.779
  999SOL    HW2 3014   0.632   3.389   3.899
 1000SOL     OW 3015   1.194   3.474   3.755
 1000SOL    HW1 3016   1.200   3.381   3.792
 1000SOL    HW2 3017   1.135   3.474   3.675
 1001SOL     OW 3018   0.916   2.772   4.015
 1001SOL    HW1 3019   0.979   2.810   3.947
 1001SOL    HW2 3020   0.956   2.689   4.054
 1002SOL     OW 3021   1.504   3.469   3.768
 1002SOL    HW1 3022   1.412   3.506   3.775
 1002SOL    HW2 3023   1.542   3.489   3.678
 1003SOL     OW 3024   0.590   3.349   4.215
 1003SOL    HW1 3025   0.632   3.291   4.145
 1003SOL    HW2 3026   0.546   3.428   4.171
 1004SOL     OW 3027   0.255   3.210   4.014
 1004SOL    HW1 3028   0.159   3.211   3.987
 1004SOL    HW2 3029   0.267   3.263   4.098
 1005SOL     OW 3030   0.075   2.207   3.757
 1005SOL    HW1 3031  -0.017   2.179   3.728
 1005SOL    HW2 3032   0.106   2.284   3.701
 1006SOL     OW 3033   0.072   2.028   4.042
 1006SOL    HW1 3034   0.055   2.111   3.988
 1006SOL    HW2 3035   0.162   1.991   4.020
 1007SOL     OW 3036   1.183   3.197   3.843
 1007SOL    HW1 3037   1.084   3.186   3.845
 1007SOL    HW2 3038   1.217   3.212   3.936
 1008SOL     OW 3039   1.225   2.187   4.173
 1008SOL    HW1 3040   1.290   2.113   4.162
 1008SOL    HW2 3041   1.245   2.237   4.257
 1009SOL     OW 3042   0.594   2.607   4.376
 1009SOL    HW1 3043   0.644   2.692   4.357
 1009SOL    HW2 3044   0.506   2.609   4.328
 1010SOL     OW 3045   0.859   3.236   3.740
 1010SOL    HW1 3046   0.813   3.251   3.828
 1010SOL    HW2 3047   0.903   3.321   3.710
 1011SOL     OW 3048   0.661   3.652   4.677
 1011SOL    HW1 3049   0.615   3.740   4.664
 1011SOL    HW2 3050   0.760   3.664   4.670
 1012SOL     OW 3051   0.859   2.818   4.585
 1012SOL    HW1 3052   0.913   2.749   4.633
 1012SOL    HW2 3053   0.827   2.887   4.651
 1013SOL     OW 3054   1.083   2.846   3.811
 1013SOL    HW1 3055   1.060   2.899   3.729
 1013SOL    HW2 3056   1.164   2.790   3.792
 1014SOL     OW 3057   0.079   3.102   4.377
 1014SOL    HW1 3058   0.078   3.055   4.465
 1014SOL    HW2 3059   0.161   3.074   4.326
 1015SOL     OW 3060   0.428   2.286   4.244
 1015SOL    HW1 3061   0.458   2.214   4.182
 1015SOL    HW2 3062   0.389   2.246   4.327
 1016SOL     OW 3063   0.812   3.448   4.411
 1016SOL    HW1 3064   0.844   3.458   4.317
 1016SOL    HW2 3065   0.733   3.386   4.413
 1017SOL     OW 3066   0.770   3.192   4.025
 1017SOL    HW1 3067   0.724   3.105   4.042
 1017SOL    HW2 3068   0.861   3.189   4.066
 1018SOL     OW 3069   1.352   1.914   3.892
 1018SOL    HW1 3070   1.387   1.873   3.808
 1018SOL    HW2 3071   1.262   1.876   3.912
 1019SOL     OW 3072   1.300   2.315   4.415
 1019SOL    HW1 3073   1.241   2.395   4.419
 1019SOL    HW2 3074   1.315   2.280   4.508
 1020SOL     OW 3075   0.039   2.939   4.024
 1020SOL    HW1 3076   0.138   2.928   4.015
 1020SOL    HW2 3077  -0.001   2.853   4.056
 1021SOL     OW 3078   0.875   3.508   4.061
 1021SOL    HW1 3079   0.798   3.473   4.007
 1021SOL    HW2 3080   0.843   3.579   4.123
 1022SOL     OW 3081   0.230   4.352   0.113
 1022SOL    HW1 3082   0.137   4.350   0.150
 1022SOL    HW2 3083   0.231   4.313   0.021
 1023SOL     OW 3084   0.225   3.999   0.996
 1023SOL    HW1 3085   0.260   3.982   1.088
 1023SOL    HW2 3086   0.137   3.954   0.984
 1024SOL     OW 3087   0.019   4.092   0.647
 1024SOL    HW1 3088  -0.063   4.135   0.686
 1024SOL    HW2 3089  -0.009   4.019   0.584
 1025SOL     OW 3090   1.755   4.331   0.231
 1025SOL    HW1 3091   1.743   4.318   0.132
 1025SOL    HW2 3092   1.725   4.250   0.280
 1026SOL     OW 3093   0.850   4.522   1.823
 1026SOL    HW1 3094   0.846   4.598   1.888
 1026SOL    HW2 3095   0.872   4.558   1.732
 1027SOL     OW 3096   0.685   4.736   0.665
 1027SOL    HW1 3097   0.754   4.720   0.735
 1027SOL    HW2 3098   0.612   4.793   0.703
 1028SOL     OW 3099   0.438   4.116   1.499
 1028SOL    HW1 3100   0.520   4.060   1.508
 1028SOL    HW2 3101   0.357   4.058   1.503
 1029SOL     OW 3102   1.603   4.171   0.737
 1029SOL    HW1 3103   1.529   4.217   0.687
 1029SOL    HW2 3104   1.654   4.239   0.790
 1030SOL     OW 3105   1.594   3.838   1.480
 1030SOL    HW1 3106   1.576   3.905   1.408
 1030SOL    HW2 3107   1.591   3.884   1.569
 1031SOL     OW 3108   0.122   4.367   0.563
 1031SOL    HW1 3109   0.077   4.279   0.580
 1031SOL    HW2 3110   0.121   4.421   0.647
 1032SOL     OW 3111   0.113   4.461   1.597
 1032SOL    HW1 3112   0.201   4.448   1.642
 1032SOL    HW2 3113   0.100   4.558   1.575
 1033SOL     OW 3114   0.809   3.728   0.502
 1033SOL    HW1 3115   0.849   3.819   0.493
 1033SOL    HW2 3116   0.709   3.736   0.508
 1034SOL     OW 3117   0.317   3.975   1.801
 1034SOL    HW1 3118   0.388   4.046   1.807
 1034SOL    HW2 3119   0.229   4.014   1.829
 1035SOL     OW 3120   1.281   4.069   0.944
 1035SOL    HW1 3121   1.195   4.019   0.931
 1035SOL    HW2 3122   1.343   4.015   1.000
 1036SOL     OW 3123   0.807   4.329   1.465
 1036SOL    HW1 3124   0.760   4.326   1.554
 1036SOL    HW2 3125   0.756   4.274   1.399
 1037SOL     OW 3126   1.394   4.193   1.674
 1037SOL    HW1 3127   1.374   4.236   1.762
 1037SOL    HW2 3128   1.472   4.131   1.683
 1038SOL     OW 3129   0.991   4.134   1.242
 1038SOL    HW1 3130   0.914   4.168   1.296
 1038SOL    HW2 3131   0.957   4.083   1.163
 1039SOL     OW 3132   1.041   4.425   0.429
 1039SOL    HW1 3133   1.067   4.421   0.525
 1039SOL    HW2 3134   0.956   4.374   0.415
 1040SOL     OW 3135   0.076   4.535   0.789
 1040SOL    HW1 3136   0.175   4.523   0.798
 1040SOL    HW2 3137   0.052   4.630   0.810
 1041SOL     OW 3138   0.865   4.072   0.195
 1041SOL    HW1 3139   0.924   4.135   0.146
 1041SOL    HW2 3140   0.884   3.978   0.166
 1042SOL     OW 3141   1.719   4.309   1.831
 1042SOL    HW1 3142   1.693   4.398   1.795
 1042SOL    HW2 3143   1.717   4.241   1.758
 1043SOL     OW 3144   0.550   3.920   0.885
 1043SOL    HW1 3145   0.545   3.915   0.985
 1043SOL    HW2 3146   0.552   4.016   0.856
 1044SOL     OW 3147   1.458   4.459   0.728
 1044SOL    HW1 3148   1.453   4.394   0.803
 1044SOL    HW2 3149   1.538   4.518   0.741
 1045SOL     OW 3150   0.202   4.009   1.498
 1045SOL    HW1 3151   0.122   4.069   1.485
 1045SOL    HW2 3152   0.192   3.960   1.584
 1046SOL     OW 3153   1.400   3.831   0.426
 1046SOL    HW1 3154   1.376   3.794   0.336
 1046SOL    HW2 3155   1.499   3.847   0.430
 1047SOL     OW 3156   0.382   4.424   0.480
 1047SOL    HW1 3157   0.427   4.334   0.477
 1047SOL    HW2 3158   0.288   4.413   0.513
 1048SOL     OW 3159   1.547   3.946   1.729
 1048SOL    HW1 3160   1.542   3.983   1.821
 1048SOL    HW2 3161   1.475   3.877   1.717
 1049SOL     OW 3162   0.781   3.988   1.749
 1049SOL    HW1 3163   0.848   3.927   1.792
 1049SOL    HW2 3164   0.708   4.007   1.814
 1050SOL     OW 3165   1.351   4.314   1.433
 1050SOL    HW1 3166   1.379   4.271   1.518
 1050SOL    HW2 3167   1.376   4.410   1.434
 1051SOL     OW 3168   0.922   4.227   0.899
 1051SOL    HW1 3169   0.897   4.218   0.803
 1051SOL    HW2 3170   0.970   4.145   0.930
 1052SOL     OW 3171   0.539   3.788   0.512
 1052SOL    HW1 3172   0.458   3.789   0.570
 1052SOL    HW2 3173   0.542   3.871   0.457
 1053SOL     OW 3174   0.935   3.960   0.480
 1053SOL    HW1 3175   0.887   4.001   0.402
 1053SOL    HW2 3176   1.034   3.958   0.461
 1054SOL     OW 3177   1.076   4.407   1.464
 1054SOL    HW1 3178   0.996   4.346   1.467
 1054SOL    HW2 3179   1.157   4.354   1.440
 1055SOL     OW 3180   1.032   4.273   0.016
 1055SOL    HW1 3181   0.991   4.355  -0.023
 1055SOL    HW2 3182   1.096   4.299   0.089
 1056SOL     OW 3183   0.078   4.280   1.386
 1056SOL    HW1 3184   0.170   4.279   1.345
 1056SOL    HW2 3185   0.072   4.354   1.453
 1057SOL     OW 3186   0.561   3.946   1.147
 1057SOL    HW1 3187   0.599   3.862   1.184
 1057SOL    HW2 3188   0.473   3.965   1.191
 1058SOL     OW 3189   0.866   4.178   0.642
 1058SOL    HW1 3190   0.834   4.250   0.580
 1058SOL    HW2 3191   0.890   4.097   0.589
 1059SOL     OW 3192   1.017   3.763   0.753
 1059SOL    HW1 3193   0.945   3.768   0.684
 1059SOL    HW2 3194   0.993   3.694   0.822
 1060SOL     OW 3195   1.466   4.314   0.992
 1060SOL    HW1 3196   1.436   4.219   0.999
 1060SOL    HW2 3197   1.539   4.330   1.058
 1061SOL     OW 3198   1.390   4.299   0.078
 1061SOL    HW1 3199   1.336   4.278   0.159
 1061SOL    HW2 3200   1.481   4.258   0.087
 1062SOL     OW 3201   0.527   3.980   0.328
 1062SOL    HW1 3202   0.554   3.921   0.253
 1062SOL    HW2 3203   0.527   4.075   0.297
 1063SOL     OW 3204   0.915   3.813   1.402
 1063SOL    HW1 3205   0.940   3.793   1.307
 1063SOL    HW2 3206   0.987   3.869   1.444
 1064SOL     OW 3207   0.410   4.537   1.251
 1064SOL    HW1 3208   0.496   4.549   1.301
 1064SOL    HW2 3209   0.368   4.450   1.278
 1065SOL     OW 3210   1.274   4.110   1.262
 1065SOL    HW1 3211   1.295   4.184   1.326
 1065SOL    HW2 3212   1.185   4.127   1.219
 1066SOL     OW 3213   0.566   4.261   0.865
 1066SOL    HW1 3214   0.578   4.327   0.791
 1066SOL    HW2 3215   0.612   4.295   0.948
 1067SOL     OW 3216   1.582   4.363   0.472
 1067SOL    HW1 3217   1.551   4.424   0.545
 1067SOL    HW2 3218   1.632   4.415   0.403
 1068SOL     OW 3219   1.587   4.503   1.670
 1068SOL    HW1 3220   1.495   4.541   1.665
 1068SOL    HW2 3221   1.647   4.550   1.605
 1069SOL     OW 3222   1.013   3.829   1.770
 1069SOL    HW1 3223   1.019   3.914   1.718
 1069SOL    HW2 3224   1.045   3.753   1.713
 1070SOL     OW 3225   0.504   3.774   1.740
 1070SOL    HW1 3226   0.462   3.717   1.670
 1070SOL    HW2 3227   0.438   3.843   1.772
 1071SOL     OW 3228   1.360   4.586   1.045
 1071SOL    HW1 3229   1.285   4.586   0.979
 1071SOL    HW2 3230   1.397   4.494   1.054
 1072SOL     OW 3231   1.209   4.249   0.275
 1072SOL    HW1 3232   1.222   4.165   0.329
 1072SOL    HW2 3233   1.180   4.323   0.335
 1073SOL     OW 3234   0.307   3.937   1.231
 1073SOL    HW1 3235   0.284   3.974   1.321
 1073SOL    HW2 3236   0.277   3.842   1.225
 1074SOL     OW 3237   0.732   4.358   1.064
 1074SOL    HW1 3238   0.791   4.332   0.988
 1074SOL    HW2 3239   0.704   4.454   1.053
 1075SOL     OW 3240   1.728   4.659   1.854
 1075SOL    HW1 3241   1.682   4.652   1.765
 1075SOL    HW2 3242   1.666   4.703   1.920
 1076SOL     OW 3243   0.307   3.787   0.618
 1076SOL    HW1 3244   0.296   3.881   0.651
 1076SOL    HW2 3245   0.302   3.724   0.695
 1077SOL     OW 3246   1.622   4.091   0.374
 1077SOL    HW1 3247   1.624   4.015   0.438
 1077SOL    HW2 3248   1.574   4.168   0.414
 1078SOL     OW 3249   1.540   3.998   0.125
 1078SOL    HW1 3250   1.479   3.923   0.148
 1078SOL    HW2 3251   1.562   4.050   0.208
 1079SOL     OW 3252   0.319   4.534   0.949
 1079SOL    HW1 3253   0.412   4.570   0.954
 1079SOL    HW2 3254   0.313   4.449   1.001
 1080SOL     OW 3255   0.339   4.233   1.006
 1080SOL    HW1 3256   0.287   4.150   0.989
 1080SOL    HW2 3257   0.416   4.238   0.942
 1081SOL     OW 3258   1.138   4.104   1.678
 1081SOL    HW1 3259   1.093   4.167   1.742
 1081SOL    HW2 3260   1.231   4.135   1.661
 1082SOL     OW 3261   1.160   3.931   1.477
 1082SOL    HW1 3262   1.160   3.995   1.554
 1082SOL    HW2 3263   1.188   3.979   1.394
 1083SOL     OW 3264   0.040   4.268   1.114
 1083SOL    HW1 3265   0.125   4.235   1.073
 1083SOL    HW2 3266   0.053   4.283   1.212
 1084SOL     OW 3267   0.189   4.244   1.722
 1084SOL    HW1 3268   0.248   4.204   1.652
 1084SOL    HW2 3269   0.131   4.315   1.681
 1085SOL     OW 3270   0.815   4.296   0.325
 1085SOL    HW1 3271   0.822   4.207   0.279
 1085SOL    HW2 3272   0.721   4.330   0.317
 1086SOL     OW 3273   1.657   4.328   1.206
 1086SOL    HW1 3274   1.619   4.259   1.268
 1086SOL    HW2 3275   1.739   4.292   1.162
 1087SOL     OW 3276   0.671   4.188   1.269
 1087SOL    HW1 3277   0.637   4.099   1.239
 1087SOL    HW2 3278   0.697   4.242   1.189
 1088SOL     OW 3279   0.473   4.224   0.191
 1088SOL    HW1 3280   0.534   4.304   0.195
 1088SOL    HW2 3281   0.378   4.255   0.198
 1089SOL     OW 3282   0.903   3.810   0.133
 1089SOL    HW1 3283   0.954   3.811   0.047
 1089SOL    HW2 3284   0.959   3.768   0.204
 1090SOL     OW 3285   1.726   3.859   0.523
 1090SOL    HW1 3286   1.799   3.842   0.456
 1090SOL    HW2 3287   1.695   3.772   0.561
 1091SOL     OW 3288   1.280   4.651   0.672
 1091SOL    HW1 3289   1.340   4.570   0.674
 1091SOL    HW2 3290   1.320   4.720   0.612
 1092SOL     OW 3291   1.841   3.899   0.963
 1092SOL    HW1 3292   1.880   3.814   0.927
 1092SOL    HW2 3293   1.743   3.901   0.944
 1093SOL     OW 3294   0.263   4.050   0.720
 1093SOL    HW1 3295   0.184   4.101   0.686
 1093SOL    HW2 3296   0.254   4.035   0.818
 1094SOL     OW 3297   1.039   4.822   0.696
 1094SOL    HW1 3298   0.969   4.775   0.750
 1094SOL    HW2 3299   1.098   4.754   0.653
 1095SOL     OW 3300   1.014   3.960   0.971
 1095SOL    HW1 3301   1.006   3.924   0.878
 1095SOL    HW2 3302   1.012   3.884   1.036
 1096SOL     OW 3303   1.709   4.109   1.381
 1096SOL    HW1 3304   1.782   4.178   1.385
 1096SOL    HW2 3305   1.737   4.034   1.322
 1097SOL     OW 3306   0.672   3.927   1.489
 1097SOL    HW1 3307   0.762   3.911   1.449
 1097SOL    HW2 3308   0.680   3.932   1.588
 1098SOL     OW 3309   0.075   4.069   0.033
 1098SOL    HW1 3310  -0.017   4.041   0.004
 1098SOL    HW2 3311   0.106   4.146  -0.023
 1099SOL     OW 3312   0.072   3.890   0.318
 1099SOL    HW1 3313   0.055   3.973   0.264
 1099SOL    HW2 3314   0.162   3.853   0.296
 1100SOL     OW 3315   0.716   4.289   1.708
 1100SOL    HW1 3316   0.735   4.354   1.782
 1100SOL    HW2 3317   0.776   4.209   1.717
 1101SOL     OW 3318   1.225   4.049   0.449
 1101SOL    HW1 3319   1.290   3.975   0.438
 1101SOL    HW2 3320   1.245   4.099   0.533
 1102SOL     OW 3321   1.777   4.066   1.642
 1102SOL    HW1 3322   1.760   4.097   1.548
 1102SOL    HW2 3323   1.693   4.029   1.680
 1103SOL     OW 3324   1.083   4.708   0.087
 1103SOL    HW1 3325   1.060   4.761   0.005
 1103SOL    HW2 3326   1.164   4.652   0.068
 1104SOL     OW 3327   1.824   3.916   1.227
 1104SOL    HW1 3328   1.820   3.826   1.271
 1104SOL    HW2 3329   1.827   3.905   1.128
 1105SOL     OW 3330   0.428   4.148   0.520
 1105SOL    HW1 3331   0.458   4.076   0.458
 1105SOL    HW2 3332   0.389   4.108   0.603
 1106SOL     OW 3333   0.317   4.271   1.280
 1106SOL    HW1 3334   0.355   4.212   1.352
 1106SOL    HW2 3335   0.357   4.245   1.192
 1107SOL     OW 3336   1.424   3.938   1.112
 1107SOL    HW1 3337   1.476   3.873   1.167
 1107SOL    HW2 3338   1.375   4.001   1.173
 1108SOL     OW 3339   1.001   3.758   1.154
 1108SOL    HW1 3340   0.938   3.686   1.123
 1108SOL    HW2 3341   1.094   3.722   1.154
 1109SOL     OW 3342   1.352   3.776   0.168
 1109SOL    HW1 3343   1.387   3.735   0.084
 1109SOL    HW2 3344   1.262   3.738   0.188
 1110SOL     OW 3345   1.300   4.177   0.691
 1110SOL    HW1 3346   1.241   4.257   0.695
 1110SOL    HW2 3347   1.315   4.142   0.784
 1111SOL     OW 3348   1.593   3.945   0.882
 1111SOL    HW1 3349   1.509   3.944   0.936
 1111SOL    HW2 3350   1.595   4.028   0.826
 1112SOL     OW 3351   0.230   4.352   1.975
 1112SOL    HW1 3352   0.137   4.350   2.012
 1112SOL    HW2 3353   0.231   4.313   1.883
 1113SOL     OW 3354   0.225   3.999   2.858
 1113SOL    HW1 3355   0.260   3.982   2.950
 1113SOL    HW2 3356   0.137   3.954   2.846
 1114SOL     OW 3357   0.019   4.092   2.509
 1114SOL    HW1 3358  -0.063   4.135   2.548
 1114SOL    HW2 3359  -0.009   4.019   2.446
 1115SOL     OW 3360   1.755   4.331   2.093
 1115SOL    HW1 3361   1.743   4.318   1.994
 1115SOL    HW2 3362   1.725   4.250   2.142
 1116SOL     OW 3363   0.850   4.522   3.685
 1116SOL    HW1 3364   0.846   4.598   3.750
 1116SOL    HW2 3365   0.872   4.558   3.594
 1117SOL     OW 3366   0.685   4.736   2.527
 1117SOL    HW1 3367   0.754   4.720   2.597
 1117SOL    HW2 3368   0.612   4.793   2.565
 1118SOL     OW 3369   0.438   4.116   3.361
 1118SOL    HW1 3370   0.520   4.060   3.370
 1118SOL    HW2 3371   0.357   4.058   3.365
 1119SOL     OW 3372   1.603   4.171   2.599
 1119SOL    HW1 3373   1.529   4.217   2.549
 1119SOL    HW2 3374   1.654   4.239   2.652
 1120SOL     OW 3375   1.594   3.838   3.342
 1120SOL    HW1 3376   1.576   3.905   3.270
 1120SOL    HW2 3377   1.591   3.884   3.431
 1121SOL     OW 3378   0.122   4.367   2.425
 1121SOL    HW1 3379   0.077   4.279   2.442
 1121SOL    HW2 3380   0.121   4.421   2.509
 1122SOL     OW 3381   0.113   4.461   3.459
 1122SOL    HW1 3382   0.201   4.448   3.504
 1122SOL    HW2 3383   0.100   4.558   3.437
 1123SOL     OW 3384   0.809   3.728   2.364
 1123SOL    HW1 3385   0.849   3.819   2.355
 1123SOL    HW2 3386   0.709   3.736   2.370
 1124SOL     OW 3387   0.317   3.975   3.663
 1124SOL    HW1 3388   0.388   4.046   3.669
 1124SOL    HW2 3389   0.229   4.014   3.691
 1125SOL     OW 3390   1.281   4.069   2.806
 1125SOL    HW1 3391   1.195   4.019   2.793
 1125SOL    HW2 3392   1.343   4.015   2.862
 1126SOL     OW 3393   0.807   4.329   3.327
 1126SOL    HW1 3394   0.760   4.326   3.416
 1126SOL    HW2 3395   0.756   4.274   3.261
 1127SOL     OW 3396   1.394   4.193   3.536
 1127SOL    HW1 3397   1.374   4.236   3.624
 1127SOL    HW2 3398   1.472   4.131   3.545
 1128SOL     OW 3399   0.991   4.134   3.104
 1128SOL    HW1 3400   0.914   4.168   3.158
 1128SOL    HW2 3401   0.957   4.083   3.025
 1129SOL     OW 3402   1.041   4.425   2.291
 1129SOL    HW1 3403   1.067   4.421   2.387
 1129SOL    HW2 3404   0.956   4.374   2.277
 1130SOL     OW 3405   0.076   4.535   2.651
 1130SOL    HW1 3406   0.175   4.523   2.660
 1130SOL    HW2 3407   0.052   4.630   2.672
 1131SOL     OW 3408   0.865   4.072   2.057
 1131SOL    HW1 3409   0.924   4.135   2.008
 1131SOL    HW2 3410   0.884   3.978   2.028
 1132SOL     OW 3411   1.719   4.309   3.693
 1132SOL    HW1 3412   1.693   4.398   3.657
 1132SOL    HW2 3413   1.717   4.241   3.620
 1133SOL     OW 3414   0.550   3.920   2.747
 1133SOL    HW1 3415   0.545   3.915   2.847
 1133SOL    HW2 3416   0.552   4.016   2.718
 1134SOL     OW 3417   1.458   4.459   2.590
 1134SOL    HW1 3418   1.453   4.394   2.665
 1134SOL    HW2 3419   1.538   4.518   2.603
 1135SOL     OW 3420   0.202   4.009   3.360
 1135SOL    HW1 3421   0.122   4.069   3.347
 1135SOL    HW2 3422   0.192   3.960   3.446
 1136SOL     OW 3423   1.400   3.831   2.288
 1136SOL    HW1 3424   1.376   3.794   2.198
 1136SOL    HW2 3425   1.499   3.847   2.292
 1137SOL     OW 3426   0.382   4.424   2.342
 1137SOL    HW1 3427   0.427   4.334   2.339
 1137SOL    HW2 3428   0.288   4.413   2.375
 1138SOL     OW 3429   1.547   3.946   3.591
 1138SOL    HW1 3430   1.542   3.983   3.683
 1138SOL    HW2 3431   1.475   3.877   3.579
 1139SOL     OW 3432   0.614   3.846   1.979
 1139SOL    HW1 3433   0.712   3.824   1.986
 1139SOL    HW2 3434   0.583   3.829   1.886
 1140SOL     OW 3435   0.781   3.988   3.611
 1140SOL    HW1 3436   0.848   3.927   3.654
 1140SOL    HW2 3437   0.708   4.007   3.676
 1141SOL     OW 3438   1.351   4.314   3.295
 1141SOL    HW1 3439   1.379   4.271   3.380
 1141SOL    HW2 3440   1.376   4.410   3.296
 1142SOL     OW 3441   0.922   4.227   2.761
 1142SOL    HW1 3442   0.897   4.218   2.665
 1142SOL    HW2 3443   0.970   4.145   2.792
 1143SOL     OW 3444   0.539   3.788   2.374
 1143SOL    HW1 3445   0.458   3.789   2.432
 1143SOL    HW2 3446   0.542   3.871   2.319
 1144SOL     OW 3447   0.297   3.759   2.033
 1144SOL    HW1 3448   0.346   3.843   2.012
 1144SOL    HW2 3449   0.359   3.694   2.078
 1145SOL     OW 3450   0.935   3.960   2.342
 1145SOL    HW1 3451   0.887   4.001   2.264
 1145SOL    HW2 3452   1.034   3.958   2.323
 1146SOL     OW 3453   1.076   4.407   3.326
 1146SOL    HW1 3454   0.996   4.346   3.329
 1146SOL    HW2 3455   1.157   4.354   3.302
 1147SOL     OW 3456   1.032   4.273   1.878
 1147SOL    HW1 3457   0.991   4.355   1.839
 1147SOL    HW2 3458   1.096   4.299   1.951
 1148SOL     OW 3459   0.078   4.280   3.248
 1148SOL    HW1 3460   0.170   4.279   3.207
 1148SOL    HW2 3461   0.072   4.354   3.315
 1149SOL     OW 3462   0.561   3.946   3.009
 1149SOL    HW1 3463   0.599   3.862   3.046
 1149SOL    HW2 3464   0.473   3.965   3.053
 1150SOL     OW 3465   0.866   4.178   2.504
 1150SOL    HW1 3466   0.834   4.250   2.442
 1150SOL    HW2 3467   0.890   4.097   2.451
 1151SOL     OW 3468   1.017   3.763   2.615
 1151SOL    HW1 3469   0.945   3.768   2.546
 1151SOL    HW2 3470   0.993   3.694   2.684
 1152SOL     OW 3471   1.466   4.314   2.854
 1152SOL    HW1 3472   1.436   4.219   2.861
 1152SOL    HW2 3473   1.539   4.330   2.920
 1153SOL     OW 3474   1.390   4.299   1.940
 1153SOL    HW1 3475   1.336   4.278   2.021
 1153SOL    HW2 3476   1.481   4.258   1.949
 1154SOL     OW 3477   0.527   3.980   2.190
 1154SOL    HW1 3478   0.554   3.921   2.115
 1154SOL    HW2 3479   0.527   4.075   2.159
 1155SOL     OW 3480   0.915   3.813   3.264
 1155SOL    HW1 3481   0.940   3.793   3.169
 1155SOL    HW2 3482   0.987   3.869   3.306
 1156SOL     OW 3483   0.410   4.537   3.113
 1156SOL    HW1 3484   0.496   4.549   3.163
 1156SOL    HW2 3485   0.368   4.450   3.140
 1157SOL     OW 3486   1.274   4.110   3.124
 1157SOL    HW1 3487   1.295   4.184   3.188
 1157SOL    HW2 3488   1.185   4.127   3.081
 1158SOL     OW 3489   0.566   4.261   2.727
 1158SOL    HW1 3490   0.578   4.327   2.653
 1158SOL    HW2 3491   0.612   4.295   2.810
 1159SOL     OW 3492   1.582   4.363   2.334
 1159SOL    HW1 3493   1.551   4.424   2.407
 1159SOL    HW2 3494   1.632   4.415   2.265
 1160SOL     OW 3495   1.587   4.503   3.532
 1160SOL    HW1 3496   1.495   4.541   3.527
 1160SOL    HW2 3497   1.647   4.550   3.467
 1161SOL     OW 3498   1.013   3.829   3.632
 1161SOL    HW1 3499   1.019   3.914   3.580
 1161SOL    HW2 3500   1.045   3.753   3.575
 1162SOL     OW 3501   0.504   3.774   3.602
 1162SOL    HW1 3502   0.462   3.717   3.532
 1162SOL    HW2 3503   0.438   3.843   3.634
 1163SOL     OW 3504   1.360   4.586   2.907
 1163SOL    HW1 3505   1.285   4.586   2.841
 1163SOL    HW2 3506   1.397   4.494   2.916
 1164SOL     OW 3507   1.209   4.249   2.137
 1164SOL    HW1 3508   1.222   4.165   2.191
 1164SOL    HW2 3509   1.180   4.323   2.197
 1165SOL     OW 3510   0.307   3.937   3.093
 1165SOL    HW1 3511   0.284   3.974   3.183
 1165SOL    HW2 3512   0.277   3.842   3.087
 1166SOL     OW 3513   0.732   4.358   2.926
 1166SOL    HW1 3514   0.791   4.332   2.850
 1166SOL    HW2 3515   0.704   4.454   2.915
 1167SOL     OW 3516   1.728   4.659   3.716
 1167SOL    HW1 3517   1.682   4.652   3.627
 1167SOL    HW2 3518   1.666   4.703   3.782
 1168SOL     OW 3519   0.307   3.787   2.480
 1168SOL    HW1 3520   0.296   3.881   2.513
 1168SOL    HW2 3521   0.302   3.724   2.557
 1169SOL     OW 3522   1.622   4.091   2.236
 1169SOL    HW1 3523   1.624   4.015   2.300
 1169SOL    HW2 3524   1.574   4.168   2.276
 1170SOL     OW 3525   1.540   3.998   1.987
 1170SOL    HW1 3526   1.479   3.923   2.010
 1170SOL    HW2 3527   1.562   4.050   2.070
 1171SOL     OW 3528   0.319   4.534   2.811
 1171SOL    HW1 3529   0.412   4.570   2.816
 1171SOL    HW2 3530   0.313   4.449   2.863
 1172SOL     OW 3531   0.339   4.233   2.868
 1172SOL    HW1 3532   0.287   4.150   2.851
 1172SOL    HW2 3533   0.416   4.238   2.804
 1173SOL     OW 3534   1.138   4.104   3.540
 1173SOL    HW1 3535   1.093   4.167   3.604
 1173SOL    HW2 3536   1.231   4.135   3.523
 1174SOL     OW 3537   1.160   3.931   3.339
 1174SOL    HW1 3538   1.160   3.995   3.416
 1174SOL    HW2 3539   1.188   3.979   3.256
 1175SOL     OW 3540   0.040   4.268   2.976
 1175SOL    HW1 3541   0.125   4.235   2.935
 1175SOL    HW2 3542   0.053   4.283   3.074
 1176SOL     OW 3543   0.189   4.244   3.584
 1176SOL    HW1 3544   0.248   4.204   3.514
 1176SOL    HW2 3545   0.131   4.315   3.543
 1177SOL     OW 3546   0.815   4.296   2.187
 1177SOL    HW1 3547   0.822   4.207   2.141
 1177SOL    HW2 3548   0.721   4.330   2.179
 1178SOL     OW 3549   1.657   4.328   3.068
 1178SOL    HW1 3550   1.619   4.259   3.130
 1178SOL    HW2 3551   1.739   4.292   3.024
 1179SOL     OW 3552   0.671   4.188   3.131
 1179SOL    HW1 3553   0.637   4.099   3.101
 1179SOL    HW2 3554   0.697   4.242   3.051
 1180SOL     OW 3555   0.473   4.224   2.053
 1180SOL    HW1 3556   0.534   4.304   2.057
 1180SOL    HW2 3557   0.378   4.255   2.060
 1181SOL     OW 3558   1.726   3.859   2.385
 1181SOL    HW1 3559   1.799   3.842   2.318
 1181SOL    HW2 3560   1.695   3.772   2.423
 1182SOL     OW 3561   1.280   4.651   2.534
 1182SOL    HW1 3562   1.340   4.570   2.536
 1182SOL    HW2 3563   1.320   4.720   2.474
 1183SOL     OW 3564   1.841   3.899   2.825
 1183SOL    HW1 3565   1.880   3.814   2.789
 1183SOL    HW2 3566   1.743   3.901   2.806
 1184SOL     OW 3567   0.263   4.050   2.582
 1184SOL    HW1 3568   0.184   4.101   2.548
 1184SOL    HW2 3569   0.254   4.035   2.680
 1185SOL     OW 3570   0.916   4.634   2.153
 1185SOL    HW1 3571   0.979   4.672   2.085
 1185SOL    HW2 3572   0.956   4.551   2.192
 1186SOL     OW 3573   1.039   4.822   2.558
 1186SOL    HW1 3574   0.969   4.775   2.612
 1186SOL    HW2 3575   1.098   4.754   2.515
 1187SOL     OW 3576   1.014   3.960   2.833
 1187SOL    HW1 3577   1.006   3.924   2.740
 1187SOL    HW2 3578   1.012   3.884   2.898
 1188SOL     OW 3579   1.709   4.109   3.243
 1188SOL    HW1 3580   1.782   4.178   3.247
 1188SOL    HW2 3581   1.737   4.034   3.184
 1189SOL     OW 3582   0.672   3.927   3.351
 1189SOL    HW1 3583   0.762   3.911   3.311
 1189SOL    HW2 3584   0.680   3.932   3.450
 1190SOL     OW 3585   0.075   4.069   1.895
 1190SOL    HW1 3586  -0.017   4.041   1.866
 1190SOL    HW2 3587   0.106   4.146   1.839
 1191SOL     OW 3588   0.072   3.890   2.180
 1191SOL    HW1 3589   0.055   3.973   2.126
 1191SOL    HW2 3590   0.162   3.853   2.158
 1192SOL     OW 3591   0.716   4.289   3.570
 1192SOL    HW1 3592   0.735   4.354   3.644
 1192SOL    HW2 3593   0.776   4.209   3.579
 1193SOL     OW 3594   1.225   4.049   2.311
 1193SOL    HW1 3595   1.290   3.975   2.300
 1193SOL    HW2 3596   1.245   4.099   2.395
 1194SOL     OW 3597   1.777   4.066   3.504
 1194SOL    HW1 3598   1.760   4.097   3.410
 1194SOL    HW2 3599   1.693   4.029   3.542
 1195SOL     OW 3600   1.083   4.708   1.949
 1195SOL    HW1 3601   1.060   4.761   1.867
 1195SOL    HW2 3602   1.164   4.652   1.930
 1196SOL     OW 3603   1.824   3.916   3.089
 1196SOL    HW1 3604   1.820   3.826   3.133
 1196SOL    HW2 3605   1.827   3.905   2.990
 1197SOL     OW 3606   0.428   4.148   2.382
 1197SOL    HW1 3607   0.458   4.076   2.320
 1197SOL    HW2 3608   0.389   4.108   2.465
 1198SOL     OW 3609   0.317   4.271   3.142
 1198SOL    HW1 3610   0.355   4.212   3.214
 1198SOL    HW2 3611   0.357   4.245   3.054
 1199SOL     OW 3612   1.424   3.938   2.974
 1199SOL    HW1 3613   1.476   3.873   3.029
 1199SOL    HW2 3614   1.375   4.001   3.035
 1200SOL     OW 3615   1.001   3.758   3.016
 1200SOL    HW1 3616   0.938   3.686   2.985
 1200SOL    HW2 3617   1.094   3.722   3.016
 1201SOL     OW 3618   1.352   3.776   2.030
 1201SOL    HW1 3619   1.387   3.735   1.946
 1201SOL    HW2 3620   1.262   3.738   2.050
 1202SOL     OW 3621   1.300   4.177   2.553
 1202SOL    HW1 3622   1.241   4.257   2.557
 1202SOL    HW2 3623   1.315   4.142   2.646
 1203SOL     OW 3624   1.593   3.945   2.744
 1203SOL    HW1 3625   1.509   3.944   2.798
 1203SOL    HW2 3626   1.595   4.028   2.688
 1204SOL     OW 3627   0.230   4.352   3.837
 1204SOL    HW1 3628   0.137   4.350   3.874
 1204SOL    HW2 3629   0.231   4.313   3.745
 1205SOL     OW 3630   0.019   4.092   4.371
 1205SOL    HW1 3631  -0.063   4.135   4.410
 1205SOL    HW2 3632  -0.009   4.019   4.308
 1206SOL     OW 3633   1.755   4.331   3.955
 1206SOL    HW1 3634   1.743   4.318   3.856
 1206SOL    HW2 3635   1.725   4.250   4.004
 1207SOL     OW 3636   0.685   4.736   4.389
 1207SOL    HW1 3637   0.754   4.720   4.459
 1207SOL    HW2 3638   0.612   4.793   4.427
 1208SOL     OW 3639   1.603   4.171   4.461
 1208SOL    HW1 3640   1.529   4.217   4.411
 1208SOL    HW2 3641   1.654   4.239   4.514
 1209SOL     OW 3642   0.122   4.367   4.287
 1209SOL    HW1 3643   0.077   4.279   4.304
 1209SOL    HW2 3644   0.121   4.421   4.371
 1210SOL     OW 3645   0.809   3.728   4.226
 1210SOL    HW1 3646   0.849   3.819   4.217
 1210SOL    HW2 3647   0.709   3.736   4.232
 1211SOL     OW 3648   1.281   4.069   4.668
 1211SOL    HW1 3649   1.195   4.019   4.655
 1211SOL    HW2 3650   1.343   4.015   4.724
 1212SOL     OW 3651   1.041   4.425   4.153
 1212SOL    HW1 3652   1.067   4.421   4.249
 1212SOL    HW2 3653   0.956   4.374   4.139
 1213SOL     OW 3654   0.076   4.535   4.513
 1213SOL    HW1 3655   0.175   4.523   4.522
 1213SOL    HW2 3656   0.052   4.630   4.534
 1214SOL     OW 3657   0.865   4.072   3.919
 1214SOL    HW1 3658   0.924   4.135   3.870
 1214SOL    HW2 3659   0.884   3.978   3.890
 1215SOL     OW 3660   1.400   3.831   4.150
 1215SOL    HW1 3661   1.376   3.794   4.060
 1215SOL    HW2 3662   1.499   3.847   4.154
 1216SOL     OW 3663   0.382   4.424   4.204
 1216SOL    HW1 3664   0.427   4.334   4.201
 1216SOL    HW2 3665   0.288   4.413   4.237
 1217SOL     OW 3666   0.614   3.846   3.841
 1217SOL    HW1 3667   0.712   3.824   3.848
 1217SOL    HW2 3668   0.583   3.829   3.748
 1218SOL     OW 3669   0.539   3.788   4.236
 1218SOL    HW1 3670   0.458   3.789   4.294
 1218SOL    HW2 3671   0.542   3.871   4.181
 1219SOL     OW 3672   0.297   3.759   3.895
 1219SOL    HW1 3673   0.346   3.843   3.874
 1219SOL    HW2 3674   0.359   3.694   3.940
 1220SOL     OW 3675   0.935   3.960   4.204
 1220SOL    HW1 3676   0.887   4.001   4.126
 1220SOL    HW2 3677   1.034   3.958   4.185
 1221SOL     OW 3678   1.032   4.273   3.740
 1221SOL    HW1 3679   0.991   4.355   3.701
 1221SOL    HW2 3680   1.096   4.299   3.813
 1222SOL     OW 3681   0.866   4.178   4.366
 1222SOL    HW1 3682   0.834   4.250   4.304
 1222SOL    HW2 3683   0.890   4.097   4.313
 1223SOL     OW 3684   1.390   4.299   3.802
 1223SOL    HW1 3685   1.336   4.278   3.883
 1223SOL    HW2 3686   1.481   4.258   3.811
 1224SOL     OW 3687   0.527   3.980   4.052
 1224SOL    HW1 3688   0.554   3.921   3.977
 1224SOL    HW2 3689   0.527   4.075   4.021
 1225SOL     OW 3690   1.582   4.363   4.196
 1225SOL    HW1 3691   1.551   4.424   4.269
 1225SOL    HW2 3692   1.632   4.415   4.127
 1226SOL     OW 3693   1.209   4.249   3.999
 1226SOL    HW1 3694   1.222   4.165   4.053
 1226SOL    HW2 3695   1.180   4.323   4.059
 1227SOL     OW 3696   0.307   3.787   4.342
 1227SOL    HW1 3697   0.296   3.881   4.375
 1227SOL    HW2 3698   0.302   3.724   4.419
 1228SOL     OW 3699   1.622   4.091   4.098
 1228SOL    HW1 3700   1.624   4.015   4.162
 1228SOL    HW2 3701   1.574   4.168   4.138
 1229SOL     OW 3702   1.540   3.998   3.849
 1229SOL    HW1 3703   1.479   3.923   3.872
 1229SOL    HW2 3704   1.562   4.050   3.932
 1230SOL     OW 3705   0.815   4.296   4.049
 1230SOL    HW1 3706   0.822   4.207   4.003
 1230SOL    HW2 3707   0.721   4.330   4.041
 1231SOL     OW 3708   0.473   4.224   3.915
 1231SOL    HW1 3709   0.534   4.304   3.919
 1231SOL    HW2 3710   0.378   4.255   3.922
 1232SOL     OW 3711   1.726   3.859   4.247
 1232SOL    HW1 3712   1.799   3.842   4.180
 1232SOL    HW2 3713   1.695   3.772   4.285
 1233SOL     OW 3714   1.280   4.651   4.396
 1233SOL    HW1 3715   1.340   4.570   4.398
 1233SOL    HW2 3716   1.320   4.720   4.336
 1234SOL     OW 3717   0.916   4.634   4.015
 1234SOL    HW1 3718   0.979   4.672   3.947
 1234SOL    HW2 3719   0.956   4.551   4.054
 1235SOL     OW 3720   0.075   4.069   3.757
 1235SOL    HW1 3721  -0.017   4.041   3.728
 1235SOL    HW2 3722   0.106   4.146   3.701
 1236SOL     OW 3723   0.072   3.890   4.042
 1236SOL    HW1 3724   0.055   3.973   3.988
 1236SOL    HW2 3725   0.162   3.853   4.020
 1237SOL     OW 3726   1.225   4.049   4.173
 1237SOL    HW1 3727   1.290   3.975   4.162
 1237SOL    HW2 3728   1.245   4.099   4.257
 1238SOL     OW 3729   1.083   4.708   3.811
 1238SOL    HW1 3730   1.060   4.761   3.729
 1238SOL    HW2 3731   1.164   4.652   3.792
 1239SOL     OW 3732   0.428   4.148   4.244
 1239SOL    HW1 3733   0.458   4.076   4.182
 1239SOL    HW2 3734   0.389   4.108   4.327
 1240SOL     OW 3735   1.352   3.776   3.892
 1240SOL    HW1 3736   1.387   3.735   3.808
 1240SOL    HW2 3737   1.262   3.738   3.912
 1241SOL     OW 3738   1.300   4.177   4.415
 1241SOL    HW1 3739   1.241   4.257   4.419
 1241SOL    HW2 3740   1.315   4.142   4.508
 1242SOL     OW 3741   2.092   0.628   0.113
 1242SOL    HW1 3742   1.999   0.626   0.150
 1242SOL    HW2 3743   2.093   0.589   0.021
 1243SOL     OW 3744   2.087   0.275   0.996
 1243SOL    HW1 3745   2.122   0.258   1.088
 1243SOL    HW2 3746   1.999   0.230   0.984
 1244SOL     OW 3747   1.881   0.368   0.647
 1244SOL    HW1 3748   1.799   0.411   0.686
 1244SOL    HW2 3749   1.853   0.295   0.584
 1245SOL     OW 3750   2.431   1.275   1.165
 1245SOL    HW1 3751   2.338   1.268   1.128
 1245SOL    HW2 3752   2.442   1.364   1.209
 1246SOL     OW 3753   3.417   1.511   0.703
 1246SOL    HW1 3754   3.360   1.495   0.784
 1246SOL    HW2 3755   3.358   1.521   0.623
 1247SOL     OW 3756   2.997   0.703   0.717
 1247SOL    HW1 3757   3.054   0.781   0.692
 1247SOL    HW2 3758   2.937   0.729   0.793
 1248SOL     OW 3759   3.617   0.607   0.231
 1248SOL    HW1 3760   3.605   0.594   0.132
 1248SOL    HW2 3761   3.587   0.526   0.280
 1249SOL     OW 3762   2.630   1.144   1.023
 1249SOL    HW1 3763   2.552   1.161   1.083
 1249SOL    HW2 3764   2.664   1.231   0.987
 1250SOL     OW 3765   2.712   0.798   1.823
 1250SOL    HW1 3766   2.708   0.874   1.888
 1250SOL    HW2 3767   2.734   0.834   1.732
 1251SOL     OW 3768   2.547   1.012   0.665
 1251SOL    HW1 3769   2.616   0.996   0.735
 1251SOL    HW2 3770   2.474   1.069   0.703
 1252SOL     OW 3771   2.548   1.161   1.803
 1252SOL    HW1 3772   2.608   1.240   1.817
 1252SOL    HW2 3773   2.462   1.192   1.762
 1253SOL     OW 3774   2.197   1.435   1.061
 1253SOL    HW1 3775   2.119   1.404   1.008
 1253SOL    HW2 3776   2.255   1.493   1.004
 1254SOL     OW 3777   3.322   1.505   1.339
 1254SOL    HW1 3778   3.346   1.599   1.365
 1254SOL    HW2 3779   3.306   1.451   1.421
 1255SOL     OW 3780   2.300   0.392   1.499
 1255SOL    HW1 3781   2.382   0.336   1.508
 1255SOL    HW2 3782   2.219   0.334   1.503
 1256SOL     OW 3783   3.465   0.447   0.737
 1256SOL    HW1 3784   3.391   0.493   0.687
 1256SOL    HW2 3785   3.516   0.515   0.790
 1257SOL     OW 3786   2.093   1.713   0.483
 1257SOL    HW1 3787   2.127   1.790   0.537
 1257SOL    HW2 3788   2.137   1.713   0.393
 1258SOL     OW 3789   2.989   1.341   1.690
 1258SOL    HW1 3790   3.036   1.341   1.778
 1258SOL    HW2 3791   2.941   1.254   1.679
 1259SOL     OW 3792   2.092   1.434   0.538
 1259SOL    HW1 3793   2.066   1.530   0.538
 1259SOL    HW2 3794   2.021   1.380   0.583
 1260SOL     OW 3795   2.102   1.091   0.886
 1260SOL    HW1 3796   2.116   1.007   0.938
 1260SOL    HW2 3797   2.047   1.155   0.941
 1261SOL     OW 3798   2.482   1.786   1.439
 1261SOL    HW1 3799   2.390   1.769   1.474
 1261SOL    HW2 3800   2.510   1.878   1.465
 1262SOL     OW 3801   2.468   0.964   0.123
 1262SOL    HW1 3802   2.475   1.048   0.069
 1262SOL    HW2 3803   2.514   0.977   0.211
 1263SOL     OW 3804   3.456   0.114   1.480
 1263SOL    HW1 3805   3.438   0.181   1.408
 1263SOL    HW2 3806   3.453   0.160   1.569
 1264SOL     OW 3807   1.984   0.643   0.563
 1264SOL    HW1 3808   1.939   0.555   0.580
 1264SOL    HW2 3809   1.983   0.697   0.647
 1265SOL     OW 3810   3.704   1.767   0.359
 1265SOL    HW1 3811   3.758   1.738   0.439
 1265SOL    HW2 3812   3.734   1.857   0.330
 1266SOL     OW 3813   1.889   1.596   0.117
 1266SOL    HW1 3814   1.870   1.500   0.138
 1266SOL    HW2 3815   1.856   1.654   0.192
 1267SOL     OW 3816   3.551   0.922   0.612
 1267SOL    HW1 3817   3.646   0.893   0.620
 1267SOL    HW2 3818   3.543   0.987   0.537
 1268SOL     OW 3819   3.503   1.108   0.432
 1268SOL    HW1 3820   3.589   1.110   0.380
 1268SOL    HW2 3821   3.517   1.155   0.520
 1269SOL     OW 3822   1.975   0.737   1.597
 1269SOL    HW1 3823   2.063   0.724   1.642
 1269SOL    HW2 3824   1.962   0.834   1.575
 1270SOL     OW 3825   2.475   1.365   0.726
 1270SOL    HW1 3826   2.426   1.278   0.735
 1270SOL    HW2 3827   2.452   1.408   0.639
 1271SOL     OW 3828   3.155   1.228   1.423
 1271SOL    HW1 3829   3.192   1.155   1.365
 1271SOL    HW2 3830   3.207   1.233   1.508
 1272SOL     OW 3831   2.671   0.004   0.502
 1272SOL    HW1 3832   2.711   0.095   0.493
 1272SOL    HW2 3833   2.571   0.012   0.508
 1273SOL     OW 3834   2.059   0.976   1.264
 1273SOL    HW1 3835   2.148   0.931   1.250
 1273SOL    HW2 3836   1.986   0.911   1.245
 1274SOL     OW 3837   3.387   0.999   0.190
 1274SOL    HW1 3838   3.324   0.923   0.203
 1274SOL    HW2 3839   3.435   1.017   0.276
 1275SOL     OW 3840   3.049   1.792   1.616
 1275SOL    HW1 3841   3.073   1.852   1.540
 1275SOL    HW2 3842   3.056   1.697   1.586
 1276SOL     OW 3843   2.179   0.251   1.801
 1276SOL    HW1 3844   2.250   0.322   1.807
 1276SOL    HW2 3845   2.091   0.290   1.829
 1277SOL     OW 3846   3.328   1.417   0.953
 1277SOL    HW1 3847   3.269   1.423   1.033
 1277SOL    HW2 3848   3.313   1.329   0.907
 1278SOL     OW 3849   3.529   1.714   0.572
 1278SOL    HW1 3850   3.488   1.691   0.484
 1278SOL    HW2 3851   3.511   1.640   0.637
 1279SOL     OW 3852   2.460   0.729   0.270
 1279SOL    HW1 3853   2.484   0.798   0.202
 1279SOL    HW2 3854   2.382   0.762   0.324
 1280SOL     OW 3855   3.143   0.345   0.944
 1280SOL    HW1 3856   3.057   0.295   0.931
 1280SOL    HW2 3857   3.205   0.291   1.000
 1281SOL     OW 3858   3.438   1.662   0.307
 1281SOL    HW1 3859   3.527   1.708   0.310
 1281SOL    HW2 3860   3.417   1.638   0.212
 1282SOL     OW 3861   2.669   0.605   1.465
 1282SOL    HW1 3862   2.622   0.602   1.554
 1282SOL    HW2 3863   2.618   0.550   1.399
 1283SOL     OW 3864   3.256   0.469   1.674
 1283SOL    HW1 3865   3.236   0.512   1.762
 1283SOL    HW2 3866   3.334   0.407   1.683
 1284SOL     OW 3867   2.835   0.890   1.572
 1284SOL    HW1 3868   2.881   0.806   1.543
 1284SOL    HW2 3869   2.779   0.924   1.497
 1285SOL     OW 3870   2.853   0.410   1.242
 1285SOL    HW1 3871   2.776   0.444   1.296
 1285SOL    HW2 3872   2.819   0.359   1.163
 1286SOL     OW 3873   2.903   0.701   0.429
 1286SOL    HW1 3874   2.929   0.697   0.525
 1286SOL    HW2 3875   2.818   0.650   0.415
 1287SOL     OW 3876   1.938   0.811   0.789
 1287SOL    HW1 3877   2.037   0.799   0.798
 1287SOL    HW2 3878   1.914   0.906   0.810
 1288SOL     OW 3879   1.992   1.821   1.571
 1288SOL    HW1 3880   1.982   1.806   1.670
 1288SOL    HW2 3881   1.906   1.857   1.535
 1289SOL     OW 3882   2.727   0.348   0.195
 1289SOL    HW1 3883   2.786   0.411   0.146
 1289SOL    HW2 3884   2.746   0.254   0.166
 1290SOL     OW 3885   3.581   0.585   1.831
 1290SOL    HW1 3886   3.555   0.674   1.795
 1290SOL    HW2 3887   3.579   0.517   1.758
 1291SOL     OW 3888   3.224   1.144   0.545
 1291SOL    HW1 3889   3.307   1.115   0.497
 1291SOL    HW2 3890   3.175   1.211   0.489
 1292SOL     OW 3891   2.412   0.196   0.885
 1292SOL    HW1 3892   2.407   0.191   0.985
 1292SOL    HW2 3893   2.414   0.292   0.856
 1293SOL     OW 3894   2.870   1.456   0.477
 1293SOL    HW1 3895   2.824   1.528   0.425
 1293SOL    HW2 3896   2.866   1.476   0.575
 1294SOL     OW 3897   2.213   1.801   0.853
 1294SOL    HW1 3898   2.263   1.715   0.859
 1294SOL    HW2 3899   2.278   1.878   0.850
 1295SOL     OW 3900   3.657   1.066   0.873
 1295SOL    HW1 3901   3.595   1.051   0.797
 1295SOL    HW2 3902   3.605   1.077   0.958
 1296SOL     OW 3903   3.089   1.550   1.506
 1296SOL    HW1 3904   3.095   1.473   1.570
 1296SOL    HW2 3905   3.037   1.524   1.426
 1297SOL     OW 3906   2.183   0.943   0.242
 1297SOL    HW1 3907   2.265   0.982   0.200
 1297SOL    HW2 3908   2.156   0.861   0.193
 1298SOL     OW 3909   3.320   0.735   0.728
 1298SOL    HW1 3910   3.315   0.670   0.803
 1298SOL    HW2 3911   3.400   0.794   0.741
 1299SOL     OW 3912   2.323   1.266   1.727
 1299SOL    HW1 3913   2.273   1.267   1.641
 1299SOL    HW2 3914   2.260   1.248   1.803
 1300SOL     OW 3915   2.973   1.776   0.237
 1300SOL    HW1 3916   2.913   1.714   0.287
 1300SOL    HW2 3917   3.004   1.732   0.152
 1301SOL     OW 3918   2.064   0.285   1.498
 1301SOL    HW1 3919   1.984   0.345   1.485
 1301SOL    HW2 3920   2.054   0.236   1.584
 1302SOL     OW 3921   3.494   1.377   0.081
 1302SOL    HW1 3922   3.462   1.471   0.071
 1302SOL    HW2 3923   3.418   1.314   0.069
 1303SOL     OW 3924   2.326   1.743   0.323
 1303SOL    HW1 3925   2.359   1.782   0.409
 1303SOL    HW2 3926   2.402   1.736   0.258
 1304SOL     OW 3927   3.262   0.107   0.426
 1304SOL    HW1 3928   3.238   0.070   0.336
 1304SOL    HW2 3929   3.361   0.123   0.430
 1305SOL     OW 3930   2.111   1.785   1.241
 1305SOL    HW1 3931   2.168   1.720   1.291
 1305SOL    HW2 3932   2.095   1.752   1.148
 1306SOL     OW 3933   2.802   1.698   0.904
 1306SOL    HW1 3934   2.882   1.641   0.925
 1306SOL    HW2 3935   2.753   1.658   0.827
 1307SOL     OW 3936   2.244   0.700   0.480
 1307SOL    HW1 3937   2.289   0.610   0.477
 1307SOL    HW2 3938   2.150   0.689   0.513
 1308SOL     OW 3939   3.409   0.222   1.729
 1308SOL    HW1 3940   3.404   0.259   1.821
 1308SOL    HW2 3941   3.337   0.153   1.717
 1309SOL     OW 3942   2.476   0.122   0.117
 1309SOL    HW1 3943   2.574   0.100   0.124
 1309SOL    HW2 3944   2.445   0.105   0.024
 1310SOL     OW 3945   2.643   0.264   1.749
 1310SOL    HW1 3946   2.710   0.203   1.792
 1310SOL    HW2 3947   2.570   0.283   1.814
 1311SOL     OW 3948   2.750   1.514   1.195
 1311SOL    HW1 3949   2.727   1.489   1.101
 1311SOL    HW2 3950   2.811   1.445   1.234
 1312SOL     OW 3951   3.213   0.590   1.433
 1312SOL    HW1 3952   3.241   0.547   1.518
 1312SOL    HW2 3953   3.238   0.686   1.434
 1313SOL     OW 3954   2.665   1.402   0.924
 1313SOL    HW1 3955   2.755   1.416   0.882
 1313SOL    HW2 3956   2.594   1.404   0.853
 1314SOL     OW 3957   2.784   0.503   0.899
 1314SOL    HW1 3958   2.759   0.494   0.803
 1314SOL    HW2 3959   2.832   0.421   0.930
 1315SOL     OW 3960   2.401   0.064   0.512
 1315SOL    HW1 3961   2.320   0.065   0.570
 1315SOL    HW2 3962   2.404   0.147   0.457
 1316SOL     OW 3963   3.296   1.188   0.041
 1316SOL    HW1 3964   3.328   1.112   0.098
 1316SOL    HW2 3965   3.204   1.215   0.071
 1317SOL     OW 3966   2.159   0.035   0.171
 1317SOL    HW1 3967   2.208   0.119   0.150
 1317SOL    HW2 3968   2.221  -0.030   0.216
 1318SOL     OW 3969   2.797   0.236   0.480
 1318SOL    HW1 3970   2.749   0.277   0.402
 1318SOL    HW2 3971   2.896   0.234   0.461
 1319SOL     OW 3972   2.938   0.683   1.464
 1319SOL    HW1 3973   2.858   0.622   1.467
 1319SOL    HW2 3974   3.019   0.630   1.440
 1320SOL     OW 3975   3.089   1.570   0.793
 1320SOL    HW1 3976   3.110   1.644   0.728
 1320SOL    HW2 3977   3.157   1.570   0.866
 1321SOL     OW 3978   2.321   1.152   0.741
 1321SOL    HW1 3979   2.250   1.125   0.806
 1321SOL    HW2 3980   2.295   1.124   0.648
 1322SOL     OW 3981   3.133   1.797   0.591
 1322SOL    HW1 3982   3.177   1.861   0.527
 1322SOL    HW2 3983   3.083   1.849   0.661
 1323SOL     OW 3984   2.894   0.549   0.016
 1323SOL    HW1 3985   2.853   0.631  -0.023
 1323SOL    HW2 3986   2.958   0.575   0.089
 1324SOL     OW 3987   1.940   0.556   1.386
 1324SOL    HW1 3988   2.032   0.555   1.345
 1324SOL    HW2 3989   1.934   0.630   1.453
 1325SOL     OW 3990   2.423   0.222   1.147
 1325SOL    HW1 3991   2.461   0.138   1.184
 1325SOL    HW2 3992   2.335   0.241   1.191
 1326SOL     OW 3993   2.728   0.454   0.642
 1326SOL    HW1 3994   2.696   0.526   0.580
 1326SOL    HW2 3995   2.752   0.373   0.589
 1327SOL     OW 3996   2.879   0.039   0.753
 1327SOL    HW1 3997   2.807   0.044   0.684
 1327SOL    HW2 3998   2.855  -0.030   0.822
 1328SOL     OW 3999   3.291   1.173   0.867
 1328SOL    HW1 4000   3.236   1.089   0.860
 1328SOL    HW2 4001   3.317   1.202   0.775
 1329SOL     OW 4002   3.328   0.590   0.992
 1329SOL    HW1 4003   3.298   0.495   0.999
 1329SOL    HW2 4004   3.401   0.606   1.058
 1330SOL     OW 4005   3.719   0.833   0.377
 1330SOL    HW1 4006   3.761   0.769   0.441
 1330SOL    HW2 4007   3.681   0.782   0.299
 1331SOL     OW 4008   2.350   1.385   0.174
 1331SOL    HW1 4009   2.263   1.370   0.221
 1331SOL    HW2 4010   2.333   1.411   0.079
 1332SOL     OW 4011   3.526   1.280   0.657
 1332SOL    HW1 4012   3.625   1.288   0.671
 1332SOL    HW2 4013   3.481   1.364   0.688
 1333SOL     OW 4014   3.252   0.575   0.078
 1333SOL    HW1 4015   3.198   0.554   0.159
 1333SOL    HW2 4016   3.343   0.534   0.087
 1334SOL     OW 4017   2.389   0.256   0.328
 1334SOL    HW1 4018   2.416   0.197   0.253
 1334SOL    HW2 4019   2.389   0.351   0.297
 1335SOL     OW 4020   3.616   1.223   1.588
 1335SOL    HW1 4021   3.707   1.184   1.575
 1335SOL    HW2 4022   3.624   1.319   1.612
 1336SOL     OW 4023   2.926   1.347   1.340
 1336SOL    HW1 4024   2.846   1.324   1.395
 1336SOL    HW2 4025   3.009   1.321   1.389
 1337SOL     OW 4026   3.454   1.629   1.625
 1337SOL    HW1 4027   3.481   1.663   1.535
 1337SOL    HW2 4028   3.533   1.591   1.671
 1338SOL     OW 4029   2.973   1.195   1.100
 1338SOL    HW1 4030   2.933   1.239   1.181
 1338SOL    HW2 4031   2.932   1.232   1.017
 1339SOL     OW 4032   3.500   1.099   1.079
 1339SOL    HW1 4033   3.505   1.180   1.138
 1339SOL    HW2 4034   3.414   1.101   1.028
 1340SOL     OW 4035   2.777   0.089   1.402
 1340SOL    HW1 4036   2.802   0.069   1.307
 1340SOL    HW2 4037   2.849   0.145   1.444
 1341SOL     OW 4038   2.842   1.116   1.719
 1341SOL    HW1 4039   2.743   1.122   1.729
 1341SOL    HW2 4040   2.865   1.036   1.663
 1342SOL     OW 4041   2.567   1.050   0.368
 1342SOL    HW1 4042   2.553   1.057   0.467
 1342SOL    HW2 4043   2.651   0.999   0.350
 1343SOL     OW 4044   2.272   0.813   1.251
 1343SOL    HW1 4045   2.358   0.825   1.301
 1343SOL    HW2 4046   2.230   0.726   1.278
 1344SOL     OW 4047   3.136   0.386   1.262
 1344SOL    HW1 4048   3.157   0.460   1.326
 1344SOL    HW2 4049   3.047   0.403   1.219
 1345SOL     OW 4050   1.926   1.564   1.331
 1345SOL    HW1 4051   1.880   1.646   1.297
 1345SOL    HW2 4052   2.024   1.583   1.340
 1346SOL     OW 4053   2.229   1.100   0.501
 1346SOL    HW1 4054   2.222   1.183   0.445
 1346SOL    HW2 4055   2.233   1.020   0.441
 1347SOL     OW 4056   2.428   0.537   0.865
 1347SOL    HW1 4057   2.440   0.603   0.791
 1347SOL    HW2 4058   2.474   0.571   0.948
 1348SOL     OW 4059   3.114   1.348   0.388
 1348SOL    HW1 4060   3.164   1.425   0.428
 1348SOL    HW2 4061   3.019   1.350   0.420
 1349SOL     OW 4062   3.134   1.445   1.142
 1349SOL    HW1 4063   3.181   1.458   1.229
 1349SOL    HW2 4064   3.068   1.371   1.151
 1350SOL     OW 4065   3.444   0.639   0.472
 1350SOL    HW1 4066   3.413   0.700   0.545
 1350SOL    HW2 4067   3.494   0.691   0.403
 1351SOL     OW 4068   2.216   1.510   1.329
 1351SOL    HW1 4069   2.195   1.466   1.242
 1351SOL    HW2 4070   2.313   1.536   1.332
 1352SOL     OW 4071   2.264   0.751   1.598
 1352SOL    HW1 4072   2.332   0.806   1.551
 1352SOL    HW2 4073   2.304   0.663   1.625
 1353SOL     OW 4074   3.449   0.779   1.670
 1353SOL    HW1 4075   3.357   0.817   1.665
 1353SOL    HW2 4076   3.509   0.826   1.605
 1354SOL     OW 4077   2.875   0.105   1.770
 1354SOL    HW1 4078   2.881   0.190   1.718
 1354SOL    HW2 4079   2.907   0.029   1.713
 1355SOL     OW 4080   2.366   0.050   1.740
 1355SOL    HW1 4081   2.324  -0.007   1.670
 1355SOL    HW2 4082   2.300   0.119   1.772
 1356SOL     OW 4083   2.435   0.870   1.029
 1356SOL    HW1 4084   2.479   0.959   1.020
 1356SOL    HW2 4085   2.372   0.870   1.106
 1357SOL     OW 4086   3.222   0.862   1.045
 1357SOL    HW1 4087   3.147   0.862   0.979
 1357SOL    HW2 4088   3.259   0.770   1.054
 1358SOL     OW 4089   3.071   0.525   0.275
 1358SOL    HW1 4090   3.084   0.441   0.329
 1358SOL    HW2 4091   3.042   0.599   0.335
 1359SOL     OW 4092   2.169   0.213   1.231
 1359SOL    HW1 4093   2.146   0.250   1.321
 1359SOL    HW2 4094   2.139   0.118   1.225
 1360SOL     OW 4095   1.899   1.310   1.282
 1360SOL    HW1 4096   1.952   1.261   1.350
 1360SOL    HW2 4097   1.921   1.408   1.287
 1361SOL     OW 4098   2.594   0.634   1.064
 1361SOL    HW1 4099   2.653   0.608   0.988
 1361SOL    HW2 4100   2.566   0.730   1.053
 1362SOL     OW 4101   3.590   0.935   1.854
 1362SOL    HW1 4102   3.544   0.928   1.765
 1362SOL    HW2 4103   3.528   0.979   1.920
 1363SOL     OW 4104   2.169   0.063   0.618
 1363SOL    HW1 4105   2.158   0.157   0.651
 1363SOL    HW2 4106   2.164   0.000   0.695
 1364SOL     OW 4107   3.484   0.367   0.374
 1364SOL    HW1 4108   3.486   0.291   0.438
 1364SOL    HW2 4109   3.436   0.444   0.414
 1365SOL     OW 4110   2.885   0.766   0.966
 1365SOL    HW1 4111   2.900   0.787   1.062
 1365SOL    HW2 4112   2.855   0.671   0.957
 1366SOL     OW 4113   2.842   1.573   1.700
 1366SOL    HW1 4114   2.822   1.617   1.612
 1366SOL    HW2 4115   2.881   1.482   1.684
 1367SOL     OW 4116   3.721   1.518   1.605
 1367SOL    HW1 4117   3.735   1.545   1.510
 1367SOL    HW2 4118   3.804   1.540   1.658
 1368SOL     OW 4119   2.212   0.898   1.804
 1368SOL    HW1 4120   2.288   0.942   1.852
 1368SOL    HW2 4121   2.247   0.851   1.722
 1369SOL     OW 4122   3.402   0.274   0.125
 1369SOL    HW1 4123   3.341   0.199   0.148
 1369SOL    HW2 4124   3.424   0.326   0.208
 1370SOL     OW 4125   3.165   0.838   0.042
 1370SOL    HW1 4126   3.199   0.745   0.057
 1370SOL    HW2 4127   3.183   0.865  -0.053
 1371SOL     OW 4128   2.930   1.333   0.849
 1371SOL    HW1 4129   2.937   1.249   0.794
 1371SOL    HW2 4130   2.992   1.402   0.813
 1372SOL     OW 4131   2.181   0.810   0.949
 1372SOL    HW1 4132   2.274   0.846   0.954
 1372SOL    HW2 4133   2.175   0.725   1.001
 1373SOL     OW 4134   2.201   0.509   1.006
 1373SOL    HW1 4135   2.149   0.426   0.989
 1373SOL    HW2 4136   2.278   0.514   0.942
 1374SOL     OW 4137   3.000   0.380   1.678
 1374SOL    HW1 4138   2.955   0.443   1.742
 1374SOL    HW2 4139   3.093   0.411   1.661
 1375SOL     OW 4140   3.022   0.207   1.477
 1375SOL    HW1 4141   3.022   0.271   1.554
 1375SOL    HW2 4142   3.050   0.255   1.394
 1376SOL     OW 4143   1.870   1.326   0.200
 1376SOL    HW1 4144   1.777   1.347   0.169
 1376SOL    HW2 4145   1.880   1.227   0.213
 1377SOL     OW 4146   1.950   1.801   0.927
 1377SOL    HW1 4147   1.908   1.715   0.900
 1377SOL    HW2 4148   2.044   1.804   0.893
 1378SOL     OW 4149   2.366   1.568   0.910
 1378SOL    HW1 4150   2.432   1.642   0.919
 1378SOL    HW2 4151   2.410   1.489   0.868
 1379SOL     OW 4152   2.864   0.796   1.238
 1379SOL    HW1 4153   2.905   0.764   1.324
 1379SOL    HW2 4154   2.768   0.769   1.235
 1380SOL     OW 4155   1.902   0.544   1.114
 1380SOL    HW1 4156   1.987   0.511   1.073
 1380SOL    HW2 4157   1.915   0.559   1.212
 1381SOL     OW 4158   2.051   0.520   1.722
 1381SOL    HW1 4159   2.110   0.480   1.652
 1381SOL    HW2 4160   1.993   0.591   1.681
 1382SOL     OW 4161   3.231   0.950   1.660
 1382SOL    HW1 4162   3.270   1.039   1.680
 1382SOL    HW2 4163   3.241   0.930   1.563
 1383SOL     OW 4164   2.677   0.572   0.325
 1383SOL    HW1 4165   2.684   0.483   0.279
 1383SOL    HW2 4166   2.583   0.606   0.317
 1384SOL     OW 4167   3.519   0.604   1.206
 1384SOL    HW1 4168   3.481   0.535   1.268
 1384SOL    HW2 4169   3.601   0.568   1.162
 1385SOL     OW 4170   2.114   1.564   1.744
 1385SOL    HW1 4171   2.084   1.621   1.820
 1385SOL    HW2 4172   2.107   1.467   1.770
 1386SOL     OW 4173   2.533   0.464   1.269
 1386SOL    HW1 4174   2.499   0.375   1.239
 1386SOL    HW2 4175   2.559   0.518   1.189
 1387SOL     OW 4176   2.792   1.678   1.465
 1387SOL    HW1 4177   2.768   1.660   1.370
 1387SOL    HW2 4178   2.822   1.772   1.475
 1388SOL     OW 4179   2.335   0.500   0.191
 1388SOL    HW1 4180   2.396   0.580   0.195
 1388SOL    HW2 4181   2.240   0.531   0.198
 1389SOL     OW 4182   2.021   1.137   1.466
 1389SOL    HW1 4183   2.043   1.076   1.542
 1389SOL    HW2 4184   2.031   1.088   1.380
 1390SOL     OW 4185   3.209   1.059   1.234
 1390SOL    HW1 4186   3.233   0.996   1.160
 1390SOL    HW2 4187   3.119   1.099   1.216
 1391SOL     OW 4188   3.164   0.855   0.309
 1391SOL    HW1 4189   3.078   0.824   0.351
 1391SOL    HW2 4190   3.160   0.841   0.210
 1392SOL     OW 4191   3.621   1.747   1.154
 1392SOL    HW1 4192   3.682   1.777   1.081
 1392SOL    HW2 4193   3.583   1.658   1.132
 1393SOL     OW 4194   3.114   1.731   1.128
 1393SOL    HW1 4195   3.198   1.736   1.074
 1393SOL    HW2 4196   3.091   1.635   1.146
 1394SOL     OW 4197   1.945   1.258   1.022
 1394SOL    HW1 4198   1.940   1.257   1.122
 1394SOL    HW2 4199   1.862   1.217   0.984
 1395SOL     OW 4200   2.550   1.662   1.716
 1395SOL    HW1 4201   2.494   1.743   1.725
 1395SOL    HW2 4202   2.602   1.666   1.630
 1396SOL     OW 4203   2.765   0.086   0.133
 1396SOL    HW1 4204   2.816   0.087   0.047
 1396SOL    HW2 4205   2.821   0.044   0.204
 1397SOL     OW 4206   3.588   0.135   0.523
 1397SOL    HW1 4207   3.661   0.118   0.456
 1397SOL    HW2 4208   3.557   0.048   0.561
 1398SOL     OW 4209   3.250   1.573   0.477
 1398SOL    HW1 4210   3.317   1.585   0.403
 1398SOL    HW2 4211   3.210   1.662   0.500
 1399SOL     OW 4212   1.992   1.794   1.851
 1399SOL    HW1 4213   1.951   1.720   1.904
 1399SOL    HW2 4214   2.056   1.845   1.909
 1400SOL     OW 4215   3.142   0.927   0.672
 1400SOL    HW1 4216   3.202   0.846   0.674
 1400SOL    HW2 4217   3.182   0.996   0.612
 1401SOL     OW 4218   2.692   1.273   1.422
 1401SOL    HW1 4219   2.687   1.306   1.517
 1401SOL    HW2 4220   2.606   1.292   1.376
 1402SOL     OW 4221   2.534   1.616   0.154
 1402SOL    HW1 4222   2.543   1.626   0.055
 1402SOL    HW2 4223   2.494   1.527   0.175
 1403SOL     OW 4224   3.512   1.720   1.394
 1403SOL    HW1 4225   3.565   1.730   1.310
 1403SOL    HW2 4226   3.485   1.810   1.428
 1404SOL     OW 4227   3.703   0.175   0.963
 1404SOL    HW1 4228   3.742   0.090   0.927
 1404SOL    HW2 4229   3.605   0.177   0.944
 1405SOL     OW 4230   2.125   0.326   0.720
 1405SOL    HW1 4231   2.046   0.377   0.686
 1405SOL    HW2 4232   2.116   0.311   0.818
 1406SOL     OW 4233   3.056   1.612   0.031
 1406SOL    HW1 4234   3.062   1.519   0.068
 1406SOL    HW2 4235   2.997   1.612  -0.049
 1407SOL     OW 4236   2.684   1.002   1.372
 1407SOL    HW1 4237   2.724   1.001   1.280
 1407SOL    HW2 4238   2.694   1.094   1.412
 1408SOL     OW 4239   2.778   0.910   0.291
 1408SOL    HW1 4240   2.841   0.948   0.223
 1408SOL    HW2 4241   2.818   0.827   0.330
 1409SOL     OW 4242   3.366   1.607   0.044
 1409SOL    HW1 4243   3.274   1.644   0.051
 1409SOL    HW2 4244   3.404   1.627  -0.046
 1410SOL     OW 4245   2.234   1.288   1.490
 1410SOL    HW1 4246   2.221   1.381   1.456
 1410SOL    HW2 4247   2.150   1.236   1.477
 1411SOL     OW 4248   3.476   1.292   1.289
 1411SOL    HW1 4249   3.536   1.295   1.369
 1411SOL    HW2 4250   3.401   1.356   1.302
 1412SOL     OW 4251   2.901   1.098   0.696
 1412SOL    HW1 4252   2.831   1.051   0.750
 1412SOL    HW2 4253   2.960   1.030   0.653
 1413SOL     OW 4254   2.876   0.236   0.971
 1413SOL    HW1 4255   2.868   0.200   0.878
 1413SOL    HW2 4256   2.874   0.160   1.036
 1414SOL     OW 4257   2.452   1.487   0.491
 1414SOL    HW1 4258   2.494   1.429   0.421
 1414SOL    HW2 4259   2.408   1.566   0.447
 1415SOL     OW 4260   3.571   0.385   1.381
 1415SOL    HW1 4261   3.644   0.454   1.385
 1415SOL    HW2 4262   3.599   0.310   1.322
 1416SOL     OW 4263   2.117   1.348   0.290
 1416SOL    HW1 4264   2.021   1.349   0.263
 1416SOL    HW2 4265   2.129   1.401   0.374
 1417SOL     OW 4266   1.967   1.013   1.726
 1417SOL    HW1 4267   1.890   0.980   1.780
 1417SOL    HW2 4268   2.052   0.983   1.768
 1418SOL     OW 4269   2.534   0.203   1.489
 1418SOL    HW1 4270   2.624   0.187   1.449
 1418SOL    HW2 4271   2.542   0.208   1.588
 1419SOL     OW 4272   1.937   0.345   0.033
 1419SOL    HW1 4273   1.845   0.317   0.004
 1419SOL    HW2 4274   1.968   0.422  -0.023
 1420SOL     OW 4275   3.302   0.856   1.398
 1420SOL    HW1 4276   3.245   0.908   1.335
 1420SOL    HW2 4277   3.398   0.868   1.374
 1421SOL     OW 4278   1.934   0.166   0.318
 1421SOL    HW1 4279   1.917   0.249   0.264
 1421SOL    HW2 4280   2.024   0.129   0.296
 1422SOL     OW 4281   3.045   1.335   0.119
 1422SOL    HW1 4282   2.946   1.324   0.121
 1422SOL    HW2 4283   3.079   1.350   0.212
 1423SOL     OW 4284   2.475   0.842   1.431
 1423SOL    HW1 4285   2.531   0.923   1.414
 1423SOL    HW2 4286   2.534   0.762   1.434
 1424SOL     OW 4287   3.355   1.767   0.959
 1424SOL    HW1 4288   3.388   1.831   0.890
 1424SOL    HW2 4289   3.421   1.761   1.034
 1425SOL     OW 4290   2.578   0.565   1.708
 1425SOL    HW1 4291   2.597   0.630   1.782
 1425SOL    HW2 4292   2.638   0.485   1.717
 1426SOL     OW 4293   3.312   1.220   1.633
 1426SOL    HW1 4294   3.303   1.210   1.732
 1426SOL    HW2 4295   3.408   1.213   1.607
 1427SOL     OW 4296   2.252   1.741   1.560
 1427SOL    HW1 4297   2.161   1.782   1.558
 1427SOL    HW2 4298   2.245   1.647   1.592
 1428SOL     OW 4299   3.536   0.883   1.254
 1428SOL    HW1 4300   3.509   0.794   1.217
 1428SOL    HW2 4301   3.537   0.951   1.181
 1429SOL     OW 4302   3.087   0.325   0.449
 1429SOL    HW1 4303   3.152   0.251   0.438
 1429SOL    HW2 4304   3.107   0.375   0.533
 1430SOL     OW 4305   2.456   0.745   0.652
 1430SOL    HW1 4306   2.506   0.830   0.633
 1430SOL    HW2 4307   2.368   0.747   0.604
 1431SOL     OW 4308   3.639   0.342   1.642
 1431SOL    HW1 4309   3.622   0.373   1.548
 1431SOL    HW2 4310   3.555   0.305   1.680
 1432SOL     OW 4311   3.592   0.934   1.517
 1432SOL    HW1 4312   3.630   1.025   1.532
 1432SOL    HW2 4313   3.584   0.917   1.418
 1433SOL     OW 4314   2.721   1.374   0.016
 1433SOL    HW1 4315   2.675   1.389   0.104
 1433SOL    HW2 4316   2.765   1.459  -0.014
 1434SOL     OW 4317   2.523   1.790   0.953
 1434SOL    HW1 4318   2.477   1.878   0.940
 1434SOL    HW2 4319   2.622   1.802   0.946
 1435SOL     OW 4320   2.721   0.956   0.861
 1435SOL    HW1 4321   2.775   0.887   0.909
 1435SOL    HW2 4322   2.689   1.025   0.927
 1436SOL     OW 4323   2.945   0.984   0.087
 1436SOL    HW1 4324   2.922   1.037   0.005
 1436SOL    HW2 4325   3.026   0.928   0.068
 1437SOL     OW 4326   3.723   1.569   0.851
 1437SOL    HW1 4327   3.652   1.557   0.781
 1437SOL    HW2 4328   3.724   1.490   0.911
 1438SOL     OW 4329   2.083   1.314   1.844
 1438SOL    HW1 4330   2.018   1.241   1.823
 1438SOL    HW2 4331   2.087   1.328   1.942
 1439SOL     OW 4332   1.941   1.240   0.653
 1439SOL    HW1 4333   1.940   1.193   0.741
 1439SOL    HW2 4334   2.023   1.212   0.602
 1440SOL     OW 4335   2.534   1.391   1.624
 1440SOL    HW1 4336   2.456   1.341   1.662
 1440SOL    HW2 4337   2.531   1.486   1.655
 1441SOL     OW 4338   3.686   0.192   1.227
 1441SOL    HW1 4339   3.682   0.102   1.271
 1441SOL    HW2 4340   3.689   0.181   1.128
 1442SOL     OW 4341   2.290   0.424   0.520
 1442SOL    HW1 4342   2.320   0.352   0.458
 1442SOL    HW2 4343   2.251   0.384   0.603
 1443SOL     OW 4344   3.567   1.487   1.104
 1443SOL    HW1 4345   3.474   1.462   1.077
 1443SOL    HW2 4346   3.593   1.437   1.186
 1444SOL     OW 4347   2.179   0.547   1.280
 1444SOL    HW1 4348   2.217   0.488   1.352
 1444SOL    HW2 4349   2.219   0.521   1.192
 1445SOL     OW 4350   2.674   1.586   0.687
 1445SOL    HW1 4351   2.706   1.596   0.593
 1445SOL    HW2 4352   2.595   1.524   0.689
 1446SOL     OW 4353   3.286   0.214   1.112
 1446SOL    HW1 4354   3.338   0.149   1.167
 1446SOL    HW2 4355   3.237   0.277   1.173
 1447SOL     OW 4356   2.863   0.034   1.154
 1447SOL    HW1 4357   2.800  -0.038   1.123
 1447SOL    HW2 4358   2.956  -0.002   1.154
 1448SOL     OW 4359   2.632   1.330   0.301
 1448SOL    HW1 4360   2.586   1.243   0.318
 1448SOL    HW2 4361   2.723   1.327   0.342
 1449SOL     OW 4362   2.480   1.567   1.284
 1449SOL    HW1 4363   2.475   1.649   1.341
 1449SOL    HW2 4364   2.569   1.564   1.239
 1450SOL     OW 4365   3.214   0.052   0.168
 1450SOL    HW1 4366   3.249   0.011   0.084
 1450SOL    HW2 4367   3.124   0.014   0.188
 1451SOL     OW 4368   3.162   0.453   0.691
 1451SOL    HW1 4369   3.103   0.533   0.695
 1451SOL    HW2 4370   3.177   0.418   0.784
 1452SOL     OW 4371   3.455   0.221   0.882
 1452SOL    HW1 4372   3.371   0.220   0.936
 1452SOL    HW2 4373   3.457   0.304   0.826
 1453SOL     OW 4374   1.901   1.077   0.300
 1453SOL    HW1 4375   2.000   1.066   0.291
 1453SOL    HW2 4376   1.861   0.991   0.332
 1454SOL     OW 4377   2.737   1.646   0.337
 1454SOL    HW1 4378   2.660   1.611   0.283
 1454SOL    HW2 4379   2.705   1.717   0.399
 1455SOL     OW 4380   2.092   0.628   1.975
 1455SOL    HW1 4381   1.999   0.626   2.012
 1455SOL    HW2 4382   2.093   0.589   1.883
 1456SOL     OW 4383   2.087   0.275   2.858
 1456SOL    HW1 4384   2.122   0.258   2.950
 1456SOL    HW2 4385   1.999   0.230   2.846
 1457SOL     OW 4386   1.881   0.368   2.509
 1457SOL    HW1 4387   1.799   0.411   2.548
 1457SOL    HW2 4388   1.853   0.295   2.446
 1458SOL     OW 4389   2.431   1.275   3.027
 1458SOL    HW1 4390   2.338   1.268   2.990
 1458SOL    HW2 4391   2.442   1.364   3.071
 1459SOL     OW 4392   3.417   1.511   2.565
 1459SOL    HW1 4393   3.360   1.495   2.646
 1459SOL    HW2 4394   3.358   1.521   2.485
 1460SOL     OW 4395   2.997   0.703   2.579
 1460SOL    HW1 4396   3.054   0.781   2.554
 1460SOL    HW2 4397   2.937   0.729   2.655
 1461SOL     OW 4398   3.617   0.607   2.093
 1461SOL    HW1 4399   3.605   0.594   1.994
 1461SOL    HW2 4400   3.587   0.526   2.142
 1462SOL     OW 4401   2.630   1.144   2.885
 1462SOL    HW1 4402   2.552   1.161   2.945
 1462SOL    HW2 4403   2.664   1.231   2.849
 1463SOL     OW 4404   2.712   0.798   3.685
 1463SOL    HW1 4405   2.708   0.874   3.750
 1463SOL    HW2 4406   2.734   0.834   3.594
 1464SOL     OW 4407   2.547   1.012   2.527
 1464SOL    HW1 4408   2.616   0.996   2.597
 1464SOL    HW2 4409   2.474   1.069   2.565
 1465SOL     OW 4410   2.548   1.161   3.665
 1465SOL    HW1 4411   2.608   1.240   3.679
 1465SOL    HW2 4412   2.462   1.192   3.624
 1466SOL     OW 4413   2.197   1.435   2.923
 1466SOL    HW1 4414   2.119   1.404   2.870
 1466SOL    HW2 4415   2.255   1.493   2.866
 1467SOL     OW 4416   3.322   1.505   3.201
 1467SOL    HW1 4417   3.346   1.599   3.227
 1467SOL    HW2 4418   3.306   1.451   3.283
 1468SOL     OW 4419   2.300   0.392   3.361
 1468SOL    HW1 4420   2.382   0.336   3.370
 1468SOL    HW2 4421   2.219   0.334   3.365
 1469SOL     OW 4422   3.465   0.447   2.599
 1469SOL    HW1 4423   3.391   0.493   2.549
 1469SOL    HW2 4424   3.516   0.515   2.652
 1470SOL     OW 4425   2.093   1.713   2.345
 1470SOL    HW1 4426   2.127   1.790   2.399
 1470SOL    HW2 4427   2.137   1.713   2.255
 1471SOL     OW 4428   2.989   1.341   3.552
 1471SOL    HW1 4429   3.036   1.341   3.640
 1471SOL    HW2 4430   2.941   1.254   3.541
 1472SOL     OW 4431   2.092   1.434   2.400
 1472SOL    HW1 4432   2.066   1.530   2.400
 1472SOL    HW2 4433   2.021   1.380   2.445
 1473SOL     OW 4434   2.102   1.091   2.748
 1473SOL    HW1 4435   2.116   1.007   2.800
 1473SOL    HW2 4436   2.047   1.155   2.803
 1474SOL     OW 4437   2.482   1.786   3.301
 1474SOL    HW1 4438   2.390   1.769   3.336
 1474SOL    HW2 4439   2.510   1.878   3.327
 1475SOL     OW 4440   2.468   0.964   1.985
 1475SOL    HW1 4441   2.475   1.048   1.931
 1475SOL    HW2 4442   2.514   0.977   2.073
 1476SOL     OW 4443   3.456   0.114   3.342
 1476SOL    HW1 4444   3.438   0.181   3.270
 1476SOL    HW2 4445   3.453   0.160   3.431
 1477SOL     OW 4446   1.984   0.643   2.425
 1477SOL    HW1 4447   1.939   0.555   2.442
 1477SOL    HW2 4448   1.983   0.697   2.509
 1478SOL     OW 4449   3.704   1.767   2.221
 1478SOL    HW1 4450   3.758   1.738   2.301
 1478SOL    HW2 4451   3.734   1.857   2.192
 1479SOL     OW 4452   1.889   1.596   1.979
 1479SOL    HW1 4453   1.870   1.500   2.000
 1479SOL    HW2 4454   1.856   1.654   2.054
 1480SOL     OW 4455   3.551   0.922   2.474
 1480SOL    HW1 4456   3.646   0.893   2.482
 1480SOL    HW2 4457   3.543   0.987   2.399
 1481SOL     OW 4458   3.503   1.108   2.294
 1481SOL    HW1 4459   3.589   1.110   2.242
 1481SOL    HW2 4460   3.517   1.155   2.382
 1482SOL     OW 4461   1.975   0.737   3.459
 1482SOL    HW1 4462   2.063   0.724   3.504
 1482SOL    HW2 4463   1.962   0.834   3.437
 1483SOL     OW 4464   2.475   1.365   2.588
 1483SOL    HW1 4465   2.426   1.278   2.597
 1483SOL    HW2 4466   2.452   1.408   2.501
 1484SOL     OW 4467   3.155   1.228   3.285
 1484SOL    HW1 4468   3.192   1.155   3.227
 1484SOL    HW2 4469   3.207   1.233   3.370
 1485SOL     OW 4470   2.671   0.004   2.364
 1485SOL    HW1 4471   2.711   0.095   2.355
 1485SOL    HW2 4472   2.571   0.012   2.370
 1486SOL     OW 4473   2.059   0.976   3.126
 1486SOL    HW1 4474   2.148   0.931   3.112
 1486SOL    HW2 4475   1.986   0.911   3.107
 1487SOL     OW 4476   3.387   0.999   2.052
 1487SOL    HW1 4477   3.324   0.923   2.065
 1487SOL    HW2 4478   3.435   1.017   2.138
 1488SOL     OW 4479   3.049   1.792   3.478
 1488SOL    HW1 4480   3.073   1.852   3.402
 1488SOL    HW2 4481   3.056   1.697   3.448
 1489SOL     OW 4482   2.179   0.251   3.663
 1489SOL    HW1 4483   2.250   0.322   3.669
 1489SOL    HW2 4484   2.091   0.290   3.691
 1490SOL     OW 4485   3.328   1.417   2.815
 1490SOL    HW1 4486   3.269   1.423   2.895
 1490SOL    HW2 4487   3.313   1.329   2.769
 1491SOL     OW 4488   3.529   1.714   2.434
 1491SOL    HW1 4489   3.488   1.691   2.346
 1491SOL    HW2 4490   3.511   1.640   2.499
 1492SOL     OW 4491   2.460   0.729   2.132
 1492SOL    HW1 4492   2.484   0.798   2.064
 1492SOL    HW2 4493   2.382   0.762   2.186
 1493SOL     OW 4494   3.143   0.345   2.806
 1493SOL    HW1 4495   3.057   0.295   2.793
 1493SOL    HW2 4496   3.205   0.291   2.862
 1494SOL     OW 4497   3.438   1.662   2.169
 1494SOL    HW1 4498   3.527   1.708   2.172
 1494SOL    HW2 4499   3.417   1.638   2.074
 1495SOL     OW 4500   2.669   0.605   3.327
 1495SOL    HW1 4501   2.622   0.602   3.416
 1495SOL    HW2 4502   2.618   0.550   3.261
 1496SOL     OW 4503   3.256   0.469   3.536
 1496SOL    HW1 4504   3.236   0.512   3.624
 1496SOL    HW2 4505   3.334   0.407   3.545
 1497SOL     OW 4506   2.835   0.890   3.434
 1497SOL    HW1 4507   2.881   0.806   3.405
 1497SOL    HW2 4508   2.779   0.924   3.359
 1498SOL     OW 4509   2.853   0.410   3.104
 1498SOL    HW1 4510   2.776   0.444   3.158
 1498SOL    HW2 4511   2.819   0.359   3.025
 1499SOL     OW 4512   2.903   0.701   2.291
 1499SOL    HW1 4513   2.929   0.697   2.387
 1499SOL    HW2 4514   2.818   0.650   2.277
 1500SOL     OW 4515   1.938   0.811   2.651
 1500SOL    HW1 4516   2.037   0.799   2.660
 1500SOL    HW2 4517   1.914   0.906   2.672
 1501SOL     OW 4518   1.992   1.821   3.433
 1501SOL    HW1 4519   1.982   1.806   3.532
 1501SOL    HW2 4520   1.906   1.857   3.397
 1502SOL     OW 4521   2.727   0.348   2.057
 1502SOL    HW1 4522   2.786   0.411   2.008
 1502SOL    HW2 4523   2.746   0.254   2.028
 1503SOL     OW 4524   3.581   0.585   3.693
 1503SOL    HW1 4525   3.555   0.674   3.657
 1503SOL    HW2 4526   3.579   0.517   3.620
 1504SOL     OW 4527   3.224   1.144   2.407
 1504SOL    HW1 4528   3.307   1.115   2.359
 1504SOL    HW2 4529   3.175   1.211   2.351
 1505SOL     OW 4530   2.412   0.196   2.747
 1505SOL    HW1 4531   2.407   0.191   2.847
 1505SOL    HW2 4532   2.414   0.292   2.718
 1506SOL     OW 4533   2.870   1.456   2.339
 1506SOL    HW1 4534   2.824   1.528   2.287
 1506SOL    HW2 4535   2.866   1.476   2.437
 1507SOL     OW 4536   2.213   1.801   2.715
 1507SOL    HW1 4537   2.263   1.715   2.721
 1507SOL    HW2 4538   2.278   1.878   2.712
 1508SOL     OW 4539   3.657   1.066   2.735
 1508SOL    HW1 4540   3.595   1.051   2.659
 1508SOL    HW2 4541   3.605   1.077   2.820
 1509SOL     OW 4542   3.089   1.550   3.368
 1509SOL    HW1 4543   3.095   1.473   3.432
 1509SOL    HW2 4544   3.037   1.524   3.288
 1510SOL     OW 4545   2.183   0.943   2.104
 1510SOL    HW1 4546   2.265   0.982   2.062
 1510SOL    HW2 4547   2.156   0.861   2.055
 1511SOL     OW 4548   3.320   0.735   2.590
 1511SOL    HW1 4549   3.315   0.670   2.665
 1511SOL    HW2 4550   3.400   0.794   2.603
 1512SOL     OW 4551   2.323   1.266   3.589
 1512SOL    HW1 4552   2.273   1.267   3.503
 1512SOL    HW2 4553   2.260   1.248   3.665
 1513SOL     OW 4554   2.973   1.776   2.099
 1513SOL    HW1 4555   2.913   1.714   2.149
 1513SOL    HW2 4556   3.004   1.732   2.014
 1514SOL     OW 4557   2.064   0.285   3.360
 1514SOL    HW1 4558   1.984   0.345   3.347
 1514SOL    HW2 4559   2.054   0.236   3.446
 1515SOL     OW 4560   3.494   1.377   1.943
 1515SOL    HW1 4561   3.462   1.471   1.933
 1515SOL    HW2 4562   3.418   1.314   1.931
 1516SOL     OW 4563   2.326   1.743   2.185
 1516SOL    HW1 4564   2.359   1.782   2.271
 1516SOL    HW2 4565   2.402   1.736   2.120
 1517SOL     OW 4566   3.262   0.107   2.288
 1517SOL    HW1 4567   3.238   0.070   2.198
 1517SOL    HW2 4568   3.361   0.123   2.292
 1518SOL     OW 4569   2.111   1.785   3.103
 1518SOL    HW1 4570   2.168   1.720   3.153
 1518SOL    HW2 4571   2.095   1.752   3.010
 1519SOL     OW 4572   2.802   1.698   2.766
 1519SOL    HW1 4573   2.882   1.641   2.787
 1519SOL    HW2 4574   2.753   1.658   2.689
 1520SOL     OW 4575   2.244   0.700   2.342
 1520SOL    HW1 4576   2.289   0.610   2.339
 1520SOL    HW2 4577   2.150   0.689   2.375
 1521SOL     OW 4578   3.409   0.222   3.591
 1521SOL    HW1 4579   3.404   0.259   3.683
 1521SOL    HW2 4580   3.337   0.153   3.579
 1522SOL     OW 4581   2.476   0.122   1.979
 1522SOL    HW1 4582   2.574   0.100   1.986
 1522SOL    HW2 4583   2.445   0.105   1.886
 1523SOL     OW 4584   2.643   0.264   3.611
 1523SOL    HW1 4585   2.710   0.203   3.654
 1523SOL    HW2 4586   2.570   0.283   3.676
 1524SOL     OW 4587   2.750   1.514   3.057
 1524SOL    HW1 4588   2.727   1.489   2.963
 1524SOL    HW2 4589   2.811   1.445   3.096
 1525SOL     OW 4590   3.213   0.590   3.295
 1525SOL    HW1 4591   3.241   0.547   3.380
 1525SOL    HW2 4592   3.238   0.686   3.296
 1526SOL     OW 4593   2.665   1.402   2.786
 1526SOL    HW1 4594   2.755   1.416   2.744
 1526SOL    HW2 4595   2.594   1.404   2.715
 1527SOL     OW 4596   2.784   0.503   2.761
 1527SOL    HW1 4597   2.759   0.494   2.665
 1527SOL    HW2 4598   2.832   0.421   2.792
 1528SOL     OW 4599   2.401   0.064   2.374
 1528SOL    HW1 4600   2.320   0.065   2.432
 1528SOL    HW2 4601   2.404   0.147   2.319
 1529SOL     OW 4602   3.296   1.188   1.903
 1529SOL    HW1 4603   3.328   1.112   1.960
 1529SOL    HW2 4604   3.204   1.215   1.933
 1530SOL     OW 4605   2.159   0.035   2.033
 1530SOL    HW1 4606   2.208   0.119   2.012
 1530SOL    HW2 4607   2.221  -0.030   2.078
 1531SOL     OW 4608   2.797   0.236   2.342
 1531SOL    HW1 4609   2.749   0.277   2.264
 1531SOL    HW2 4610   2.896   0.234   2.323
 1532SOL     OW 4611   2.938   0.683   3.326
 1532SOL    HW1 4612   2.858   0.622   3.329
 1532SOL    HW2 4613   3.019   0.630   3.302
 1533SOL     OW 4614   3.089   1.570   2.655
 1533SOL    HW1 4615   3.110   1.644   2.590
 1533SOL    HW2 4616   3.157   1.570   2.728
 1534SOL     OW 4617   2.321   1.152   2.603
 1534SOL    HW1 4618   2.250   1.125   2.668
 1534SOL    HW2 4619   2.295   1.124   2.510
 1535SOL     OW 4620   3.133   1.797   2.453
 1535SOL    HW1 4621   3.177   1.861   2.389
 1535SOL    HW2 4622   3.083   1.849   2.523
 1536SOL     OW 4623   2.894   0.549   1.878
 1536SOL    HW1 4624   2.853   0.631   1.839
 1536SOL    HW2 4625   2.958   0.575   1.951
 1537SOL     OW 4626   1.940   0.556   3.248
 1537SOL    HW1 4627   2.032   0.555   3.207
 1537SOL    HW2 4628   1.934   0.630   3.315
 1538SOL     OW 4629   2.423   0.222   3.009
 1538SOL    HW1 4630   2.461   0.138   3.046
 1538SOL    HW2 4631   2.335   0.241   3.053
 1539SOL     OW 4632   2.728   0.454   2.504
 1539SOL    HW1 4633   2.696   0.526   2.442
 1539SOL    HW2 4634   2.752   0.373   2.451
 1540SOL     OW 4635   2.879   0.039   2.615
 1540SOL    HW1 4636   2.807   0.044   2.546
 1540SOL    HW2 4637   2.855  -0.030   2.684
 1541SOL     OW 4638   3.291   1.173   2.729
 1541SOL    HW1 4639   3.236   1.089   2.722
 1541SOL    HW2 4640   3.317   1.202   2.637
 1542SOL     OW 4641   3.328   0.590   2.854
 1542SOL    HW1 4642   3.298   0.495   2.861
 1542SOL    HW2 4643   3.401   0.606   2.920
 1543SOL     OW 4644   3.719   0.833   2.239
 1543SOL    HW1 4645   3.761   0.769   2.303
 1543SOL    HW2 4646   3.681   0.782   2.161
 1544SOL     OW 4647   2.350   1.385   2.036
 1544SOL    HW1 4648   2.263   1.370   2.083
 1544SOL    HW2 4649   2.333   1.411   1.941
 1545SOL     OW 4650   3.526   1.280   2.519
 1545SOL    HW1 4651   3.625   1.288   2.533
 1545SOL    HW2 4652   3.481   1.364   2.550
 1546SOL     OW 4653   3.252   0.575   1.940
 1546SOL    HW1 4654   3.198   0.554   2.021
 1546SOL    HW2 4655   3.343   0.534   1.949
 1547SOL     OW 4656   2.389   0.256   2.190
 1547SOL    HW1 4657   2.416   0.197   2.115
 1547SOL    HW2 4658   2.389   0.351   2.159
 1548SOL     OW 4659   3.616   1.223   3.450
 1548SOL    HW1 4660   3.707   1.184   3.437
 1548SOL    HW2 4661   3.624   1.319   3.474
 1549SOL     OW 4662   2.926   1.347   3.202
 1549SOL    HW1 4663   2.846   1.324   3.257
 1549SOL    HW2 4664   3.009   1.321   3.251
 1550SOL     OW 4665   3.454   1.629   3.487
 1550SOL    HW1 4666   3.481   1.663   3.397
 1550SOL    HW2 4667   3.533   1.591   3.533
 1551SOL     OW 4668   2.973   1.195   2.962
 1551SOL    HW1 4669   2.933   1.239   3.043
 1551SOL    HW2 4670   2.932   1.232   2.879
 1552SOL     OW 4671   3.500   1.099   2.941
 1552SOL    HW1 4672   3.505   1.180   3.000
 1552SOL    HW2 4673   3.414   1.101   2.890
 1553SOL     OW 4674   2.777   0.089   3.264
 1553SOL    HW1 4675   2.802   0.069   3.169
 1553SOL    HW2 4676   2.849   0.145   3.306
 1554SOL     OW 4677   2.842   1.116   3.581
 1554SOL    HW1 4678   2.743   1.122   3.591
 1554SOL    HW2 4679   2.865   1.036   3.525
 1555SOL     OW 4680   2.567   1.050   2.230
 1555SOL    HW1 4681   2.553   1.057   2.329
 1555SOL    HW2 4682   2.651   0.999   2.212
 1556SOL     OW 4683   2.272   0.813   3.113
 1556SOL    HW1 4684   2.358   0.825   3.163
 1556SOL    HW2 4685   2.230   0.726   3.140
 1557SOL     OW 4686   3.136   0.386   3.124
 1557SOL    HW1 4687   3.157   0.460   3.188
 1557SOL    HW2 4688   3.047   0.403   3.081
 1558SOL     OW 4689   1.926   1.564   3.193
 1558SOL    HW1 4690   1.880   1.646   3.159
 1558SOL    HW2 4691   2.024   1.583   3.202
 1559SOL     OW 4692   2.229   1.100   2.363
 1559SOL    HW1 4693   2.222   1.183   2.307
 1559SOL    HW2 4694   2.233   1.020   2.303
 1560SOL     OW 4695   2.428   0.537   2.727
 1560SOL    HW1 4696   2.440   0.603   2.653
 1560SOL    HW2 4697   2.474   0.571   2.810
 1561SOL     OW 4698   3.114   1.348   2.250
 1561SOL    HW1 4699   3.164   1.425   2.290
 1561SOL    HW2 4700   3.019   1.350   2.282
 1562SOL     OW 4701   3.134   1.445   3.004
 1562SOL    HW1 4702   3.181   1.458   3.091
 1562SOL    HW2 4703   3.068   1.371   3.013
 1563SOL     OW 4704   3.444   0.639   2.334
 1563SOL    HW1 4705   3.413   0.700   2.407
 1563SOL    HW2 4706   3.494   0.691   2.265
 1564SOL     OW 4707   2.216   1.510   3.191
 1564SOL    HW1 4708   2.195   1.466   3.104
 1564SOL    HW2 4709   2.313   1.536   3.194
 1565SOL     OW 4710   2.264   0.751   3.460
 1565SOL    HW1 4711   2.332   0.806   3.413
 1565SOL    HW2 4712   2.304   0.663   3.487
 1566SOL     OW 4713   3.449   0.779   3.532
 1566SOL    HW1 4714   3.357   0.817   3.527
 1566SOL    HW2 4715   3.509   0.826   3.467
 1567SOL     OW 4716   2.875   0.105   3.632
 1567SOL    HW1 4717   2.881   0.190   3.580
 1567SOL    HW2 4718   2.907   0.029   3.575
 1568SOL     OW 4719   2.366   0.050   3.602
 1568SOL    HW1 4720   2.324  -0.007   3.532
 1568SOL    HW2 4721   2.300   0.119   3.634
 1569SOL     OW 4722   2.435   0.870   2.891
 1569SOL    HW1 4723   2.479   0.959   2.882
 1569SOL    HW2 4724   2.372   0.870   2.968
 1570SOL     OW 4725   3.222   0.862   2.907
 1570SOL    HW1 4726   3.147   0.862   2.841
 1570SOL    HW2 4727   3.259   0.770   2.916
 1571SOL     OW 4728   3.071   0.525   2.137
 1571SOL    HW1 4729   3.084   0.441   2.191
 1571SOL    HW2 4730   3.042   0.599   2.197
 1572SOL     OW 4731   2.169   0.213   3.093
 1572SOL    HW1 4732   2.146   0.250   3.183
 1572SOL    HW2 4733   2.139   0.118   3.087
 1573SOL     OW 4734   1.899   1.310   3.144
 1573SOL    HW1 4735   1.952   1.261   3.212
 1573SOL    HW2 4736   1.921   1.408   3.149
 1574SOL     OW 4737   2.594   0.634   2.926
 1574SOL    HW1 4738   2.653   0.608   2.850
 1574SOL    HW2 4739   2.566   0.730   2.915
 1575SOL     OW 4740   3.590   0.935   3.716
 1575SOL    HW1 4741   3.544   0.928   3.627
 1575SOL    HW2 4742   3.528   0.979   3.782
 1576SOL     OW 4743   2.169   0.063   2.480
 1576SOL    HW1 4744   2.158   0.157   2.513
 1576SOL    HW2 4745   2.164   0.000   2.557
 1577SOL     OW 4746   3.484   0.367   2.236
 1577SOL    HW1 4747   3.486   0.291   2.300
 1577SOL    HW2 4748   3.436   0.444   2.276
 1578SOL     OW 4749   2.885   0.766   2.828
 1578SOL    HW1 4750   2.900   0.787   2.924
 1578SOL    HW2 4751   2.855   0.671   2.819
 1579SOL     OW 4752   2.842   1.573   3.562
 1579SOL    HW1 4753   2.822   1.617   3.474
 1579SOL    HW2 4754   2.881   1.482   3.546
 1580SOL     OW 4755   3.721   1.518   3.467
 1580SOL    HW1 4756   3.735   1.545   3.372
 1580SOL    HW2 4757   3.804   1.540   3.520
 1581SOL     OW 4758   2.212   0.898   3.666
 1581SOL    HW1 4759   2.288   0.942   3.714
 1581SOL    HW2 4760   2.247   0.851   3.584
 1582SOL     OW 4761   3.402   0.274   1.987
 1582SOL    HW1 4762   3.341   0.199   2.010
 1582SOL    HW2 4763   3.424   0.326   2.070
 1583SOL     OW 4764   3.165   0.838   1.904
 1583SOL    HW1 4765   3.199   0.745   1.919
 1583SOL    HW2 4766   3.183   0.865   1.809
 1584SOL     OW 4767   2.930   1.333   2.711
 1584SOL    HW1 4768   2.937   1.249   2.656
 1584SOL    HW2 4769   2.992   1.402   2.675
 1585SOL     OW 4770   2.181   0.810   2.811
 1585SOL    HW1 4771   2.274   0.846   2.816
 1585SOL    HW2 4772   2.175   0.725   2.863
 1586SOL     OW 4773   2.201   0.509   2.868
 1586SOL    HW1 4774   2.149   0.426   2.851
 1586SOL    HW2 4775   2.278   0.514   2.804
 1587SOL     OW 4776   3.000   0.380   3.540
 1587SOL    HW1 4777   2.955   0.443   3.604
 1587SOL    HW2 4778   3.093   0.411   3.523
 1588SOL     OW 4779   3.022   0.207   3.339
 1588SOL    HW1 4780   3.022   0.271   3.416
 1588SOL    HW2 4781   3.050   0.255   3.256
 1589SOL     OW 4782   1.870   1.326   2.062
 1589SOL    HW1 4783   1.777   1.347   2.031
 1589SOL    HW2 4784   1.880   1.227   2.075
 1590SOL     OW 4785   1.950   1.801   2.789
 1590SOL    HW1 4786   1.908   1.715   2.762
 1590SOL    HW2 4787   2.044   1.804   2.755
 1591SOL     OW 4788   2.366   1.568   2.772
 1591SOL    HW1 4789   2.432   1.642   2.781
 1591SOL    HW2 4790   2.410   1.489   2.730
 1592SOL     OW 4791   2.864   0.796   3.100
 1592SOL    HW1 4792   2.905   0.764   3.186
 1592SOL    HW2 4793   2.768   0.769   3.097
 1593SOL     OW 4794   1.902   0.544   2.976
 1593SOL    HW1 4795   1.987   0.511   2.935
 1593SOL    HW2 4796   1.915   0.559   3.074
 1594SOL     OW 4797   2.051   0.520   3.584
 1594SOL    HW1 4798   2.110   0.480   3.514
 1594SOL    HW2 4799   1.993   0.591   3.543
 1595SOL     OW 4800   3.231   0.950   3.522
 1595SOL    HW1 4801   3.270   1.039   3.542
 1595SOL    HW2 4802   3.241   0.930   3.425
 1596SOL     OW 4803   2.677   0.572   2.187
 1596SOL    HW1 4804   2.684   0.483   2.141
 1596SOL    HW2 4805   2.583   0.606   2.179
 1597SOL     OW 4806   3.519   0.604   3.068
 1597SOL    HW1 4807   3.481   0.535   3.130
 1597SOL    HW2 4808   3.601   0.568   3.024
 1598SOL     OW 4809   2.114   1.564   3.606
 1598SOL    HW1 4810   2.084   1.621   3.682
 1598SOL    HW2 4811   2.107   1.467   3.632
 1599SOL     OW 4812   2.533   0.464   3.131
 1599SOL    HW1 4813   2.499   0.375   3.101
 1599SOL    HW2 4814   2.559   0.518   3.051
 1600SOL     OW 4815   2.792   1.678   3.327
 1600SOL    HW1 4816   2.768   1.660   3.232
 1600SOL    HW2 4817   2.822   1.772   3.337
 1601SOL     OW 4818   2.335   0.500   2.053
 1601SOL    HW1 4819   2.396   0.580   2.057
 1601SOL    HW2 4820   2.240   0.531   2.060
 1602SOL     OW 4821   2.021   1.137   3.328
 1602SOL    HW1 4822   2.043   1.076   3.404
 1602SOL    HW2 4823   2.031   1.088   3.242
 1603SOL     OW 4824   3.209   1.059   3.096
 1603SOL    HW1 4825   3.233   0.996   3.022
 1603SOL    HW2 4826   3.119   1.099   3.078
 1604SOL     OW 4827   3.164   0.855   2.171
 1604SOL    HW1 4828   3.078   0.824   2.213
 1604SOL    HW2 4829   3.160   0.841   2.072
 1605SOL     OW 4830   3.621   1.747   3.016
 1605SOL    HW1 4831   3.682   1.777   2.943
 1605SOL    HW2 4832   3.583   1.658   2.994
 1606SOL     OW 4833   3.114   1.731   2.990
 1606SOL    HW1 4834   3.198   1.736   2.936
 1606SOL    HW2 4835   3.091   1.635   3.008
 1607SOL     OW 4836   1.945   1.258   2.884
 1607SOL    HW1 4837   1.940   1.257   2.984
 1607SOL    HW2 4838   1.862   1.217   2.846
 1608SOL     OW 4839   2.550   1.662   3.578
 1608SOL    HW1 4840   2.494   1.743   3.587
 1608SOL    HW2 4841   2.602   1.666   3.492
 1609SOL     OW 4842   3.588   0.135   2.385
 1609SOL    HW1 4843   3.661   0.118   2.318
 1609SOL    HW2 4844   3.557   0.048   2.423
 1610SOL     OW 4845   3.250   1.573   2.339
 1610SOL    HW1 4846   3.317   1.585   2.265
 1610SOL    HW2 4847   3.210   1.662   2.362
 1611SOL     OW 4848   1.992   1.794   3.713
 1611SOL    HW1 4849   1.951   1.720   3.766
 1611SOL    HW2 4850   2.056   1.845   3.771
 1612SOL     OW 4851   3.142   0.927   2.534
 1612SOL    HW1 4852   3.202   0.846   2.536
 1612SOL    HW2 4853   3.182   0.996   2.474
 1613SOL     OW 4854   2.692   1.273   3.284
 1613SOL    HW1 4855   2.687   1.306   3.379
 1613SOL    HW2 4856   2.606   1.292   3.238
 1614SOL     OW 4857   2.534   1.616   2.016
 1614SOL    HW1 4858   2.543   1.626   1.917
 1614SOL    HW2 4859   2.494   1.527   2.037
 1615SOL     OW 4860   3.512   1.720   3.256
 1615SOL    HW1 4861   3.565   1.730   3.172
 1615SOL    HW2 4862   3.485   1.810   3.290
 1616SOL     OW 4863   3.703   0.175   2.825
 1616SOL    HW1 4864   3.742   0.090   2.789
 1616SOL    HW2 4865   3.605   0.177   2.806
 1617SOL     OW 4866   2.125   0.326   2.582
 1617SOL    HW1 4867   2.046   0.377   2.548
 1617SOL    HW2 4868   2.116   0.311   2.680
 1618SOL     OW 4869   3.056   1.612   1.893
 1618SOL    HW1 4870   3.062   1.519   1.930
 1618SOL    HW2 4871   2.997   1.612   1.813
 1619SOL     OW 4872   2.684   1.002   3.234
 1619SOL    HW1 4873   2.724   1.001   3.142
 1619SOL    HW2 4874   2.694   1.094   3.274
 1620SOL     OW 4875   2.778   0.910   2.153
 1620SOL    HW1 4876   2.841   0.948   2.085
 1620SOL    HW2 4877   2.818   0.827   2.192
 1621SOL     OW 4878   3.366   1.607   1.906
 1621SOL    HW1 4879   3.274   1.644   1.913
 1621SOL    HW2 4880   3.404   1.627   1.816
 1622SOL     OW 4881   2.234   1.288   3.352
 1622SOL    HW1 4882   2.221   1.381   3.318
 1622SOL    HW2 4883   2.150   1.236   3.339
 1623SOL     OW 4884   3.476   1.292   3.151
 1623SOL    HW1 4885   3.536   1.295   3.231
 1623SOL    HW2 4886   3.401   1.356   3.164
 1624SOL     OW 4887   2.901   1.098   2.558
 1624SOL    HW1 4888   2.831   1.051   2.612
 1624SOL    HW2 4889   2.960   1.030   2.515
 1625SOL     OW 4890   2.876   0.236   2.833
 1625SOL    HW1 4891   2.868   0.200   2.740
 1625SOL    HW2 4892   2.874   0.160   2.898
 1626SOL     OW 4893   2.452   1.487   2.353
 1626SOL    HW1 4894   2.494   1.429   2.283
 1626SOL    HW2 4895   2.408   1.566   2.309
 1627SOL     OW 4896   3.571   0.385   3.243
 1627SOL    HW1 4897   3.644   0.454   3.247
 1627SOL    HW2 4898   3.599   0.310   3.184
 1628SOL     OW 4899   2.117   1.348   2.152
 1628SOL    HW1 4900   2.021   1.349   2.125
 1628SOL    HW2 4901   2.129   1.401   2.236
 1629SOL     OW 4902   1.967   1.013   3.588
 1629SOL    HW1 4903   1.890   0.980   3.642
 1629SOL    HW2 4904   2.052   0.983   3.630
 1630SOL     OW 4905   2.534   0.203   3.351
 1630SOL    HW1 4906   2.624   0.187   3.311
 1630SOL    HW2 4907   2.542   0.208   3.450
 1631SOL     OW 4908   1.937   0.345   1.895
 1631SOL    HW1 4909   1.845   0.317   1.866
 1631SOL    HW2 4910   1.968   0.422   1.839
 1632SOL     OW 4911   3.302   0.856   3.260
 1632SOL    HW1 4912   3.245   0.908   3.197
 1632SOL    HW2 4913   3.398   0.868   3.236
 1633SOL     OW 4914   1.934   0.166   2.180
 1633SOL    HW1 4915   1.917   0.249   2.126
 1633SOL    HW2 4916   2.024   0.129   2.158
 1634SOL     OW 4917   3.045   1.335   1.981
 1634SOL    HW1 4918   2.946   1.324   1.983
 1634SOL    HW2 4919   3.079   1.350   2.074
 1635SOL     OW 4920   2.475   0.842   3.293
 1635SOL    HW1 4921   2.531   0.923   3.276
 1635SOL    HW2 4922   2.534   0.762   3.296
 1636SOL     OW 4923   3.355   1.767   2.821
 1636SOL    HW1 4924   3.388   1.831   2.752
 1636SOL    HW2 4925   3.421   1.761   2.896
 1637SOL     OW 4926   2.578   0.565   3.570
 1637SOL    HW1 4927   2.597   0.630   3.644
 1637SOL    HW2 4928   2.638   0.485   3.579
 1638SOL     OW 4929   3.312   1.220   3.495
 1638SOL    HW1 4930   3.303   1.210   3.594
 1638SOL    HW2 4931   3.408   1.213   3.469
 1639SOL     OW 4932   2.252   1.741   3.422
 1639SOL    HW1 4933   2.161   1.782   3.420
 1639SOL    HW2 4934   2.245   1.647   3.454
 1640SOL     OW 4935   3.536   0.883   3.116
 1640SOL    HW1 4936   3.509   0.794   3.079
 1640SOL    HW2 4937   3.537   0.951   3.043
 1641SOL     OW 4938   3.087   0.325   2.311
 1641SOL    HW1 4939   3.152   0.251   2.300
 1641SOL    HW2 4940   3.107   0.375   2.395
 1642SOL     OW 4941   2.456   0.745   2.514
 1642SOL    HW1 4942   2.506   0.830   2.495
 1642SOL    HW2 4943   2.368   0.747   2.466
 1643SOL     OW 4944   3.639   0.342   3.504
 1643SOL    HW1 4945   3.622   0.373   3.410
 1643SOL    HW2 4946   3.555   0.305   3.542
 1644SOL     OW 4947   3.592   0.934   3.379
 1644SOL    HW1 4948   3.630   1.025   3.394
 1644SOL    HW2 4949   3.584   0.917   3.280
 1645SOL     OW 4950   2.721   1.374   1.878
 1645SOL    HW1 4951   2.675   1.389   1.966
 1645SOL    HW2 4952   2.765   1.459   1.848
 1646SOL     OW 4953   2.523   1.790   2.815
 1646SOL    HW1 4954   2.477   1.878   2.802
 1646SOL    HW2 4955   2.622   1.802   2.808
 1647SOL     OW 4956   2.721   0.956   2.723
 1647SOL    HW1 4957   2.775   0.887   2.771
 1647SOL    HW2 4958   2.689   1.025   2.789
 1648SOL     OW 4959   2.945   0.984   1.949
 1648SOL    HW1 4960   2.922   1.037   1.867
 1648SOL    HW2 4961   3.026   0.928   1.930
 1649SOL     OW 4962   3.723   1.569   2.713
 1649SOL    HW1 4963   3.652   1.557   2.643
 1649SOL    HW2 4964   3.724   1.490   2.773
 1650SOL     OW 4965   2.083   1.314   3.706
 1650SOL    HW1 4966   2.018   1.241   3.685
 1650SOL    HW2 4967   2.087   1.328   3.804
 1651SOL     OW 4968   1.941   1.240   2.515
 1651SOL    HW1 4969   1.940   1.193   2.603
 1651SOL    HW2 4970   2.023   1.212   2.464
 1652SOL     OW 4971   2.534   1.391   3.486
 1652SOL    HW1 4972   2.456   1.341   3.524
 1652SOL    HW2 4973   2.531   1.486   3.517
 1653SOL     OW 4974   3.686   0.192   3.089
 1653SOL    HW1 4975   3.682   0.102   3.133
 1653SOL    HW2 4976   3.689   0.181   2.990
 1654SOL     OW 4977   2.290   0.424   2.382
 1654SOL    HW1 4978   2.320   0.352   2.320
 1654SOL    HW2 4979   2.251   0.384   2.465
 1655SOL     OW 4980   3.567   1.487   2.966
 1655SOL    HW1 4981   3.474   1.462   2.939
 1655SOL    HW2 4982   3.593   1.437   3.048
 1656SOL     OW 4983   2.179   0.547   3.142
 1656SOL    HW1 4984   2.217   0.488   3.214
 1656SOL    HW2 4985   2.219   0.521   3.054
 1657SOL     OW 4986   2.674   1.586   2.549
 1657SOL    HW1 4987   2.706   1.596   2.455
 1657SOL    HW2 4988   2.595   1.524   2.551
 1658SOL     OW 4989   3.286   0.214   2.974
 1658SOL    HW1 4990   3.338   0.149   3.029
 1658SOL    HW2 4991   3.237   0.277   3.035
 1659SOL     OW 4992   2.863   0.034   3.016
 1659SOL    HW1 4993   2.800  -0.038   2.985
 1659SOL    HW2 4994   2.956  -0.002   3.016
 1660SOL     OW 4995   2.632   1.330   2.163
 1660SOL    HW1 4996   2.586   1.243   2.180
 1660SOL    HW2 4997   2.723   1.327   2.204
 1661SOL     OW 4998   2.480   1.567   3.146
 1661SOL    HW1 4999   2.475   1.649   3.203
 1661SOL    HW2 5000   2.569   1.564   3.101
 1662SOL     OW 5001   3.214   0.052   2.030
 1662SOL    HW1 5002   3.249   0.011   1.946
 1662SOL    HW2 5003   3.124   0.014   2.050
 1663SOL     OW 5004   3.162   0.453   2.553
 1663SOL    HW1 5005   3.103   0.533   2.557
 1663SOL    HW2 5006   3.177   0.418   2.646
 1664SOL     OW 5007   3.455   0.221   2.744
 1664SOL    HW1 5008   3.371   0.220   2.798
 1664SOL    HW2 5009   3.457   0.304   2.688
 1665SOL     OW 5010   1.901   1.077   2.162
 1665SOL    HW1 5011   2.000   1.066   2.153
 1665SOL    HW2 5012   1.861   0.991   2.194
 1666SOL     OW 5013   2.737   1.646   2.199
 1666SOL    HW1 5014   2.660   1.611   2.145
 1666SOL    HW2 5015   2.705   1.717   2.261
 1667SOL     OW 5016   2.092   0.628   3.837
 1667SOL    HW1 5017   1.999   0.626   3.874
 1667SOL    HW2 5018   2.093   0.589   3.745
 1668SOL     OW 5019   1.881   0.368   4.371
 1668SOL    HW1 5020   1.799   0.411   4.410
 1668SOL    HW2 5021   1.853   0.295   4.308
 1669SOL     OW 5022   3.617   0.607   3.955
 1669SOL    HW1 5023   3.605   0.594   3.856
 1669SOL    HW2 5024   3.587   0.526   4.004
 1670SOL     OW 5025   2.547   1.012   4.389
 1670SOL    HW1 5026   2.616   0.996   4.459
 1670SOL    HW2 5027   2.474   1.069   4.427
 1671SOL     OW 5028   3.465   0.447   4.461
 1671SOL    HW1 5029   3.391   0.493   4.411
 1671SOL    HW2 5030   3.516   0.515   4.514
 1672SOL     OW 5031   2.093   1.713   4.207
 1672SOL    HW1 5032   2.127   1.790   4.261
 1672SOL    HW2 5033   2.137   1.713   4.117
 1673SOL     OW 5034   2.092   1.434   4.262
 1673SOL    HW1 5035   2.066   1.530   4.262
 1673SOL    HW2 5036   2.021   1.380   4.307
 1674SOL     OW 5037   2.468   0.964   3.847
 1674SOL    HW1 5038   2.475   1.048   3.793
 1674SOL    HW2 5039   2.514   0.977   3.935
 1675SOL     OW 5040   1.984   0.643   4.287
 1675SOL    HW1 5041   1.939   0.555   4.304
 1675SOL    HW2 5042   1.983   0.697   4.371
 1676SOL     OW 5043   3.704   1.767   4.083
 1676SOL    HW1 5044   3.758   1.738   4.163
 1676SOL    HW2 5045   3.734   1.857   4.054
 1677SOL     OW 5046   1.889   1.596   3.841
 1677SOL    HW1 5047   1.870   1.500   3.862
 1677SOL    HW2 5048   1.856   1.654   3.916
 1678SOL     OW 5049   3.551   0.922   4.336
 1678SOL    HW1 5050   3.646   0.893   4.344
 1678SOL    HW2 5051   3.543   0.987   4.261
 1679SOL     OW 5052   3.503   1.108   4.156
 1679SOL    HW1 5053   3.589   1.110   4.104
 1679SOL    HW2 5054   3.517   1.155   4.244
 1680SOL     OW 5055   2.475   1.365   4.450
 1680SOL    HW1 5056   2.426   1.278   4.459
 1680SOL    HW2 5057   2.452   1.408   4.363
 1681SOL     OW 5058   2.671   0.004   4.226
 1681SOL    HW1 5059   2.711   0.095   4.217
 1681SOL    HW2 5060   2.571   0.012   4.232
 1682SOL     OW 5061   3.387   0.999   3.914
 1682SOL    HW1 5062   3.324   0.923   3.927
 1682SOL    HW2 5063   3.435   1.017   4.000
 1683SOL     OW 5064   3.529   1.714   4.296
 1683SOL    HW1 5065   3.488   1.691   4.208
 1683SOL    HW2 5066   3.511   1.640   4.361
 1684SOL     OW 5067   2.460   0.729   3.994
 1684SOL    HW1 5068   2.484   0.798   3.926
 1684SOL    HW2 5069   2.382   0.762   4.048
 1685SOL     OW 5070   3.143   0.345   4.668
 1685SOL    HW1 5071   3.057   0.295   4.655
 1685SOL    HW2 5072   3.205   0.291   4.724
 1686SOL     OW 5073   3.438   1.662   4.031
 1686SOL    HW1 5074   3.527   1.708   4.034
 1686SOL    HW2 5075   3.417   1.638   3.936
 1687SOL     OW 5076   2.903   0.701   4.153
 1687SOL    HW1 5077   2.929   0.697   4.249
 1687SOL    HW2 5078   2.818   0.650   4.139
 1688SOL     OW 5079   1.938   0.811   4.513
 1688SOL    HW1 5080   2.037   0.799   4.522
 1688SOL    HW2 5081   1.914   0.906   4.534
 1689SOL     OW 5082   2.727   0.348   3.919
 1689SOL    HW1 5083   2.786   0.411   3.870
 1689SOL    HW2 5084   2.746   0.254   3.890
 1690SOL     OW 5085   3.224   1.144   4.269
 1690SOL    HW1 5086   3.307   1.115   4.221
 1690SOL    HW2 5087   3.175   1.211   4.213
 1691SOL     OW 5088   2.870   1.456   4.201
 1691SOL    HW1 5089   2.824   1.528   4.149
 1691SOL    HW2 5090   2.866   1.476   4.299
 1692SOL     OW 5091   2.213   1.801   4.577
 1692SOL    HW1 5092   2.263   1.715   4.583
 1692SOL    HW2 5093   2.278   1.878   4.574
 1693SOL     OW 5094   3.657   1.066   4.597
 1693SOL    HW1 5095   3.595   1.051   4.521
 1693SOL    HW2 5096   3.605   1.077   4.682
 1694SOL     OW 5097   2.183   0.943   3.966
 1694SOL    HW1 5098   2.265   0.982   3.924
 1694SOL    HW2 5099   2.156   0.861   3.917
 1695SOL     OW 5100   2.973   1.776   3.961
 1695SOL    HW1 5101   2.913   1.714   4.011
 1695SOL    HW2 5102   3.004   1.732   3.876
 1696SOL     OW 5103   3.494   1.377   3.805
 1696SOL    HW1 5104   3.462   1.471   3.795
 1696SOL    HW2 5105   3.418   1.314   3.793
 1697SOL     OW 5106   2.326   1.743   4.047
 1697SOL    HW1 5107   2.359   1.782   4.133
 1697SOL    HW2 5108   2.402   1.736   3.982
 1698SOL     OW 5109   3.262   0.107   4.150
 1698SOL    HW1 5110   3.238   0.070   4.060
 1698SOL    HW2 5111   3.361   0.123   4.154
 1699SOL     OW 5112   2.802   1.698   4.628
 1699SOL    HW1 5113   2.882   1.641   4.649
 1699SOL    HW2 5114   2.753   1.658   4.551
 1700SOL     OW 5115   2.244   0.700   4.204
 1700SOL    HW1 5116   2.289   0.610   4.201
 1700SOL    HW2 5117   2.150   0.689   4.237
 1701SOL     OW 5118   2.476   0.122   3.841
 1701SOL    HW1 5119   2.574   0.100   3.848
 1701SOL    HW2 5120   2.445   0.105   3.748
 1702SOL     OW 5121   2.401   0.064   4.236
 1702SOL    HW1 5122   2.320   0.065   4.294
 1702SOL    HW2 5123   2.404   0.147   4.181
 1703SOL     OW 5124   3.296   1.188   3.765
 1703SOL    HW1 5125   3.328   1.112   3.822
 1703SOL    HW2 5126   3.204   1.215   3.795
 1704SOL     OW 5127   2.159   0.035   3.895
 1704SOL    HW1 5128   2.208   0.119   3.874
 1704SOL    HW2 5129   2.221  -0.030   3.940
 1705SOL     OW 5130   2.797   0.236   4.204
 1705SOL    HW1 5131   2.749   0.277   4.126
 1705SOL    HW2 5132   2.896   0.234   4.185
 1706SOL     OW 5133   2.321   1.152   4.465
 1706SOL    HW1 5134   2.250   1.125   4.530
 1706SOL    HW2 5135   2.295   1.124   4.372
 1707SOL     OW 5136   3.133   1.797   4.315
 1707SOL    HW1 5137   3.177   1.861   4.251
 1707SOL    HW2 5138   3.083   1.849   4.385
 1708SOL     OW 5139   2.894   0.549   3.740
 1708SOL    HW1 5140   2.853   0.631   3.701
 1708SOL    HW2 5141   2.958   0.575   3.813
 1709SOL     OW 5142   2.728   0.454   4.366
 1709SOL    HW1 5143   2.696   0.526   4.304
 1709SOL    HW2 5144   2.752   0.373   4.313
 1710SOL     OW 5145   3.719   0.833   4.101
 1710SOL    HW1 5146   3.761   0.769   4.165
 1710SOL    HW2 5147   3.681   0.782   4.023
 1711SOL     OW 5148   2.350   1.385   3.898
 1711SOL    HW1 5149   2.263   1.370   3.945
 1711SOL    HW2 5150   2.333   1.411   3.803
 1712SOL     OW 5151   3.526   1.280   4.381
 1712SOL    HW1 5152   3.625   1.288   4.395
 1712SOL    HW2 5153   3.481   1.364   4.412
 1713SOL     OW 5154   3.252   0.575   3.802
 1713SOL    HW1 5155   3.198   0.554   3.883
 1713SOL    HW2 5156   3.343   0.534   3.811
 1714SOL     OW 5157   2.389   0.256   4.052
 1714SOL    HW1 5158   2.416   0.197   3.977
 1714SOL    HW2 5159   2.389   0.351   4.021
 1715SOL     OW 5160   2.567   1.050   4.092
 1715SOL    HW1 5161   2.553   1.057   4.191
 1715SOL    HW2 5162   2.651   0.999   4.074
 1716SOL     OW 5163   2.229   1.100   4.225
 1716SOL    HW1 5164   2.222   1.183   4.169
 1716SOL    HW2 5165   2.233   1.020   4.165
 1717SOL     OW 5166   3.114   1.348   4.112
 1717SOL    HW1 5167   3.164   1.425   4.152
 1717SOL    HW2 5168   3.019   1.350   4.144
 1718SOL     OW 5169   3.444   0.639   4.196
 1718SOL    HW1 5170   3.413   0.700   4.269
 1718SOL    HW2 5171   3.494   0.691   4.127
 1719SOL     OW 5172   3.071   0.525   3.999
 1719SOL    HW1 5173   3.084   0.441   4.053
 1719SOL    HW2 5174   3.042   0.599   4.059
 1720SOL     OW 5175   2.169   0.063   4.342
 1720SOL    HW1 5176   2.158   0.157   4.375
 1720SOL    HW2 5177   2.164   0.000   4.419
 1721SOL     OW 5178   3.484   0.367   4.098
 1721SOL    HW1 5179   3.486   0.291   4.162
 1721SOL    HW2 5180   3.436   0.444   4.138
 1722SOL     OW 5181   3.402   0.274   3.849
 1722SOL    HW1 5182   3.341   0.199   3.872
 1722SOL    HW2 5183   3.424   0.326   3.932
 1723SOL     OW 5184   3.165   0.838   3.766
 1723SOL    HW1 5185   3.199   0.745   3.781
 1723SOL    HW2 5186   3.183   0.865   3.671
 1724SOL     OW 5187   1.870   1.326   3.924
 1724SOL    HW1 5188   1.777   1.347   3.893
 1724SOL    HW2 5189   1.880   1.227   3.937
 1725SOL     OW 5190   2.677   0.572   4.049
 1725SOL    HW1 5191   2.684   0.483   4.003
 1725SOL    HW2 5192   2.583   0.606   4.041
 1726SOL     OW 5193   2.335   0.500   3.915
 1726SOL    HW1 5194   2.396   0.580   3.919
 1726SOL    HW2 5195   2.240   0.531   3.922
 1727SOL     OW 5196   3.164   0.855   4.033
 1727SOL    HW1 5197   3.078   0.824   4.075
 1727SOL    HW2 5198   3.160   0.841   3.934
 1728SOL     OW 5199   3.588   0.135   4.247
 1728SOL    HW1 5200   3.661   0.118   4.180
 1728SOL    HW2 5201   3.557   0.048   4.285
 1729SOL     OW 5202   3.250   1.573   4.201
 1729SOL    HW1 5203   3.317   1.585   4.127
 1729SOL    HW2 5204   3.210   1.662   4.224
 1730SOL     OW 5205   2.534   1.616   3.878
 1730SOL    HW1 5206   2.543   1.626   3.779
 1730SOL    HW2 5207   2.494   1.527   3.899
 1731SOL     OW 5208   3.056   1.612   3.755
 1731SOL    HW1 5209   3.062   1.519   3.792
 1731SOL    HW2 5210   2.997   1.612   3.675
 1732SOL     OW 5211   2.778   0.910   4.015
 1732SOL    HW1 5212   2.841   0.948   3.947
 1732SOL    HW2 5213   2.818   0.827   4.054
 1733SOL     OW 5214   3.366   1.607   3.768
 1733SOL    HW1 5215   3.274   1.644   3.775
 1733SOL    HW2 5216   3.404   1.627   3.678
 1734SOL     OW 5217   2.452   1.487   4.215
 1734SOL    HW1 5218   2.494   1.429   4.145
 1734SOL    HW2 5219   2.408   1.566   4.171
 1735SOL     OW 5220   2.117   1.348   4.014
 1735SOL    HW1 5221   2.021   1.349   3.987
 1735SOL    HW2 5222   2.129   1.401   4.098
 1736SOL     OW 5223   1.937   0.345   3.757
 1736SOL    HW1 5224   1.845   0.317   3.728
 1736SOL    HW2 5225   1.968   0.422   3.701
 1737SOL     OW 5226   1.934   0.166   4.042
 1737SOL    HW1 5227   1.917   0.249   3.988
 1737SOL    HW2 5228   2.024   0.129   4.020
 1738SOL     OW 5229   3.045   1.335   3.843
 1738SOL    HW1 5230   2.946   1.324   3.845
 1738SOL    HW2 5231   3.079   1.350   3.936
 1739SOL     OW 5232   3.087   0.325   4.173
 1739SOL    HW1 5233   3.152   0.251   4.162
 1739SOL    HW2 5234   3.107   0.375   4.257
 1740SOL     OW 5235   2.456   0.745   4.376
 1740SOL    HW1 5236   2.506   0.830   4.357
 1740SOL    HW2 5237   2.368   0.747   4.328
 1741SOL     OW 5238   2.721   1.374   3.740
 1741SOL    HW1 5239   2.675   1.389   3.828
 1741SOL    HW2 5240   2.765   1.459   3.710
 1742SOL     OW 5241   2.523   1.790   4.677
 1742SOL    HW1 5242   2.477   1.878   4.664
 1742SOL    HW2 5243   2.622   1.802   4.670
 1743SOL     OW 5244   2.721   0.956   4.585
 1743SOL    HW1 5245   2.775   0.887   4.633
 1743SOL    HW2 5246   2.689   1.025   4.651
 1744SOL     OW 5247   2.945   0.984   3.811
 1744SOL    HW1 5248   2.922   1.037   3.729
 1744SOL    HW2 5249   3.026   0.928   3.792
 1745SOL     OW 5250   1.941   1.240   4.377
 1745SOL    HW1 5251   1.940   1.193   4.465
 1745SOL    HW2 5252   2.023   1.212   4.326
 1746SOL     OW 5253   2.290   0.424   4.244
 1746SOL    HW1 5254   2.320   0.352   4.182
 1746SOL    HW2 5255   2.251   0.384   4.327
 1747SOL     OW 5256   2.674   1.586   4.411
 1747SOL    HW1 5257   2.706   1.596   4.317
 1747SOL    HW2 5258   2.595   1.524   4.413
 1748SOL     OW 5259   2.632   1.330   4.025
 1748SOL    HW1 5260   2.586   1.243   4.042
 1748SOL    HW2 5261   2.723   1.327   4.066
 1749SOL     OW 5262   3.214   0.052   3.892
 1749SOL    HW1 5263   3.249   0.011   3.808
 1749SOL    HW2 5264   3.124   0.014   3.912
 1750SOL     OW 5265   3.162   0.453   4.415
 1750SOL    HW1 5266   3.103   0.533   4.419
 1750SOL    HW2 5267   3.177   0.418   4.508
 1751SOL     OW 5268   1.901   1.077   4.024
 1751SOL    HW1 5269   2.000   1.066   4.015
 1751SOL    HW2 5270   1.861   0.991   4.056
 1752SOL     OW 5271   2.737   1.646   4.061
 1752SOL    HW1 5272   2.660   1.611   4.007
 1752SOL    HW2 5273   2.705   1.717   4.123
 1753SOL     OW 5274   2.092   2.490   0.113
 1753SOL    HW1 5275   1.999   2.488   0.150
 1753SOL    HW2 5276   2.093   2.451   0.021
 1754SOL     OW 5277   2.087   2.137   0.996
 1754SOL    HW1 5278   2.122   2.120   1.088
 1754SOL    HW2 5279   1.999   2.092   0.984
 1755SOL     OW 5280   1.881   2.230   0.647
 1755SOL    HW1 5281   1.799   2.273   0.686
 1755SOL    HW2 5282   1.853   2.157   0.584
 1756SOL     OW 5283   2.431   3.137   1.165
 1756SOL    HW1 5284   2.338   3.130   1.128
 1756SOL    HW2 5285   2.442   3.226   1.209
 1757SOL     OW 5286   3.417   3.373   0.703
 1757SOL    HW1 5287   3.360   3.357   0.784
 1757SOL    HW2 5288   3.358   3.383   0.623
 1758SOL     OW 5289   2.997   2.565   0.717
 1758SOL    HW1 5290   3.054   2.643   0.692
 1758SOL    HW2 5291   2.937   2.591   0.793
 1759SOL     OW 5292   3.617   2.469   0.231
 1759SOL    HW1 5293   3.605   2.456   0.132
 1759SOL    HW2 5294   3.587   2.388   0.280
 1760SOL     OW 5295   2.630   3.006   1.023
 1760SOL    HW1 5296   2.552   3.023   1.083
 1760SOL    HW2 5297   2.664   3.093   0.987
 1761SOL     OW 5298   2.712   2.660   1.823
 1761SOL    HW1 5299   2.708   2.736   1.888
 1761SOL    HW2 5300   2.734   2.696   1.732
 1762SOL     OW 5301   2.547   2.874   0.665
 1762SOL    HW1 5302   2.616   2.858   0.735
 1762SOL    HW2 5303   2.474   2.931   0.703
 1763SOL     OW 5304   2.548   3.023   1.803
 1763SOL    HW1 5305   2.608   3.102   1.817
 1763SOL    HW2 5306   2.462   3.054   1.762
 1764SOL     OW 5307   2.197   3.297   1.061
 1764SOL    HW1 5308   2.119   3.266   1.008
 1764SOL    HW2 5309   2.255   3.355   1.004
 1765SOL     OW 5310   3.322   3.367   1.339
 1765SOL    HW1 5311   3.346   3.461   1.365
 1765SOL    HW2 5312   3.306   3.313   1.421
 1766SOL     OW 5313   2.300   2.254   1.499
 1766SOL    HW1 5314   2.382   2.198   1.508
 1766SOL    HW2 5315   2.219   2.196   1.503
 1767SOL     OW 5316   3.465   2.309   0.737
 1767SOL    HW1 5317   3.391   2.355   0.687
 1767SOL    HW2 5318   3.516   2.377   0.790
 1768SOL     OW 5319   2.093   3.575   0.483
 1768SOL    HW1 5320   2.127   3.652   0.537
 1768SOL    HW2 5321   2.137   3.575   0.393
 1769SOL     OW 5322   2.989   3.203   1.690
 1769SOL    HW1 5323   3.036   3.203   1.778
 1769SOL    HW2 5324   2.941   3.116   1.679
 1770SOL     OW 5325   2.092   3.296   0.538
 1770SOL    HW1 5326   2.066   3.392   0.538
 1770SOL    HW2 5327   2.021   3.242   0.583
 1771SOL     OW 5328   2.102   2.953   0.886
 1771SOL    HW1 5329   2.116   2.869   0.938
 1771SOL    HW2 5330   2.047   3.017   0.941
 1772SOL     OW 5331   2.482   3.648   1.439
 1772SOL    HW1 5332   2.390   3.631   1.474
 1772SOL    HW2 5333   2.510   3.740   1.465
 1773SOL     OW 5334   2.468   2.826   0.123
 1773SOL    HW1 5335   2.475   2.910   0.069
 1773SOL    HW2 5336   2.514   2.839   0.211
 1774SOL     OW 5337   3.456   1.976   1.480
 1774SOL    HW1 5338   3.438   2.043   1.408
 1774SOL    HW2 5339   3.453   2.022   1.569
 1775SOL     OW 5340   1.984   2.505   0.563
 1775SOL    HW1 5341   1.939   2.417   0.580
 1775SOL    HW2 5342   1.983   2.559   0.647
 1776SOL     OW 5343   3.704   3.629   0.359
 1776SOL    HW1 5344   3.758   3.600   0.439
 1776SOL    HW2 5345   3.734   3.719   0.330
 1777SOL     OW 5346   1.889   3.458   0.117
 1777SOL    HW1 5347   1.870   3.362   0.138
 1777SOL    HW2 5348   1.856   3.516   0.192
 1778SOL     OW 5349   3.551   2.784   0.612
 1778SOL    HW1 5350   3.646   2.755   0.620
 1778SOL    HW2 5351   3.543   2.849   0.537
 1779SOL     OW 5352   3.503   2.970   0.432
 1779SOL    HW1 5353   3.589   2.972   0.380
 1779SOL    HW2 5354   3.517   3.017   0.520
 1780SOL     OW 5355   1.975   2.599   1.597
 1780SOL    HW1 5356   2.063   2.586   1.642
 1780SOL    HW2 5357   1.962   2.696   1.575
 1781SOL     OW 5358   2.475   3.227   0.726
 1781SOL    HW1 5359   2.426   3.140   0.735
 1781SOL    HW2 5360   2.452   3.270   0.639
 1782SOL     OW 5361   3.155   3.090   1.423
 1782SOL    HW1 5362   3.192   3.017   1.365
 1782SOL    HW2 5363   3.207   3.095   1.508
 1783SOL     OW 5364   2.671   1.866   0.502
 1783SOL    HW1 5365   2.711   1.957   0.493
 1783SOL    HW2 5366   2.571   1.874   0.508
 1784SOL     OW 5367   2.059   2.838   1.264
 1784SOL    HW1 5368   2.148   2.793   1.250
 1784SOL    HW2 5369   1.986   2.773   1.245
 1785SOL     OW 5370   3.387   2.861   0.190
 1785SOL    HW1 5371   3.324   2.785   0.203
 1785SOL    HW2 5372   3.435   2.879   0.276
 1786SOL     OW 5373   3.049   3.654   1.616
 1786SOL    HW1 5374   3.073   3.714   1.540
 1786SOL    HW2 5375   3.056   3.559   1.586
 1787SOL     OW 5376   2.179   2.113   1.801
 1787SOL    HW1 5377   2.250   2.184   1.807
 1787SOL    HW2 5378   2.091   2.152   1.829
 1788SOL     OW 5379   3.328   3.279   0.953
 1788SOL    HW1 5380   3.269   3.285   1.033
 1788SOL    HW2 5381   3.313   3.191   0.907
 1789SOL     OW 5382   3.529   3.576   0.572
 1789SOL    HW1 5383   3.488   3.553   0.484
 1789SOL    HW2 5384   3.511   3.502   0.637
 1790SOL     OW 5385   2.460   2.591   0.270
 1790SOL    HW1 5386   2.484   2.660   0.202
 1790SOL    HW2 5387   2.382   2.624   0.324
 1791SOL     OW 5388   3.143   2.207   0.944
 1791SOL    HW1 5389   3.057   2.157   0.931
 1791SOL    HW2 5390   3.205   2.153   1.000
 1792SOL     OW 5391   3.438   3.524   0.307
 1792SOL    HW1 5392   3.527   3.570   0.310
 1792SOL    HW2 5393   3.417   3.500   0.212
 1793SOL     OW 5394   2.669   2.467   1.465
 1793SOL    HW1 5395   2.622   2.464   1.554
 1793SOL    HW2 5396   2.618   2.412   1.399
 1794SOL     OW 5397   3.256   2.331   1.674
 1794SOL    HW1 5398   3.236   2.374   1.762
 1794SOL    HW2 5399   3.334   2.269   1.683
 1795SOL     OW 5400   2.835   2.752   1.572
 1795SOL    HW1 5401   2.881   2.668   1.543
 1795SOL    HW2 5402   2.779   2.786   1.497
 1796SOL     OW 5403   2.853   2.272   1.242
 1796SOL    HW1 5404   2.776   2.306   1.296
 1796SOL    HW2 5405   2.819   2.221   1.163
 1797SOL     OW 5406   2.903   2.563   0.429
 1797SOL    HW1 5407   2.929   2.559   0.525
 1797SOL    HW2 5408   2.818   2.512   0.415
 1798SOL     OW 5409   1.938   2.673   0.789
 1798SOL    HW1 5410   2.037   2.661   0.798
 1798SOL    HW2 5411   1.914   2.768   0.810
 1799SOL     OW 5412   1.992   3.683   1.571
 1799SOL    HW1 5413   1.982   3.668   1.670
 1799SOL    HW2 5414   1.906   3.719   1.535
 1800SOL     OW 5415   2.727   2.210   0.195
 1800SOL    HW1 5416   2.786   2.273   0.146
 1800SOL    HW2 5417   2.746   2.116   0.166
 1801SOL     OW 5418   3.581   2.447   1.831
 1801SOL    HW1 5419   3.555   2.536   1.795
 1801SOL    HW2 5420   3.579   2.379   1.758
 1802SOL     OW 5421   3.224   3.006   0.545
 1802SOL    HW1 5422   3.307   2.977   0.497
 1802SOL    HW2 5423   3.175   3.073   0.489
 1803SOL     OW 5424   2.412   2.058   0.885
 1803SOL    HW1 5425   2.407   2.053   0.985
 1803SOL    HW2 5426   2.414   2.154   0.856
 1804SOL     OW 5427   2.870   3.318   0.477
 1804SOL    HW1 5428   2.824   3.390   0.425
 1804SOL    HW2 5429   2.866   3.338   0.575
 1805SOL     OW 5430   2.213   3.663   0.853
 1805SOL    HW1 5431   2.263   3.577   0.859
 1805SOL    HW2 5432   2.278   3.740   0.850
 1806SOL     OW 5433   3.657   2.928   0.873
 1806SOL    HW1 5434   3.595   2.913   0.797
 1806SOL    HW2 5435   3.605   2.939   0.958
 1807SOL     OW 5436   3.089   3.412   1.506
 1807SOL    HW1 5437   3.095   3.335   1.570
 1807SOL    HW2 5438   3.037   3.386   1.426
 1808SOL     OW 5439   2.183   2.805   0.242
 1808SOL    HW1 5440   2.265   2.844   0.200
 1808SOL    HW2 5441   2.156   2.723   0.193
 1809SOL     OW 5442   3.320   2.597   0.728
 1809SOL    HW1 5443   3.315   2.532   0.803
 1809SOL    HW2 5444   3.400   2.656   0.741
 1810SOL     OW 5445   2.323   3.128   1.727
 1810SOL    HW1 5446   2.273   3.129   1.641
 1810SOL    HW2 5447   2.260   3.110   1.803
 1811SOL     OW 5448   2.973   3.638   0.237
 1811SOL    HW1 5449   2.913   3.576   0.287
 1811SOL    HW2 5450   3.004   3.594   0.152
 1812SOL     OW 5451   2.064   2.147   1.498
 1812SOL    HW1 5452   1.984   2.207   1.485
 1812SOL    HW2 5453   2.054   2.098   1.584
 1813SOL     OW 5454   3.494   3.239   0.081
 1813SOL    HW1 5455   3.462   3.333   0.071
 1813SOL    HW2 5456   3.418   3.176   0.069
 1814SOL     OW 5457   2.326   3.605   0.323
 1814SOL    HW1 5458   2.359   3.644   0.409
 1814SOL    HW2 5459   2.402   3.598   0.258
 1815SOL     OW 5460   3.262   1.969   0.426
 1815SOL    HW1 5461   3.238   1.932   0.336
 1815SOL    HW2 5462   3.361   1.985   0.430
 1816SOL     OW 5463   2.111   3.647   1.241
 1816SOL    HW1 5464   2.168   3.582   1.291
 1816SOL    HW2 5465   2.095   3.614   1.148
 1817SOL     OW 5466   2.802   3.560   0.904
 1817SOL    HW1 5467   2.882   3.503   0.925
 1817SOL    HW2 5468   2.753   3.520   0.827
 1818SOL     OW 5469   2.244   2.562   0.480
 1818SOL    HW1 5470   2.289   2.472   0.477
 1818SOL    HW2 5471   2.150   2.551   0.513
 1819SOL     OW 5472   3.409   2.084   1.729
 1819SOL    HW1 5473   3.404   2.121   1.821
 1819SOL    HW2 5474   3.337   2.015   1.717
 1820SOL     OW 5475   2.643   2.126   1.749
 1820SOL    HW1 5476   2.710   2.065   1.792
 1820SOL    HW2 5477   2.570   2.145   1.814
 1821SOL     OW 5478   2.750   3.376   1.195
 1821SOL    HW1 5479   2.727   3.351   1.101
 1821SOL    HW2 5480   2.811   3.307   1.234
 1822SOL     OW 5481   3.213   2.452   1.433
 1822SOL    HW1 5482   3.241   2.409   1.518
 1822SOL    HW2 5483   3.238   2.548   1.434
 1823SOL     OW 5484   2.665   3.264   0.924
 1823SOL    HW1 5485   2.755   3.278   0.882
 1823SOL    HW2 5486   2.594   3.266   0.853
 1824SOL     OW 5487   2.784   2.365   0.899
 1824SOL    HW1 5488   2.759   2.356   0.803
 1824SOL    HW2 5489   2.832   2.283   0.930
 1825SOL     OW 5490   2.401   1.926   0.512
 1825SOL    HW1 5491   2.320   1.927   0.570
 1825SOL    HW2 5492   2.404   2.009   0.457
 1826SOL     OW 5493   3.296   3.050   0.041
 1826SOL    HW1 5494   3.328   2.974   0.098
 1826SOL    HW2 5495   3.204   3.077   0.071
 1827SOL     OW 5496   2.797   2.098   0.480
 1827SOL    HW1 5497   2.749   2.139   0.402
 1827SOL    HW2 5498   2.896   2.096   0.461
 1828SOL     OW 5499   2.938   2.545   1.464
 1828SOL    HW1 5500   2.858   2.484   1.467
 1828SOL    HW2 5501   3.019   2.492   1.440
 1829SOL     OW 5502   3.089   3.432   0.793
 1829SOL    HW1 5503   3.110   3.506   0.728
 1829SOL    HW2 5504   3.157   3.432   0.866
 1830SOL     OW 5505   2.321   3.014   0.741
 1830SOL    HW1 5506   2.250   2.987   0.806
 1830SOL    HW2 5507   2.295   2.986   0.648
 1831SOL     OW 5508   3.133   3.659   0.591
 1831SOL    HW1 5509   3.177   3.723   0.527
 1831SOL    HW2 5510   3.083   3.711   0.661
 1832SOL     OW 5511   2.894   2.411   0.016
 1832SOL    HW1 5512   2.853   2.493  -0.023
 1832SOL    HW2 5513   2.958   2.437   0.089
 1833SOL     OW 5514   1.940   2.418   1.386
 1833SOL    HW1 5515   2.032   2.417   1.345
 1833SOL    HW2 5516   1.934   2.492   1.453
 1834SOL     OW 5517   2.423   2.084   1.147
 1834SOL    HW1 5518   2.461   2.000   1.184
 1834SOL    HW2 5519   2.335   2.103   1.191
 1835SOL     OW 5520   2.728   2.316   0.642
 1835SOL    HW1 5521   2.696   2.388   0.580
 1835SOL    HW2 5522   2.752   2.235   0.589
 1836SOL     OW 5523   2.879   1.901   0.753
 1836SOL    HW1 5524   2.807   1.906   0.684
 1836SOL    HW2 5525   2.855   1.832   0.822
 1837SOL     OW 5526   3.291   3.035   0.867
 1837SOL    HW1 5527   3.236   2.951   0.860
 1837SOL    HW2 5528   3.317   3.064   0.775
 1838SOL     OW 5529   3.328   2.452   0.992
 1838SOL    HW1 5530   3.298   2.357   0.999
 1838SOL    HW2 5531   3.401   2.468   1.058
 1839SOL     OW 5532   3.719   2.695   0.377
 1839SOL    HW1 5533   3.761   2.631   0.441
 1839SOL    HW2 5534   3.681   2.644   0.299
 1840SOL     OW 5535   2.350   3.247   0.174
 1840SOL    HW1 5536   2.263   3.232   0.221
 1840SOL    HW2 5537   2.333   3.273   0.079
 1841SOL     OW 5538   3.526   3.142   0.657
 1841SOL    HW1 5539   3.625   3.150   0.671
 1841SOL    HW2 5540   3.481   3.226   0.688
 1842SOL     OW 5541   3.252   2.437   0.078
 1842SOL    HW1 5542   3.198   2.416   0.159
 1842SOL    HW2 5543   3.343   2.396   0.087
 1843SOL     OW 5544   2.389   2.118   0.328
 1843SOL    HW1 5545   2.416   2.059   0.253
 1843SOL    HW2 5546   2.389   2.213   0.297
 1844SOL     OW 5547   3.616   3.085   1.588
 1844SOL    HW1 5548   3.707   3.046   1.575
 1844SOL    HW2 5549   3.624   3.181   1.612
 1845SOL     OW 5550   2.926   3.209   1.340
 1845SOL    HW1 5551   2.846   3.186   1.395
 1845SOL    HW2 5552   3.009   3.183   1.389
 1846SOL     OW 5553   3.454   3.491   1.625
 1846SOL    HW1 5554   3.481   3.525   1.535
 1846SOL    HW2 5555   3.533   3.453   1.671
 1847SOL     OW 5556   2.973   3.057   1.100
 1847SOL    HW1 5557   2.933   3.101   1.181
 1847SOL    HW2 5558   2.932   3.094   1.017
 1848SOL     OW 5559   3.500   2.961   1.079
 1848SOL    HW1 5560   3.505   3.042   1.138
 1848SOL    HW2 5561   3.414   2.963   1.028
 1849SOL     OW 5562   2.777   1.951   1.402
 1849SOL    HW1 5563   2.802   1.931   1.307
 1849SOL    HW2 5564   2.849   2.007   1.444
 1850SOL     OW 5565   2.842   2.978   1.719
 1850SOL    HW1 5566   2.743   2.984   1.729
 1850SOL    HW2 5567   2.865   2.898   1.663
 1851SOL     OW 5568   2.567   2.912   0.368
 1851SOL    HW1 5569   2.553   2.919   0.467
 1851SOL    HW2 5570   2.651   2.861   0.350
 1852SOL     OW 5571   2.272   2.675   1.251
 1852SOL    HW1 5572   2.358   2.687   1.301
 1852SOL    HW2 5573   2.230   2.588   1.278
 1853SOL     OW 5574   3.136   2.248   1.262
 1853SOL    HW1 5575   3.157   2.322   1.326
 1853SOL    HW2 5576   3.047   2.265   1.219
 1854SOL     OW 5577   1.926   3.426   1.331
 1854SOL    HW1 5578   1.880   3.508   1.297
 1854SOL    HW2 5579   2.024   3.445   1.340
 1855SOL     OW 5580   2.229   2.962   0.501
 1855SOL    HW1 5581   2.222   3.045   0.445
 1855SOL    HW2 5582   2.233   2.882   0.441
 1856SOL     OW 5583   2.428   2.399   0.865
 1856SOL    HW1 5584   2.440   2.465   0.791
 1856SOL    HW2 5585   2.474   2.433   0.948
 1857SOL     OW 5586   3.114   3.210   0.388
 1857SOL    HW1 5587   3.164   3.287   0.428
 1857SOL    HW2 5588   3.019   3.212   0.420
 1858SOL     OW 5589   3.134   3.307   1.142
 1858SOL    HW1 5590   3.181   3.320   1.229
 1858SOL    HW2 5591   3.068   3.233   1.151
 1859SOL     OW 5592   3.444   2.501   0.472
 1859SOL    HW1 5593   3.413   2.562   0.545
 1859SOL    HW2 5594   3.494   2.553   0.403
 1860SOL     OW 5595   2.216   3.372   1.329
 1860SOL    HW1 5596   2.195   3.328   1.242
 1860SOL    HW2 5597   2.313   3.398   1.332
 1861SOL     OW 5598   2.264   2.613   1.598
 1861SOL    HW1 5599   2.332   2.668   1.551
 1861SOL    HW2 5600   2.304   2.525   1.625
 1862SOL     OW 5601   3.449   2.641   1.670
 1862SOL    HW1 5602   3.357   2.679   1.665
 1862SOL    HW2 5603   3.509   2.688   1.605
 1863SOL     OW 5604   2.875   1.967   1.770
 1863SOL    HW1 5605   2.881   2.052   1.718
 1863SOL    HW2 5606   2.907   1.891   1.713
 1864SOL     OW 5607   2.366   1.912   1.740
 1864SOL    HW1 5608   2.324   1.855   1.670
 1864SOL    HW2 5609   2.300   1.981   1.772
 1865SOL     OW 5610   2.435   2.732   1.029
 1865SOL    HW1 5611   2.479   2.821   1.020
 1865SOL    HW2 5612   2.372   2.732   1.106
 1866SOL     OW 5613   3.222   2.724   1.045
 1866SOL    HW1 5614   3.147   2.724   0.979
 1866SOL    HW2 5615   3.259   2.632   1.054
 1867SOL     OW 5616   3.071   2.387   0.275
 1867SOL    HW1 5617   3.084   2.303   0.329
 1867SOL    HW2 5618   3.042   2.461   0.335
 1868SOL     OW 5619   2.169   2.075   1.231
 1868SOL    HW1 5620   2.146   2.112   1.321
 1868SOL    HW2 5621   2.139   1.980   1.225
 1869SOL     OW 5622   1.899   3.172   1.282
 1869SOL    HW1 5623   1.952   3.123   1.350
 1869SOL    HW2 5624   1.921   3.270   1.287
 1870SOL     OW 5625   2.594   2.496   1.064
 1870SOL    HW1 5626   2.653   2.470   0.988
 1870SOL    HW2 5627   2.566   2.592   1.053
 1871SOL     OW 5628   3.590   2.797   1.854
 1871SOL    HW1 5629   3.544   2.790   1.765
 1871SOL    HW2 5630   3.528   2.841   1.920
 1872SOL     OW 5631   2.169   1.925   0.618
 1872SOL    HW1 5632   2.158   2.019   0.651
 1872SOL    HW2 5633   2.164   1.862   0.695
 1873SOL     OW 5634   3.484   2.229   0.374
 1873SOL    HW1 5635   3.486   2.153   0.438
 1873SOL    HW2 5636   3.436   2.306   0.414
 1874SOL     OW 5637   2.885   2.628   0.966
 1874SOL    HW1 5638   2.900   2.649   1.062
 1874SOL    HW2 5639   2.855   2.533   0.957
 1875SOL     OW 5640   2.842   3.435   1.700
 1875SOL    HW1 5641   2.822   3.479   1.612
 1875SOL    HW2 5642   2.881   3.344   1.684
 1876SOL     OW 5643   3.721   3.380   1.605
 1876SOL    HW1 5644   3.735   3.407   1.510
 1876SOL    HW2 5645   3.804   3.402   1.658
 1877SOL     OW 5646   2.212   2.760   1.804
 1877SOL    HW1 5647   2.288   2.804   1.852
 1877SOL    HW2 5648   2.247   2.713   1.722
 1878SOL     OW 5649   3.402   2.136   0.125
 1878SOL    HW1 5650   3.341   2.061   0.148
 1878SOL    HW2 5651   3.424   2.188   0.208
 1879SOL     OW 5652   3.165   2.700   0.042
 1879SOL    HW1 5653   3.199   2.607   0.057
 1879SOL    HW2 5654   3.183   2.727  -0.053
 1880SOL     OW 5655   2.930   3.195   0.849
 1880SOL    HW1 5656   2.937   3.111   0.794
 1880SOL    HW2 5657   2.992   3.264   0.813
 1881SOL     OW 5658   2.181   2.672   0.949
 1881SOL    HW1 5659   2.274   2.708   0.954
 1881SOL    HW2 5660   2.175   2.587   1.001
 1882SOL     OW 5661   2.201   2.371   1.006
 1882SOL    HW1 5662   2.149   2.288   0.989
 1882SOL    HW2 5663   2.278   2.376   0.942
 1883SOL     OW 5664   3.000   2.242   1.678
 1883SOL    HW1 5665   2.955   2.305   1.742
 1883SOL    HW2 5666   3.093   2.273   1.661
 1884SOL     OW 5667   3.022   2.069   1.477
 1884SOL    HW1 5668   3.022   2.133   1.554
 1884SOL    HW2 5669   3.050   2.117   1.394
 1885SOL     OW 5670   1.870   3.188   0.200
 1885SOL    HW1 5671   1.777   3.209   0.169
 1885SOL    HW2 5672   1.880   3.089   0.213
 1886SOL     OW 5673   1.950   3.663   0.927
 1886SOL    HW1 5674   1.908   3.577   0.900
 1886SOL    HW2 5675   2.044   3.666   0.893
 1887SOL     OW 5676   2.366   3.430   0.910
 1887SOL    HW1 5677   2.432   3.504   0.919
 1887SOL    HW2 5678   2.410   3.351   0.868
 1888SOL     OW 5679   2.864   2.658   1.238
 1888SOL    HW1 5680   2.905   2.626   1.324
 1888SOL    HW2 5681   2.768   2.631   1.235
 1889SOL     OW 5682   1.902   2.406   1.114
 1889SOL    HW1 5683   1.987   2.373   1.073
 1889SOL    HW2 5684   1.915   2.421   1.212
 1890SOL     OW 5685   2.051   2.382   1.722
 1890SOL    HW1 5686   2.110   2.342   1.652
 1890SOL    HW2 5687   1.993   2.453   1.681
 1891SOL     OW 5688   3.231   2.812   1.660
 1891SOL    HW1 5689   3.270   2.901   1.680
 1891SOL    HW2 5690   3.241   2.792   1.563
 1892SOL     OW 5691   2.677   2.434   0.325
 1892SOL    HW1 5692   2.684   2.345   0.279
 1892SOL    HW2 5693   2.583   2.468   0.317
 1893SOL     OW 5694   3.519   2.466   1.206
 1893SOL    HW1 5695   3.481   2.397   1.268
 1893SOL    HW2 5696   3.601   2.430   1.162
 1894SOL     OW 5697   2.114   3.426   1.744
 1894SOL    HW1 5698   2.084   3.483   1.820
 1894SOL    HW2 5699   2.107   3.329   1.770
 1895SOL     OW 5700   2.533   2.326   1.269
 1895SOL    HW1 5701   2.499   2.237   1.239
 1895SOL    HW2 5702   2.559   2.380   1.189
 1896SOL     OW 5703   2.792   3.540   1.465
 1896SOL    HW1 5704   2.768   3.522   1.370
 1896SOL    HW2 5705   2.822   3.634   1.475
 1897SOL     OW 5706   2.335   2.362   0.191
 1897SOL    HW1 5707   2.396   2.442   0.195
 1897SOL    HW2 5708   2.240   2.393   0.198
 1898SOL     OW 5709   2.021   2.999   1.466
 1898SOL    HW1 5710   2.043   2.938   1.542
 1898SOL    HW2 5711   2.031   2.950   1.380
 1899SOL     OW 5712   3.209   2.921   1.234
 1899SOL    HW1 5713   3.233   2.858   1.160
 1899SOL    HW2 5714   3.119   2.961   1.216
 1900SOL     OW 5715   3.164   2.717   0.309
 1900SOL    HW1 5716   3.078   2.686   0.351
 1900SOL    HW2 5717   3.160   2.703   0.210
 1901SOL     OW 5718   3.621   3.609   1.154
 1901SOL    HW1 5719   3.682   3.639   1.081
 1901SOL    HW2 5720   3.583   3.520   1.132
 1902SOL     OW 5721   3.114   3.593   1.128
 1902SOL    HW1 5722   3.198   3.598   1.074
 1902SOL    HW2 5723   3.091   3.497   1.146
 1903SOL     OW 5724   1.945   3.120   1.022
 1903SOL    HW1 5725   1.940   3.119   1.122
 1903SOL    HW2 5726   1.862   3.079   0.984
 1904SOL     OW 5727   2.550   3.524   1.716
 1904SOL    HW1 5728   2.494   3.605   1.725
 1904SOL    HW2 5729   2.602   3.528   1.630
 1905SOL     OW 5730   2.765   1.948   0.133
 1905SOL    HW1 5731   2.816   1.949   0.047
 1905SOL    HW2 5732   2.821   1.906   0.204
 1906SOL     OW 5733   3.588   1.997   0.523
 1906SOL    HW1 5734   3.661   1.980   0.456
 1906SOL    HW2 5735   3.557   1.910   0.561
 1907SOL     OW 5736   3.250   3.435   0.477
 1907SOL    HW1 5737   3.317   3.447   0.403
 1907SOL    HW2 5738   3.210   3.524   0.500
 1908SOL     OW 5739   1.992   3.656   1.851
 1908SOL    HW1 5740   1.951   3.582   1.904
 1908SOL    HW2 5741   2.056   3.707   1.909
 1909SOL     OW 5742   3.142   2.789   0.672
 1909SOL    HW1 5743   3.202   2.708   0.674
 1909SOL    HW2 5744   3.182   2.858   0.612
 1910SOL     OW 5745   2.692   3.135   1.422
 1910SOL    HW1 5746   2.687   3.168   1.517
 1910SOL    HW2 5747   2.606   3.154   1.376
 1911SOL     OW 5748   2.534   3.478   0.154
 1911SOL    HW1 5749   2.543   3.488   0.055
 1911SOL    HW2 5750   2.494   3.389   0.175
 1912SOL     OW 5751   3.512   3.582   1.394
 1912SOL    HW1 5752   3.565   3.592   1.310
 1912SOL    HW2 5753   3.485   3.672   1.428
 1913SOL     OW 5754   3.703   2.037   0.963
 1913SOL    HW1 5755   3.742   1.952   0.927
 1913SOL    HW2 5756   3.605   2.039   0.944
 1914SOL     OW 5757   2.125   2.188   0.720
 1914SOL    HW1 5758   2.046   2.239   0.686
 1914SOL    HW2 5759   2.116   2.173   0.818
 1915SOL     OW 5760   3.056   3.474   0.031
 1915SOL    HW1 5761   3.062   3.381   0.068
 1915SOL    HW2 5762   2.997   3.474  -0.049
 1916SOL     OW 5763   2.684   2.864   1.372
 1916SOL    HW1 5764   2.724   2.863   1.280
 1916SOL    HW2 5765   2.694   2.956   1.412
 1917SOL     OW 5766   2.778   2.772   0.291
 1917SOL    HW1 5767   2.841   2.810   0.223
 1917SOL    HW2 5768   2.818   2.689   0.330
 1918SOL     OW 5769   3.366   3.469   0.044
 1918SOL    HW1 5770   3.274   3.506   0.051
 1918SOL    HW2 5771   3.404   3.489  -0.046
 1919SOL     OW 5772   2.234   3.150   1.490
 1919SOL    HW1 5773   2.221   3.243   1.456
 1919SOL    HW2 5774   2.150   3.098   1.477
 1920SOL     OW 5775   3.476   3.154   1.289
 1920SOL    HW1 5776   3.536   3.157   1.369
 1920SOL    HW2 5777   3.401   3.218   1.302
 1921SOL     OW 5778   2.901   2.960   0.696
 1921SOL    HW1 5779   2.831   2.913   0.750
 1921SOL    HW2 5780   2.960   2.892   0.653
 1922SOL     OW 5781   2.876   2.098   0.971
 1922SOL    HW1 5782   2.868   2.062   0.878
 1922SOL    HW2 5783   2.874   2.022   1.036
 1923SOL     OW 5784   2.452   3.349   0.491
 1923SOL    HW1 5785   2.494   3.291   0.421
 1923SOL    HW2 5786   2.408   3.428   0.447
 1924SOL     OW 5787   3.571   2.247   1.381
 1924SOL    HW1 5788   3.644   2.316   1.385
 1924SOL    HW2 5789   3.599   2.172   1.322
 1925SOL     OW 5790   2.117   3.210   0.290
 1925SOL    HW1 5791   2.021   3.211   0.263
 1925SOL    HW2 5792   2.129   3.263   0.374
 1926SOL     OW 5793   1.967   2.875   1.726
 1926SOL    HW1 5794   1.890   2.842   1.780
 1926SOL    HW2 5795   2.052   2.845   1.768
 1927SOL     OW 5796   2.534   2.065   1.489
 1927SOL    HW1 5797   2.624   2.049   1.449
 1927SOL    HW2 5798   2.542   2.070   1.588
 1928SOL     OW 5799   1.937   2.207   0.033
 1928SOL    HW1 5800   1.845   2.179   0.004
 1928SOL    HW2 5801   1.968   2.284  -0.023
 1929SOL     OW 5802   3.302   2.718   1.398
 1929SOL    HW1 5803   3.245   2.770   1.335
 1929SOL    HW2 5804   3.398   2.730   1.374
 1930SOL     OW 5805   1.934   2.028   0.318
 1930SOL    HW1 5806   1.917   2.111   0.264
 1930SOL    HW2 5807   2.024   1.991   0.296
 1931SOL     OW 5808   3.045   3.197   0.119
 1931SOL    HW1 5809   2.946   3.186   0.121
 1931SOL    HW2 5810   3.079   3.212   0.212
 1932SOL     OW 5811   2.475   2.704   1.431
 1932SOL    HW1 5812   2.531   2.785   1.414
 1932SOL    HW2 5813   2.534   2.624   1.434
 1933SOL     OW 5814   3.355   3.629   0.959
 1933SOL    HW1 5815   3.388   3.693   0.890
 1933SOL    HW2 5816   3.421   3.623   1.034
 1934SOL     OW 5817   2.578   2.427   1.708
 1934SOL    HW1 5818   2.597   2.492   1.782
 1934SOL    HW2 5819   2.638   2.347   1.717
 1935SOL     OW 5820   3.312   3.082   1.633
 1935SOL    HW1 5821   3.303   3.072   1.732
 1935SOL    HW2 5822   3.408   3.075   1.607
 1936SOL     OW 5823   2.252   3.603   1.560
 1936SOL    HW1 5824   2.161   3.644   1.558
 1936SOL    HW2 5825   2.245   3.509   1.592
 1937SOL     OW 5826   3.536   2.745   1.254
 1937SOL    HW1 5827   3.509   2.656   1.217
 1937SOL    HW2 5828   3.537   2.813   1.181
 1938SOL     OW 5829   3.087   2.187   0.449
 1938SOL    HW1 5830   3.152   2.113   0.438
 1938SOL    HW2 5831   3.107   2.237   0.533
 1939SOL     OW 5832   2.456   2.607   0.652
 1939SOL    HW1 5833   2.506   2.692   0.633
 1939SOL    HW2 5834   2.368   2.609   0.604
 1940SOL     OW 5835   3.639   2.204   1.642
 1940SOL    HW1 5836   3.622   2.235   1.548
 1940SOL    HW2 5837   3.555   2.167   1.680
 1941SOL     OW 5838   3.592   2.796   1.517
 1941SOL    HW1 5839   3.630   2.887   1.532
 1941SOL    HW2 5840   3.584   2.779   1.418
 1942SOL     OW 5841   2.721   3.236   0.016
 1942SOL    HW1 5842   2.675   3.251   0.104
 1942SOL    HW2 5843   2.765   3.321  -0.014
 1943SOL     OW 5844   2.523   3.652   0.953
 1943SOL    HW1 5845   2.477   3.740   0.940
 1943SOL    HW2 5846   2.622   3.664   0.946
 1944SOL     OW 5847   2.721   2.818   0.861
 1944SOL    HW1 5848   2.775   2.749   0.909
 1944SOL    HW2 5849   2.689   2.887   0.927
 1945SOL     OW 5850   2.945   2.846   0.087
 1945SOL    HW1 5851   2.922   2.899   0.005
 1945SOL    HW2 5852   3.026   2.790   0.068
 1946SOL     OW 5853   3.723   3.431   0.851
 1946SOL    HW1 5854   3.652   3.419   0.781
 1946SOL    HW2 5855   3.724   3.352   0.911
 1947SOL     OW 5856   2.083   3.176   1.844
 1947SOL    HW1 5857   2.018   3.103   1.823
 1947SOL    HW2 5858   2.087   3.190   1.942
 1948SOL     OW 5859   1.941   3.102   0.653
 1948SOL    HW1 5860   1.940   3.055   0.741
 1948SOL    HW2 5861   2.023   3.074   0.602
 1949SOL     OW 5862   2.534   3.253   1.624
 1949SOL    HW1 5863   2.456   3.203   1.662
 1949SOL    HW2 5864   2.531   3.348   1.655
 1950SOL     OW 5865   3.686   2.054   1.227
 1950SOL    HW1 5866   3.682   1.964   1.271
 1950SOL    HW2 5867   3.689   2.043   1.128
 1951SOL     OW 5868   2.290   2.286   0.520
 1951SOL    HW1 5869   2.320   2.214   0.458
 1951SOL    HW2 5870   2.251   2.246   0.603
 1952SOL     OW 5871   3.567   3.349   1.104
 1952SOL    HW1 5872   3.474   3.324   1.077
 1952SOL    HW2 5873   3.593   3.299   1.186
 1953SOL     OW 5874   2.179   2.409   1.280
 1953SOL    HW1 5875   2.217   2.350   1.352
 1953SOL    HW2 5876   2.219   2.383   1.192
 1954SOL     OW 5877   2.674   3.448   0.687
 1954SOL    HW1 5878   2.706   3.458   0.593
 1954SOL    HW2 5879   2.595   3.386   0.689
 1955SOL     OW 5880   3.286   2.076   1.112
 1955SOL    HW1 5881   3.338   2.011   1.167
 1955SOL    HW2 5882   3.237   2.139   1.173
 1956SOL     OW 5883   2.863   1.896   1.154
 1956SOL    HW1 5884   2.800   1.824   1.123
 1956SOL    HW2 5885   2.956   1.860   1.154
 1957SOL     OW 5886   2.632   3.192   0.301
 1957SOL    HW1 5887   2.586   3.105   0.318
 1957SOL    HW2 5888   2.723   3.189   0.342
 1958SOL     OW 5889   2.480   3.429   1.284
 1958SOL    HW1 5890   2.475   3.511   1.341
 1958SOL    HW2 5891   2.569   3.426   1.239
 1959SOL     OW 5892   3.214   1.914   0.168
 1959SOL    HW1 5893   3.249   1.873   0.084
 1959SOL    HW2 5894   3.124   1.876   0.188
 1960SOL     OW 5895   3.162   2.315   0.691
 1960SOL    HW1 5896   3.103   2.395   0.695
 1960SOL    HW2 5897   3.177   2.280   0.784
 1961SOL     OW 5898   3.455   2.083   0.882
 1961SOL    HW1 5899   3.371   2.082   0.936
 1961SOL    HW2 5900   3.457   2.166   0.826
 1962SOL     OW 5901   1.901   2.939   0.300
 1962SOL    HW1 5902   2.000   2.928   0.291
 1962SOL    HW2 5903   1.861   2.853   0.332
 1963SOL     OW 5904   2.737   3.508   0.337
 1963SOL    HW1 5905   2.660   3.473   0.283
 1963SOL    HW2 5906   2.705   3.579   0.399
 1964SOL     OW 5907   2.092   2.490   1.975
 1964SOL    HW1 5908   1.999   2.488   2.012
 1964SOL    HW2 5909   2.093   2.451   1.883
 1965SOL     OW 5910   2.087   2.137   2.858
 1965SOL    HW1 5911   2.122   2.120   2.950
 1965SOL    HW2 5912   1.999   2.092   2.846
 1966SOL     OW 5913   1.881   2.230   2.509
 1966SOL    HW1 5914   1.799   2.273   2.548
 1966SOL    HW2 5915   1.853   2.157   2.446
 1967SOL     OW 5916   2.431   3.137   3.027
 1967SOL    HW1 5917   2.338   3.130   2.990
 1967SOL    HW2 5918   2.442   3.226   3.071
 1968SOL     OW 5919   3.417   3.373   2.565
 1968SOL    HW1 5920   3.360   3.357   2.646
 1968SOL    HW2 5921   3.358   3.383   2.485
 1969SOL     OW 5922   2.997   2.565   2.579
 1969SOL    HW1 5923   3.054   2.643   2.554
 1969SOL    HW2 5924   2.937   2.591   2.655
 1970SOL     OW 5925   3.617   2.469   2.093
 1970SOL    HW1 5926   3.605   2.456   1.994
 1970SOL    HW2 5927   3.587   2.388   2.142
 1971SOL     OW 5928   2.630   3.006   2.885
 1971SOL    HW1 5929   2.552   3.023   2.945
 1971SOL    HW2 5930   2.664   3.093   2.849
 1972SOL     OW 5931   2.712   2.660   3.685
 1972SOL    HW1 5932   2.708   2.736   3.750
 1972SOL    HW2 5933   2.734   2.696   3.594
 1973SOL     OW 5934   2.547   2.874   2.527
 1973SOL    HW1 5935   2.616   2.858   2.597
 1973SOL    HW2 5936   2.474   2.931   2.565
 1974SOL     OW 5937   2.548   3.023   3.665
 1974SOL    HW1 5938   2.608   3.102   3.679
 1974SOL    HW2 5939   2.462   3.054   3.624
 1975SOL     OW 5940   2.197   3.297   2.923
 1975SOL    HW1 5941   2.119   3.266   2.870
 1975SOL    HW2 5942   2.255   3.355   2.866
 1976SOL     OW 5943   3.322   3.367   3.201
 1976SOL    HW1 5944   3.346   3.461   3.227
 1976SOL    HW2 5945   3.306   3.313   3.283
 1977SOL     OW 5946   2.300   2.254   3.361
 1977SOL    HW1 5947   2.382   2.198   3.370
 1977SOL    HW2 5948   2.219   2.196   3.365
 1978SOL     OW 5949   3.465   2.309   2.599
 1978SOL    HW1 5950   3.391   2.355   2.549
 1978SOL    HW2 5951   3.516   2.377   2.652
 1979SOL     OW 5952   2.093   3.575   2.345
 1979SOL    HW1 5953   2.127   3.652   2.399
 1979SOL    HW2 5954   2.137   3.575   2.255
 1980SOL     OW 5955   2.989   3.203   3.552
 1980SOL    HW1 5956   3.036   3.203   3.640
 1980SOL    HW2 5957   2.941   3.116   3.541
 1981SOL     OW 5958   2.092   3.296   2.400
 1981SOL    HW1 5959   2.066   3.392   2.400
 1981SOL    HW2 5960   2.021   3.242   2.445
 1982SOL     OW 5961   2.102   2.953   2.748
 1982SOL    HW1 5962   2.116   2.869   2.800
 1982SOL    HW2 5963   2.047   3.017   2.803
 1983SOL     OW 5964   2.482   3.648   3.301
 1983SOL    HW1 5965   2.390   3.631   3.336
 1983SOL    HW2 5966   2.510   3.740   3.327
 1984SOL     OW 5967   2.468   2.826   1.985
 1984SOL    HW1 5968   2.475   2.910   1.931
 1984SOL    HW2 5969   2.514   2.839   2.073
 1985SOL     OW 5970   3.456   1.976   3.342
 1985SOL    HW1 5971   3.438   2.043   3.270
 1985SOL    HW2 5972   3.453   2.022   3.431
 1986SOL     OW 5973   1.984   2.505   2.425
 1986SOL    HW1 5974   1.939   2.417   2.442
 1986SOL    HW2 5975   1.983   2.559   2.509
 1987SOL     OW 5976   3.704   3.629   2.221
 1987SOL    HW1 5977   3.758   3.600   2.301
 1987SOL    HW2 5978   3.734   3.719   2.192
 1988SOL     OW 5979   1.889   3.458   1.979
 1988SOL    HW1 5980   1.870   3.362   2.000
 1988SOL    HW2 5981   1.856   3.516   2.054
 1989SOL     OW 5982   3.551   2.784   2.474
 1989SOL    HW1 5983   3.646   2.755   2.482
 1989SOL    HW2 5984   3.543   2.849   2.399
 1990SOL     OW 5985   3.503   2.970   2.294
 1990SOL    HW1 5986   3.589   2.972   2.242
 1990SOL    HW2 5987   3.517   3.017   2.382
 1991SOL     OW 5988   1.975   2.599   3.459
 1991SOL    HW1 5989   2.063   2.586   3.504
 1991SOL    HW2 5990   1.962   2.696   3.437
 1992SOL     OW 5991   2.475   3.227   2.588
 1992SOL    HW1 5992   2.426   3.140   2.597
 1992SOL    HW2 5993   2.452   3.270   2.501
 1993SOL     OW 5994   3.155   3.090   3.285
 1993SOL    HW1 5995   3.192   3.017   3.227
 1993SOL    HW2 5996   3.207   3.095   3.370
 1994SOL     OW 5997   2.671   1.866   2.364
 1994SOL    HW1 5998   2.711   1.957   2.355
 1994SOL    HW2 5999   2.571   1.874   2.370
 1995SOL     OW 6000   2.059   2.838   3.126
 1995SOL    HW1 6001   2.148   2.793   3.112
 1995SOL    HW2 6002   1.986   2.773   3.107
 1996SOL     OW 6003   3.387   2.861   2.052
 1996SOL    HW1 6004   3.324   2.785   2.065
 1996SOL    HW2 6005   3.435   2.879   2.138
 1997SOL     OW 6006   3.049   3.654   3.478
 1997SOL    HW1 6007   3.073   3.714   3.402
 1997SOL    HW2 6008   3.056   3.559   3.448
 1998SOL     OW 6009   2.179   2.113   3.663
 1998SOL    HW1 6010   2.250   2.184   3.669
 1998SOL    HW2 6011   2.091   2.152   3.691
 1999SOL     OW 6012   3.328   3.279   2.815
 1999SOL    HW1 6013   3.269   3.285   2.895
 1999SOL    HW2 6014   3.313   3.191   2.769
 2000SOL     OW 6015   3.529   3.576   2.434
 2000SOL    HW1 6016   3.488   3.553   2.346
 2000SOL    HW2 6017   3.511   3.502   2.499
 2001SOL     OW 6018   2.460   2.591   2.132
 2001SOL    HW1 6019   2.484   2.660   2.064
 2001SOL    HW2 6020   2.382   2.624   2.186
 2002SOL     OW 6021   3.143   2.207   2.806
 2002SOL    HW1 6022   3.057   2.157   2.793
 2002SOL    HW2 6023   3.205   2.153   2.862
 2003SOL     OW 6024   3.438   3.524   2.169
 2003SOL    HW1 6025   3.527   3.570   2.172
 2003SOL    HW2 6026   3.417   3.500   2.074
 2004SOL     OW 6027   2.669   2.467   3.327
 2004SOL    HW1 6028   2.622   2.464   3.416
 2004SOL    HW2 6029   2.618   2.412   3.261
 2005SOL     OW 6030   3.256   2.331   3.536
 2005SOL    HW1 6031   3.236   2.374   3.624
 2005SOL    HW2 6032   3.334   2.269   3.545
 2006SOL     OW 6033   2.835   2.752   3.434
 2006SOL    HW1 6034   2.881   2.668   3.405
 2006SOL    HW2 6035   2.779   2.786   3.359
 2007SOL     OW 6036   2.853   2.272   3.104
 2007SOL    HW1 6037   2.776   2.306   3.158
 2007SOL    HW2 6038   2.819   2.221   3.025
 2008SOL     OW 6039   2.903   2.563   2.291
 2008SOL    HW1 6040   2.929   2.559   2.387
 2008SOL    HW2 6041   2.818   2.512   2.277
 2009SOL     OW 6042   1.938   2.673   2.651
 2009SOL    HW1 6043   2.037   2.661   2.660
 2009SOL    HW2 6044   1.914   2.768   2.672
 2010SOL     OW 6045   1.992   3.683   3.433
 2010SOL    HW1 6046   1.982   3.668   3.532
 2010SOL    HW2 6047   1.906   3.719   3.397
 2011SOL     OW 6048   2.727   2.210   2.057
 2011SOL    HW1 6049   2.786   2.273   2.008
 2011SOL    HW2 6050   2.746   2.116   2.028
 2012SOL     OW 6051   3.581   2.447   3.693
 2012SOL    HW1 6052   3.555   2.536   3.657
 2012SOL    HW2 6053   3.579   2.379   3.620
 2013SOL     OW 6054   3.224   3.006   2.407
 2013SOL    HW1 6055   3.307   2.977   2.359
 2013SOL    HW2 6056   3.175   3.073   2.351
 2014SOL     OW 6057   2.412   2.058   2.747
 2014SOL    HW1 6058   2.407   2.053   2.847
 2014SOL    HW2 6059   2.414   2.154   2.718
 2015SOL     OW 6060   2.870   3.318   2.339
 2015SOL    HW1 6061   2.824   3.390   2.287
 2015SOL    HW2 6062   2.866   3.338   2.437
 2016SOL     OW 6063   2.213   3.663   2.715
 2016SOL    HW1 6064   2.263   3.577   2.721
 2016SOL    HW2 6065   2.278   3.740   2.712
 2017SOL     OW 6066   3.657   2.928   2.735
 2017SOL    HW1 6067   3.595   2.913   2.659
 2017SOL    HW2 6068   3.605   2.939   2.820
 2018SOL     OW 6069   3.089   3.412   3.368
 2018SOL    HW1 6070   3.095   3.335   3.432
 2018SOL    HW2 6071   3.037   3.386   3.288
 2019SOL     OW 6072   2.183   2.805   2.104
 2019SOL    HW1 6073   2.265   2.844   2.062
 2019SOL    HW2 6074   2.156   2.723   2.055
 2020SOL     OW 6075   3.320   2.597   2.590
 2020SOL    HW1 6076   3.315   2.532   2.665
 2020SOL    HW2 6077   3.400   2.656   2.603
 2021SOL     OW 6078   2.323   3.128   3.589
 2021SOL    HW1 6079   2.273   3.129   3.503
 2021SOL    HW2 6080   2.260   3.110   3.665
 2022SOL     OW 6081   2.973   3.638   2.099
 2022SOL    HW1 6082   2.913   3.576   2.149
 2022SOL    HW2 6083   3.004   3.594   2.014
 2023SOL     OW 6084   2.064   2.147   3.360
 2023SOL    HW1 6085   1.984   2.207   3.347
 2023SOL    HW2 6086   2.054   2.098   3.446
 2024SOL     OW 6087   3.494   3.239   1.943
 2024SOL    HW1 6088   3.462   3.333   1.933
 2024SOL    HW2 6089   3.418   3.176   1.931
 2025SOL     OW 6090   2.326   3.605   2.185
 2025SOL    HW1 6091   2.359   3.644   2.271
 2025SOL    HW2 6092   2.402   3.598   2.120
 2026SOL     OW 6093   3.262   1.969   2.288
 2026SOL    HW1 6094   3.238   1.932   2.198
 2026SOL    HW2 6095   3.361   1.985   2.292
 2027SOL     OW 6096   2.111   3.647   3.103
 2027SOL    HW1 6097   2.168   3.582   3.153
 2027SOL    HW2 6098   2.095   3.614   3.010
 2028SOL     OW 6099   2.802   3.560   2.766
 2028SOL    HW1 6100   2.882   3.503   2.787
 2028SOL    HW2 6101   2.753   3.520   2.689
 2029SOL     OW 6102   3.409   2.084   3.591
 2029SOL    HW1 6103   3.404   2.121   3.683
 2029SOL    HW2 6104   3.337   2.015   3.579
 2030SOL     OW 6105   2.476   1.984   1.979
 2030SOL    HW1 6106   2.574   1.962   1.986
 2030SOL    HW2 6107   2.445   1.967   1.886
 2031SOL     OW 6108   2.643   2.126   3.611
 2031SOL    HW1 6109   2.710   2.065   3.654
 2031SOL    HW2 6110   2.570   2.145   3.676
 2032SOL     OW 6111   2.750   3.376   3.057
 2032SOL    HW1 6112   2.727   3.351   2.963
 2032SOL    HW2 6113   2.811   3.307   3.096
 2033SOL     OW 6114   3.213   2.452   3.295
 2033SOL    HW1 6115   3.241   2.409   3.380
 2033SOL    HW2 6116   3.238   2.548   3.296
 2034SOL     OW 6117   2.665   3.264   2.786
 2034SOL    HW1 6118   2.755   3.278   2.744
 2034SOL    HW2 6119   2.594   3.266   2.715
 2035SOL     OW 6120   2.784   2.365   2.761
 2035SOL    HW1 6121   2.759   2.356   2.665
 2035SOL    HW2 6122   2.832   2.283   2.792
 2036SOL     OW 6123   2.401   1.926   2.374
 2036SOL    HW1 6124   2.320   1.927   2.432
 2036SOL    HW2 6125   2.404   2.009   2.319
 2037SOL     OW 6126   3.296   3.050   1.903
 2037SOL    HW1 6127   3.328   2.974   1.960
 2037SOL    HW2 6128   3.204   3.077   1.933
 2038SOL     OW 6129   2.159   1.897   2.033
 2038SOL    HW1 6130   2.208   1.981   2.012
 2038SOL    HW2 6131   2.221   1.832   2.078
 2039SOL     OW 6132   2.797   2.098   2.342
 2039SOL    HW1 6133   2.749   2.139   2.264
 2039SOL    HW2 6134   2.896   2.096   2.323
 2040SOL     OW 6135   2.938   2.545   3.326
 2040SOL    HW1 6136   2.858   2.484   3.329
 2040SOL    HW2 6137   3.019   2.492   3.302
 2041SOL     OW 6138   3.089   3.432   2.655
 2041SOL    HW1 6139   3.110   3.506   2.590
 2041SOL    HW2 6140   3.157   3.432   2.728
 2042SOL     OW 6141   2.321   3.014   2.603
 2042SOL    HW1 6142   2.250   2.987   2.668
 2042SOL    HW2 6143   2.295   2.986   2.510
 2043SOL     OW 6144   3.133   3.659   2.453
 2043SOL    HW1 6145   3.177   3.723   2.389
 2043SOL    HW2 6146   3.083   3.711   2.523
 2044SOL     OW 6147   2.894   2.411   1.878
 2044SOL    HW1 6148   2.853   2.493   1.839
 2044SOL    HW2 6149   2.958   2.437   1.951
 2045SOL     OW 6150   1.940   2.418   3.248
 2045SOL    HW1 6151   2.032   2.417   3.207
 2045SOL    HW2 6152   1.934   2.492   3.315
 2046SOL     OW 6153   2.423   2.084   3.009
 2046SOL    HW1 6154   2.461   2.000   3.046
 2046SOL    HW2 6155   2.335   2.103   3.053
 2047SOL     OW 6156   2.728   2.316   2.504
 2047SOL    HW1 6157   2.696   2.388   2.442
 2047SOL    HW2 6158   2.752   2.235   2.451
 2048SOL     OW 6159   2.879   1.901   2.615
 2048SOL    HW1 6160   2.807   1.906   2.546
 2048SOL    HW2 6161   2.855   1.832   2.684
 2049SOL     OW 6162   3.291   3.035   2.729
 2049SOL    HW1 6163   3.236   2.951   2.722
 2049SOL    HW2 6164   3.317   3.064   2.637
 2050SOL     OW 6165   3.328   2.452   2.854
 2050SOL    HW1 6166   3.298   2.357   2.861
 2050SOL    HW2 6167   3.401   2.468   2.920
 2051SOL     OW 6168   3.719   2.695   2.239
 2051SOL    HW1 6169   3.761   2.631   2.303
 2051SOL    HW2 6170   3.681   2.644   2.161
 2052SOL     OW 6171   2.350   3.247   2.036
 2052SOL    HW1 6172   2.263   3.232   2.083
 2052SOL    HW2 6173   2.333   3.273   1.941
 2053SOL     OW 6174   3.526   3.142   2.519
 2053SOL    HW1 6175   3.625   3.150   2.533
 2053SOL    HW2 6176   3.481   3.226   2.550
 2054SOL     OW 6177   3.252   2.437   1.940
 2054SOL    HW1 6178   3.198   2.416   2.021
 2054SOL    HW2 6179   3.343   2.396   1.949
 2055SOL     OW 6180   3.616   3.085   3.450
 2055SOL    HW1 6181   3.707   3.046   3.437
 2055SOL    HW2 6182   3.624   3.181   3.474
 2056SOL     OW 6183   2.926   3.209   3.202
 2056SOL    HW1 6184   2.846   3.186   3.257
 2056SOL    HW2 6185   3.009   3.183   3.251
 2057SOL     OW 6186   3.454   3.491   3.487
 2057SOL    HW1 6187   3.481   3.525   3.397
 2057SOL    HW2 6188   3.533   3.453   3.533
 2058SOL     OW 6189   2.973   3.057   2.962
 2058SOL    HW1 6190   2.933   3.101   3.043
 2058SOL    HW2 6191   2.932   3.094   2.879
 2059SOL     OW 6192   3.500   2.961   2.941
 2059SOL    HW1 6193   3.505   3.042   3.000
 2059SOL    HW2 6194   3.414   2.963   2.890
 2060SOL     OW 6195   2.777   1.951   3.264
 2060SOL    HW1 6196   2.802   1.931   3.169
 2060SOL    HW2 6197   2.849   2.007   3.306
 2061SOL     OW 6198   2.842   2.978   3.581
 2061SOL    HW1 6199   2.743   2.984   3.591
 2061SOL    HW2 6200   2.865   2.898   3.525
 2062SOL     OW 6201   2.567   2.912   2.230
 2062SOL    HW1 6202   2.553   2.919   2.329
 2062SOL    HW2 6203   2.651   2.861   2.212
 2063SOL     OW 6204   2.272   2.675   3.113
 2063SOL    HW1 6205   2.358   2.687   3.163
 2063SOL    HW2 6206   2.230   2.588   3.140
 2064SOL     OW 6207   3.136   2.248   3.124
 2064SOL    HW1 6208   3.157   2.322   3.188
 2064SOL    HW2 6209   3.047   2.265   3.081
 2065SOL     OW 6210   1.926   3.426   3.193
 2065SOL    HW1 6211   1.880   3.508   3.159
 2065SOL    HW2 6212   2.024   3.445   3.202
 2066SOL     OW 6213   2.229   2.962   2.363
 2066SOL    HW1 6214   2.222   3.045   2.307
 2066SOL    HW2 6215   2.233   2.882   2.303
 2067SOL     OW 6216   2.428   2.399   2.727
 2067SOL    HW1 6217   2.440   2.465   2.653
 2067SOL    HW2 6218   2.474   2.433   2.810
 2068SOL     OW 6219   3.114   3.210   2.250
 2068SOL    HW1 6220   3.164   3.287   2.290
 2068SOL    HW2 6221   3.019   3.212   2.282
 2069SOL     OW 6222   3.134   3.307   3.004
 2069SOL    HW1 6223   3.181   3.320   3.091
 2069SOL    HW2 6224   3.068   3.233   3.013
 2070SOL     OW 6225   3.444   2.501   2.334
 2070SOL    HW1 6226   3.413   2.562   2.407
 2070SOL    HW2 6227   3.494   2.553   2.265
 2071SOL     OW 6228   2.216   3.372   3.191
 2071SOL    HW1 6229   2.195   3.328   3.104
 2071SOL    HW2 6230   2.313   3.398   3.194
 2072SOL     OW 6231   2.264   2.613   3.460
 2072SOL    HW1 6232   2.332   2.668   3.413
 2072SOL    HW2 6233   2.304   2.525   3.487
 2073SOL     OW 6234   3.449   2.641   3.532
 2073SOL    HW1 6235   3.357   2.679   3.527
 2073SOL    HW2 6236   3.509   2.688   3.467
 2074SOL     OW 6237   2.875   1.967   3.632
 2074SOL    HW1 6238   2.881   2.052   3.580
 2074SOL    HW2 6239   2.907   1.891   3.575
 2075SOL     OW 6240   2.366   1.912   3.602
 2075SOL    HW1 6241   2.324   1.855   3.532
 2075SOL    HW2 6242   2.300   1.981   3.634
 2076SOL     OW 6243   2.435   2.732   2.891
 2076SOL    HW1 6244   2.479   2.821   2.882
 2076SOL    HW2 6245   2.372   2.732   2.968
 2077SOL     OW 6246   3.222   2.724   2.907
 2077SOL    HW1 6247   3.147   2.724   2.841
 2077SOL    HW2 6248   3.259   2.632   2.916
 2078SOL     OW 6249   3.071   2.387   2.137
 2078SOL    HW1 6250   3.084   2.303   2.191
 2078SOL    HW2 6251   3.042   2.461   2.197
 2079SOL     OW 6252   2.169   2.075   3.093
 2079SOL    HW1 6253   2.146   2.112   3.183
 2079SOL    HW2 6254   2.139   1.980   3.087
 2080SOL     OW 6255   1.899   3.172   3.144
 2080SOL    HW1 6256   1.952   3.123   3.212
 2080SOL    HW2 6257   1.921   3.270   3.149
 2081SOL     OW 6258   2.594   2.496   2.926
 2081SOL    HW1 6259   2.653   2.470   2.850
 2081SOL    HW2 6260   2.566   2.592   2.915
 2082SOL     OW 6261   3.590   2.797   3.716
 2082SOL    HW1 6262   3.544   2.790   3.627
 2082SOL    HW2 6263   3.528   2.841   3.782
 2083SOL     OW 6264   3.484   2.229   2.236
 2083SOL    HW1 6265   3.486   2.153   2.300
 2083SOL    HW2 6266   3.436   2.306   2.276
 2084SOL     OW 6267   2.885   2.628   2.828
 2084SOL    HW1 6268   2.900   2.649   2.924
 2084SOL    HW2 6269   2.855   2.533   2.819
 2085SOL     OW 6270   2.842   3.435   3.562
 2085SOL    HW1 6271   2.822   3.479   3.474
 2085SOL    HW2 6272   2.881   3.344   3.546
 2086SOL     OW 6273   3.721   3.380   3.467
 2086SOL    HW1 6274   3.735   3.407   3.372
 2086SOL    HW2 6275   3.804   3.402   3.520
 2087SOL     OW 6276   2.212   2.760   3.666
 2087SOL    HW1 6277   2.288   2.804   3.714
 2087SOL    HW2 6278   2.247   2.713   3.584
 2088SOL     OW 6279   3.402   2.136   1.987
 2088SOL    HW1 6280   3.341   2.061   2.010
 2088SOL    HW2 6281   3.424   2.188   2.070
 2089SOL     OW 6282   3.165   2.700   1.904
 2089SOL    HW1 6283   3.199   2.607   1.919
 2089SOL    HW2 6284   3.183   2.727   1.809
 2090SOL     OW 6285   2.930   3.195   2.711
 2090SOL    HW1 6286   2.937   3.111   2.656
 2090SOL    HW2 6287   2.992   3.264   2.675
 2091SOL     OW 6288   2.181   2.672   2.811
 2091SOL    HW1 6289   2.274   2.708   2.816
 2091SOL    HW2 6290   2.175   2.587   2.863
 2092SOL     OW 6291   2.201   2.371   2.868
 2092SOL    HW1 6292   2.149   2.288   2.851
 2092SOL    HW2 6293   2.278   2.376   2.804
 2093SOL     OW 6294   3.000   2.242   3.540
 2093SOL    HW1 6295   2.955   2.305   3.604
 2093SOL    HW2 6296   3.093   2.273   3.523
 2094SOL     OW 6297   3.022   2.069   3.339
 2094SOL    HW1 6298   3.022   2.133   3.416
 2094SOL    HW2 6299   3.050   2.117   3.256
 2095SOL     OW 6300   1.870   3.188   2.062
 2095SOL    HW1 6301   1.777   3.209   2.031
 2095SOL    HW2 6302   1.880   3.089   2.075
 2096SOL     OW 6303   1.950   3.663   2.789
 2096SOL    HW1 6304   1.908   3.577   2.762
 2096SOL    HW2 6305   2.044   3.666   2.755
 2097SOL     OW 6306   2.366   3.430   2.772
 2097SOL    HW1 6307   2.432   3.504   2.781
 2097SOL    HW2 6308   2.410   3.351   2.730
 2098SOL     OW 6309   2.864   2.658   3.100
 2098SOL    HW1 6310   2.905   2.626   3.186
 2098SOL    HW2 6311   2.768   2.631   3.097
 2099SOL     OW 6312   1.902   2.406   2.976
 2099SOL    HW1 6313   1.987   2.373   2.935
 2099SOL    HW2 6314   1.915   2.421   3.074
 2100SOL     OW 6315   2.051   2.382   3.584
 2100SOL    HW1 6316   2.110   2.342   3.514
 2100SOL    HW2 6317   1.993   2.453   3.543
 2101SOL     OW 6318   3.231   2.812   3.522
 2101SOL    HW1 6319   3.270   2.901   3.542
 2101SOL    HW2 6320   3.241   2.792   3.425
 2102SOL     OW 6321   3.519   2.466   3.068
 2102SOL    HW1 6322   3.481   2.397   3.130
 2102SOL    HW2 6323   3.601   2.430   3.024
 2103SOL     OW 6324   2.114   3.426   3.606
 2103SOL    HW1 6325   2.084   3.483   3.682
 2103SOL    HW2 6326   2.107   3.329   3.632
 2104SOL     OW 6327   2.533   2.326   3.131
 2104SOL    HW1 6328   2.499   2.237   3.101
 2104SOL    HW2 6329   2.559   2.380   3.051
 2105SOL     OW 6330   2.792   3.540   3.327
 2105SOL    HW1 6331   2.768   3.522   3.232
 2105SOL    HW2 6332   2.822   3.634   3.337
 2106SOL     OW 6333   2.021   2.999   3.328
 2106SOL    HW1 6334   2.043   2.938   3.404
 2106SOL    HW2 6335   2.031   2.950   3.242
 2107SOL     OW 6336   3.209   2.921   3.096
 2107SOL    HW1 6337   3.233   2.858   3.022
 2107SOL    HW2 6338   3.119   2.961   3.078
 2108SOL     OW 6339   3.164   2.717   2.171
 2108SOL    HW1 6340   3.078   2.686   2.213
 2108SOL    HW2 6341   3.160   2.703   2.072
 2109SOL     OW 6342   3.621   3.609   3.016
 2109SOL    HW1 6343   3.682   3.639   2.943
 2109SOL    HW2 6344   3.583   3.520   2.994
 2110SOL     OW 6345   3.114   3.593   2.990
 2110SOL    HW1 6346   3.198   3.598   2.936
 2110SOL    HW2 6347   3.091   3.497   3.008
 2111SOL     OW 6348   1.945   3.120   2.884
 2111SOL    HW1 6349   1.940   3.119   2.984
 2111SOL    HW2 6350   1.862   3.079   2.846
 2112SOL     OW 6351   2.550   3.524   3.578
 2112SOL    HW1 6352   2.494   3.605   3.587
 2112SOL    HW2 6353   2.602   3.528   3.492
 2113SOL     OW 6354   3.588   1.997   2.385
 2113SOL    HW1 6355   3.661   1.980   2.318
 2113SOL    HW2 6356   3.557   1.910   2.423
 2114SOL     OW 6357   3.250   3.435   2.339
 2114SOL    HW1 6358   3.317   3.447   2.265
 2114SOL    HW2 6359   3.210   3.524   2.362
 2115SOL     OW 6360   1.992   3.656   3.713
 2115SOL    HW1 6361   1.951   3.582   3.766
 2115SOL    HW2 6362   2.056   3.707   3.771
 2116SOL     OW 6363   3.142   2.789   2.534
 2116SOL    HW1 6364   3.202   2.708   2.536
 2116SOL    HW2 6365   3.182   2.858   2.474
 2117SOL     OW 6366   2.692   3.135   3.284
 2117SOL    HW1 6367   2.687   3.168   3.379
 2117SOL    HW2 6368   2.606   3.154   3.238
 2118SOL     OW 6369   2.534   3.478   2.016
 2118SOL    HW1 6370   2.543   3.488   1.917
 2118SOL    HW2 6371   2.494   3.389   2.037
 2119SOL     OW 6372   3.512   3.582   3.256
 2119SOL    HW1 6373   3.565   3.592   3.172
 2119SOL    HW2 6374   3.485   3.672   3.290
 2120SOL     OW 6375   3.703   2.037   2.825
 2120SOL    HW1 6376   3.742   1.952   2.789
 2120SOL    HW2 6377   3.605   2.039   2.806
 2121SOL     OW 6378   3.056   3.474   1.893
 2121SOL    HW1 6379   3.062   3.381   1.930
 2121SOL    HW2 6380   2.997   3.474   1.813
 2122SOL     OW 6381   2.684   2.864   3.234
 2122SOL    HW1 6382   2.724   2.863   3.142
 2122SOL    HW2 6383   2.694   2.956   3.274
 2123SOL     OW 6384   2.778   2.772   2.153
 2123SOL    HW1 6385   2.841   2.810   2.085
 2123SOL    HW2 6386   2.818   2.689   2.192
 2124SOL     OW 6387   3.366   3.469   1.906
 2124SOL    HW1 6388   3.274   3.506   1.913
 2124SOL    HW2 6389   3.404   3.489   1.816
 2125SOL     OW 6390   2.234   3.150   3.352
 2125SOL    HW1 6391   2.221   3.243   3.318
 2125SOL    HW2 6392   2.150   3.098   3.339
 2126SOL     OW 6393   3.476   3.154   3.151
 2126SOL    HW1 6394   3.536   3.157   3.231
 2126SOL    HW2 6395   3.401   3.218   3.164
 2127SOL     OW 6396   2.901   2.960   2.558
 2127SOL    HW1 6397   2.831   2.913   2.612
 2127SOL    HW2 6398   2.960   2.892   2.515
 2128SOL     OW 6399   2.876   2.098   2.833
 2128SOL    HW1 6400   2.868   2.062   2.740
 2128SOL    HW2 6401   2.874   2.022   2.898
 2129SOL     OW 6402   2.452   3.349   2.353
 2129SOL    HW1 6403   2.494   3.291   2.283
 2129SOL    HW2 6404   2.408   3.428   2.309
 2130SOL     OW 6405   3.571   2.247   3.243
 2130SOL    HW1 6406   3.644   2.316   3.247
 2130SOL    HW2 6407   3.599   2.172   3.184
 2131SOL     OW 6408   2.117   3.210   2.152
 2131SOL    HW1 6409   2.021   3.211   2.125
 2131SOL    HW2 6410   2.129   3.263   2.236
 2132SOL     OW 6411   1.967   2.875   3.588
 2132SOL    HW1 6412   1.890   2.842   3.642
 2132SOL    HW2 6413   2.052   2.845   3.630
 2133SOL     OW 6414   2.534   2.065   3.351
 2133SOL    HW1 6415   2.624   2.049   3.311
 2133SOL    HW2 6416   2.542   2.070   3.450
 2134SOL     OW 6417   1.937   2.207   1.895
 2134SOL    HW1 6418   1.845   2.179   1.866
 2134SOL    HW2 6419   1.968   2.284   1.839
 2135SOL     OW 6420   3.302   2.718   3.260
 2135SOL    HW1 6421   3.245   2.770   3.197
 2135SOL    HW2 6422   3.398   2.730   3.236
 2136SOL     OW 6423   1.934   2.028   2.180
 2136SOL    HW1 6424   1.917   2.111   2.126
 2136SOL    HW2 6425   2.024   1.991   2.158
 2137SOL     OW 6426   3.045   3.197   1.981
 2137SOL    HW1 6427   2.946   3.186   1.983
 2137SOL    HW2 6428   3.079   3.212   2.074
 2138SOL     OW 6429   2.475   2.704   3.293
 2138SOL    HW1 6430   2.531   2.785   3.276
 2138SOL    HW2 6431   2.534   2.624   3.296
 2139SOL     OW 6432   3.355   3.629   2.821
 2139SOL    HW1 6433   3.388   3.693   2.752
 2139SOL    HW2 6434   3.421   3.623   2.896
 2140SOL     OW 6435   2.578   2.427   3.570
 2140SOL    HW1 6436   2.597   2.492   3.644
 2140SOL    HW2 6437   2.638   2.347   3.579
 2141SOL     OW 6438   3.312   3.082   3.495
 2141SOL    HW1 6439   3.303   3.072   3.594
 2141SOL    HW2 6440   3.408   3.075   3.469
 2142SOL     OW 6441   2.252   3.603   3.422
 2142SOL    HW1 6442   2.161   3.644   3.420
 2142SOL    HW2 6443   2.245   3.509   3.454
 2143SOL     OW 6444   3.536   2.745   3.116
 2143SOL    HW1 6445   3.509   2.656   3.079
 2143SOL    HW2 6446   3.537   2.813   3.043
 2144SOL     OW 6447   3.087   2.187   2.311
 2144SOL    HW1 6448   3.152   2.113   2.300
 2144SOL    HW2 6449   3.107   2.237   2.395
 2145SOL     OW 6450   2.456   2.607   2.514
 2145SOL    HW1 6451   2.506   2.692   2.495
 2145SOL    HW2 6452   2.368   2.609   2.466
 2146SOL     OW 6453   3.639   2.204   3.504
 2146SOL    HW1 6454   3.622   2.235   3.410
 2146SOL    HW2 6455   3.555   2.167   3.542
 2147SOL     OW 6456   3.592   2.796   3.379
 2147SOL    HW1 6457   3.630   2.887   3.394
 2147SOL    HW2 6458   3.584   2.779   3.280
 2148SOL     OW 6459   2.721   3.236   1.878
 2148SOL    HW1 6460   2.675   3.251   1.966
 2148SOL    HW2 6461   2.765   3.321   1.848
 2149SOL     OW 6462   2.523   3.652   2.815
 2149SOL    HW1 6463   2.477   3.740   2.802
 2149SOL    HW2 6464   2.622   3.664   2.808
 2150SOL     OW 6465   2.721   2.818   2.723
 2150SOL    HW1 6466   2.775   2.749   2.771
 2150SOL    HW2 6467   2.689   2.887   2.789
 2151SOL     OW 6468   2.945   2.846   1.949
 2151SOL    HW1 6469   2.922   2.899   1.867
 2151SOL    HW2 6470   3.026   2.790   1.930
 2152SOL     OW 6471   3.723   3.431   2.713
 2152SOL    HW1 6472   3.652   3.419   2.643
 2152SOL    HW2 6473   3.724   3.352   2.773
 2153SOL     OW 6474   2.083   3.176   3.706
 2153SOL    HW1 6475   2.018   3.103   3.685
 2153SOL    HW2 6476   2.087   3.190   3.804
 2154SOL     OW 6477   1.941   3.102   2.515
 2154SOL    HW1 6478   1.940   3.055   2.603
 2154SOL    HW2 6479   2.023   3.074   2.464
 2155SOL     OW 6480   2.534   3.253   3.486
 2155SOL    HW1 6481   2.456   3.203   3.524
 2155SOL    HW2 6482   2.531   3.348   3.517
 2156SOL     OW 6483   3.686   2.054   3.089
 2156SOL    HW1 6484   3.682   1.964   3.133
 2156SOL    HW2 6485   3.689   2.043   2.990
 2157SOL     OW 6486   3.567   3.349   2.966
 2157SOL    HW1 6487   3.474   3.324   2.939
 2157SOL    HW2 6488   3.593   3.299   3.048
 2158SOL     OW 6489   2.179   2.409   3.142
 2158SOL    HW1 6490   2.217   2.350   3.214
 2158SOL    HW2 6491   2.219   2.383   3.054
 2159SOL     OW 6492   2.674   3.448   2.549
 2159SOL    HW1 6493   2.706   3.458   2.455
 2159SOL    HW2 6494   2.595   3.386   2.551
 2160SOL     OW 6495   3.286   2.076   2.974
 2160SOL    HW1 6496   3.338   2.011   3.029
 2160SOL    HW2 6497   3.237   2.139   3.035
 2161SOL     OW 6498   2.863   1.896   3.016
 2161SOL    HW1 6499   2.800   1.824   2.985
 2161SOL    HW2 6500   2.956   1.860   3.016
 2162SOL     OW 6501   2.632   3.192   2.163
 2162SOL    HW1 6502   2.586   3.105   2.180
 2162SOL    HW2 6503   2.723   3.189   2.204
 2163SOL     OW 6504   2.480   3.429   3.146
 2163SOL    HW1 6505   2.475   3.511   3.203
 2163SOL    HW2 6506   2.569   3.426   3.101
 2164SOL     OW 6507   3.214   1.914   2.030
 2164SOL    HW1 6508   3.249   1.873   1.946
 2164SOL    HW2 6509   3.124   1.876   2.050
 2165SOL     OW 6510   3.162   2.315   2.553
 2165SOL    HW1 6511   3.103   2.395   2.557
 2165SOL    HW2 6512   3.177   2.280   2.646
 2166SOL     OW 6513   3.455   2.083   2.744
 2166SOL    HW1 6514   3.371   2.082   2.798
 2166SOL    HW2 6515   3.457   2.166   2.688
 2167SOL     OW 6516   1.901   2.939   2.162
 2167SOL    HW1 6517   2.000   2.928   2.153
 2167SOL    HW2 6518   1.861   2.853   2.194
 2168SOL     OW 6519   2.737   3.508   2.199
 2168SOL    HW1 6520   2.660   3.473   2.145
 2168SOL    HW2 6521   2.705   3.579   2.261
 2169SOL     OW 6522   2.092   2.490   3.837
 2169SOL    HW1 6523   1.999   2.488   3.874
 2169SOL    HW2 6524   2.093   2.451   3.745
 2170SOL     OW 6525   1.881   2.230   4.371
 2170SOL    HW1 6526   1.799   2.273   4.410
 2170SOL    HW2 6527   1.853   2.157   4.308
 2171SOL     OW 6528   3.617   2.469   3.955
 2171SOL    HW1 6529   3.605   2.456   3.856
 2171SOL    HW2 6530   3.587   2.388   4.004
 2172SOL     OW 6531   2.547   2.874   4.389
 2172SOL    HW1 6532   2.616   2.858   4.459
 2172SOL    HW2 6533   2.474   2.931   4.427
 2173SOL     OW 6534   3.465   2.309   4.461
 2173SOL    HW1 6535   3.391   2.355   4.411
 2173SOL    HW2 6536   3.516   2.377   4.514
 2174SOL     OW 6537   2.093   3.575   4.207
 2174SOL    HW1 6538   2.127   3.652   4.261
 2174SOL    HW2 6539   2.137   3.575   4.117
 2175SOL     OW 6540   2.092   3.296   4.262
 2175SOL    HW1 6541   2.066   3.392   4.262
 2175SOL    HW2 6542   2.021   3.242   4.307
 2176SOL     OW 6543   2.468   2.826   3.847
 2176SOL    HW1 6544   2.475   2.910   3.793
 2176SOL    HW2 6545   2.514   2.839   3.935
 2177SOL     OW 6546   1.984   2.505   4.287
 2177SOL    HW1 6547   1.939   2.417   4.304
 2177SOL    HW2 6548   1.983   2.559   4.371
 2178SOL     OW 6549   3.704   3.629   4.083
 2178SOL    HW1 6550   3.758   3.600   4.163
 2178SOL    HW2 6551   3.734   3.719   4.054
 2179SOL     OW 6552   1.889   3.458   3.841
 2179SOL    HW1 6553   1.870   3.362   3.862
 2179SOL    HW2 6554   1.856   3.516   3.916
 2180SOL     OW 6555   3.551   2.784   4.336
 2180SOL    HW1 6556   3.646   2.755   4.344
 2180SOL    HW2 6557   3.543   2.849   4.261
 2181SOL     OW 6558   3.503   2.970   4.156
 2181SOL    HW1 6559   3.589   2.972   4.104
 2181SOL    HW2 6560   3.517   3.017   4.244
 2182SOL     OW 6561   2.475   3.227   4.450
 2182SOL    HW1 6562   2.426   3.140   4.459
 2182SOL    HW2 6563   2.452   3.270   4.363
 2183SOL     OW 6564   2.671   1.866   4.226
 2183SOL    HW1 6565   2.711   1.957   4.217
 2183SOL    HW2 6566   2.571   1.874   4.232
 2184SOL     OW 6567   3.387   2.861   3.914
 2184SOL    HW1 6568   3.324   2.785   3.927
 2184SOL    HW2 6569   3.435   2.879   4.000
 2185SOL     OW 6570   3.529   3.576   4.296
 2185SOL    HW1 6571   3.488   3.553   4.208
 2185SOL    HW2 6572   3.511   3.502   4.361
 2186SOL     OW 6573   2.460   2.591   3.994
 2186SOL    HW1 6574   2.484   2.660   3.926
 2186SOL    HW2 6575   2.382   2.624   4.048
 2187SOL     OW 6576   3.143   2.207   4.668
 2187SOL    HW1 6577   3.057   2.157   4.655
 2187SOL    HW2 6578   3.205   2.153   4.724
 2188SOL     OW 6579   3.438   3.524   4.031
 2188SOL    HW1 6580   3.527   3.570   4.034
 2188SOL    HW2 6581   3.417   3.500   3.936
 2189SOL     OW 6582   2.903   2.563   4.153
 2189SOL    HW1 6583   2.929   2.559   4.249
 2189SOL    HW2 6584   2.818   2.512   4.139
 2190SOL     OW 6585   1.938   2.673   4.513
 2190SOL    HW1 6586   2.037   2.661   4.522
 2190SOL    HW2 6587   1.914   2.768   4.534
 2191SOL     OW 6588   2.727   2.210   3.919
 2191SOL    HW1 6589   2.786   2.273   3.870
 2191SOL    HW2 6590   2.746   2.116   3.890
 2192SOL     OW 6591   3.224   3.006   4.269
 2192SOL    HW1 6592   3.307   2.977   4.221
 2192SOL    HW2 6593   3.175   3.073   4.213
 2193SOL     OW 6594   2.870   3.318   4.201
 2193SOL    HW1 6595   2.824   3.390   4.149
 2193SOL    HW2 6596   2.866   3.338   4.299
 2194SOL     OW 6597   2.213   3.663   4.577
 2194SOL    HW1 6598   2.263   3.577   4.583
 2194SOL    HW2 6599   2.278   3.740   4.574
 2195SOL     OW 6600   3.657   2.928   4.597
 2195SOL    HW1 6601   3.595   2.913   4.521
 2195SOL    HW2 6602   3.605   2.939   4.682
 2196SOL     OW 6603   2.183   2.805   3.966
 2196SOL    HW1 6604   2.265   2.844   3.924
 2196SOL    HW2 6605   2.156   2.723   3.917
 2197SOL     OW 6606   2.973   3.638   3.961
 2197SOL    HW1 6607   2.913   3.576   4.011
 2197SOL    HW2 6608   3.004   3.594   3.876
 2198SOL     OW 6609   3.494   3.239   3.805
 2198SOL    HW1 6610   3.462   3.333   3.795
 2198SOL    HW2 6611   3.418   3.176   3.793
 2199SOL     OW 6612   2.326   3.605   4.047
 2199SOL    HW1 6613   2.359   3.644   4.133
 2199SOL    HW2 6614   2.402   3.598   3.982
 2200SOL     OW 6615   3.262   1.969   4.150
 2200SOL    HW1 6616   3.238   1.932   4.060
 2200SOL    HW2 6617   3.361   1.985   4.154
 2201SOL     OW 6618   2.802   3.560   4.628
 2201SOL    HW1 6619   2.882   3.503   4.649
 2201SOL    HW2 6620   2.753   3.520   4.551
 2202SOL     OW 6621   2.244   2.562   4.204
 2202SOL    HW1 6622   2.289   2.472   4.201
 2202SOL    HW2 6623   2.150   2.551   4.237
 2203SOL     OW 6624   2.476   1.984   3.841
 2203SOL    HW1 6625   2.574   1.962   3.848
 2203SOL    HW2 6626   2.445   1.967   3.748
 2204SOL     OW 6627   2.401   1.926   4.236
 2204SOL    HW1 6628   2.320   1.927   4.294
 2204SOL    HW2 6629   2.404   2.009   4.181
 2205SOL     OW 6630   3.296   3.050   3.765
 2205SOL    HW1 6631   3.328   2.974   3.822
 2205SOL    HW2 6632   3.204   3.077   3.795
 2206SOL     OW 6633   2.159   1.897   3.895
 2206SOL    HW1 6634   2.208   1.981   3.874
 2206SOL    HW2 6635   2.221   1.832   3.940
 2207SOL     OW 6636   2.797   2.098   4.204
 2207SOL    HW1 6637   2.749   2.139   4.126
 2207SOL    HW2 6638   2.896   2.096   4.185
 2208SOL     OW 6639   2.321   3.014   4.465
 2208SOL    HW1 6640   2.250   2.987   4.530
 2208SOL    HW2 6641   2.295   2.986   4.372
 2209SOL     OW 6642   3.133   3.659   4.315
 2209SOL    HW1 6643   3.177   3.723   4.251
 2209SOL    HW2 6644   3.083   3.711   4.385
 2210SOL     OW 6645   2.894   2.411   3.740
 2210SOL    HW1 6646   2.853   2.493   3.701
 2210SOL    HW2 6647   2.958   2.437   3.813
 2211SOL     OW 6648   2.728   2.316   4.366
 2211SOL    HW1 6649   2.696   2.388   4.304
 2211SOL    HW2 6650   2.752   2.235   4.313
 2212SOL     OW 6651   3.719   2.695   4.101
 2212SOL    HW1 6652   3.761   2.631   4.165
 2212SOL    HW2 6653   3.681   2.644   4.023
 2213SOL     OW 6654   2.350   3.247   3.898
 2213SOL    HW1 6655   2.263   3.232   3.945
 2213SOL    HW2 6656   2.333   3.273   3.803
 2214SOL     OW 6657   3.526   3.142   4.381
 2214SOL    HW1 6658   3.625   3.150   4.395
 2214SOL    HW2 6659   3.481   3.226   4.412
 2215SOL     OW 6660   3.252   2.437   3.802
 2215SOL    HW1 6661   3.198   2.416   3.883
 2215SOL    HW2 6662   3.343   2.396   3.811
 2216SOL     OW 6663   2.389   2.118   4.052
 2216SOL    HW1 6664   2.416   2.059   3.977
 2216SOL    HW2 6665   2.389   2.213   4.021
 2217SOL     OW 6666   2.567   2.912   4.092
 2217SOL    HW1 6667   2.553   2.919   4.191
 2217SOL    HW2 6668   2.651   2.861   4.074
 2218SOL     OW 6669   2.229   2.962   4.225
 2218SOL    HW1 6670   2.222   3.045   4.169
 2218SOL    HW2 6671   2.233   2.882   4.165
 2219SOL     OW 6672   3.114   3.210   4.112
 2219SOL    HW1 6673   3.164   3.287   4.152
 2219SOL    HW2 6674   3.019   3.212   4.144
 2220SOL     OW 6675   3.444   2.501   4.196
 2220SOL    HW1 6676   3.413   2.562   4.269
 2220SOL    HW2 6677   3.494   2.553   4.127
 2221SOL     OW 6678   3.071   2.387   3.999
 2221SOL    HW1 6679   3.084   2.303   4.053
 2221SOL    HW2 6680   3.042   2.461   4.059
 2222SOL     OW 6681   2.169   1.925   4.342
 2222SOL    HW1 6682   2.158   2.019   4.375
 2222SOL    HW2 6683   2.164   1.862   4.419
 2223SOL     OW 6684   3.484   2.229   4.098
 2223SOL    HW1 6685   3.486   2.153   4.162
 2223SOL    HW2 6686   3.436   2.306   4.138
 2224SOL     OW 6687   3.402   2.136   3.849
 2224SOL    HW1 6688   3.341   2.061   3.872
 2224SOL    HW2 6689   3.424   2.188   3.932
 2225SOL     OW 6690   3.165   2.700   3.766
 2225SOL    HW1 6691   3.199   2.607   3.781
 2225SOL    HW2 6692   3.183   2.727   3.671
 2226SOL     OW 6693   1.870   3.188   3.924
 2226SOL    HW1 6694   1.777   3.209   3.893
 2226SOL    HW2 6695   1.880   3.089   3.937
 2227SOL     OW 6696   2.677   2.434   4.049
 2227SOL    HW1 6697   2.684   2.345   4.003
 2227SOL    HW2 6698   2.583   2.468   4.041
 2228SOL     OW 6699   2.335   2.362   3.915
 2228SOL    HW1 6700   2.396   2.442   3.919
 2228SOL    HW2 6701   2.240   2.393   3.922
 2229SOL     OW 6702   3.164   2.717   4.033
 2229SOL    HW1 6703   3.078   2.686   4.075
 2229SOL    HW2 6704   3.160   2.703   3.934
 2230SOL     OW 6705   3.588   1.997   4.247
 2230SOL    HW1 6706   3.661   1.980   4.180
 2230SOL    HW2 6707   3.557   1.910   4.285
 2231SOL     OW 6708   3.250   3.435   4.201
 2231SOL    HW1 6709   3.317   3.447   4.127
 2231SOL    HW2 6710   3.210   3.524   4.224
 2232SOL     OW 6711   2.534   3.478   3.878
 2232SOL    HW1 6712   2.543   3.488   3.779
 2232SOL    HW2 6713   2.494   3.389   3.899
 2233SOL     OW 6714   3.056   3.474   3.755
 2233SOL    HW1 6715   3.062   3.381   3.792
 2233SOL    HW2 6716   2.997   3.474   3.675
 2234SOL     OW 6717   2.778   2.772   4.015
 2234SOL    HW1 6718   2.841   2.810   3.947
 2234SOL    HW2 6719   2.818   2.689   4.054
 2235SOL     OW 6720   3.366   3.469   3.768
 2235SOL    HW1 6721   3.274   3.506   3.775
 2235SOL    HW2 6722   3.404   3.489   3.678
 2236SOL     OW 6723   2.452   3.349   4.215
 2236SOL    HW1 6724   2.494   3.291   4.145
 2236SOL    HW2 6725   2.408   3.428   4.171
 2237SOL     OW 6726   2.117   3.210   4.014
 2237SOL    HW1 6727   2.021   3.211   3.987
 2237SOL    HW2 6728   2.129   3.263   4.098
 2238SOL     OW 6729   1.937   2.207   3.757
 2238SOL    HW1 6730   1.845   2.179   3.728
 2238SOL    HW2 6731   1.968   2.284   3.701
 2239SOL     OW 6732   1.934   2.028   4.042
 2239SOL    HW1 6733   1.917   2.111   3.988
 2239SOL    HW2 6734   2.024   1.991   4.020
 2240SOL     OW 6735   3.045   3.197   3.843
 2240SOL    HW1 6736   2.946   3.186   3.845
 2240SOL    HW2 6737   3.079   3.212   3.936
 2241SOL     OW 6738   3.087   2.187   4.173
 2241SOL    HW1 6739   3.152   2.113   4.162
 2241SOL    HW2 6740   3.107   2.237   4.257
 2242SOL     OW 6741   2.456   2.607   4.376
 2242SOL    HW1 6742   2.506   2.692   4.357
 2242SOL    HW2 6743   2.368   2.609   4.328
 2243SOL     OW 6744   2.721   3.236   3.740
 2243SOL    HW1 6745   2.675   3.251   3.828
 2243SOL    HW2 6746   2.765   3.321   3.710
 2244SOL     OW 6747   2.523   3.652   4.677
 2244SOL    HW1 6748   2.477   3.740   4.664
 2244SOL    HW2 6749   2.622   3.664   4.670
 2245SOL     OW 6750   2.721   2.818   4.585
 2245SOL    HW1 6751   2.775   2.749   4.633
 2245SOL    HW2 6752   2.689   2.887   4.651
 2246SOL     OW 6753   2.945   2.846   3.811
 2246SOL    HW1 6754   2.922   2.899   3.729
 2246SOL    HW2 6755   3.026   2.790   3.792
 2247SOL     OW 6756   1.941   3.102   4.377
 2247SOL    HW1 6757   1.940   3.055   4.465
 2247SOL    HW2 6758   2.023   3.074   4.326
 2248SOL     OW 6759   2.290   2.286   4.244
 2248SOL    HW1 6760   2.320   2.214   4.182
 2248SOL    HW2 6761   2.251   2.246   4.327
 2249SOL     OW 6762   2.674   3.448   4.411
 2249SOL    HW1 6763   2.706   3.458   4.317
 2249SOL    HW2 6764   2.595   3.386   4.413
 2250SOL     OW 6765   2.632   3.192   4.025
 2250SOL    HW1 6766   2.586   3.105   4.042
 2250SOL    HW2 6767   2.723   3.189   4.066
 2251SOL     OW 6768   3.214   1.914   3.892
 2251SOL    HW1 6769   3.249   1.873   3.808
 2251SOL    HW2 6770   3.124   1.876   3.912
 2252SOL     OW 6771   3.162   2.315   4.415
 2252SOL    HW1 6772   3.103   2.395   4.419
 2252SOL    HW2 6773   3.177   2.280   4.508
 2253SOL     OW 6774   1.901   2.939   4.024
 2253SOL    HW1 6775   2.000   2.928   4.015
 2253SOL    HW2 6776   1.861   2.853   4.056
 2254SOL     OW 6777   2.737   3.508   4.061
 2254SOL    HW1 6778   2.660   3.473   4.007
 2254SOL    HW2 6779   2.705   3.579   4.123
 2255SOL     OW 6780   2.092   4.352   0.113
 2255SOL    HW1 6781   1.999   4.350   0.150
 2255SOL    HW2 6782   2.093   4.313   0.021
 2256SOL     OW 6783   2.087   3.999   0.996
 2256SOL    HW1 6784   2.122   3.982   1.088
 2256SOL    HW2 6785   1.999   3.954   0.984
 2257SOL     OW 6786   1.881   4.092   0.647
 2257SOL    HW1 6787   1.799   4.135   0.686
 2257SOL    HW2 6788   1.853   4.019   0.584
 2258SOL     OW 6789   3.617   4.331   0.231
 2258SOL    HW1 6790   3.605   4.318   0.132
 2258SOL    HW2 6791   3.587   4.250   0.280
 2259SOL     OW 6792   2.712   4.522   1.823
 2259SOL    HW1 6793   2.708   4.598   1.888
 2259SOL    HW2 6794   2.734   4.558   1.732
 2260SOL     OW 6795   2.547   4.736   0.665
 2260SOL    HW1 6796   2.616   4.720   0.735
 2260SOL    HW2 6797   2.474   4.793   0.703
 2261SOL     OW 6798   2.300   4.116   1.499
 2261SOL    HW1 6799   2.382   4.060   1.508
 2261SOL    HW2 6800   2.219   4.058   1.503
 2262SOL     OW 6801   3.465   4.171   0.737
 2262SOL    HW1 6802   3.391   4.217   0.687
 2262SOL    HW2 6803   3.516   4.239   0.790
 2263SOL     OW 6804   3.456   3.838   1.480
 2263SOL    HW1 6805   3.438   3.905   1.408
 2263SOL    HW2 6806   3.453   3.884   1.569
 2264SOL     OW 6807   1.984   4.367   0.563
 2264SOL    HW1 6808   1.939   4.279   0.580
 2264SOL    HW2 6809   1.983   4.421   0.647
 2265SOL     OW 6810   1.975   4.461   1.597
 2265SOL    HW1 6811   2.063   4.448   1.642
 2265SOL    HW2 6812   1.962   4.558   1.575
 2266SOL     OW 6813   2.671   3.728   0.502
 2266SOL    HW1 6814   2.711   3.819   0.493
 2266SOL    HW2 6815   2.571   3.736   0.508
 2267SOL     OW 6816   2.179   3.975   1.801
 2267SOL    HW1 6817   2.250   4.046   1.807
 2267SOL    HW2 6818   2.091   4.014   1.829
 2268SOL     OW 6819   3.143   4.069   0.944
 2268SOL    HW1 6820   3.057   4.019   0.931
 2268SOL    HW2 6821   3.205   4.015   1.000
 2269SOL     OW 6822   2.669   4.329   1.465
 2269SOL    HW1 6823   2.622   4.326   1.554
 2269SOL    HW2 6824   2.618   4.274   1.399
 2270SOL     OW 6825   3.256   4.193   1.674
 2270SOL    HW1 6826   3.236   4.236   1.762
 2270SOL    HW2 6827   3.334   4.131   1.683
 2271SOL     OW 6828   2.853   4.134   1.242
 2271SOL    HW1 6829   2.776   4.168   1.296
 2271SOL    HW2 6830   2.819   4.083   1.163
 2272SOL     OW 6831   2.903   4.425   0.429
 2272SOL    HW1 6832   2.929   4.421   0.525
 2272SOL    HW2 6833   2.818   4.374   0.415
 2273SOL     OW 6834   2.727   4.072   0.195
 2273SOL    HW1 6835   2.786   4.135   0.146
 2273SOL    HW2 6836   2.746   3.978   0.166
 2274SOL     OW 6837   3.581   4.309   1.831
 2274SOL    HW1 6838   3.555   4.398   1.795
 2274SOL    HW2 6839   3.579   4.241   1.758
 2275SOL     OW 6840   2.412   3.920   0.885
 2275SOL    HW1 6841   2.407   3.915   0.985
 2275SOL    HW2 6842   2.414   4.016   0.856
 2276SOL     OW 6843   3.320   4.459   0.728
 2276SOL    HW1 6844   3.315   4.394   0.803
 2276SOL    HW2 6845   3.400   4.518   0.741
 2277SOL     OW 6846   2.064   4.009   1.498
 2277SOL    HW1 6847   1.984   4.069   1.485
 2277SOL    HW2 6848   2.054   3.960   1.584
 2278SOL     OW 6849   3.262   3.831   0.426
 2278SOL    HW1 6850   3.238   3.794   0.336
 2278SOL    HW2 6851   3.361   3.847   0.430
 2279SOL     OW 6852   2.244   4.424   0.480
 2279SOL    HW1 6853   2.289   4.334   0.477
 2279SOL    HW2 6854   2.150   4.413   0.513
 2280SOL     OW 6855   3.409   3.946   1.729
 2280SOL    HW1 6856   3.404   3.983   1.821
 2280SOL    HW2 6857   3.337   3.877   1.717
 2281SOL     OW 6858   2.643   3.988   1.749
 2281SOL    HW1 6859   2.710   3.927   1.792
 2281SOL    HW2 6860   2.570   4.007   1.814
 2282SOL     OW 6861   3.213   4.314   1.433
 2282SOL    HW1 6862   3.241   4.271   1.518
 2282SOL    HW2 6863   3.238   4.410   1.434
 2283SOL     OW 6864   2.784   4.227   0.899
 2283SOL    HW1 6865   2.759   4.218   0.803
 2283SOL    HW2 6866   2.832   4.145   0.930
 2284SOL     OW 6867   2.401   3.788   0.512
 2284SOL    HW1 6868   2.320   3.789   0.570
 2284SOL    HW2 6869   2.404   3.871   0.457
 2285SOL     OW 6870   2.797   3.960   0.480
 2285SOL    HW1 6871   2.749   4.001   0.402
 2285SOL    HW2 6872   2.896   3.958   0.461
 2286SOL     OW 6873   2.938   4.407   1.464
 2286SOL    HW1 6874   2.858   4.346   1.467
 2286SOL    HW2 6875   3.019   4.354   1.440
 2287SOL     OW 6876   2.894   4.273   0.016
 2287SOL    HW1 6877   2.853   4.355  -0.023
 2287SOL    HW2 6878   2.958   4.299   0.089
 2288SOL     OW 6879   1.940   4.280   1.386
 2288SOL    HW1 6880   2.032   4.279   1.345
 2288SOL    HW2 6881   1.934   4.354   1.453
 2289SOL     OW 6882   2.423   3.946   1.147
 2289SOL    HW1 6883   2.461   3.862   1.184
 2289SOL    HW2 6884   2.335   3.965   1.191
 2290SOL     OW 6885   2.728   4.178   0.642
 2290SOL    HW1 6886   2.696   4.250   0.580
 2290SOL    HW2 6887   2.752   4.097   0.589
 2291SOL     OW 6888   2.879   3.763   0.753
 2291SOL    HW1 6889   2.807   3.768   0.684
 2291SOL    HW2 6890   2.855   3.694   0.822
 2292SOL     OW 6891   3.328   4.314   0.992
 2292SOL    HW1 6892   3.298   4.219   0.999
 2292SOL    HW2 6893   3.401   4.330   1.058
 2293SOL     OW 6894   3.252   4.299   0.078
 2293SOL    HW1 6895   3.198   4.278   0.159
 2293SOL    HW2 6896   3.343   4.258   0.087
 2294SOL     OW 6897   2.389   3.980   0.328
 2294SOL    HW1 6898   2.416   3.921   0.253
 2294SOL    HW2 6899   2.389   4.075   0.297
 2295SOL     OW 6900   2.777   3.813   1.402
 2295SOL    HW1 6901   2.802   3.793   1.307
 2295SOL    HW2 6902   2.849   3.869   1.444
 2296SOL     OW 6903   2.272   4.537   1.251
 2296SOL    HW1 6904   2.358   4.549   1.301
 2296SOL    HW2 6905   2.230   4.450   1.278
 2297SOL     OW 6906   3.136   4.110   1.262
 2297SOL    HW1 6907   3.157   4.184   1.326
 2297SOL    HW2 6908   3.047   4.127   1.219
 2298SOL     OW 6909   2.428   4.261   0.865
 2298SOL    HW1 6910   2.440   4.327   0.791
 2298SOL    HW2 6911   2.474   4.295   0.948
 2299SOL     OW 6912   3.444   4.363   0.472
 2299SOL    HW1 6913   3.413   4.424   0.545
 2299SOL    HW2 6914   3.494   4.415   0.403
 2300SOL     OW 6915   3.449   4.503   1.670
 2300SOL    HW1 6916   3.357   4.541   1.665
 2300SOL    HW2 6917   3.509   4.550   1.605
 2301SOL     OW 6918   2.875   3.829   1.770
 2301SOL    HW1 6919   2.881   3.914   1.718
 2301SOL    HW2 6920   2.907   3.753   1.713
 2302SOL     OW 6921   2.366   3.774   1.740
 2302SOL    HW1 6922   2.324   3.717   1.670
 2302SOL    HW2 6923   2.300   3.843   1.772
 2303SOL     OW 6924   3.222   4.586   1.045
 2303SOL    HW1 6925   3.147   4.586   0.979
 2303SOL    HW2 6926   3.259   4.494   1.054
 2304SOL     OW 6927   3.071   4.249   0.275
 2304SOL    HW1 6928   3.084   4.165   0.329
 2304SOL    HW2 6929   3.042   4.323   0.335
 2305SOL     OW 6930   2.169   3.937   1.231
 2305SOL    HW1 6931   2.146   3.974   1.321
 2305SOL    HW2 6932   2.139   3.842   1.225
 2306SOL     OW 6933   2.594   4.358   1.064
 2306SOL    HW1 6934   2.653   4.332   0.988
 2306SOL    HW2 6935   2.566   4.454   1.053
 2307SOL     OW 6936   3.590   4.659   1.854
 2307SOL    HW1 6937   3.544   4.652   1.765
 2307SOL    HW2 6938   3.528   4.703   1.920
 2308SOL     OW 6939   2.169   3.787   0.618
 2308SOL    HW1 6940   2.158   3.881   0.651
 2308SOL    HW2 6941   2.164   3.724   0.695
 2309SOL     OW 6942   3.484   4.091   0.374
 2309SOL    HW1 6943   3.486   4.015   0.438
 2309SOL    HW2 6944   3.436   4.168   0.414
 2310SOL     OW 6945   3.402   3.998   0.125
 2310SOL    HW1 6946   3.341   3.923   0.148
 2310SOL    HW2 6947   3.424   4.050   0.208
 2311SOL     OW 6948   2.181   4.534   0.949
 2311SOL    HW1 6949   2.274   4.570   0.954
 2311SOL    HW2 6950   2.175   4.449   1.001
 2312SOL     OW 6951   2.201   4.233   1.006
 2312SOL    HW1 6952   2.149   4.150   0.989
 2312SOL    HW2 6953   2.278   4.238   0.942
 2313SOL     OW 6954   3.000   4.104   1.678
 2313SOL    HW1 6955   2.955   4.167   1.742
 2313SOL    HW2 6956   3.093   4.135   1.661
 2314SOL     OW 6957   3.022   3.931   1.477
 2314SOL    HW1 6958   3.022   3.995   1.554
 2314SOL    HW2 6959   3.050   3.979   1.394
 2315SOL     OW 6960   1.902   4.268   1.114
 2315SOL    HW1 6961   1.987   4.235   1.073
 2315SOL    HW2 6962   1.915   4.283   1.212
 2316SOL     OW 6963   2.051   4.244   1.722
 2316SOL    HW1 6964   2.110   4.204   1.652
 2316SOL    HW2 6965   1.993   4.315   1.681
 2317SOL     OW 6966   2.677   4.296   0.325
 2317SOL    HW1 6967   2.684   4.207   0.279
 2317SOL    HW2 6968   2.583   4.330   0.317
 2318SOL     OW 6969   3.519   4.328   1.206
 2318SOL    HW1 6970   3.481   4.259   1.268
 2318SOL    HW2 6971   3.601   4.292   1.162
 2319SOL     OW 6972   2.533   4.188   1.269
 2319SOL    HW1 6973   2.499   4.099   1.239
 2319SOL    HW2 6974   2.559   4.242   1.189
 2320SOL     OW 6975   2.335   4.224   0.191
 2320SOL    HW1 6976   2.396   4.304   0.195
 2320SOL    HW2 6977   2.240   4.255   0.198
 2321SOL     OW 6978   2.765   3.810   0.133
 2321SOL    HW1 6979   2.816   3.811   0.047
 2321SOL    HW2 6980   2.821   3.768   0.204
 2322SOL     OW 6981   3.588   3.859   0.523
 2322SOL    HW1 6982   3.661   3.842   0.456
 2322SOL    HW2 6983   3.557   3.772   0.561
 2323SOL     OW 6984   3.142   4.651   0.672
 2323SOL    HW1 6985   3.202   4.570   0.674
 2323SOL    HW2 6986   3.182   4.720   0.612
 2324SOL     OW 6987   3.703   3.899   0.963
 2324SOL    HW1 6988   3.742   3.814   0.927
 2324SOL    HW2 6989   3.605   3.901   0.944
 2325SOL     OW 6990   2.125   4.050   0.720
 2325SOL    HW1 6991   2.046   4.101   0.686
 2325SOL    HW2 6992   2.116   4.035   0.818
 2326SOL     OW 6993   2.901   4.822   0.696
 2326SOL    HW1 6994   2.831   4.775   0.750
 2326SOL    HW2 6995   2.960   4.754   0.653
 2327SOL     OW 6996   2.876   3.960   0.971
 2327SOL    HW1 6997   2.868   3.924   0.878
 2327SOL    HW2 6998   2.874   3.884   1.036
 2328SOL     OW 6999   3.571   4.109   1.381
 2328SOL    HW1 7000   3.644   4.178   1.385
 2328SOL    HW2 7001   3.599   4.034   1.322
 2329SOL     OW 7002   2.534   3.927   1.489
 2329SOL    HW1 7003   2.624   3.911   1.449
 2329SOL    HW2 7004   2.542   3.932   1.588
 2330SOL     OW 7005   1.937   4.069   0.033
 2330SOL    HW1 7006   1.845   4.041   0.004
 2330SOL    HW2 7007   1.968   4.146  -0.023
 2331SOL     OW 7008   1.934   3.890   0.318
 2331SOL    HW1 7009   1.917   3.973   0.264
 2331SOL    HW2 7010   2.024   3.853   0.296
 2332SOL     OW 7011   2.578   4.289   1.708
 2332SOL    HW1 7012   2.597   4.354   1.782
 2332SOL    HW2 7013   2.638   4.209   1.717
 2333SOL     OW 7014   3.087   4.049   0.449
 2333SOL    HW1 7015   3.152   3.975   0.438
 2333SOL    HW2 7016   3.107   4.099   0.533
 2334SOL     OW 7017   3.639   4.066   1.642
 2334SOL    HW1 7018   3.622   4.097   1.548
 2334SOL    HW2 7019   3.555   4.029   1.680
 2335SOL     OW 7020   2.945   4.708   0.087
 2335SOL    HW1 7021   2.922   4.761   0.005
 2335SOL    HW2 7022   3.026   4.652   0.068
 2336SOL     OW 7023   3.686   3.916   1.227
 2336SOL    HW1 7024   3.682   3.826   1.271
 2336SOL    HW2 7025   3.689   3.905   1.128
 2337SOL     OW 7026   2.290   4.148   0.520
 2337SOL    HW1 7027   2.320   4.076   0.458
 2337SOL    HW2 7028   2.251   4.108   0.603
 2338SOL     OW 7029   2.179   4.271   1.280
 2338SOL    HW1 7030   2.217   4.212   1.352
 2338SOL    HW2 7031   2.219   4.245   1.192
 2339SOL     OW 7032   3.286   3.938   1.112
 2339SOL    HW1 7033   3.338   3.873   1.167
 2339SOL    HW2 7034   3.237   4.001   1.173
 2340SOL     OW 7035   2.863   3.758   1.154
 2340SOL    HW1 7036   2.800   3.686   1.123
 2340SOL    HW2 7037   2.956   3.722   1.154
 2341SOL     OW 7038   3.214   3.776   0.168
 2341SOL    HW1 7039   3.249   3.735   0.084
 2341SOL    HW2 7040   3.124   3.738   0.188
 2342SOL     OW 7041   3.162   4.177   0.691
 2342SOL    HW1 7042   3.103   4.257   0.695
 2342SOL    HW2 7043   3.177   4.142   0.784
 2343SOL     OW 7044   3.455   3.945   0.882
 2343SOL    HW1 7045   3.371   3.944   0.936
 2343SOL    HW2 7046   3.457   4.028   0.826
 2344SOL     OW 7047   2.092   4.352   1.975
 2344SOL    HW1 7048   1.999   4.350   2.012
 2344SOL    HW2 7049   2.093   4.313   1.883
 2345SOL     OW 7050   2.087   3.999   2.858
 2345SOL    HW1 7051   2.122   3.982   2.950
 2345SOL    HW2 7052   1.999   3.954   2.846
 2346SOL     OW 7053   1.881   4.092   2.509
 2346SOL    HW1 7054   1.799   4.135   2.548
 2346SOL    HW2 7055   1.853   4.019   2.446
 2347SOL     OW 7056   3.617   4.331   2.093
 2347SOL    HW1 7057   3.605   4.318   1.994
 2347SOL    HW2 7058   3.587   4.250   2.142
 2348SOL     OW 7059   2.712   4.522   3.685
 2348SOL    HW1 7060   2.708   4.598   3.750
 2348SOL    HW2 7061   2.734   4.558   3.594
 2349SOL     OW 7062   2.547   4.736   2.527
 2349SOL    HW1 7063   2.616   4.720   2.597
 2349SOL    HW2 7064   2.474   4.793   2.565
 2350SOL     OW 7065   2.300   4.116   3.361
 2350SOL    HW1 7066   2.382   4.060   3.370
 2350SOL    HW2 7067   2.219   4.058   3.365
 2351SOL     OW 7068   3.465   4.171   2.599
 2351SOL    HW1 7069   3.391   4.217   2.549
 2351SOL    HW2 7070   3.516   4.239   2.652
 2352SOL     OW 7071   3.456   3.838   3.342
 2352SOL    HW1 7072   3.438   3.905   3.270
 2352SOL    HW2 7073   3.453   3.884   3.431
 2353SOL     OW 7074   1.984   4.367   2.425
 2353SOL    HW1 7075   1.939   4.279   2.442
 2353SOL    HW2 7076   1.983   4.421   2.509
 2354SOL     OW 7077   1.975   4.461   3.459
 2354SOL    HW1 7078   2.063   4.448   3.504
 2354SOL    HW2 7079   1.962   4.558   3.437
 2355SOL     OW 7080   2.671   3.728   2.364
 2355SOL    HW1 7081   2.711   3.819   2.355
 2355SOL    HW2 7082   2.571   3.736   2.370
 2356SOL     OW 7083   2.179   3.975   3.663
 2356SOL    HW1 7084   2.250   4.046   3.669
 2356SOL    HW2 7085   2.091   4.014   3.691
 2357SOL     OW 7086   3.143   4.069   2.806
 2357SOL    HW1 7087   3.057   4.019   2.793
 2357SOL    HW2 7088   3.205   4.015   2.862
 2358SOL     OW 7089   2.669   4.329   3.327
 2358SOL    HW1 7090   2.622   4.326   3.416
 2358SOL    HW2 7091   2.618   4.274   3.261
 2359SOL     OW 7092   3.256   4.193   3.536
 2359SOL    HW1 7093   3.236   4.236   3.624
 2359SOL    HW2 7094   3.334   4.131   3.545
 2360SOL     OW 7095   2.853   4.134   3.104
 2360SOL    HW1 7096   2.776   4.168   3.158
 2360SOL    HW2 7097   2.819   4.083   3.025
 2361SOL     OW 7098   2.903   4.425   2.291
 2361SOL    HW1 7099   2.929   4.421   2.387
 2361SOL    HW2 7100   2.818   4.374   2.277
 2362SOL     OW 7101   2.727   4.072   2.057
 2362SOL    HW1 7102   2.786   4.135   2.008
 2362SOL    HW2 7103   2.746   3.978   2.028
 2363SOL     OW 7104   3.581   4.309   3.693
 2363SOL    HW1 7105   3.555   4.398   3.657
 2363SOL    HW2 7106   3.579   4.241   3.620
 2364SOL     OW 7107   2.412   3.920   2.747
 2364SOL    HW1 7108   2.407   3.915   2.847
 2364SOL    HW2 7109   2.414   4.016   2.718
 2365SOL     OW 7110   3.320   4.459   2.590
 2365SOL    HW1 7111   3.315   4.394   2.665
 2365SOL    HW2 7112   3.400   4.518   2.603
 2366SOL     OW 7113   2.064   4.009   3.360
 2366SOL    HW1 7114   1.984   4.069   3.347
 2366SOL    HW2 7115   2.054   3.960   3.446
 2367SOL     OW 7116   3.262   3.831   2.288
 2367SOL    HW1 7117   3.238   3.794   2.198
 2367SOL    HW2 7118   3.361   3.847   2.292
 2368SOL     OW 7119   2.244   4.424   2.342
 2368SOL    HW1 7120   2.289   4.334   2.339
 2368SOL    HW2 7121   2.150   4.413   2.375
 2369SOL     OW 7122   3.409   3.946   3.591
 2369SOL    HW1 7123   3.404   3.983   3.683
 2369SOL    HW2 7124   3.337   3.877   3.579
 2370SOL     OW 7125   2.476   3.846   1.979
 2370SOL    HW1 7126   2.574   3.824   1.986
 2370SOL    HW2 7127   2.445   3.829   1.886
 2371SOL     OW 7128   2.643   3.988   3.611
 2371SOL    HW1 7129   2.710   3.927   3.654
 2371SOL    HW2 7130   2.570   4.007   3.676
 2372SOL     OW 7131   3.213   4.314   3.295
 2372SOL    HW1 7132   3.241   4.271   3.380
 2372SOL    HW2 7133   3.238   4.410   3.296
 2373SOL     OW 7134   2.784   4.227   2.761
 2373SOL    HW1 7135   2.759   4.218   2.665
 2373SOL    HW2 7136   2.832   4.145   2.792
 2374SOL     OW 7137   2.401   3.788   2.374
 2374SOL    HW1 7138   2.320   3.789   2.432
 2374SOL    HW2 7139   2.404   3.871   2.319
 2375SOL     OW 7140   2.159   3.759   2.033
 2375SOL    HW1 7141   2.208   3.843   2.012
 2375SOL    HW2 7142   2.221   3.694   2.078
 2376SOL     OW 7143   2.797   3.960   2.342
 2376SOL    HW1 7144   2.749   4.001   2.264
 2376SOL    HW2 7145   2.896   3.958   2.323
 2377SOL     OW 7146   2.938   4.407   3.326
 2377SOL    HW1 7147   2.858   4.346   3.329
 2377SOL    HW2 7148   3.019   4.354   3.302
 2378SOL     OW 7149   2.894   4.273   1.878
 2378SOL    HW1 7150   2.853   4.355   1.839
 2378SOL    HW2 7151   2.958   4.299   1.951
 2379SOL     OW 7152   1.940   4.280   3.248
 2379SOL    HW1 7153   2.032   4.279   3.207
 2379SOL    HW2 7154   1.934   4.354   3.315
 2380SOL     OW 7155   2.423   3.946   3.009
 2380SOL    HW1 7156   2.461   3.862   3.046
 2380SOL    HW2 7157   2.335   3.965   3.053
 2381SOL     OW 7158   2.728   4.178   2.504
 2381SOL    HW1 7159   2.696   4.250   2.442
 2381SOL    HW2 7160   2.752   4.097   2.451
 2382SOL     OW 7161   2.879   3.763   2.615
 2382SOL    HW1 7162   2.807   3.768   2.546
 2382SOL    HW2 7163   2.855   3.694   2.684
 2383SOL     OW 7164   3.328   4.314   2.854
 2383SOL    HW1 7165   3.298   4.219   2.861
 2383SOL    HW2 7166   3.401   4.330   2.920
 2384SOL     OW 7167   3.252   4.299   1.940
 2384SOL    HW1 7168   3.198   4.278   2.021
 2384SOL    HW2 7169   3.343   4.258   1.949
 2385SOL     OW 7170   2.389   3.980   2.190
 2385SOL    HW1 7171   2.416   3.921   2.115
 2385SOL    HW2 7172   2.389   4.075   2.159
 2386SOL     OW 7173   2.777   3.813   3.264
 2386SOL    HW1 7174   2.802   3.793   3.169
 2386SOL    HW2 7175   2.849   3.869   3.306
 2387SOL     OW 7176   2.272   4.537   3.113
 2387SOL    HW1 7177   2.358   4.549   3.163
 2387SOL    HW2 7178   2.230   4.450   3.140
 2388SOL     OW 7179   3.136   4.110   3.124
 2388SOL    HW1 7180   3.157   4.184   3.188
 2388SOL    HW2 7181   3.047   4.127   3.081
 2389SOL     OW 7182   2.428   4.261   2.727
 2389SOL    HW1 7183   2.440   4.327   2.653
 2389SOL    HW2 7184   2.474   4.295   2.810
 2390SOL     OW 7185   3.444   4.363   2.334
 2390SOL    HW1 7186   3.413   4.424   2.407
 2390SOL    HW2 7187   3.494   4.415   2.265
 2391SOL     OW 7188   3.449   4.503   3.532
 2391SOL    HW1 7189   3.357   4.541   3.527
 2391SOL    HW2 7190   3.509   4.550   3.467
 2392SOL     OW 7191   2.875   3.829   3.632
 2392SOL    HW1 7192   2.881   3.914   3.580
 2392SOL    HW2 7193   2.907   3.753   3.575
 2393SOL     OW 7194   2.366   3.774   3.602
 2393SOL    HW1 7195   2.324   3.717   3.532
 2393SOL    HW2 7196   2.300   3.843   3.634
 2394SOL     OW 7197   3.222   4.586   2.907
 2394SOL    HW1 7198   3.147   4.586   2.841
 2394SOL    HW2 7199   3.259   4.494   2.916
 2395SOL     OW 7200   3.071   4.249   2.137
 2395SOL    HW1 7201   3.084   4.165   2.191
 2395SOL    HW2 7202   3.042   4.323   2.197
 2396SOL     OW 7203   2.169   3.937   3.093
 2396SOL    HW1 7204   2.146   3.974   3.183
 2396SOL    HW2 7205   2.139   3.842   3.087
 2397SOL     OW 7206   2.594   4.358   2.926
 2397SOL    HW1 7207   2.653   4.332   2.850
 2397SOL    HW2 7208   2.566   4.454   2.915
 2398SOL     OW 7209   3.590   4.659   3.716
 2398SOL    HW1 7210   3.544   4.652   3.627
 2398SOL    HW2 7211   3.528   4.703   3.782
 2399SOL     OW 7212   2.169   3.787   2.480
 2399SOL    HW1 7213   2.158   3.881   2.513
 2399SOL    HW2 7214   2.164   3.724   2.557
 2400SOL     OW 7215   3.484   4.091   2.236
 2400SOL    HW1 7216   3.486   4.015   2.300
 2400SOL    HW2 7217   3.436   4.168   2.276
 2401SOL     OW 7218   3.402   3.998   1.987
 2401SOL    HW1 7219   3.341   3.923   2.010
 2401SOL    HW2 7220   3.424   4.050   2.070
 2402SOL     OW 7221   2.181   4.534   2.811
 2402SOL    HW1 7222   2.274   4.570   2.816
 2402SOL    HW2 7223   2.175   4.449   2.863
 2403SOL     OW 7224   2.201   4.233   2.868
 2403SOL    HW1 7225   2.149   4.150   2.851
 2403SOL    HW2 7226   2.278   4.238   2.804
 2404SOL     OW 7227   3.000   4.104   3.540
 2404SOL    HW1 7228   2.955   4.167   3.604
 2404SOL    HW2 7229   3.093   4.135   3.523
 2405SOL     OW 7230   3.022   3.931   3.339
 2405SOL    HW1 7231   3.022   3.995   3.416
 2405SOL    HW2 7232   3.050   3.979   3.256
 2406SOL     OW 7233   1.902   4.268   2.976
 2406SOL    HW1 7234   1.987   4.235   2.935
 2406SOL    HW2 7235   1.915   4.283   3.074
 2407SOL     OW 7236   2.051   4.244   3.584
 2407SOL    HW1 7237   2.110   4.204   3.514
 2407SOL    HW2 7238   1.993   4.315   3.543
 2408SOL     OW 7239   2.677   4.296   2.187
 2408SOL    HW1 7240   2.684   4.207   2.141
 2408SOL    HW2 7241   2.583   4.330   2.179
 2409SOL     OW 7242   3.519   4.328   3.068
 2409SOL    HW1 7243   3.481   4.259   3.130
 2409SOL    HW2 7244   3.601   4.292   3.024
 2410SOL     OW 7245   2.533   4.188   3.131
 2410SOL    HW1 7246   2.499   4.099   3.101
 2410SOL    HW2 7247   2.559   4.242   3.051
 2411SOL     OW 7248   2.335   4.224   2.053
 2411SOL    HW1 7249   2.396   4.304   2.057
 2411SOL    HW2 7250   2.240   4.255   2.060
 2412SOL     OW 7251   3.588   3.859   2.385
 2412SOL    HW1 7252   3.661   3.842   2.318
 2412SOL    HW2 7253   3.557   3.772   2.423
 2413SOL     OW 7254   3.142   4.651   2.534
 2413SOL    HW1 7255   3.202   4.570   2.536
 2413SOL    HW2 7256   3.182   4.720   2.474
 2414SOL     OW 7257   3.703   3.899   2.825
 2414SOL    HW1 7258   3.742   3.814   2.789
 2414SOL    HW2 7259   3.605   3.901   2.806
 2415SOL     OW 7260   2.125   4.050   2.582
 2415SOL    HW1 7261   2.046   4.101   2.548
 2415SOL    HW2 7262   2.116   4.035   2.680
 2416SOL     OW 7263   2.778   4.634   2.153
 2416SOL    HW1 7264   2.841   4.672   2.085
 2416SOL    HW2 7265   2.818   4.551   2.192
 2417SOL     OW 7266   2.901   4.822   2.558
 2417SOL    HW1 7267   2.831   4.775   2.612
 2417SOL    HW2 7268   2.960   4.754   2.515
 2418SOL     OW 7269   2.876   3.960   2.833
 2418SOL    HW1 7270   2.868   3.924   2.740
 2418SOL    HW2 7271   2.874   3.884   2.898
 2419SOL     OW 7272   3.571   4.109   3.243
 2419SOL    HW1 7273   3.644   4.178   3.247
 2419SOL    HW2 7274   3.599   4.034   3.184
 2420SOL     OW 7275   2.534   3.927   3.351
 2420SOL    HW1 7276   2.624   3.911   3.311
 2420SOL    HW2 7277   2.542   3.932   3.450
 2421SOL     OW 7278   1.937   4.069   1.895
 2421SOL    HW1 7279   1.845   4.041   1.866
 2421SOL    HW2 7280   1.968   4.146   1.839
 2422SOL     OW 7281   1.934   3.890   2.180
 2422SOL    HW1 7282   1.917   3.973   2.126
 2422SOL    HW2 7283   2.024   3.853   2.158
 2423SOL     OW 7284   2.578   4.289   3.570
 2423SOL    HW1 7285   2.597   4.354   3.644
 2423SOL    HW2 7286   2.638   4.209   3.579
 2424SOL     OW 7287   3.087   4.049   2.311
 2424SOL    HW1 7288   3.152   3.975   2.300
 2424SOL    HW2 7289   3.107   4.099   2.395
 2425SOL     OW 7290   3.639   4.066   3.504
 2425SOL    HW1 7291   3.622   4.097   3.410
 2425SOL    HW2 7292   3.555   4.029   3.542
 2426SOL     OW 7293   2.945   4.708   1.949
 2426SOL    HW1 7294   2.922   4.761   1.867
 2426SOL    HW2 7295   3.026   4.652   1.930
 2427SOL     OW 7296   3.686   3.916   3.089
 2427SOL    HW1 7297   3.682   3.826   3.133
 2427SOL    HW2 7298   3.689   3.905   2.990
 2428SOL     OW 7299   2.290   4.148   2.382
 2428SOL    HW1 7300   2.320   4.076   2.320
 2428SOL    HW2 7301   2.251   4.108   2.465
 2429SOL     OW 7302   2.179   4.271   3.142
 2429SOL    HW1 7303   2.217   4.212   3.214
 2429SOL    HW2 7304   2.219   4.245   3.054
 2430SOL     OW 7305   3.286   3.938   2.974
 2430SOL    HW1 7306   3.338   3.873   3.029
 2430SOL    HW2 7307   3.237   4.001   3.035
 2431SOL     OW 7308   2.863   3.758   3.016
 2431SOL    HW1 7309   2.800   3.686   2.985
 2431SOL    HW2 7310   2.956   3.722   3.016
 2432SOL     OW 7311   3.214   3.776   2.030
 2432SOL    HW1 7312   3.249   3.735   1.946
 2432SOL    HW2 7313   3.124   3.738   2.050
 2433SOL     OW 7314   3.162   4.177   2.553
 2433SOL    HW1 7315   3.103   4.257   2.557
 2433SOL    HW2 7316   3.177   4.142   2.646
 2434SOL     OW 7317   3.455   3.945   2.744
 2434SOL    HW1 7318   3.371   3.944   2.798
 2434SOL    HW2 7319   3.457   4.028   2.688
 2435SOL     OW 7320   2.092   4.352   3.837
 2435SOL    HW1 7321   1.999   4.350   3.874
 2435SOL    HW2 7322   2.093   4.313   3.745
 2436SOL     OW 7323   1.881   4.092   4.371
 2436SOL    HW1 7324   1.799   4.135   4.410
 2436SOL    HW2 7325   1.853   4.019   4.308
 2437SOL     OW 7326   3.617   4.331   3.955
 2437SOL    HW1 7327   3.605   4.318   3.856
 2437SOL    HW2 7328   3.587   4.250   4.004
 2438SOL     OW 7329   2.547   4.736   4.389
 2438SOL    HW1 7330   2.616   4.720   4.459
 2438SOL    HW2 7331   2.474   4.793   4.427
 2439SOL     OW 7332   3.465   4.171   4.461
 2439SOL    HW1 7333   3.391   4.217   4.411
 2439SOL    HW2 7334   3.516   4.239   4.514
 2440SOL     OW 7335   1.984   4.367   4.287
 2440SOL    HW1 7336   1.939   4.279   4.304
 2440SOL    HW2 7337   1.983   4.421   4.371
 2441SOL     OW 7338   2.671   3.728   4.226
 2441SOL    HW1 7339   2.711   3.819   4.217
 2441SOL    HW2 7340   2.571   3.736   4.232
 2442SOL     OW 7341   3.143   4.069   4.668
 2442SOL    HW1 7342   3.057   4.019   4.655
 2442SOL    HW2 7343   3.205   4.015   4.724
 2443SOL     OW 7344   2.903   4.425   4.153
 2443SOL    HW1 7345   2.929   4.421   4.249
 2443SOL    HW2 7346   2.818   4.374   4.139
 2444SOL     OW 7347   1.938   4.535   4.513
 2444SOL    HW1 7348   2.037   4.523   4.522
 2444SOL    HW2 7349   1.914   4.630   4.534
 2445SOL     OW 7350   2.727   4.072   3.919
 2445SOL    HW1 7351   2.786   4.135   3.870
 2445SOL    HW2 7352   2.746   3.978   3.890
 2446SOL     OW 7353   3.262   3.831   4.150
 2446SOL    HW1 7354   3.238   3.794   4.060
 2446SOL    HW2 7355   3.361   3.847   4.154
 2447SOL     OW 7356   2.244   4.424   4.204
 2447SOL    HW1 7357   2.289   4.334   4.201
 2447SOL    HW2 7358   2.150   4.413   4.237
 2448SOL     OW 7359   2.476   3.846   3.841
 2448SOL    HW1 7360   2.574   3.824   3.848
 2448SOL    HW2 7361   2.445   3.829   3.748
 2449SOL     OW 7362   2.401   3.788   4.236
 2449SOL    HW1 7363   2.320   3.789   4.294
 2449SOL    HW2 7364   2.404   3.871   4.181
 2450SOL     OW 7365   2.159   3.759   3.895
 2450SOL    HW1 7366   2.208   3.843   3.874
 2450SOL    HW2 7367   2.221   3.694   3.940
 2451SOL     OW 7368   2.797   3.960   4.204
 2451SOL    HW1 7369   2.749   4.001   4.126
 2451SOL    HW2 7370   2.896   3.958   4.185
 2452SOL     OW 7371   2.894   4.273   3.740
 2452SOL    HW1 7372   2.853   4.355   3.701
 2452SOL    HW2 7373   2.958   4.299   3.813
 2453SOL     OW 7374   2.728   4.178   4.366
 2453SOL    HW1 7375   2.696   4.250   4.304
 2453SOL    HW2 7376   2.752   4.097   4.313
 2454SOL     OW 7377   3.252   4.299   3.802
 2454SOL    HW1 7378   3.198   4.278   3.883
 2454SOL    HW2 7379   3.343   4.258   3.811
 2455SOL     OW 7380   2.389   3.980   4.052
 2455SOL    HW1 7381   2.416   3.921   3.977
 2455SOL    HW2 7382   2.389   4.075   4.021
 2456SOL     OW 7383   3.444   4.363   4.196
 2456SOL    HW1 7384   3.413   4.424   4.269
 2456SOL    HW2 7385   3.494   4.415   4.127
 2457SOL     OW 7386   3.071   4.249   3.999
 2457SOL    HW1 7387   3.084   4.165   4.053
 2457SOL    HW2 7388   3.042   4.323   4.059
 2458SOL     OW 7389   2.169   3.787   4.342
 2458SOL    HW1 7390   2.158   3.881   4.375
 2458SOL    HW2 7391   2.164   3.724   4.419
 2459SOL     OW 7392   3.484   4.091   4.098
 2459SOL    HW1 7393   3.486   4.015   4.162
 2459SOL    HW2 7394   3.436   4.168   4.138
 2460SOL     OW 7395   3.402   3.998   3.849
 2460SOL    HW1 7396   3.341   3.923   3.872
 2460SOL    HW2 7397   3.424   4.050   3.932
 2461SOL     OW 7398   2.677   4.296   4.049
 2461SOL    HW1 7399   2.684   4.207   4.003
 2461SOL    HW2 7400   2.583   4.330   4.041
 2462SOL     OW 7401   2.335   4.224   3.915
 2462SOL    HW1 7402   2.396   4.304   3.919
 2462SOL    HW2 7403   2.240   4.255   3.922
 2463SOL     OW 7404   3.588   3.859   4.247
 2463SOL    HW1 7405   3.661   3.842   4.180
 2463SOL    HW2 7406   3.557   3.772   4.285
 2464SOL     OW 7407   3.142   4.651   4.396
 2464SOL    HW1 7408   3.202   4.570   4.398
 2464SOL    HW2 7409   3.182   4.720   4.336
 2465SOL     OW 7410   2.778   4.634   4.015
 2465SOL    HW1 7411   2.841   4.672   3.947
 2465SOL    HW2 7412   2.818   4.551   4.054
 2466SOL     OW 7413   1.937   4.069   3.757
 2466SOL    HW1 7414   1.845   4.041   3.728
 2466SOL    HW2 7415   1.968   4.146   3.701
 2467SOL     OW 7416   1.934   3.890   4.042
 2467SOL    HW1 7417   1.917   3.973   3.988
 2467SOL    HW2 7418   2.024   3.853   4.020
 2468SOL     OW 7419   3.087   4.049   4.173
 2468SOL    HW1 7420   3.152   3.975   4.162
 2468SOL    HW2 7421   3.107   4.099   4.257
 2469SOL     OW 7422   2.945   4.708   3.811
 2469SOL    HW1 7423   2.922   4.761   3.729
 2469SOL    HW2 7424   3.026   4.652   3.792
 2470SOL     OW 7425   2.290   4.148   4.244
 2470SOL    HW1 7426   2.320   4.076   4.182
 2470SOL    HW2 7427   2.251   4.108   4.327
 2471SOL     OW 7428   3.214   3.776   3.892
 2471SOL    HW1 7429   3.249   3.735   3.808
 2471SOL    HW2 7430   3.124   3.738   3.912
 2472SOL     OW 7431   3.162   4.177   4.415
 2472SOL    HW1 7432   3.103   4.257   4.419
 2472SOL    HW2 7433   3.177   4.142   4.508
 2473SOL     OW 7434   3.954   0.628   0.113
 2473SOL    HW1 7435   3.861   0.626   0.150
 2473SOL    HW2 7436   3.955   0.589   0.021
 2474SOL     OW 7437   3.949   0.275   0.996
 2474SOL    HW1 7438   3.984   0.258   1.088
 2474SOL    HW2 7439   3.861   0.230   0.984
 2475SOL     OW 7440   3.743   0.368   0.647
 2475SOL    HW1 7441   3.661   0.411   0.686
 2475SOL    HW2 7442   3.715   0.295   0.584
 2476SOL     OW 7443   4.293   1.275   1.165
 2476SOL    HW1 7444   4.200   1.268   1.128
 2476SOL    HW2 7445   4.304   1.364   1.209
 2477SOL     OW 7446   4.574   0.798   1.823
 2477SOL    HW1 7447   4.570   0.874   1.888
 2477SOL    HW2 7448   4.596   0.834   1.732
 2478SOL     OW 7449   4.409   1.012   0.665
 2478SOL    HW1 7450   4.478   0.996   0.735
 2478SOL    HW2 7451   4.336   1.069   0.703
 2479SOL     OW 7452   4.410   1.161   1.803
 2479SOL    HW1 7453   4.470   1.240   1.817
 2479SOL    HW2 7454   4.324   1.192   1.762
 2480SOL     OW 7455   4.059   1.435   1.061
 2480SOL    HW1 7456   3.981   1.404   1.008
 2480SOL    HW2 7457   4.117   1.493   1.004
 2481SOL     OW 7458   4.162   0.392   1.499
 2481SOL    HW1 7459   4.244   0.336   1.508
 2481SOL    HW2 7460   4.081   0.334   1.503
 2482SOL     OW 7461   3.955   1.713   0.483
 2482SOL    HW1 7462   3.989   1.790   0.537
 2482SOL    HW2 7463   3.999   1.713   0.393
 2483SOL     OW 7464   3.954   1.434   0.538
 2483SOL    HW1 7465   3.928   1.530   0.538
 2483SOL    HW2 7466   3.883   1.380   0.583
 2484SOL     OW 7467   3.964   1.091   0.886
 2484SOL    HW1 7468   3.978   1.007   0.938
 2484SOL    HW2 7469   3.909   1.155   0.941
 2485SOL     OW 7470   4.344   1.786   1.439
 2485SOL    HW1 7471   4.252   1.769   1.474
 2485SOL    HW2 7472   4.372   1.878   1.465
 2486SOL     OW 7473   4.330   0.964   0.123
 2486SOL    HW1 7474   4.337   1.048   0.069
 2486SOL    HW2 7475   4.376   0.977   0.211
 2487SOL     OW 7476   3.846   0.643   0.563
 2487SOL    HW1 7477   3.801   0.555   0.580
 2487SOL    HW2 7478   3.845   0.697   0.647
 2488SOL     OW 7479   3.751   1.596   0.117
 2488SOL    HW1 7480   3.732   1.500   0.138
 2488SOL    HW2 7481   3.718   1.654   0.192
 2489SOL     OW 7482   3.837   0.737   1.597
 2489SOL    HW1 7483   3.925   0.724   1.642
 2489SOL    HW2 7484   3.824   0.834   1.575
 2490SOL     OW 7485   4.337   1.365   0.726
 2490SOL    HW1 7486   4.288   1.278   0.735
 2490SOL    HW2 7487   4.314   1.408   0.639
 2491SOL     OW 7488   4.533   0.004   0.502
 2491SOL    HW1 7489   4.573   0.095   0.493
 2491SOL    HW2 7490   4.433   0.012   0.508
 2492SOL     OW 7491   3.921   0.976   1.264
 2492SOL    HW1 7492   4.010   0.931   1.250
 2492SOL    HW2 7493   3.848   0.911   1.245
 2493SOL     OW 7494   4.041   0.251   1.801
 2493SOL    HW1 7495   4.112   0.322   1.807
 2493SOL    HW2 7496   3.953   0.290   1.829
 2494SOL     OW 7497   4.322   0.729   0.270
 2494SOL    HW1 7498   4.346   0.798   0.202
 2494SOL    HW2 7499   4.244   0.762   0.324
 2495SOL     OW 7500   3.800   0.811   0.789
 2495SOL    HW1 7501   3.899   0.799   0.798
 2495SOL    HW2 7502   3.776   0.906   0.810
 2496SOL     OW 7503   3.854   1.821   1.571
 2496SOL    HW1 7504   3.844   1.806   1.670
 2496SOL    HW2 7505   3.768   1.857   1.535
 2497SOL     OW 7506   4.274   0.196   0.885
 2497SOL    HW1 7507   4.269   0.191   0.985
 2497SOL    HW2 7508   4.276   0.292   0.856
 2498SOL     OW 7509   4.075   1.801   0.853
 2498SOL    HW1 7510   4.125   1.715   0.859
 2498SOL    HW2 7511   4.140   1.878   0.850
 2499SOL     OW 7512   4.045   0.943   0.242
 2499SOL    HW1 7513   4.127   0.982   0.200
 2499SOL    HW2 7514   4.018   0.861   0.193
 2500SOL     OW 7515   4.185   1.266   1.727
 2500SOL    HW1 7516   4.135   1.267   1.641
 2500SOL    HW2 7517   4.122   1.248   1.803
 2501SOL     OW 7518   3.926   0.285   1.498
 2501SOL    HW1 7519   3.846   0.345   1.485
 2501SOL    HW2 7520   3.916   0.236   1.584
 2502SOL     OW 7521   4.188   1.743   0.323
 2502SOL    HW1 7522   4.221   1.782   0.409
 2502SOL    HW2 7523   4.264   1.736   0.258
 2503SOL     OW 7524   3.973   1.785   1.241
 2503SOL    HW1 7525   4.030   1.720   1.291
 2503SOL    HW2 7526   3.957   1.752   1.148
 2504SOL     OW 7527   4.106   0.700   0.480
 2504SOL    HW1 7528   4.151   0.610   0.477
 2504SOL    HW2 7529   4.012   0.689   0.513
 2505SOL     OW 7530   4.338   0.122   0.117
 2505SOL    HW1 7531   4.436   0.100   0.124
 2505SOL    HW2 7532   4.307   0.105   0.024
 2506SOL     OW 7533   4.527   1.402   0.924
 2506SOL    HW1 7534   4.617   1.416   0.882
 2506SOL    HW2 7535   4.456   1.404   0.853
 2507SOL     OW 7536   4.263   0.064   0.512
 2507SOL    HW1 7537   4.182   0.065   0.570
 2507SOL    HW2 7538   4.266   0.147   0.457
 2508SOL     OW 7539   4.021   0.035   0.171
 2508SOL    HW1 7540   4.070   0.119   0.150
 2508SOL    HW2 7541   4.083  -0.030   0.216
 2509SOL     OW 7542   4.183   1.152   0.741
 2509SOL    HW1 7543   4.112   1.125   0.806
 2509SOL    HW2 7544   4.157   1.124   0.648
 2510SOL     OW 7545   3.802   0.556   1.386
 2510SOL    HW1 7546   3.894   0.555   1.345
 2510SOL    HW2 7547   3.796   0.630   1.453
 2511SOL     OW 7548   4.285   0.222   1.147
 2511SOL    HW1 7549   4.323   0.138   1.184
 2511SOL    HW2 7550   4.197   0.241   1.191
 2512SOL     OW 7551   4.212   1.385   0.174
 2512SOL    HW1 7552   4.125   1.370   0.221
 2512SOL    HW2 7553   4.195   1.411   0.079
 2513SOL     OW 7554   4.251   0.256   0.328
 2513SOL    HW1 7555   4.278   0.197   0.253
 2513SOL    HW2 7556   4.251   0.351   0.297
 2514SOL     OW 7557   4.134   0.813   1.251
 2514SOL    HW1 7558   4.220   0.825   1.301
 2514SOL    HW2 7559   4.092   0.726   1.278
 2515SOL     OW 7560   3.788   1.564   1.331
 2515SOL    HW1 7561   3.742   1.646   1.297
 2515SOL    HW2 7562   3.886   1.583   1.340
 2516SOL     OW 7563   4.091   1.100   0.501
 2516SOL    HW1 7564   4.084   1.183   0.445
 2516SOL    HW2 7565   4.095   1.020   0.441
 2517SOL     OW 7566   4.290   0.537   0.865
 2517SOL    HW1 7567   4.302   0.603   0.791
 2517SOL    HW2 7568   4.336   0.571   0.948
 2518SOL     OW 7569   4.078   1.510   1.329
 2518SOL    HW1 7570   4.057   1.466   1.242
 2518SOL    HW2 7571   4.175   1.536   1.332
 2519SOL     OW 7572   4.126   0.751   1.598
 2519SOL    HW1 7573   4.194   0.806   1.551
 2519SOL    HW2 7574   4.166   0.663   1.625
 2520SOL     OW 7575   4.228   0.050   1.740
 2520SOL    HW1 7576   4.186  -0.007   1.670
 2520SOL    HW2 7577   4.162   0.119   1.772
 2521SOL     OW 7578   4.297   0.870   1.029
 2521SOL    HW1 7579   4.341   0.959   1.020
 2521SOL    HW2 7580   4.234   0.870   1.106
 2522SOL     OW 7581   4.031   0.213   1.231
 2522SOL    HW1 7582   4.008   0.250   1.321
 2522SOL    HW2 7583   4.001   0.118   1.225
 2523SOL     OW 7584   3.761   1.310   1.282
 2523SOL    HW1 7585   3.814   1.261   1.350
 2523SOL    HW2 7586   3.783   1.408   1.287
 2524SOL     OW 7587   4.031   0.063   0.618
 2524SOL    HW1 7588   4.020   0.157   0.651
 2524SOL    HW2 7589   4.026   0.000   0.695
 2525SOL     OW 7590   4.074   0.898   1.804
 2525SOL    HW1 7591   4.150   0.942   1.852
 2525SOL    HW2 7592   4.109   0.851   1.722
 2526SOL     OW 7593   4.043   0.810   0.949
 2526SOL    HW1 7594   4.136   0.846   0.954
 2526SOL    HW2 7595   4.037   0.725   1.001
 2527SOL     OW 7596   4.063   0.509   1.006
 2527SOL    HW1 7597   4.011   0.426   0.989
 2527SOL    HW2 7598   4.140   0.514   0.942
 2528SOL     OW 7599   3.732   1.326   0.200
 2528SOL    HW1 7600   3.639   1.347   0.169
 2528SOL    HW2 7601   3.742   1.227   0.213
 2529SOL     OW 7602   3.812   1.801   0.927
 2529SOL    HW1 7603   3.770   1.715   0.900
 2529SOL    HW2 7604   3.906   1.804   0.893
 2530SOL     OW 7605   4.228   1.568   0.910
 2530SOL    HW1 7606   4.294   1.642   0.919
 2530SOL    HW2 7607   4.272   1.489   0.868
 2531SOL     OW 7608   3.764   0.544   1.114
 2531SOL    HW1 7609   3.849   0.511   1.073
 2531SOL    HW2 7610   3.777   0.559   1.212
 2532SOL     OW 7611   3.913   0.520   1.722
 2532SOL    HW1 7612   3.972   0.480   1.652
 2532SOL    HW2 7613   3.855   0.591   1.681
 2533SOL     OW 7614   4.539   0.572   0.325
 2533SOL    HW1 7615   4.546   0.483   0.279
 2533SOL    HW2 7616   4.445   0.606   0.317
 2534SOL     OW 7617   3.976   1.564   1.744
 2534SOL    HW1 7618   3.946   1.621   1.820
 2534SOL    HW2 7619   3.969   1.467   1.770
 2535SOL     OW 7620   4.395   0.464   1.269
 2535SOL    HW1 7621   4.361   0.375   1.239
 2535SOL    HW2 7622   4.421   0.518   1.189
 2536SOL     OW 7623   4.197   0.500   0.191
 2536SOL    HW1 7624   4.258   0.580   0.195
 2536SOL    HW2 7625   4.102   0.531   0.198
 2537SOL     OW 7626   3.883   1.137   1.466
 2537SOL    HW1 7627   3.905   1.076   1.542
 2537SOL    HW2 7628   3.893   1.088   1.380
 2538SOL     OW 7629   3.807   1.258   1.022
 2538SOL    HW1 7630   3.802   1.257   1.122
 2538SOL    HW2 7631   3.724   1.217   0.984
 2539SOL     OW 7632   4.412   1.662   1.716
 2539SOL    HW1 7633   4.356   1.743   1.725
 2539SOL    HW2 7634   4.464   1.666   1.630
 2540SOL     OW 7635   3.854   1.794   1.851
 2540SOL    HW1 7636   3.813   1.720   1.904
 2540SOL    HW2 7637   3.918   1.845   1.909
 2541SOL     OW 7638   3.987   0.326   0.720
 2541SOL    HW1 7639   3.908   0.377   0.686
 2541SOL    HW2 7640   3.978   0.311   0.818
 2542SOL     OW 7641   4.096   1.288   1.490
 2542SOL    HW1 7642   4.083   1.381   1.456
 2542SOL    HW2 7643   4.012   1.236   1.477
 2543SOL     OW 7644   4.763   1.098   0.696
 2543SOL    HW1 7645   4.693   1.051   0.750
 2543SOL    HW2 7646   4.822   1.030   0.653
 2544SOL     OW 7647   4.314   1.487   0.491
 2544SOL    HW1 7648   4.356   1.429   0.421
 2544SOL    HW2 7649   4.270   1.566   0.447
 2545SOL     OW 7650   3.979   1.348   0.290
 2545SOL    HW1 7651   3.883   1.349   0.263
 2545SOL    HW2 7652   3.991   1.401   0.374
 2546SOL     OW 7653   3.829   1.013   1.726
 2546SOL    HW1 7654   3.752   0.980   1.780
 2546SOL    HW2 7655   3.914   0.983   1.768
 2547SOL     OW 7656   4.396   0.203   1.489
 2547SOL    HW1 7657   4.486   0.187   1.449
 2547SOL    HW2 7658   4.404   0.208   1.588
 2548SOL     OW 7659   3.799   0.345   0.033
 2548SOL    HW1 7660   3.707   0.317   0.004
 2548SOL    HW2 7661   3.830   0.422  -0.023
 2549SOL     OW 7662   3.796   0.166   0.318
 2549SOL    HW1 7663   3.779   0.249   0.264
 2549SOL    HW2 7664   3.886   0.129   0.296
 2550SOL     OW 7665   4.337   0.842   1.431
 2550SOL    HW1 7666   4.393   0.923   1.414
 2550SOL    HW2 7667   4.396   0.762   1.434
 2551SOL     OW 7668   4.440   0.565   1.708
 2551SOL    HW1 7669   4.459   0.630   1.782
 2551SOL    HW2 7670   4.500   0.485   1.717
 2552SOL     OW 7671   4.114   1.741   1.560
 2552SOL    HW1 7672   4.023   1.782   1.558
 2552SOL    HW2 7673   4.107   1.647   1.592
 2553SOL     OW 7674   4.318   0.745   0.652
 2553SOL    HW1 7675   4.368   0.830   0.633
 2553SOL    HW2 7676   4.230   0.747   0.604
 2554SOL     OW 7677   3.945   1.314   1.844
 2554SOL    HW1 7678   3.880   1.241   1.823
 2554SOL    HW2 7679   3.949   1.328   1.942
 2555SOL     OW 7680   3.803   1.240   0.653
 2555SOL    HW1 7681   3.802   1.193   0.741
 2555SOL    HW2 7682   3.885   1.212   0.602
 2556SOL     OW 7683   4.396   1.391   1.624
 2556SOL    HW1 7684   4.318   1.341   1.662
 2556SOL    HW2 7685   4.393   1.486   1.655
 2557SOL     OW 7686   4.152   0.424   0.520
 2557SOL    HW1 7687   4.182   0.352   0.458
 2557SOL    HW2 7688   4.113   0.384   0.603
 2558SOL     OW 7689   4.041   0.547   1.280
 2558SOL    HW1 7690   4.079   0.488   1.352
 2558SOL    HW2 7691   4.081   0.521   1.192
 2559SOL     OW 7692   4.536   1.586   0.687
 2559SOL    HW1 7693   4.568   1.596   0.593
 2559SOL    HW2 7694   4.457   1.524   0.689
 2560SOL     OW 7695   4.342   1.567   1.284
 2560SOL    HW1 7696   4.337   1.649   1.341
 2560SOL    HW2 7697   4.431   1.564   1.239
 2561SOL     OW 7698   3.763   1.077   0.300
 2561SOL    HW1 7699   3.862   1.066   0.291
 2561SOL    HW2 7700   3.723   0.991   0.332
 2562SOL     OW 7701   3.954   0.628   1.975
 2562SOL    HW1 7702   3.861   0.626   2.012
 2562SOL    HW2 7703   3.955   0.589   1.883
 2563SOL     OW 7704   3.949   0.275   2.858
 2563SOL    HW1 7705   3.984   0.258   2.950
 2563SOL    HW2 7706   3.861   0.230   2.846
 2564SOL     OW 7707   3.743   0.368   2.509
 2564SOL    HW1 7708   3.661   0.411   2.548
 2564SOL    HW2 7709   3.715   0.295   2.446
 2565SOL     OW 7710   4.293   1.275   3.027
 2565SOL    HW1 7711   4.200   1.268   2.990
 2565SOL    HW2 7712   4.304   1.364   3.071
 2566SOL     OW 7713   4.574   0.798   3.685
 2566SOL    HW1 7714   4.570   0.874   3.750
 2566SOL    HW2 7715   4.596   0.834   3.594
 2567SOL     OW 7716   4.409   1.012   2.527
 2567SOL    HW1 7717   4.478   0.996   2.597
 2567SOL    HW2 7718   4.336   1.069   2.565
 2568SOL     OW 7719   4.410   1.161   3.665
 2568SOL    HW1 7720   4.470   1.240   3.679
 2568SOL    HW2 7721   4.324   1.192   3.624
 2569SOL     OW 7722   4.059   1.435   2.923
 2569SOL    HW1 7723   3.981   1.404   2.870
 2569SOL    HW2 7724   4.117   1.493   2.866
 2570SOL     OW 7725   4.162   0.392   3.361
 2570SOL    HW1 7726   4.244   0.336   3.370
 2570SOL    HW2 7727   4.081   0.334   3.365
 2571SOL     OW 7728   3.955   1.713   2.345
 2571SOL    HW1 7729   3.989   1.790   2.399
 2571SOL    HW2 7730   3.999   1.713   2.255
 2572SOL     OW 7731   3.954   1.434   2.400
 2572SOL    HW1 7732   3.928   1.530   2.400
 2572SOL    HW2 7733   3.883   1.380   2.445
 2573SOL     OW 7734   3.964   1.091   2.748
 2573SOL    HW1 7735   3.978   1.007   2.800
 2573SOL    HW2 7736   3.909   1.155   2.803
 2574SOL     OW 7737   4.344   1.786   3.301
 2574SOL    HW1 7738   4.252   1.769   3.336
 2574SOL    HW2 7739   4.372   1.878   3.327
 2575SOL     OW 7740   4.330   0.964   1.985
 2575SOL    HW1 7741   4.337   1.048   1.931
 2575SOL    HW2 7742   4.376   0.977   2.073
 2576SOL     OW 7743   3.846   0.643   2.425
 2576SOL    HW1 7744   3.801   0.555   2.442
 2576SOL    HW2 7745   3.845   0.697   2.509
 2577SOL     OW 7746   3.751   1.596   1.979
 2577SOL    HW1 7747   3.732   1.500   2.000
 2577SOL    HW2 7748   3.718   1.654   2.054
 2578SOL     OW 7749   3.837   0.737   3.459
 2578SOL    HW1 7750   3.925   0.724   3.504
 2578SOL    HW2 7751   3.824   0.834   3.437
 2579SOL     OW 7752   4.337   1.365   2.588
 2579SOL    HW1 7753   4.288   1.278   2.597
 2579SOL    HW2 7754   4.314   1.408   2.501
 2580SOL     OW 7755   4.533   0.004   2.364
 2580SOL    HW1 7756   4.573   0.095   2.355
 2580SOL    HW2 7757   4.433   0.012   2.370
 2581SOL     OW 7758   3.921   0.976   3.126
 2581SOL    HW1 7759   4.010   0.931   3.112
 2581SOL    HW2 7760   3.848   0.911   3.107
 2582SOL     OW 7761   4.041   0.251   3.663
 2582SOL    HW1 7762   4.112   0.322   3.669
 2582SOL    HW2 7763   3.953   0.290   3.691
 2583SOL     OW 7764   4.322   0.729   2.132
 2583SOL    HW1 7765   4.346   0.798   2.064
 2583SOL    HW2 7766   4.244   0.762   2.186
 2584SOL     OW 7767   3.800   0.811   2.651
 2584SOL    HW1 7768   3.899   0.799   2.660
 2584SOL    HW2 7769   3.776   0.906   2.672
 2585SOL     OW 7770   3.854   1.821   3.433
 2585SOL    HW1 7771   3.844   1.806   3.532
 2585SOL    HW2 7772   3.768   1.857   3.397
 2586SOL     OW 7773   4.274   0.196   2.747
 2586SOL    HW1 7774   4.269   0.191   2.847
 2586SOL    HW2 7775   4.276   0.292   2.718
 2587SOL     OW 7776   4.075   1.801   2.715
 2587SOL    HW1 7777   4.125   1.715   2.721
 2587SOL    HW2 7778   4.140   1.878   2.712
 2588SOL     OW 7779   4.045   0.943   2.104
 2588SOL    HW1 7780   4.127   0.982   2.062
 2588SOL    HW2 7781   4.018   0.861   2.055
 2589SOL     OW 7782   4.185   1.266   3.589
 2589SOL    HW1 7783   4.135   1.267   3.503
 2589SOL    HW2 7784   4.122   1.248   3.665
 2590SOL     OW 7785   3.926   0.285   3.360
 2590SOL    HW1 7786   3.846   0.345   3.347
 2590SOL    HW2 7787   3.916   0.236   3.446
 2591SOL     OW 7788   4.188   1.743   2.185
 2591SOL    HW1 7789   4.221   1.782   2.271
 2591SOL    HW2 7790   4.264   1.736   2.120
 2592SOL     OW 7791   3.973   1.785   3.103
 2592SOL    HW1 7792   4.030   1.720   3.153
 2592SOL    HW2 7793   3.957   1.752   3.010
 2593SOL     OW 7794   4.106   0.700   2.342
 2593SOL    HW1 7795   4.151   0.610   2.339
 2593SOL    HW2 7796   4.012   0.689   2.375
 2594SOL     OW 7797   4.338   0.122   1.979
 2594SOL    HW1 7798   4.436   0.100   1.986
 2594SOL    HW2 7799   4.307   0.105   1.886
 2595SOL     OW 7800   4.527   1.402   2.786
 2595SOL    HW1 7801   4.617   1.416   2.744
 2595SOL    HW2 7802   4.456   1.404   2.715
 2596SOL     OW 7803   4.263   0.064   2.374
 2596SOL    HW1 7804   4.182   0.065   2.432
 2596SOL    HW2 7805   4.266   0.147   2.319
 2597SOL     OW 7806   4.021   0.035   2.033
 2597SOL    HW1 7807   4.070   0.119   2.012
 2597SOL    HW2 7808   4.083  -0.030   2.078
 2598SOL     OW 7809   4.183   1.152   2.603
 2598SOL    HW1 7810   4.112   1.125   2.668
 2598SOL    HW2 7811   4.157   1.124   2.510
 2599SOL     OW 7812   3.802   0.556   3.248
 2599SOL    HW1 7813   3.894   0.555   3.207
 2599SOL    HW2 7814   3.796   0.630   3.315
 2600SOL     OW 7815   4.285   0.222   3.009
 2600SOL    HW1 7816   4.323   0.138   3.046
 2600SOL    HW2 7817   4.197   0.241   3.053
 2601SOL     OW 7818   4.212   1.385   2.036
 2601SOL    HW1 7819   4.125   1.370   2.083
 2601SOL    HW2 7820   4.195   1.411   1.941
 2602SOL     OW 7821   4.251   0.256   2.190
 2602SOL    HW1 7822   4.278   0.197   2.115
 2602SOL    HW2 7823   4.251   0.351   2.159
 2603SOL     OW 7824   4.134   0.813   3.113
 2603SOL    HW1 7825   4.220   0.825   3.163
 2603SOL    HW2 7826   4.092   0.726   3.140
 2604SOL     OW 7827   3.788   1.564   3.193
 2604SOL    HW1 7828   3.742   1.646   3.159
 2604SOL    HW2 7829   3.886   1.583   3.202
 2605SOL     OW 7830   4.091   1.100   2.363
 2605SOL    HW1 7831   4.084   1.183   2.307
 2605SOL    HW2 7832   4.095   1.020   2.303
 2606SOL     OW 7833   4.290   0.537   2.727
 2606SOL    HW1 7834   4.302   0.603   2.653
 2606SOL    HW2 7835   4.336   0.571   2.810
 2607SOL     OW 7836   4.078   1.510   3.191
 2607SOL    HW1 7837   4.057   1.466   3.104
 2607SOL    HW2 7838   4.175   1.536   3.194
 2608SOL     OW 7839   4.126   0.751   3.460
 2608SOL    HW1 7840   4.194   0.806   3.413
 2608SOL    HW2 7841   4.166   0.663   3.487
 2609SOL     OW 7842   4.228   0.050   3.602
 2609SOL    HW1 7843   4.186  -0.007   3.532
 2609SOL    HW2 7844   4.162   0.119   3.634
 2610SOL     OW 7845   4.297   0.870   2.891
 2610SOL    HW1 7846   4.341   0.959   2.882
 2610SOL    HW2 7847   4.234   0.870   2.968
 2611SOL     OW 7848   4.031   0.213   3.093
 2611SOL    HW1 7849   4.008   0.250   3.183
 2611SOL    HW2 7850   4.001   0.118   3.087
 2612SOL     OW 7851   3.761   1.310   3.144
 2612SOL    HW1 7852   3.814   1.261   3.212
 2612SOL    HW2 7853   3.783   1.408   3.149
 2613SOL     OW 7854   4.031   0.063   2.480
 2613SOL    HW1 7855   4.020   0.157   2.513
 2613SOL    HW2 7856   4.026   0.000   2.557
 2614SOL     OW 7857   4.074   0.898   3.666
 2614SOL    HW1 7858   4.150   0.942   3.714
 2614SOL    HW2 7859   4.109   0.851   3.584
 2615SOL     OW 7860   4.043   0.810   2.811
 2615SOL    HW1 7861   4.136   0.846   2.816
 2615SOL    HW2 7862   4.037   0.725   2.863
 2616SOL     OW 7863   4.063   0.509   2.868
 2616SOL    HW1 7864   4.011   0.426   2.851
 2616SOL    HW2 7865   4.140   0.514   2.804
 2617SOL     OW 7866   3.732   1.326   2.062
 2617SOL    HW1 7867   3.639   1.347   2.031
 2617SOL    HW2 7868   3.742   1.227   2.075
 2618SOL     OW 7869   3.812   1.801   2.789
 2618SOL    HW1 7870   3.770   1.715   2.762
 2618SOL    HW2 7871   3.906   1.804   2.755
 2619SOL     OW 7872   4.228   1.568   2.772
 2619SOL    HW1 7873   4.294   1.642   2.781
 2619SOL    HW2 7874   4.272   1.489   2.730
 2620SOL     OW 7875   3.764   0.544   2.976
 2620SOL    HW1 7876   3.849   0.511   2.935
 2620SOL    HW2 7877   3.777   0.559   3.074
 2621SOL     OW 7878   3.913   0.520   3.584
 2621SOL    HW1 7879   3.972   0.480   3.514
 2621SOL    HW2 7880   3.855   0.591   3.543
 2622SOL     OW 7881   4.539   0.572   2.187
 2622SOL    HW1 7882   4.546   0.483   2.141
 2622SOL    HW2 7883   4.445   0.606   2.179
 2623SOL     OW 7884   3.976   1.564   3.606
 2623SOL    HW1 7885   3.946   1.621   3.682
 2623SOL    HW2 7886   3.969   1.467   3.632
 2624SOL     OW 7887   4.395   0.464   3.131
 2624SOL    HW1 7888   4.361   0.375   3.101
 2624SOL    HW2 7889   4.421   0.518   3.051
 2625SOL     OW 7890   4.197   0.500   2.053
 2625SOL    HW1 7891   4.258   0.580   2.057
 2625SOL    HW2 7892   4.102   0.531   2.060
 2626SOL     OW 7893   3.883   1.137   3.328
 2626SOL    HW1 7894   3.905   1.076   3.404
 2626SOL    HW2 7895   3.893   1.088   3.242
 2627SOL     OW 7896   3.807   1.258   2.884
 2627SOL    HW1 7897   3.802   1.257   2.984
 2627SOL    HW2 7898   3.724   1.217   2.846
 2628SOL     OW 7899   4.412   1.662   3.578
 2628SOL    HW1 7900   4.356   1.743   3.587
 2628SOL    HW2 7901   4.464   1.666   3.492
 2629SOL     OW 7902   3.854   1.794   3.713
 2629SOL    HW1 7903   3.813   1.720   3.766
 2629SOL    HW2 7904   3.918   1.845   3.771
 2630SOL     OW 7905   3.987   0.326   2.582
 2630SOL    HW1 7906   3.908   0.377   2.548
 2630SOL    HW2 7907   3.978   0.311   2.680
 2631SOL     OW 7908   4.096   1.288   3.352
 2631SOL    HW1 7909   4.083   1.381   3.318
 2631SOL    HW2 7910   4.012   1.236   3.339
 2632SOL     OW 7911   4.763   1.098   2.558
 2632SOL    HW1 7912   4.693   1.051   2.612
 2632SOL    HW2 7913   4.822   1.030   2.515
 2633SOL     OW 7914   4.314   1.487   2.353
 2633SOL    HW1 7915   4.356   1.429   2.283
 2633SOL    HW2 7916   4.270   1.566   2.309
 2634SOL     OW 7917   3.979   1.348   2.152
 2634SOL    HW1 7918   3.883   1.349   2.125
 2634SOL    HW2 7919   3.991   1.401   2.236
 2635SOL     OW 7920   3.829   1.013   3.588
 2635SOL    HW1 7921   3.752   0.980   3.642
 2635SOL    HW2 7922   3.914   0.983   3.630
 2636SOL     OW 7923   4.396   0.203   3.351
 2636SOL    HW1 7924   4.486   0.187   3.311
 2636SOL    HW2 7925   4.404   0.208   3.450
 2637SOL     OW 7926   3.799   0.345   1.895
 2637SOL    HW1 7927   3.707   0.317   1.866
 2637SOL    HW2 7928   3.830   0.422   1.839
 2638SOL     OW 7929   3.796   0.166   2.180
 2638SOL    HW1 7930   3.779   0.249   2.126
 2638SOL    HW2 7931   3.886   0.129   2.158
 2639SOL     OW 7932   4.337   0.842   3.293
 2639SOL    HW1 7933   4.393   0.923   3.276
 2639SOL    HW2 7934   4.396   0.762   3.296
 2640SOL     OW 7935   4.440   0.565   3.570
 2640SOL    HW1 7936   4.459   0.630   3.644
 2640SOL    HW2 7937   4.500   0.485   3.579
 2641SOL     OW 7938   4.114   1.741   3.422
 2641SOL    HW1 7939   4.023   1.782   3.420
 2641SOL    HW2 7940   4.107   1.647   3.454
 2642SOL     OW 7941   4.318   0.745   2.514
 2642SOL    HW1 7942   4.368   0.830   2.495
 2642SOL    HW2 7943   4.230   0.747   2.466
 2643SOL     OW 7944   3.945   1.314   3.706
 2643SOL    HW1 7945   3.880   1.241   3.685
 2643SOL    HW2 7946   3.949   1.328   3.804
 2644SOL     OW 7947   3.803   1.240   2.515
 2644SOL    HW1 7948   3.802   1.193   2.603
 2644SOL    HW2 7949   3.885   1.212   2.464
 2645SOL     OW 7950   4.396   1.391   3.486
 2645SOL    HW1 7951   4.318   1.341   3.524
 2645SOL    HW2 7952   4.393   1.486   3.517
 2646SOL     OW 7953   4.152   0.424   2.382
 2646SOL    HW1 7954   4.182   0.352   2.320
 2646SOL    HW2 7955   4.113   0.384   2.465
 2647SOL     OW 7956   4.041   0.547   3.142
 2647SOL    HW1 7957   4.079   0.488   3.214
 2647SOL    HW2 7958   4.081   0.521   3.054
 2648SOL     OW 7959   4.536   1.586   2.549
 2648SOL    HW1 7960   4.568   1.596   2.455
 2648SOL    HW2 7961   4.457   1.524   2.551
 2649SOL     OW 7962   4.342   1.567   3.146
 2649SOL    HW1 7963   4.337   1.649   3.203
 2649SOL    HW2 7964   4.431   1.564   3.101
 2650SOL     OW 7965   3.763   1.077   2.162
 2650SOL    HW1 7966   3.862   1.066   2.153
 2650SOL    HW2 7967   3.723   0.991   2.194
 2651SOL     OW 7968   3.954   0.628   3.837
 2651SOL    HW1 7969   3.861   0.626   3.874
 2651SOL    HW2 7970   3.955   0.589   3.745
 2652SOL     OW 7971   3.743   0.368   4.371
 2652SOL    HW1 7972   3.661   0.411   4.410
 2652SOL    HW2 7973   3.715   0.295   4.308
 2653SOL     OW 7974   4.409   1.012   4.389
 2653SOL    HW1 7975   4.478   0.996   4.459
 2653SOL    HW2 7976   4.336   1.069   4.427
 2654SOL     OW 7977   3.955   1.713   4.207
 2654SOL    HW1 7978   3.989   1.790   4.261
 2654SOL    HW2 7979   3.999   1.713   4.117
 2655SOL     OW 7980   3.954   1.434   4.262
 2655SOL    HW1 7981   3.928   1.530   4.262
 2655SOL    HW2 7982   3.883   1.380   4.307
 2656SOL     OW 7983   4.330   0.964   3.847
 2656SOL    HW1 7984   4.337   1.048   3.793
 2656SOL    HW2 7985   4.376   0.977   3.935
 2657SOL     OW 7986   3.846   0.643   4.287
 2657SOL    HW1 7987   3.801   0.555   4.304
 2657SOL    HW2 7988   3.845   0.697   4.371
 2658SOL     OW 7989   3.751   1.596   3.841
 2658SOL    HW1 7990   3.732   1.500   3.862
 2658SOL    HW2 7991   3.718   1.654   3.916
 2659SOL     OW 7992   4.337   1.365   4.450
 2659SOL    HW1 7993   4.288   1.278   4.459
 2659SOL    HW2 7994   4.314   1.408   4.363
 2660SOL     OW 7995   4.533   0.004   4.226
 2660SOL    HW1 7996   4.573   0.095   4.217
 2660SOL    HW2 7997   4.433   0.012   4.232
 2661SOL     OW 7998   4.322   0.729   3.994
 2661SOL    HW1 7999   4.346   0.798   3.926
 2661SOL    HW2 8000   4.244   0.762   4.048
 2662SOL     OW 8001   3.800   0.811   4.513
 2662SOL    HW1 8002   3.899   0.799   4.522
 2662SOL    HW2 8003   3.776   0.906   4.534
 2663SOL     OW 8004   4.075   1.801   4.577
 2663SOL    HW1 8005   4.125   1.715   4.583
 2663SOL    HW2 8006   4.140   1.878   4.574
 2664SOL     OW 8007   4.045   0.943   3.966
 2664SOL    HW1 8008   4.127   0.982   3.924
 2664SOL    HW2 8009   4.018   0.861   3.917
 2665SOL     OW 8010   4.188   1.743   4.047
 2665SOL    HW1 8011   4.221   1.782   4.133
 2665SOL    HW2 8012   4.264   1.736   3.982
 2666SOL     OW 8013   4.106   0.700   4.204
 2666SOL    HW1 8014   4.151   0.610   4.201
 2666SOL    HW2 8015   4.012   0.689   4.237
 2667SOL     OW 8016   4.338   0.122   3.841
 2667SOL    HW1 8017   4.436   0.100   3.848
 2667SOL    HW2 8018   4.307   0.105   3.748
 2668SOL     OW 8019   4.263   0.064   4.236
 2668SOL    HW1 8020   4.182   0.065   4.294
 2668SOL    HW2 8021   4.266   0.147   4.181
 2669SOL     OW 8022   4.021   0.035   3.895
 2669SOL    HW1 8023   4.070   0.119   3.874
 2669SOL    HW2 8024   4.083  -0.030   3.940
 2670SOL     OW 8025   4.183   1.152   4.465
 2670SOL    HW1 8026   4.112   1.125   4.530
 2670SOL    HW2 8027   4.157   1.124   4.372
 2671SOL     OW 8028   4.212   1.385   3.898
 2671SOL    HW1 8029   4.125   1.370   3.945
 2671SOL    HW2 8030   4.195   1.411   3.803
 2672SOL     OW 8031   4.251   0.256   4.052
 2672SOL    HW1 8032   4.278   0.197   3.977
 2672SOL    HW2 8033   4.251   0.351   4.021
 2673SOL     OW 8034   4.091   1.100   4.225
 2673SOL    HW1 8035   4.084   1.183   4.169
 2673SOL    HW2 8036   4.095   1.020   4.165
 2674SOL     OW 8037   4.031   0.063   4.342
 2674SOL    HW1 8038   4.020   0.157   4.375
 2674SOL    HW2 8039   4.026   0.000   4.419
 2675SOL     OW 8040   3.732   1.326   3.924
 2675SOL    HW1 8041   3.639   1.347   3.893
 2675SOL    HW2 8042   3.742   1.227   3.937
 2676SOL     OW 8043   4.539   0.572   4.049
 2676SOL    HW1 8044   4.546   0.483   4.003
 2676SOL    HW2 8045   4.445   0.606   4.041
 2677SOL     OW 8046   4.197   0.500   3.915
 2677SOL    HW1 8047   4.258   0.580   3.919
 2677SOL    HW2 8048   4.102   0.531   3.922
 2678SOL     OW 8049   4.763   1.098   4.420
 2678SOL    HW1 8050   4.693   1.051   4.474
 2678SOL    HW2 8051   4.822   1.030   4.377
 2679SOL     OW 8052   4.314   1.487   4.215
 2679SOL    HW1 8053   4.356   1.429   4.145
 2679SOL    HW2 8054   4.270   1.566   4.171
 2680SOL     OW 8055   3.979   1.348   4.014
 2680SOL    HW1 8056   3.883   1.349   3.987
 2680SOL    HW2 8057   3.991   1.401   4.098
 2681SOL     OW 8058   3.799   0.345   3.757
 2681SOL    HW1 8059   3.707   0.317   3.728
 2681SOL    HW2 8060   3.830   0.422   3.701
 2682SOL     OW 8061   3.796   0.166   4.042
 2682SOL    HW1 8062   3.779   0.249   3.988
 2682SOL    HW2 8063   3.886   0.129   4.020
 2683SOL     OW 8064   4.318   0.745   4.376
 2683SOL    HW1 8065   4.368   0.830   4.357
 2683SOL    HW2 8066   4.230   0.747   4.328
 2684SOL     OW 8067   4.385   1.790   4.677
 2684SOL    HW1 8068   4.339   1.878   4.664
 2684SOL    HW2 8069   4.484   1.802   4.670
 2685SOL     OW 8070   3.803   1.240   4.377
 2685SOL    HW1 8071   3.802   1.193   4.465
 2685SOL    HW2 8072   3.885   1.212   4.326
 2686SOL     OW 8073   4.152   0.424   4.244
 2686SOL    HW1 8074   4.182   0.352   4.182
 2686SOL    HW2 8075   4.113   0.384   4.327
 2687SOL     OW 8076   4.536   1.586   4.411
 2687SOL    HW1 8077   4.568   1.596   4.317
 2687SOL    HW2 8078   4.457   1.524   4.413
 2688SOL     OW 8079   3.763   1.077   4.024
 2688SOL    HW1 8080   3.862   1.066   4.015
 2688SOL    HW2 8081   3.723   0.991   4.056
 2689SOL     OW 8082   3.954   2.490   0.113
 2689SOL    HW1 8083   3.861   2.488   0.150
 2689SOL    HW2 8084   3.955   2.451   0.021
 2690SOL     OW 8085   3.949   2.137   0.996
 2690SOL    HW1 8086   3.984   2.120   1.088
 2690SOL    HW2 8087   3.861   2.092   0.984
 2691SOL     OW 8088   3.743   2.230   0.647
 2691SOL    HW1 8089   3.661   2.273   0.686
 2691SOL    HW2 8090   3.715   2.157   0.584
 2692SOL     OW 8091   4.293   3.137   1.165
 2692SOL    HW1 8092   4.200   3.130   1.128
 2692SOL    HW2 8093   4.304   3.226   1.209
 2693SOL     OW 8094   4.574   2.660   1.823
 2693SOL    HW1 8095   4.570   2.736   1.888
 2693SOL    HW2 8096   4.596   2.696   1.732
 2694SOL     OW 8097   4.409   2.874   0.665
 2694SOL    HW1 8098   4.478   2.858   0.735
 2694SOL    HW2 8099   4.336   2.931   0.703
 2695SOL     OW 8100   4.410   3.023   1.803
 2695SOL    HW1 8101   4.470   3.102   1.817
 2695SOL    HW2 8102   4.324   3.054   1.762
 2696SOL     OW 8103   4.059   3.297   1.061
 2696SOL    HW1 8104   3.981   3.266   1.008
 2696SOL    HW2 8105   4.117   3.355   1.004
 2697SOL     OW 8106   4.162   2.254   1.499
 2697SOL    HW1 8107   4.244   2.198   1.508
 2697SOL    HW2 8108   4.081   2.196   1.503
 2698SOL     OW 8109   3.955   3.575   0.483
 2698SOL    HW1 8110   3.989   3.652   0.537
 2698SOL    HW2 8111   3.999   3.575   0.393
 2699SOL     OW 8112   3.954   3.296   0.538
 2699SOL    HW1 8113   3.928   3.392   0.538
 2699SOL    HW2 8114   3.883   3.242   0.583
 2700SOL     OW 8115   3.964   2.953   0.886
 2700SOL    HW1 8116   3.978   2.869   0.938
 2700SOL    HW2 8117   3.909   3.017   0.941
 2701SOL     OW 8118   4.344   3.648   1.439
 2701SOL    HW1 8119   4.252   3.631   1.474
 2701SOL    HW2 8120   4.372   3.740   1.465
 2702SOL     OW 8121   4.330   2.826   0.123
 2702SOL    HW1 8122   4.337   2.910   0.069
 2702SOL    HW2 8123   4.376   2.839   0.211
 2703SOL     OW 8124   3.846   2.505   0.563
 2703SOL    HW1 8125   3.801   2.417   0.580
 2703SOL    HW2 8126   3.845   2.559   0.647
 2704SOL     OW 8127   3.751   3.458   0.117
 2704SOL    HW1 8128   3.732   3.362   0.138
 2704SOL    HW2 8129   3.718   3.516   0.192
 2705SOL     OW 8130   3.837   2.599   1.597
 2705SOL    HW1 8131   3.925   2.586   1.642
 2705SOL    HW2 8132   3.824   2.696   1.575
 2706SOL     OW 8133   4.337   3.227   0.726
 2706SOL    HW1 8134   4.288   3.140   0.735
 2706SOL    HW2 8135   4.314   3.270   0.639
 2707SOL     OW 8136   4.533   1.866   0.502
 2707SOL    HW1 8137   4.573   1.957   0.493
 2707SOL    HW2 8138   4.433   1.874   0.508
 2708SOL     OW 8139   3.921   2.838   1.264
 2708SOL    HW1 8140   4.010   2.793   1.250
 2708SOL    HW2 8141   3.848   2.773   1.245
 2709SOL     OW 8142   4.041   2.113   1.801
 2709SOL    HW1 8143   4.112   2.184   1.807
 2709SOL    HW2 8144   3.953   2.152   1.829
 2710SOL     OW 8145   4.322   2.591   0.270
 2710SOL    HW1 8146   4.346   2.660   0.202
 2710SOL    HW2 8147   4.244   2.624   0.324
 2711SOL     OW 8148   3.800   2.673   0.789
 2711SOL    HW1 8149   3.899   2.661   0.798
 2711SOL    HW2 8150   3.776   2.768   0.810
 2712SOL     OW 8151   3.854   3.683   1.571
 2712SOL    HW1 8152   3.844   3.668   1.670
 2712SOL    HW2 8153   3.768   3.719   1.535
 2713SOL     OW 8154   4.274   2.058   0.885
 2713SOL    HW1 8155   4.269   2.053   0.985
 2713SOL    HW2 8156   4.276   2.154   0.856
 2714SOL     OW 8157   4.075   3.663   0.853
 2714SOL    HW1 8158   4.125   3.577   0.859
 2714SOL    HW2 8159   4.140   3.740   0.850
 2715SOL     OW 8160   4.045   2.805   0.242
 2715SOL    HW1 8161   4.127   2.844   0.200
 2715SOL    HW2 8162   4.018   2.723   0.193
 2716SOL     OW 8163   4.185   3.128   1.727
 2716SOL    HW1 8164   4.135   3.129   1.641
 2716SOL    HW2 8165   4.122   3.110   1.803
 2717SOL     OW 8166   3.926   2.147   1.498
 2717SOL    HW1 8167   3.846   2.207   1.485
 2717SOL    HW2 8168   3.916   2.098   1.584
 2718SOL     OW 8169   4.188   3.605   0.323
 2718SOL    HW1 8170   4.221   3.644   0.409
 2718SOL    HW2 8171   4.264   3.598   0.258
 2719SOL     OW 8172   3.973   3.647   1.241
 2719SOL    HW1 8173   4.030   3.582   1.291
 2719SOL    HW2 8174   3.957   3.614   1.148
 2720SOL     OW 8175   4.106   2.562   0.480
 2720SOL    HW1 8176   4.151   2.472   0.477
 2720SOL    HW2 8177   4.012   2.551   0.513
 2721SOL     OW 8178   4.527   3.264   0.924
 2721SOL    HW1 8179   4.617   3.278   0.882
 2721SOL    HW2 8180   4.456   3.266   0.853
 2722SOL     OW 8181   4.263   1.926   0.512
 2722SOL    HW1 8182   4.182   1.927   0.570
 2722SOL    HW2 8183   4.266   2.009   0.457
 2723SOL     OW 8184   4.183   3.014   0.741
 2723SOL    HW1 8185   4.112   2.987   0.806
 2723SOL    HW2 8186   4.157   2.986   0.648
 2724SOL     OW 8187   3.802   2.418   1.386
 2724SOL    HW1 8188   3.894   2.417   1.345
 2724SOL    HW2 8189   3.796   2.492   1.453
 2725SOL     OW 8190   4.285   2.084   1.147
 2725SOL    HW1 8191   4.323   2.000   1.184
 2725SOL    HW2 8192   4.197   2.103   1.191
 2726SOL     OW 8193   4.212   3.247   0.174
 2726SOL    HW1 8194   4.125   3.232   0.221
 2726SOL    HW2 8195   4.195   3.273   0.079
 2727SOL     OW 8196   4.251   2.118   0.328
 2727SOL    HW1 8197   4.278   2.059   0.253
 2727SOL    HW2 8198   4.251   2.213   0.297
 2728SOL     OW 8199   4.134   2.675   1.251
 2728SOL    HW1 8200   4.220   2.687   1.301
 2728SOL    HW2 8201   4.092   2.588   1.278
 2729SOL     OW 8202   3.788   3.426   1.331
 2729SOL    HW1 8203   3.742   3.508   1.297
 2729SOL    HW2 8204   3.886   3.445   1.340
 2730SOL     OW 8205   4.091   2.962   0.501
 2730SOL    HW1 8206   4.084   3.045   0.445
 2730SOL    HW2 8207   4.095   2.882   0.441
 2731SOL     OW 8208   4.290   2.399   0.865
 2731SOL    HW1 8209   4.302   2.465   0.791
 2731SOL    HW2 8210   4.336   2.433   0.948
 2732SOL     OW 8211   4.078   3.372   1.329
 2732SOL    HW1 8212   4.057   3.328   1.242
 2732SOL    HW2 8213   4.175   3.398   1.332
 2733SOL     OW 8214   4.126   2.613   1.598
 2733SOL    HW1 8215   4.194   2.668   1.551
 2733SOL    HW2 8216   4.166   2.525   1.625
 2734SOL     OW 8217   4.228   1.912   1.740
 2734SOL    HW1 8218   4.186   1.855   1.670
 2734SOL    HW2 8219   4.162   1.981   1.772
 2735SOL     OW 8220   4.297   2.732   1.029
 2735SOL    HW1 8221   4.341   2.821   1.020
 2735SOL    HW2 8222   4.234   2.732   1.106
 2736SOL     OW 8223   4.031   2.075   1.231
 2736SOL    HW1 8224   4.008   2.112   1.321
 2736SOL    HW2 8225   4.001   1.980   1.225
 2737SOL     OW 8226   3.761   3.172   1.282
 2737SOL    HW1 8227   3.814   3.123   1.350
 2737SOL    HW2 8228   3.783   3.270   1.287
 2738SOL     OW 8229   4.031   1.925   0.618
 2738SOL    HW1 8230   4.020   2.019   0.651
 2738SOL    HW2 8231   4.026   1.862   0.695
 2739SOL     OW 8232   4.074   2.760   1.804
 2739SOL    HW1 8233   4.150   2.804   1.852
 2739SOL    HW2 8234   4.109   2.713   1.722
 2740SOL     OW 8235   4.043   2.672   0.949
 2740SOL    HW1 8236   4.136   2.708   0.954
 2740SOL    HW2 8237   4.037   2.587   1.001
 2741SOL     OW 8238   4.063   2.371   1.006
 2741SOL    HW1 8239   4.011   2.288   0.989
 2741SOL    HW2 8240   4.140   2.376   0.942
 2742SOL     OW 8241   3.732   3.188   0.200
 2742SOL    HW1 8242   3.639   3.209   0.169
 2742SOL    HW2 8243   3.742   3.089   0.213
 2743SOL     OW 8244   3.812   3.663   0.927
 2743SOL    HW1 8245   3.770   3.577   0.900
 2743SOL    HW2 8246   3.906   3.666   0.893
 2744SOL     OW 8247   4.228   3.430   0.910
 2744SOL    HW1 8248   4.294   3.504   0.919
 2744SOL    HW2 8249   4.272   3.351   0.868
 2745SOL     OW 8250   3.764   2.406   1.114
 2745SOL    HW1 8251   3.849   2.373   1.073
 2745SOL    HW2 8252   3.777   2.421   1.212
 2746SOL     OW 8253   3.913   2.382   1.722
 2746SOL    HW1 8254   3.972   2.342   1.652
 2746SOL    HW2 8255   3.855   2.453   1.681
 2747SOL     OW 8256   4.539   2.434   0.325
 2747SOL    HW1 8257   4.546   2.345   0.279
 2747SOL    HW2 8258   4.445   2.468   0.317
 2748SOL     OW 8259   3.976   3.426   1.744
 2748SOL    HW1 8260   3.946   3.483   1.820
 2748SOL    HW2 8261   3.969   3.329   1.770
 2749SOL     OW 8262   4.395   2.326   1.269
 2749SOL    HW1 8263   4.361   2.237   1.239
 2749SOL    HW2 8264   4.421   2.380   1.189
 2750SOL     OW 8265   4.197   2.362   0.191
 2750SOL    HW1 8266   4.258   2.442   0.195
 2750SOL    HW2 8267   4.102   2.393   0.198
 2751SOL     OW 8268   3.883   2.999   1.466
 2751SOL    HW1 8269   3.905   2.938   1.542
 2751SOL    HW2 8270   3.893   2.950   1.380
 2752SOL     OW 8271   3.807   3.120   1.022
 2752SOL    HW1 8272   3.802   3.119   1.122
 2752SOL    HW2 8273   3.724   3.079   0.984
 2753SOL     OW 8274   4.412   3.524   1.716
 2753SOL    HW1 8275   4.356   3.605   1.725
 2753SOL    HW2 8276   4.464   3.528   1.630
 2754SOL     OW 8277   3.854   3.656   1.851
 2754SOL    HW1 8278   3.813   3.582   1.904
 2754SOL    HW2 8279   3.918   3.707   1.909
 2755SOL     OW 8280   3.987   2.188   0.720
 2755SOL    HW1 8281   3.908   2.239   0.686
 2755SOL    HW2 8282   3.978   2.173   0.818
 2756SOL     OW 8283   4.096   3.150   1.490
 2756SOL    HW1 8284   4.083   3.243   1.456
 2756SOL    HW2 8285   4.012   3.098   1.477
 2757SOL     OW 8286   4.763   2.960   0.696
 2757SOL    HW1 8287   4.693   2.913   0.750
 2757SOL    HW2 8288   4.822   2.892   0.653
 2758SOL     OW 8289   4.314   3.349   0.491
 2758SOL    HW1 8290   4.356   3.291   0.421
 2758SOL    HW2 8291   4.270   3.428   0.447
 2759SOL     OW 8292   3.979   3.210   0.290
 2759SOL    HW1 8293   3.883   3.211   0.263
 2759SOL    HW2 8294   3.991   3.263   0.374
 2760SOL     OW 8295   3.829   2.875   1.726
 2760SOL    HW1 8296   3.752   2.842   1.780
 2760SOL    HW2 8297   3.914   2.845   1.768
 2761SOL     OW 8298   4.396   2.065   1.489
 2761SOL    HW1 8299   4.486   2.049   1.449
 2761SOL    HW2 8300   4.404   2.070   1.588
 2762SOL     OW 8301   3.799   2.207   0.033
 2762SOL    HW1 8302   3.707   2.179   0.004
 2762SOL    HW2 8303   3.830   2.284  -0.023
 2763SOL     OW 8304   3.796   2.028   0.318
 2763SOL    HW1 8305   3.779   2.111   0.264
 2763SOL    HW2 8306   3.886   1.991   0.296
 2764SOL     OW 8307   4.337   2.704   1.431
 2764SOL    HW1 8308   4.393   2.785   1.414
 2764SOL    HW2 8309   4.396   2.624   1.434
 2765SOL     OW 8310   4.440   2.427   1.708
 2765SOL    HW1 8311   4.459   2.492   1.782
 2765SOL    HW2 8312   4.500   2.347   1.717
 2766SOL     OW 8313   4.114   3.603   1.560
 2766SOL    HW1 8314   4.023   3.644   1.558
 2766SOL    HW2 8315   4.107   3.509   1.592
 2767SOL     OW 8316   4.318   2.607   0.652
 2767SOL    HW1 8317   4.368   2.692   0.633
 2767SOL    HW2 8318   4.230   2.609   0.604
 2768SOL     OW 8319   3.945   3.176   1.844
 2768SOL    HW1 8320   3.880   3.103   1.823
 2768SOL    HW2 8321   3.949   3.190   1.942
 2769SOL     OW 8322   3.803   3.102   0.653
 2769SOL    HW1 8323   3.802   3.055   0.741
 2769SOL    HW2 8324   3.885   3.074   0.602
 2770SOL     OW 8325   4.396   3.253   1.624
 2770SOL    HW1 8326   4.318   3.203   1.662
 2770SOL    HW2 8327   4.393   3.348   1.655
 2771SOL     OW 8328   4.152   2.286   0.520
 2771SOL    HW1 8329   4.182   2.214   0.458
 2771SOL    HW2 8330   4.113   2.246   0.603
 2772SOL     OW 8331   4.041   2.409   1.280
 2772SOL    HW1 8332   4.079   2.350   1.352
 2772SOL    HW2 8333   4.081   2.383   1.192
 2773SOL     OW 8334   4.536   3.448   0.687
 2773SOL    HW1 8335   4.568   3.458   0.593
 2773SOL    HW2 8336   4.457   3.386   0.689
 2774SOL     OW 8337   4.342   3.429   1.284
 2774SOL    HW1 8338   4.337   3.511   1.341
 2774SOL    HW2 8339   4.431   3.426   1.239
 2775SOL     OW 8340   3.763   2.939   0.300
 2775SOL    HW1 8341   3.862   2.928   0.291
 2775SOL    HW2 8342   3.723   2.853   0.332
 2776SOL     OW 8343   3.954   2.490   1.975
 2776SOL    HW1 8344   3.861   2.488   2.012
 2776SOL    HW2 8345   3.955   2.451   1.883
 2777SOL     OW 8346   3.949   2.137   2.858
 2777SOL    HW1 8347   3.984   2.120   2.950
 2777SOL    HW2 8348   3.861   2.092   2.846
 2778SOL     OW 8349   3.743   2.230   2.509
 2778SOL    HW1 8350   3.661   2.273   2.548
 2778SOL    HW2 8351   3.715   2.157   2.446
 2779SOL     OW 8352   4.293   3.137   3.027
 2779SOL    HW1 8353   4.200   3.130   2.990
 2779SOL    HW2 8354   4.304   3.226   3.071
 2780SOL     OW 8355   4.574   2.660   3.685
 2780SOL    HW1 8356   4.570   2.736   3.750
 2780SOL    HW2 8357   4.596   2.696   3.594
 2781SOL     OW 8358   4.409   2.874   2.527
 2781SOL    HW1 8359   4.478   2.858   2.597
 2781SOL    HW2 8360   4.336   2.931   2.565
 2782SOL     OW 8361   4.410   3.023   3.665
 2782SOL    HW1 8362   4.470   3.102   3.679
 2782SOL    HW2 8363   4.324   3.054   3.624
 2783SOL     OW 8364   4.059   3.297   2.923
 2783SOL    HW1 8365   3.981   3.266   2.870
 2783SOL    HW2 8366   4.117   3.355   2.866
 2784SOL     OW 8367   4.162   2.254   3.361
 2784SOL    HW1 8368   4.244   2.198   3.370
 2784SOL    HW2 8369   4.081   2.196   3.365
 2785SOL     OW 8370   3.955   3.575   2.345
 2785SOL    HW1 8371   3.989   3.652   2.399
 2785SOL    HW2 8372   3.999   3.575   2.255
 2786SOL     OW 8373   3.954   3.296   2.400
 2786SOL    HW1 8374   3.928   3.392   2.400
 2786SOL    HW2 8375   3.883   3.242   2.445
 2787SOL     OW 8376   3.964   2.953   2.748
 2787SOL    HW1 8377   3.978   2.869   2.800
 2787SOL    HW2 8378   3.909   3.017   2.803
 2788SOL     OW 8379   4.344   3.648   3.301
 2788SOL    HW1 8380   4.252   3.631   3.336
 2788SOL    HW2 8381   4.372   3.740   3.327
 2789SOL     OW 8382   4.330   2.826   1.985
 2789SOL    HW1 8383   4.337   2.910   1.931
 2789SOL    HW2 8384   4.376   2.839   2.073
 2790SOL     OW 8385   3.846   2.505   2.425
 2790SOL    HW1 8386   3.801   2.417   2.442
 2790SOL    HW2 8387   3.845   2.559   2.509
 2791SOL     OW 8388   3.751   3.458   1.979
 2791SOL    HW1 8389   3.732   3.362   2.000
 2791SOL    HW2 8390   3.718   3.516   2.054
 2792SOL     OW 8391   3.837   2.599   3.459
 2792SOL    HW1 8392   3.925   2.586   3.504
 2792SOL    HW2 8393   3.824   2.696   3.437
 2793SOL     OW 8394   4.337   3.227   2.588
 2793SOL    HW1 8395   4.288   3.140   2.597
 2793SOL    HW2 8396   4.314   3.270   2.501
 2794SOL     OW 8397   4.533   1.866   2.364
 2794SOL    HW1 8398   4.573   1.957   2.355
 2794SOL    HW2 8399   4.433   1.874   2.370
 2795SOL     OW 8400   3.921   2.838   3.126
 2795SOL    HW1 8401   4.010   2.793   3.112
 2795SOL    HW2 8402   3.848   2.773   3.107
 2796SOL     OW 8403   4.041   2.113   3.663
 2796SOL    HW1 8404   4.112   2.184   3.669
 2796SOL    HW2 8405   3.953   2.152   3.691
 2797SOL     OW 8406   4.322   2.591   2.132
 2797SOL    HW1 8407   4.346   2.660   2.064
 2797SOL    HW2 8408   4.244   2.624   2.186
 2798SOL     OW 8409   3.800   2.673   2.651
 2798SOL    HW1 8410   3.899   2.661   2.660
 2798SOL    HW2 8411   3.776   2.768   2.672
 2799SOL     OW 8412   3.854   3.683   3.433
 2799SOL    HW1 8413   3.844   3.668   3.532
 2799SOL    HW2 8414   3.768   3.719   3.397
 2800SOL     OW 8415   4.274   2.058   2.747
 2800SOL    HW1 8416   4.269   2.053   2.847
 2800SOL    HW2 8417   4.276   2.154   2.718
 2801SOL     OW 8418   4.075   3.663   2.715
 2801SOL    HW1 8419   4.125   3.577   2.721
 2801SOL    HW2 8420   4.140   3.740   2.712
 2802SOL     OW 8421   4.045   2.805   2.104
 2802SOL    HW1 8422   4.127   2.844   2.062
 2802SOL    HW2 8423   4.018   2.723   2.055
 2803SOL     OW 8424   4.185   3.128   3.589
 2803SOL    HW1 8425   4.135   3.129   3.503
 2803SOL    HW2 8426   4.122   3.110   3.665
 2804SOL     OW 8427   3.926   2.147   3.360
 2804SOL    HW1 8428   3.846   2.207   3.347
 2804SOL    HW2 8429   3.916   2.098   3.446
 2805SOL     OW 8430   4.188   3.605   2.185
 2805SOL    HW1 8431   4.221   3.644   2.271
 2805SOL    HW2 8432   4.264   3.598   2.120
 2806SOL     OW 8433   3.973   3.647   3.103
 2806SOL    HW1 8434   4.030   3.582   3.153
 2806SOL    HW2 8435   3.957   3.614   3.010
 2807SOL     OW 8436   4.106   2.562   2.342
 2807SOL    HW1 8437   4.151   2.472   2.339
 2807SOL    HW2 8438   4.012   2.551   2.375
 2808SOL     OW 8439   4.338   1.984   1.979
 2808SOL    HW1 8440   4.436   1.962   1.986
 2808SOL    HW2 8441   4.307   1.967   1.886
 2809SOL     OW 8442   4.527   3.264   2.786
 2809SOL    HW1 8443   4.617   3.278   2.744
 2809SOL    HW2 8444   4.456   3.266   2.715
 2810SOL     OW 8445   4.263   1.926   2.374
 2810SOL    HW1 8446   4.182   1.927   2.432
 2810SOL    HW2 8447   4.266   2.009   2.319
 2811SOL     OW 8448   4.021   1.897   2.033
 2811SOL    HW1 8449   4.070   1.981   2.012
 2811SOL    HW2 8450   4.083   1.832   2.078
 2812SOL     OW 8451   4.183   3.014   2.603
 2812SOL    HW1 8452   4.112   2.987   2.668
 2812SOL    HW2 8453   4.157   2.986   2.510
 2813SOL     OW 8454   3.802   2.418   3.248
 2813SOL    HW1 8455   3.894   2.417   3.207
 2813SOL    HW2 8456   3.796   2.492   3.315
 2814SOL     OW 8457   4.285   2.084   3.009
 2814SOL    HW1 8458   4.323   2.000   3.046
 2814SOL    HW2 8459   4.197   2.103   3.053
 2815SOL     OW 8460   4.212   3.247   2.036
 2815SOL    HW1 8461   4.125   3.232   2.083
 2815SOL    HW2 8462   4.195   3.273   1.941
 2816SOL     OW 8463   4.251   2.118   2.190
 2816SOL    HW1 8464   4.278   2.059   2.115
 2816SOL    HW2 8465   4.251   2.213   2.159
 2817SOL     OW 8466   4.134   2.675   3.113
 2817SOL    HW1 8467   4.220   2.687   3.163
 2817SOL    HW2 8468   4.092   2.588   3.140
 2818SOL     OW 8469   3.788   3.426   3.193
 2818SOL    HW1 8470   3.742   3.508   3.159
 2818SOL    HW2 8471   3.886   3.445   3.202
 2819SOL     OW 8472   4.091   2.962   2.363
 2819SOL    HW1 8473   4.084   3.045   2.307
 2819SOL    HW2 8474   4.095   2.882   2.303
 2820SOL     OW 8475   4.290   2.399   2.727
 2820SOL    HW1 8476   4.302   2.465   2.653
 2820SOL    HW2 8477   4.336   2.433   2.810
 2821SOL     OW 8478   4.078   3.372   3.191
 2821SOL    HW1 8479   4.057   3.328   3.104
 2821SOL    HW2 8480   4.175   3.398   3.194
 2822SOL     OW 8481   4.126   2.613   3.460
 2822SOL    HW1 8482   4.194   2.668   3.413
 2822SOL    HW2 8483   4.166   2.525   3.487
 2823SOL     OW 8484   4.228   1.912   3.602
 2823SOL    HW1 8485   4.186   1.855   3.532
 2823SOL    HW2 8486   4.162   1.981   3.634
 2824SOL     OW 8487   4.297   2.732   2.891
 2824SOL    HW1 8488   4.341   2.821   2.882
 2824SOL    HW2 8489   4.234   2.732   2.968
 2825SOL     OW 8490   4.031   2.075   3.093
 2825SOL    HW1 8491   4.008   2.112   3.183
 2825SOL    HW2 8492   4.001   1.980   3.087
 2826SOL     OW 8493   3.761   3.172   3.144
 2826SOL    HW1 8494   3.814   3.123   3.212
 2826SOL    HW2 8495   3.783   3.270   3.149
 2827SOL     OW 8496   4.031   1.925   2.480
 2827SOL    HW1 8497   4.020   2.019   2.513
 2827SOL    HW2 8498   4.026   1.862   2.557
 2828SOL     OW 8499   4.074   2.760   3.666
 2828SOL    HW1 8500   4.150   2.804   3.714
 2828SOL    HW2 8501   4.109   2.713   3.584
 2829SOL     OW 8502   4.043   2.672   2.811
 2829SOL    HW1 8503   4.136   2.708   2.816
 2829SOL    HW2 8504   4.037   2.587   2.863
 2830SOL     OW 8505   4.063   2.371   2.868
 2830SOL    HW1 8506   4.011   2.288   2.851
 2830SOL    HW2 8507   4.140   2.376   2.804
 2831SOL     OW 8508   3.732   3.188   2.062
 2831SOL    HW1 8509   3.639   3.209   2.031
 2831SOL    HW2 8510   3.742   3.089   2.075
 2832SOL     OW 8511   3.812   3.663   2.789
 2832SOL    HW1 8512   3.770   3.577   2.762
 2832SOL    HW2 8513   3.906   3.666   2.755
 2833SOL     OW 8514   4.228   3.430   2.772
 2833SOL    HW1 8515   4.294   3.504   2.781
 2833SOL    HW2 8516   4.272   3.351   2.730
 2834SOL     OW 8517   3.764   2.406   2.976
 2834SOL    HW1 8518   3.849   2.373   2.935
 2834SOL    HW2 8519   3.777   2.421   3.074
 2835SOL     OW 8520   3.913   2.382   3.584
 2835SOL    HW1 8521   3.972   2.342   3.514
 2835SOL    HW2 8522   3.855   2.453   3.543
 2836SOL     OW 8523   4.539   2.434   2.187
 2836SOL    HW1 8524   4.546   2.345   2.141
 2836SOL    HW2 8525   4.445   2.468   2.179
 2837SOL     OW 8526   3.976   3.426   3.606
 2837SOL    HW1 8527   3.946   3.483   3.682
 2837SOL    HW2 8528   3.969   3.329   3.632
 2838SOL     OW 8529   4.395   2.326   3.131
 2838SOL    HW1 8530   4.361   2.237   3.101
 2838SOL    HW2 8531   4.421   2.380   3.051
 2839SOL     OW 8532   4.197   2.362   2.053
 2839SOL    HW1 8533   4.258   2.442   2.057
 2839SOL    HW2 8534   4.102   2.393   2.060
 2840SOL     OW 8535   3.883   2.999   3.328
 2840SOL    HW1 8536   3.905   2.938   3.404
 2840SOL    HW2 8537   3.893   2.950   3.242
 2841SOL     OW 8538   3.807   3.120   2.884
 2841SOL    HW1 8539   3.802   3.119   2.984
 2841SOL    HW2 8540   3.724   3.079   2.846
 2842SOL     OW 8541   4.412   3.524   3.578
 2842SOL    HW1 8542   4.356   3.605   3.587
 2842SOL    HW2 8543   4.464   3.528   3.492
 2843SOL     OW 8544   3.854   3.656   3.713
 2843SOL    HW1 8545   3.813   3.582   3.766
 2843SOL    HW2 8546   3.918   3.707   3.771
 2844SOL     OW 8547   3.987   2.188   2.582
 2844SOL    HW1 8548   3.908   2.239   2.548
 2844SOL    HW2 8549   3.978   2.173   2.680
 2845SOL     OW 8550   4.096   3.150   3.352
 2845SOL    HW1 8551   4.083   3.243   3.318
 2845SOL    HW2 8552   4.012   3.098   3.339
 2846SOL     OW 8553   4.763   2.960   2.558
 2846SOL    HW1 8554   4.693   2.913   2.612
 2846SOL    HW2 8555   4.822   2.892   2.515
 2847SOL     OW 8556   4.314   3.349   2.353
 2847SOL    HW1 8557   4.356   3.291   2.283
 2847SOL    HW2 8558   4.270   3.428   2.309
 2848SOL     OW 8559   3.979   3.210   2.152
 2848SOL    HW1 8560   3.883   3.211   2.125
 2848SOL    HW2 8561   3.991   3.263   2.236
 2849SOL     OW 8562   3.829   2.875   3.588
 2849SOL    HW1 8563   3.752   2.842   3.642
 2849SOL    HW2 8564   3.914   2.845   3.630
 2850SOL     OW 8565   4.396   2.065   3.351
 2850SOL    HW1 8566   4.486   2.049   3.311
 2850SOL    HW2 8567   4.404   2.070   3.450
 2851SOL     OW 8568   3.799   2.207   1.895
 2851SOL    HW1 8569   3.707   2.179   1.866
 2851SOL    HW2 8570   3.830   2.284   1.839
 2852SOL     OW 8571   3.796   2.028   2.180
 2852SOL    HW1 8572   3.779   2.111   2.126
 2852SOL    HW2 8573   3.886   1.991   2.158
 2853SOL     OW 8574   4.337   2.704   3.293
 2853SOL    HW1 8575   4.393   2.785   3.276
 2853SOL    HW2 8576   4.396   2.624   3.296
 2854SOL     OW 8577   4.440   2.427   3.570
 2854SOL    HW1 8578   4.459   2.492   3.644
 2854SOL    HW2 8579   4.500   2.347   3.579
 2855SOL     OW 8580   4.114   3.603   3.422
 2855SOL    HW1 8581   4.023   3.644   3.420
 2855SOL    HW2 8582   4.107   3.509   3.454
 2856SOL     OW 8583   4.318   2.607   2.514
 2856SOL    HW1 8584   4.368   2.692   2.495
 2856SOL    HW2 8585   4.230   2.609   2.466
 2857SOL     OW 8586   3.945   3.176   3.706
 2857SOL    HW1 8587   3.880   3.103   3.685
 2857SOL    HW2 8588   3.949   3.190   3.804
 2858SOL     OW 8589   3.803   3.102   2.515
 2858SOL    HW1 8590   3.802   3.055   2.603
 2858SOL    HW2 8591   3.885   3.074   2.464
 2859SOL     OW 8592   4.396   3.253   3.486
 2859SOL    HW1 8593   4.318   3.203   3.524
 2859SOL    HW2 8594   4.393   3.348   3.517
 2860SOL     OW 8595   4.152   2.286   2.382
 2860SOL    HW1 8596   4.182   2.214   2.320
 2860SOL    HW2 8597   4.113   2.246   2.465
 2861SOL     OW 8598   4.041   2.409   3.142
 2861SOL    HW1 8599   4.079   2.350   3.214
 2861SOL    HW2 8600   4.081   2.383   3.054
 2862SOL     OW 8601   4.536   3.448   2.549
 2862SOL    HW1 8602   4.568   3.458   2.455
 2862SOL    HW2 8603   4.457   3.386   2.551
 2863SOL     OW 8604   4.342   3.429   3.146
 2863SOL    HW1 8605   4.337   3.511   3.203
 2863SOL    HW2 8606   4.431   3.426   3.101
 2864SOL     OW 8607   3.763   2.939   2.162
 2864SOL    HW1 8608   3.862   2.928   2.153
 2864SOL    HW2 8609   3.723   2.853   2.194
 2865SOL     OW 8610   3.954   2.490   3.837
 2865SOL    HW1 8611   3.861   2.488   3.874
 2865SOL    HW2 8612   3.955   2.451   3.745
 2866SOL     OW 8613   3.743   2.230   4.371
 2866SOL    HW1 8614   3.661   2.273   4.410
 2866SOL    HW2 8615   3.715   2.157   4.308
 2867SOL     OW 8616   4.409   2.874   4.389
 2867SOL    HW1 8617   4.478   2.858   4.459
 2867SOL    HW2 8618   4.336   2.931   4.427
 2868SOL     OW 8619   3.955   3.575   4.207
 2868SOL    HW1 8620   3.989   3.652   4.261
 2868SOL    HW2 8621   3.999   3.575   4.117
 2869SOL     OW 8622   3.954   3.296   4.262
 2869SOL    HW1 8623   3.928   3.392   4.262
 2869SOL    HW2 8624   3.883   3.242   4.307
 2870SOL     OW 8625   4.330   2.826   3.847
 2870SOL    HW1 8626   4.337   2.910   3.793
 2870SOL    HW2 8627   4.376   2.839   3.935
 2871SOL     OW 8628   3.846   2.505   4.287
 2871SOL    HW1 8629   3.801   2.417   4.304
 2871SOL    HW2 8630   3.845   2.559   4.371
 2872SOL     OW 8631   3.751   3.458   3.841
 2872SOL    HW1 8632   3.732   3.362   3.862
 2872SOL    HW2 8633   3.718   3.516   3.916
 2873SOL     OW 8634   4.337   3.227   4.450
 2873SOL    HW1 8635   4.288   3.140   4.459
 2873SOL    HW2 8636   4.314   3.270   4.363
 2874SOL     OW 8637   4.533   1.866   4.226
 2874SOL    HW1 8638   4.573   1.957   4.217
 2874SOL    HW2 8639   4.433   1.874   4.232
 2875SOL     OW 8640   4.322   2.591   3.994
 2875SOL    HW1 8641   4.346   2.660   3.926
 2875SOL    HW2 8642   4.244   2.624   4.048
 2876SOL     OW 8643   3.800   2.673   4.513
 2876SOL    HW1 8644   3.899   2.661   4.522
 2876SOL    HW2 8645   3.776   2.768   4.534
 2877SOL     OW 8646   4.075   3.663   4.577
 2877SOL    HW1 8647   4.125   3.577   4.583
 2877SOL    HW2 8648   4.140   3.740   4.574
 2878SOL     OW 8649   4.045   2.805   3.966
 2878SOL    HW1 8650   4.127   2.844   3.924
 2878SOL    HW2 8651   4.018   2.723   3.917
 2879SOL     OW 8652   4.188   3.605   4.047
 2879SOL    HW1 8653   4.221   3.644   4.133
 2879SOL    HW2 8654   4.264   3.598   3.982
 2880SOL     OW 8655   4.106   2.562   4.204
 2880SOL    HW1 8656   4.151   2.472   4.201
 2880SOL    HW2 8657   4.012   2.551   4.237
 2881SOL     OW 8658   4.338   1.984   3.841
 2881SOL    HW1 8659   4.436   1.962   3.848
 2881SOL    HW2 8660   4.307   1.967   3.748
 2882SOL     OW 8661   4.263   1.926   4.236
 2882SOL    HW1 8662   4.182   1.927   4.294
 2882SOL    HW2 8663   4.266   2.009   4.181
 2883SOL     OW 8664   4.021   1.897   3.895
 2883SOL    HW1 8665   4.070   1.981   3.874
 2883SOL    HW2 8666   4.083   1.832   3.940
 2884SOL     OW 8667   4.183   3.014   4.465
 2884SOL    HW1 8668   4.112   2.987   4.530
 2884SOL    HW2 8669   4.157   2.986   4.372
 2885SOL     OW 8670   4.212   3.247   3.898
 2885SOL    HW1 8671   4.125   3.232   3.945
 2885SOL    HW2 8672   4.195   3.273   3.803
 2886SOL     OW 8673   4.251   2.118   4.052
 2886SOL    HW1 8674   4.278   2.059   3.977
 2886SOL    HW2 8675   4.251   2.213   4.021
 2887SOL     OW 8676   4.091   2.962   4.225
 2887SOL    HW1 8677   4.084   3.045   4.169
 2887SOL    HW2 8678   4.095   2.882   4.165
 2888SOL     OW 8679   4.031   1.925   4.342
 2888SOL    HW1 8680   4.020   2.019   4.375
 2888SOL    HW2 8681   4.026   1.862   4.419
 2889SOL     OW 8682   3.732   3.188   3.924
 2889SOL    HW1 8683   3.639   3.209   3.893
 2889SOL    HW2 8684   3.742   3.089   3.937
 2890SOL     OW 8685   4.539   2.434   4.049
 2890SOL    HW1 8686   4.546   2.345   4.003
 2890SOL    HW2 8687   4.445   2.468   4.041
 2891SOL     OW 8688   4.197   2.362   3.915
 2891SOL    HW1 8689   4.258   2.442   3.919
 2891SOL    HW2 8690   4.102   2.393   3.922
 2892SOL     OW 8691   4.763   2.960   4.420
 2892SOL    HW1 8692   4.693   2.913   4.474
 2892SOL    HW2 8693   4.822   2.892   4.377
 2893SOL     OW 8694   4.314   3.349   4.215
 2893SOL    HW1 8695   4.356   3.291   4.145
 2893SOL    HW2 8696   4.270   3.428   4.171
 2894SOL     OW 8697   3.979   3.210   4.014
 2894SOL    HW1 8698   3.883   3.211   3.987
 2894SOL    HW2 8699   3.991   3.263   4.098
 2895SOL     OW 8700   3.799   2.207   3.757
 2895SOL    HW1 8701   3.707   2.179   3.728
 2895SOL    HW2 8702   3.830   2.284   3.701
 2896SOL     OW 8703   3.796   2.028   4.042
 2896SOL    HW1 8704   3.779   2.111   3.988
 2896SOL    HW2 8705   3.886   1.991   4.020
 2897SOL     OW 8706   4.318   2.607   4.376
 2897SOL    HW1 8707   4.368   2.692   4.357
 2897SOL    HW2 8708   4.230   2.609   4.328
 2898SOL     OW 8709   4.385   3.652   4.677
 2898SOL    HW1 8710   4.339   3.740   4.664
 2898SOL    HW2 8711   4.484   3.664   4.670
 2899SOL     OW 8712   3.803   3.102   4.377
 2899SOL    HW1 8713   3.802   3.055   4.465
 2899SOL    HW2 8714   3.885   3.074   4.326
 2900SOL     OW 8715   4.152   2.286   4.244
 2900SOL    HW1 8716   4.182   2.214   4.182
 2900SOL    HW2 8717   4.113   2.246   4.327
 2901SOL     OW 8718   4.536   3.448   4.411
 2901SOL    HW1 8719   4.568   3.458   4.317
 2901SOL    HW2 8720   4.457   3.386   4.413
 2902SOL     OW 8721   3.763   2.939   4.024
 2902SOL    HW1 8722   3.862   2.928   4.015
 2902SOL    HW2 8723   3.723   2.853   4.056
 2903SOL     OW 8724   3.954   4.352   0.113
 2903SOL    HW1 8725   3.861   4.350   0.150
 2903SOL    HW2 8726   3.955   4.313   0.021
 2904SOL     OW 8727   3.949   3.999   0.996
 2904SOL    HW1 8728   3.984   3.982   1.088
 2904SOL    HW2 8729   3.861   3.954   0.984
 2905SOL     OW 8730   3.743   4.092   0.647
 2905SOL    HW1 8731   3.661   4.135   0.686
 2905SOL    HW2 8732   3.715   4.019   0.584
 2906SOL     OW 8733   4.574   4.522   1.823
 2906SOL    HW1 8734   4.570   4.598   1.888
 2906SOL    HW2 8735   4.596   4.558   1.732
 2907SOL     OW 8736   4.409   4.736   0.665
 2907SOL    HW1 8737   4.478   4.720   0.735
 2907SOL    HW2 8738   4.336   4.793   0.703
 2908SOL     OW 8739   4.162   4.116   1.499
 2908SOL    HW1 8740   4.244   4.060   1.508
 2908SOL    HW2 8741   4.081   4.058   1.503
 2909SOL     OW 8742   3.846   4.367   0.563
 2909SOL    HW1 8743   3.801   4.279   0.580
 2909SOL    HW2 8744   3.845   4.421   0.647
 2910SOL     OW 8745   3.837   4.461   1.597
 2910SOL    HW1 8746   3.925   4.448   1.642
 2910SOL    HW2 8747   3.824   4.558   1.575
 2911SOL     OW 8748   4.533   3.728   0.502
 2911SOL    HW1 8749   4.573   3.819   0.493
 2911SOL    HW2 8750   4.433   3.736   0.508
 2912SOL     OW 8751   4.041   3.975   1.801
 2912SOL    HW1 8752   4.112   4.046   1.807
 2912SOL    HW2 8753   3.953   4.014   1.829
 2913SOL     OW 8754   4.274   3.920   0.885
 2913SOL    HW1 8755   4.269   3.915   0.985
 2913SOL    HW2 8756   4.276   4.016   0.856
 2914SOL     OW 8757   3.926   4.009   1.498
 2914SOL    HW1 8758   3.846   4.069   1.485
 2914SOL    HW2 8759   3.916   3.960   1.584
 2915SOL     OW 8760   4.106   4.424   0.480
 2915SOL    HW1 8761   4.151   4.334   0.477
 2915SOL    HW2 8762   4.012   4.413   0.513
 2916SOL     OW 8763   4.263   3.788   0.512
 2916SOL    HW1 8764   4.182   3.789   0.570
 2916SOL    HW2 8765   4.266   3.871   0.457
 2917SOL     OW 8766   3.802   4.280   1.386
 2917SOL    HW1 8767   3.894   4.279   1.345
 2917SOL    HW2 8768   3.796   4.354   1.453
 2918SOL     OW 8769   4.285   3.946   1.147
 2918SOL    HW1 8770   4.323   3.862   1.184
 2918SOL    HW2 8771   4.197   3.965   1.191
 2919SOL     OW 8772   4.251   3.980   0.328
 2919SOL    HW1 8773   4.278   3.921   0.253
 2919SOL    HW2 8774   4.251   4.075   0.297
 2920SOL     OW 8775   4.134   4.537   1.251
 2920SOL    HW1 8776   4.220   4.549   1.301
 2920SOL    HW2 8777   4.092   4.450   1.278
 2921SOL     OW 8778   4.290   4.261   0.865
 2921SOL    HW1 8779   4.302   4.327   0.791
 2921SOL    HW2 8780   4.336   4.295   0.948
 2922SOL     OW 8781   4.228   3.774   1.740
 2922SOL    HW1 8782   4.186   3.717   1.670
 2922SOL    HW2 8783   4.162   3.843   1.772
 2923SOL     OW 8784   4.031   3.937   1.231
 2923SOL    HW1 8785   4.008   3.974   1.321
 2923SOL    HW2 8786   4.001   3.842   1.225
 2924SOL     OW 8787   4.031   3.787   0.618
 2924SOL    HW1 8788   4.020   3.881   0.651
 2924SOL    HW2 8789   4.026   3.724   0.695
 2925SOL     OW 8790   4.043   4.534   0.949
 2925SOL    HW1 8791   4.136   4.570   0.954
 2925SOL    HW2 8792   4.037   4.449   1.001
 2926SOL     OW 8793   4.063   4.233   1.006
 2926SOL    HW1 8794   4.011   4.150   0.989
 2926SOL    HW2 8795   4.140   4.238   0.942
 2927SOL     OW 8796   3.764   4.268   1.114
 2927SOL    HW1 8797   3.849   4.235   1.073
 2927SOL    HW2 8798   3.777   4.283   1.212
 2928SOL     OW 8799   3.913   4.244   1.722
 2928SOL    HW1 8800   3.972   4.204   1.652
 2928SOL    HW2 8801   3.855   4.315   1.681
 2929SOL     OW 8802   4.539   4.296   0.325
 2929SOL    HW1 8803   4.546   4.207   0.279
 2929SOL    HW2 8804   4.445   4.330   0.317
 2930SOL     OW 8805   4.395   4.188   1.269
 2930SOL    HW1 8806   4.361   4.099   1.239
 2930SOL    HW2 8807   4.421   4.242   1.189
 2931SOL     OW 8808   4.197   4.224   0.191
 2931SOL    HW1 8809   4.258   4.304   0.195
 2931SOL    HW2 8810   4.102   4.255   0.198
 2932SOL     OW 8811   3.987   4.050   0.720
 2932SOL    HW1 8812   3.908   4.101   0.686
 2932SOL    HW2 8813   3.978   4.035   0.818
 2933SOL     OW 8814   4.396   3.927   1.489
 2933SOL    HW1 8815   4.486   3.911   1.449
 2933SOL    HW2 8816   4.404   3.932   1.588
 2934SOL     OW 8817   3.799   4.069   0.033
 2934SOL    HW1 8818   3.707   4.041   0.004
 2934SOL    HW2 8819   3.830   4.146  -0.023
 2935SOL     OW 8820   3.796   3.890   0.318
 2935SOL    HW1 8821   3.779   3.973   0.264
 2935SOL    HW2 8822   3.886   3.853   0.296
 2936SOL     OW 8823   4.440   4.289   1.708
 2936SOL    HW1 8824   4.459   4.354   1.782
 2936SOL    HW2 8825   4.500   4.209   1.717
 2937SOL     OW 8826   4.152   4.148   0.520
 2937SOL    HW1 8827   4.182   4.076   0.458
 2937SOL    HW2 8828   4.113   4.108   0.603
 2938SOL     OW 8829   4.041   4.271   1.280
 2938SOL    HW1 8830   4.079   4.212   1.352
 2938SOL    HW2 8831   4.081   4.245   1.192
 2939SOL     OW 8832   3.954   4.352   1.975
 2939SOL    HW1 8833   3.861   4.350   2.012
 2939SOL    HW2 8834   3.955   4.313   1.883
 2940SOL     OW 8835   3.949   3.999   2.858
 2940SOL    HW1 8836   3.984   3.982   2.950
 2940SOL    HW2 8837   3.861   3.954   2.846
 2941SOL     OW 8838   3.743   4.092   2.509
 2941SOL    HW1 8839   3.661   4.135   2.548
 2941SOL    HW2 8840   3.715   4.019   2.446
 2942SOL     OW 8841   4.574   4.522   3.685
 2942SOL    HW1 8842   4.570   4.598   3.750
 2942SOL    HW2 8843   4.596   4.558   3.594
 2943SOL     OW 8844   4.409   4.736   2.527
 2943SOL    HW1 8845   4.478   4.720   2.597
 2943SOL    HW2 8846   4.336   4.793   2.565
 2944SOL     OW 8847   4.162   4.116   3.361
 2944SOL    HW1 8848   4.244   4.060   3.370
 2944SOL    HW2 8849   4.081   4.058   3.365
 2945SOL     OW 8850   3.846   4.367   2.425
 2945SOL    HW1 8851   3.801   4.279   2.442
 2945SOL    HW2 8852   3.845   4.421   2.509
 2946SOL     OW 8853   3.837   4.461   3.459
 2946SOL    HW1 8854   3.925   4.448   3.504
 2946SOL    HW2 8855   3.824   4.558   3.437
 2947SOL     OW 8856   4.533   3.728   2.364
 2947SOL    HW1 8857   4.573   3.819   2.355
 2947SOL    HW2 8858   4.433   3.736   2.370
 2948SOL     OW 8859   4.041   3.975   3.663
 2948SOL    HW1 8860   4.112   4.046   3.669
 2948SOL    HW2 8861   3.953   4.014   3.691
 2949SOL     OW 8862   4.274   3.920   2.747
 2949SOL    HW1 8863   4.269   3.915   2.847
 2949SOL    HW2 8864   4.276   4.016   2.718
 2950SOL     OW 8865   3.926   4.009   3.360
 2950SOL    HW1 8866   3.846   4.069   3.347
 2950SOL    HW2 8867   3.916   3.960   3.446
 2951SOL     OW 8868   4.106   4.424   2.342
 2951SOL    HW1 8869   4.151   4.334   2.339
 2951SOL    HW2 8870   4.012   4.413   2.375
 2952SOL     OW 8871   4.338   3.846   1.979
 2952SOL    HW1 8872   4.436   3.824   1.986
 2952SOL    HW2 8873   4.307   3.829   1.886
 2953SOL     OW 8874   4.263   3.788   2.374
 2953SOL    HW1 8875   4.182   3.789   2.432
 2953SOL    HW2 8876   4.266   3.871   2.319
 2954SOL     OW 8877   4.021   3.759   2.033
 2954SOL    HW1 8878   4.070   3.843   2.012
 2954SOL    HW2 8879   4.083   3.694   2.078
 2955SOL     OW 8880   3.802   4.280   3.248
 2955SOL    HW1 8881   3.894   4.279   3.207
 2955SOL    HW2 8882   3.796   4.354   3.315
 2956SOL     OW 8883   4.285   3.946   3.009
 2956SOL    HW1 8884   4.323   3.862   3.046
 2956SOL    HW2 8885   4.197   3.965   3.053
 2957SOL     OW 8886   4.251   3.980   2.190
 2957SOL    HW1 8887   4.278   3.921   2.115
 2957SOL    HW2 8888   4.251   4.075   2.159
 2958SOL     OW 8889   4.134   4.537   3.113
 2958SOL    HW1 8890   4.220   4.549   3.163
 2958SOL    HW2 8891   4.092   4.450   3.140
 2959SOL     OW 8892   4.290   4.261   2.727
 2959SOL    HW1 8893   4.302   4.327   2.653
 2959SOL    HW2 8894   4.336   4.295   2.810
 2960SOL     OW 8895   4.228   3.774   3.602
 2960SOL    HW1 8896   4.186   3.717   3.532
 2960SOL    HW2 8897   4.162   3.843   3.634
 2961SOL     OW 8898   4.031   3.937   3.093
 2961SOL    HW1 8899   4.008   3.974   3.183
 2961SOL    HW2 8900   4.001   3.842   3.087
 2962SOL     OW 8901   4.031   3.787   2.480
 2962SOL    HW1 8902   4.020   3.881   2.513
 2962SOL    HW2 8903   4.026   3.724   2.557
 2963SOL     OW 8904   4.043   4.534   2.811
 2963SOL    HW1 8905   4.136   4.570   2.816
 2963SOL    HW2 8906   4.037   4.449   2.863
 2964SOL     OW 8907   4.063   4.233   2.868
 2964SOL    HW1 8908   4.011   4.150   2.851
 2964SOL    HW2 8909   4.140   4.238   2.804
 2965SOL     OW 8910   3.764   4.268   2.976
 2965SOL    HW1 8911   3.849   4.235   2.935
 2965SOL    HW2 8912   3.777   4.283   3.074
 2966SOL     OW 8913   3.913   4.244   3.584
 2966SOL    HW1 8914   3.972   4.204   3.514
 2966SOL    HW2 8915   3.855   4.315   3.543
 2967SOL     OW 8916   4.539   4.296   2.187
 2967SOL    HW1 8917   4.546   4.207   2.141
 2967SOL    HW2 8918   4.445   4.330   2.179
 2968SOL     OW 8919   4.395   4.188   3.131
 2968SOL    HW1 8920   4.361   4.099   3.101
 2968SOL    HW2 8921   4.421   4.242   3.051
 2969SOL     OW 8922   4.197   4.224   2.053
 2969SOL    HW1 8923   4.258   4.304   2.057
 2969SOL    HW2 8924   4.102   4.255   2.060
 2970SOL     OW 8925   3.987   4.050   2.582
 2970SOL    HW1 8926   3.908   4.101   2.548
 2970SOL    HW2 8927   3.978   4.035   2.680
 2971SOL     OW 8928   4.396   3.927   3.351
 2971SOL    HW1 8929   4.486   3.911   3.311
 2971SOL    HW2 8930   4.404   3.932   3.450
 2972SOL     OW 8931   3.799   4.069   1.895
 2972SOL    HW1 8932   3.707   4.041   1.866
 2972SOL    HW2 8933   3.830   4.146   1.839
 2973SOL     OW 8934   3.796   3.890   2.180
 2973SOL    HW1 8935   3.779   3.973   2.126
 2973SOL    HW2 8936   3.886   3.853   2.158
 2974SOL     OW 8937   4.440   4.289   3.570
 2974SOL    HW1 8938   4.459   4.354   3.644
 2974SOL    HW2 8939   4.500   4.209   3.579
 2975SOL     OW 8940   4.152   4.148   2.382
 2975SOL    HW1 8941   4.182   4.076   2.320
 2975SOL    HW2 8942   4.113   4.108   2.465
 2976SOL     OW 8943   4.041   4.271   3.142
 2976SOL    HW1 8944   4.079   4.212   3.214
 2976SOL    HW2 8945   4.081   4.245   3.054
 2977SOL     OW 8946   3.954   4.352   3.837
 2977SOL    HW1 8947   3.861   4.350   3.874
 2977SOL    HW2 8948   3.955   4.313   3.745
 2978SOL     OW 8949   3.743   4.092   4.371
 2978SOL    HW1 8950   3.661   4.135   4.410
 2978SOL    HW2 8951   3.715   4.019   4.308
 2979SOL     OW 8952   4.409   4.736   4.389
 2979SOL    HW1 8953   4.478   4.720   4.459
 2979SOL    HW2 8954   4.336   4.793   4.427
 2980SOL     OW 8955   3.846   4.367   4.287
 2980SOL    HW1 8956   3.801   4.279   4.304
 2980SOL    HW2 8957   3.845   4.421   4.371
 2981SOL     OW 8958   4.533   3.728   4.226
 2981SOL    HW1 8959   4.573   3.819   4.217
 2981SOL    HW2 8960   4.433   3.736   4.232
 2982SOL     OW 8961   3.800   4.535   4.513
 2982SOL    HW1 8962   3.899   4.523   4.522
 2982SOL    HW2 8963   3.776   4.630   4.534
 2983SOL     OW 8964   4.106   4.424   4.204
 2983SOL    HW1 8965   4.151   4.334   4.201
 2983SOL    HW2 8966   4.012   4.413   4.237
 2984SOL     OW 8967   4.338   3.846   3.841
 2984SOL    HW1 8968   4.436   3.824   3.848
 2984SOL    HW2 8969   4.307   3.829   3.748
 2985SOL     OW 8970   4.263   3.788   4.236
 2985SOL    HW1 8971   4.182   3.789   4.294
 2985SOL    HW2 8972   4.266   3.871   4.181
 2986SOL     OW 8973   4.021   3.759   3.895
 2986SOL    HW1 8974   4.070   3.843   3.874
 2986SOL    HW2 8975   4.083   3.694   3.940
 2987SOL     OW 8976   4.251   3.980   4.052
 2987SOL    HW1 8977   4.278   3.921   3.977
 2987SOL    HW2 8978   4.251   4.075   4.021
 2988SOL     OW 8979   4.031   3.787   4.342
 2988SOL    HW1 8980   4.020   3.881   4.375
 2988SOL    HW2 8981   4.026   3.724   4.419
 2989SOL     OW 8982   4.539   4.296   4.049
 2989SOL    HW1 8983   4.546   4.207   4.003
 2989SOL    HW2 8984   4.445   4.330   4.041
 2990SOL     OW 8985   4.197   4.224   3.915
 2990SOL    HW1 8986   4.258   4.304   3.919
 2990SOL    HW2 8987   4.102   4.255   3.922
 2991SOL     OW 8988   3.799   4.069   3.757
 2991SOL    HW1 8989   3.707   4.041   3.728
 2991SOL    HW2 8990   3.830   4.146   3.701
 2992SOL     OW 8991   3.796   3.890   4.042
 2992SOL    HW1 8992   3.779   3.973   3.988
 2992SOL    HW2 8993   3.886   3.853   4.020
 2993SOL     OW 8994   4.152   4.148   4.244
 2993SOL    HW1 8995   4.182   4.076   4.182
 2993SOL    HW2 8996   4.113   4.108   4.327
   4.52247   4.52247   4.52247
