%VERSION  VERSION_STAMP = V0001.000  DATE = 05/20/26  23:50:17                  
%FLAG TITLE                                                                     
%FORMAT(20a4)                                                                   
CUP08023_AM1BCC_v1_0                                                            
%FLAG POINTERS                                                                  
%FORMAT(10I8)                                                                   
      40      12      17      24      38      34      55      62       0       0
     203       1      24      34      62      16      28      24      14       0
       0       0       0       0       0       0       0       0      40       0
       0
%FLAG ATOM_NAME                                                                 
%FORMAT(20a4)                                                                   
C1  C2  C3  C4  C5  C6  C7  C8  C9  C10 C11 C12 C13 C14 N1  O1  O2  O3  O4  P1  
S1  S2  Cl1 H1  H2  H3  H4  H5  H6  H7  H8  H9  H10 H11 H12 H13 H14 H15 H16 H17 
%FLAG CHARGE                                                                    
%FORMAT(5E16.8)                                                                 
 -2.05911990E+00 -2.05911990E+00 -9.93115350E-01 -9.93115350E-01 -2.07916443E+00
 -2.07916443E+00  1.36229915E+01  1.36229915E+01 -2.04271983E+00 -2.04271983E+00
  2.75885622E+00  2.75885622E+00  3.82668300E-01  8.01416754E+00 -9.46466262E+00
 -1.01315988E+01 -1.01315988E+01 -9.25146171E+00 -9.25146171E+00  1.86086128E+01
 -1.06600455E+01 -1.21087184E+01 -3.17796912E+00  2.61490005E+00  2.61490005E+00
  2.89734570E+00  2.89734570E+00  1.04838359E+00  1.04838359E+00  1.04838359E+00
  1.04838359E+00  1.04838359E+00  1.04838359E+00  1.19720511E+00  1.19720511E+00
  1.19720511E+00  1.19720511E+00  2.09920896E+00  2.09920896E+00  2.38165461E+00
%FLAG ATOMIC_NUMBER                                                             
%FORMAT(10I8)                                                                   
       6       6       6       6       6       6       6       6       6       6
       6       6       6       6       7       8       8       8       8      15
      16      16      17       1       1       1       1       1       1       1
       1       1       1       1       1       1       1       1       1       1
%FLAG MASS                                                                      
%FORMAT(5E16.8)                                                                 
  1.20100000E+01  1.20100000E+01  1.20100000E+01  1.20100000E+01  1.20100000E+01
  1.20100000E+01  1.20100000E+01  1.20100000E+01  1.20100000E+01  1.20100000E+01
  1.20100000E+01  1.20100000E+01  1.20100000E+01  1.20100000E+01  1.40100000E+01
  1.60000000E+01  1.60000000E+01  1.60000000E+01  1.60000000E+01  3.09700000E+01
  3.20600000E+01  3.20600000E+01  3.54500000E+01  1.00800000E+00  1.00800000E+00
  1.00800000E+00  1.00800000E+00  1.00800000E+00  1.00800000E+00  1.00800000E+00
  1.00800000E+00  1.00800000E+00  1.00800000E+00  1.00800000E+00  1.00800000E+00
  1.00800000E+00  1.00800000E+00  1.00800000E+00  1.00800000E+00  1.00800000E+00
%FLAG ATOM_TYPE_INDEX                                                           
%FORMAT(10I8)                                                                   
       1       1       1       1       1       1       1       1       2       2
       2       2       2       2       3       4       4       5       5       6
       7       7       8       9       9       9       9      10      10      10
      10      10      10      11      11      11      11      11      11      12
%FLAG NUMBER_EXCLUDED_ATOMS                                                     
%FORMAT(10I8)                                                                   
      10       9      10       9      10       9       9       8       8       8
      10      10       8      12       8       1       1       9       8       7
       1       4       3       2       1       1       1       4       3       2
       4       3       2       1       1       1       1       2       1       1
%FLAG NONBONDED_PARM_INDEX                                                      
%FORMAT(10I8)                                                                   
       1       2       4       7      11      16      22      29      37      46
      56      67       2       3       5       8      12      17      23      30
      38      47      57      68       4       5       6       9      13      18
      24      31      39      48      58      69       7       8       9      10
      14      19      25      32      40      49      59      70      11      12
      13      14      15      20      26      33      41      50      60      71
      16      17      18      19      20      21      27      34      42      51
      61      72      22      23      24      25      26      27      28      35
      43      52      62      73      29      30      31      32      33      34
      35      36      44      53      63      74      37      38      39      40
      41      42      43      44      45      54      64      75      46      47
      48      49      50      51      52      53      54      55      65      76
      56      57      58      59      60      61      62      63      64      65
      66      77      67      68      69      70      71      72      73      74
      75      76      77      78
%FLAG RESIDUE_LABEL                                                             
%FORMAT(20a4)                                                                   
MOL 
%FLAG RESIDUE_POINTER                                                           
%FORMAT(10I8)                                                                   
       1
%FLAG BOND_FORCE_CONSTANT                                                       
%FORMAT(5E16.8)                                                                 
  3.54250000E+02  3.60690000E+02  2.62840000E+02  3.17460000E+02  5.90600000E+02
  2.28890000E+02  3.45250000E+02  2.82270000E+02  3.44220000E+02  1.64000000E+02
  2.54460000E+02  1.84740000E+02  3.47020000E+02  3.87590000E+02  2.63920000E+02
  1.78940000E+02
%FLAG BOND_EQUIL_VALUE                                                          
%FORMAT(5E16.8)                                                                 
  1.39860000E+00  1.08600000E+00  1.49070000E+00  1.39670000E+00  1.21900000E+00
  1.53540000E+00  1.09620000E+00  1.42730000E+00  1.09690000E+00  1.80920000E+00
  1.46430000E+00  1.84070000E+00  1.09500000E+00  1.61820000E+00  1.94730000E+00
  2.11590000E+00
%FLAG ANGLE_FORCE_CONSTANT                                                      
%FORMAT(5E16.8)                                                                 
  6.36700000E+01  4.49000000E+01  6.14400000E+01  6.65000000E+01  7.79600000E+01
  7.71500000E+01  7.72400000E+01  7.74400000E+01  4.32800000E+01  4.32700000E+01
  5.66400000E+01  6.49500000E+01  6.29200000E+01  4.31300000E+01  6.36400000E+01
  6.04000000E+01  8.66800000E+01  6.61000000E+01  4.83600000E+01  5.62000000E+01
  1.02920000E+02  8.13100000E+01  8.15000000E+01  6.91600000E+01  4.20300000E+01
  4.32400000E+01  3.58000000E+01  3.56400000E+01
%FLAG ANGLE_EQUIL_VALUE                                                         
%FORMAT(5E16.8)                                                                 
  2.09474507E+00  2.09230160E+00  2.10015559E+00  2.02248840E+00  2.13977458E+00
  2.18532769E+00  2.07397564E+00  1.87832415E+00  1.91270715E+00  1.91427794E+00
  2.08916001E+00  1.96838317E+00  1.92300459E+00  1.92719339E+00  1.92666979E+00
  1.74114121E+00  2.13925098E+00  2.00957296E+00  1.87762601E+00  1.92579712E+00
  1.77534968E+00  2.04273423E+00  1.78686885E+00  2.01515802E+00  1.89926811E+00
  1.86436151E+00  1.88024401E+00  1.89455572E+00
%FLAG DIHEDRAL_FORCE_CONSTANT                                                   
%FORMAT(5E16.8)                                                                 
  3.62500000E+00  2.12250000E+00  5.80000000E-01  2.50000000E+00  4.82000000E+00
  2.18000000E+00  4.10000000E-01  2.26000000E+00  3.00000000E-02  6.50000000E-01
  0.00000000E+00  3.95000000E+00  3.83000000E-01  3.52000000E+00  8.00000000E-01
  3.33333333E-01  3.92700000E+00  3.80000000E+00  1.55555556E-01  2.50000000E-01
  0.00000000E+00  0.00000000E+00  1.10000000E+00  1.05000000E+01
%FLAG DIHEDRAL_PERIODICITY                                                      
%FORMAT(5E16.8)                                                                 
  2.00000000E+00  2.00000000E+00  2.00000000E+00  2.00000000E+00  1.00000000E+00
  2.00000000E+00  3.00000000E+00  1.00000000E+00  3.00000000E+00  4.00000000E+00
  2.00000000E+00  1.00000000E+00  3.00000000E+00  2.00000000E+00  2.00000000E+00
  3.00000000E+00  2.00000000E+00  2.00000000E+00  3.00000000E+00  1.00000000E+00
  3.00000000E+00  1.00000000E+00  2.00000000E+00  2.00000000E+00
%FLAG DIHEDRAL_PHASE                                                            
%FORMAT(5E16.8)                                                                 
  3.14159400E+00  3.14159400E+00  3.14159400E+00  3.14159400E+00  0.00000000E+00
  3.14159400E+00  0.00000000E+00  0.00000000E+00  3.14159400E+00  3.14159400E+00
  0.00000000E+00  3.14159400E+00  0.00000000E+00  0.00000000E+00  0.00000000E+00
  0.00000000E+00  3.14159400E+00  3.14159400E+00  0.00000000E+00  0.00000000E+00
  0.00000000E+00  0.00000000E+00  3.14159400E+00  3.14159400E+00
%FLAG SCEE_SCALE_FACTOR                                                         
%FORMAT(5E16.8)                                                                 
  1.20000000E+00  1.20000000E+00  1.20000000E+00  1.20000000E+00  1.20000000E+00
  1.20000000E+00  1.20000000E+00  1.20000000E+00  1.20000000E+00  1.20000000E+00
  1.20000000E+00  1.20000000E+00  1.20000000E+00  1.20000000E+00  1.20000000E+00
  1.20000000E+00  1.20000000E+00  1.20000000E+00  1.20000000E+00  1.20000000E+00
  1.20000000E+00  1.20000000E+00  0.00000000E+00  0.00000000E+00
%FLAG SCNB_SCALE_FACTOR                                                         
%FORMAT(5E16.8)                                                                 
  2.00000000E+00  2.00000000E+00  2.00000000E+00  2.00000000E+00  2.00000000E+00
  2.00000000E+00  2.00000000E+00  2.00000000E+00  2.00000000E+00  2.00000000E+00
  2.00000000E+00  2.00000000E+00  2.00000000E+00  2.00000000E+00  2.00000000E+00
  2.00000000E+00  2.00000000E+00  2.00000000E+00  2.00000000E+00  2.00000000E+00
  2.00000000E+00  2.00000000E+00  0.00000000E+00  0.00000000E+00
%FLAG SOLTY                                                                     
%FORMAT(5E16.8)                                                                 
  0.00000000E+00  0.00000000E+00  0.00000000E+00  0.00000000E+00  0.00000000E+00
  0.00000000E+00  0.00000000E+00  0.00000000E+00  0.00000000E+00  0.00000000E+00
  0.00000000E+00  0.00000000E+00  0.00000000E+00  0.00000000E+00
%FLAG LENNARD_JONES_ACOEF                                                       
%FORMAT(5E16.8)                                                                 
  6.96551276E+05  8.43969952E+05  1.02073671E+06  7.01106848E+05  8.52084164E+05
  7.02078680E+05  5.17507491E+05  6.30925504E+05  5.15491878E+05  3.76435470E+05
  4.46121722E+05  5.42502534E+05  4.46307018E+05  3.27367585E+05  2.83662575E+05
  2.06784094E+06  2.48558450E+06  2.10945362E+06  1.57866258E+06  1.34566835E+06
  5.92702883E+06  1.73376823E+06  2.09089895E+06  1.75889445E+06  1.30884564E+06
  1.12086734E+06  5.04212449E+06  4.26366419E+06  1.49062160E+06  1.80018612E+06
  1.50866868E+06  1.11993097E+06  9.60982218E+05  4.36180978E+06  3.67899711E+06
  3.17107030E+06  7.52549148E+04  9.27554496E+04  7.35931098E+04  5.27277400E+04
  4.65732396E+04  2.40822878E+05  1.95762765E+05  1.66104821E+05  6.90855956E+03
  8.12662403E+04  1.00235148E+05  7.93773615E+04  5.68021765E+04  5.02224902E+04
  2.60860942E+05  2.11783234E+05  1.79601155E+05  7.41026906E+03  7.94617769E+03
  5.63013422E+04  6.97998263E+04  5.45183252E+04  3.86646725E+04  3.44374471E+04
  1.84820254E+05  1.48672098E+05  1.25585106E+05  4.88692384E+03  5.22955465E+03
  3.39005767E+03  3.85565555E+04  4.80619274E+04  3.69926172E+04  2.59855087E+04
  2.33261683E+04  1.29617879E+05  1.03252037E+05  8.68545099E+04  3.17496391E+03
  3.39005767E+03  2.16218723E+03  1.35510742E+03
%FLAG LENNARD_JONES_BCOEF                                                       
%FORMAT(5E16.8)                                                                 
  5.24668528E+02  5.90251928E+02  6.63431737E+02  5.97113873E+02  6.72777963E+02
  6.77820248E+02  4.98871431E+02  5.62969425E+02  5.64804067E+02  4.69350655E+02
  3.88758656E+02  4.38146883E+02  4.41089616E+02  3.67361018E+02  2.87011518E+02
  1.11602383E+03  1.25053147E+03  1.27866413E+03  1.07567582E+03  8.33544600E+02
  2.33259779E+03  1.07629402E+03  1.20800124E+03  1.22973599E+03  1.03157656E+03
  8.01230425E+02  2.26594113E+03  2.19459223E+03  9.81118883E+02  1.10195051E+03
  1.11967364E+03  9.38113535E+02  7.29357620E+02  2.07194264E+03  2.00414708E+03
  1.82923847E+03  1.09570372E+02  1.24325688E+02  1.22913863E+02  1.01173582E+02
  7.98066064E+01  2.41980856E+02  2.29782888E+02  2.08087638E+02  2.10929191E+01
  1.21392023E+02  1.37787728E+02  1.36094315E+02  1.11953944E+02  8.83545880E+01
  2.68501076E+02  2.54804909E+02  2.30684859E+02  2.32899892E+01  2.57122925E+01
  1.01040256E+02  1.14981426E+02  1.12788003E+02  9.23664132E+01  7.31636661E+01
  2.26004082E+02  2.13489607E+02  1.92900608E+02  1.89134207E+01  2.08590256E+01
  1.67944276E+01  8.36149973E+01  9.54115851E+01  9.29071597E+01  7.57220777E+01
  6.02145835E+01  1.89266590E+02  1.77914489E+02  1.60420813E+02  1.52447987E+01
  1.67944276E+01  1.34124560E+01  1.06181419E+01
%FLAG BONDS_INC_HYDROGEN                                                        
%FORMAT(10I8)                                                                   
       0      69       2       3      72       2       6      75       2       9
      78       2      24      81       7      24      84       7      24      87
       7      27      90       7      27      93       7      27      96       7
      30      99       9      30     102       9      33     105       9      33
     108       9      36     111       9      36     114       9      39     117
      13
%FLAG BONDS_WITHOUT_HYDROGEN                                                    
%FORMAT(10I8)                                                                   
       0       3       1       0       6       1       3       9       1       6
      12       1       9      15       1      12      15       1      12      18
       3      15      21       3      18      42       4      18      45       5
      21      42       4      21      48       5      24      30       6      27
      33       6      30      51       8      33      54       8      36      39
       6      36      66      10      39      42      11      39      63      12
      51      57      14      54      57      14      57      60      15      57
      63      16
%FLAG ANGLES_INC_HYDROGEN                                                       
%FORMAT(10I8)                                                                   
       0       3      72       2       0       6      75       2       3       0
      69       2       3       9      78       2       6       0      69       2
       9       3      72       2      12       6      75       2      15       9
      78       2      24      30      99       9      24      30     102       9
      27      33     105       9      27      33     108       9      30      24
      81      10      30      24      84      10      30      24      87      10
      33      27      90      10      33      27      93      10      33      27
      96      10      36      39     117      14      39      36     111       9
      39      36     114       9      42      39     117      19      51      30
      99      20      51      30     102      20      54      33     105      20
      54      33     108      20      63      39     117      25      66      36
     111      26      66      36     114      26      81      24      84      27
      81      24      87      27      84      24      87      27      90      27
      93      27      90      27      96      27      93      27      96      27
      99      30     102      28     105      33     108      28     111      36
     114      28
%FLAG ANGLES_WITHOUT_HYDROGEN                                                   
%FORMAT(10I8)                                                                   
       0       3       9       1       0       6      12       1       3       0
       6       1       3       9      15       1       6      12      15       1
       6      12      18       3       9      15      12       1       9      15
      21       3      12      15      21       3      12      18      42       4
      12      18      45       5      15      12      18       3      15      21
      42       4      15      21      48       5      18      42      21       6
      18      42      39       7      21      42      39       7      24      30
      51       8      27      33      54       8      30      51      57      11
      33      54      57      11      36      39      42      12      36      39
      63      13      39      36      66      15      39      63      57      16
      42      18      45      17      42      21      48      17      42      39
      63      18      51      57      54      21      51      57      60      22
      51      57      63      23      54      57      60      22      54      57
      63      23      60      57      63      24
%FLAG DIHEDRALS_INC_HYDROGEN                                                    
%FORMAT(10I8)                                                                   
       0       3       9      78       1       3       0       6      75       1
       6       0       3      72       1      69       0       3       9       1
      69       0       6      12       1      12      15       9      78       1
      15       9       3      72       1      15      12       6      75       1
      18      12       6      75       1      18      42      39     117      11
      21      15       9      78       1      21      42      39     117      11
      42      39      36     111      19      42      39      36     114      19
      51      30      24      81      20      51      30     -24      81      21
      51      30      24      84      20      51      30     -24      84      21
      51      30      24      87      20      51      30     -24      87      21
      54      33      27      90      20      54      33     -27      90      21
      54      33      27      93      20      54      33     -27      93      21
      54      33      27      96      20      54      33     -27      96      21
      57      51      30      99      22      57      51      30     102      22
      57      54      33     105      22      57      54      33     108      22
      57      63      39     117      16      63      39      36     111      19
      63      39      36     114      19      66      36      39     117      19
      69       0       3      72       1      69       0       6      75       1
      72       3       9      78       1      81      24      30      99      19
      81      24      30     102      19      84      24      30      99      19
      84      24      30     102      19      87      24      30      99      19
      87      24      30     102      19      90      27      33     105      19
      90      27      33     108      19      93      27      33     105      19
      93      27      33     108      19      96      27      33     105      19
      96      27      33     108      19     111      36      39     117      19
     114      36      39     117      19      69       0      -6      -3      23
       0       9      -3     -72      23       0      12      -6     -75      23
       3      15      -9     -78      23
%FLAG DIHEDRALS_WITHOUT_HYDROGEN                                                
%FORMAT(10I8)                                                                   
       0       3       9      15       1       0       6     -12      15       1
       0       6      12      18       1       3       0       6      12       1
       3       9     -15      12       1       3       9      15      21       1
       6       0       3       9       1       6      12     -15       9       1
       6      12      15      21       1       6      12      18      42       2
       6      12      18      45       3       9      15      12      18       1
       9      15      21      42       2       9      15      21      48       3
      12      15     -21      42       2      12      15      21      48       3
      12      18     -42      21       4      12      18      42      39       5
      12      18     -42      39       6      12      18     -42      39       7
      15      12     -18      42       2      15      12      18      45       3
      15      21     -42      18       4      15      21      42      39       5
      15      21     -42      39       6      15      21     -42      39       7
      18      12     -15      21       1      18      42      21      48       4
      18      42      39      36       8      18      42     -39      36       9
      18      42     -39      36      10      18      42      39      63      11
      21      42      18      45       4      21      42      39      36       8
      21      42     -39      36      11      21      42     -39      36       9
      21      42     -39      36      10      21      42      39      63      11
      24      30      51      57      12      24      30     -51      57      13
      27      33      54      57      12      27      33     -54      57      13
      30      51      57      54      14      30      51      57      60      15
      30      51      57      63      15      33      54      57      51      14
      33      54      57      60      15      33      54      57      63      15
      36      39      63      57      16      39      42      18      45       4
      39      42      21      48       4      39      63      57      51      17
      39      63      57      54      17      39      63      57      60      18
      42      39      36      66      19      42      39      63      57      16
      63      39      36      66      19      18       6     -12     -15      23
      21       9     -15     -12      23      12      42     -18     -45      24
      15      42     -21     -48      24      18      21     -42     -39      23
%FLAG EXCLUDED_ATOMS_LIST                                                       
%FORMAT(10I8)                                                                   
       2       3       4       5       6       7      24      25      26      27
       3       4       5       6       8      24      25      26      27       4
       5       6       7       8      15      16      24      25      26       5
       6       7       8      15      17      24      25      27       6       7
       8      14      15      16      17      24      26      27       7       8
      14      15      16      17      25      26      27       8      13      14
      15      16      17      22      26      40      13      14      15      16
      17      22      27      40      11      18      20      28      29      30
      34      35      12      19      20      31      32      33      36      37
      18      19      20      21      22      28      29      30      34      35
      18      19      20      21      22      31      32      33      36      37
      14      15      20      22      23      38      39      40      15      16
      17      18      19      20      21      22      23      38      39      40
      16      17      20      22      23      38      39      40       0       0
      19      20      21      22      28      29      30      34      35      20
      21      22      31      32      33      36      37      21      22      34
      35      36      37      40      22      23      38      39      40      38
      39      40      25      26      27       0       0      29      30      34
      35      30      34      35      34      35      32      33      36      37
      33      36      37      36      37      35       0      37       0      39
      40      40       0
%FLAG HBOND_ACOEF                                                               
%FORMAT(5E16.8)                                                                 

%FLAG HBOND_BCOEF                                                               
%FORMAT(5E16.8)                                                                 

%FLAG HBCUT                                                                     
%FORMAT(5E16.8)                                                                 

%FLAG AMBER_ATOM_TYPE                                                           
%FORMAT(20a4)                                                                   
ca  ca  ca  ca  ca  ca  c   c   c3  c3  c3  c3  c3  c3  n   o   o   os  os  p5  
s   ss  cl  ha  ha  ha  ha  hc  hc  hc  hc  hc  hc  h1  h1  h1  h1  h1  h1  h2  
%FLAG TREE_CHAIN_CLASSIFICATION                                                 
%FORMAT(20a4)                                                                   
BLA BLA BLA BLA BLA BLA BLA BLA BLA BLA BLA BLA BLA BLA BLA BLA BLA BLA BLA BLA 
BLA BLA BLA BLA BLA BLA BLA BLA BLA BLA BLA BLA BLA BLA BLA BLA BLA BLA BLA BLA 
%FLAG JOIN_ARRAY                                                                
%FORMAT(10I8)                                                                   
       0       0       0       0       0       0       0       0       0       0
       0       0       0       0       0       0       0       0       0       0
       0       0       0       0       0       0       0       0       0       0
       0       0       0       0       0       0       0       0       0       0
%FLAG IROTAT                                                                    
%FORMAT(10I8)                                                                   
       0       0       0       0       0       0       0       0       0       0
       0       0       0       0       0       0       0       0       0       0
       0       0       0       0       0       0       0       0       0       0
       0       0       0       0       0       0       0       0       0       0
%FLAG RADIUS_SET                                                                
%FORMAT(1a80)                                                                   
modified Bondi radii (mbondi)                                                   
%FLAG RADII                                                                     
%FORMAT(5E16.8)                                                                 
  1.70000000E+00  1.70000000E+00  1.70000000E+00  1.70000000E+00  1.70000000E+00
  1.70000000E+00  1.70000000E+00  1.70000000E+00  1.70000000E+00  1.70000000E+00
  1.70000000E+00  1.70000000E+00  1.70000000E+00  1.70000000E+00  1.55000000E+00
  1.50000000E+00  1.50000000E+00  1.50000000E+00  1.50000000E+00  1.85000000E+00
  1.80000000E+00  1.80000000E+00  1.70000000E+00  1.30000000E+00  1.30000000E+00
  1.30000000E+00  1.30000000E+00  1.30000000E+00  1.30000000E+00  1.30000000E+00
  1.30000000E+00  1.30000000E+00  1.30000000E+00  1.30000000E+00  1.30000000E+00
  1.30000000E+00  1.30000000E+00  1.30000000E+00  1.30000000E+00  1.30000000E+00
%FLAG SCREEN                                                                    
%FORMAT(5E16.8)                                                                 
  7.20000000E-01  7.20000000E-01  7.20000000E-01  7.20000000E-01  7.20000000E-01
  7.20000000E-01  7.20000000E-01  7.20000000E-01  7.20000000E-01  7.20000000E-01
  7.20000000E-01  7.20000000E-01  7.20000000E-01  7.20000000E-01  7.90000000E-01
  8.50000000E-01  8.50000000E-01  8.50000000E-01  8.50000000E-01  8.60000000E-01
  9.60000000E-01  9.60000000E-01  8.00000000E-01  8.50000000E-01  8.50000000E-01
  8.50000000E-01  8.50000000E-01  8.50000000E-01  8.50000000E-01  8.50000000E-01
  8.50000000E-01  8.50000000E-01  8.50000000E-01  8.50000000E-01  8.50000000E-01
  8.50000000E-01  8.50000000E-01  8.50000000E-01  8.50000000E-01  8.50000000E-01
%FLAG IPOL                                                                      
%FORMAT(1I8)                                                                    
       0
