mobley_2518989_GMX.gro created by acpype (v: 2023.10.27) on Wed May 20 23:48:45 2026
 40
    1  MOL   C1    1   0.598  -0.989  -0.414
    1  MOL   C2    2   0.679  -0.976  -0.299
    1  MOL   C3    3   0.538  -0.877  -0.473
    1  MOL   C4    4   0.701  -0.851  -0.241
    1  MOL   C5    5   0.561  -0.754  -0.413
    1  MOL   C6    6   0.640  -0.742  -0.300
    1  MOL   C7    7   0.515  -0.621  -0.449
    1  MOL   C8    8   0.644  -0.600  -0.265
    1  MOL   C9    9  -0.042  -0.213  -0.378
    1  MOL  C10   10   0.226  -0.502   0.134
    1  MOL  C11   11   0.025  -0.314  -0.286
    1  MOL  C12   12   0.248  -0.543  -0.011
    1  MOL  C13   13   0.675  -0.311  -0.371
    1  MOL  C14   14   0.544  -0.391  -0.361
    1  MOL   N1   15   0.565  -0.535  -0.355
    1  MOL   O1   16   0.446  -0.596  -0.546
    1  MOL   O2   17   0.710  -0.555  -0.173
    1  MOL   O3   18   0.165  -0.301  -0.298
    1  MOL   O4   19   0.198  -0.440  -0.094
    1  MOL   P1   20   0.261  -0.420  -0.243
    1  MOL   S1   21   0.249  -0.581  -0.353
    1  MOL   S2   22   0.449  -0.332  -0.217
    1  MOL  CL1   23   0.765  -0.353  -0.520
    1  MOL   H1   24   0.583  -1.087  -0.458
    1  MOL   H2   25   0.724  -1.065  -0.256
    1  MOL   H3   26   0.476  -0.885  -0.561
    1  MOL   H4   27   0.763  -0.840  -0.152
    1  MOL   H5   28  -0.011  -0.111  -0.353
    1  MOL   H6   29  -0.012  -0.230  -0.482
    1  MOL   H7   30  -0.150  -0.219  -0.371
    1  MOL   H8   31   0.279  -0.409   0.156
    1  MOL   H9   32   0.120  -0.484   0.153
    1  MOL  H10   33   0.262  -0.580   0.202
    1  MOL  H11   34  -0.008  -0.415  -0.312
    1  MOL  H12   35  -0.004  -0.294  -0.182
    1  MOL  H13   36   0.194  -0.635  -0.032
    1  MOL  H14   37   0.355  -0.559  -0.029
    1  MOL  H15   38   0.655  -0.204  -0.376
    1  MOL  H16   39   0.742  -0.329  -0.287
    1  MOL  H17   40   0.484  -0.368  -0.449
   18.31000    19.52200    15.26400
