CUP08023_AM1BCC_v1_0
    40
   5.9800000  -9.8870000  -4.1430000   6.7850000  -9.7590000  -2.9920000
   5.3820000  -8.7660000  -4.7280000   7.0060000  -8.5080000  -2.4060000
   5.6130000  -7.5440000  -4.1290000   6.4020000  -7.4180000  -3.0010000
   5.1470000  -6.2080000  -4.4890000   6.4430000  -6.0020000  -2.6470000
  -0.4150000  -2.1290000  -3.7800000   2.2640000  -5.0230000   1.3350000
   0.2450000  -3.1350000  -2.8590000   2.4810000  -5.4270000  -0.1080000
   6.7490000  -3.1120000  -3.7080000   5.4400000  -3.9110000  -3.6060000
   5.6450000  -5.3480000  -3.5470000   4.4580000  -5.9620000  -5.4610000
   7.1040000  -5.5500000  -1.7320000   1.6530000  -3.0080000  -2.9850000
   1.9790000  -4.3970000  -0.9440000   2.6070000  -4.2020000  -2.4300000
   2.4870000  -5.8080000  -3.5310000   4.4930000  -3.3170000  -2.1680000
   7.6500000  -3.5310000  -5.1980000   5.8250000 -10.8720000  -4.5800000
   7.2410000 -10.6460000  -2.5560000   4.7630000  -8.8500000  -5.6150000
   7.6270000  -8.3950000  -1.5230000  -0.1070000  -1.1110000  -3.5260000
  -0.1150000  -2.3040000  -4.8180000  -1.5050000  -2.1940000  -3.7110000
   2.7890000  -4.0880000   1.5560000   1.2010000  -4.8440000   1.5310000
   2.6230000  -5.7990000   2.0170000  -0.0760000  -4.1460000  -3.1230000
  -0.0400000  -2.9350000  -1.8210000   1.9400000  -6.3530000  -0.3240000
   3.5470000  -5.5900000  -0.2920000   6.5500000  -2.0370000  -3.7640000
   7.4240000  -3.2910000  -2.8660000   4.8420000  -3.6830000  -4.4940000
