; mobley_2518989_GMX.itp created by acpype (v: 2023.10.27) on Wed May 20 23:48:45 2026

[ atomtypes ]
;name   bond_type     mass     charge   ptype   sigma         epsilon       Amb
 ca       ca          0.00000  0.00000   A     3.31521e-01   4.13379e-01 ; 1.86  0.0988
 c        c           0.00000  0.00000   A     3.31521e-01   4.13379e-01 ; 1.86  0.0988
 c3       c3          0.00000  0.00000   A     3.39771e-01   4.51035e-01 ; 1.91  0.1078
 n        n           0.00000  0.00000   A     3.18086e-01   6.84502e-01 ; 1.79  0.1636
 o        o           0.00000  0.00000   A     3.04812e-01   6.12119e-01 ; 1.71  0.1463
 os       os          0.00000  0.00000   A     3.15610e-01   3.03758e-01 ; 1.77  0.0726
 p5       p5          0.00000  0.00000   A     3.69402e-01   9.60228e-01 ; 2.07  0.2295
 s        s           0.00000  0.00000   A     3.53241e-01   1.18156e+00 ; 1.98  0.2824
 ss       ss          0.00000  0.00000   A     3.53241e-01   1.18156e+00 ; 1.98  0.2824
 cl       cl          0.00000  0.00000   A     3.46595e-01   1.10374e+00 ; 1.95  0.2638
 ha       ha          0.00000  0.00000   A     2.62548e-01   6.73624e-02 ; 1.47  0.0161
 hc       hc          0.00000  0.00000   A     2.60018e-01   8.70272e-02 ; 1.46  0.0208
 h1       h1          0.00000  0.00000   A     2.42200e-01   8.70272e-02 ; 1.36  0.0208
 h2       h2          0.00000  0.00000   A     2.24382e-01   8.70272e-02 ; 1.26  0.0208

[ moleculetype ]
;name            nrexcl
 mobley_2518989   3

[ atoms ]
;   nr  type  resi  res  atom  cgnr     charge      mass       ; qtot   bond_type
     1   ca     1   MOL    C1    1    -0.113000     12.01000 ; qtot -0.113
     2   ca     1   MOL    C2    2    -0.113000     12.01000 ; qtot -0.226
     3   ca     1   MOL    C3    3    -0.054500     12.01000 ; qtot -0.280
     4   ca     1   MOL    C4    4    -0.054500     12.01000 ; qtot -0.335
     5   ca     1   MOL    C5    5    -0.114100     12.01000 ; qtot -0.449
     6   ca     1   MOL    C6    6    -0.114100     12.01000 ; qtot -0.563
     7    c     1   MOL    C7    7     0.747600     12.01000 ; qtot 0.184
     8    c     1   MOL    C8    8     0.747600     12.01000 ; qtot 0.932
     9   c3     1   MOL    C9    9    -0.112100     12.01000 ; qtot 0.820
    10   c3     1   MOL   C10   10    -0.112100     12.01000 ; qtot 0.708
    11   c3     1   MOL   C11   11     0.151400     12.01000 ; qtot 0.859
    12   c3     1   MOL   C12   12     0.151400     12.01000 ; qtot 1.011
    13   c3     1   MOL   C13   13     0.021000     12.01000 ; qtot 1.032
    14   c3     1   MOL   C14   14     0.439800     12.01000 ; qtot 1.471
    15    n     1   MOL    N1   15    -0.519400     14.01000 ; qtot 0.952
    16    o     1   MOL    O1   16    -0.556000     16.00000 ; qtot 0.396
    17    o     1   MOL    O2   17    -0.556000     16.00000 ; qtot -0.160
    18   os     1   MOL    O3   18    -0.507700     16.00000 ; qtot -0.668
    19   os     1   MOL    O4   19    -0.507700     16.00000 ; qtot -1.175
    20   p5     1   MOL    P1   20     1.025202     30.97000 ; qtot -0.150
    21    s     1   MOL    S1   21    -0.585000     32.06000 ; qtot -0.735
    22   ss     1   MOL    S2   22    -0.664500     32.06000 ; qtot -1.400
    23   cl     1   MOL   CL1   23    -0.174400     35.45000 ; qtot -1.574
    24   ha     1   MOL    H1   24     0.143500      1.00800 ; qtot -1.431
    25   ha     1   MOL    H2   25     0.143500      1.00800 ; qtot -1.287
    26   ha     1   MOL    H3   26     0.159000      1.00800 ; qtot -1.128
    27   ha     1   MOL    H4   27     0.159000      1.00800 ; qtot -0.969
    28   hc     1   MOL    H5   28     0.057533      1.00800 ; qtot -0.912
    29   hc     1   MOL    H6   29     0.057533      1.00800 ; qtot -0.854
    30   hc     1   MOL    H7   30     0.057533      1.00800 ; qtot -0.796
    31   hc     1   MOL    H8   31     0.057533      1.00800 ; qtot -0.739
    32   hc     1   MOL    H9   32     0.057533      1.00800 ; qtot -0.681
    33   hc     1   MOL   H10   33     0.057533      1.00800 ; qtot -0.624
    34   h1     1   MOL   H11   34     0.065700      1.00800 ; qtot -0.558
    35   h1     1   MOL   H12   35     0.065700      1.00800 ; qtot -0.493
    36   h1     1   MOL   H13   36     0.065700      1.00800 ; qtot -0.427
    37   h1     1   MOL   H14   37     0.065700      1.00800 ; qtot -0.361
    38   h1     1   MOL   H15   38     0.115200      1.00800 ; qtot -0.246
    39   h1     1   MOL   H16   39     0.115200      1.00800 ; qtot -0.131
    40   h2     1   MOL   H17   40     0.130700      1.00800 ; qtot -0.000

[ bonds ]
;   ai     aj funct   r             k
     1      2   1    1.3986e-01    2.9644e+05 ;     C1 - C2    
     1      3   1    1.3986e-01    2.9644e+05 ;     C1 - C3    
     1     24   1    1.0860e-01    3.0183e+05 ;     C1 - H1    
     2      4   1    1.3986e-01    2.9644e+05 ;     C2 - C4    
     2     25   1    1.0860e-01    3.0183e+05 ;     C2 - H2    
     3      5   1    1.3986e-01    2.9644e+05 ;     C3 - C5    
     3     26   1    1.0860e-01    3.0183e+05 ;     C3 - H3    
     4      6   1    1.3986e-01    2.9644e+05 ;     C4 - C6    
     4     27   1    1.0860e-01    3.0183e+05 ;     C4 - H4    
     5      6   1    1.3986e-01    2.9644e+05 ;     C5 - C6    
     5      7   1    1.4907e-01    2.1994e+05 ;     C5 - C7    
     6      8   1    1.4907e-01    2.1994e+05 ;     C6 - C8    
     7     15   1    1.3967e-01    2.6565e+05 ;     C7 - N1    
     7     16   1    1.2190e-01    4.9421e+05 ;     C7 - O1    
     8     15   1    1.3967e-01    2.6565e+05 ;     C8 - N1    
     8     17   1    1.2190e-01    4.9421e+05 ;     C8 - O2    
     9     11   1    1.5354e-01    1.9154e+05 ;     C9 - C11   
     9     28   1    1.0962e-01    2.8891e+05 ;     C9 - H5    
     9     29   1    1.0962e-01    2.8891e+05 ;     C9 - H6    
     9     30   1    1.0962e-01    2.8891e+05 ;     C9 - H7    
    10     12   1    1.5354e-01    1.9154e+05 ;    C10 - C12   
    10     31   1    1.0962e-01    2.8891e+05 ;    C10 - H8    
    10     32   1    1.0962e-01    2.8891e+05 ;    C10 - H9    
    10     33   1    1.0962e-01    2.8891e+05 ;    C10 - H10   
    11     18   1    1.4273e-01    2.3620e+05 ;    C11 - O3    
    11     34   1    1.0969e-01    2.8804e+05 ;    C11 - H11   
    11     35   1    1.0969e-01    2.8804e+05 ;    C11 - H12   
    12     19   1    1.4273e-01    2.3620e+05 ;    C12 - O4    
    12     36   1    1.0969e-01    2.8804e+05 ;    C12 - H13   
    12     37   1    1.0969e-01    2.8804e+05 ;    C12 - H14   
    13     14   1    1.5354e-01    1.9154e+05 ;    C13 - C14   
    13     23   1    1.8092e-01    1.3724e+05 ;    C13 - CL1   
    13     38   1    1.0969e-01    2.8804e+05 ;    C13 - H15   
    13     39   1    1.0969e-01    2.8804e+05 ;    C13 - H16   
    14     15   1    1.4643e-01    2.1293e+05 ;    C14 - N1    
    14     22   1    1.8407e-01    1.5459e+05 ;    C14 - S2    
    14     40   1    1.0950e-01    2.9039e+05 ;    C14 - H17   
    18     20   1    1.6182e-01    3.2434e+05 ;     O3 - P1    
    19     20   1    1.6182e-01    3.2434e+05 ;     O4 - P1    
    20     21   1    1.9473e-01    2.2085e+05 ;     P1 - S1    
    20     22   1    2.1159e-01    1.4974e+05 ;     P1 - S2    

[ pairs ]
;   ai     aj    funct
     1      6      1 ;     C1 - C6    
     1      7      1 ;     C1 - C7    
     1     27      1 ;     C1 - H4    
     2      5      1 ;     C2 - C5    
     2      8      1 ;     C2 - C8    
     2     26      1 ;     C2 - H3    
     3      4      1 ;     C3 - C4    
     3      8      1 ;     C3 - C8    
     3     15      1 ;     C3 - N1    
     3     16      1 ;     C3 - O1    
     3     25      1 ;     C3 - H2    
     4      7      1 ;     C4 - C7    
     4     15      1 ;     C4 - N1    
     4     17      1 ;     C4 - O2    
     5     14      1 ;     C5 - C14   
     5     17      1 ;     C5 - O2    
     5     27      1 ;     C5 - H4    
     6     14      1 ;     C6 - C14   
     6     16      1 ;     C6 - O1    
     6     25      1 ;     C6 - H2    
     6     26      1 ;     C6 - H3    
     7     13      1 ;     C7 - C13   
     7     17      1 ;     C7 - O2    
     7     22      1 ;     C7 - S2    
     7     26      1 ;     C7 - H3    
     7     40      1 ;     C7 - H17   
     8     13      1 ;     C8 - C13   
     8     16      1 ;     C8 - O1    
     8     22      1 ;     C8 - S2    
     8     27      1 ;     C8 - H4    
     8     40      1 ;     C8 - H17   
     9     20      1 ;     C9 - P1    
    10     20      1 ;    C10 - P1    
    11     19      1 ;    C11 - O4    
    11     21      1 ;    C11 - S1    
    11     22      1 ;    C11 - S2    
    12     18      1 ;    C12 - O3    
    12     21      1 ;    C12 - S1    
    12     22      1 ;    C12 - S2    
    13     20      1 ;    C13 - P1    
    14     16      1 ;    C14 - O1    
    14     17      1 ;    C14 - O2    
    14     18      1 ;    C14 - O3    
    14     19      1 ;    C14 - O4    
    14     21      1 ;    C14 - S1    
    15     20      1 ;     N1 - P1    
    15     23      1 ;     N1 - CL1   
    15     38      1 ;     N1 - H15   
    15     39      1 ;     N1 - H16   
    18     28      1 ;     O3 - H5    
    18     29      1 ;     O3 - H6    
    18     30      1 ;     O3 - H7    
    19     31      1 ;     O4 - H8    
    19     32      1 ;     O4 - H9    
    19     33      1 ;     O4 - H10   
    20     34      1 ;     P1 - H11   
    20     35      1 ;     P1 - H12   
    20     36      1 ;     P1 - H13   
    20     37      1 ;     P1 - H14   
    20     40      1 ;     P1 - H17   
    22     23      1 ;     S2 - CL1   
    22     38      1 ;     S2 - H15   
    22     39      1 ;     S2 - H16   
    23     40      1 ;    CL1 - H17   
    24      4      1 ;     H1 - C4    
    24      5      1 ;     H1 - C5    
    24     25      1 ;     H1 - H2    
    24     26      1 ;     H1 - H3    
    25     27      1 ;     H2 - H4    
    28     34      1 ;     H5 - H11   
    28     35      1 ;     H5 - H12   
    29     34      1 ;     H6 - H11   
    29     35      1 ;     H6 - H12   
    30     34      1 ;     H7 - H11   
    30     35      1 ;     H7 - H12   
    31     36      1 ;     H8 - H13   
    31     37      1 ;     H8 - H14   
    32     36      1 ;     H9 - H13   
    32     37      1 ;     H9 - H14   
    33     36      1 ;    H10 - H13   
    33     37      1 ;    H10 - H14   
    38     40      1 ;    H15 - H17   
    39     40      1 ;    H16 - H17   

[ angles ]
;   ai     aj     ak    funct   theta         cth
     1      2      4      1    1.2002e+02    5.3279e+02 ;     C1 - C2     - C4    
     1      2     25      1    1.1988e+02    3.7572e+02 ;     C1 - C2     - H2    
     1      3      5      1    1.2002e+02    5.3279e+02 ;     C1 - C3     - C5    
     1      3     26      1    1.1988e+02    3.7572e+02 ;     C1 - C3     - H3    
     2      1      3      1    1.2002e+02    5.3279e+02 ;     C2 - C1     - C3    
     2      1     24      1    1.1988e+02    3.7572e+02 ;     C2 - C1     - H1    
     2      4      6      1    1.2002e+02    5.3279e+02 ;     C2 - C4     - C6    
     2      4     27      1    1.1988e+02    3.7572e+02 ;     C2 - C4     - H4    
     3      1     24      1    1.1988e+02    3.7572e+02 ;     C3 - C1     - H1    
     3      5      6      1    1.2002e+02    5.3279e+02 ;     C3 - C5     - C6    
     3      5      7      1    1.2033e+02    5.1413e+02 ;     C3 - C5     - C7    
     4      2     25      1    1.1988e+02    3.7572e+02 ;     C4 - C2     - H2    
     4      6      5      1    1.2002e+02    5.3279e+02 ;     C4 - C6     - C5    
     4      6      8      1    1.2033e+02    5.1413e+02 ;     C4 - C6     - C8    
     5      3     26      1    1.1988e+02    3.7572e+02 ;     C5 - C3     - H3    
     5      6      8      1    1.2033e+02    5.1413e+02 ;     C5 - C6     - C8    
     5      7     15      1    1.1588e+02    5.5647e+02 ;     C5 - C7     - N1    
     5      7     16      1    1.2260e+02    6.5237e+02 ;     C5 - C7     - O1    
     6      4     27      1    1.1988e+02    3.7572e+02 ;     C6 - C4     - H4    
     6      5      7      1    1.2033e+02    5.1413e+02 ;     C6 - C5     - C7    
     6      8     15      1    1.1588e+02    5.5647e+02 ;     C6 - C8     - N1    
     6      8     17      1    1.2260e+02    6.5237e+02 ;     C6 - C8     - O2    
     7     15      8      1    1.2521e+02    6.4559e+02 ;     C7 - N1     - C8    
     7     15     14      1    1.1883e+02    6.4634e+02 ;     C7 - N1     - C14   
     8     15     14      1    1.1883e+02    6.4634e+02 ;     C8 - N1     - C14   
     9     11     18      1    1.0762e+02    6.4802e+02 ;     C9 - C11    - O3    
     9     11     34      1    1.0959e+02    3.6217e+02 ;     C9 - C11    - H11   
     9     11     35      1    1.0959e+02    3.6217e+02 ;     C9 - C11    - H12   
    10     12     19      1    1.0762e+02    6.4802e+02 ;    C10 - C12    - O4    
    10     12     36      1    1.0959e+02    3.6217e+02 ;    C10 - C12    - H13   
    10     12     37      1    1.0959e+02    3.6217e+02 ;    C10 - C12    - H14   
    11      9     28      1    1.0968e+02    3.6208e+02 ;    C11 - C9     - H5    
    11      9     29      1    1.0968e+02    3.6208e+02 ;    C11 - C9     - H6    
    11      9     30      1    1.0968e+02    3.6208e+02 ;    C11 - C9     - H7    
    11     18     20      1    1.1970e+02    4.7396e+02 ;    C11 - O3     - P1    
    12     10     31      1    1.0968e+02    3.6208e+02 ;    C12 - C10    - H8    
    12     10     32      1    1.0968e+02    3.6208e+02 ;    C12 - C10    - H9    
    12     10     33      1    1.0968e+02    3.6208e+02 ;    C12 - C10    - H10   
    12     19     20      1    1.1970e+02    4.7396e+02 ;    C12 - O4     - P1    
    13     14     15      1    1.1278e+02    5.4350e+02 ;    C13 - C14    - N1    
    13     14     22      1    1.1018e+02    5.2651e+02 ;    C13 - C14    - S2    
    13     14     40      1    1.1042e+02    3.6091e+02 ;    C13 - C14    - H17   
    14     13     23      1    1.1039e+02    5.3254e+02 ;    C14 - C13    - CL1   
    14     13     38      1    1.0959e+02    3.6217e+02 ;    C14 - C13    - H15   
    14     13     39      1    1.0959e+02    3.6217e+02 ;    C14 - C13    - H16   
    14     22     20      1    9.9760e+01    5.0543e+02 ;    C14 - S2     - P1    
    15      7     16      1    1.2257e+02    7.2534e+02 ;     N1 - C7     - O1    
    15      8     17      1    1.2257e+02    7.2534e+02 ;     N1 - C8     - O2    
    15     14     22      1    1.1514e+02    5.5312e+02 ;     N1 - C14    - S2    
    15     14     40      1    1.0758e+02    4.0468e+02 ;     N1 - C14    - H17   
    18     11     34      1    1.1034e+02    4.7028e+02 ;     O3 - C11    - H11   
    18     11     35      1    1.1034e+02    4.7028e+02 ;     O3 - C11    - H12   
    18     20     19      1    1.0172e+02    8.6123e+02 ;     O3 - P1     - O4    
    18     20     21      1    1.1704e+02    6.8040e+02 ;     O3 - P1     - S1    
    18     20     22      1    1.0238e+02    6.8199e+02 ;     O3 - P1     - S2    
    19     12     36      1    1.1034e+02    4.7028e+02 ;     O4 - C12    - H13   
    19     12     37      1    1.1034e+02    4.7028e+02 ;     O4 - C12    - H14   
    19     20     21      1    1.1704e+02    6.8040e+02 ;     O4 - P1     - S1    
    19     20     22      1    1.0238e+02    6.8199e+02 ;     O4 - P1     - S2    
    21     20     22      1    1.1546e+02    5.7873e+02 ;     S1 - P1     - S2    
    22     14     40      1    1.0882e+02    3.5171e+02 ;     S2 - C14    - H17   
    23     13     38      1    1.0682e+02    3.6183e+02 ;    CL1 - C13    - H15   
    23     13     39      1    1.0682e+02    3.6183e+02 ;    CL1 - C13    - H16   
    28      9     29      1    1.0773e+02    2.9957e+02 ;     H5 - C9     - H6    
    28      9     30      1    1.0773e+02    2.9957e+02 ;     H5 - C9     - H7    
    29      9     30      1    1.0773e+02    2.9957e+02 ;     H6 - C9     - H7    
    31     10     32      1    1.0773e+02    2.9957e+02 ;     H8 - C10    - H9    
    31     10     33      1    1.0773e+02    2.9957e+02 ;     H8 - C10    - H10   
    32     10     33      1    1.0773e+02    2.9957e+02 ;     H9 - C10    - H10   
    34     11     35      1    1.0855e+02    2.9824e+02 ;    H11 - C11    - H12   
    36     12     37      1    1.0855e+02    2.9824e+02 ;    H13 - C12    - H14   
    38     13     39      1    1.0855e+02    2.9824e+02 ;    H15 - C13    - H16   

[ dihedrals ] ; propers
; for gromacs 4.5 or higher, using funct 9
;    i      j      k      l   func   phase     kd      pn
     1      2      4      6      9   180.00  15.16700   2 ;     C1-    C2-    C4-    C6
     1      2      4     27      9   180.00  15.16700   2 ;     C1-    C2-    C4-    H4
     1      3      5      6      9   180.00  15.16700   2 ;     C1-    C3-    C5-    C6
     1      3      5      7      9   180.00  15.16700   2 ;     C1-    C3-    C5-    C7
     2      1      3      5      9   180.00  15.16700   2 ;     C2-    C1-    C3-    C5
     2      1      3     26      9   180.00  15.16700   2 ;     C2-    C1-    C3-    H3
     2      4      6      5      9   180.00  15.16700   2 ;     C2-    C4-    C6-    C5
     2      4      6      8      9   180.00  15.16700   2 ;     C2-    C4-    C6-    C8
     3      1      2      4      9   180.00  15.16700   2 ;     C3-    C1-    C2-    C4
     3      1      2     25      9   180.00  15.16700   2 ;     C3-    C1-    C2-    H2
     3      5      6      4      9   180.00  15.16700   2 ;     C3-    C5-    C6-    C4
     3      5      6      8      9   180.00  15.16700   2 ;     C3-    C5-    C6-    C8
     3      5      7     15      9   180.00   8.88054   2 ;     C3-    C5-    C7-    N1
     3      5      7     16      9   180.00   2.42672   2 ;     C3-    C5-    C7-    O1
     4      6      5      7      9   180.00  15.16700   2 ;     C4-    C6-    C5-    C7
     4      6      8     15      9   180.00   8.88054   2 ;     C4-    C6-    C8-    N1
     4      6      8     17      9   180.00   2.42672   2 ;     C4-    C6-    C8-    O2
     5      6      4     27      9   180.00  15.16700   2 ;     C5-    C6-    C4-    H4
     5      6      8     15      9   180.00   8.88054   2 ;     C5-    C6-    C8-    N1
     5      6      8     17      9   180.00   2.42672   2 ;     C5-    C6-    C8-    O2
     5      7     15      8      9   180.00  10.46000   2 ;     C5-    C7-    N1-    C8
     5      7     15     14      9     0.00   1.71544   3 ;     C5-    C7-    N1-   C14
     5      7     15     14      9     0.00  20.16688   1 ;     C5-    C7-    N1-   C14
     5      7     15     14      9   180.00   9.12112   2 ;     C5-    C7-    N1-   C14
     6      4      2     25      9   180.00  15.16700   2 ;     C6-    C4-    C2-    H2
     6      5      3     26      9   180.00  15.16700   2 ;     C6-    C5-    C3-    H3
     6      5      7     15      9   180.00   8.88054   2 ;     C6-    C5-    C7-    N1
     6      5      7     16      9   180.00   2.42672   2 ;     C6-    C5-    C7-    O1
     6      8     15      7      9   180.00  10.46000   2 ;     C6-    C8-    N1-    C7
     6      8     15     14      9     0.00   1.71544   3 ;     C6-    C8-    N1-   C14
     6      8     15     14      9     0.00  20.16688   1 ;     C6-    C8-    N1-   C14
     6      8     15     14      9   180.00   9.12112   2 ;     C6-    C8-    N1-   C14
     7      5      3     26      9   180.00  15.16700   2 ;     C7-    C5-    C3-    H3
     7      5      6      8      9   180.00  15.16700   2 ;     C7-    C5-    C6-    C8
     7     15      8     17      9   180.00  10.46000   2 ;     C7-    N1-    C8-    O2
     7     15     14     13      9     0.00   9.45584   1 ;     C7-    N1-   C14-   C13
     7     15     14     13      9   180.00   0.12552   3 ;     C7-    N1-   C14-   C13
     7     15     14     13      9   180.00   2.71960   4 ;     C7-    N1-   C14-   C13
     7     15     14     22      9     0.00   0.00000   0 ;     C7-    N1-   C14-    S2
     7     15     14     40      9     0.00   0.00000   0 ;     C7-    N1-   C14-   H17
     8      6      4     27      9   180.00  15.16700   2 ;     C8-    C6-    C4-    H4
     8     15      7     16      9   180.00  10.46000   2 ;     C8-    N1-    C7-    O1
     8     15     14     13      9     0.00   0.00000   0 ;     C8-    N1-   C14-   C13
     8     15     14     13      9     0.00   9.45584   1 ;     C8-    N1-   C14-   C13
     8     15     14     13      9   180.00   0.12552   3 ;     C8-    N1-   C14-   C13
     8     15     14     13      9   180.00   2.71960   4 ;     C8-    N1-   C14-   C13
     8     15     14     22      9     0.00   0.00000   0 ;     C8-    N1-   C14-    S2
     8     15     14     40      9     0.00   0.00000   0 ;     C8-    N1-   C14-   H17
     9     11     18     20      9     0.00   1.60247   3 ;     C9-   C11-    O3-    P1
     9     11     18     20      9   180.00  16.52680   1 ;     C9-   C11-    O3-    P1
    10     12     19     20      9     0.00   1.60247   3 ;    C10-   C12-    O4-    P1
    10     12     19     20      9   180.00  16.52680   1 ;    C10-   C12-    O4-    P1
    11     18     20     19      9     0.00  14.72768   2 ;    C11-    O3-    P1-    O4
    11     18     20     21      9     0.00   3.34720   2 ;    C11-    O3-    P1-    S1
    11     18     20     22      9     0.00   3.34720   2 ;    C11-    O3-    P1-    S2
    12     19     20     18      9     0.00  14.72768   2 ;    C12-    O4-    P1-    O3
    12     19     20     21      9     0.00   3.34720   2 ;    C12-    O4-    P1-    S1
    12     19     20     22      9     0.00   3.34720   2 ;    C12-    O4-    P1-    S2
    13     14     22     20      9     0.00   1.39467   3 ;    C13-   C14-    S2-    P1
    14     15      7     16      9   180.00  10.46000   2 ;    C14-    N1-    C7-    O1
    14     15      8     17      9   180.00  10.46000   2 ;    C14-    N1-    C8-    O2
    14     22     20     18      9   180.00  16.43057   2 ;    C14-    S2-    P1-    O3
    14     22     20     19      9   180.00  16.43057   2 ;    C14-    S2-    P1-    O4
    14     22     20     21      9   180.00  15.89920   2 ;    C14-    S2-    P1-    S1
    15     14     13     23      9     0.00   0.65084   3 ;     N1-   C14-   C13-   CL1
    15     14     13     38      9     0.00   0.65084   3 ;     N1-   C14-   C13-   H15
    15     14     13     39      9     0.00   0.65084   3 ;     N1-   C14-   C13-   H16
    15     14     22     20      9     0.00   1.39467   3 ;     N1-   C14-    S2-    P1
    18     11      9     28      9     0.00   0.00000   0 ;     O3-   C11-    C9-    H5
    18     11      9     28      9     0.00   1.04600   1 ;     O3-   C11-    C9-    H5
    18     11      9     29      9     0.00   0.00000   0 ;     O3-   C11-    C9-    H6
    18     11      9     29      9     0.00   1.04600   1 ;     O3-   C11-    C9-    H6
    18     11      9     30      9     0.00   0.00000   0 ;     O3-   C11-    C9-    H7
    18     11      9     30      9     0.00   1.04600   1 ;     O3-   C11-    C9-    H7
    19     12     10     31      9     0.00   0.00000   0 ;     O4-   C12-   C10-    H8
    19     12     10     31      9     0.00   1.04600   1 ;     O4-   C12-   C10-    H8
    19     12     10     32      9     0.00   0.00000   0 ;     O4-   C12-   C10-    H9
    19     12     10     32      9     0.00   1.04600   1 ;     O4-   C12-   C10-    H9
    19     12     10     33      9     0.00   0.00000   0 ;     O4-   C12-   C10-   H10
    19     12     10     33      9     0.00   1.04600   1 ;     O4-   C12-   C10-   H10
    20     18     11     34      9     0.00   0.00000   0 ;     P1-    O3-   C11-   H11
    20     18     11     35      9     0.00   0.00000   0 ;     P1-    O3-   C11-   H12
    20     19     12     36      9     0.00   0.00000   0 ;     P1-    O4-   C12-   H13
    20     19     12     37      9     0.00   0.00000   0 ;     P1-    O4-   C12-   H14
    20     22     14     40      9     0.00   1.39467   3 ;     P1-    S2-   C14-   H17
    22     14     13     23      9     0.00   0.65084   3 ;     S2-   C14-   C13-   CL1
    22     14     13     38      9     0.00   0.65084   3 ;     S2-   C14-   C13-   H15
    22     14     13     39      9     0.00   0.65084   3 ;     S2-   C14-   C13-   H16
    23     13     14     40      9     0.00   0.65084   3 ;    CL1-   C13-   C14-   H17
    24      1      2      4      9   180.00  15.16700   2 ;     H1-    C1-    C2-    C4
    24      1      2     25      9   180.00  15.16700   2 ;     H1-    C1-    C2-    H2
    24      1      3      5      9   180.00  15.16700   2 ;     H1-    C1-    C3-    C5
    24      1      3     26      9   180.00  15.16700   2 ;     H1-    C1-    C3-    H3
    25      2      4     27      9   180.00  15.16700   2 ;     H2-    C2-    C4-    H4
    28      9     11     34      9     0.00   0.65084   3 ;     H5-    C9-   C11-   H11
    28      9     11     35      9     0.00   0.65084   3 ;     H5-    C9-   C11-   H12
    29      9     11     34      9     0.00   0.65084   3 ;     H6-    C9-   C11-   H11
    29      9     11     35      9     0.00   0.65084   3 ;     H6-    C9-   C11-   H12
    30      9     11     34      9     0.00   0.65084   3 ;     H7-    C9-   C11-   H11
    30      9     11     35      9     0.00   0.65084   3 ;     H7-    C9-   C11-   H12
    31     10     12     36      9     0.00   0.65084   3 ;     H8-   C10-   C12-   H13
    31     10     12     37      9     0.00   0.65084   3 ;     H8-   C10-   C12-   H14
    32     10     12     36      9     0.00   0.65084   3 ;     H9-   C10-   C12-   H13
    32     10     12     37      9     0.00   0.65084   3 ;     H9-   C10-   C12-   H14
    33     10     12     36      9     0.00   0.65084   3 ;    H10-   C10-   C12-   H13
    33     10     12     37      9     0.00   0.65084   3 ;    H10-   C10-   C12-   H14
    38     13     14     40      9     0.00   0.65084   3 ;    H15-   C13-   C14-   H17
    39     13     14     40      9     0.00   0.65084   3 ;    H16-   C13-   C14-   H17

[ dihedrals ] ; impropers
; treated as propers in GROMACS to use correct AMBER analytical function
;    i      j      k      l   func   phase     kd      pn
     1      4      2     25      4   180.00   4.60240   2 ;     C1-    C4-    C2-    H2
     1      5      3     26      4   180.00   4.60240   2 ;     C1-    C5-    C3-    H3
     2      6      4     27      4   180.00   4.60240   2 ;     C2-    C6-    C4-    H4
     5     15      7     16      4   180.00  43.93200   2 ;     C5-    N1-    C7-    O1
     6     15      8     17      4   180.00  43.93200   2 ;     C6-    N1-    C8-    O2
     7      3      5      6      4   180.00   4.60240   2 ;     C7-    C3-    C5-    C6
     7      8     15     14      4   180.00   4.60240   2 ;     C7-    C8-    N1-   C14
     8      4      6      5      4   180.00   4.60240   2 ;     C8-    C4-    C6-    C5
    24      1      3      2      4   180.00   4.60240   2 ;     H1-    C1-    C3-    C2
