mobley_646007_GMX.gro created by acpype (v: 2023.10.27) on Wed May 20 23:44:44 2026
 14
    1  MOL   C1    1   0.077  -0.077  -0.015
    1  MOL   C2    2   0.102  -0.157   0.112
    1  MOL   C3    3   0.034  -0.179  -0.118
    1  MOL   C4    4   0.074  -0.301   0.075
    1  MOL   N1    5   0.093  -0.304  -0.070
    1  MOL   H1    6   0.000  -0.000  -0.000
    1  MOL   H2    7   0.169  -0.026  -0.046
    1  MOL   H3    8   0.207  -0.144   0.143
    1  MOL   H4    9   0.039  -0.123   0.195
    1  MOL   H5   10  -0.075  -0.187  -0.121
    1  MOL   H6   11   0.069  -0.154  -0.219
    1  MOL   H7   12   0.141  -0.371   0.126
    1  MOL   H8   13  -0.030  -0.327   0.100
    1  MOL   H9   14   0.046  -0.384  -0.111
    5.64200     7.68600     8.26600
