%VERSION  VERSION_STAMP = V0001.000  DATE = 05/20/26  23:44:44                  
%FLAG TITLE                                                                     
%FORMAT(20a4)                                                                   
pyrrolidine                                                                     
%FLAG POINTERS                                                                  
%FORMAT(10I8)                                                                   
      14       5       9       5      22       5      34       5       0       0
      76       1       5       5       5       5       9      10       5       0
       0       0       0       0       0       0       0       0      14       0
       0
%FLAG ATOM_NAME                                                                 
%FORMAT(20a4)                                                                   
C1  C2  C3  C4  N1  H1  H2  H3  H4  H5  H6  H7  H8  H9  
%FLAG CHARGE                                                                    
%FORMAT(5E16.8)                                                                 
 -1.88418582E+00 -1.88418582E+00  2.60214444E+00  2.60214444E+00 -1.44721507E+01
  8.41870260E-01  8.41870260E-01  8.41870260E-01  8.41870260E-01  8.41870260E-01
  8.41870260E-01  8.41870260E-01  8.41870260E-01  6.30127134E+00
%FLAG ATOMIC_NUMBER                                                             
%FORMAT(10I8)                                                                   
       6       6       6       6       7       1       1       1       1       1
       1       1       1       1
%FLAG MASS                                                                      
%FORMAT(5E16.8)                                                                 
  1.20100000E+01  1.20100000E+01  1.20100000E+01  1.20100000E+01  1.40100000E+01
  1.00800000E+00  1.00800000E+00  1.00800000E+00  1.00800000E+00  1.00800000E+00
  1.00800000E+00  1.00800000E+00  1.00800000E+00  1.00800000E+00
%FLAG ATOM_TYPE_INDEX                                                           
%FORMAT(10I8)                                                                   
       1       1       1       1       2       3       3       3       3       4
       4       4       4       5
%FLAG NUMBER_EXCLUDED_ATOMS                                                     
%FORMAT(10I8)                                                                   
      13      12      11      10       9       5       4       3       2       2
       1       2       1       1
%FLAG NONBONDED_PARM_INDEX                                                      
%FORMAT(10I8)                                                                   
       1       2       4       7      11       2       3       5       8      12
       4       5       6       9      13       7       8       9      10      14
      11      12      13      14      15
%FLAG RESIDUE_LABEL                                                             
%FORMAT(20a4)                                                                   
MOL 
%FLAG RESIDUE_POINTER                                                           
%FORMAT(10I8)                                                                   
       1
%FLAG BOND_FORCE_CONSTANT                                                       
%FORMAT(5E16.8)                                                                 
  2.20100000E+02  3.46430000E+02  2.49400000E+02  3.43780000E+02  4.60050000E+02
%FLAG BOND_EQUIL_VALUE                                                          
%FORMAT(5E16.8)                                                                 
  1.54830000E+00  1.09540000E+00  1.47060000E+00  1.09720000E+00  1.01950000E+00
%FLAG ANGLE_FORCE_CONSTANT                                                      
%FORMAT(5E16.8)                                                                 
  6.18400000E+01  4.26500000E+01  6.64600000E+01  4.26500000E+01  7.95900000E+01
  5.59400000E+01  4.76000000E+01  3.59100000E+01  3.57000000E+01
%FLAG ANGLE_EQUIL_VALUE                                                         
%FORMAT(5E16.8)                                                                 
  1.81217614E+00  1.94028336E+00  1.85511126E+00  1.94028336E+00  1.85231873E+00
  1.91515061E+00  1.92283006E+00  1.87134283E+00  1.88722533E+00
%FLAG DIHEDRAL_FORCE_CONSTANT                                                   
%FORMAT(5E16.8)                                                                 
  2.10000000E-01  1.55555556E-01  1.40000000E-01  2.17000000E-01  5.20000000E-01
  1.30000000E-01  2.15000000E-01  1.00000000E-01  1.20000000E-01  3.00000000E-01
%FLAG DIHEDRAL_PERIODICITY                                                      
%FORMAT(5E16.8)                                                                 
  3.00000000E+00  3.00000000E+00  3.00000000E+00  3.00000000E+00  3.00000000E+00
  3.00000000E+00  3.00000000E+00  3.00000000E+00  3.00000000E+00  3.00000000E+00
%FLAG DIHEDRAL_PHASE                                                            
%FORMAT(5E16.8)                                                                 
  0.00000000E+00  0.00000000E+00  0.00000000E+00  0.00000000E+00  0.00000000E+00
  0.00000000E+00  0.00000000E+00  0.00000000E+00  0.00000000E+00  0.00000000E+00
%FLAG SCEE_SCALE_FACTOR                                                         
%FORMAT(5E16.8)                                                                 
  1.20000000E+00  1.20000000E+00  1.20000000E+00  1.20000000E+00  1.20000000E+00
  1.20000000E+00  1.20000000E+00  1.20000000E+00  1.20000000E+00  1.20000000E+00
%FLAG SCNB_SCALE_FACTOR                                                         
%FORMAT(5E16.8)                                                                 
  2.00000000E+00  2.00000000E+00  2.00000000E+00  2.00000000E+00  2.00000000E+00
  2.00000000E+00  2.00000000E+00  2.00000000E+00  2.00000000E+00  2.00000000E+00
%FLAG SOLTY                                                                     
%FORMAT(5E16.8)                                                                 
  0.00000000E+00  0.00000000E+00  0.00000000E+00  0.00000000E+00  0.00000000E+00
%FLAG LENNARD_JONES_ACOEF                                                       
%FORMAT(5E16.8)                                                                 
  1.02073671E+06  8.61147463E+05  7.24302894E+05  1.00235148E+05  8.67370500E+04
  7.94617769E+03  6.97998263E+04  6.08009173E+04  5.22955465E+03  3.39005767E+03
  2.23577481E+03  2.07791361E+03  9.47421632E+01  5.24570081E+01  1.34728399E-01
%FLAG LENNARD_JONES_BCOEF                                                       
%FORMAT(5E16.8)                                                                 
  6.63431737E+02  5.08324538E+02  3.88888730E+02  1.37787728E+02  1.06921681E+02
  2.57122925E+01  1.14981426E+02  8.95196800E+01  2.08590256E+01  1.67944276E+01
  1.71355763E+01  1.37803855E+01  2.33785449E+00  1.73959275E+00  7.34107347E-02
%FLAG BONDS_INC_HYDROGEN                                                        
%FORMAT(10I8)                                                                   
       0      15       2       0      18       2       3      21       2       3
      24       2       6      27       4       6      30       4       9      33
       4       9      36       4      12      39       5
%FLAG BONDS_WITHOUT_HYDROGEN                                                    
%FORMAT(10I8)                                                                   
       0       3       1       0       6       1       3       9       1       6
      12       3       9      12       3
%FLAG ANGLES_INC_HYDROGEN                                                       
%FORMAT(10I8)                                                                   
       0       3      21       2       0       3      24       2       0       6
      27       4       0       6      30       4       3       0      15       2
       3       0      18       2       3       9      33       4       3       9
      36       4       6       0      15       2       6       0      18       2
       6      12      39       6       9       3      21       2       9       3
      24       2       9      12      39       6      12       6      27       7
      12       6      30       7      12       9      33       7      12       9
      36       7      15       0      18       8      21       3      24       8
      27       6      30       9      33       9      36       9
%FLAG ANGLES_WITHOUT_HYDROGEN                                                   
%FORMAT(10I8)                                                                   
       0       3       9       1       0       6      12       3       3       0
       6       1       3       9      12       3       6      12       9       5
%FLAG DIHEDRALS_INC_HYDROGEN                                                    
%FORMAT(10I8)                                                                   
       0       3       9      33       2       0       3       9      36       2
       0       6      12      39       4       3       0       6      27       2
       3       0       6      30       2       3       9      12      39       4
       6       0       3      21       6       6       0       3      24       6
       6      12       9      33       7       6      12       9      36       7
      15       0       3       9       6      18       0       3       9       6
       9      12       6      27       7       9      12       6      30       7
      15       0       6      12       8      18       0       6      12       8
      12       9       3      21       8      12       9       3      24       8
      15       0       3      21       9      15       0       3      24       9
      15       0       6      27       2      15       0       6      30       2
      18       0       3      21       9      18       0       3      24       9
      18       0       6      27       2      18       0       6      30       2
      21       3       9      33       2      21       3       9      36       2
      24       3       9      33       2      24       3       9      36       2
      27       6      12      39      10      30       6      12      39      10
      33       9      12      39      10      36       9      12      39      10
%FLAG DIHEDRALS_WITHOUT_HYDROGEN                                                
%FORMAT(10I8)                                                                   
       0       3      -9      12       1       0       6     -12       9       3
       3       0      -6      12       1       3       9     -12       6       3
       6       0      -3       9       5
%FLAG EXCLUDED_ATOMS_LIST                                                       
%FORMAT(10I8)                                                                   
       2       3       4       5       6       7       8       9      10      11
      12      13      14       3       4       5       6       7       8       9
      10      11      12      13      14       4       5       6       7       8
       9      10      11      12      13      14       5       6       7       8
       9      10      11      12      13      14       6       7       8       9
      10      11      12      13      14       7       8       9      10      11
       8       9      10      11       9      12      13      12      13      11
      14      14      13      14      14       0
%FLAG HBOND_ACOEF                                                               
%FORMAT(5E16.8)                                                                 

%FLAG HBOND_BCOEF                                                               
%FORMAT(5E16.8)                                                                 

%FLAG HBCUT                                                                     
%FORMAT(5E16.8)                                                                 

%FLAG AMBER_ATOM_TYPE                                                           
%FORMAT(20a4)                                                                   
c5  c5  c5  c5  n7  hc  hc  hc  hc  h1  h1  h1  h1  hn  
%FLAG TREE_CHAIN_CLASSIFICATION                                                 
%FORMAT(20a4)                                                                   
BLA BLA BLA BLA BLA BLA BLA BLA BLA BLA BLA BLA BLA BLA 
%FLAG JOIN_ARRAY                                                                
%FORMAT(10I8)                                                                   
       0       0       0       0       0       0       0       0       0       0
       0       0       0       0
%FLAG IROTAT                                                                    
%FORMAT(10I8)                                                                   
       0       0       0       0       0       0       0       0       0       0
       0       0       0       0
%FLAG RADIUS_SET                                                                
%FORMAT(1a80)                                                                   
modified Bondi radii (mbondi)                                                   
%FLAG RADII                                                                     
%FORMAT(5E16.8)                                                                 
  1.70000000E+00  1.70000000E+00  1.70000000E+00  1.70000000E+00  1.55000000E+00
  1.30000000E+00  1.30000000E+00  1.30000000E+00  1.30000000E+00  1.30000000E+00
  1.30000000E+00  1.30000000E+00  1.30000000E+00  1.30000000E+00
%FLAG SCREEN                                                                    
%FORMAT(5E16.8)                                                                 
  7.20000000E-01  7.20000000E-01  7.20000000E-01  7.20000000E-01  7.90000000E-01
  8.50000000E-01  8.50000000E-01  8.50000000E-01  8.50000000E-01  8.50000000E-01
  8.50000000E-01  8.50000000E-01  8.50000000E-01  8.50000000E-01
%FLAG IPOL                                                                      
%FORMAT(1I8)                                                                    
       0
