; mobley_646007_GMX_OPLS.itp created by acpype (v: 2023.10.27) on Wed May 20 23:44:44 2026

; For OPLS atomtypes manual fine tuning
; AC_at:OPLS_at:OPLScode: Possible_Alternatives (see ffoplsaa.atp and ffoplsaanb.itp)
; c5:x:opls_x: []
; n7:x:opls_x: []
; hc:HC:opls_140: []
; h1:HC:opls_140: []
; hn:H:opls_240: ['241', '290', '301', '304', '310', '504', '513']

[ moleculetype ]
;name            nrexcl
 mobley_646007    3

[ atoms ]
;   nr  type  resi  res  atom  cgnr     charge      mass       ; qtot   bond_type
     1 opls_x     1   MOL    C1    1    -0.103400      0.00000 ; qtot -0.103  x   
     2 opls_x     1   MOL    C2    2    -0.103400      0.00000 ; qtot -0.207  x   
     3 opls_x     1   MOL    C3    3     0.142800      0.00000 ; qtot -0.064  x   
     4 opls_x     1   MOL    C4    4     0.142800      0.00000 ; qtot  0.079  x   
     5 opls_x     1   MOL    N1    5    -0.794200      0.00000 ; qtot -0.715  x   
     6 opls_140     1   MOL    H1    6     0.046200      1.00800 ; qtot -0.669  HC  
     7 opls_140     1   MOL    H2    7     0.046200      1.00800 ; qtot -0.623  HC  
     8 opls_140     1   MOL    H3    8     0.046200      1.00800 ; qtot -0.577  HC  
     9 opls_140     1   MOL    H4    9     0.046200      1.00800 ; qtot -0.531  HC  
    10 opls_140     1   MOL    H5   10     0.046200      1.00800 ; qtot -0.484  HC  
    11 opls_140     1   MOL    H6   11     0.046200      1.00800 ; qtot -0.438  HC  
    12 opls_140     1   MOL    H7   12     0.046200      1.00800 ; qtot -0.392  HC  
    13 opls_140     1   MOL    H8   13     0.046200      1.00800 ; qtot -0.346  HC  
    14 opls_240     1   MOL    H9   14     0.345800      1.00800 ; qtot -0.000  H   

[ bonds ]
;   ai     aj funct   r             k
     1      2   1 ;    1.5483e-01    1.8418e+05 ;     C1 - C2          x - x     
     1      3   1 ;    1.5483e-01    1.8418e+05 ;     C1 - C3          x - x     
     1      6   1 ;    1.0954e-01    2.8989e+05 ;     C1 - H1          x - HC    
     1      7   1 ;    1.0954e-01    2.8989e+05 ;     C1 - H2          x - HC    
     2      4   1 ;    1.5483e-01    1.8418e+05 ;     C2 - C4          x - x     
     2      8   1 ;    1.0954e-01    2.8989e+05 ;     C2 - H3          x - HC    
     2      9   1 ;    1.0954e-01    2.8989e+05 ;     C2 - H4          x - HC    
     3      5   1 ;    1.4706e-01    2.0870e+05 ;     C3 - N1          x - x     
     3     10   1 ;    1.0972e-01    2.8768e+05 ;     C3 - H5          x - HC    
     3     11   1 ;    1.0972e-01    2.8768e+05 ;     C3 - H6          x - HC    
     4      5   1 ;    1.4706e-01    2.0870e+05 ;     C4 - N1          x - x     
     4     12   1 ;    1.0972e-01    2.8768e+05 ;     C4 - H7          x - HC    
     4     13   1 ;    1.0972e-01    2.8768e+05 ;     C4 - H8          x - HC    
     5     14   1 ;    1.0195e-01    3.8497e+05 ;     N1 - H9          x - H     

[ pairs ]
;   ai     aj    funct
     1     12      1 ;     C1 - H7    
     1     13      1 ;     C1 - H8    
     1     14      1 ;     C1 - H9    
     2     10      1 ;     C2 - H5    
     2     11      1 ;     C2 - H6    
     2     14      1 ;     C2 - H9    
     3      8      1 ;     C3 - H3    
     3      9      1 ;     C3 - H4    
     3     12      1 ;     C3 - H7    
     3     13      1 ;     C3 - H8    
     4     10      1 ;     C4 - H5    
     4     11      1 ;     C4 - H6    
     5      8      1 ;     N1 - H3    
     5      9      1 ;     N1 - H4    
     6      4      1 ;     H1 - C4    
     6      5      1 ;     H1 - N1    
     6      8      1 ;     H1 - H3    
     6      9      1 ;     H1 - H4    
     6     10      1 ;     H1 - H5    
     6     11      1 ;     H1 - H6    
     7      4      1 ;     H2 - C4    
     7      5      1 ;     H2 - N1    
     7      8      1 ;     H2 - H3    
     7      9      1 ;     H2 - H4    
     7     10      1 ;     H2 - H5    
     7     11      1 ;     H2 - H6    
     8     12      1 ;     H3 - H7    
     8     13      1 ;     H3 - H8    
     9     12      1 ;     H4 - H7    
     9     13      1 ;     H4 - H8    
    10     14      1 ;     H5 - H9    
    11     14      1 ;     H6 - H9    
    12     14      1 ;     H7 - H9    
    13     14      1 ;     H8 - H9    

[ angles ]
;   ai     aj     ak    funct   theta         cth
     1      2      4      1 ;    1.0383e+02    5.1748e+02 ;     C1 - C2   - C4        x -    x - x   
     1      2      8      1 ;    1.1117e+02    3.5690e+02 ;     C1 - C2   - H3        x -    x - HC  
     1      2      9      1 ;    1.1117e+02    3.5690e+02 ;     C1 - C2   - H4        x -    x - HC  
     1      3      5      1 ;    1.0629e+02    5.5614e+02 ;     C1 - C3   - N1        x -    x - x   
     1      3     10      1 ;    1.1117e+02    3.5690e+02 ;     C1 - C3   - H5        x -    x - HC  
     1      3     11      1 ;    1.1117e+02    3.5690e+02 ;     C1 - C3   - H6        x -    x - HC  
     2      1      3      1 ;    1.0383e+02    5.1748e+02 ;     C2 - C1   - C3        x -    x - x   
     2      1      6      1 ;    1.1117e+02    3.5690e+02 ;     C2 - C1   - H1        x -    x - HC  
     2      1      7      1 ;    1.1117e+02    3.5690e+02 ;     C2 - C1   - H2        x -    x - HC  
     2      4      5      1 ;    1.0629e+02    5.5614e+02 ;     C2 - C4   - N1        x -    x - x   
     2      4     12      1 ;    1.1117e+02    3.5690e+02 ;     C2 - C4   - H7        x -    x - HC  
     2      4     13      1 ;    1.1117e+02    3.5690e+02 ;     C2 - C4   - H8        x -    x - HC  
     3      1      6      1 ;    1.1117e+02    3.5690e+02 ;     C3 - C1   - H1        x -    x - HC  
     3      1      7      1 ;    1.1117e+02    3.5690e+02 ;     C3 - C1   - H2        x -    x - HC  
     3      5      4      1 ;    1.0613e+02    6.6601e+02 ;     C3 - N1   - C4        x -    x - x   
     3      5     14      1 ;    1.0973e+02    4.6811e+02 ;     C3 - N1   - H9        x -    x - H   
     4      2      8      1 ;    1.1117e+02    3.5690e+02 ;     C4 - C2   - H3        x -    x - HC  
     4      2      9      1 ;    1.1117e+02    3.5690e+02 ;     C4 - C2   - H4        x -    x - HC  
     4      5     14      1 ;    1.0973e+02    4.6811e+02 ;     C4 - N1   - H9        x -    x - H   
     5      3     10      1 ;    1.1017e+02    3.9832e+02 ;     N1 - C3   - H5        x -    x - HC  
     5      3     11      1 ;    1.1017e+02    3.9832e+02 ;     N1 - C3   - H6        x -    x - HC  
     5      4     12      1 ;    1.1017e+02    3.9832e+02 ;     N1 - C4   - H7        x -    x - HC  
     5      4     13      1 ;    1.1017e+02    3.9832e+02 ;     N1 - C4   - H8        x -    x - HC  
     6      1      7      1 ;    1.0722e+02    3.0049e+02 ;     H1 - C1   - H2       HC -    x - HC  
     8      2      9      1 ;    1.0722e+02    3.0049e+02 ;     H3 - C2   - H4       HC -    x - HC  
    10      3     11      1 ;    1.0813e+02    2.9874e+02 ;     H5 - C3   - H6       HC -    x - HC  
    12      4     13      1 ;    1.0813e+02    2.9874e+02 ;     H7 - C4   - H8       HC -    x - HC  

[ dihedrals ] ; propers
; for gromacs 4.5 or higher, using funct 9
;    i      j      k      l   func   phase     kd      pn
     1      2      4      5      9 ;     0.00   0.87864   3 ;     C1-    C2-    C4-    N1
     1      2      4     12      9 ;     0.00   0.65084   3 ;     C1-    C2-    C4-    H7
     1      2      4     13      9 ;     0.00   0.65084   3 ;     C1-    C2-    C4-    H8
     1      3      5      4      9 ;     0.00   0.58576   3 ;     C1-    C3-    N1-    C4
     1      3      5     14      9 ;     0.00   0.90793   3 ;     C1-    C3-    N1-    H9
     2      1      3      5      9 ;     0.00   0.87864   3 ;     C2-    C1-    C3-    N1
     2      1      3     10      9 ;     0.00   0.65084   3 ;     C2-    C1-    C3-    H5
     2      1      3     11      9 ;     0.00   0.65084   3 ;     C2-    C1-    C3-    H6
     2      4      5      3      9 ;     0.00   0.58576   3 ;     C2-    C4-    N1-    C3
     2      4      5     14      9 ;     0.00   0.90793   3 ;     C2-    C4-    N1-    H9
     3      1      2      4      9 ;     0.00   2.17568   3 ;     C3-    C1-    C2-    C4
     3      1      2      8      9 ;     0.00   0.54392   3 ;     C3-    C1-    C2-    H3
     3      1      2      9      9 ;     0.00   0.54392   3 ;     C3-    C1-    C2-    H4
     3      5      4     12      9 ;     0.00   0.89956   3 ;     C3-    N1-    C4-    H7
     3      5      4     13      9 ;     0.00   0.89956   3 ;     C3-    N1-    C4-    H8
     4      5      3     10      9 ;     0.00   0.89956   3 ;     C4-    N1-    C3-    H5
     4      5      3     11      9 ;     0.00   0.89956   3 ;     C4-    N1-    C3-    H6
     5      4      2      8      9 ;     0.00   0.41840   3 ;     N1-    C4-    C2-    H3
     5      4      2      9      9 ;     0.00   0.41840   3 ;     N1-    C4-    C2-    H4
     6      1      2      4      9 ;     0.00   0.54392   3 ;     H1-    C1-    C2-    C4
     6      1      2      8      9 ;     0.00   0.50208   3 ;     H1-    C1-    C2-    H3
     6      1      2      9      9 ;     0.00   0.50208   3 ;     H1-    C1-    C2-    H4
     6      1      3      5      9 ;     0.00   0.41840   3 ;     H1-    C1-    C3-    N1
     6      1      3     10      9 ;     0.00   0.65084   3 ;     H1-    C1-    C3-    H5
     6      1      3     11      9 ;     0.00   0.65084   3 ;     H1-    C1-    C3-    H6
     7      1      2      4      9 ;     0.00   0.54392   3 ;     H2-    C1-    C2-    C4
     7      1      2      8      9 ;     0.00   0.50208   3 ;     H2-    C1-    C2-    H3
     7      1      2      9      9 ;     0.00   0.50208   3 ;     H2-    C1-    C2-    H4
     7      1      3      5      9 ;     0.00   0.41840   3 ;     H2-    C1-    C3-    N1
     7      1      3     10      9 ;     0.00   0.65084   3 ;     H2-    C1-    C3-    H5
     7      1      3     11      9 ;     0.00   0.65084   3 ;     H2-    C1-    C3-    H6
     8      2      4     12      9 ;     0.00   0.65084   3 ;     H3-    C2-    C4-    H7
     8      2      4     13      9 ;     0.00   0.65084   3 ;     H3-    C2-    C4-    H8
     9      2      4     12      9 ;     0.00   0.65084   3 ;     H4-    C2-    C4-    H7
     9      2      4     13      9 ;     0.00   0.65084   3 ;     H4-    C2-    C4-    H8
    10      3      5     14      9 ;     0.00   1.25520   3 ;     H5-    C3-    N1-    H9
    11      3      5     14      9 ;     0.00   1.25520   3 ;     H6-    C3-    N1-    H9
    12      4      5     14      9 ;     0.00   1.25520   3 ;     H7-    C4-    N1-    H9
    13      4      5     14      9 ;     0.00   1.25520   3 ;     H8-    C4-    N1-    H9
