pyrrolidine
    14
   0.7680000  -0.7660000  -0.1490000   1.0230000  -1.5660000   1.1230000
   0.3390000  -1.7920000  -1.1830000   0.7370000  -3.0100000   0.7470000
   0.9270000  -3.0380000  -0.7010000   0.0000000  -0.0000000  -0.0000000
   1.6900000  -0.2610000  -0.4610000   2.0670000  -1.4440000   1.4340000
   0.3850000  -1.2320000   1.9470000  -0.7540000  -1.8740000  -1.2130000
   0.6940000  -1.5380000  -2.1860000   1.4060000  -3.7080000   1.2570000
  -0.2970000  -3.2740000   1.0000000   0.4580000  -3.8430000  -1.1120000
