mobley_2390199_GMX.gro created by acpype (v: 2023.10.27) on Wed May 20 23:42:57 2026
   22
    1MOL     C1    1   2.431   2.476   2.498
    1MOL     C2    2   2.267   2.255   2.225
    1MOL     C3    3   2.714   2.671   2.677
    1MOL     C4    4   2.418   2.394   2.371
    1MOL     C5    5   2.569   2.537   2.523
    1MOL     C6    6   2.279   2.334   2.354
    1MOL     C7    7   2.575   2.615   2.653
    1MOL     O1    8   2.337   2.493   2.575
    1MOL     H1    9   2.339   2.172   2.223
    1MOL     H2   10   2.167   2.212   2.215
    1MOL     H3   11   2.286   2.318   2.138
    1MOL     H4   12   2.744   2.739   2.597
    1MOL     H5   13   2.717   2.728   2.771
    1MOL     H6   14   2.788   2.591   2.684
    1MOL     H7   15   2.441   2.459   2.286
    1MOL     H8   16   2.493   2.314   2.375
    1MOL     H9   17   2.592   2.602   2.438
    1MOL    H10   18   2.641   2.455   2.525
    1MOL    H11   19   2.256   2.268   2.439
    1MOL    H12   20   2.203   2.414   2.354
    1MOL    H13   21   2.503   2.698   2.651
    1MOL    H14   22   2.547   2.551   2.737
   4.93696   4.93696   4.93696
