mobley_2390199_GMX.gro created by acpype (v: 2023.10.27) on Wed May 20 23:42:57 2026
11845
    1MOL     C1    1   2.431   2.476   2.498
    1MOL     C2    2   2.267   2.255   2.225
    1MOL     C3    3   2.714   2.671   2.677
    1MOL     C4    4   2.418   2.394   2.371
    1MOL     C5    5   2.569   2.537   2.523
    1MOL     C6    6   2.279   2.334   2.354
    1MOL     C7    7   2.575   2.615   2.653
    1MOL     O1    8   2.337   2.493   2.575
    1MOL     H1    9   2.339   2.172   2.223
    1MOL     H2   10   2.167   2.212   2.215
    1MOL     H3   11   2.286   2.318   2.138
    1MOL     H4   12   2.744   2.739   2.597
    1MOL     H5   13   2.717   2.728   2.771
    1MOL     H6   14   2.788   2.591   2.684
    1MOL     H7   15   2.441   2.459   2.286
    1MOL     H8   16   2.493   2.314   2.375
    1MOL     H9   17   2.592   2.602   2.438
    1MOL    H10   18   2.641   2.455   2.525
    1MOL    H11   19   2.256   2.268   2.439
    1MOL    H12   20   2.203   2.414   2.354
    1MOL    H13   21   2.503   2.698   2.651
    1MOL    H14   22   2.547   2.551   2.737
    2SOL     OW   23   0.230   0.628   0.113
    2SOL    HW1   24   0.137   0.626   0.150
    2SOL    HW2   25   0.231   0.589   0.021
    3SOL     OW   26   0.225   0.275   0.996
    3SOL    HW1   27   0.260   0.258   1.088
    3SOL    HW2   28   0.137   0.230   0.984
    4SOL     OW   29   0.019   0.368   0.647
    4SOL    HW1   30  -0.063   0.411   0.686
    4SOL    HW2   31  -0.009   0.295   0.584
    5SOL     OW   32   0.569   1.275   1.165
    5SOL    HW1   33   0.476   1.268   1.128
    5SOL    HW2   34   0.580   1.364   1.209
    6SOL     OW   35   1.555   1.511   0.703
    6SOL    HW1   36   1.498   1.495   0.784
    6SOL    HW2   37   1.496   1.521   0.623
    7SOL     OW   38   1.135   0.703   0.717
    7SOL    HW1   39   1.192   0.781   0.692
    7SOL    HW2   40   1.075   0.729   0.793
    8SOL     OW   41   1.755   0.607   0.231
    8SOL    HW1   42   1.743   0.594   0.132
    8SOL    HW2   43   1.725   0.526   0.280
    9SOL     OW   44   0.768   1.144   1.023
    9SOL    HW1   45   0.690   1.161   1.083
    9SOL    HW2   46   0.802   1.231   0.987
   10SOL     OW   47   0.850   0.798   1.823
   10SOL    HW1   48   0.846   0.874   1.888
   10SOL    HW2   49   0.872   0.834   1.732
   11SOL     OW   50   0.685   1.012   0.665
   11SOL    HW1   51   0.754   0.996   0.735
   11SOL    HW2   52   0.612   1.069   0.703
   12SOL     OW   53   0.686   1.161   1.803
   12SOL    HW1   54   0.746   1.240   1.817
   12SOL    HW2   55   0.600   1.192   1.762
   13SOL     OW   56   0.335   1.435   1.061
   13SOL    HW1   57   0.257   1.404   1.008
   13SOL    HW2   58   0.393   1.493   1.004
   14SOL     OW   59   1.460   1.505   1.339
   14SOL    HW1   60   1.484   1.599   1.365
   14SOL    HW2   61   1.444   1.451   1.421
   15SOL     OW   62   0.438   0.392   1.499
   15SOL    HW1   63   0.520   0.336   1.508
   15SOL    HW2   64   0.357   0.334   1.503
   16SOL     OW   65   1.603   0.447   0.737
   16SOL    HW1   66   1.529   0.493   0.687
   16SOL    HW2   67   1.654   0.515   0.790
   17SOL     OW   68   0.231   1.713   0.483
   17SOL    HW1   69   0.265   1.790   0.537
   17SOL    HW2   70   0.275   1.713   0.393
   18SOL     OW   71   1.127   1.341   1.690
   18SOL    HW1   72   1.174   1.341   1.778
   18SOL    HW2   73   1.079   1.254   1.679
   19SOL     OW   74   0.230   1.434   0.538
   19SOL    HW1   75   0.204   1.530   0.538
   19SOL    HW2   76   0.159   1.380   0.583
   20SOL     OW   77   0.240   1.091   0.886
   20SOL    HW1   78   0.254   1.007   0.938
   20SOL    HW2   79   0.185   1.155   0.941
   21SOL     OW   80   0.620   1.786   1.439
   21SOL    HW1   81   0.528   1.769   1.474
   21SOL    HW2   82   0.648   1.878   1.465
   22SOL     OW   83   0.606   0.964   0.123
   22SOL    HW1   84   0.613   1.048   0.069
   22SOL    HW2   85   0.652   0.977   0.211
   23SOL     OW   86   1.594   0.114   1.480
   23SOL    HW1   87   1.576   0.181   1.408
   23SOL    HW2   88   1.591   0.160   1.569
   24SOL     OW   89   0.122   0.643   0.563
   24SOL    HW1   90   0.077   0.555   0.580
   24SOL    HW2   91   0.121   0.697   0.647
   25SOL     OW   92   1.842   1.767   0.359
   25SOL    HW1   93   1.896   1.738   0.439
   25SOL    HW2   94   1.872   1.857   0.330
   26SOL     OW   95   0.027   1.596   0.117
   26SOL    HW1   96   0.008   1.500   0.138
   26SOL    HW2   97  -0.006   1.654   0.192
   27SOL     OW   98   1.689   0.922   0.612
   27SOL    HW1   99   1.784   0.893   0.620
   27SOL    HW2  100   1.681   0.987   0.537
   28SOL     OW  101   1.641   1.108   0.432
   28SOL    HW1  102   1.727   1.110   0.380
   28SOL    HW2  103   1.655   1.155   0.520
   29SOL     OW  104   0.113   0.737   1.597
   29SOL    HW1  105   0.201   0.724   1.642
   29SOL    HW2  106   0.100   0.834   1.575
   30SOL     OW  107   0.613   1.365   0.726
   30SOL    HW1  108   0.564   1.278   0.735
   30SOL    HW2  109   0.590   1.408   0.639
   31SOL     OW  110   1.293   1.228   1.423
   31SOL    HW1  111   1.330   1.155   1.365
   31SOL    HW2  112   1.345   1.233   1.508
   32SOL     OW  113   0.809   0.004   0.502
   32SOL    HW1  114   0.849   0.095   0.493
   32SOL    HW2  115   0.709   0.012   0.508
   33SOL     OW  116   0.197   0.976   1.264
   33SOL    HW1  117   0.286   0.931   1.250
   33SOL    HW2  118   0.124   0.911   1.245
   34SOL     OW  119   1.525   0.999   0.190
   34SOL    HW1  120   1.462   0.923   0.203
   34SOL    HW2  121   1.573   1.017   0.276
   35SOL     OW  122   1.187   1.792   1.616
   35SOL    HW1  123   1.211   1.852   1.540
   35SOL    HW2  124   1.194   1.697   1.586
   36SOL     OW  125   0.317   0.251   1.801
   36SOL    HW1  126   0.388   0.322   1.807
   36SOL    HW2  127   0.229   0.290   1.829
   37SOL     OW  128   1.466   1.417   0.953
   37SOL    HW1  129   1.407   1.423   1.033
   37SOL    HW2  130   1.451   1.329   0.907
   38SOL     OW  131   1.667   1.714   0.572
   38SOL    HW1  132   1.626   1.691   0.484
   38SOL    HW2  133   1.649   1.640   0.637
   39SOL     OW  134   0.598   0.729   0.270
   39SOL    HW1  135   0.622   0.798   0.202
   39SOL    HW2  136   0.520   0.762   0.324
   40SOL     OW  137   1.281   0.345   0.944
   40SOL    HW1  138   1.195   0.295   0.931
   40SOL    HW2  139   1.343   0.291   1.000
   41SOL     OW  140   1.576   1.662   0.307
   41SOL    HW1  141   1.665   1.708   0.310
   41SOL    HW2  142   1.555   1.638   0.212
   42SOL     OW  143   0.807   0.605   1.465
   42SOL    HW1  144   0.760   0.602   1.554
   42SOL    HW2  145   0.756   0.550   1.399
   43SOL     OW  146   1.394   0.469   1.674
   43SOL    HW1  147   1.374   0.512   1.762
   43SOL    HW2  148   1.472   0.407   1.683
   44SOL     OW  149   0.973   0.890   1.572
   44SOL    HW1  150   1.019   0.806   1.543
   44SOL    HW2  151   0.917   0.924   1.497
   45SOL     OW  152   0.991   0.410   1.242
   45SOL    HW1  153   0.914   0.444   1.296
   45SOL    HW2  154   0.957   0.359   1.163
   46SOL     OW  155   1.041   0.701   0.429
   46SOL    HW1  156   1.067   0.697   0.525
   46SOL    HW2  157   0.956   0.650   0.415
   47SOL     OW  158   0.076   0.811   0.789
   47SOL    HW1  159   0.175   0.799   0.798
   47SOL    HW2  160   0.052   0.906   0.810
   48SOL     OW  161   0.130   1.821   1.571
   48SOL    HW1  162   0.120   1.806   1.670
   48SOL    HW2  163   0.044   1.857   1.535
   49SOL     OW  164   0.865   0.348   0.195
   49SOL    HW1  165   0.924   0.411   0.146
   49SOL    HW2  166   0.884   0.254   0.166
   50SOL     OW  167   1.719   0.585   1.831
   50SOL    HW1  168   1.693   0.674   1.795
   50SOL    HW2  169   1.717   0.517   1.758
   51SOL     OW  170   1.362   1.144   0.545
   51SOL    HW1  171   1.445   1.115   0.497
   51SOL    HW2  172   1.313   1.211   0.489
   52SOL     OW  173   0.550   0.196   0.885
   52SOL    HW1  174   0.545   0.191   0.985
   52SOL    HW2  175   0.552   0.292   0.856
   53SOL     OW  176   1.008   1.456   0.477
   53SOL    HW1  177   0.962   1.528   0.425
   53SOL    HW2  178   1.004   1.476   0.575
   54SOL     OW  179   0.351   1.801   0.853
   54SOL    HW1  180   0.401   1.715   0.859
   54SOL    HW2  181   0.416   1.878   0.850
   55SOL     OW  182   1.795   1.066   0.873
   55SOL    HW1  183   1.733   1.051   0.797
   55SOL    HW2  184   1.743   1.077   0.958
   56SOL     OW  185   1.227   1.550   1.506
   56SOL    HW1  186   1.233   1.473   1.570
   56SOL    HW2  187   1.175   1.524   1.426
   57SOL     OW  188   0.321   0.943   0.242
   57SOL    HW1  189   0.403   0.982   0.200
   57SOL    HW2  190   0.294   0.861   0.193
   58SOL     OW  191   1.458   0.735   0.728
   58SOL    HW1  192   1.453   0.670   0.803
   58SOL    HW2  193   1.538   0.794   0.741
   59SOL     OW  194   0.461   1.266   1.727
   59SOL    HW1  195   0.411   1.267   1.641
   59SOL    HW2  196   0.398   1.248   1.803
   60SOL     OW  197   1.111   1.776   0.237
   60SOL    HW1  198   1.051   1.714   0.287
   60SOL    HW2  199   1.142   1.732   0.152
   61SOL     OW  200   0.202   0.285   1.498
   61SOL    HW1  201   0.122   0.345   1.485
   61SOL    HW2  202   0.192   0.236   1.584
   62SOL     OW  203   1.632   1.377   0.081
   62SOL    HW1  204   1.600   1.471   0.071
   62SOL    HW2  205   1.556   1.314   0.069
   63SOL     OW  206   0.464   1.743   0.323
   63SOL    HW1  207   0.497   1.782   0.409
   63SOL    HW2  208   0.540   1.736   0.258
   64SOL     OW  209   1.400   0.107   0.426
   64SOL    HW1  210   1.376   0.070   0.336
   64SOL    HW2  211   1.499   0.123   0.430
   65SOL     OW  212   0.249   1.785   1.241
   65SOL    HW1  213   0.306   1.720   1.291
   65SOL    HW2  214   0.233   1.752   1.148
   66SOL     OW  215   0.940   1.698   0.904
   66SOL    HW1  216   1.020   1.641   0.925
   66SOL    HW2  217   0.891   1.658   0.827
   67SOL     OW  218   0.382   0.700   0.480
   67SOL    HW1  219   0.427   0.610   0.477
   67SOL    HW2  220   0.288   0.689   0.513
   68SOL     OW  221   1.547   0.222   1.729
   68SOL    HW1  222   1.542   0.259   1.821
   68SOL    HW2  223   1.475   0.153   1.717
   69SOL     OW  224   0.614   0.122   0.117
   69SOL    HW1  225   0.712   0.100   0.124
   69SOL    HW2  226   0.583   0.105   0.024
   70SOL     OW  227   0.781   0.264   1.749
   70SOL    HW1  228   0.848   0.203   1.792
   70SOL    HW2  229   0.708   0.283   1.814
   71SOL     OW  230   0.888   1.514   1.195
   71SOL    HW1  231   0.865   1.489   1.101
   71SOL    HW2  232   0.949   1.445   1.234
   72SOL     OW  233   1.351   0.590   1.433
   72SOL    HW1  234   1.379   0.547   1.518
   72SOL    HW2  235   1.376   0.686   1.434
   73SOL     OW  236   0.803   1.402   0.924
   73SOL    HW1  237   0.893   1.416   0.882
   73SOL    HW2  238   0.732   1.404   0.853
   74SOL     OW  239   0.922   0.503   0.899
   74SOL    HW1  240   0.897   0.494   0.803
   74SOL    HW2  241   0.970   0.421   0.930
   75SOL     OW  242   0.539   0.064   0.512
   75SOL    HW1  243   0.458   0.065   0.570
   75SOL    HW2  244   0.542   0.147   0.457
   76SOL     OW  245   1.434   1.188   0.041
   76SOL    HW1  246   1.466   1.112   0.098
   76SOL    HW2  247   1.342   1.215   0.071
   77SOL     OW  248   0.297   0.035   0.171
   77SOL    HW1  249   0.346   0.119   0.150
   77SOL    HW2  250   0.359  -0.030   0.216
   78SOL     OW  251   0.935   0.236   0.480
   78SOL    HW1  252   0.887   0.277   0.402
   78SOL    HW2  253   1.034   0.234   0.461
   79SOL     OW  254   1.076   0.683   1.464
   79SOL    HW1  255   0.996   0.622   1.467
   79SOL    HW2  256   1.157   0.630   1.440
   80SOL     OW  257   1.227   1.570   0.793
   80SOL    HW1  258   1.248   1.644   0.728
   80SOL    HW2  259   1.295   1.570   0.866
   81SOL     OW  260   0.459   1.152   0.741
   81SOL    HW1  261   0.388   1.125   0.806
   81SOL    HW2  262   0.433   1.124   0.648
   82SOL     OW  263   1.271   1.797   0.591
   82SOL    HW1  264   1.315   1.861   0.527
   82SOL    HW2  265   1.221   1.849   0.661
   83SOL     OW  266   1.032   0.549   0.016
   83SOL    HW1  267   0.991   0.631  -0.023
   83SOL    HW2  268   1.096   0.575   0.089
   84SOL     OW  269   0.078   0.556   1.386
   84SOL    HW1  270   0.170   0.555   1.345
   84SOL    HW2  271   0.072   0.630   1.453
   85SOL     OW  272   0.561   0.222   1.147
   85SOL    HW1  273   0.599   0.138   1.184
   85SOL    HW2  274   0.473   0.241   1.191
   86SOL     OW  275   0.866   0.454   0.642
   86SOL    HW1  276   0.834   0.526   0.580
   86SOL    HW2  277   0.890   0.373   0.589
   87SOL     OW  278   1.017   0.039   0.753
   87SOL    HW1  279   0.945   0.044   0.684
   87SOL    HW2  280   0.993  -0.030   0.822
   88SOL     OW  281   1.429   1.173   0.867
   88SOL    HW1  282   1.374   1.089   0.860
   88SOL    HW2  283   1.455   1.202   0.775
   89SOL     OW  284   1.466   0.590   0.992
   89SOL    HW1  285   1.436   0.495   0.999
   89SOL    HW2  286   1.539   0.606   1.058
   90SOL     OW  287   1.857   0.833   0.377
   90SOL    HW1  288   1.899   0.769   0.441
   90SOL    HW2  289   1.819   0.782   0.299
   91SOL     OW  290   0.488   1.385   0.174
   91SOL    HW1  291   0.401   1.370   0.221
   91SOL    HW2  292   0.471   1.411   0.079
   92SOL     OW  293   1.664   1.280   0.657
   92SOL    HW1  294   1.763   1.288   0.671
   92SOL    HW2  295   1.619   1.364   0.688
   93SOL     OW  296   1.390   0.575   0.078
   93SOL    HW1  297   1.336   0.554   0.159
   93SOL    HW2  298   1.481   0.534   0.087
   94SOL     OW  299   0.527   0.256   0.328
   94SOL    HW1  300   0.554   0.197   0.253
   94SOL    HW2  301   0.527   0.351   0.297
   95SOL     OW  302   1.754   1.223   1.588
   95SOL    HW1  303   1.845   1.184   1.575
   95SOL    HW2  304   1.762   1.319   1.612
   96SOL     OW  305   1.064   1.347   1.340
   96SOL    HW1  306   0.984   1.324   1.395
   96SOL    HW2  307   1.147   1.321   1.389
   97SOL     OW  308   1.592   1.629   1.625
   97SOL    HW1  309   1.619   1.663   1.535
   97SOL    HW2  310   1.671   1.591   1.671
   98SOL     OW  311   1.111   1.195   1.100
   98SOL    HW1  312   1.071   1.239   1.181
   98SOL    HW2  313   1.070   1.232   1.017
   99SOL     OW  314   1.638   1.099   1.079
   99SOL    HW1  315   1.643   1.180   1.138
   99SOL    HW2  316   1.552   1.101   1.028
  100SOL     OW  317   0.915   0.089   1.402
  100SOL    HW1  318   0.940   0.069   1.307
  100SOL    HW2  319   0.987   0.145   1.444
  101SOL     OW  320   0.980   1.116   1.719
  101SOL    HW1  321   0.881   1.122   1.729
  101SOL    HW2  322   1.003   1.036   1.663
  102SOL     OW  323   0.705   1.050   0.368
  102SOL    HW1  324   0.691   1.057   0.467
  102SOL    HW2  325   0.789   0.999   0.350
  103SOL     OW  326   0.410   0.813   1.251
  103SOL    HW1  327   0.496   0.825   1.301
  103SOL    HW2  328   0.368   0.726   1.278
  104SOL     OW  329   1.274   0.386   1.262
  104SOL    HW1  330   1.295   0.460   1.326
  104SOL    HW2  331   1.185   0.403   1.219
  105SOL     OW  332   0.064   1.564   1.331
  105SOL    HW1  333   0.018   1.646   1.297
  105SOL    HW2  334   0.162   1.583   1.340
  106SOL     OW  335   0.367   1.100   0.501
  106SOL    HW1  336   0.360   1.183   0.445
  106SOL    HW2  337   0.371   1.020   0.441
  107SOL     OW  338   0.566   0.537   0.865
  107SOL    HW1  339   0.578   0.603   0.791
  107SOL    HW2  340   0.612   0.571   0.948
  108SOL     OW  341   1.252   1.348   0.388
  108SOL    HW1  342   1.302   1.425   0.428
  108SOL    HW2  343   1.157   1.350   0.420
  109SOL     OW  344   1.272   1.445   1.142
  109SOL    HW1  345   1.319   1.458   1.229
  109SOL    HW2  346   1.206   1.371   1.151
  110SOL     OW  347   1.582   0.639   0.472
  110SOL    HW1  348   1.551   0.700   0.545
  110SOL    HW2  349   1.632   0.691   0.403
  111SOL     OW  350   0.354   1.510   1.329
  111SOL    HW1  351   0.333   1.466   1.242
  111SOL    HW2  352   0.451   1.536   1.332
  112SOL     OW  353   0.402   0.751   1.598
  112SOL    HW1  354   0.470   0.806   1.551
  112SOL    HW2  355   0.442   0.663   1.625
  113SOL     OW  356   1.587   0.779   1.670
  113SOL    HW1  357   1.495   0.817   1.665
  113SOL    HW2  358   1.647   0.826   1.605
  114SOL     OW  359   1.013   0.105   1.770
  114SOL    HW1  360   1.019   0.190   1.718
  114SOL    HW2  361   1.045   0.029   1.713
  115SOL     OW  362   0.504   0.050   1.740
  115SOL    HW1  363   0.462  -0.007   1.670
  115SOL    HW2  364   0.438   0.119   1.772
  116SOL     OW  365   0.573   0.870   1.029
  116SOL    HW1  366   0.617   0.959   1.020
  116SOL    HW2  367   0.510   0.870   1.106
  117SOL     OW  368   1.360   0.862   1.045
  117SOL    HW1  369   1.285   0.862   0.979
  117SOL    HW2  370   1.397   0.770   1.054
  118SOL     OW  371   1.209   0.525   0.275
  118SOL    HW1  372   1.222   0.441   0.329
  118SOL    HW2  373   1.180   0.599   0.335
  119SOL     OW  374   0.307   0.213   1.231
  119SOL    HW1  375   0.284   0.250   1.321
  119SOL    HW2  376   0.277   0.118   1.225
  120SOL     OW  377   0.037   1.310   1.282
  120SOL    HW1  378   0.090   1.261   1.350
  120SOL    HW2  379   0.059   1.408   1.287
  121SOL     OW  380   0.732   0.634   1.064
  121SOL    HW1  381   0.791   0.608   0.988
  121SOL    HW2  382   0.704   0.730   1.053
  122SOL     OW  383   1.728   0.935   1.854
  122SOL    HW1  384   1.682   0.928   1.765
  122SOL    HW2  385   1.666   0.979   1.920
  123SOL     OW  386   0.307   0.063   0.618
  123SOL    HW1  387   0.296   0.157   0.651
  123SOL    HW2  388   0.302   0.000   0.695
  124SOL     OW  389   1.622   0.367   0.374
  124SOL    HW1  390   1.624   0.291   0.438
  124SOL    HW2  391   1.574   0.444   0.414
  125SOL     OW  392   1.023   0.766   0.966
  125SOL    HW1  393   1.038   0.787   1.062
  125SOL    HW2  394   0.993   0.671   0.957
  126SOL     OW  395   0.980   1.573   1.700
  126SOL    HW1  396   0.960   1.617   1.612
  126SOL    HW2  397   1.019   1.482   1.684
  127SOL     OW  398   1.859   1.518   1.605
  127SOL    HW1  399   1.873   1.545   1.510
  127SOL    HW2  400   1.942   1.540   1.658
  128SOL     OW  401   0.350   0.898   1.804
  128SOL    HW1  402   0.426   0.942   1.852
  128SOL    HW2  403   0.385   0.851   1.722
  129SOL     OW  404   1.540   0.274   0.125
  129SOL    HW1  405   1.479   0.199   0.148
  129SOL    HW2  406   1.562   0.326   0.208
  130SOL     OW  407   1.303   0.838   0.042
  130SOL    HW1  408   1.337   0.745   0.057
  130SOL    HW2  409   1.321   0.865  -0.053
  131SOL     OW  410   1.068   1.333   0.849
  131SOL    HW1  411   1.075   1.249   0.794
  131SOL    HW2  412   1.130   1.402   0.813
  132SOL     OW  413   0.319   0.810   0.949
  132SOL    HW1  414   0.412   0.846   0.954
  132SOL    HW2  415   0.313   0.725   1.001
  133SOL     OW  416   0.339   0.509   1.006
  133SOL    HW1  417   0.287   0.426   0.989
  133SOL    HW2  418   0.416   0.514   0.942
  134SOL     OW  419   1.138   0.380   1.678
  134SOL    HW1  420   1.093   0.443   1.742
  134SOL    HW2  421   1.231   0.411   1.661
  135SOL     OW  422   1.160   0.207   1.477
  135SOL    HW1  423   1.160   0.271   1.554
  135SOL    HW2  424   1.188   0.255   1.394
  136SOL     OW  425   0.008   1.326   0.200
  136SOL    HW1  426  -0.085   1.347   0.169
  136SOL    HW2  427   0.018   1.227   0.213
  137SOL     OW  428   0.088   1.801   0.927
  137SOL    HW1  429   0.046   1.715   0.900
  137SOL    HW2  430   0.182   1.804   0.893
  138SOL     OW  431   0.504   1.568   0.910
  138SOL    HW1  432   0.570   1.642   0.919
  138SOL    HW2  433   0.548   1.489   0.868
  139SOL     OW  434   1.002   0.796   1.238
  139SOL    HW1  435   1.043   0.764   1.324
  139SOL    HW2  436   0.906   0.769   1.235
  140SOL     OW  437   0.040   0.544   1.114
  140SOL    HW1  438   0.125   0.511   1.073
  140SOL    HW2  439   0.053   0.559   1.212
  141SOL     OW  440   0.189   0.520   1.722
  141SOL    HW1  441   0.248   0.480   1.652
  141SOL    HW2  442   0.131   0.591   1.681
  142SOL     OW  443   1.369   0.950   1.660
  142SOL    HW1  444   1.408   1.039   1.680
  142SOL    HW2  445   1.379   0.930   1.563
  143SOL     OW  446   0.815   0.572   0.325
  143SOL    HW1  447   0.822   0.483   0.279
  143SOL    HW2  448   0.721   0.606   0.317
  144SOL     OW  449   1.657   0.604   1.206
  144SOL    HW1  450   1.619   0.535   1.268
  144SOL    HW2  451   1.739   0.568   1.162
  145SOL     OW  452   0.252   1.564   1.744
  145SOL    HW1  453   0.222   1.621   1.820
  145SOL    HW2  454   0.245   1.467   1.770
  146SOL     OW  455   0.671   0.464   1.269
  146SOL    HW1  456   0.637   0.375   1.239
  146SOL    HW2  457   0.697   0.518   1.189
  147SOL     OW  458   0.930   1.678   1.465
  147SOL    HW1  459   0.906   1.660   1.370
  147SOL    HW2  460   0.960   1.772   1.475
  148SOL     OW  461   0.473   0.500   0.191
  148SOL    HW1  462   0.534   0.580   0.195
  148SOL    HW2  463   0.378   0.531   0.198
  149SOL     OW  464   0.159   1.137   1.466
  149SOL    HW1  465   0.181   1.076   1.542
  149SOL    HW2  466   0.169   1.088   1.380
  150SOL     OW  467   1.347   1.059   1.234
  150SOL    HW1  468   1.371   0.996   1.160
  150SOL    HW2  469   1.257   1.099   1.216
  151SOL     OW  470   1.302   0.855   0.309
  151SOL    HW1  471   1.216   0.824   0.351
  151SOL    HW2  472   1.298   0.841   0.210
  152SOL     OW  473   1.759   1.747   1.154
  152SOL    HW1  474   1.820   1.777   1.081
  152SOL    HW2  475   1.721   1.658   1.132
  153SOL     OW  476   1.252   1.731   1.128
  153SOL    HW1  477   1.336   1.736   1.074
  153SOL    HW2  478   1.229   1.635   1.146
  154SOL     OW  479   0.083   1.258   1.022
  154SOL    HW1  480   0.078   1.257   1.122
  154SOL    HW2  481   0.000   1.217   0.984
  155SOL     OW  482   0.688   1.662   1.716
  155SOL    HW1  483   0.632   1.743   1.725
  155SOL    HW2  484   0.740   1.666   1.630
  156SOL     OW  485   0.903   0.086   0.133
  156SOL    HW1  486   0.954   0.087   0.047
  156SOL    HW2  487   0.959   0.044   0.204
  157SOL     OW  488   1.726   0.135   0.523
  157SOL    HW1  489   1.799   0.118   0.456
  157SOL    HW2  490   1.695   0.048   0.561
  158SOL     OW  491   1.388   1.573   0.477
  158SOL    HW1  492   1.455   1.585   0.403
  158SOL    HW2  493   1.348   1.662   0.500
  159SOL     OW  494   0.130   1.794   1.851
  159SOL    HW1  495   0.089   1.720   1.904
  159SOL    HW2  496   0.194   1.845   1.909
  160SOL     OW  497   1.280   0.927   0.672
  160SOL    HW1  498   1.340   0.846   0.674
  160SOL    HW2  499   1.320   0.996   0.612
  161SOL     OW  500   0.830   1.273   1.422
  161SOL    HW1  501   0.825   1.306   1.517
  161SOL    HW2  502   0.744   1.292   1.376
  162SOL     OW  503   0.672   1.616   0.154
  162SOL    HW1  504   0.681   1.626   0.055
  162SOL    HW2  505   0.632   1.527   0.175
  163SOL     OW  506   1.650   1.720   1.394
  163SOL    HW1  507   1.703   1.730   1.310
  163SOL    HW2  508   1.623   1.810   1.428
  164SOL     OW  509   1.841   0.175   0.963
  164SOL    HW1  510   1.880   0.090   0.927
  164SOL    HW2  511   1.743   0.177   0.944
  165SOL     OW  512   0.263   0.326   0.720
  165SOL    HW1  513   0.184   0.377   0.686
  165SOL    HW2  514   0.254   0.311   0.818
  166SOL     OW  515   1.194   1.612   0.031
  166SOL    HW1  516   1.200   1.519   0.068
  166SOL    HW2  517   1.135   1.612  -0.049
  167SOL     OW  518   0.822   1.002   1.372
  167SOL    HW1  519   0.862   1.001   1.280
  167SOL    HW2  520   0.832   1.094   1.412
  168SOL     OW  521   0.916   0.910   0.291
  168SOL    HW1  522   0.979   0.948   0.223
  168SOL    HW2  523   0.956   0.827   0.330
  169SOL     OW  524   1.504   1.607   0.044
  169SOL    HW1  525   1.412   1.644   0.051
  169SOL    HW2  526   1.542   1.627  -0.046
  170SOL     OW  527   0.372   1.288   1.490
  170SOL    HW1  528   0.359   1.381   1.456
  170SOL    HW2  529   0.288   1.236   1.477
  171SOL     OW  530   1.614   1.292   1.289
  171SOL    HW1  531   1.674   1.295   1.369
  171SOL    HW2  532   1.539   1.356   1.302
  172SOL     OW  533   1.039   1.098   0.696
  172SOL    HW1  534   0.969   1.051   0.750
  172SOL    HW2  535   1.098   1.030   0.653
  173SOL     OW  536   1.014   0.236   0.971
  173SOL    HW1  537   1.006   0.200   0.878
  173SOL    HW2  538   1.012   0.160   1.036
  174SOL     OW  539   0.590   1.487   0.491
  174SOL    HW1  540   0.632   1.429   0.421
  174SOL    HW2  541   0.546   1.566   0.447
  175SOL     OW  542   1.709   0.385   1.381
  175SOL    HW1  543   1.782   0.454   1.385
  175SOL    HW2  544   1.737   0.310   1.322
  176SOL     OW  545   0.255   1.348   0.290
  176SOL    HW1  546   0.159   1.349   0.263
  176SOL    HW2  547   0.267   1.401   0.374
  177SOL     OW  548   0.105   1.013   1.726
  177SOL    HW1  549   0.028   0.980   1.780
  177SOL    HW2  550   0.190   0.983   1.768
  178SOL     OW  551   0.672   0.203   1.489
  178SOL    HW1  552   0.762   0.187   1.449
  178SOL    HW2  553   0.680   0.208   1.588
  179SOL     OW  554   0.075   0.345   0.033
  179SOL    HW1  555  -0.017   0.317   0.004
  179SOL    HW2  556   0.106   0.422  -0.023
  180SOL     OW  557   1.440   0.856   1.398
  180SOL    HW1  558   1.383   0.908   1.335
  180SOL    HW2  559   1.536   0.868   1.374
  181SOL     OW  560   0.072   0.166   0.318
  181SOL    HW1  561   0.055   0.249   0.264
  181SOL    HW2  562   0.162   0.129   0.296
  182SOL     OW  563   1.183   1.335   0.119
  182SOL    HW1  564   1.084   1.324   0.121
  182SOL    HW2  565   1.217   1.350   0.212
  183SOL     OW  566   0.613   0.842   1.431
  183SOL    HW1  567   0.669   0.923   1.414
  183SOL    HW2  568   0.672   0.762   1.434
  184SOL     OW  569   1.493   1.767   0.959
  184SOL    HW1  570   1.526   1.831   0.890
  184SOL    HW2  571   1.559   1.761   1.034
  185SOL     OW  572   0.716   0.565   1.708
  185SOL    HW1  573   0.735   0.630   1.782
  185SOL    HW2  574   0.776   0.485   1.717
  186SOL     OW  575   1.450   1.220   1.633
  186SOL    HW1  576   1.441   1.210   1.732
  186SOL    HW2  577   1.546   1.213   1.607
  187SOL     OW  578   0.390   1.741   1.560
  187SOL    HW1  579   0.299   1.782   1.558
  187SOL    HW2  580   0.383   1.647   1.592
  188SOL     OW  581   1.674   0.883   1.254
  188SOL    HW1  582   1.647   0.794   1.217
  188SOL    HW2  583   1.675   0.951   1.181
  189SOL     OW  584   1.225   0.325   0.449
  189SOL    HW1  585   1.290   0.251   0.438
  189SOL    HW2  586   1.245   0.375   0.533
  190SOL     OW  587   0.594   0.745   0.652
  190SOL    HW1  588   0.644   0.830   0.633
  190SOL    HW2  589   0.506   0.747   0.604
  191SOL     OW  590   1.777   0.342   1.642
  191SOL    HW1  591   1.760   0.373   1.548
  191SOL    HW2  592   1.693   0.305   1.680
  192SOL     OW  593   1.730   0.934   1.517
  192SOL    HW1  594   1.768   1.025   1.532
  192SOL    HW2  595   1.722   0.917   1.418
  193SOL     OW  596   0.859   1.374   0.016
  193SOL    HW1  597   0.813   1.389   0.104
  193SOL    HW2  598   0.903   1.459  -0.014
  194SOL     OW  599   0.661   1.790   0.953
  194SOL    HW1  600   0.615   1.878   0.940
  194SOL    HW2  601   0.760   1.802   0.946
  195SOL     OW  602   0.859   0.956   0.861
  195SOL    HW1  603   0.913   0.887   0.909
  195SOL    HW2  604   0.827   1.025   0.927
  196SOL     OW  605   1.083   0.984   0.087
  196SOL    HW1  606   1.060   1.037   0.005
  196SOL    HW2  607   1.164   0.928   0.068
  197SOL     OW  608   1.861   1.569   0.851
  197SOL    HW1  609   1.790   1.557   0.781
  197SOL    HW2  610   1.862   1.490   0.911
  198SOL     OW  611   0.221   1.314   1.844
  198SOL    HW1  612   0.156   1.241   1.823
  198SOL    HW2  613   0.225   1.328   1.942
  199SOL     OW  614   0.079   1.240   0.653
  199SOL    HW1  615   0.078   1.193   0.741
  199SOL    HW2  616   0.161   1.212   0.602
  200SOL     OW  617   0.672   1.391   1.624
  200SOL    HW1  618   0.594   1.341   1.662
  200SOL    HW2  619   0.669   1.486   1.655
  201SOL     OW  620   1.824   0.192   1.227
  201SOL    HW1  621   1.820   0.102   1.271
  201SOL    HW2  622   1.827   0.181   1.128
  202SOL     OW  623   0.428   0.424   0.520
  202SOL    HW1  624   0.458   0.352   0.458
  202SOL    HW2  625   0.389   0.384   0.603
  203SOL     OW  626   1.705   1.487   1.104
  203SOL    HW1  627   1.612   1.462   1.077
  203SOL    HW2  628   1.731   1.437   1.186
  204SOL     OW  629   0.317   0.547   1.280
  204SOL    HW1  630   0.355   0.488   1.352
  204SOL    HW2  631   0.357   0.521   1.192
  205SOL     OW  632   0.812   1.586   0.687
  205SOL    HW1  633   0.844   1.596   0.593
  205SOL    HW2  634   0.733   1.524   0.689
  206SOL     OW  635   1.424   0.214   1.112
  206SOL    HW1  636   1.476   0.149   1.167
  206SOL    HW2  637   1.375   0.277   1.173
  207SOL     OW  638   1.001   0.034   1.154
  207SOL    HW1  639   0.938  -0.038   1.123
  207SOL    HW2  640   1.094  -0.002   1.154
  208SOL     OW  641   0.770   1.330   0.301
  208SOL    HW1  642   0.724   1.243   0.318
  208SOL    HW2  643   0.861   1.327   0.342
  209SOL     OW  644   0.618   1.567   1.284
  209SOL    HW1  645   0.613   1.649   1.341
  209SOL    HW2  646   0.707   1.564   1.239
  210SOL     OW  647   1.352   0.052   0.168
  210SOL    HW1  648   1.387   0.011   0.084
  210SOL    HW2  649   1.262   0.014   0.188
  211SOL     OW  650   1.300   0.453   0.691
  211SOL    HW1  651   1.241   0.533   0.695
  211SOL    HW2  652   1.315   0.418   0.784
  212SOL     OW  653   1.593   0.221   0.882
  212SOL    HW1  654   1.509   0.220   0.936
  212SOL    HW2  655   1.595   0.304   0.826
  213SOL     OW  656   0.039   1.077   0.300
  213SOL    HW1  657   0.138   1.066   0.291
  213SOL    HW2  658  -0.001   0.991   0.332
  214SOL     OW  659   0.875   1.646   0.337
  214SOL    HW1  660   0.798   1.611   0.283
  214SOL    HW2  661   0.843   1.717   0.399
  215SOL     OW  662   0.230   0.628   1.975
  215SOL    HW1  663   0.137   0.626   2.012
  215SOL    HW2  664   0.231   0.589   1.883
  216SOL     OW  665   0.225   0.275   2.858
  216SOL    HW1  666   0.260   0.258   2.950
  216SOL    HW2  667   0.137   0.230   2.846
  217SOL     OW  668   0.019   0.368   2.509
  217SOL    HW1  669  -0.063   0.411   2.548
  217SOL    HW2  670  -0.009   0.295   2.446
  218SOL     OW  671   0.569   1.275   3.027
  218SOL    HW1  672   0.476   1.268   2.990
  218SOL    HW2  673   0.580   1.364   3.071
  219SOL     OW  674   1.555   1.511   2.565
  219SOL    HW1  675   1.498   1.495   2.646
  219SOL    HW2  676   1.496   1.521   2.485
  220SOL     OW  677   1.135   0.703   2.579
  220SOL    HW1  678   1.192   0.781   2.554
  220SOL    HW2  679   1.075   0.729   2.655
  221SOL     OW  680   1.755   0.607   2.093
  221SOL    HW1  681   1.743   0.594   1.994
  221SOL    HW2  682   1.725   0.526   2.142
  222SOL     OW  683   0.768   1.144   2.885
  222SOL    HW1  684   0.690   1.161   2.945
  222SOL    HW2  685   0.802   1.231   2.849
  223SOL     OW  686   0.850   0.798   3.685
  223SOL    HW1  687   0.846   0.874   3.750
  223SOL    HW2  688   0.872   0.834   3.594
  224SOL     OW  689   0.685   1.012   2.527
  224SOL    HW1  690   0.754   0.996   2.597
  224SOL    HW2  691   0.612   1.069   2.565
  225SOL     OW  692   0.686   1.161   3.665
  225SOL    HW1  693   0.746   1.240   3.679
  225SOL    HW2  694   0.600   1.192   3.624
  226SOL     OW  695   0.335   1.435   2.923
  226SOL    HW1  696   0.257   1.404   2.870
  226SOL    HW2  697   0.393   1.493   2.866
  227SOL     OW  698   1.460   1.505   3.201
  227SOL    HW1  699   1.484   1.599   3.227
  227SOL    HW2  700   1.444   1.451   3.283
  228SOL     OW  701   0.438   0.392   3.361
  228SOL    HW1  702   0.520   0.336   3.370
  228SOL    HW2  703   0.357   0.334   3.365
  229SOL     OW  704   1.603   0.447   2.599
  229SOL    HW1  705   1.529   0.493   2.549
  229SOL    HW2  706   1.654   0.515   2.652
  230SOL     OW  707   0.231   1.713   2.345
  230SOL    HW1  708   0.265   1.790   2.399
  230SOL    HW2  709   0.275   1.713   2.255
  231SOL     OW  710   1.127   1.341   3.552
  231SOL    HW1  711   1.174   1.341   3.640
  231SOL    HW2  712   1.079   1.254   3.541
  232SOL     OW  713   0.230   1.434   2.400
  232SOL    HW1  714   0.204   1.530   2.400
  232SOL    HW2  715   0.159   1.380   2.445
  233SOL     OW  716   0.240   1.091   2.748
  233SOL    HW1  717   0.254   1.007   2.800
  233SOL    HW2  718   0.185   1.155   2.803
  234SOL     OW  719   0.620   1.786   3.301
  234SOL    HW1  720   0.528   1.769   3.336
  234SOL    HW2  721   0.648   1.878   3.327
  235SOL     OW  722   0.606   0.964   1.985
  235SOL    HW1  723   0.613   1.048   1.931
  235SOL    HW2  724   0.652   0.977   2.073
  236SOL     OW  725   1.594   0.114   3.342
  236SOL    HW1  726   1.576   0.181   3.270
  236SOL    HW2  727   1.591   0.160   3.431
  237SOL     OW  728   0.122   0.643   2.425
  237SOL    HW1  729   0.077   0.555   2.442
  237SOL    HW2  730   0.121   0.697   2.509
  238SOL     OW  731   1.842   1.767   2.221
  238SOL    HW1  732   1.896   1.738   2.301
  238SOL    HW2  733   1.872   1.857   2.192
  239SOL     OW  734   0.027   1.596   1.979
  239SOL    HW1  735   0.008   1.500   2.000
  239SOL    HW2  736  -0.006   1.654   2.054
  240SOL     OW  737   1.689   0.922   2.474
  240SOL    HW1  738   1.784   0.893   2.482
  240SOL    HW2  739   1.681   0.987   2.399
  241SOL     OW  740   1.641   1.108   2.294
  241SOL    HW1  741   1.727   1.110   2.242
  241SOL    HW2  742   1.655   1.155   2.382
  242SOL     OW  743   0.113   0.737   3.459
  242SOL    HW1  744   0.201   0.724   3.504
  242SOL    HW2  745   0.100   0.834   3.437
  243SOL     OW  746   0.613   1.365   2.588
  243SOL    HW1  747   0.564   1.278   2.597
  243SOL    HW2  748   0.590   1.408   2.501
  244SOL     OW  749   1.293   1.228   3.285
  244SOL    HW1  750   1.330   1.155   3.227
  244SOL    HW2  751   1.345   1.233   3.370
  245SOL     OW  752   0.809   0.004   2.364
  245SOL    HW1  753   0.849   0.095   2.355
  245SOL    HW2  754   0.709   0.012   2.370
  246SOL     OW  755   0.197   0.976   3.126
  246SOL    HW1  756   0.286   0.931   3.112
  246SOL    HW2  757   0.124   0.911   3.107
  247SOL     OW  758   1.525   0.999   2.052
  247SOL    HW1  759   1.462   0.923   2.065
  247SOL    HW2  760   1.573   1.017   2.138
  248SOL     OW  761   1.187   1.792   3.478
  248SOL    HW1  762   1.211   1.852   3.402
  248SOL    HW2  763   1.194   1.697   3.448
  249SOL     OW  764   0.317   0.251   3.663
  249SOL    HW1  765   0.388   0.322   3.669
  249SOL    HW2  766   0.229   0.290   3.691
  250SOL     OW  767   1.466   1.417   2.815
  250SOL    HW1  768   1.407   1.423   2.895
  250SOL    HW2  769   1.451   1.329   2.769
  251SOL     OW  770   1.667   1.714   2.434
  251SOL    HW1  771   1.626   1.691   2.346
  251SOL    HW2  772   1.649   1.640   2.499
  252SOL     OW  773   0.598   0.729   2.132
  252SOL    HW1  774   0.622   0.798   2.064
  252SOL    HW2  775   0.520   0.762   2.186
  253SOL     OW  776   1.281   0.345   2.806
  253SOL    HW1  777   1.195   0.295   2.793
  253SOL    HW2  778   1.343   0.291   2.862
  254SOL     OW  779   1.576   1.662   2.169
  254SOL    HW1  780   1.665   1.708   2.172
  254SOL    HW2  781   1.555   1.638   2.074
  255SOL     OW  782   0.807   0.605   3.327
  255SOL    HW1  783   0.760   0.602   3.416
  255SOL    HW2  784   0.756   0.550   3.261
  256SOL     OW  785   1.394   0.469   3.536
  256SOL    HW1  786   1.374   0.512   3.624
  256SOL    HW2  787   1.472   0.407   3.545
  257SOL     OW  788   0.973   0.890   3.434
  257SOL    HW1  789   1.019   0.806   3.405
  257SOL    HW2  790   0.917   0.924   3.359
  258SOL     OW  791   0.991   0.410   3.104
  258SOL    HW1  792   0.914   0.444   3.158
  258SOL    HW2  793   0.957   0.359   3.025
  259SOL     OW  794   1.041   0.701   2.291
  259SOL    HW1  795   1.067   0.697   2.387
  259SOL    HW2  796   0.956   0.650   2.277
  260SOL     OW  797   0.076   0.811   2.651
  260SOL    HW1  798   0.175   0.799   2.660
  260SOL    HW2  799   0.052   0.906   2.672
  261SOL     OW  800   0.130   1.821   3.433
  261SOL    HW1  801   0.120   1.806   3.532
  261SOL    HW2  802   0.044   1.857   3.397
  262SOL     OW  803   0.865   0.348   2.057
  262SOL    HW1  804   0.924   0.411   2.008
  262SOL    HW2  805   0.884   0.254   2.028
  263SOL     OW  806   1.719   0.585   3.693
  263SOL    HW1  807   1.693   0.674   3.657
  263SOL    HW2  808   1.717   0.517   3.620
  264SOL     OW  809   1.362   1.144   2.407
  264SOL    HW1  810   1.445   1.115   2.359
  264SOL    HW2  811   1.313   1.211   2.351
  265SOL     OW  812   0.550   0.196   2.747
  265SOL    HW1  813   0.545   0.191   2.847
  265SOL    HW2  814   0.552   0.292   2.718
  266SOL     OW  815   1.008   1.456   2.339
  266SOL    HW1  816   0.962   1.528   2.287
  266SOL    HW2  817   1.004   1.476   2.437
  267SOL     OW  818   0.351   1.801   2.715
  267SOL    HW1  819   0.401   1.715   2.721
  267SOL    HW2  820   0.416   1.878   2.712
  268SOL     OW  821   1.795   1.066   2.735
  268SOL    HW1  822   1.733   1.051   2.659
  268SOL    HW2  823   1.743   1.077   2.820
  269SOL     OW  824   1.227   1.550   3.368
  269SOL    HW1  825   1.233   1.473   3.432
  269SOL    HW2  826   1.175   1.524   3.288
  270SOL     OW  827   0.321   0.943   2.104
  270SOL    HW1  828   0.403   0.982   2.062
  270SOL    HW2  829   0.294   0.861   2.055
  271SOL     OW  830   1.458   0.735   2.590
  271SOL    HW1  831   1.453   0.670   2.665
  271SOL    HW2  832   1.538   0.794   2.603
  272SOL     OW  833   0.461   1.266   3.589
  272SOL    HW1  834   0.411   1.267   3.503
  272SOL    HW2  835   0.398   1.248   3.665
  273SOL     OW  836   1.111   1.776   2.099
  273SOL    HW1  837   1.051   1.714   2.149
  273SOL    HW2  838   1.142   1.732   2.014
  274SOL     OW  839   0.202   0.285   3.360
  274SOL    HW1  840   0.122   0.345   3.347
  274SOL    HW2  841   0.192   0.236   3.446
  275SOL     OW  842   1.632   1.377   1.943
  275SOL    HW1  843   1.600   1.471   1.933
  275SOL    HW2  844   1.556   1.314   1.931
  276SOL     OW  845   0.464   1.743   2.185
  276SOL    HW1  846   0.497   1.782   2.271
  276SOL    HW2  847   0.540   1.736   2.120
  277SOL     OW  848   1.400   0.107   2.288
  277SOL    HW1  849   1.376   0.070   2.198
  277SOL    HW2  850   1.499   0.123   2.292
  278SOL     OW  851   0.249   1.785   3.103
  278SOL    HW1  852   0.306   1.720   3.153
  278SOL    HW2  853   0.233   1.752   3.010
  279SOL     OW  854   0.940   1.698   2.766
  279SOL    HW1  855   1.020   1.641   2.787
  279SOL    HW2  856   0.891   1.658   2.689
  280SOL     OW  857   0.382   0.700   2.342
  280SOL    HW1  858   0.427   0.610   2.339
  280SOL    HW2  859   0.288   0.689   2.375
  281SOL     OW  860   1.547   0.222   3.591
  281SOL    HW1  861   1.542   0.259   3.683
  281SOL    HW2  862   1.475   0.153   3.579
  282SOL     OW  863   0.614   0.122   1.979
  282SOL    HW1  864   0.712   0.100   1.986
  282SOL    HW2  865   0.583   0.105   1.886
  283SOL     OW  866   0.781   0.264   3.611
  283SOL    HW1  867   0.848   0.203   3.654
  283SOL    HW2  868   0.708   0.283   3.676
  284SOL     OW  869   0.888   1.514   3.057
  284SOL    HW1  870   0.865   1.489   2.963
  284SOL    HW2  871   0.949   1.445   3.096
  285SOL     OW  872   1.351   0.590   3.295
  285SOL    HW1  873   1.379   0.547   3.380
  285SOL    HW2  874   1.376   0.686   3.296
  286SOL     OW  875   0.803   1.402   2.786
  286SOL    HW1  876   0.893   1.416   2.744
  286SOL    HW2  877   0.732   1.404   2.715
  287SOL     OW  878   0.922   0.503   2.761
  287SOL    HW1  879   0.897   0.494   2.665
  287SOL    HW2  880   0.970   0.421   2.792
  288SOL     OW  881   0.539   0.064   2.374
  288SOL    HW1  882   0.458   0.065   2.432
  288SOL    HW2  883   0.542   0.147   2.319
  289SOL     OW  884   1.434   1.188   1.903
  289SOL    HW1  885   1.466   1.112   1.960
  289SOL    HW2  886   1.342   1.215   1.933
  290SOL     OW  887   0.297   0.035   2.033
  290SOL    HW1  888   0.346   0.119   2.012
  290SOL    HW2  889   0.359  -0.030   2.078
  291SOL     OW  890   0.935   0.236   2.342
  291SOL    HW1  891   0.887   0.277   2.264
  291SOL    HW2  892   1.034   0.234   2.323
  292SOL     OW  893   1.076   0.683   3.326
  292SOL    HW1  894   0.996   0.622   3.329
  292SOL    HW2  895   1.157   0.630   3.302
  293SOL     OW  896   1.227   1.570   2.655
  293SOL    HW1  897   1.248   1.644   2.590
  293SOL    HW2  898   1.295   1.570   2.728
  294SOL     OW  899   0.459   1.152   2.603
  294SOL    HW1  900   0.388   1.125   2.668
  294SOL    HW2  901   0.433   1.124   2.510
  295SOL     OW  902   1.271   1.797   2.453
  295SOL    HW1  903   1.315   1.861   2.389
  295SOL    HW2  904   1.221   1.849   2.523
  296SOL     OW  905   1.032   0.549   1.878
  296SOL    HW1  906   0.991   0.631   1.839
  296SOL    HW2  907   1.096   0.575   1.951
  297SOL     OW  908   0.078   0.556   3.248
  297SOL    HW1  909   0.170   0.555   3.207
  297SOL    HW2  910   0.072   0.630   3.315
  298SOL     OW  911   0.561   0.222   3.009
  298SOL    HW1  912   0.599   0.138   3.046
  298SOL    HW2  913   0.473   0.241   3.053
  299SOL     OW  914   0.866   0.454   2.504
  299SOL    HW1  915   0.834   0.526   2.442
  299SOL    HW2  916   0.890   0.373   2.451
  300SOL     OW  917   1.017   0.039   2.615
  300SOL    HW1  918   0.945   0.044   2.546
  300SOL    HW2  919   0.993  -0.030   2.684
  301SOL     OW  920   1.429   1.173   2.729
  301SOL    HW1  921   1.374   1.089   2.722
  301SOL    HW2  922   1.455   1.202   2.637
  302SOL     OW  923   1.466   0.590   2.854
  302SOL    HW1  924   1.436   0.495   2.861
  302SOL    HW2  925   1.539   0.606   2.920
  303SOL     OW  926   1.857   0.833   2.239
  303SOL    HW1  927   1.899   0.769   2.303
  303SOL    HW2  928   1.819   0.782   2.161
  304SOL     OW  929   0.488   1.385   2.036
  304SOL    HW1  930   0.401   1.370   2.083
  304SOL    HW2  931   0.471   1.411   1.941
  305SOL     OW  932   1.664   1.280   2.519
  305SOL    HW1  933   1.763   1.288   2.533
  305SOL    HW2  934   1.619   1.364   2.550
  306SOL     OW  935   1.390   0.575   1.940
  306SOL    HW1  936   1.336   0.554   2.021
  306SOL    HW2  937   1.481   0.534   1.949
  307SOL     OW  938   0.527   0.256   2.190
  307SOL    HW1  939   0.554   0.197   2.115
  307SOL    HW2  940   0.527   0.351   2.159
  308SOL     OW  941   1.754   1.223   3.450
  308SOL    HW1  942   1.845   1.184   3.437
  308SOL    HW2  943   1.762   1.319   3.474
  309SOL     OW  944   1.064   1.347   3.202
  309SOL    HW1  945   0.984   1.324   3.257
  309SOL    HW2  946   1.147   1.321   3.251
  310SOL     OW  947   1.592   1.629   3.487
  310SOL    HW1  948   1.619   1.663   3.397
  310SOL    HW2  949   1.671   1.591   3.533
  311SOL     OW  950   1.111   1.195   2.962
  311SOL    HW1  951   1.071   1.239   3.043
  311SOL    HW2  952   1.070   1.232   2.879
  312SOL     OW  953   1.638   1.099   2.941
  312SOL    HW1  954   1.643   1.180   3.000
  312SOL    HW2  955   1.552   1.101   2.890
  313SOL     OW  956   0.915   0.089   3.264
  313SOL    HW1  957   0.940   0.069   3.169
  313SOL    HW2  958   0.987   0.145   3.306
  314SOL     OW  959   0.980   1.116   3.581
  314SOL    HW1  960   0.881   1.122   3.591
  314SOL    HW2  961   1.003   1.036   3.525
  315SOL     OW  962   0.705   1.050   2.230
  315SOL    HW1  963   0.691   1.057   2.329
  315SOL    HW2  964   0.789   0.999   2.212
  316SOL     OW  965   0.410   0.813   3.113
  316SOL    HW1  966   0.496   0.825   3.163
  316SOL    HW2  967   0.368   0.726   3.140
  317SOL     OW  968   1.274   0.386   3.124
  317SOL    HW1  969   1.295   0.460   3.188
  317SOL    HW2  970   1.185   0.403   3.081
  318SOL     OW  971   0.064   1.564   3.193
  318SOL    HW1  972   0.018   1.646   3.159
  318SOL    HW2  973   0.162   1.583   3.202
  319SOL     OW  974   0.367   1.100   2.363
  319SOL    HW1  975   0.360   1.183   2.307
  319SOL    HW2  976   0.371   1.020   2.303
  320SOL     OW  977   0.566   0.537   2.727
  320SOL    HW1  978   0.578   0.603   2.653
  320SOL    HW2  979   0.612   0.571   2.810
  321SOL     OW  980   1.252   1.348   2.250
  321SOL    HW1  981   1.302   1.425   2.290
  321SOL    HW2  982   1.157   1.350   2.282
  322SOL     OW  983   1.272   1.445   3.004
  322SOL    HW1  984   1.319   1.458   3.091
  322SOL    HW2  985   1.206   1.371   3.013
  323SOL     OW  986   1.582   0.639   2.334
  323SOL    HW1  987   1.551   0.700   2.407
  323SOL    HW2  988   1.632   0.691   2.265
  324SOL     OW  989   0.354   1.510   3.191
  324SOL    HW1  990   0.333   1.466   3.104
  324SOL    HW2  991   0.451   1.536   3.194
  325SOL     OW  992   0.402   0.751   3.460
  325SOL    HW1  993   0.470   0.806   3.413
  325SOL    HW2  994   0.442   0.663   3.487
  326SOL     OW  995   1.587   0.779   3.532
  326SOL    HW1  996   1.495   0.817   3.527
  326SOL    HW2  997   1.647   0.826   3.467
  327SOL     OW  998   1.013   0.105   3.632
  327SOL    HW1  999   1.019   0.190   3.580
  327SOL    HW2 1000   1.045   0.029   3.575
  328SOL     OW 1001   0.504   0.050   3.602
  328SOL    HW1 1002   0.462  -0.007   3.532
  328SOL    HW2 1003   0.438   0.119   3.634
  329SOL     OW 1004   0.573   0.870   2.891
  329SOL    HW1 1005   0.617   0.959   2.882
  329SOL    HW2 1006   0.510   0.870   2.968
  330SOL     OW 1007   1.360   0.862   2.907
  330SOL    HW1 1008   1.285   0.862   2.841
  330SOL    HW2 1009   1.397   0.770   2.916
  331SOL     OW 1010   1.209   0.525   2.137
  331SOL    HW1 1011   1.222   0.441   2.191
  331SOL    HW2 1012   1.180   0.599   2.197
  332SOL     OW 1013   0.307   0.213   3.093
  332SOL    HW1 1014   0.284   0.250   3.183
  332SOL    HW2 1015   0.277   0.118   3.087
  333SOL     OW 1016   0.037   1.310   3.144
  333SOL    HW1 1017   0.090   1.261   3.212
  333SOL    HW2 1018   0.059   1.408   3.149
  334SOL     OW 1019   0.732   0.634   2.926
  334SOL    HW1 1020   0.791   0.608   2.850
  334SOL    HW2 1021   0.704   0.730   2.915
  335SOL     OW 1022   1.728   0.935   3.716
  335SOL    HW1 1023   1.682   0.928   3.627
  335SOL    HW2 1024   1.666   0.979   3.782
  336SOL     OW 1025   0.307   0.063   2.480
  336SOL    HW1 1026   0.296   0.157   2.513
  336SOL    HW2 1027   0.302   0.000   2.557
  337SOL     OW 1028   1.622   0.367   2.236
  337SOL    HW1 1029   1.624   0.291   2.300
  337SOL    HW2 1030   1.574   0.444   2.276
  338SOL     OW 1031   1.023   0.766   2.828
  338SOL    HW1 1032   1.038   0.787   2.924
  338SOL    HW2 1033   0.993   0.671   2.819
  339SOL     OW 1034   0.980   1.573   3.562
  339SOL    HW1 1035   0.960   1.617   3.474
  339SOL    HW2 1036   1.019   1.482   3.546
  340SOL     OW 1037   1.859   1.518   3.467
  340SOL    HW1 1038   1.873   1.545   3.372
  340SOL    HW2 1039   1.942   1.540   3.520
  341SOL     OW 1040   0.350   0.898   3.666
  341SOL    HW1 1041   0.426   0.942   3.714
  341SOL    HW2 1042   0.385   0.851   3.584
  342SOL     OW 1043   1.540   0.274   1.987
  342SOL    HW1 1044   1.479   0.199   2.010
  342SOL    HW2 1045   1.562   0.326   2.070
  343SOL     OW 1046   1.303   0.838   1.904
  343SOL    HW1 1047   1.337   0.745   1.919
  343SOL    HW2 1048   1.321   0.865   1.809
  344SOL     OW 1049   1.068   1.333   2.711
  344SOL    HW1 1050   1.075   1.249   2.656
  344SOL    HW2 1051   1.130   1.402   2.675
  345SOL     OW 1052   0.319   0.810   2.811
  345SOL    HW1 1053   0.412   0.846   2.816
  345SOL    HW2 1054   0.313   0.725   2.863
  346SOL     OW 1055   0.339   0.509   2.868
  346SOL    HW1 1056   0.287   0.426   2.851
  346SOL    HW2 1057   0.416   0.514   2.804
  347SOL     OW 1058   1.138   0.380   3.540
  347SOL    HW1 1059   1.093   0.443   3.604
  347SOL    HW2 1060   1.231   0.411   3.523
  348SOL     OW 1061   1.160   0.207   3.339
  348SOL    HW1 1062   1.160   0.271   3.416
  348SOL    HW2 1063   1.188   0.255   3.256
  349SOL     OW 1064   0.008   1.326   2.062
  349SOL    HW1 1065  -0.085   1.347   2.031
  349SOL    HW2 1066   0.018   1.227   2.075
  350SOL     OW 1067   0.088   1.801   2.789
  350SOL    HW1 1068   0.046   1.715   2.762
  350SOL    HW2 1069   0.182   1.804   2.755
  351SOL     OW 1070   0.504   1.568   2.772
  351SOL    HW1 1071   0.570   1.642   2.781
  351SOL    HW2 1072   0.548   1.489   2.730
  352SOL     OW 1073   1.002   0.796   3.100
  352SOL    HW1 1074   1.043   0.764   3.186
  352SOL    HW2 1075   0.906   0.769   3.097
  353SOL     OW 1076   0.040   0.544   2.976
  353SOL    HW1 1077   0.125   0.511   2.935
  353SOL    HW2 1078   0.053   0.559   3.074
  354SOL     OW 1079   0.189   0.520   3.584
  354SOL    HW1 1080   0.248   0.480   3.514
  354SOL    HW2 1081   0.131   0.591   3.543
  355SOL     OW 1082   1.369   0.950   3.522
  355SOL    HW1 1083   1.408   1.039   3.542
  355SOL    HW2 1084   1.379   0.930   3.425
  356SOL     OW 1085   0.815   0.572   2.187
  356SOL    HW1 1086   0.822   0.483   2.141
  356SOL    HW2 1087   0.721   0.606   2.179
  357SOL     OW 1088   1.657   0.604   3.068
  357SOL    HW1 1089   1.619   0.535   3.130
  357SOL    HW2 1090   1.739   0.568   3.024
  358SOL     OW 1091   0.252   1.564   3.606
  358SOL    HW1 1092   0.222   1.621   3.682
  358SOL    HW2 1093   0.245   1.467   3.632
  359SOL     OW 1094   0.671   0.464   3.131
  359SOL    HW1 1095   0.637   0.375   3.101
  359SOL    HW2 1096   0.697   0.518   3.051
  360SOL     OW 1097   0.930   1.678   3.327
  360SOL    HW1 1098   0.906   1.660   3.232
  360SOL    HW2 1099   0.960   1.772   3.337
  361SOL     OW 1100   0.473   0.500   2.053
  361SOL    HW1 1101   0.534   0.580   2.057
  361SOL    HW2 1102   0.378   0.531   2.060
  362SOL     OW 1103   0.159   1.137   3.328
  362SOL    HW1 1104   0.181   1.076   3.404
  362SOL    HW2 1105   0.169   1.088   3.242
  363SOL     OW 1106   1.347   1.059   3.096
  363SOL    HW1 1107   1.371   0.996   3.022
  363SOL    HW2 1108   1.257   1.099   3.078
  364SOL     OW 1109   1.302   0.855   2.171
  364SOL    HW1 1110   1.216   0.824   2.213
  364SOL    HW2 1111   1.298   0.841   2.072
  365SOL     OW 1112   1.759   1.747   3.016
  365SOL    HW1 1113   1.820   1.777   2.943
  365SOL    HW2 1114   1.721   1.658   2.994
  366SOL     OW 1115   1.252   1.731   2.990
  366SOL    HW1 1116   1.336   1.736   2.936
  366SOL    HW2 1117   1.229   1.635   3.008
  367SOL     OW 1118   0.083   1.258   2.884
  367SOL    HW1 1119   0.078   1.257   2.984
  367SOL    HW2 1120   0.000   1.217   2.846
  368SOL     OW 1121   0.688   1.662   3.578
  368SOL    HW1 1122   0.632   1.743   3.587
  368SOL    HW2 1123   0.740   1.666   3.492
  369SOL     OW 1124   1.726   0.135   2.385
  369SOL    HW1 1125   1.799   0.118   2.318
  369SOL    HW2 1126   1.695   0.048   2.423
  370SOL     OW 1127   1.388   1.573   2.339
  370SOL    HW1 1128   1.455   1.585   2.265
  370SOL    HW2 1129   1.348   1.662   2.362
  371SOL     OW 1130   0.130   1.794   3.713
  371SOL    HW1 1131   0.089   1.720   3.766
  371SOL    HW2 1132   0.194   1.845   3.771
  372SOL     OW 1133   1.280   0.927   2.534
  372SOL    HW1 1134   1.340   0.846   2.536
  372SOL    HW2 1135   1.320   0.996   2.474
  373SOL     OW 1136   0.830   1.273   3.284
  373SOL    HW1 1137   0.825   1.306   3.379
  373SOL    HW2 1138   0.744   1.292   3.238
  374SOL     OW 1139   0.672   1.616   2.016
  374SOL    HW1 1140   0.681   1.626   1.917
  374SOL    HW2 1141   0.632   1.527   2.037
  375SOL     OW 1142   1.650   1.720   3.256
  375SOL    HW1 1143   1.703   1.730   3.172
  375SOL    HW2 1144   1.623   1.810   3.290
  376SOL     OW 1145   1.841   0.175   2.825
  376SOL    HW1 1146   1.880   0.090   2.789
  376SOL    HW2 1147   1.743   0.177   2.806
  377SOL     OW 1148   0.263   0.326   2.582
  377SOL    HW1 1149   0.184   0.377   2.548
  377SOL    HW2 1150   0.254   0.311   2.680
  378SOL     OW 1151   1.194   1.612   1.893
  378SOL    HW1 1152   1.200   1.519   1.930
  378SOL    HW2 1153   1.135   1.612   1.813
  379SOL     OW 1154   0.822   1.002   3.234
  379SOL    HW1 1155   0.862   1.001   3.142
  379SOL    HW2 1156   0.832   1.094   3.274
  380SOL     OW 1157   0.916   0.910   2.153
  380SOL    HW1 1158   0.979   0.948   2.085
  380SOL    HW2 1159   0.956   0.827   2.192
  381SOL     OW 1160   1.504   1.607   1.906
  381SOL    HW1 1161   1.412   1.644   1.913
  381SOL    HW2 1162   1.542   1.627   1.816
  382SOL     OW 1163   0.372   1.288   3.352
  382SOL    HW1 1164   0.359   1.381   3.318
  382SOL    HW2 1165   0.288   1.236   3.339
  383SOL     OW 1166   1.614   1.292   3.151
  383SOL    HW1 1167   1.674   1.295   3.231
  383SOL    HW2 1168   1.539   1.356   3.164
  384SOL     OW 1169   1.039   1.098   2.558
  384SOL    HW1 1170   0.969   1.051   2.612
  384SOL    HW2 1171   1.098   1.030   2.515
  385SOL     OW 1172   1.014   0.236   2.833
  385SOL    HW1 1173   1.006   0.200   2.740
  385SOL    HW2 1174   1.012   0.160   2.898
  386SOL     OW 1175   0.590   1.487   2.353
  386SOL    HW1 1176   0.632   1.429   2.283
  386SOL    HW2 1177   0.546   1.566   2.309
  387SOL     OW 1178   1.709   0.385   3.243
  387SOL    HW1 1179   1.782   0.454   3.247
  387SOL    HW2 1180   1.737   0.310   3.184
  388SOL     OW 1181   0.255   1.348   2.152
  388SOL    HW1 1182   0.159   1.349   2.125
  388SOL    HW2 1183   0.267   1.401   2.236
  389SOL     OW 1184   0.105   1.013   3.588
  389SOL    HW1 1185   0.028   0.980   3.642
  389SOL    HW2 1186   0.190   0.983   3.630
  390SOL     OW 1187   0.672   0.203   3.351
  390SOL    HW1 1188   0.762   0.187   3.311
  390SOL    HW2 1189   0.680   0.208   3.450
  391SOL     OW 1190   0.075   0.345   1.895
  391SOL    HW1 1191  -0.017   0.317   1.866
  391SOL    HW2 1192   0.106   0.422   1.839
  392SOL     OW 1193   1.440   0.856   3.260
  392SOL    HW1 1194   1.383   0.908   3.197
  392SOL    HW2 1195   1.536   0.868   3.236
  393SOL     OW 1196   0.072   0.166   2.180
  393SOL    HW1 1197   0.055   0.249   2.126
  393SOL    HW2 1198   0.162   0.129   2.158
  394SOL     OW 1199   1.183   1.335   1.981
  394SOL    HW1 1200   1.084   1.324   1.983
  394SOL    HW2 1201   1.217   1.350   2.074
  395SOL     OW 1202   0.613   0.842   3.293
  395SOL    HW1 1203   0.669   0.923   3.276
  395SOL    HW2 1204   0.672   0.762   3.296
  396SOL     OW 1205   1.493   1.767   2.821
  396SOL    HW1 1206   1.526   1.831   2.752
  396SOL    HW2 1207   1.559   1.761   2.896
  397SOL     OW 1208   0.716   0.565   3.570
  397SOL    HW1 1209   0.735   0.630   3.644
  397SOL    HW2 1210   0.776   0.485   3.579
  398SOL     OW 1211   1.450   1.220   3.495
  398SOL    HW1 1212   1.441   1.210   3.594
  398SOL    HW2 1213   1.546   1.213   3.469
  399SOL     OW 1214   0.390   1.741   3.422
  399SOL    HW1 1215   0.299   1.782   3.420
  399SOL    HW2 1216   0.383   1.647   3.454
  400SOL     OW 1217   1.674   0.883   3.116
  400SOL    HW1 1218   1.647   0.794   3.079
  400SOL    HW2 1219   1.675   0.951   3.043
  401SOL     OW 1220   1.225   0.325   2.311
  401SOL    HW1 1221   1.290   0.251   2.300
  401SOL    HW2 1222   1.245   0.375   2.395
  402SOL     OW 1223   0.594   0.745   2.514
  402SOL    HW1 1224   0.644   0.830   2.495
  402SOL    HW2 1225   0.506   0.747   2.466
  403SOL     OW 1226   1.777   0.342   3.504
  403SOL    HW1 1227   1.760   0.373   3.410
  403SOL    HW2 1228   1.693   0.305   3.542
  404SOL     OW 1229   1.730   0.934   3.379
  404SOL    HW1 1230   1.768   1.025   3.394
  404SOL    HW2 1231   1.722   0.917   3.280
  405SOL     OW 1232   0.859   1.374   1.878
  405SOL    HW1 1233   0.813   1.389   1.966
  405SOL    HW2 1234   0.903   1.459   1.848
  406SOL     OW 1235   0.661   1.790   2.815
  406SOL    HW1 1236   0.615   1.878   2.802
  406SOL    HW2 1237   0.760   1.802   2.808
  407SOL     OW 1238   0.859   0.956   2.723
  407SOL    HW1 1239   0.913   0.887   2.771
  407SOL    HW2 1240   0.827   1.025   2.789
  408SOL     OW 1241   1.083   0.984   1.949
  408SOL    HW1 1242   1.060   1.037   1.867
  408SOL    HW2 1243   1.164   0.928   1.930
  409SOL     OW 1244   1.861   1.569   2.713
  409SOL    HW1 1245   1.790   1.557   2.643
  409SOL    HW2 1246   1.862   1.490   2.773
  410SOL     OW 1247   0.221   1.314   3.706
  410SOL    HW1 1248   0.156   1.241   3.685
  410SOL    HW2 1249   0.225   1.328   3.804
  411SOL     OW 1250   0.079   1.240   2.515
  411SOL    HW1 1251   0.078   1.193   2.603
  411SOL    HW2 1252   0.161   1.212   2.464
  412SOL     OW 1253   0.672   1.391   3.486
  412SOL    HW1 1254   0.594   1.341   3.524
  412SOL    HW2 1255   0.669   1.486   3.517
  413SOL     OW 1256   1.824   0.192   3.089
  413SOL    HW1 1257   1.820   0.102   3.133
  413SOL    HW2 1258   1.827   0.181   2.990
  414SOL     OW 1259   0.428   0.424   2.382
  414SOL    HW1 1260   0.458   0.352   2.320
  414SOL    HW2 1261   0.389   0.384   2.465
  415SOL     OW 1262   1.705   1.487   2.966
  415SOL    HW1 1263   1.612   1.462   2.939
  415SOL    HW2 1264   1.731   1.437   3.048
  416SOL     OW 1265   0.317   0.547   3.142
  416SOL    HW1 1266   0.355   0.488   3.214
  416SOL    HW2 1267   0.357   0.521   3.054
  417SOL     OW 1268   0.812   1.586   2.549
  417SOL    HW1 1269   0.844   1.596   2.455
  417SOL    HW2 1270   0.733   1.524   2.551
  418SOL     OW 1271   1.424   0.214   2.974
  418SOL    HW1 1272   1.476   0.149   3.029
  418SOL    HW2 1273   1.375   0.277   3.035
  419SOL     OW 1274   1.001   0.034   3.016
  419SOL    HW1 1275   0.938  -0.038   2.985
  419SOL    HW2 1276   1.094  -0.002   3.016
  420SOL     OW 1277   0.770   1.330   2.163
  420SOL    HW1 1278   0.724   1.243   2.180
  420SOL    HW2 1279   0.861   1.327   2.204
  421SOL     OW 1280   0.618   1.567   3.146
  421SOL    HW1 1281   0.613   1.649   3.203
  421SOL    HW2 1282   0.707   1.564   3.101
  422SOL     OW 1283   1.352   0.052   2.030
  422SOL    HW1 1284   1.387   0.011   1.946
  422SOL    HW2 1285   1.262   0.014   2.050
  423SOL     OW 1286   1.300   0.453   2.553
  423SOL    HW1 1287   1.241   0.533   2.557
  423SOL    HW2 1288   1.315   0.418   2.646
  424SOL     OW 1289   1.593   0.221   2.744
  424SOL    HW1 1290   1.509   0.220   2.798
  424SOL    HW2 1291   1.595   0.304   2.688
  425SOL     OW 1292   0.039   1.077   2.162
  425SOL    HW1 1293   0.138   1.066   2.153
  425SOL    HW2 1294  -0.001   0.991   2.194
  426SOL     OW 1295   0.875   1.646   2.199
  426SOL    HW1 1296   0.798   1.611   2.145
  426SOL    HW2 1297   0.843   1.717   2.261
  427SOL     OW 1298   0.230   0.628   3.837
  427SOL    HW1 1299   0.137   0.626   3.874
  427SOL    HW2 1300   0.231   0.589   3.745
  428SOL     OW 1301   0.225   0.275   4.720
  428SOL    HW1 1302   0.260   0.258   4.812
  428SOL    HW2 1303   0.137   0.230   4.708
  429SOL     OW 1304   0.019   0.368   4.371
  429SOL    HW1 1305  -0.063   0.411   4.410
  429SOL    HW2 1306  -0.009   0.295   4.308
  430SOL     OW 1307   0.569   1.275   4.889
  430SOL    HW1 1308   0.476   1.268   4.852
  430SOL    HW2 1309   0.580   1.364   4.933
  431SOL     OW 1310   1.555   1.511   4.427
  431SOL    HW1 1311   1.498   1.495   4.508
  431SOL    HW2 1312   1.496   1.521   4.347
  432SOL     OW 1313   1.135   0.703   4.441
  432SOL    HW1 1314   1.192   0.781   4.416
  432SOL    HW2 1315   1.075   0.729   4.517
  433SOL     OW 1316   1.755   0.607   3.955
  433SOL    HW1 1317   1.743   0.594   3.856
  433SOL    HW2 1318   1.725   0.526   4.004
  434SOL     OW 1319   0.768   1.144   4.747
  434SOL    HW1 1320   0.690   1.161   4.807
  434SOL    HW2 1321   0.802   1.231   4.711
  435SOL     OW 1322   0.685   1.012   4.389
  435SOL    HW1 1323   0.754   0.996   4.459
  435SOL    HW2 1324   0.612   1.069   4.427
  436SOL     OW 1325   0.335   1.435   4.785
  436SOL    HW1 1326   0.257   1.404   4.732
  436SOL    HW2 1327   0.393   1.493   4.728
  437SOL     OW 1328   1.603   0.447   4.461
  437SOL    HW1 1329   1.529   0.493   4.411
  437SOL    HW2 1330   1.654   0.515   4.514
  438SOL     OW 1331   0.231   1.713   4.207
  438SOL    HW1 1332   0.265   1.790   4.261
  438SOL    HW2 1333   0.275   1.713   4.117
  439SOL     OW 1334   0.230   1.434   4.262
  439SOL    HW1 1335   0.204   1.530   4.262
  439SOL    HW2 1336   0.159   1.380   4.307
  440SOL     OW 1337   0.240   1.091   4.610
  440SOL    HW1 1338   0.254   1.007   4.662
  440SOL    HW2 1339   0.185   1.155   4.665
  441SOL     OW 1340   0.606   0.964   3.847
  441SOL    HW1 1341   0.613   1.048   3.793
  441SOL    HW2 1342   0.652   0.977   3.935
  442SOL     OW 1343   0.122   0.643   4.287
  442SOL    HW1 1344   0.077   0.555   4.304
  442SOL    HW2 1345   0.121   0.697   4.371
  443SOL     OW 1346   1.842   1.767   4.083
  443SOL    HW1 1347   1.896   1.738   4.163
  443SOL    HW2 1348   1.872   1.857   4.054
  444SOL     OW 1349   0.027   1.596   3.841
  444SOL    HW1 1350   0.008   1.500   3.862
  444SOL    HW2 1351  -0.006   1.654   3.916
  445SOL     OW 1352   1.689   0.922   4.336
  445SOL    HW1 1353   1.784   0.893   4.344
  445SOL    HW2 1354   1.681   0.987   4.261
  446SOL     OW 1355   1.641   1.108   4.156
  446SOL    HW1 1356   1.727   1.110   4.104
  446SOL    HW2 1357   1.655   1.155   4.244
  447SOL     OW 1358   0.613   1.365   4.450
  447SOL    HW1 1359   0.564   1.278   4.459
  447SOL    HW2 1360   0.590   1.408   4.363
  448SOL     OW 1361   0.809   0.004   4.226
  448SOL    HW1 1362   0.849   0.095   4.217
  448SOL    HW2 1363   0.709   0.012   4.232
  449SOL     OW 1364   0.197   0.976   4.988
  449SOL    HW1 1365   0.286   0.931   4.974
  449SOL    HW2 1366   0.124   0.911   4.969
  450SOL     OW 1367   1.525   0.999   3.914
  450SOL    HW1 1368   1.462   0.923   3.927
  450SOL    HW2 1369   1.573   1.017   4.000
  451SOL     OW 1370   1.466   1.417   4.677
  451SOL    HW1 1371   1.407   1.423   4.757
  451SOL    HW2 1372   1.451   1.329   4.631
  452SOL     OW 1373   1.667   1.714   4.296
  452SOL    HW1 1374   1.626   1.691   4.208
  452SOL    HW2 1375   1.649   1.640   4.361
  453SOL     OW 1376   0.598   0.729   3.994
  453SOL    HW1 1377   0.622   0.798   3.926
  453SOL    HW2 1378   0.520   0.762   4.048
  454SOL     OW 1379   1.281   0.345   4.668
  454SOL    HW1 1380   1.195   0.295   4.655
  454SOL    HW2 1381   1.343   0.291   4.724
  455SOL     OW 1382   1.576   1.662   4.031
  455SOL    HW1 1383   1.665   1.708   4.034
  455SOL    HW2 1384   1.555   1.638   3.936
  456SOL     OW 1385   1.041   0.701   4.153
  456SOL    HW1 1386   1.067   0.697   4.249
  456SOL    HW2 1387   0.956   0.650   4.139
  457SOL     OW 1388   0.076   0.811   4.513
  457SOL    HW1 1389   0.175   0.799   4.522
  457SOL    HW2 1390   0.052   0.906   4.534
  458SOL     OW 1391   0.865   0.348   3.919
  458SOL    HW1 1392   0.924   0.411   3.870
  458SOL    HW2 1393   0.884   0.254   3.890
  459SOL     OW 1394   1.362   1.144   4.269
  459SOL    HW1 1395   1.445   1.115   4.221
  459SOL    HW2 1396   1.313   1.211   4.213
  460SOL     OW 1397   0.550   0.196   4.609
  460SOL    HW1 1398   0.545   0.191   4.709
  460SOL    HW2 1399   0.552   0.292   4.580
  461SOL     OW 1400   1.008   1.456   4.201
  461SOL    HW1 1401   0.962   1.528   4.149
  461SOL    HW2 1402   1.004   1.476   4.299
  462SOL     OW 1403   0.351   1.801   4.577
  462SOL    HW1 1404   0.401   1.715   4.583
  462SOL    HW2 1405   0.416   1.878   4.574
  463SOL     OW 1406   1.795   1.066   4.597
  463SOL    HW1 1407   1.733   1.051   4.521
  463SOL    HW2 1408   1.743   1.077   4.682
  464SOL     OW 1409   0.321   0.943   3.966
  464SOL    HW1 1410   0.403   0.982   3.924
  464SOL    HW2 1411   0.294   0.861   3.917
  465SOL     OW 1412   1.458   0.735   4.452
  465SOL    HW1 1413   1.453   0.670   4.527
  465SOL    HW2 1414   1.538   0.794   4.465
  466SOL     OW 1415   1.111   1.776   3.961
  466SOL    HW1 1416   1.051   1.714   4.011
  466SOL    HW2 1417   1.142   1.732   3.876
  467SOL     OW 1418   1.632   1.377   3.805
  467SOL    HW1 1419   1.600   1.471   3.795
  467SOL    HW2 1420   1.556   1.314   3.793
  468SOL     OW 1421   0.464   1.743   4.047
  468SOL    HW1 1422   0.497   1.782   4.133
  468SOL    HW2 1423   0.540   1.736   3.982
  469SOL     OW 1424   1.400   0.107   4.150
  469SOL    HW1 1425   1.376   0.070   4.060
  469SOL    HW2 1426   1.499   0.123   4.154
  470SOL     OW 1427   0.249   1.785   4.965
  470SOL    HW1 1428   0.306   1.720   5.015
  470SOL    HW2 1429   0.233   1.752   4.872
  471SOL     OW 1430   0.940   1.698   4.628
  471SOL    HW1 1431   1.020   1.641   4.649
  471SOL    HW2 1432   0.891   1.658   4.551
  472SOL     OW 1433   0.382   0.700   4.204
  472SOL    HW1 1434   0.427   0.610   4.201
  472SOL    HW2 1435   0.288   0.689   4.237
  473SOL     OW 1436   0.614   0.122   3.841
  473SOL    HW1 1437   0.712   0.100   3.848
  473SOL    HW2 1438   0.583   0.105   3.748
  474SOL     OW 1439   0.803   1.402   4.648
  474SOL    HW1 1440   0.893   1.416   4.606
  474SOL    HW2 1441   0.732   1.404   4.577
  475SOL     OW 1442   0.922   0.503   4.623
  475SOL    HW1 1443   0.897   0.494   4.527
  475SOL    HW2 1444   0.970   0.421   4.654
  476SOL     OW 1445   0.539   0.064   4.236
  476SOL    HW1 1446   0.458   0.065   4.294
  476SOL    HW2 1447   0.542   0.147   4.181
  477SOL     OW 1448   1.434   1.188   3.765
  477SOL    HW1 1449   1.466   1.112   3.822
  477SOL    HW2 1450   1.342   1.215   3.795
  478SOL     OW 1451   0.297   0.035   3.895
  478SOL    HW1 1452   0.346   0.119   3.874
  478SOL    HW2 1453   0.359  -0.030   3.940
  479SOL     OW 1454   0.935   0.236   4.204
  479SOL    HW1 1455   0.887   0.277   4.126
  479SOL    HW2 1456   1.034   0.234   4.185
  480SOL     OW 1457   1.227   1.570   4.517
  480SOL    HW1 1458   1.248   1.644   4.452
  480SOL    HW2 1459   1.295   1.570   4.590
  481SOL     OW 1460   0.459   1.152   4.465
  481SOL    HW1 1461   0.388   1.125   4.530
  481SOL    HW2 1462   0.433   1.124   4.372
  482SOL     OW 1463   1.271   1.797   4.315
  482SOL    HW1 1464   1.315   1.861   4.251
  482SOL    HW2 1465   1.221   1.849   4.385
  483SOL     OW 1466   1.032   0.549   3.740
  483SOL    HW1 1467   0.991   0.631   3.701
  483SOL    HW2 1468   1.096   0.575   3.813
  484SOL     OW 1469   0.866   0.454   4.366
  484SOL    HW1 1470   0.834   0.526   4.304
  484SOL    HW2 1471   0.890   0.373   4.313
  485SOL     OW 1472   1.017   0.039   4.477
  485SOL    HW1 1473   0.945   0.044   4.408
  485SOL    HW2 1474   0.993  -0.030   4.546
  486SOL     OW 1475   1.429   1.173   4.591
  486SOL    HW1 1476   1.374   1.089   4.584
  486SOL    HW2 1477   1.455   1.202   4.499
  487SOL     OW 1478   1.466   0.590   4.716
  487SOL    HW1 1479   1.436   0.495   4.723
  487SOL    HW2 1480   1.539   0.606   4.782
  488SOL     OW 1481   1.857   0.833   4.101
  488SOL    HW1 1482   1.899   0.769   4.165
  488SOL    HW2 1483   1.819   0.782   4.023
  489SOL     OW 1484   0.488   1.385   3.898
  489SOL    HW1 1485   0.401   1.370   3.945
  489SOL    HW2 1486   0.471   1.411   3.803
  490SOL     OW 1487   1.664   1.280   4.381
  490SOL    HW1 1488   1.763   1.288   4.395
  490SOL    HW2 1489   1.619   1.364   4.412
  491SOL     OW 1490   1.390   0.575   3.802
  491SOL    HW1 1491   1.336   0.554   3.883
  491SOL    HW2 1492   1.481   0.534   3.811
  492SOL     OW 1493   0.527   0.256   4.052
  492SOL    HW1 1494   0.554   0.197   3.977
  492SOL    HW2 1495   0.527   0.351   4.021
  493SOL     OW 1496   1.111   1.195   4.824
  493SOL    HW1 1497   1.071   1.239   4.905
  493SOL    HW2 1498   1.070   1.232   4.741
  494SOL     OW 1499   1.638   1.099   4.803
  494SOL    HW1 1500   1.643   1.180   4.862
  494SOL    HW2 1501   1.552   1.101   4.752
  495SOL     OW 1502   0.705   1.050   4.092
  495SOL    HW1 1503   0.691   1.057   4.191
  495SOL    HW2 1504   0.789   0.999   4.074
  496SOL     OW 1505   0.410   0.813   4.975
  496SOL    HW1 1506   0.496   0.825   5.025
  496SOL    HW2 1507   0.368   0.726   5.002
  497SOL     OW 1508   0.367   1.100   4.225
  497SOL    HW1 1509   0.360   1.183   4.169
  497SOL    HW2 1510   0.371   1.020   4.165
  498SOL     OW 1511   0.566   0.537   4.589
  498SOL    HW1 1512   0.578   0.603   4.515
  498SOL    HW2 1513   0.612   0.571   4.672
  499SOL     OW 1514   1.252   1.348   4.112
  499SOL    HW1 1515   1.302   1.425   4.152
  499SOL    HW2 1516   1.157   1.350   4.144
  500SOL     OW 1517   1.272   1.445   4.866
  500SOL    HW1 1518   1.319   1.458   4.953
  500SOL    HW2 1519   1.206   1.371   4.875
  501SOL     OW 1520   1.582   0.639   4.196
  501SOL    HW1 1521   1.551   0.700   4.269
  501SOL    HW2 1522   1.632   0.691   4.127
  502SOL     OW 1523   0.573   0.870   4.753
  502SOL    HW1 1524   0.617   0.959   4.744
  502SOL    HW2 1525   0.510   0.870   4.830
  503SOL     OW 1526   1.209   0.525   3.999
  503SOL    HW1 1527   1.222   0.441   4.053
  503SOL    HW2 1528   1.180   0.599   4.059
  504SOL     OW 1529   0.307   0.213   4.955
  504SOL    HW1 1530   0.284   0.250   5.045
  504SOL    HW2 1531   0.277   0.118   4.949
  505SOL     OW 1532   0.732   0.634   4.788
  505SOL    HW1 1533   0.791   0.608   4.712
  505SOL    HW2 1534   0.704   0.730   4.777
  506SOL     OW 1535   0.307   0.063   4.342
  506SOL    HW1 1536   0.296   0.157   4.375
  506SOL    HW2 1537   0.302   0.000   4.419
  507SOL     OW 1538   1.622   0.367   4.098
  507SOL    HW1 1539   1.624   0.291   4.162
  507SOL    HW2 1540   1.574   0.444   4.138
  508SOL     OW 1541   1.023   0.766   4.690
  508SOL    HW1 1542   1.038   0.787   4.786
  508SOL    HW2 1543   0.993   0.671   4.681
  509SOL     OW 1544   1.540   0.274   3.849
  509SOL    HW1 1545   1.479   0.199   3.872
  509SOL    HW2 1546   1.562   0.326   3.932
  510SOL     OW 1547   1.303   0.838   3.766
  510SOL    HW1 1548   1.337   0.745   3.781
  510SOL    HW2 1549   1.321   0.865   3.671
  511SOL     OW 1550   1.068   1.333   4.573
  511SOL    HW1 1551   1.075   1.249   4.518
  511SOL    HW2 1552   1.130   1.402   4.537
  512SOL     OW 1553   0.319   0.810   4.673
  512SOL    HW1 1554   0.412   0.846   4.678
  512SOL    HW2 1555   0.313   0.725   4.725
  513SOL     OW 1556   0.339   0.509   4.730
  513SOL    HW1 1557   0.287   0.426   4.713
  513SOL    HW2 1558   0.416   0.514   4.666
  514SOL     OW 1559   0.008   1.326   3.924
  514SOL    HW1 1560  -0.085   1.347   3.893
  514SOL    HW2 1561   0.018   1.227   3.937
  515SOL     OW 1562   0.088   1.801   4.651
  515SOL    HW1 1563   0.046   1.715   4.624
  515SOL    HW2 1564   0.182   1.804   4.617
  516SOL     OW 1565   0.504   1.568   4.634
  516SOL    HW1 1566   0.570   1.642   4.643
  516SOL    HW2 1567   0.548   1.489   4.592
  517SOL     OW 1568   1.002   0.796   4.962
  517SOL    HW1 1569   1.043   0.764   5.048
  517SOL    HW2 1570   0.906   0.769   4.959
  518SOL     OW 1571   0.040   0.544   4.838
  518SOL    HW1 1572   0.125   0.511   4.797
  518SOL    HW2 1573   0.053   0.559   4.936
  519SOL     OW 1574   0.815   0.572   4.049
  519SOL    HW1 1575   0.822   0.483   4.003
  519SOL    HW2 1576   0.721   0.606   4.041
  520SOL     OW 1577   1.657   0.604   4.930
  520SOL    HW1 1578   1.619   0.535   4.992
  520SOL    HW2 1579   1.739   0.568   4.886
  521SOL     OW 1580   0.671   0.464   4.993
  521SOL    HW1 1581   0.637   0.375   4.963
  521SOL    HW2 1582   0.697   0.518   4.913
  522SOL     OW 1583   0.473   0.500   3.915
  522SOL    HW1 1584   0.534   0.580   3.919
  522SOL    HW2 1585   0.378   0.531   3.922
  523SOL     OW 1586   1.302   0.855   4.033
  523SOL    HW1 1587   1.216   0.824   4.075
  523SOL    HW2 1588   1.298   0.841   3.934
  524SOL     OW 1589   1.759   1.747   4.878
  524SOL    HW1 1590   1.820   1.777   4.805
  524SOL    HW2 1591   1.721   1.658   4.856
  525SOL     OW 1592   0.083   1.258   4.746
  525SOL    HW1 1593   0.078   1.257   4.846
  525SOL    HW2 1594   0.000   1.217   4.708
  526SOL     OW 1595   1.726   0.135   4.247
  526SOL    HW1 1596   1.799   0.118   4.180
  526SOL    HW2 1597   1.695   0.048   4.285
  527SOL     OW 1598   1.388   1.573   4.201
  527SOL    HW1 1599   1.455   1.585   4.127
  527SOL    HW2 1600   1.348   1.662   4.224
  528SOL     OW 1601   1.280   0.927   4.396
  528SOL    HW1 1602   1.340   0.846   4.398
  528SOL    HW2 1603   1.320   0.996   4.336
  529SOL     OW 1604   0.672   1.616   3.878
  529SOL    HW1 1605   0.681   1.626   3.779
  529SOL    HW2 1606   0.632   1.527   3.899
  530SOL     OW 1607   1.841   0.175   4.687
  530SOL    HW1 1608   1.880   0.090   4.651
  530SOL    HW2 1609   1.743   0.177   4.668
  531SOL     OW 1610   0.263   0.326   4.444
  531SOL    HW1 1611   0.184   0.377   4.410
  531SOL    HW2 1612   0.254   0.311   4.542
  532SOL     OW 1613   1.194   1.612   3.755
  532SOL    HW1 1614   1.200   1.519   3.792
  532SOL    HW2 1615   1.135   1.612   3.675
  533SOL     OW 1616   0.822   1.002   5.096
  533SOL    HW1 1617   0.862   1.001   5.004
  533SOL    HW2 1618   0.832   1.094   5.136
  534SOL     OW 1619   0.916   0.910   4.015
  534SOL    HW1 1620   0.979   0.948   3.947
  534SOL    HW2 1621   0.956   0.827   4.054
  535SOL     OW 1622   1.504   1.607   3.768
  535SOL    HW1 1623   1.412   1.644   3.775
  535SOL    HW2 1624   1.542   1.627   3.678
  536SOL     OW 1625   1.039   1.098   4.420
  536SOL    HW1 1626   0.969   1.051   4.474
  536SOL    HW2 1627   1.098   1.030   4.377
  537SOL     OW 1628   1.014   0.236   4.695
  537SOL    HW1 1629   1.006   0.200   4.602
  537SOL    HW2 1630   1.012   0.160   4.760
  538SOL     OW 1631   0.590   1.487   4.215
  538SOL    HW1 1632   0.632   1.429   4.145
  538SOL    HW2 1633   0.546   1.566   4.171
  539SOL     OW 1634   1.709   0.385   5.105
  539SOL    HW1 1635   1.782   0.454   5.109
  539SOL    HW2 1636   1.737   0.310   5.046
  540SOL     OW 1637   0.255   1.348   4.014
  540SOL    HW1 1638   0.159   1.349   3.987
  540SOL    HW2 1639   0.267   1.401   4.098
  541SOL     OW 1640   0.075   0.345   3.757
  541SOL    HW1 1641  -0.017   0.317   3.728
  541SOL    HW2 1642   0.106   0.422   3.701
  542SOL     OW 1643   0.072   0.166   4.042
  542SOL    HW1 1644   0.055   0.249   3.988
  542SOL    HW2 1645   0.162   0.129   4.020
  543SOL     OW 1646   1.183   1.335   3.843
  543SOL    HW1 1647   1.084   1.324   3.845
  543SOL    HW2 1648   1.217   1.350   3.936
  544SOL     OW 1649   1.493   1.767   4.683
  544SOL    HW1 1650   1.526   1.831   4.614
  544SOL    HW2 1651   1.559   1.761   4.758
  545SOL     OW 1652   1.674   0.883   4.978
  545SOL    HW1 1653   1.647   0.794   4.941
  545SOL    HW2 1654   1.675   0.951   4.905
  546SOL     OW 1655   1.225   0.325   4.173
  546SOL    HW1 1656   1.290   0.251   4.162
  546SOL    HW2 1657   1.245   0.375   4.257
  547SOL     OW 1658   0.594   0.745   4.376
  547SOL    HW1 1659   0.644   0.830   4.357
  547SOL    HW2 1660   0.506   0.747   4.328
  548SOL     OW 1661   0.859   1.374   3.740
  548SOL    HW1 1662   0.813   1.389   3.828
  548SOL    HW2 1663   0.903   1.459   3.710
  549SOL     OW 1664   0.661   1.790   4.677
  549SOL    HW1 1665   0.615   1.878   4.664
  549SOL    HW2 1666   0.760   1.802   4.670
  550SOL     OW 1667   0.859   0.956   4.585
  550SOL    HW1 1668   0.913   0.887   4.633
  550SOL    HW2 1669   0.827   1.025   4.651
  551SOL     OW 1670   1.083   0.984   3.811
  551SOL    HW1 1671   1.060   1.037   3.729
  551SOL    HW2 1672   1.164   0.928   3.792
  552SOL     OW 1673   1.861   1.569   4.575
  552SOL    HW1 1674   1.790   1.557   4.505
  552SOL    HW2 1675   1.862   1.490   4.635
  553SOL     OW 1676   0.079   1.240   4.377
  553SOL    HW1 1677   0.078   1.193   4.465
  553SOL    HW2 1678   0.161   1.212   4.326
  554SOL     OW 1679   1.824   0.192   4.951
  554SOL    HW1 1680   1.820   0.102   4.995
  554SOL    HW2 1681   1.827   0.181   4.852
  555SOL     OW 1682   0.428   0.424   4.244
  555SOL    HW1 1683   0.458   0.352   4.182
  555SOL    HW2 1684   0.389   0.384   4.327
  556SOL     OW 1685   1.705   1.487   4.828
  556SOL    HW1 1686   1.612   1.462   4.801
  556SOL    HW2 1687   1.731   1.437   4.910
  557SOL     OW 1688   0.812   1.586   4.411
  557SOL    HW1 1689   0.844   1.596   4.317
  557SOL    HW2 1690   0.733   1.524   4.413
  558SOL     OW 1691   1.424   0.214   4.836
  558SOL    HW1 1692   1.476   0.149   4.891
  558SOL    HW2 1693   1.375   0.277   4.897
  559SOL     OW 1694   0.770   1.330   4.025
  559SOL    HW1 1695   0.724   1.243   4.042
  559SOL    HW2 1696   0.861   1.327   4.066
  560SOL     OW 1697   1.352   0.052   3.892
  560SOL    HW1 1698   1.387   0.011   3.808
  560SOL    HW2 1699   1.262   0.014   3.912
  561SOL     OW 1700   1.300   0.453   4.415
  561SOL    HW1 1701   1.241   0.533   4.419
  561SOL    HW2 1702   1.315   0.418   4.508
  562SOL     OW 1703   1.593   0.221   4.606
  562SOL    HW1 1704   1.509   0.220   4.660
  562SOL    HW2 1705   1.595   0.304   4.550
  563SOL     OW 1706   0.039   1.077   4.024
  563SOL    HW1 1707   0.138   1.066   4.015
  563SOL    HW2 1708  -0.001   0.991   4.056
  564SOL     OW 1709   0.875   1.646   4.061
  564SOL    HW1 1710   0.798   1.611   4.007
  564SOL    HW2 1711   0.843   1.717   4.123
  565SOL     OW 1712   0.230   2.490   0.113
  565SOL    HW1 1713   0.137   2.488   0.150
  565SOL    HW2 1714   0.231   2.451   0.021
  566SOL     OW 1715   0.225   2.137   0.996
  566SOL    HW1 1716   0.260   2.120   1.088
  566SOL    HW2 1717   0.137   2.092   0.984
  567SOL     OW 1718   0.019   2.230   0.647
  567SOL    HW1 1719  -0.063   2.273   0.686
  567SOL    HW2 1720  -0.009   2.157   0.584
  568SOL     OW 1721   0.569   3.137   1.165
  568SOL    HW1 1722   0.476   3.130   1.128
  568SOL    HW2 1723   0.580   3.226   1.209
  569SOL     OW 1724   1.555   3.373   0.703
  569SOL    HW1 1725   1.498   3.357   0.784
  569SOL    HW2 1726   1.496   3.383   0.623
  570SOL     OW 1727   1.135   2.565   0.717
  570SOL    HW1 1728   1.192   2.643   0.692
  570SOL    HW2 1729   1.075   2.591   0.793
  571SOL     OW 1730   1.755   2.469   0.231
  571SOL    HW1 1731   1.743   2.456   0.132
  571SOL    HW2 1732   1.725   2.388   0.280
  572SOL     OW 1733   0.768   3.006   1.023
  572SOL    HW1 1734   0.690   3.023   1.083
  572SOL    HW2 1735   0.802   3.093   0.987
  573SOL     OW 1736   0.850   2.660   1.823
  573SOL    HW1 1737   0.846   2.736   1.888
  573SOL    HW2 1738   0.872   2.696   1.732
  574SOL     OW 1739   0.685   2.874   0.665
  574SOL    HW1 1740   0.754   2.858   0.735
  574SOL    HW2 1741   0.612   2.931   0.703
  575SOL     OW 1742   0.686   3.023   1.803
  575SOL    HW1 1743   0.746   3.102   1.817
  575SOL    HW2 1744   0.600   3.054   1.762
  576SOL     OW 1745   0.335   3.297   1.061
  576SOL    HW1 1746   0.257   3.266   1.008
  576SOL    HW2 1747   0.393   3.355   1.004
  577SOL     OW 1748   1.460   3.367   1.339
  577SOL    HW1 1749   1.484   3.461   1.365
  577SOL    HW2 1750   1.444   3.313   1.421
  578SOL     OW 1751   0.438   2.254   1.499
  578SOL    HW1 1752   0.520   2.198   1.508
  578SOL    HW2 1753   0.357   2.196   1.503
  579SOL     OW 1754   1.603   2.309   0.737
  579SOL    HW1 1755   1.529   2.355   0.687
  579SOL    HW2 1756   1.654   2.377   0.790
  580SOL     OW 1757   0.231   3.575   0.483
  580SOL    HW1 1758   0.265   3.652   0.537
  580SOL    HW2 1759   0.275   3.575   0.393
  581SOL     OW 1760   1.127   3.203   1.690
  581SOL    HW1 1761   1.174   3.203   1.778
  581SOL    HW2 1762   1.079   3.116   1.679
  582SOL     OW 1763   0.230   3.296   0.538
  582SOL    HW1 1764   0.204   3.392   0.538
  582SOL    HW2 1765   0.159   3.242   0.583
  583SOL     OW 1766   0.240   2.953   0.886
  583SOL    HW1 1767   0.254   2.869   0.938
  583SOL    HW2 1768   0.185   3.017   0.941
  584SOL     OW 1769   0.620   3.648   1.439
  584SOL    HW1 1770   0.528   3.631   1.474
  584SOL    HW2 1771   0.648   3.740   1.465
  585SOL     OW 1772   0.606   2.826   0.123
  585SOL    HW1 1773   0.613   2.910   0.069
  585SOL    HW2 1774   0.652   2.839   0.211
  586SOL     OW 1775   1.594   1.976   1.480
  586SOL    HW1 1776   1.576   2.043   1.408
  586SOL    HW2 1777   1.591   2.022   1.569
  587SOL     OW 1778   0.122   2.505   0.563
  587SOL    HW1 1779   0.077   2.417   0.580
  587SOL    HW2 1780   0.121   2.559   0.647
  588SOL     OW 1781   1.842   3.629   0.359
  588SOL    HW1 1782   1.896   3.600   0.439
  588SOL    HW2 1783   1.872   3.719   0.330
  589SOL     OW 1784   0.027   3.458   0.117
  589SOL    HW1 1785   0.008   3.362   0.138
  589SOL    HW2 1786  -0.006   3.516   0.192
  590SOL     OW 1787   1.689   2.784   0.612
  590SOL    HW1 1788   1.784   2.755   0.620
  590SOL    HW2 1789   1.681   2.849   0.537
  591SOL     OW 1790   1.641   2.970   0.432
  591SOL    HW1 1791   1.727   2.972   0.380
  591SOL    HW2 1792   1.655   3.017   0.520
  592SOL     OW 1793   0.113   2.599   1.597
  592SOL    HW1 1794   0.201   2.586   1.642
  592SOL    HW2 1795   0.100   2.696   1.575
  593SOL     OW 1796   0.613   3.227   0.726
  593SOL    HW1 1797   0.564   3.140   0.735
  593SOL    HW2 1798   0.590   3.270   0.639
  594SOL     OW 1799   1.293   3.090   1.423
  594SOL    HW1 1800   1.330   3.017   1.365
  594SOL    HW2 1801   1.345   3.095   1.508
  595SOL     OW 1802   0.809   1.866   0.502
  595SOL    HW1 1803   0.849   1.957   0.493
  595SOL    HW2 1804   0.709   1.874   0.508
  596SOL     OW 1805   0.197   2.838   1.264
  596SOL    HW1 1806   0.286   2.793   1.250
  596SOL    HW2 1807   0.124   2.773   1.245
  597SOL     OW 1808   1.525   2.861   0.190
  597SOL    HW1 1809   1.462   2.785   0.203
  597SOL    HW2 1810   1.573   2.879   0.276
  598SOL     OW 1811   1.187   3.654   1.616
  598SOL    HW1 1812   1.211   3.714   1.540
  598SOL    HW2 1813   1.194   3.559   1.586
  599SOL     OW 1814   0.317   2.113   1.801
  599SOL    HW1 1815   0.388   2.184   1.807
  599SOL    HW2 1816   0.229   2.152   1.829
  600SOL     OW 1817   1.466   3.279   0.953
  600SOL    HW1 1818   1.407   3.285   1.033
  600SOL    HW2 1819   1.451   3.191   0.907
  601SOL     OW 1820   1.667   3.576   0.572
  601SOL    HW1 1821   1.626   3.553   0.484
  601SOL    HW2 1822   1.649   3.502   0.637
  602SOL     OW 1823   0.598   2.591   0.270
  602SOL    HW1 1824   0.622   2.660   0.202
  602SOL    HW2 1825   0.520   2.624   0.324
  603SOL     OW 1826   1.281   2.207   0.944
  603SOL    HW1 1827   1.195   2.157   0.931
  603SOL    HW2 1828   1.343   2.153   1.000
  604SOL     OW 1829   1.576   3.524   0.307
  604SOL    HW1 1830   1.665   3.570   0.310
  604SOL    HW2 1831   1.555   3.500   0.212
  605SOL     OW 1832   0.807   2.467   1.465
  605SOL    HW1 1833   0.760   2.464   1.554
  605SOL    HW2 1834   0.756   2.412   1.399
  606SOL     OW 1835   1.394   2.331   1.674
  606SOL    HW1 1836   1.374   2.374   1.762
  606SOL    HW2 1837   1.472   2.269   1.683
  607SOL     OW 1838   0.973   2.752   1.572
  607SOL    HW1 1839   1.019   2.668   1.543
  607SOL    HW2 1840   0.917   2.786   1.497
  608SOL     OW 1841   0.991   2.272   1.242
  608SOL    HW1 1842   0.914   2.306   1.296
  608SOL    HW2 1843   0.957   2.221   1.163
  609SOL     OW 1844   1.041   2.563   0.429
  609SOL    HW1 1845   1.067   2.559   0.525
  609SOL    HW2 1846   0.956   2.512   0.415
  610SOL     OW 1847   0.076   2.673   0.789
  610SOL    HW1 1848   0.175   2.661   0.798
  610SOL    HW2 1849   0.052   2.768   0.810
  611SOL     OW 1850   0.130   3.683   1.571
  611SOL    HW1 1851   0.120   3.668   1.670
  611SOL    HW2 1852   0.044   3.719   1.535
  612SOL     OW 1853   0.865   2.210   0.195
  612SOL    HW1 1854   0.924   2.273   0.146
  612SOL    HW2 1855   0.884   2.116   0.166
  613SOL     OW 1856   1.719   2.447   1.831
  613SOL    HW1 1857   1.693   2.536   1.795
  613SOL    HW2 1858   1.717   2.379   1.758
  614SOL     OW 1859   1.362   3.006   0.545
  614SOL    HW1 1860   1.445   2.977   0.497
  614SOL    HW2 1861   1.313   3.073   0.489
  615SOL     OW 1862   0.550   2.058   0.885
  615SOL    HW1 1863   0.545   2.053   0.985
  615SOL    HW2 1864   0.552   2.154   0.856
  616SOL     OW 1865   1.008   3.318   0.477
  616SOL    HW1 1866   0.962   3.390   0.425
  616SOL    HW2 1867   1.004   3.338   0.575
  617SOL     OW 1868   0.351   3.663   0.853
  617SOL    HW1 1869   0.401   3.577   0.859
  617SOL    HW2 1870   0.416   3.740   0.850
  618SOL     OW 1871   1.795   2.928   0.873
  618SOL    HW1 1872   1.733   2.913   0.797
  618SOL    HW2 1873   1.743   2.939   0.958
  619SOL     OW 1874   1.227   3.412   1.506
  619SOL    HW1 1875   1.233   3.335   1.570
  619SOL    HW2 1876   1.175   3.386   1.426
  620SOL     OW 1877   0.321   2.805   0.242
  620SOL    HW1 1878   0.403   2.844   0.200
  620SOL    HW2 1879   0.294   2.723   0.193
  621SOL     OW 1880   1.458   2.597   0.728
  621SOL    HW1 1881   1.453   2.532   0.803
  621SOL    HW2 1882   1.538   2.656   0.741
  622SOL     OW 1883   0.461   3.128   1.727
  622SOL    HW1 1884   0.411   3.129   1.641
  622SOL    HW2 1885   0.398   3.110   1.803
  623SOL     OW 1886   1.111   3.638   0.237
  623SOL    HW1 1887   1.051   3.576   0.287
  623SOL    HW2 1888   1.142   3.594   0.152
  624SOL     OW 1889   0.202   2.147   1.498
  624SOL    HW1 1890   0.122   2.207   1.485
  624SOL    HW2 1891   0.192   2.098   1.584
  625SOL     OW 1892   1.632   3.239   0.081
  625SOL    HW1 1893   1.600   3.333   0.071
  625SOL    HW2 1894   1.556   3.176   0.069
  626SOL     OW 1895   0.464   3.605   0.323
  626SOL    HW1 1896   0.497   3.644   0.409
  626SOL    HW2 1897   0.540   3.598   0.258
  627SOL     OW 1898   1.400   1.969   0.426
  627SOL    HW1 1899   1.376   1.932   0.336
  627SOL    HW2 1900   1.499   1.985   0.430
  628SOL     OW 1901   0.249   3.647   1.241
  628SOL    HW1 1902   0.306   3.582   1.291
  628SOL    HW2 1903   0.233   3.614   1.148
  629SOL     OW 1904   0.940   3.560   0.904
  629SOL    HW1 1905   1.020   3.503   0.925
  629SOL    HW2 1906   0.891   3.520   0.827
  630SOL     OW 1907   0.382   2.562   0.480
  630SOL    HW1 1908   0.427   2.472   0.477
  630SOL    HW2 1909   0.288   2.551   0.513
  631SOL     OW 1910   1.547   2.084   1.729
  631SOL    HW1 1911   1.542   2.121   1.821
  631SOL    HW2 1912   1.475   2.015   1.717
  632SOL     OW 1913   0.614   1.984   0.117
  632SOL    HW1 1914   0.712   1.962   0.124
  632SOL    HW2 1915   0.583   1.967   0.024
  633SOL     OW 1916   0.781   2.126   1.749
  633SOL    HW1 1917   0.848   2.065   1.792
  633SOL    HW2 1918   0.708   2.145   1.814
  634SOL     OW 1919   0.888   3.376   1.195
  634SOL    HW1 1920   0.865   3.351   1.101
  634SOL    HW2 1921   0.949   3.307   1.234
  635SOL     OW 1922   1.351   2.452   1.433
  635SOL    HW1 1923   1.379   2.409   1.518
  635SOL    HW2 1924   1.376   2.548   1.434
  636SOL     OW 1925   0.803   3.264   0.924
  636SOL    HW1 1926   0.893   3.278   0.882
  636SOL    HW2 1927   0.732   3.266   0.853
  637SOL     OW 1928   0.922   2.365   0.899
  637SOL    HW1 1929   0.897   2.356   0.803
  637SOL    HW2 1930   0.970   2.283   0.930
  638SOL     OW 1931   0.539   1.926   0.512
  638SOL    HW1 1932   0.458   1.927   0.570
  638SOL    HW2 1933   0.542   2.009   0.457
  639SOL     OW 1934   1.434   3.050   0.041
  639SOL    HW1 1935   1.466   2.974   0.098
  639SOL    HW2 1936   1.342   3.077   0.071
  640SOL     OW 1937   0.297   1.897   0.171
  640SOL    HW1 1938   0.346   1.981   0.150
  640SOL    HW2 1939   0.359   1.832   0.216
  641SOL     OW 1940   0.935   2.098   0.480
  641SOL    HW1 1941   0.887   2.139   0.402
  641SOL    HW2 1942   1.034   2.096   0.461
  642SOL     OW 1943   1.076   2.545   1.464
  642SOL    HW1 1944   0.996   2.484   1.467
  642SOL    HW2 1945   1.157   2.492   1.440
  643SOL     OW 1946   1.227   3.432   0.793
  643SOL    HW1 1947   1.248   3.506   0.728
  643SOL    HW2 1948   1.295   3.432   0.866
  644SOL     OW 1949   0.459   3.014   0.741
  644SOL    HW1 1950   0.388   2.987   0.806
  644SOL    HW2 1951   0.433   2.986   0.648
  645SOL     OW 1952   1.271   3.659   0.591
  645SOL    HW1 1953   1.315   3.723   0.527
  645SOL    HW2 1954   1.221   3.711   0.661
  646SOL     OW 1955   1.032   2.411   0.016
  646SOL    HW1 1956   0.991   2.493  -0.023
  646SOL    HW2 1957   1.096   2.437   0.089
  647SOL     OW 1958   0.078   2.418   1.386
  647SOL    HW1 1959   0.170   2.417   1.345
  647SOL    HW2 1960   0.072   2.492   1.453
  648SOL     OW 1961   0.561   2.084   1.147
  648SOL    HW1 1962   0.599   2.000   1.184
  648SOL    HW2 1963   0.473   2.103   1.191
  649SOL     OW 1964   0.866   2.316   0.642
  649SOL    HW1 1965   0.834   2.388   0.580
  649SOL    HW2 1966   0.890   2.235   0.589
  650SOL     OW 1967   1.017   1.901   0.753
  650SOL    HW1 1968   0.945   1.906   0.684
  650SOL    HW2 1969   0.993   1.832   0.822
  651SOL     OW 1970   1.429   3.035   0.867
  651SOL    HW1 1971   1.374   2.951   0.860
  651SOL    HW2 1972   1.455   3.064   0.775
  652SOL     OW 1973   1.466   2.452   0.992
  652SOL    HW1 1974   1.436   2.357   0.999
  652SOL    HW2 1975   1.539   2.468   1.058
  653SOL     OW 1976   1.857   2.695   0.377
  653SOL    HW1 1977   1.899   2.631   0.441
  653SOL    HW2 1978   1.819   2.644   0.299
  654SOL     OW 1979   0.488   3.247   0.174
  654SOL    HW1 1980   0.401   3.232   0.221
  654SOL    HW2 1981   0.471   3.273   0.079
  655SOL     OW 1982   1.664   3.142   0.657
  655SOL    HW1 1983   1.763   3.150   0.671
  655SOL    HW2 1984   1.619   3.226   0.688
  656SOL     OW 1985   1.390   2.437   0.078
  656SOL    HW1 1986   1.336   2.416   0.159
  656SOL    HW2 1987   1.481   2.396   0.087
  657SOL     OW 1988   0.527   2.118   0.328
  657SOL    HW1 1989   0.554   2.059   0.253
  657SOL    HW2 1990   0.527   2.213   0.297
  658SOL     OW 1991   1.754   3.085   1.588
  658SOL    HW1 1992   1.845   3.046   1.575
  658SOL    HW2 1993   1.762   3.181   1.612
  659SOL     OW 1994   1.064   3.209   1.340
  659SOL    HW1 1995   0.984   3.186   1.395
  659SOL    HW2 1996   1.147   3.183   1.389
  660SOL     OW 1997   1.592   3.491   1.625
  660SOL    HW1 1998   1.619   3.525   1.535
  660SOL    HW2 1999   1.671   3.453   1.671
  661SOL     OW 2000   1.111   3.057   1.100
  661SOL    HW1 2001   1.071   3.101   1.181
  661SOL    HW2 2002   1.070   3.094   1.017
  662SOL     OW 2003   1.638   2.961   1.079
  662SOL    HW1 2004   1.643   3.042   1.138
  662SOL    HW2 2005   1.552   2.963   1.028
  663SOL     OW 2006   0.915   1.951   1.402
  663SOL    HW1 2007   0.940   1.931   1.307
  663SOL    HW2 2008   0.987   2.007   1.444
  664SOL     OW 2009   0.980   2.978   1.719
  664SOL    HW1 2010   0.881   2.984   1.729
  664SOL    HW2 2011   1.003   2.898   1.663
  665SOL     OW 2012   0.705   2.912   0.368
  665SOL    HW1 2013   0.691   2.919   0.467
  665SOL    HW2 2014   0.789   2.861   0.350
  666SOL     OW 2015   0.410   2.675   1.251
  666SOL    HW1 2016   0.496   2.687   1.301
  666SOL    HW2 2017   0.368   2.588   1.278
  667SOL     OW 2018   1.274   2.248   1.262
  667SOL    HW1 2019   1.295   2.322   1.326
  667SOL    HW2 2020   1.185   2.265   1.219
  668SOL     OW 2021   0.064   3.426   1.331
  668SOL    HW1 2022   0.018   3.508   1.297
  668SOL    HW2 2023   0.162   3.445   1.340
  669SOL     OW 2024   0.367   2.962   0.501
  669SOL    HW1 2025   0.360   3.045   0.445
  669SOL    HW2 2026   0.371   2.882   0.441
  670SOL     OW 2027   0.566   2.399   0.865
  670SOL    HW1 2028   0.578   2.465   0.791
  670SOL    HW2 2029   0.612   2.433   0.948
  671SOL     OW 2030   1.252   3.210   0.388
  671SOL    HW1 2031   1.302   3.287   0.428
  671SOL    HW2 2032   1.157   3.212   0.420
  672SOL     OW 2033   1.272   3.307   1.142
  672SOL    HW1 2034   1.319   3.320   1.229
  672SOL    HW2 2035   1.206   3.233   1.151
  673SOL     OW 2036   1.582   2.501   0.472
  673SOL    HW1 2037   1.551   2.562   0.545
  673SOL    HW2 2038   1.632   2.553   0.403
  674SOL     OW 2039   0.354   3.372   1.329
  674SOL    HW1 2040   0.333   3.328   1.242
  674SOL    HW2 2041   0.451   3.398   1.332
  675SOL     OW 2042   0.402   2.613   1.598
  675SOL    HW1 2043   0.470   2.668   1.551
  675SOL    HW2 2044   0.442   2.525   1.625
  676SOL     OW 2045   1.587   2.641   1.670
  676SOL    HW1 2046   1.495   2.679   1.665
  676SOL    HW2 2047   1.647   2.688   1.605
  677SOL     OW 2048   1.013   1.967   1.770
  677SOL    HW1 2049   1.019   2.052   1.718
  677SOL    HW2 2050   1.045   1.891   1.713
  678SOL     OW 2051   0.504   1.912   1.740
  678SOL    HW1 2052   0.462   1.855   1.670
  678SOL    HW2 2053   0.438   1.981   1.772
  679SOL     OW 2054   0.573   2.732   1.029
  679SOL    HW1 2055   0.617   2.821   1.020
  679SOL    HW2 2056   0.510   2.732   1.106
  680SOL     OW 2057   1.360   2.724   1.045
  680SOL    HW1 2058   1.285   2.724   0.979
  680SOL    HW2 2059   1.397   2.632   1.054
  681SOL     OW 2060   1.209   2.387   0.275
  681SOL    HW1 2061   1.222   2.303   0.329
  681SOL    HW2 2062   1.180   2.461   0.335
  682SOL     OW 2063   0.307   2.075   1.231
  682SOL    HW1 2064   0.284   2.112   1.321
  682SOL    HW2 2065   0.277   1.980   1.225
  683SOL     OW 2066   0.037   3.172   1.282
  683SOL    HW1 2067   0.090   3.123   1.350
  683SOL    HW2 2068   0.059   3.270   1.287
  684SOL     OW 2069   0.732   2.496   1.064
  684SOL    HW1 2070   0.791   2.470   0.988
  684SOL    HW2 2071   0.704   2.592   1.053
  685SOL     OW 2072   1.728   2.797   1.854
  685SOL    HW1 2073   1.682   2.790   1.765
  685SOL    HW2 2074   1.666   2.841   1.920
  686SOL     OW 2075   0.307   1.925   0.618
  686SOL    HW1 2076   0.296   2.019   0.651
  686SOL    HW2 2077   0.302   1.862   0.695
  687SOL     OW 2078   1.622   2.229   0.374
  687SOL    HW1 2079   1.624   2.153   0.438
  687SOL    HW2 2080   1.574   2.306   0.414
  688SOL     OW 2081   1.023   2.628   0.966
  688SOL    HW1 2082   1.038   2.649   1.062
  688SOL    HW2 2083   0.993   2.533   0.957
  689SOL     OW 2084   0.980   3.435   1.700
  689SOL    HW1 2085   0.960   3.479   1.612
  689SOL    HW2 2086   1.019   3.344   1.684
  690SOL     OW 2087   1.859   3.380   1.605
  690SOL    HW1 2088   1.873   3.407   1.510
  690SOL    HW2 2089   1.942   3.402   1.658
  691SOL     OW 2090   0.350   2.760   1.804
  691SOL    HW1 2091   0.426   2.804   1.852
  691SOL    HW2 2092   0.385   2.713   1.722
  692SOL     OW 2093   1.540   2.136   0.125
  692SOL    HW1 2094   1.479   2.061   0.148
  692SOL    HW2 2095   1.562   2.188   0.208
  693SOL     OW 2096   1.303   2.700   0.042
  693SOL    HW1 2097   1.337   2.607   0.057
  693SOL    HW2 2098   1.321   2.727  -0.053
  694SOL     OW 2099   1.068   3.195   0.849
  694SOL    HW1 2100   1.075   3.111   0.794
  694SOL    HW2 2101   1.130   3.264   0.813
  695SOL     OW 2102   0.319   2.672   0.949
  695SOL    HW1 2103   0.412   2.708   0.954
  695SOL    HW2 2104   0.313   2.587   1.001
  696SOL     OW 2105   0.339   2.371   1.006
  696SOL    HW1 2106   0.287   2.288   0.989
  696SOL    HW2 2107   0.416   2.376   0.942
  697SOL     OW 2108   1.138   2.242   1.678
  697SOL    HW1 2109   1.093   2.305   1.742
  697SOL    HW2 2110   1.231   2.273   1.661
  698SOL     OW 2111   1.160   2.069   1.477
  698SOL    HW1 2112   1.160   2.133   1.554
  698SOL    HW2 2113   1.188   2.117   1.394
  699SOL     OW 2114   0.008   3.188   0.200
  699SOL    HW1 2115  -0.085   3.209   0.169
  699SOL    HW2 2116   0.018   3.089   0.213
  700SOL     OW 2117   0.088   3.663   0.927
  700SOL    HW1 2118   0.046   3.577   0.900
  700SOL    HW2 2119   0.182   3.666   0.893
  701SOL     OW 2120   0.504   3.430   0.910
  701SOL    HW1 2121   0.570   3.504   0.919
  701SOL    HW2 2122   0.548   3.351   0.868
  702SOL     OW 2123   1.002   2.658   1.238
  702SOL    HW1 2124   1.043   2.626   1.324
  702SOL    HW2 2125   0.906   2.631   1.235
  703SOL     OW 2126   0.040   2.406   1.114
  703SOL    HW1 2127   0.125   2.373   1.073
  703SOL    HW2 2128   0.053   2.421   1.212
  704SOL     OW 2129   0.189   2.382   1.722
  704SOL    HW1 2130   0.248   2.342   1.652
  704SOL    HW2 2131   0.131   2.453   1.681
  705SOL     OW 2132   1.369   2.812   1.660
  705SOL    HW1 2133   1.408   2.901   1.680
  705SOL    HW2 2134   1.379   2.792   1.563
  706SOL     OW 2135   0.815   2.434   0.325
  706SOL    HW1 2136   0.822   2.345   0.279
  706SOL    HW2 2137   0.721   2.468   0.317
  707SOL     OW 2138   1.657   2.466   1.206
  707SOL    HW1 2139   1.619   2.397   1.268
  707SOL    HW2 2140   1.739   2.430   1.162
  708SOL     OW 2141   0.252   3.426   1.744
  708SOL    HW1 2142   0.222   3.483   1.820
  708SOL    HW2 2143   0.245   3.329   1.770
  709SOL     OW 2144   0.671   2.326   1.269
  709SOL    HW1 2145   0.637   2.237   1.239
  709SOL    HW2 2146   0.697   2.380   1.189
  710SOL     OW 2147   0.930   3.540   1.465
  710SOL    HW1 2148   0.906   3.522   1.370
  710SOL    HW2 2149   0.960   3.634   1.475
  711SOL     OW 2150   0.473   2.362   0.191
  711SOL    HW1 2151   0.534   2.442   0.195
  711SOL    HW2 2152   0.378   2.393   0.198
  712SOL     OW 2153   0.159   2.999   1.466
  712SOL    HW1 2154   0.181   2.938   1.542
  712SOL    HW2 2155   0.169   2.950   1.380
  713SOL     OW 2156   1.347   2.921   1.234
  713SOL    HW1 2157   1.371   2.858   1.160
  713SOL    HW2 2158   1.257   2.961   1.216
  714SOL     OW 2159   1.302   2.717   0.309
  714SOL    HW1 2160   1.216   2.686   0.351
  714SOL    HW2 2161   1.298   2.703   0.210
  715SOL     OW 2162   1.759   3.609   1.154
  715SOL    HW1 2163   1.820   3.639   1.081
  715SOL    HW2 2164   1.721   3.520   1.132
  716SOL     OW 2165   1.252   3.593   1.128
  716SOL    HW1 2166   1.336   3.598   1.074
  716SOL    HW2 2167   1.229   3.497   1.146
  717SOL     OW 2168   0.083   3.120   1.022
  717SOL    HW1 2169   0.078   3.119   1.122
  717SOL    HW2 2170   0.000   3.079   0.984
  718SOL     OW 2171   0.688   3.524   1.716
  718SOL    HW1 2172   0.632   3.605   1.725
  718SOL    HW2 2173   0.740   3.528   1.630
  719SOL     OW 2174   0.903   1.948   0.133
  719SOL    HW1 2175   0.954   1.949   0.047
  719SOL    HW2 2176   0.959   1.906   0.204
  720SOL     OW 2177   1.726   1.997   0.523
  720SOL    HW1 2178   1.799   1.980   0.456
  720SOL    HW2 2179   1.695   1.910   0.561
  721SOL     OW 2180   1.388   3.435   0.477
  721SOL    HW1 2181   1.455   3.447   0.403
  721SOL    HW2 2182   1.348   3.524   0.500
  722SOL     OW 2183   0.130   3.656   1.851
  722SOL    HW1 2184   0.089   3.582   1.904
  722SOL    HW2 2185   0.194   3.707   1.909
  723SOL     OW 2186   1.280   2.789   0.672
  723SOL    HW1 2187   1.340   2.708   0.674
  723SOL    HW2 2188   1.320   2.858   0.612
  724SOL     OW 2189   0.830   3.135   1.422
  724SOL    HW1 2190   0.825   3.168   1.517
  724SOL    HW2 2191   0.744   3.154   1.376
  725SOL     OW 2192   0.672   3.478   0.154
  725SOL    HW1 2193   0.681   3.488   0.055
  725SOL    HW2 2194   0.632   3.389   0.175
  726SOL     OW 2195   1.650   3.582   1.394
  726SOL    HW1 2196   1.703   3.592   1.310
  726SOL    HW2 2197   1.623   3.672   1.428
  727SOL     OW 2198   1.841   2.037   0.963
  727SOL    HW1 2199   1.880   1.952   0.927
  727SOL    HW2 2200   1.743   2.039   0.944
  728SOL     OW 2201   0.263   2.188   0.720
  728SOL    HW1 2202   0.184   2.239   0.686
  728SOL    HW2 2203   0.254   2.173   0.818
  729SOL     OW 2204   1.194   3.474   0.031
  729SOL    HW1 2205   1.200   3.381   0.068
  729SOL    HW2 2206   1.135   3.474  -0.049
  730SOL     OW 2207   0.822   2.864   1.372
  730SOL    HW1 2208   0.862   2.863   1.280
  730SOL    HW2 2209   0.832   2.956   1.412
  731SOL     OW 2210   0.916   2.772   0.291
  731SOL    HW1 2211   0.979   2.810   0.223
  731SOL    HW2 2212   0.956   2.689   0.330
  732SOL     OW 2213   1.504   3.469   0.044
  732SOL    HW1 2214   1.412   3.506   0.051
  732SOL    HW2 2215   1.542   3.489  -0.046
  733SOL     OW 2216   0.372   3.150   1.490
  733SOL    HW1 2217   0.359   3.243   1.456
  733SOL    HW2 2218   0.288   3.098   1.477
  734SOL     OW 2219   1.614   3.154   1.289
  734SOL    HW1 2220   1.674   3.157   1.369
  734SOL    HW2 2221   1.539   3.218   1.302
  735SOL     OW 2222   1.039   2.960   0.696
  735SOL    HW1 2223   0.969   2.913   0.750
  735SOL    HW2 2224   1.098   2.892   0.653
  736SOL     OW 2225   1.014   2.098   0.971
  736SOL    HW1 2226   1.006   2.062   0.878
  736SOL    HW2 2227   1.012   2.022   1.036
  737SOL     OW 2228   0.590   3.349   0.491
  737SOL    HW1 2229   0.632   3.291   0.421
  737SOL    HW2 2230   0.546   3.428   0.447
  738SOL     OW 2231   1.709   2.247   1.381
  738SOL    HW1 2232   1.782   2.316   1.385
  738SOL    HW2 2233   1.737   2.172   1.322
  739SOL     OW 2234   0.255   3.210   0.290
  739SOL    HW1 2235   0.159   3.211   0.263
  739SOL    HW2 2236   0.267   3.263   0.374
  740SOL     OW 2237   0.105   2.875   1.726
  740SOL    HW1 2238   0.028   2.842   1.780
  740SOL    HW2 2239   0.190   2.845   1.768
  741SOL     OW 2240   0.672   2.065   1.489
  741SOL    HW1 2241   0.762   2.049   1.449
  741SOL    HW2 2242   0.680   2.070   1.588
  742SOL     OW 2243   0.075   2.207   0.033
  742SOL    HW1 2244  -0.017   2.179   0.004
  742SOL    HW2 2245   0.106   2.284  -0.023
  743SOL     OW 2246   1.440   2.718   1.398
  743SOL    HW1 2247   1.383   2.770   1.335
  743SOL    HW2 2248   1.536   2.730   1.374
  744SOL     OW 2249   0.072   2.028   0.318
  744SOL    HW1 2250   0.055   2.111   0.264
  744SOL    HW2 2251   0.162   1.991   0.296
  745SOL     OW 2252   1.183   3.197   0.119
  745SOL    HW1 2253   1.084   3.186   0.121
  745SOL    HW2 2254   1.217   3.212   0.212
  746SOL     OW 2255   0.613   2.704   1.431
  746SOL    HW1 2256   0.669   2.785   1.414
  746SOL    HW2 2257   0.672   2.624   1.434
  747SOL     OW 2258   1.493   3.629   0.959
  747SOL    HW1 2259   1.526   3.693   0.890
  747SOL    HW2 2260   1.559   3.623   1.034
  748SOL     OW 2261   0.716   2.427   1.708
  748SOL    HW1 2262   0.735   2.492   1.782
  748SOL    HW2 2263   0.776   2.347   1.717
  749SOL     OW 2264   1.450   3.082   1.633
  749SOL    HW1 2265   1.441   3.072   1.732
  749SOL    HW2 2266   1.546   3.075   1.607
  750SOL     OW 2267   0.390   3.603   1.560
  750SOL    HW1 2268   0.299   3.644   1.558
  750SOL    HW2 2269   0.383   3.509   1.592
  751SOL     OW 2270   1.674   2.745   1.254
  751SOL    HW1 2271   1.647   2.656   1.217
  751SOL    HW2 2272   1.675   2.813   1.181
  752SOL     OW 2273   1.225   2.187   0.449
  752SOL    HW1 2274   1.290   2.113   0.438
  752SOL    HW2 2275   1.245   2.237   0.533
  753SOL     OW 2276   0.594   2.607   0.652
  753SOL    HW1 2277   0.644   2.692   0.633
  753SOL    HW2 2278   0.506   2.609   0.604
  754SOL     OW 2279   1.777   2.204   1.642
  754SOL    HW1 2280   1.760   2.235   1.548
  754SOL    HW2 2281   1.693   2.167   1.680
  755SOL     OW 2282   1.730   2.796   1.517
  755SOL    HW1 2283   1.768   2.887   1.532
  755SOL    HW2 2284   1.722   2.779   1.418
  756SOL     OW 2285   0.859   3.236   0.016
  756SOL    HW1 2286   0.813   3.251   0.104
  756SOL    HW2 2287   0.903   3.321  -0.014
  757SOL     OW 2288   0.661   3.652   0.953
  757SOL    HW1 2289   0.615   3.740   0.940
  757SOL    HW2 2290   0.760   3.664   0.946
  758SOL     OW 2291   0.859   2.818   0.861
  758SOL    HW1 2292   0.913   2.749   0.909
  758SOL    HW2 2293   0.827   2.887   0.927
  759SOL     OW 2294   1.083   2.846   0.087
  759SOL    HW1 2295   1.060   2.899   0.005
  759SOL    HW2 2296   1.164   2.790   0.068
  760SOL     OW 2297   1.861   3.431   0.851
  760SOL    HW1 2298   1.790   3.419   0.781
  760SOL    HW2 2299   1.862   3.352   0.911
  761SOL     OW 2300   0.221   3.176   1.844
  761SOL    HW1 2301   0.156   3.103   1.823
  761SOL    HW2 2302   0.225   3.190   1.942
  762SOL     OW 2303   0.079   3.102   0.653
  762SOL    HW1 2304   0.078   3.055   0.741
  762SOL    HW2 2305   0.161   3.074   0.602
  763SOL     OW 2306   0.672   3.253   1.624
  763SOL    HW1 2307   0.594   3.203   1.662
  763SOL    HW2 2308   0.669   3.348   1.655
  764SOL     OW 2309   1.824   2.054   1.227
  764SOL    HW1 2310   1.820   1.964   1.271
  764SOL    HW2 2311   1.827   2.043   1.128
  765SOL     OW 2312   0.428   2.286   0.520
  765SOL    HW1 2313   0.458   2.214   0.458
  765SOL    HW2 2314   0.389   2.246   0.603
  766SOL     OW 2315   1.705   3.349   1.104
  766SOL    HW1 2316   1.612   3.324   1.077
  766SOL    HW2 2317   1.731   3.299   1.186
  767SOL     OW 2318   0.317   2.409   1.280
  767SOL    HW1 2319   0.355   2.350   1.352
  767SOL    HW2 2320   0.357   2.383   1.192
  768SOL     OW 2321   0.812   3.448   0.687
  768SOL    HW1 2322   0.844   3.458   0.593
  768SOL    HW2 2323   0.733   3.386   0.689
  769SOL     OW 2324   1.424   2.076   1.112
  769SOL    HW1 2325   1.476   2.011   1.167
  769SOL    HW2 2326   1.375   2.139   1.173
  770SOL     OW 2327   1.001   1.896   1.154
  770SOL    HW1 2328   0.938   1.824   1.123
  770SOL    HW2 2329   1.094   1.860   1.154
  771SOL     OW 2330   0.770   3.192   0.301
  771SOL    HW1 2331   0.724   3.105   0.318
  771SOL    HW2 2332   0.861   3.189   0.342
  772SOL     OW 2333   0.618   3.429   1.284
  772SOL    HW1 2334   0.613   3.511   1.341
  772SOL    HW2 2335   0.707   3.426   1.239
  773SOL     OW 2336   1.352   1.914   0.168
  773SOL    HW1 2337   1.387   1.873   0.084
  773SOL    HW2 2338   1.262   1.876   0.188
  774SOL     OW 2339   1.300   2.315   0.691
  774SOL    HW1 2340   1.241   2.395   0.695
  774SOL    HW2 2341   1.315   2.280   0.784
  775SOL     OW 2342   1.593   2.083   0.882
  775SOL    HW1 2343   1.509   2.082   0.936
  775SOL    HW2 2344   1.595   2.166   0.826
  776SOL     OW 2345   0.039   2.939   0.300
  776SOL    HW1 2346   0.138   2.928   0.291
  776SOL    HW2 2347  -0.001   2.853   0.332
  777SOL     OW 2348   0.875   3.508   0.337
  777SOL    HW1 2349   0.798   3.473   0.283
  777SOL    HW2 2350   0.843   3.579   0.399
  778SOL     OW 2351   0.230   2.490   1.975
  778SOL    HW1 2352   0.137   2.488   2.012
  778SOL    HW2 2353   0.231   2.451   1.883
  779SOL     OW 2354   0.225   2.137   2.858
  779SOL    HW1 2355   0.260   2.120   2.950
  779SOL    HW2 2356   0.137   2.092   2.846
  780SOL     OW 2357   0.019   2.230   2.509
  780SOL    HW1 2358  -0.063   2.273   2.548
  780SOL    HW2 2359  -0.009   2.157   2.446
  781SOL     OW 2360   0.569   3.137   3.027
  781SOL    HW1 2361   0.476   3.130   2.990
  781SOL    HW2 2362   0.580   3.226   3.071
  782SOL     OW 2363   1.555   3.373   2.565
  782SOL    HW1 2364   1.498   3.357   2.646
  782SOL    HW2 2365   1.496   3.383   2.485
  783SOL     OW 2366   1.135   2.565   2.579
  783SOL    HW1 2367   1.192   2.643   2.554
  783SOL    HW2 2368   1.075   2.591   2.655
  784SOL     OW 2369   1.755   2.469   2.093
  784SOL    HW1 2370   1.743   2.456   1.994
  784SOL    HW2 2371   1.725   2.388   2.142
  785SOL     OW 2372   0.768   3.006   2.885
  785SOL    HW1 2373   0.690   3.023   2.945
  785SOL    HW2 2374   0.802   3.093   2.849
  786SOL     OW 2375   0.850   2.660   3.685
  786SOL    HW1 2376   0.846   2.736   3.750
  786SOL    HW2 2377   0.872   2.696   3.594
  787SOL     OW 2378   0.685   2.874   2.527
  787SOL    HW1 2379   0.754   2.858   2.597
  787SOL    HW2 2380   0.612   2.931   2.565
  788SOL     OW 2381   0.686   3.023   3.665
  788SOL    HW1 2382   0.746   3.102   3.679
  788SOL    HW2 2383   0.600   3.054   3.624
  789SOL     OW 2384   0.335   3.297   2.923
  789SOL    HW1 2385   0.257   3.266   2.870
  789SOL    HW2 2386   0.393   3.355   2.866
  790SOL     OW 2387   1.460   3.367   3.201
  790SOL    HW1 2388   1.484   3.461   3.227
  790SOL    HW2 2389   1.444   3.313   3.283
  791SOL     OW 2390   0.438   2.254   3.361
  791SOL    HW1 2391   0.520   2.198   3.370
  791SOL    HW2 2392   0.357   2.196   3.365
  792SOL     OW 2393   1.603   2.309   2.599
  792SOL    HW1 2394   1.529   2.355   2.549
  792SOL    HW2 2395   1.654   2.377   2.652
  793SOL     OW 2396   0.231   3.575   2.345
  793SOL    HW1 2397   0.265   3.652   2.399
  793SOL    HW2 2398   0.275   3.575   2.255
  794SOL     OW 2399   1.127   3.203   3.552
  794SOL    HW1 2400   1.174   3.203   3.640
  794SOL    HW2 2401   1.079   3.116   3.541
  795SOL     OW 2402   0.230   3.296   2.400
  795SOL    HW1 2403   0.204   3.392   2.400
  795SOL    HW2 2404   0.159   3.242   2.445
  796SOL     OW 2405   0.240   2.953   2.748
  796SOL    HW1 2406   0.254   2.869   2.800
  796SOL    HW2 2407   0.185   3.017   2.803
  797SOL     OW 2408   0.620   3.648   3.301
  797SOL    HW1 2409   0.528   3.631   3.336
  797SOL    HW2 2410   0.648   3.740   3.327
  798SOL     OW 2411   0.606   2.826   1.985
  798SOL    HW1 2412   0.613   2.910   1.931
  798SOL    HW2 2413   0.652   2.839   2.073
  799SOL     OW 2414   1.594   1.976   3.342
  799SOL    HW1 2415   1.576   2.043   3.270
  799SOL    HW2 2416   1.591   2.022   3.431
  800SOL     OW 2417   0.122   2.505   2.425
  800SOL    HW1 2418   0.077   2.417   2.442
  800SOL    HW2 2419   0.121   2.559   2.509
  801SOL     OW 2420   1.842   3.629   2.221
  801SOL    HW1 2421   1.896   3.600   2.301
  801SOL    HW2 2422   1.872   3.719   2.192
  802SOL     OW 2423   0.027   3.458   1.979
  802SOL    HW1 2424   0.008   3.362   2.000
  802SOL    HW2 2425  -0.006   3.516   2.054
  803SOL     OW 2426   1.689   2.784   2.474
  803SOL    HW1 2427   1.784   2.755   2.482
  803SOL    HW2 2428   1.681   2.849   2.399
  804SOL     OW 2429   1.641   2.970   2.294
  804SOL    HW1 2430   1.727   2.972   2.242
  804SOL    HW2 2431   1.655   3.017   2.382
  805SOL     OW 2432   0.113   2.599   3.459
  805SOL    HW1 2433   0.201   2.586   3.504
  805SOL    HW2 2434   0.100   2.696   3.437
  806SOL     OW 2435   0.613   3.227   2.588
  806SOL    HW1 2436   0.564   3.140   2.597
  806SOL    HW2 2437   0.590   3.270   2.501
  807SOL     OW 2438   1.293   3.090   3.285
  807SOL    HW1 2439   1.330   3.017   3.227
  807SOL    HW2 2440   1.345   3.095   3.370
  808SOL     OW 2441   0.809   1.866   2.364
  808SOL    HW1 2442   0.849   1.957   2.355
  808SOL    HW2 2443   0.709   1.874   2.370
  809SOL     OW 2444   0.197   2.838   3.126
  809SOL    HW1 2445   0.286   2.793   3.112
  809SOL    HW2 2446   0.124   2.773   3.107
  810SOL     OW 2447   1.525   2.861   2.052
  810SOL    HW1 2448   1.462   2.785   2.065
  810SOL    HW2 2449   1.573   2.879   2.138
  811SOL     OW 2450   1.187   3.654   3.478
  811SOL    HW1 2451   1.211   3.714   3.402
  811SOL    HW2 2452   1.194   3.559   3.448
  812SOL     OW 2453   0.317   2.113   3.663
  812SOL    HW1 2454   0.388   2.184   3.669
  812SOL    HW2 2455   0.229   2.152   3.691
  813SOL     OW 2456   1.466   3.279   2.815
  813SOL    HW1 2457   1.407   3.285   2.895
  813SOL    HW2 2458   1.451   3.191   2.769
  814SOL     OW 2459   1.667   3.576   2.434
  814SOL    HW1 2460   1.626   3.553   2.346
  814SOL    HW2 2461   1.649   3.502   2.499
  815SOL     OW 2462   0.598   2.591   2.132
  815SOL    HW1 2463   0.622   2.660   2.064
  815SOL    HW2 2464   0.520   2.624   2.186
  816SOL     OW 2465   1.281   2.207   2.806
  816SOL    HW1 2466   1.195   2.157   2.793
  816SOL    HW2 2467   1.343   2.153   2.862
  817SOL     OW 2468   1.576   3.524   2.169
  817SOL    HW1 2469   1.665   3.570   2.172
  817SOL    HW2 2470   1.555   3.500   2.074
  818SOL     OW 2471   0.807   2.467   3.327
  818SOL    HW1 2472   0.760   2.464   3.416
  818SOL    HW2 2473   0.756   2.412   3.261
  819SOL     OW 2474   1.394   2.331   3.536
  819SOL    HW1 2475   1.374   2.374   3.624
  819SOL    HW2 2476   1.472   2.269   3.545
  820SOL     OW 2477   0.973   2.752   3.434
  820SOL    HW1 2478   1.019   2.668   3.405
  820SOL    HW2 2479   0.917   2.786   3.359
  821SOL     OW 2480   0.991   2.272   3.104
  821SOL    HW1 2481   0.914   2.306   3.158
  821SOL    HW2 2482   0.957   2.221   3.025
  822SOL     OW 2483   1.041   2.563   2.291
  822SOL    HW1 2484   1.067   2.559   2.387
  822SOL    HW2 2485   0.956   2.512   2.277
  823SOL     OW 2486   0.076   2.673   2.651
  823SOL    HW1 2487   0.175   2.661   2.660
  823SOL    HW2 2488   0.052   2.768   2.672
  824SOL     OW 2489   0.130   3.683   3.433
  824SOL    HW1 2490   0.120   3.668   3.532
  824SOL    HW2 2491   0.044   3.719   3.397
  825SOL     OW 2492   0.865   2.210   2.057
  825SOL    HW1 2493   0.924   2.273   2.008
  825SOL    HW2 2494   0.884   2.116   2.028
  826SOL     OW 2495   1.719   2.447   3.693
  826SOL    HW1 2496   1.693   2.536   3.657
  826SOL    HW2 2497   1.717   2.379   3.620
  827SOL     OW 2498   1.362   3.006   2.407
  827SOL    HW1 2499   1.445   2.977   2.359
  827SOL    HW2 2500   1.313   3.073   2.351
  828SOL     OW 2501   0.550   2.058   2.747
  828SOL    HW1 2502   0.545   2.053   2.847
  828SOL    HW2 2503   0.552   2.154   2.718
  829SOL     OW 2504   1.008   3.318   2.339
  829SOL    HW1 2505   0.962   3.390   2.287
  829SOL    HW2 2506   1.004   3.338   2.437
  830SOL     OW 2507   0.351   3.663   2.715
  830SOL    HW1 2508   0.401   3.577   2.721
  830SOL    HW2 2509   0.416   3.740   2.712
  831SOL     OW 2510   1.795   2.928   2.735
  831SOL    HW1 2511   1.733   2.913   2.659
  831SOL    HW2 2512   1.743   2.939   2.820
  832SOL     OW 2513   1.227   3.412   3.368
  832SOL    HW1 2514   1.233   3.335   3.432
  832SOL    HW2 2515   1.175   3.386   3.288
  833SOL     OW 2516   0.321   2.805   2.104
  833SOL    HW1 2517   0.403   2.844   2.062
  833SOL    HW2 2518   0.294   2.723   2.055
  834SOL     OW 2519   1.458   2.597   2.590
  834SOL    HW1 2520   1.453   2.532   2.665
  834SOL    HW2 2521   1.538   2.656   2.603
  835SOL     OW 2522   0.461   3.128   3.589
  835SOL    HW1 2523   0.411   3.129   3.503
  835SOL    HW2 2524   0.398   3.110   3.665
  836SOL     OW 2525   1.111   3.638   2.099
  836SOL    HW1 2526   1.051   3.576   2.149
  836SOL    HW2 2527   1.142   3.594   2.014
  837SOL     OW 2528   0.202   2.147   3.360
  837SOL    HW1 2529   0.122   2.207   3.347
  837SOL    HW2 2530   0.192   2.098   3.446
  838SOL     OW 2531   1.632   3.239   1.943
  838SOL    HW1 2532   1.600   3.333   1.933
  838SOL    HW2 2533   1.556   3.176   1.931
  839SOL     OW 2534   0.464   3.605   2.185
  839SOL    HW1 2535   0.497   3.644   2.271
  839SOL    HW2 2536   0.540   3.598   2.120
  840SOL     OW 2537   1.400   1.969   2.288
  840SOL    HW1 2538   1.376   1.932   2.198
  840SOL    HW2 2539   1.499   1.985   2.292
  841SOL     OW 2540   0.249   3.647   3.103
  841SOL    HW1 2541   0.306   3.582   3.153
  841SOL    HW2 2542   0.233   3.614   3.010
  842SOL     OW 2543   0.940   3.560   2.766
  842SOL    HW1 2544   1.020   3.503   2.787
  842SOL    HW2 2545   0.891   3.520   2.689
  843SOL     OW 2546   0.382   2.562   2.342
  843SOL    HW1 2547   0.427   2.472   2.339
  843SOL    HW2 2548   0.288   2.551   2.375
  844SOL     OW 2549   1.547   2.084   3.591
  844SOL    HW1 2550   1.542   2.121   3.683
  844SOL    HW2 2551   1.475   2.015   3.579
  845SOL     OW 2552   0.614   1.984   1.979
  845SOL    HW1 2553   0.712   1.962   1.986
  845SOL    HW2 2554   0.583   1.967   1.886
  846SOL     OW 2555   0.781   2.126   3.611
  846SOL    HW1 2556   0.848   2.065   3.654
  846SOL    HW2 2557   0.708   2.145   3.676
  847SOL     OW 2558   0.888   3.376   3.057
  847SOL    HW1 2559   0.865   3.351   2.963
  847SOL    HW2 2560   0.949   3.307   3.096
  848SOL     OW 2561   1.351   2.452   3.295
  848SOL    HW1 2562   1.379   2.409   3.380
  848SOL    HW2 2563   1.376   2.548   3.296
  849SOL     OW 2564   0.803   3.264   2.786
  849SOL    HW1 2565   0.893   3.278   2.744
  849SOL    HW2 2566   0.732   3.266   2.715
  850SOL     OW 2567   0.922   2.365   2.761
  850SOL    HW1 2568   0.897   2.356   2.665
  850SOL    HW2 2569   0.970   2.283   2.792
  851SOL     OW 2570   0.539   1.926   2.374
  851SOL    HW1 2571   0.458   1.927   2.432
  851SOL    HW2 2572   0.542   2.009   2.319
  852SOL     OW 2573   1.434   3.050   1.903
  852SOL    HW1 2574   1.466   2.974   1.960
  852SOL    HW2 2575   1.342   3.077   1.933
  853SOL     OW 2576   0.297   1.897   2.033
  853SOL    HW1 2577   0.346   1.981   2.012
  853SOL    HW2 2578   0.359   1.832   2.078
  854SOL     OW 2579   0.935   2.098   2.342
  854SOL    HW1 2580   0.887   2.139   2.264
  854SOL    HW2 2581   1.034   2.096   2.323
  855SOL     OW 2582   1.076   2.545   3.326
  855SOL    HW1 2583   0.996   2.484   3.329
  855SOL    HW2 2584   1.157   2.492   3.302
  856SOL     OW 2585   1.227   3.432   2.655
  856SOL    HW1 2586   1.248   3.506   2.590
  856SOL    HW2 2587   1.295   3.432   2.728
  857SOL     OW 2588   0.459   3.014   2.603
  857SOL    HW1 2589   0.388   2.987   2.668
  857SOL    HW2 2590   0.433   2.986   2.510
  858SOL     OW 2591   1.271   3.659   2.453
  858SOL    HW1 2592   1.315   3.723   2.389
  858SOL    HW2 2593   1.221   3.711   2.523
  859SOL     OW 2594   1.032   2.411   1.878
  859SOL    HW1 2595   0.991   2.493   1.839
  859SOL    HW2 2596   1.096   2.437   1.951
  860SOL     OW 2597   0.078   2.418   3.248
  860SOL    HW1 2598   0.170   2.417   3.207
  860SOL    HW2 2599   0.072   2.492   3.315
  861SOL     OW 2600   0.561   2.084   3.009
  861SOL    HW1 2601   0.599   2.000   3.046
  861SOL    HW2 2602   0.473   2.103   3.053
  862SOL     OW 2603   0.866   2.316   2.504
  862SOL    HW1 2604   0.834   2.388   2.442
  862SOL    HW2 2605   0.890   2.235   2.451
  863SOL     OW 2606   1.017   1.901   2.615
  863SOL    HW1 2607   0.945   1.906   2.546
  863SOL    HW2 2608   0.993   1.832   2.684
  864SOL     OW 2609   1.429   3.035   2.729
  864SOL    HW1 2610   1.374   2.951   2.722
  864SOL    HW2 2611   1.455   3.064   2.637
  865SOL     OW 2612   1.466   2.452   2.854
  865SOL    HW1 2613   1.436   2.357   2.861
  865SOL    HW2 2614   1.539   2.468   2.920
  866SOL     OW 2615   1.857   2.695   2.239
  866SOL    HW1 2616   1.899   2.631   2.303
  866SOL    HW2 2617   1.819   2.644   2.161
  867SOL     OW 2618   0.488   3.247   2.036
  867SOL    HW1 2619   0.401   3.232   2.083
  867SOL    HW2 2620   0.471   3.273   1.941
  868SOL     OW 2621   1.664   3.142   2.519
  868SOL    HW1 2622   1.763   3.150   2.533
  868SOL    HW2 2623   1.619   3.226   2.550
  869SOL     OW 2624   1.390   2.437   1.940
  869SOL    HW1 2625   1.336   2.416   2.021
  869SOL    HW2 2626   1.481   2.396   1.949
  870SOL     OW 2627   0.527   2.118   2.190
  870SOL    HW1 2628   0.554   2.059   2.115
  870SOL    HW2 2629   0.527   2.213   2.159
  871SOL     OW 2630   1.754   3.085   3.450
  871SOL    HW1 2631   1.845   3.046   3.437
  871SOL    HW2 2632   1.762   3.181   3.474
  872SOL     OW 2633   1.064   3.209   3.202
  872SOL    HW1 2634   0.984   3.186   3.257
  872SOL    HW2 2635   1.147   3.183   3.251
  873SOL     OW 2636   1.592   3.491   3.487
  873SOL    HW1 2637   1.619   3.525   3.397
  873SOL    HW2 2638   1.671   3.453   3.533
  874SOL     OW 2639   1.111   3.057   2.962
  874SOL    HW1 2640   1.071   3.101   3.043
  874SOL    HW2 2641   1.070   3.094   2.879
  875SOL     OW 2642   1.638   2.961   2.941
  875SOL    HW1 2643   1.643   3.042   3.000
  875SOL    HW2 2644   1.552   2.963   2.890
  876SOL     OW 2645   0.915   1.951   3.264
  876SOL    HW1 2646   0.940   1.931   3.169
  876SOL    HW2 2647   0.987   2.007   3.306
  877SOL     OW 2648   0.980   2.978   3.581
  877SOL    HW1 2649   0.881   2.984   3.591
  877SOL    HW2 2650   1.003   2.898   3.525
  878SOL     OW 2651   0.705   2.912   2.230
  878SOL    HW1 2652   0.691   2.919   2.329
  878SOL    HW2 2653   0.789   2.861   2.212
  879SOL     OW 2654   0.410   2.675   3.113
  879SOL    HW1 2655   0.496   2.687   3.163
  879SOL    HW2 2656   0.368   2.588   3.140
  880SOL     OW 2657   1.274   2.248   3.124
  880SOL    HW1 2658   1.295   2.322   3.188
  880SOL    HW2 2659   1.185   2.265   3.081
  881SOL     OW 2660   0.064   3.426   3.193
  881SOL    HW1 2661   0.018   3.508   3.159
  881SOL    HW2 2662   0.162   3.445   3.202
  882SOL     OW 2663   0.367   2.962   2.363
  882SOL    HW1 2664   0.360   3.045   2.307
  882SOL    HW2 2665   0.371   2.882   2.303
  883SOL     OW 2666   0.566   2.399   2.727
  883SOL    HW1 2667   0.578   2.465   2.653
  883SOL    HW2 2668   0.612   2.433   2.810
  884SOL     OW 2669   1.252   3.210   2.250
  884SOL    HW1 2670   1.302   3.287   2.290
  884SOL    HW2 2671   1.157   3.212   2.282
  885SOL     OW 2672   1.272   3.307   3.004
  885SOL    HW1 2673   1.319   3.320   3.091
  885SOL    HW2 2674   1.206   3.233   3.013
  886SOL     OW 2675   1.582   2.501   2.334
  886SOL    HW1 2676   1.551   2.562   2.407
  886SOL    HW2 2677   1.632   2.553   2.265
  887SOL     OW 2678   0.354   3.372   3.191
  887SOL    HW1 2679   0.333   3.328   3.104
  887SOL    HW2 2680   0.451   3.398   3.194
  888SOL     OW 2681   0.402   2.613   3.460
  888SOL    HW1 2682   0.470   2.668   3.413
  888SOL    HW2 2683   0.442   2.525   3.487
  889SOL     OW 2684   1.587   2.641   3.532
  889SOL    HW1 2685   1.495   2.679   3.527
  889SOL    HW2 2686   1.647   2.688   3.467
  890SOL     OW 2687   1.013   1.967   3.632
  890SOL    HW1 2688   1.019   2.052   3.580
  890SOL    HW2 2689   1.045   1.891   3.575
  891SOL     OW 2690   0.504   1.912   3.602
  891SOL    HW1 2691   0.462   1.855   3.532
  891SOL    HW2 2692   0.438   1.981   3.634
  892SOL     OW 2693   0.573   2.732   2.891
  892SOL    HW1 2694   0.617   2.821   2.882
  892SOL    HW2 2695   0.510   2.732   2.968
  893SOL     OW 2696   1.360   2.724   2.907
  893SOL    HW1 2697   1.285   2.724   2.841
  893SOL    HW2 2698   1.397   2.632   2.916
  894SOL     OW 2699   1.209   2.387   2.137
  894SOL    HW1 2700   1.222   2.303   2.191
  894SOL    HW2 2701   1.180   2.461   2.197
  895SOL     OW 2702   0.307   2.075   3.093
  895SOL    HW1 2703   0.284   2.112   3.183
  895SOL    HW2 2704   0.277   1.980   3.087
  896SOL     OW 2705   0.037   3.172   3.144
  896SOL    HW1 2706   0.090   3.123   3.212
  896SOL    HW2 2707   0.059   3.270   3.149
  897SOL     OW 2708   0.732   2.496   2.926
  897SOL    HW1 2709   0.791   2.470   2.850
  897SOL    HW2 2710   0.704   2.592   2.915
  898SOL     OW 2711   1.728   2.797   3.716
  898SOL    HW1 2712   1.682   2.790   3.627
  898SOL    HW2 2713   1.666   2.841   3.782
  899SOL     OW 2714   0.307   1.925   2.480
  899SOL    HW1 2715   0.296   2.019   2.513
  899SOL    HW2 2716   0.302   1.862   2.557
  900SOL     OW 2717   1.622   2.229   2.236
  900SOL    HW1 2718   1.624   2.153   2.300
  900SOL    HW2 2719   1.574   2.306   2.276
  901SOL     OW 2720   1.023   2.628   2.828
  901SOL    HW1 2721   1.038   2.649   2.924
  901SOL    HW2 2722   0.993   2.533   2.819
  902SOL     OW 2723   0.980   3.435   3.562
  902SOL    HW1 2724   0.960   3.479   3.474
  902SOL    HW2 2725   1.019   3.344   3.546
  903SOL     OW 2726   1.859   3.380   3.467
  903SOL    HW1 2727   1.873   3.407   3.372
  903SOL    HW2 2728   1.942   3.402   3.520
  904SOL     OW 2729   0.350   2.760   3.666
  904SOL    HW1 2730   0.426   2.804   3.714
  904SOL    HW2 2731   0.385   2.713   3.584
  905SOL     OW 2732   1.540   2.136   1.987
  905SOL    HW1 2733   1.479   2.061   2.010
  905SOL    HW2 2734   1.562   2.188   2.070
  906SOL     OW 2735   1.303   2.700   1.904
  906SOL    HW1 2736   1.337   2.607   1.919
  906SOL    HW2 2737   1.321   2.727   1.809
  907SOL     OW 2738   1.068   3.195   2.711
  907SOL    HW1 2739   1.075   3.111   2.656
  907SOL    HW2 2740   1.130   3.264   2.675
  908SOL     OW 2741   0.319   2.672   2.811
  908SOL    HW1 2742   0.412   2.708   2.816
  908SOL    HW2 2743   0.313   2.587   2.863
  909SOL     OW 2744   0.339   2.371   2.868
  909SOL    HW1 2745   0.287   2.288   2.851
  909SOL    HW2 2746   0.416   2.376   2.804
  910SOL     OW 2747   1.138   2.242   3.540
  910SOL    HW1 2748   1.093   2.305   3.604
  910SOL    HW2 2749   1.231   2.273   3.523
  911SOL     OW 2750   1.160   2.069   3.339
  911SOL    HW1 2751   1.160   2.133   3.416
  911SOL    HW2 2752   1.188   2.117   3.256
  912SOL     OW 2753   0.008   3.188   2.062
  912SOL    HW1 2754  -0.085   3.209   2.031
  912SOL    HW2 2755   0.018   3.089   2.075
  913SOL     OW 2756   0.088   3.663   2.789
  913SOL    HW1 2757   0.046   3.577   2.762
  913SOL    HW2 2758   0.182   3.666   2.755
  914SOL     OW 2759   0.504   3.430   2.772
  914SOL    HW1 2760   0.570   3.504   2.781
  914SOL    HW2 2761   0.548   3.351   2.730
  915SOL     OW 2762   1.002   2.658   3.100
  915SOL    HW1 2763   1.043   2.626   3.186
  915SOL    HW2 2764   0.906   2.631   3.097
  916SOL     OW 2765   0.040   2.406   2.976
  916SOL    HW1 2766   0.125   2.373   2.935
  916SOL    HW2 2767   0.053   2.421   3.074
  917SOL     OW 2768   0.189   2.382   3.584
  917SOL    HW1 2769   0.248   2.342   3.514
  917SOL    HW2 2770   0.131   2.453   3.543
  918SOL     OW 2771   1.369   2.812   3.522
  918SOL    HW1 2772   1.408   2.901   3.542
  918SOL    HW2 2773   1.379   2.792   3.425
  919SOL     OW 2774   0.815   2.434   2.187
  919SOL    HW1 2775   0.822   2.345   2.141
  919SOL    HW2 2776   0.721   2.468   2.179
  920SOL     OW 2777   1.657   2.466   3.068
  920SOL    HW1 2778   1.619   2.397   3.130
  920SOL    HW2 2779   1.739   2.430   3.024
  921SOL     OW 2780   0.252   3.426   3.606
  921SOL    HW1 2781   0.222   3.483   3.682
  921SOL    HW2 2782   0.245   3.329   3.632
  922SOL     OW 2783   0.671   2.326   3.131
  922SOL    HW1 2784   0.637   2.237   3.101
  922SOL    HW2 2785   0.697   2.380   3.051
  923SOL     OW 2786   0.930   3.540   3.327
  923SOL    HW1 2787   0.906   3.522   3.232
  923SOL    HW2 2788   0.960   3.634   3.337
  924SOL     OW 2789   0.473   2.362   2.053
  924SOL    HW1 2790   0.534   2.442   2.057
  924SOL    HW2 2791   0.378   2.393   2.060
  925SOL     OW 2792   0.159   2.999   3.328
  925SOL    HW1 2793   0.181   2.938   3.404
  925SOL    HW2 2794   0.169   2.950   3.242
  926SOL     OW 2795   1.347   2.921   3.096
  926SOL    HW1 2796   1.371   2.858   3.022
  926SOL    HW2 2797   1.257   2.961   3.078
  927SOL     OW 2798   1.302   2.717   2.171
  927SOL    HW1 2799   1.216   2.686   2.213
  927SOL    HW2 2800   1.298   2.703   2.072
  928SOL     OW 2801   1.759   3.609   3.016
  928SOL    HW1 2802   1.820   3.639   2.943
  928SOL    HW2 2803   1.721   3.520   2.994
  929SOL     OW 2804   1.252   3.593   2.990
  929SOL    HW1 2805   1.336   3.598   2.936
  929SOL    HW2 2806   1.229   3.497   3.008
  930SOL     OW 2807   0.083   3.120   2.884
  930SOL    HW1 2808   0.078   3.119   2.984
  930SOL    HW2 2809   0.000   3.079   2.846
  931SOL     OW 2810   0.688   3.524   3.578
  931SOL    HW1 2811   0.632   3.605   3.587
  931SOL    HW2 2812   0.740   3.528   3.492
  932SOL     OW 2813   1.726   1.997   2.385
  932SOL    HW1 2814   1.799   1.980   2.318
  932SOL    HW2 2815   1.695   1.910   2.423
  933SOL     OW 2816   1.388   3.435   2.339
  933SOL    HW1 2817   1.455   3.447   2.265
  933SOL    HW2 2818   1.348   3.524   2.362
  934SOL     OW 2819   0.130   3.656   3.713
  934SOL    HW1 2820   0.089   3.582   3.766
  934SOL    HW2 2821   0.194   3.707   3.771
  935SOL     OW 2822   1.280   2.789   2.534
  935SOL    HW1 2823   1.340   2.708   2.536
  935SOL    HW2 2824   1.320   2.858   2.474
  936SOL     OW 2825   0.830   3.135   3.284
  936SOL    HW1 2826   0.825   3.168   3.379
  936SOL    HW2 2827   0.744   3.154   3.238
  937SOL     OW 2828   0.672   3.478   2.016
  937SOL    HW1 2829   0.681   3.488   1.917
  937SOL    HW2 2830   0.632   3.389   2.037
  938SOL     OW 2831   1.650   3.582   3.256
  938SOL    HW1 2832   1.703   3.592   3.172
  938SOL    HW2 2833   1.623   3.672   3.290
  939SOL     OW 2834   1.841   2.037   2.825
  939SOL    HW1 2835   1.880   1.952   2.789
  939SOL    HW2 2836   1.743   2.039   2.806
  940SOL     OW 2837   0.263   2.188   2.582
  940SOL    HW1 2838   0.184   2.239   2.548
  940SOL    HW2 2839   0.254   2.173   2.680
  941SOL     OW 2840   1.194   3.474   1.893
  941SOL    HW1 2841   1.200   3.381   1.930
  941SOL    HW2 2842   1.135   3.474   1.813
  942SOL     OW 2843   0.822   2.864   3.234
  942SOL    HW1 2844   0.862   2.863   3.142
  942SOL    HW2 2845   0.832   2.956   3.274
  943SOL     OW 2846   0.916   2.772   2.153
  943SOL    HW1 2847   0.979   2.810   2.085
  943SOL    HW2 2848   0.956   2.689   2.192
  944SOL     OW 2849   1.504   3.469   1.906
  944SOL    HW1 2850   1.412   3.506   1.913
  944SOL    HW2 2851   1.542   3.489   1.816
  945SOL     OW 2852   0.372   3.150   3.352
  945SOL    HW1 2853   0.359   3.243   3.318
  945SOL    HW2 2854   0.288   3.098   3.339
  946SOL     OW 2855   1.614   3.154   3.151
  946SOL    HW1 2856   1.674   3.157   3.231
  946SOL    HW2 2857   1.539   3.218   3.164
  947SOL     OW 2858   1.039   2.960   2.558
  947SOL    HW1 2859   0.969   2.913   2.612
  947SOL    HW2 2860   1.098   2.892   2.515
  948SOL     OW 2861   1.014   2.098   2.833
  948SOL    HW1 2862   1.006   2.062   2.740
  948SOL    HW2 2863   1.012   2.022   2.898
  949SOL     OW 2864   0.590   3.349   2.353
  949SOL    HW1 2865   0.632   3.291   2.283
  949SOL    HW2 2866   0.546   3.428   2.309
  950SOL     OW 2867   1.709   2.247   3.243
  950SOL    HW1 2868   1.782   2.316   3.247
  950SOL    HW2 2869   1.737   2.172   3.184
  951SOL     OW 2870   0.255   3.210   2.152
  951SOL    HW1 2871   0.159   3.211   2.125
  951SOL    HW2 2872   0.267   3.263   2.236
  952SOL     OW 2873   0.105   2.875   3.588
  952SOL    HW1 2874   0.028   2.842   3.642
  952SOL    HW2 2875   0.190   2.845   3.630
  953SOL     OW 2876   0.672   2.065   3.351
  953SOL    HW1 2877   0.762   2.049   3.311
  953SOL    HW2 2878   0.680   2.070   3.450
  954SOL     OW 2879   0.075   2.207   1.895
  954SOL    HW1 2880  -0.017   2.179   1.866
  954SOL    HW2 2881   0.106   2.284   1.839
  955SOL     OW 2882   1.440   2.718   3.260
  955SOL    HW1 2883   1.383   2.770   3.197
  955SOL    HW2 2884   1.536   2.730   3.236
  956SOL     OW 2885   0.072   2.028   2.180
  956SOL    HW1 2886   0.055   2.111   2.126
  956SOL    HW2 2887   0.162   1.991   2.158
  957SOL     OW 2888   1.183   3.197   1.981
  957SOL    HW1 2889   1.084   3.186   1.983
  957SOL    HW2 2890   1.217   3.212   2.074
  958SOL     OW 2891   0.613   2.704   3.293
  958SOL    HW1 2892   0.669   2.785   3.276
  958SOL    HW2 2893   0.672   2.624   3.296
  959SOL     OW 2894   1.493   3.629   2.821
  959SOL    HW1 2895   1.526   3.693   2.752
  959SOL    HW2 2896   1.559   3.623   2.896
  960SOL     OW 2897   0.716   2.427   3.570
  960SOL    HW1 2898   0.735   2.492   3.644
  960SOL    HW2 2899   0.776   2.347   3.579
  961SOL     OW 2900   1.450   3.082   3.495
  961SOL    HW1 2901   1.441   3.072   3.594
  961SOL    HW2 2902   1.546   3.075   3.469
  962SOL     OW 2903   0.390   3.603   3.422
  962SOL    HW1 2904   0.299   3.644   3.420
  962SOL    HW2 2905   0.383   3.509   3.454
  963SOL     OW 2906   1.674   2.745   3.116
  963SOL    HW1 2907   1.647   2.656   3.079
  963SOL    HW2 2908   1.675   2.813   3.043
  964SOL     OW 2909   1.225   2.187   2.311
  964SOL    HW1 2910   1.290   2.113   2.300
  964SOL    HW2 2911   1.245   2.237   2.395
  965SOL     OW 2912   0.594   2.607   2.514
  965SOL    HW1 2913   0.644   2.692   2.495
  965SOL    HW2 2914   0.506   2.609   2.466
  966SOL     OW 2915   1.777   2.204   3.504
  966SOL    HW1 2916   1.760   2.235   3.410
  966SOL    HW2 2917   1.693   2.167   3.542
  967SOL     OW 2918   1.730   2.796   3.379
  967SOL    HW1 2919   1.768   2.887   3.394
  967SOL    HW2 2920   1.722   2.779   3.280
  968SOL     OW 2921   0.859   3.236   1.878
  968SOL    HW1 2922   0.813   3.251   1.966
  968SOL    HW2 2923   0.903   3.321   1.848
  969SOL     OW 2924   0.661   3.652   2.815
  969SOL    HW1 2925   0.615   3.740   2.802
  969SOL    HW2 2926   0.760   3.664   2.808
  970SOL     OW 2927   0.859   2.818   2.723
  970SOL    HW1 2928   0.913   2.749   2.771
  970SOL    HW2 2929   0.827   2.887   2.789
  971SOL     OW 2930   1.083   2.846   1.949
  971SOL    HW1 2931   1.060   2.899   1.867
  971SOL    HW2 2932   1.164   2.790   1.930
  972SOL     OW 2933   1.861   3.431   2.713
  972SOL    HW1 2934   1.790   3.419   2.643
  972SOL    HW2 2935   1.862   3.352   2.773
  973SOL     OW 2936   0.221   3.176   3.706
  973SOL    HW1 2937   0.156   3.103   3.685
  973SOL    HW2 2938   0.225   3.190   3.804
  974SOL     OW 2939   0.079   3.102   2.515
  974SOL    HW1 2940   0.078   3.055   2.603
  974SOL    HW2 2941   0.161   3.074   2.464
  975SOL     OW 2942   0.672   3.253   3.486
  975SOL    HW1 2943   0.594   3.203   3.524
  975SOL    HW2 2944   0.669   3.348   3.517
  976SOL     OW 2945   1.824   2.054   3.089
  976SOL    HW1 2946   1.820   1.964   3.133
  976SOL    HW2 2947   1.827   2.043   2.990
  977SOL     OW 2948   0.428   2.286   2.382
  977SOL    HW1 2949   0.458   2.214   2.320
  977SOL    HW2 2950   0.389   2.246   2.465
  978SOL     OW 2951   1.705   3.349   2.966
  978SOL    HW1 2952   1.612   3.324   2.939
  978SOL    HW2 2953   1.731   3.299   3.048
  979SOL     OW 2954   0.317   2.409   3.142
  979SOL    HW1 2955   0.355   2.350   3.214
  979SOL    HW2 2956   0.357   2.383   3.054
  980SOL     OW 2957   0.812   3.448   2.549
  980SOL    HW1 2958   0.844   3.458   2.455
  980SOL    HW2 2959   0.733   3.386   2.551
  981SOL     OW 2960   1.424   2.076   2.974
  981SOL    HW1 2961   1.476   2.011   3.029
  981SOL    HW2 2962   1.375   2.139   3.035
  982SOL     OW 2963   1.001   1.896   3.016
  982SOL    HW1 2964   0.938   1.824   2.985
  982SOL    HW2 2965   1.094   1.860   3.016
  983SOL     OW 2966   0.770   3.192   2.163
  983SOL    HW1 2967   0.724   3.105   2.180
  983SOL    HW2 2968   0.861   3.189   2.204
  984SOL     OW 2969   0.618   3.429   3.146
  984SOL    HW1 2970   0.613   3.511   3.203
  984SOL    HW2 2971   0.707   3.426   3.101
  985SOL     OW 2972   1.352   1.914   2.030
  985SOL    HW1 2973   1.387   1.873   1.946
  985SOL    HW2 2974   1.262   1.876   2.050
  986SOL     OW 2975   1.300   2.315   2.553
  986SOL    HW1 2976   1.241   2.395   2.557
  986SOL    HW2 2977   1.315   2.280   2.646
  987SOL     OW 2978   1.593   2.083   2.744
  987SOL    HW1 2979   1.509   2.082   2.798
  987SOL    HW2 2980   1.595   2.166   2.688
  988SOL     OW 2981   0.039   2.939   2.162
  988SOL    HW1 2982   0.138   2.928   2.153
  988SOL    HW2 2983  -0.001   2.853   2.194
  989SOL     OW 2984   0.875   3.508   2.199
  989SOL    HW1 2985   0.798   3.473   2.145
  989SOL    HW2 2986   0.843   3.579   2.261
  990SOL     OW 2987   0.230   2.490   3.837
  990SOL    HW1 2988   0.137   2.488   3.874
  990SOL    HW2 2989   0.231   2.451   3.745
  991SOL     OW 2990   0.225   2.137   4.720
  991SOL    HW1 2991   0.260   2.120   4.812
  991SOL    HW2 2992   0.137   2.092   4.708
  992SOL     OW 2993   0.019   2.230   4.371
  992SOL    HW1 2994  -0.063   2.273   4.410
  992SOL    HW2 2995  -0.009   2.157   4.308
  993SOL     OW 2996   0.569   3.137   4.889
  993SOL    HW1 2997   0.476   3.130   4.852
  993SOL    HW2 2998   0.580   3.226   4.933
  994SOL     OW 2999   1.555   3.373   4.427
  994SOL    HW1 3000   1.498   3.357   4.508
  994SOL    HW2 3001   1.496   3.383   4.347
  995SOL     OW 3002   1.135   2.565   4.441
  995SOL    HW1 3003   1.192   2.643   4.416
  995SOL    HW2 3004   1.075   2.591   4.517
  996SOL     OW 3005   1.755   2.469   3.955
  996SOL    HW1 3006   1.743   2.456   3.856
  996SOL    HW2 3007   1.725   2.388   4.004
  997SOL     OW 3008   0.768   3.006   4.747
  997SOL    HW1 3009   0.690   3.023   4.807
  997SOL    HW2 3010   0.802   3.093   4.711
  998SOL     OW 3011   0.685   2.874   4.389
  998SOL    HW1 3012   0.754   2.858   4.459
  998SOL    HW2 3013   0.612   2.931   4.427
  999SOL     OW 3014   0.335   3.297   4.785
  999SOL    HW1 3015   0.257   3.266   4.732
  999SOL    HW2 3016   0.393   3.355   4.728
 1000SOL     OW 3017   1.603   2.309   4.461
 1000SOL    HW1 3018   1.529   2.355   4.411
 1000SOL    HW2 3019   1.654   2.377   4.514
 1001SOL     OW 3020   0.231   3.575   4.207
 1001SOL    HW1 3021   0.265   3.652   4.261
 1001SOL    HW2 3022   0.275   3.575   4.117
 1002SOL     OW 3023   0.230   3.296   4.262
 1002SOL    HW1 3024   0.204   3.392   4.262
 1002SOL    HW2 3025   0.159   3.242   4.307
 1003SOL     OW 3026   0.240   2.953   4.610
 1003SOL    HW1 3027   0.254   2.869   4.662
 1003SOL    HW2 3028   0.185   3.017   4.665
 1004SOL     OW 3029   0.606   2.826   3.847
 1004SOL    HW1 3030   0.613   2.910   3.793
 1004SOL    HW2 3031   0.652   2.839   3.935
 1005SOL     OW 3032   0.122   2.505   4.287
 1005SOL    HW1 3033   0.077   2.417   4.304
 1005SOL    HW2 3034   0.121   2.559   4.371
 1006SOL     OW 3035   1.842   3.629   4.083
 1006SOL    HW1 3036   1.896   3.600   4.163
 1006SOL    HW2 3037   1.872   3.719   4.054
 1007SOL     OW 3038   0.027   3.458   3.841
 1007SOL    HW1 3039   0.008   3.362   3.862
 1007SOL    HW2 3040  -0.006   3.516   3.916
 1008SOL     OW 3041   1.689   2.784   4.336
 1008SOL    HW1 3042   1.784   2.755   4.344
 1008SOL    HW2 3043   1.681   2.849   4.261
 1009SOL     OW 3044   1.641   2.970   4.156
 1009SOL    HW1 3045   1.727   2.972   4.104
 1009SOL    HW2 3046   1.655   3.017   4.244
 1010SOL     OW 3047   0.613   3.227   4.450
 1010SOL    HW1 3048   0.564   3.140   4.459
 1010SOL    HW2 3049   0.590   3.270   4.363
 1011SOL     OW 3050   0.809   1.866   4.226
 1011SOL    HW1 3051   0.849   1.957   4.217
 1011SOL    HW2 3052   0.709   1.874   4.232
 1012SOL     OW 3053   0.197   2.838   4.988
 1012SOL    HW1 3054   0.286   2.793   4.974
 1012SOL    HW2 3055   0.124   2.773   4.969
 1013SOL     OW 3056   1.525   2.861   3.914
 1013SOL    HW1 3057   1.462   2.785   3.927
 1013SOL    HW2 3058   1.573   2.879   4.000
 1014SOL     OW 3059   1.466   3.279   4.677
 1014SOL    HW1 3060   1.407   3.285   4.757
 1014SOL    HW2 3061   1.451   3.191   4.631
 1015SOL     OW 3062   1.667   3.576   4.296
 1015SOL    HW1 3063   1.626   3.553   4.208
 1015SOL    HW2 3064   1.649   3.502   4.361
 1016SOL     OW 3065   0.598   2.591   3.994
 1016SOL    HW1 3066   0.622   2.660   3.926
 1016SOL    HW2 3067   0.520   2.624   4.048
 1017SOL     OW 3068   1.281   2.207   4.668
 1017SOL    HW1 3069   1.195   2.157   4.655
 1017SOL    HW2 3070   1.343   2.153   4.724
 1018SOL     OW 3071   1.576   3.524   4.031
 1018SOL    HW1 3072   1.665   3.570   4.034
 1018SOL    HW2 3073   1.555   3.500   3.936
 1019SOL     OW 3074   1.041   2.563   4.153
 1019SOL    HW1 3075   1.067   2.559   4.249
 1019SOL    HW2 3076   0.956   2.512   4.139
 1020SOL     OW 3077   0.076   2.673   4.513
 1020SOL    HW1 3078   0.175   2.661   4.522
 1020SOL    HW2 3079   0.052   2.768   4.534
 1021SOL     OW 3080   0.865   2.210   3.919
 1021SOL    HW1 3081   0.924   2.273   3.870
 1021SOL    HW2 3082   0.884   2.116   3.890
 1022SOL     OW 3083   1.362   3.006   4.269
 1022SOL    HW1 3084   1.445   2.977   4.221
 1022SOL    HW2 3085   1.313   3.073   4.213
 1023SOL     OW 3086   0.550   2.058   4.609
 1023SOL    HW1 3087   0.545   2.053   4.709
 1023SOL    HW2 3088   0.552   2.154   4.580
 1024SOL     OW 3089   1.008   3.318   4.201
 1024SOL    HW1 3090   0.962   3.390   4.149
 1024SOL    HW2 3091   1.004   3.338   4.299
 1025SOL     OW 3092   0.351   3.663   4.577
 1025SOL    HW1 3093   0.401   3.577   4.583
 1025SOL    HW2 3094   0.416   3.740   4.574
 1026SOL     OW 3095   1.795   2.928   4.597
 1026SOL    HW1 3096   1.733   2.913   4.521
 1026SOL    HW2 3097   1.743   2.939   4.682
 1027SOL     OW 3098   0.321   2.805   3.966
 1027SOL    HW1 3099   0.403   2.844   3.924
 1027SOL    HW2 3100   0.294   2.723   3.917
 1028SOL     OW 3101   1.458   2.597   4.452
 1028SOL    HW1 3102   1.453   2.532   4.527
 1028SOL    HW2 3103   1.538   2.656   4.465
 1029SOL     OW 3104   1.111   3.638   3.961
 1029SOL    HW1 3105   1.051   3.576   4.011
 1029SOL    HW2 3106   1.142   3.594   3.876
 1030SOL     OW 3107   1.632   3.239   3.805
 1030SOL    HW1 3108   1.600   3.333   3.795
 1030SOL    HW2 3109   1.556   3.176   3.793
 1031SOL     OW 3110   0.464   3.605   4.047
 1031SOL    HW1 3111   0.497   3.644   4.133
 1031SOL    HW2 3112   0.540   3.598   3.982
 1032SOL     OW 3113   1.400   1.969   4.150
 1032SOL    HW1 3114   1.376   1.932   4.060
 1032SOL    HW2 3115   1.499   1.985   4.154
 1033SOL     OW 3116   0.249   3.647   4.965
 1033SOL    HW1 3117   0.306   3.582   5.015
 1033SOL    HW2 3118   0.233   3.614   4.872
 1034SOL     OW 3119   0.940   3.560   4.628
 1034SOL    HW1 3120   1.020   3.503   4.649
 1034SOL    HW2 3121   0.891   3.520   4.551
 1035SOL     OW 3122   0.382   2.562   4.204
 1035SOL    HW1 3123   0.427   2.472   4.201
 1035SOL    HW2 3124   0.288   2.551   4.237
 1036SOL     OW 3125   0.614   1.984   3.841
 1036SOL    HW1 3126   0.712   1.962   3.848
 1036SOL    HW2 3127   0.583   1.967   3.748
 1037SOL     OW 3128   0.803   3.264   4.648
 1037SOL    HW1 3129   0.893   3.278   4.606
 1037SOL    HW2 3130   0.732   3.266   4.577
 1038SOL     OW 3131   0.922   2.365   4.623
 1038SOL    HW1 3132   0.897   2.356   4.527
 1038SOL    HW2 3133   0.970   2.283   4.654
 1039SOL     OW 3134   0.539   1.926   4.236
 1039SOL    HW1 3135   0.458   1.927   4.294
 1039SOL    HW2 3136   0.542   2.009   4.181
 1040SOL     OW 3137   1.434   3.050   3.765
 1040SOL    HW1 3138   1.466   2.974   3.822
 1040SOL    HW2 3139   1.342   3.077   3.795
 1041SOL     OW 3140   0.297   1.897   3.895
 1041SOL    HW1 3141   0.346   1.981   3.874
 1041SOL    HW2 3142   0.359   1.832   3.940
 1042SOL     OW 3143   0.935   2.098   4.204
 1042SOL    HW1 3144   0.887   2.139   4.126
 1042SOL    HW2 3145   1.034   2.096   4.185
 1043SOL     OW 3146   1.227   3.432   4.517
 1043SOL    HW1 3147   1.248   3.506   4.452
 1043SOL    HW2 3148   1.295   3.432   4.590
 1044SOL     OW 3149   0.459   3.014   4.465
 1044SOL    HW1 3150   0.388   2.987   4.530
 1044SOL    HW2 3151   0.433   2.986   4.372
 1045SOL     OW 3152   1.271   3.659   4.315
 1045SOL    HW1 3153   1.315   3.723   4.251
 1045SOL    HW2 3154   1.221   3.711   4.385
 1046SOL     OW 3155   1.032   2.411   3.740
 1046SOL    HW1 3156   0.991   2.493   3.701
 1046SOL    HW2 3157   1.096   2.437   3.813
 1047SOL     OW 3158   0.866   2.316   4.366
 1047SOL    HW1 3159   0.834   2.388   4.304
 1047SOL    HW2 3160   0.890   2.235   4.313
 1048SOL     OW 3161   1.017   1.901   4.477
 1048SOL    HW1 3162   0.945   1.906   4.408
 1048SOL    HW2 3163   0.993   1.832   4.546
 1049SOL     OW 3164   1.429   3.035   4.591
 1049SOL    HW1 3165   1.374   2.951   4.584
 1049SOL    HW2 3166   1.455   3.064   4.499
 1050SOL     OW 3167   1.466   2.452   4.716
 1050SOL    HW1 3168   1.436   2.357   4.723
 1050SOL    HW2 3169   1.539   2.468   4.782
 1051SOL     OW 3170   1.857   2.695   4.101
 1051SOL    HW1 3171   1.899   2.631   4.165
 1051SOL    HW2 3172   1.819   2.644   4.023
 1052SOL     OW 3173   0.488   3.247   3.898
 1052SOL    HW1 3174   0.401   3.232   3.945
 1052SOL    HW2 3175   0.471   3.273   3.803
 1053SOL     OW 3176   1.664   3.142   4.381
 1053SOL    HW1 3177   1.763   3.150   4.395
 1053SOL    HW2 3178   1.619   3.226   4.412
 1054SOL     OW 3179   1.390   2.437   3.802
 1054SOL    HW1 3180   1.336   2.416   3.883
 1054SOL    HW2 3181   1.481   2.396   3.811
 1055SOL     OW 3182   0.527   2.118   4.052
 1055SOL    HW1 3183   0.554   2.059   3.977
 1055SOL    HW2 3184   0.527   2.213   4.021
 1056SOL     OW 3185   1.111   3.057   4.824
 1056SOL    HW1 3186   1.071   3.101   4.905
 1056SOL    HW2 3187   1.070   3.094   4.741
 1057SOL     OW 3188   1.638   2.961   4.803
 1057SOL    HW1 3189   1.643   3.042   4.862
 1057SOL    HW2 3190   1.552   2.963   4.752
 1058SOL     OW 3191   0.705   2.912   4.092
 1058SOL    HW1 3192   0.691   2.919   4.191
 1058SOL    HW2 3193   0.789   2.861   4.074
 1059SOL     OW 3194   0.410   2.675   4.975
 1059SOL    HW1 3195   0.496   2.687   5.025
 1059SOL    HW2 3196   0.368   2.588   5.002
 1060SOL     OW 3197   0.367   2.962   4.225
 1060SOL    HW1 3198   0.360   3.045   4.169
 1060SOL    HW2 3199   0.371   2.882   4.165
 1061SOL     OW 3200   0.566   2.399   4.589
 1061SOL    HW1 3201   0.578   2.465   4.515
 1061SOL    HW2 3202   0.612   2.433   4.672
 1062SOL     OW 3203   1.252   3.210   4.112
 1062SOL    HW1 3204   1.302   3.287   4.152
 1062SOL    HW2 3205   1.157   3.212   4.144
 1063SOL     OW 3206   1.272   3.307   4.866
 1063SOL    HW1 3207   1.319   3.320   4.953
 1063SOL    HW2 3208   1.206   3.233   4.875
 1064SOL     OW 3209   1.582   2.501   4.196
 1064SOL    HW1 3210   1.551   2.562   4.269
 1064SOL    HW2 3211   1.632   2.553   4.127
 1065SOL     OW 3212   0.573   2.732   4.753
 1065SOL    HW1 3213   0.617   2.821   4.744
 1065SOL    HW2 3214   0.510   2.732   4.830
 1066SOL     OW 3215   1.209   2.387   3.999
 1066SOL    HW1 3216   1.222   2.303   4.053
 1066SOL    HW2 3217   1.180   2.461   4.059
 1067SOL     OW 3218   0.307   2.075   4.955
 1067SOL    HW1 3219   0.284   2.112   5.045
 1067SOL    HW2 3220   0.277   1.980   4.949
 1068SOL     OW 3221   0.732   2.496   4.788
 1068SOL    HW1 3222   0.791   2.470   4.712
 1068SOL    HW2 3223   0.704   2.592   4.777
 1069SOL     OW 3224   0.307   1.925   4.342
 1069SOL    HW1 3225   0.296   2.019   4.375
 1069SOL    HW2 3226   0.302   1.862   4.419
 1070SOL     OW 3227   1.622   2.229   4.098
 1070SOL    HW1 3228   1.624   2.153   4.162
 1070SOL    HW2 3229   1.574   2.306   4.138
 1071SOL     OW 3230   1.023   2.628   4.690
 1071SOL    HW1 3231   1.038   2.649   4.786
 1071SOL    HW2 3232   0.993   2.533   4.681
 1072SOL     OW 3233   1.540   2.136   3.849
 1072SOL    HW1 3234   1.479   2.061   3.872
 1072SOL    HW2 3235   1.562   2.188   3.932
 1073SOL     OW 3236   1.303   2.700   3.766
 1073SOL    HW1 3237   1.337   2.607   3.781
 1073SOL    HW2 3238   1.321   2.727   3.671
 1074SOL     OW 3239   1.068   3.195   4.573
 1074SOL    HW1 3240   1.075   3.111   4.518
 1074SOL    HW2 3241   1.130   3.264   4.537
 1075SOL     OW 3242   0.319   2.672   4.673
 1075SOL    HW1 3243   0.412   2.708   4.678
 1075SOL    HW2 3244   0.313   2.587   4.725
 1076SOL     OW 3245   0.339   2.371   4.730
 1076SOL    HW1 3246   0.287   2.288   4.713
 1076SOL    HW2 3247   0.416   2.376   4.666
 1077SOL     OW 3248   0.008   3.188   3.924
 1077SOL    HW1 3249  -0.085   3.209   3.893
 1077SOL    HW2 3250   0.018   3.089   3.937
 1078SOL     OW 3251   0.088   3.663   4.651
 1078SOL    HW1 3252   0.046   3.577   4.624
 1078SOL    HW2 3253   0.182   3.666   4.617
 1079SOL     OW 3254   0.504   3.430   4.634
 1079SOL    HW1 3255   0.570   3.504   4.643
 1079SOL    HW2 3256   0.548   3.351   4.592
 1080SOL     OW 3257   1.002   2.658   4.962
 1080SOL    HW1 3258   1.043   2.626   5.048
 1080SOL    HW2 3259   0.906   2.631   4.959
 1081SOL     OW 3260   0.040   2.406   4.838
 1081SOL    HW1 3261   0.125   2.373   4.797
 1081SOL    HW2 3262   0.053   2.421   4.936
 1082SOL     OW 3263   0.815   2.434   4.049
 1082SOL    HW1 3264   0.822   2.345   4.003
 1082SOL    HW2 3265   0.721   2.468   4.041
 1083SOL     OW 3266   1.657   2.466   4.930
 1083SOL    HW1 3267   1.619   2.397   4.992
 1083SOL    HW2 3268   1.739   2.430   4.886
 1084SOL     OW 3269   0.671   2.326   4.993
 1084SOL    HW1 3270   0.637   2.237   4.963
 1084SOL    HW2 3271   0.697   2.380   4.913
 1085SOL     OW 3272   0.473   2.362   3.915
 1085SOL    HW1 3273   0.534   2.442   3.919
 1085SOL    HW2 3274   0.378   2.393   3.922
 1086SOL     OW 3275   1.302   2.717   4.033
 1086SOL    HW1 3276   1.216   2.686   4.075
 1086SOL    HW2 3277   1.298   2.703   3.934
 1087SOL     OW 3278   1.759   3.609   4.878
 1087SOL    HW1 3279   1.820   3.639   4.805
 1087SOL    HW2 3280   1.721   3.520   4.856
 1088SOL     OW 3281   0.083   3.120   4.746
 1088SOL    HW1 3282   0.078   3.119   4.846
 1088SOL    HW2 3283   0.000   3.079   4.708
 1089SOL     OW 3284   1.726   1.997   4.247
 1089SOL    HW1 3285   1.799   1.980   4.180
 1089SOL    HW2 3286   1.695   1.910   4.285
 1090SOL     OW 3287   1.388   3.435   4.201
 1090SOL    HW1 3288   1.455   3.447   4.127
 1090SOL    HW2 3289   1.348   3.524   4.224
 1091SOL     OW 3290   1.280   2.789   4.396
 1091SOL    HW1 3291   1.340   2.708   4.398
 1091SOL    HW2 3292   1.320   2.858   4.336
 1092SOL     OW 3293   0.672   3.478   3.878
 1092SOL    HW1 3294   0.681   3.488   3.779
 1092SOL    HW2 3295   0.632   3.389   3.899
 1093SOL     OW 3296   1.841   2.037   4.687
 1093SOL    HW1 3297   1.880   1.952   4.651
 1093SOL    HW2 3298   1.743   2.039   4.668
 1094SOL     OW 3299   0.263   2.188   4.444
 1094SOL    HW1 3300   0.184   2.239   4.410
 1094SOL    HW2 3301   0.254   2.173   4.542
 1095SOL     OW 3302   1.194   3.474   3.755
 1095SOL    HW1 3303   1.200   3.381   3.792
 1095SOL    HW2 3304   1.135   3.474   3.675
 1096SOL     OW 3305   0.822   2.864   5.096
 1096SOL    HW1 3306   0.862   2.863   5.004
 1096SOL    HW2 3307   0.832   2.956   5.136
 1097SOL     OW 3308   0.916   2.772   4.015
 1097SOL    HW1 3309   0.979   2.810   3.947
 1097SOL    HW2 3310   0.956   2.689   4.054
 1098SOL     OW 3311   1.504   3.469   3.768
 1098SOL    HW1 3312   1.412   3.506   3.775
 1098SOL    HW2 3313   1.542   3.489   3.678
 1099SOL     OW 3314   1.039   2.960   4.420
 1099SOL    HW1 3315   0.969   2.913   4.474
 1099SOL    HW2 3316   1.098   2.892   4.377
 1100SOL     OW 3317   1.014   2.098   4.695
 1100SOL    HW1 3318   1.006   2.062   4.602
 1100SOL    HW2 3319   1.012   2.022   4.760
 1101SOL     OW 3320   0.590   3.349   4.215
 1101SOL    HW1 3321   0.632   3.291   4.145
 1101SOL    HW2 3322   0.546   3.428   4.171
 1102SOL     OW 3323   1.709   2.247   5.105
 1102SOL    HW1 3324   1.782   2.316   5.109
 1102SOL    HW2 3325   1.737   2.172   5.046
 1103SOL     OW 3326   0.255   3.210   4.014
 1103SOL    HW1 3327   0.159   3.211   3.987
 1103SOL    HW2 3328   0.267   3.263   4.098
 1104SOL     OW 3329   0.075   2.207   3.757
 1104SOL    HW1 3330  -0.017   2.179   3.728
 1104SOL    HW2 3331   0.106   2.284   3.701
 1105SOL     OW 3332   0.072   2.028   4.042
 1105SOL    HW1 3333   0.055   2.111   3.988
 1105SOL    HW2 3334   0.162   1.991   4.020
 1106SOL     OW 3335   1.183   3.197   3.843
 1106SOL    HW1 3336   1.084   3.186   3.845
 1106SOL    HW2 3337   1.217   3.212   3.936
 1107SOL     OW 3338   1.493   3.629   4.683
 1107SOL    HW1 3339   1.526   3.693   4.614
 1107SOL    HW2 3340   1.559   3.623   4.758
 1108SOL     OW 3341   1.674   2.745   4.978
 1108SOL    HW1 3342   1.647   2.656   4.941
 1108SOL    HW2 3343   1.675   2.813   4.905
 1109SOL     OW 3344   1.225   2.187   4.173
 1109SOL    HW1 3345   1.290   2.113   4.162
 1109SOL    HW2 3346   1.245   2.237   4.257
 1110SOL     OW 3347   0.594   2.607   4.376
 1110SOL    HW1 3348   0.644   2.692   4.357
 1110SOL    HW2 3349   0.506   2.609   4.328
 1111SOL     OW 3350   0.859   3.236   3.740
 1111SOL    HW1 3351   0.813   3.251   3.828
 1111SOL    HW2 3352   0.903   3.321   3.710
 1112SOL     OW 3353   0.661   3.652   4.677
 1112SOL    HW1 3354   0.615   3.740   4.664
 1112SOL    HW2 3355   0.760   3.664   4.670
 1113SOL     OW 3356   0.859   2.818   4.585
 1113SOL    HW1 3357   0.913   2.749   4.633
 1113SOL    HW2 3358   0.827   2.887   4.651
 1114SOL     OW 3359   1.083   2.846   3.811
 1114SOL    HW1 3360   1.060   2.899   3.729
 1114SOL    HW2 3361   1.164   2.790   3.792
 1115SOL     OW 3362   1.861   3.431   4.575
 1115SOL    HW1 3363   1.790   3.419   4.505
 1115SOL    HW2 3364   1.862   3.352   4.635
 1116SOL     OW 3365   0.079   3.102   4.377
 1116SOL    HW1 3366   0.078   3.055   4.465
 1116SOL    HW2 3367   0.161   3.074   4.326
 1117SOL     OW 3368   1.824   2.054   4.951
 1117SOL    HW1 3369   1.820   1.964   4.995
 1117SOL    HW2 3370   1.827   2.043   4.852
 1118SOL     OW 3371   0.428   2.286   4.244
 1118SOL    HW1 3372   0.458   2.214   4.182
 1118SOL    HW2 3373   0.389   2.246   4.327
 1119SOL     OW 3374   1.705   3.349   4.828
 1119SOL    HW1 3375   1.612   3.324   4.801
 1119SOL    HW2 3376   1.731   3.299   4.910
 1120SOL     OW 3377   0.812   3.448   4.411
 1120SOL    HW1 3378   0.844   3.458   4.317
 1120SOL    HW2 3379   0.733   3.386   4.413
 1121SOL     OW 3380   1.424   2.076   4.836
 1121SOL    HW1 3381   1.476   2.011   4.891
 1121SOL    HW2 3382   1.375   2.139   4.897
 1122SOL     OW 3383   0.770   3.192   4.025
 1122SOL    HW1 3384   0.724   3.105   4.042
 1122SOL    HW2 3385   0.861   3.189   4.066
 1123SOL     OW 3386   1.352   1.914   3.892
 1123SOL    HW1 3387   1.387   1.873   3.808
 1123SOL    HW2 3388   1.262   1.876   3.912
 1124SOL     OW 3389   1.300   2.315   4.415
 1124SOL    HW1 3390   1.241   2.395   4.419
 1124SOL    HW2 3391   1.315   2.280   4.508
 1125SOL     OW 3392   1.593   2.083   4.606
 1125SOL    HW1 3393   1.509   2.082   4.660
 1125SOL    HW2 3394   1.595   2.166   4.550
 1126SOL     OW 3395   0.039   2.939   4.024
 1126SOL    HW1 3396   0.138   2.928   4.015
 1126SOL    HW2 3397  -0.001   2.853   4.056
 1127SOL     OW 3398   0.875   3.508   4.061
 1127SOL    HW1 3399   0.798   3.473   4.007
 1127SOL    HW2 3400   0.843   3.579   4.123
 1128SOL     OW 3401   0.230   4.352   0.113
 1128SOL    HW1 3402   0.137   4.350   0.150
 1128SOL    HW2 3403   0.231   4.313   0.021
 1129SOL     OW 3404   0.225   3.999   0.996
 1129SOL    HW1 3405   0.260   3.982   1.088
 1129SOL    HW2 3406   0.137   3.954   0.984
 1130SOL     OW 3407   0.019   4.092   0.647
 1130SOL    HW1 3408  -0.063   4.135   0.686
 1130SOL    HW2 3409  -0.009   4.019   0.584
 1131SOL     OW 3410   1.135   4.427   0.717
 1131SOL    HW1 3411   1.192   4.505   0.692
 1131SOL    HW2 3412   1.075   4.453   0.793
 1132SOL     OW 3413   1.755   4.331   0.231
 1132SOL    HW1 3414   1.743   4.318   0.132
 1132SOL    HW2 3415   1.725   4.250   0.280
 1133SOL     OW 3416   0.768   4.868   1.023
 1133SOL    HW1 3417   0.690   4.885   1.083
 1133SOL    HW2 3418   0.802   4.955   0.987
 1134SOL     OW 3419   0.850   4.522   1.823
 1134SOL    HW1 3420   0.846   4.598   1.888
 1134SOL    HW2 3421   0.872   4.558   1.732
 1135SOL     OW 3422   0.685   4.736   0.665
 1135SOL    HW1 3423   0.754   4.720   0.735
 1135SOL    HW2 3424   0.612   4.793   0.703
 1136SOL     OW 3425   1.460   5.229   1.339
 1136SOL    HW1 3426   1.484   5.323   1.365
 1136SOL    HW2 3427   1.444   5.175   1.421
 1137SOL     OW 3428   0.438   4.116   1.499
 1137SOL    HW1 3429   0.520   4.060   1.508
 1137SOL    HW2 3430   0.357   4.058   1.503
 1138SOL     OW 3431   1.603   4.171   0.737
 1138SOL    HW1 3432   1.529   4.217   0.687
 1138SOL    HW2 3433   1.654   4.239   0.790
 1139SOL     OW 3434   0.240   4.815   0.886
 1139SOL    HW1 3435   0.254   4.731   0.938
 1139SOL    HW2 3436   0.185   4.879   0.941
 1140SOL     OW 3437   0.606   4.688   0.123
 1140SOL    HW1 3438   0.613   4.772   0.069
 1140SOL    HW2 3439   0.652   4.701   0.211
 1141SOL     OW 3440   1.594   3.838   1.480
 1141SOL    HW1 3441   1.576   3.905   1.408
 1141SOL    HW2 3442   1.591   3.884   1.569
 1142SOL     OW 3443   0.122   4.367   0.563
 1142SOL    HW1 3444   0.077   4.279   0.580
 1142SOL    HW2 3445   0.121   4.421   0.647
 1143SOL     OW 3446   1.689   4.646   0.612
 1143SOL    HW1 3447   1.784   4.617   0.620
 1143SOL    HW2 3448   1.681   4.711   0.537
 1144SOL     OW 3449   0.113   4.461   1.597
 1144SOL    HW1 3450   0.201   4.448   1.642
 1144SOL    HW2 3451   0.100   4.558   1.575
 1145SOL     OW 3452   0.613   5.089   0.726
 1145SOL    HW1 3453   0.564   5.002   0.735
 1145SOL    HW2 3454   0.590   5.132   0.639
 1146SOL     OW 3455   1.293   4.952   1.423
 1146SOL    HW1 3456   1.330   4.879   1.365
 1146SOL    HW2 3457   1.345   4.957   1.508
 1147SOL     OW 3458   0.809   3.728   0.502
 1147SOL    HW1 3459   0.849   3.819   0.493
 1147SOL    HW2 3460   0.709   3.736   0.508
 1148SOL     OW 3461   0.197   4.700   1.264
 1148SOL    HW1 3462   0.286   4.655   1.250
 1148SOL    HW2 3463   0.124   4.635   1.245
 1149SOL     OW 3464   1.525   4.723   0.190
 1149SOL    HW1 3465   1.462   4.647   0.203
 1149SOL    HW2 3466   1.573   4.741   0.276
 1150SOL     OW 3467   0.317   3.975   1.801
 1150SOL    HW1 3468   0.388   4.046   1.807
 1150SOL    HW2 3469   0.229   4.014   1.829
 1151SOL     OW 3470   0.598   4.453   0.270
 1151SOL    HW1 3471   0.622   4.522   0.202
 1151SOL    HW2 3472   0.520   4.486   0.324
 1152SOL     OW 3473   1.281   4.069   0.944
 1152SOL    HW1 3474   1.195   4.019   0.931
 1152SOL    HW2 3475   1.343   4.015   1.000
 1153SOL     OW 3476   0.807   4.329   1.465
 1153SOL    HW1 3477   0.760   4.326   1.554
 1153SOL    HW2 3478   0.756   4.274   1.399
 1154SOL     OW 3479   1.394   4.193   1.674
 1154SOL    HW1 3480   1.374   4.236   1.762
 1154SOL    HW2 3481   1.472   4.131   1.683
 1155SOL     OW 3482   0.973   4.614   1.572
 1155SOL    HW1 3483   1.019   4.530   1.543
 1155SOL    HW2 3484   0.917   4.648   1.497
 1156SOL     OW 3485   0.991   4.134   1.242
 1156SOL    HW1 3486   0.914   4.168   1.296
 1156SOL    HW2 3487   0.957   4.083   1.163
 1157SOL     OW 3488   1.041   4.425   0.429
 1157SOL    HW1 3489   1.067   4.421   0.525
 1157SOL    HW2 3490   0.956   4.374   0.415
 1158SOL     OW 3491   0.076   4.535   0.789
 1158SOL    HW1 3492   0.175   4.523   0.798
 1158SOL    HW2 3493   0.052   4.630   0.810
 1159SOL     OW 3494   0.865   4.072   0.195
 1159SOL    HW1 3495   0.924   4.135   0.146
 1159SOL    HW2 3496   0.884   3.978   0.166
 1160SOL     OW 3497   1.719   4.309   1.831
 1160SOL    HW1 3498   1.693   4.398   1.795
 1160SOL    HW2 3499   1.717   4.241   1.758
 1161SOL     OW 3500   0.550   3.920   0.885
 1161SOL    HW1 3501   0.545   3.915   0.985
 1161SOL    HW2 3502   0.552   4.016   0.856
 1162SOL     OW 3503   1.795   4.790   0.873
 1162SOL    HW1 3504   1.733   4.775   0.797
 1162SOL    HW2 3505   1.743   4.801   0.958
 1163SOL     OW 3506   0.321   4.667   0.242
 1163SOL    HW1 3507   0.403   4.706   0.200
 1163SOL    HW2 3508   0.294   4.585   0.193
 1164SOL     OW 3509   1.458   4.459   0.728
 1164SOL    HW1 3510   1.453   4.394   0.803
 1164SOL    HW2 3511   1.538   4.518   0.741
 1165SOL     OW 3512   0.202   4.009   1.498
 1165SOL    HW1 3513   0.122   4.069   1.485
 1165SOL    HW2 3514   0.192   3.960   1.584
 1166SOL     OW 3515   1.400   3.831   0.426
 1166SOL    HW1 3516   1.376   3.794   0.336
 1166SOL    HW2 3517   1.499   3.847   0.430
 1167SOL     OW 3518   0.382   4.424   0.480
 1167SOL    HW1 3519   0.427   4.334   0.477
 1167SOL    HW2 3520   0.288   4.413   0.513
 1168SOL     OW 3521   1.547   3.946   1.729
 1168SOL    HW1 3522   1.542   3.983   1.821
 1168SOL    HW2 3523   1.475   3.877   1.717
 1169SOL     OW 3524   0.614   3.846   0.117
 1169SOL    HW1 3525   0.712   3.824   0.124
 1169SOL    HW2 3526   0.583   3.829   0.024
 1170SOL     OW 3527   0.781   3.988   1.749
 1170SOL    HW1 3528   0.848   3.927   1.792
 1170SOL    HW2 3529   0.708   4.007   1.814
 1171SOL     OW 3530   1.351   4.314   1.433
 1171SOL    HW1 3531   1.379   4.271   1.518
 1171SOL    HW2 3532   1.376   4.410   1.434
 1172SOL     OW 3533   0.922   4.227   0.899
 1172SOL    HW1 3534   0.897   4.218   0.803
 1172SOL    HW2 3535   0.970   4.145   0.930
 1173SOL     OW 3536   0.539   3.788   0.512
 1173SOL    HW1 3537   0.458   3.789   0.570
 1173SOL    HW2 3538   0.542   3.871   0.457
 1174SOL     OW 3539   0.297   3.759   0.171
 1174SOL    HW1 3540   0.346   3.843   0.150
 1174SOL    HW2 3541   0.359   3.694   0.216
 1175SOL     OW 3542   0.935   3.960   0.480
 1175SOL    HW1 3543   0.887   4.001   0.402
 1175SOL    HW2 3544   1.034   3.958   0.461
 1176SOL     OW 3545   1.076   4.407   1.464
 1176SOL    HW1 3546   0.996   4.346   1.467
 1176SOL    HW2 3547   1.157   4.354   1.440
 1177SOL     OW 3548   0.459   4.876   0.741
 1177SOL    HW1 3549   0.388   4.849   0.806
 1177SOL    HW2 3550   0.433   4.848   0.648
 1178SOL     OW 3551   1.032   4.273   0.016
 1178SOL    HW1 3552   0.991   4.355  -0.023
 1178SOL    HW2 3553   1.096   4.299   0.089
 1179SOL     OW 3554   0.078   4.280   1.386
 1179SOL    HW1 3555   0.170   4.279   1.345
 1179SOL    HW2 3556   0.072   4.354   1.453
 1180SOL     OW 3557   0.561   3.946   1.147
 1180SOL    HW1 3558   0.599   3.862   1.184
 1180SOL    HW2 3559   0.473   3.965   1.191
 1181SOL     OW 3560   0.866   4.178   0.642
 1181SOL    HW1 3561   0.834   4.250   0.580
 1181SOL    HW2 3562   0.890   4.097   0.589
 1182SOL     OW 3563   1.017   3.763   0.753
 1182SOL    HW1 3564   0.945   3.768   0.684
 1182SOL    HW2 3565   0.993   3.694   0.822
 1183SOL     OW 3566   1.429   4.897   0.867
 1183SOL    HW1 3567   1.374   4.813   0.860
 1183SOL    HW2 3568   1.455   4.926   0.775
 1184SOL     OW 3569   1.466   4.314   0.992
 1184SOL    HW1 3570   1.436   4.219   0.999
 1184SOL    HW2 3571   1.539   4.330   1.058
 1185SOL     OW 3572   1.857   4.557   0.377
 1185SOL    HW1 3573   1.899   4.493   0.441
 1185SOL    HW2 3574   1.819   4.506   0.299
 1186SOL     OW 3575   1.390   4.299   0.078
 1186SOL    HW1 3576   1.336   4.278   0.159
 1186SOL    HW2 3577   1.481   4.258   0.087
 1187SOL     OW 3578   0.527   3.980   0.328
 1187SOL    HW1 3579   0.554   3.921   0.253
 1187SOL    HW2 3580   0.527   4.075   0.297
 1188SOL     OW 3581   1.754   4.947   1.588
 1188SOL    HW1 3582   1.845   4.908   1.575
 1188SOL    HW2 3583   1.762   5.043   1.612
 1189SOL     OW 3584   1.638   4.823   1.079
 1189SOL    HW1 3585   1.643   4.904   1.138
 1189SOL    HW2 3586   1.552   4.825   1.028
 1190SOL     OW 3587   0.915   3.813   1.402
 1190SOL    HW1 3588   0.940   3.793   1.307
 1190SOL    HW2 3589   0.987   3.869   1.444
 1191SOL     OW 3590   0.705   4.774   0.368
 1191SOL    HW1 3591   0.691   4.781   0.467
 1191SOL    HW2 3592   0.789   4.723   0.350
 1192SOL     OW 3593   0.410   4.537   1.251
 1192SOL    HW1 3594   0.496   4.549   1.301
 1192SOL    HW2 3595   0.368   4.450   1.278
 1193SOL     OW 3596   1.274   4.110   1.262
 1193SOL    HW1 3597   1.295   4.184   1.326
 1193SOL    HW2 3598   1.185   4.127   1.219
 1194SOL     OW 3599   0.367   4.824   0.501
 1194SOL    HW1 3600   0.360   4.907   0.445
 1194SOL    HW2 3601   0.371   4.744   0.441
 1195SOL     OW 3602   0.566   4.261   0.865
 1195SOL    HW1 3603   0.578   4.327   0.791
 1195SOL    HW2 3604   0.612   4.295   0.948
 1196SOL     OW 3605   1.582   4.363   0.472
 1196SOL    HW1 3606   1.551   4.424   0.545
 1196SOL    HW2 3607   1.632   4.415   0.403
 1197SOL     OW 3608   0.402   4.475   1.598
 1197SOL    HW1 3609   0.470   4.530   1.551
 1197SOL    HW2 3610   0.442   4.387   1.625
 1198SOL     OW 3611   1.587   4.503   1.670
 1198SOL    HW1 3612   1.495   4.541   1.665
 1198SOL    HW2 3613   1.647   4.550   1.605
 1199SOL     OW 3614   1.013   3.829   1.770
 1199SOL    HW1 3615   1.019   3.914   1.718
 1199SOL    HW2 3616   1.045   3.753   1.713
 1200SOL     OW 3617   0.504   3.774   1.740
 1200SOL    HW1 3618   0.462   3.717   1.670
 1200SOL    HW2 3619   0.438   3.843   1.772
 1201SOL     OW 3620   0.573   4.594   1.029
 1201SOL    HW1 3621   0.617   4.683   1.020
 1201SOL    HW2 3622   0.510   4.594   1.106
 1202SOL     OW 3623   1.360   4.586   1.045
 1202SOL    HW1 3624   1.285   4.586   0.979
 1202SOL    HW2 3625   1.397   4.494   1.054
 1203SOL     OW 3626   1.209   4.249   0.275
 1203SOL    HW1 3627   1.222   4.165   0.329
 1203SOL    HW2 3628   1.180   4.323   0.335
 1204SOL     OW 3629   0.307   3.937   1.231
 1204SOL    HW1 3630   0.284   3.974   1.321
 1204SOL    HW2 3631   0.277   3.842   1.225
 1205SOL     OW 3632   0.037   5.034   1.282
 1205SOL    HW1 3633   0.090   4.985   1.350
 1205SOL    HW2 3634   0.059   5.132   1.287
 1206SOL     OW 3635   0.732   4.358   1.064
 1206SOL    HW1 3636   0.791   4.332   0.988
 1206SOL    HW2 3637   0.704   4.454   1.053
 1207SOL     OW 3638   1.728   4.659   1.854
 1207SOL    HW1 3639   1.682   4.652   1.765
 1207SOL    HW2 3640   1.666   4.703   1.920
 1208SOL     OW 3641   0.307   3.787   0.618
 1208SOL    HW1 3642   0.296   3.881   0.651
 1208SOL    HW2 3643   0.302   3.724   0.695
 1209SOL     OW 3644   1.622   4.091   0.374
 1209SOL    HW1 3645   1.624   4.015   0.438
 1209SOL    HW2 3646   1.574   4.168   0.414
 1210SOL     OW 3647   1.023   4.490   0.966
 1210SOL    HW1 3648   1.038   4.511   1.062
 1210SOL    HW2 3649   0.993   4.395   0.957
 1211SOL     OW 3650   0.350   4.622   1.804
 1211SOL    HW1 3651   0.426   4.666   1.852
 1211SOL    HW2 3652   0.385   4.575   1.722
 1212SOL     OW 3653   1.540   3.998   0.125
 1212SOL    HW1 3654   1.479   3.923   0.148
 1212SOL    HW2 3655   1.562   4.050   0.208
 1213SOL     OW 3656   1.303   4.562   0.042
 1213SOL    HW1 3657   1.337   4.469   0.057
 1213SOL    HW2 3658   1.321   4.589  -0.053
 1214SOL     OW 3659   0.319   4.534   0.949
 1214SOL    HW1 3660   0.412   4.570   0.954
 1214SOL    HW2 3661   0.313   4.449   1.001
 1215SOL     OW 3662   0.339   4.233   1.006
 1215SOL    HW1 3663   0.287   4.150   0.989
 1215SOL    HW2 3664   0.416   4.238   0.942
 1216SOL     OW 3665   1.138   4.104   1.678
 1216SOL    HW1 3666   1.093   4.167   1.742
 1216SOL    HW2 3667   1.231   4.135   1.661
 1217SOL     OW 3668   1.160   3.931   1.477
 1217SOL    HW1 3669   1.160   3.995   1.554
 1217SOL    HW2 3670   1.188   3.979   1.394
 1218SOL     OW 3671   1.002   4.520   1.238
 1218SOL    HW1 3672   1.043   4.488   1.324
 1218SOL    HW2 3673   0.906   4.493   1.235
 1219SOL     OW 3674   0.040   4.268   1.114
 1219SOL    HW1 3675   0.125   4.235   1.073
 1219SOL    HW2 3676   0.053   4.283   1.212
 1220SOL     OW 3677   0.189   4.244   1.722
 1220SOL    HW1 3678   0.248   4.204   1.652
 1220SOL    HW2 3679   0.131   4.315   1.681
 1221SOL     OW 3680   1.369   4.674   1.660
 1221SOL    HW1 3681   1.408   4.763   1.680
 1221SOL    HW2 3682   1.379   4.654   1.563
 1222SOL     OW 3683   0.815   4.296   0.325
 1222SOL    HW1 3684   0.822   4.207   0.279
 1222SOL    HW2 3685   0.721   4.330   0.317
 1223SOL     OW 3686   1.657   4.328   1.206
 1223SOL    HW1 3687   1.619   4.259   1.268
 1223SOL    HW2 3688   1.739   4.292   1.162
 1224SOL     OW 3689   0.671   4.188   1.269
 1224SOL    HW1 3690   0.637   4.099   1.239
 1224SOL    HW2 3691   0.697   4.242   1.189
 1225SOL     OW 3692   0.473   4.224   0.191
 1225SOL    HW1 3693   0.534   4.304   0.195
 1225SOL    HW2 3694   0.378   4.255   0.198
 1226SOL     OW 3695   0.159   4.861   1.466
 1226SOL    HW1 3696   0.181   4.800   1.542
 1226SOL    HW2 3697   0.169   4.812   1.380
 1227SOL     OW 3698   1.347   4.783   1.234
 1227SOL    HW1 3699   1.371   4.720   1.160
 1227SOL    HW2 3700   1.257   4.823   1.216
 1228SOL     OW 3701   1.302   4.579   0.309
 1228SOL    HW1 3702   1.216   4.548   0.351
 1228SOL    HW2 3703   1.298   4.565   0.210
 1229SOL     OW 3704   0.083   4.982   1.022
 1229SOL    HW1 3705   0.078   4.981   1.122
 1229SOL    HW2 3706   0.000   4.941   0.984
 1230SOL     OW 3707   0.903   3.810   0.133
 1230SOL    HW1 3708   0.954   3.811   0.047
 1230SOL    HW2 3709   0.959   3.768   0.204
 1231SOL     OW 3710   1.726   3.859   0.523
 1231SOL    HW1 3711   1.799   3.842   0.456
 1231SOL    HW2 3712   1.695   3.772   0.561
 1232SOL     OW 3713   1.280   4.651   0.672
 1232SOL    HW1 3714   1.340   4.570   0.674
 1232SOL    HW2 3715   1.320   4.720   0.612
 1233SOL     OW 3716   1.841   3.899   0.963
 1233SOL    HW1 3717   1.880   3.814   0.927
 1233SOL    HW2 3718   1.743   3.901   0.944
 1234SOL     OW 3719   0.263   4.050   0.720
 1234SOL    HW1 3720   0.184   4.101   0.686
 1234SOL    HW2 3721   0.254   4.035   0.818
 1235SOL     OW 3722   0.822   4.726   1.372
 1235SOL    HW1 3723   0.862   4.725   1.280
 1235SOL    HW2 3724   0.832   4.818   1.412
 1236SOL     OW 3725   0.916   4.634   0.291
 1236SOL    HW1 3726   0.979   4.672   0.223
 1236SOL    HW2 3727   0.956   4.551   0.330
 1237SOL     OW 3728   0.372   5.012   1.490
 1237SOL    HW1 3729   0.359   5.105   1.456
 1237SOL    HW2 3730   0.288   4.960   1.477
 1238SOL     OW 3731   1.014   3.960   0.971
 1238SOL    HW1 3732   1.006   3.924   0.878
 1238SOL    HW2 3733   1.012   3.884   1.036
 1239SOL     OW 3734   1.709   4.109   1.381
 1239SOL    HW1 3735   1.782   4.178   1.385
 1239SOL    HW2 3736   1.737   4.034   1.322
 1240SOL     OW 3737   0.105   4.737   1.726
 1240SOL    HW1 3738   0.028   4.704   1.780
 1240SOL    HW2 3739   0.190   4.707   1.768
 1241SOL     OW 3740   0.672   3.927   1.489
 1241SOL    HW1 3741   0.762   3.911   1.449
 1241SOL    HW2 3742   0.680   3.932   1.588
 1242SOL     OW 3743   0.075   4.069   0.033
 1242SOL    HW1 3744  -0.017   4.041   0.004
 1242SOL    HW2 3745   0.106   4.146  -0.023
 1243SOL     OW 3746   1.440   4.580   1.398
 1243SOL    HW1 3747   1.383   4.632   1.335
 1243SOL    HW2 3748   1.536   4.592   1.374
 1244SOL     OW 3749   0.072   3.890   0.318
 1244SOL    HW1 3750   0.055   3.973   0.264
 1244SOL    HW2 3751   0.162   3.853   0.296
 1245SOL     OW 3752   0.613   4.566   1.431
 1245SOL    HW1 3753   0.669   4.647   1.414
 1245SOL    HW2 3754   0.672   4.486   1.434
 1246SOL     OW 3755   0.716   4.289   1.708
 1246SOL    HW1 3756   0.735   4.354   1.782
 1246SOL    HW2 3757   0.776   4.209   1.717
 1247SOL     OW 3758   1.450   4.944   1.633
 1247SOL    HW1 3759   1.441   4.934   1.732
 1247SOL    HW2 3760   1.546   4.937   1.607
 1248SOL     OW 3761   1.674   4.607   1.254
 1248SOL    HW1 3762   1.647   4.518   1.217
 1248SOL    HW2 3763   1.675   4.675   1.181
 1249SOL     OW 3764   1.225   4.049   0.449
 1249SOL    HW1 3765   1.290   3.975   0.438
 1249SOL    HW2 3766   1.245   4.099   0.533
 1250SOL     OW 3767   0.594   4.469   0.652
 1250SOL    HW1 3768   0.644   4.554   0.633
 1250SOL    HW2 3769   0.506   4.471   0.604
 1251SOL     OW 3770   1.777   4.066   1.642
 1251SOL    HW1 3771   1.760   4.097   1.548
 1251SOL    HW2 3772   1.693   4.029   1.680
 1252SOL     OW 3773   1.730   4.658   1.517
 1252SOL    HW1 3774   1.768   4.749   1.532
 1252SOL    HW2 3775   1.722   4.641   1.418
 1253SOL     OW 3776   0.859   4.680   0.861
 1253SOL    HW1 3777   0.913   4.611   0.909
 1253SOL    HW2 3778   0.827   4.749   0.927
 1254SOL     OW 3779   1.083   4.708   0.087
 1254SOL    HW1 3780   1.060   4.761   0.005
 1254SOL    HW2 3781   1.164   4.652   0.068
 1255SOL     OW 3782   0.079   4.964   0.653
 1255SOL    HW1 3783   0.078   4.917   0.741
 1255SOL    HW2 3784   0.161   4.936   0.602
 1256SOL     OW 3785   1.824   3.916   1.227
 1256SOL    HW1 3786   1.820   3.826   1.271
 1256SOL    HW2 3787   1.827   3.905   1.128
 1257SOL     OW 3788   0.428   4.148   0.520
 1257SOL    HW1 3789   0.458   4.076   0.458
 1257SOL    HW2 3790   0.389   4.108   0.603
 1258SOL     OW 3791   0.317   4.271   1.280
 1258SOL    HW1 3792   0.355   4.212   1.352
 1258SOL    HW2 3793   0.357   4.245   1.192
 1259SOL     OW 3794   1.424   3.938   1.112
 1259SOL    HW1 3795   1.476   3.873   1.167
 1259SOL    HW2 3796   1.375   4.001   1.173
 1260SOL     OW 3797   1.001   3.758   1.154
 1260SOL    HW1 3798   0.938   3.686   1.123
 1260SOL    HW2 3799   1.094   3.722   1.154
 1261SOL     OW 3800   0.770   5.054   0.301
 1261SOL    HW1 3801   0.724   4.967   0.318
 1261SOL    HW2 3802   0.861   5.051   0.342
 1262SOL     OW 3803   1.352   3.776   0.168
 1262SOL    HW1 3804   1.387   3.735   0.084
 1262SOL    HW2 3805   1.262   3.738   0.188
 1263SOL     OW 3806   1.300   4.177   0.691
 1263SOL    HW1 3807   1.241   4.257   0.695
 1263SOL    HW2 3808   1.315   4.142   0.784
 1264SOL     OW 3809   1.593   3.945   0.882
 1264SOL    HW1 3810   1.509   3.944   0.936
 1264SOL    HW2 3811   1.595   4.028   0.826
 1265SOL     OW 3812   0.039   4.801   0.300
 1265SOL    HW1 3813   0.138   4.790   0.291
 1265SOL    HW2 3814  -0.001   4.715   0.332
 1266SOL     OW 3815   0.230   4.352   1.975
 1266SOL    HW1 3816   0.137   4.350   2.012
 1266SOL    HW2 3817   0.231   4.313   1.883
 1267SOL     OW 3818   0.225   3.999   2.858
 1267SOL    HW1 3819   0.260   3.982   2.950
 1267SOL    HW2 3820   0.137   3.954   2.846
 1268SOL     OW 3821   0.019   4.092   2.509
 1268SOL    HW1 3822  -0.063   4.135   2.548
 1268SOL    HW2 3823  -0.009   4.019   2.446
 1269SOL     OW 3824   1.135   4.427   2.579
 1269SOL    HW1 3825   1.192   4.505   2.554
 1269SOL    HW2 3826   1.075   4.453   2.655
 1270SOL     OW 3827   1.755   4.331   2.093
 1270SOL    HW1 3828   1.743   4.318   1.994
 1270SOL    HW2 3829   1.725   4.250   2.142
 1271SOL     OW 3830   0.768   4.868   2.885
 1271SOL    HW1 3831   0.690   4.885   2.945
 1271SOL    HW2 3832   0.802   4.955   2.849
 1272SOL     OW 3833   0.850   4.522   3.685
 1272SOL    HW1 3834   0.846   4.598   3.750
 1272SOL    HW2 3835   0.872   4.558   3.594
 1273SOL     OW 3836   0.685   4.736   2.527
 1273SOL    HW1 3837   0.754   4.720   2.597
 1273SOL    HW2 3838   0.612   4.793   2.565
 1274SOL     OW 3839   1.460   5.229   3.201
 1274SOL    HW1 3840   1.484   5.323   3.227
 1274SOL    HW2 3841   1.444   5.175   3.283
 1275SOL     OW 3842   0.438   4.116   3.361
 1275SOL    HW1 3843   0.520   4.060   3.370
 1275SOL    HW2 3844   0.357   4.058   3.365
 1276SOL     OW 3845   1.603   4.171   2.599
 1276SOL    HW1 3846   1.529   4.217   2.549
 1276SOL    HW2 3847   1.654   4.239   2.652
 1277SOL     OW 3848   0.240   4.815   2.748
 1277SOL    HW1 3849   0.254   4.731   2.800
 1277SOL    HW2 3850   0.185   4.879   2.803
 1278SOL     OW 3851   0.606   4.688   1.985
 1278SOL    HW1 3852   0.613   4.772   1.931
 1278SOL    HW2 3853   0.652   4.701   2.073
 1279SOL     OW 3854   1.594   3.838   3.342
 1279SOL    HW1 3855   1.576   3.905   3.270
 1279SOL    HW2 3856   1.591   3.884   3.431
 1280SOL     OW 3857   0.122   4.367   2.425
 1280SOL    HW1 3858   0.077   4.279   2.442
 1280SOL    HW2 3859   0.121   4.421   2.509
 1281SOL     OW 3860   1.689   4.646   2.474
 1281SOL    HW1 3861   1.784   4.617   2.482
 1281SOL    HW2 3862   1.681   4.711   2.399
 1282SOL     OW 3863   0.113   4.461   3.459
 1282SOL    HW1 3864   0.201   4.448   3.504
 1282SOL    HW2 3865   0.100   4.558   3.437
 1283SOL     OW 3866   0.613   5.089   2.588
 1283SOL    HW1 3867   0.564   5.002   2.597
 1283SOL    HW2 3868   0.590   5.132   2.501
 1284SOL     OW 3869   1.293   4.952   3.285
 1284SOL    HW1 3870   1.330   4.879   3.227
 1284SOL    HW2 3871   1.345   4.957   3.370
 1285SOL     OW 3872   0.809   3.728   2.364
 1285SOL    HW1 3873   0.849   3.819   2.355
 1285SOL    HW2 3874   0.709   3.736   2.370
 1286SOL     OW 3875   0.197   4.700   3.126
 1286SOL    HW1 3876   0.286   4.655   3.112
 1286SOL    HW2 3877   0.124   4.635   3.107
 1287SOL     OW 3878   1.525   4.723   2.052
 1287SOL    HW1 3879   1.462   4.647   2.065
 1287SOL    HW2 3880   1.573   4.741   2.138
 1288SOL     OW 3881   0.317   3.975   3.663
 1288SOL    HW1 3882   0.388   4.046   3.669
 1288SOL    HW2 3883   0.229   4.014   3.691
 1289SOL     OW 3884   0.598   4.453   2.132
 1289SOL    HW1 3885   0.622   4.522   2.064
 1289SOL    HW2 3886   0.520   4.486   2.186
 1290SOL     OW 3887   1.281   4.069   2.806
 1290SOL    HW1 3888   1.195   4.019   2.793
 1290SOL    HW2 3889   1.343   4.015   2.862
 1291SOL     OW 3890   0.807   4.329   3.327
 1291SOL    HW1 3891   0.760   4.326   3.416
 1291SOL    HW2 3892   0.756   4.274   3.261
 1292SOL     OW 3893   1.394   4.193   3.536
 1292SOL    HW1 3894   1.374   4.236   3.624
 1292SOL    HW2 3895   1.472   4.131   3.545
 1293SOL     OW 3896   0.973   4.614   3.434
 1293SOL    HW1 3897   1.019   4.530   3.405
 1293SOL    HW2 3898   0.917   4.648   3.359
 1294SOL     OW 3899   0.991   4.134   3.104
 1294SOL    HW1 3900   0.914   4.168   3.158
 1294SOL    HW2 3901   0.957   4.083   3.025
 1295SOL     OW 3902   1.041   4.425   2.291
 1295SOL    HW1 3903   1.067   4.421   2.387
 1295SOL    HW2 3904   0.956   4.374   2.277
 1296SOL     OW 3905   0.076   4.535   2.651
 1296SOL    HW1 3906   0.175   4.523   2.660
 1296SOL    HW2 3907   0.052   4.630   2.672
 1297SOL     OW 3908   0.865   4.072   2.057
 1297SOL    HW1 3909   0.924   4.135   2.008
 1297SOL    HW2 3910   0.884   3.978   2.028
 1298SOL     OW 3911   1.719   4.309   3.693
 1298SOL    HW1 3912   1.693   4.398   3.657
 1298SOL    HW2 3913   1.717   4.241   3.620
 1299SOL     OW 3914   0.550   3.920   2.747
 1299SOL    HW1 3915   0.545   3.915   2.847
 1299SOL    HW2 3916   0.552   4.016   2.718
 1300SOL     OW 3917   1.795   4.790   2.735
 1300SOL    HW1 3918   1.733   4.775   2.659
 1300SOL    HW2 3919   1.743   4.801   2.820
 1301SOL     OW 3920   0.321   4.667   2.104
 1301SOL    HW1 3921   0.403   4.706   2.062
 1301SOL    HW2 3922   0.294   4.585   2.055
 1302SOL     OW 3923   1.458   4.459   2.590
 1302SOL    HW1 3924   1.453   4.394   2.665
 1302SOL    HW2 3925   1.538   4.518   2.603
 1303SOL     OW 3926   0.202   4.009   3.360
 1303SOL    HW1 3927   0.122   4.069   3.347
 1303SOL    HW2 3928   0.192   3.960   3.446
 1304SOL     OW 3929   1.400   3.831   2.288
 1304SOL    HW1 3930   1.376   3.794   2.198
 1304SOL    HW2 3931   1.499   3.847   2.292
 1305SOL     OW 3932   0.382   4.424   2.342
 1305SOL    HW1 3933   0.427   4.334   2.339
 1305SOL    HW2 3934   0.288   4.413   2.375
 1306SOL     OW 3935   1.547   3.946   3.591
 1306SOL    HW1 3936   1.542   3.983   3.683
 1306SOL    HW2 3937   1.475   3.877   3.579
 1307SOL     OW 3938   0.614   3.846   1.979
 1307SOL    HW1 3939   0.712   3.824   1.986
 1307SOL    HW2 3940   0.583   3.829   1.886
 1308SOL     OW 3941   0.781   3.988   3.611
 1308SOL    HW1 3942   0.848   3.927   3.654
 1308SOL    HW2 3943   0.708   4.007   3.676
 1309SOL     OW 3944   1.351   4.314   3.295
 1309SOL    HW1 3945   1.379   4.271   3.380
 1309SOL    HW2 3946   1.376   4.410   3.296
 1310SOL     OW 3947   0.922   4.227   2.761
 1310SOL    HW1 3948   0.897   4.218   2.665
 1310SOL    HW2 3949   0.970   4.145   2.792
 1311SOL     OW 3950   0.539   3.788   2.374
 1311SOL    HW1 3951   0.458   3.789   2.432
 1311SOL    HW2 3952   0.542   3.871   2.319
 1312SOL     OW 3953   0.297   3.759   2.033
 1312SOL    HW1 3954   0.346   3.843   2.012
 1312SOL    HW2 3955   0.359   3.694   2.078
 1313SOL     OW 3956   0.935   3.960   2.342
 1313SOL    HW1 3957   0.887   4.001   2.264
 1313SOL    HW2 3958   1.034   3.958   2.323
 1314SOL     OW 3959   1.076   4.407   3.326
 1314SOL    HW1 3960   0.996   4.346   3.329
 1314SOL    HW2 3961   1.157   4.354   3.302
 1315SOL     OW 3962   0.459   4.876   2.603
 1315SOL    HW1 3963   0.388   4.849   2.668
 1315SOL    HW2 3964   0.433   4.848   2.510
 1316SOL     OW 3965   1.032   4.273   1.878
 1316SOL    HW1 3966   0.991   4.355   1.839
 1316SOL    HW2 3967   1.096   4.299   1.951
 1317SOL     OW 3968   0.078   4.280   3.248
 1317SOL    HW1 3969   0.170   4.279   3.207
 1317SOL    HW2 3970   0.072   4.354   3.315
 1318SOL     OW 3971   0.561   3.946   3.009
 1318SOL    HW1 3972   0.599   3.862   3.046
 1318SOL    HW2 3973   0.473   3.965   3.053
 1319SOL     OW 3974   0.866   4.178   2.504
 1319SOL    HW1 3975   0.834   4.250   2.442
 1319SOL    HW2 3976   0.890   4.097   2.451
 1320SOL     OW 3977   1.017   3.763   2.615
 1320SOL    HW1 3978   0.945   3.768   2.546
 1320SOL    HW2 3979   0.993   3.694   2.684
 1321SOL     OW 3980   1.429   4.897   2.729
 1321SOL    HW1 3981   1.374   4.813   2.722
 1321SOL    HW2 3982   1.455   4.926   2.637
 1322SOL     OW 3983   1.466   4.314   2.854
 1322SOL    HW1 3984   1.436   4.219   2.861
 1322SOL    HW2 3985   1.539   4.330   2.920
 1323SOL     OW 3986   1.857   4.557   2.239
 1323SOL    HW1 3987   1.899   4.493   2.303
 1323SOL    HW2 3988   1.819   4.506   2.161
 1324SOL     OW 3989   1.390   4.299   1.940
 1324SOL    HW1 3990   1.336   4.278   2.021
 1324SOL    HW2 3991   1.481   4.258   1.949
 1325SOL     OW 3992   0.527   3.980   2.190
 1325SOL    HW1 3993   0.554   3.921   2.115
 1325SOL    HW2 3994   0.527   4.075   2.159
 1326SOL     OW 3995   1.754   4.947   3.450
 1326SOL    HW1 3996   1.845   4.908   3.437
 1326SOL    HW2 3997   1.762   5.043   3.474
 1327SOL     OW 3998   1.638   4.823   2.941
 1327SOL    HW1 3999   1.643   4.904   3.000
 1327SOL    HW2 4000   1.552   4.825   2.890
 1328SOL     OW 4001   0.915   3.813   3.264
 1328SOL    HW1 4002   0.940   3.793   3.169
 1328SOL    HW2 4003   0.987   3.869   3.306
 1329SOL     OW 4004   0.705   4.774   2.230
 1329SOL    HW1 4005   0.691   4.781   2.329
 1329SOL    HW2 4006   0.789   4.723   2.212
 1330SOL     OW 4007   0.410   4.537   3.113
 1330SOL    HW1 4008   0.496   4.549   3.163
 1330SOL    HW2 4009   0.368   4.450   3.140
 1331SOL     OW 4010   1.274   4.110   3.124
 1331SOL    HW1 4011   1.295   4.184   3.188
 1331SOL    HW2 4012   1.185   4.127   3.081
 1332SOL     OW 4013   0.367   4.824   2.363
 1332SOL    HW1 4014   0.360   4.907   2.307
 1332SOL    HW2 4015   0.371   4.744   2.303
 1333SOL     OW 4016   0.566   4.261   2.727
 1333SOL    HW1 4017   0.578   4.327   2.653
 1333SOL    HW2 4018   0.612   4.295   2.810
 1334SOL     OW 4019   1.582   4.363   2.334
 1334SOL    HW1 4020   1.551   4.424   2.407
 1334SOL    HW2 4021   1.632   4.415   2.265
 1335SOL     OW 4022   0.402   4.475   3.460
 1335SOL    HW1 4023   0.470   4.530   3.413
 1335SOL    HW2 4024   0.442   4.387   3.487
 1336SOL     OW 4025   1.587   4.503   3.532
 1336SOL    HW1 4026   1.495   4.541   3.527
 1336SOL    HW2 4027   1.647   4.550   3.467
 1337SOL     OW 4028   1.013   3.829   3.632
 1337SOL    HW1 4029   1.019   3.914   3.580
 1337SOL    HW2 4030   1.045   3.753   3.575
 1338SOL     OW 4031   0.504   3.774   3.602
 1338SOL    HW1 4032   0.462   3.717   3.532
 1338SOL    HW2 4033   0.438   3.843   3.634
 1339SOL     OW 4034   0.573   4.594   2.891
 1339SOL    HW1 4035   0.617   4.683   2.882
 1339SOL    HW2 4036   0.510   4.594   2.968
 1340SOL     OW 4037   1.360   4.586   2.907
 1340SOL    HW1 4038   1.285   4.586   2.841
 1340SOL    HW2 4039   1.397   4.494   2.916
 1341SOL     OW 4040   1.209   4.249   2.137
 1341SOL    HW1 4041   1.222   4.165   2.191
 1341SOL    HW2 4042   1.180   4.323   2.197
 1342SOL     OW 4043   0.307   3.937   3.093
 1342SOL    HW1 4044   0.284   3.974   3.183
 1342SOL    HW2 4045   0.277   3.842   3.087
 1343SOL     OW 4046   0.037   5.034   3.144
 1343SOL    HW1 4047   0.090   4.985   3.212
 1343SOL    HW2 4048   0.059   5.132   3.149
 1344SOL     OW 4049   0.732   4.358   2.926
 1344SOL    HW1 4050   0.791   4.332   2.850
 1344SOL    HW2 4051   0.704   4.454   2.915
 1345SOL     OW 4052   1.728   4.659   3.716
 1345SOL    HW1 4053   1.682   4.652   3.627
 1345SOL    HW2 4054   1.666   4.703   3.782
 1346SOL     OW 4055   0.307   3.787   2.480
 1346SOL    HW1 4056   0.296   3.881   2.513
 1346SOL    HW2 4057   0.302   3.724   2.557
 1347SOL     OW 4058   1.622   4.091   2.236
 1347SOL    HW1 4059   1.624   4.015   2.300
 1347SOL    HW2 4060   1.574   4.168   2.276
 1348SOL     OW 4061   1.023   4.490   2.828
 1348SOL    HW1 4062   1.038   4.511   2.924
 1348SOL    HW2 4063   0.993   4.395   2.819
 1349SOL     OW 4064   0.350   4.622   3.666
 1349SOL    HW1 4065   0.426   4.666   3.714
 1349SOL    HW2 4066   0.385   4.575   3.584
 1350SOL     OW 4067   1.540   3.998   1.987
 1350SOL    HW1 4068   1.479   3.923   2.010
 1350SOL    HW2 4069   1.562   4.050   2.070
 1351SOL     OW 4070   1.303   4.562   1.904
 1351SOL    HW1 4071   1.337   4.469   1.919
 1351SOL    HW2 4072   1.321   4.589   1.809
 1352SOL     OW 4073   0.319   4.534   2.811
 1352SOL    HW1 4074   0.412   4.570   2.816
 1352SOL    HW2 4075   0.313   4.449   2.863
 1353SOL     OW 4076   0.339   4.233   2.868
 1353SOL    HW1 4077   0.287   4.150   2.851
 1353SOL    HW2 4078   0.416   4.238   2.804
 1354SOL     OW 4079   1.138   4.104   3.540
 1354SOL    HW1 4080   1.093   4.167   3.604
 1354SOL    HW2 4081   1.231   4.135   3.523
 1355SOL     OW 4082   1.160   3.931   3.339
 1355SOL    HW1 4083   1.160   3.995   3.416
 1355SOL    HW2 4084   1.188   3.979   3.256
 1356SOL     OW 4085   1.002   4.520   3.100
 1356SOL    HW1 4086   1.043   4.488   3.186
 1356SOL    HW2 4087   0.906   4.493   3.097
 1357SOL     OW 4088   0.040   4.268   2.976
 1357SOL    HW1 4089   0.125   4.235   2.935
 1357SOL    HW2 4090   0.053   4.283   3.074
 1358SOL     OW 4091   0.189   4.244   3.584
 1358SOL    HW1 4092   0.248   4.204   3.514
 1358SOL    HW2 4093   0.131   4.315   3.543
 1359SOL     OW 4094   1.369   4.674   3.522
 1359SOL    HW1 4095   1.408   4.763   3.542
 1359SOL    HW2 4096   1.379   4.654   3.425
 1360SOL     OW 4097   0.815   4.296   2.187
 1360SOL    HW1 4098   0.822   4.207   2.141
 1360SOL    HW2 4099   0.721   4.330   2.179
 1361SOL     OW 4100   1.657   4.328   3.068
 1361SOL    HW1 4101   1.619   4.259   3.130
 1361SOL    HW2 4102   1.739   4.292   3.024
 1362SOL     OW 4103   0.671   4.188   3.131
 1362SOL    HW1 4104   0.637   4.099   3.101
 1362SOL    HW2 4105   0.697   4.242   3.051
 1363SOL     OW 4106   0.473   4.224   2.053
 1363SOL    HW1 4107   0.534   4.304   2.057
 1363SOL    HW2 4108   0.378   4.255   2.060
 1364SOL     OW 4109   0.159   4.861   3.328
 1364SOL    HW1 4110   0.181   4.800   3.404
 1364SOL    HW2 4111   0.169   4.812   3.242
 1365SOL     OW 4112   1.347   4.783   3.096
 1365SOL    HW1 4113   1.371   4.720   3.022
 1365SOL    HW2 4114   1.257   4.823   3.078
 1366SOL     OW 4115   1.302   4.579   2.171
 1366SOL    HW1 4116   1.216   4.548   2.213
 1366SOL    HW2 4117   1.298   4.565   2.072
 1367SOL     OW 4118   0.083   4.982   2.884
 1367SOL    HW1 4119   0.078   4.981   2.984
 1367SOL    HW2 4120   0.000   4.941   2.846
 1368SOL     OW 4121   1.726   3.859   2.385
 1368SOL    HW1 4122   1.799   3.842   2.318
 1368SOL    HW2 4123   1.695   3.772   2.423
 1369SOL     OW 4124   1.280   4.651   2.534
 1369SOL    HW1 4125   1.340   4.570   2.536
 1369SOL    HW2 4126   1.320   4.720   2.474
 1370SOL     OW 4127   1.841   3.899   2.825
 1370SOL    HW1 4128   1.880   3.814   2.789
 1370SOL    HW2 4129   1.743   3.901   2.806
 1371SOL     OW 4130   0.263   4.050   2.582
 1371SOL    HW1 4131   0.184   4.101   2.548
 1371SOL    HW2 4132   0.254   4.035   2.680
 1372SOL     OW 4133   0.822   4.726   3.234
 1372SOL    HW1 4134   0.862   4.725   3.142
 1372SOL    HW2 4135   0.832   4.818   3.274
 1373SOL     OW 4136   0.916   4.634   2.153
 1373SOL    HW1 4137   0.979   4.672   2.085
 1373SOL    HW2 4138   0.956   4.551   2.192
 1374SOL     OW 4139   0.372   5.012   3.352
 1374SOL    HW1 4140   0.359   5.105   3.318
 1374SOL    HW2 4141   0.288   4.960   3.339
 1375SOL     OW 4142   1.014   3.960   2.833
 1375SOL    HW1 4143   1.006   3.924   2.740
 1375SOL    HW2 4144   1.012   3.884   2.898
 1376SOL     OW 4145   1.709   4.109   3.243
 1376SOL    HW1 4146   1.782   4.178   3.247
 1376SOL    HW2 4147   1.737   4.034   3.184
 1377SOL     OW 4148   0.105   4.737   3.588
 1377SOL    HW1 4149   0.028   4.704   3.642
 1377SOL    HW2 4150   0.190   4.707   3.630
 1378SOL     OW 4151   0.672   3.927   3.351
 1378SOL    HW1 4152   0.762   3.911   3.311
 1378SOL    HW2 4153   0.680   3.932   3.450
 1379SOL     OW 4154   0.075   4.069   1.895
 1379SOL    HW1 4155  -0.017   4.041   1.866
 1379SOL    HW2 4156   0.106   4.146   1.839
 1380SOL     OW 4157   1.440   4.580   3.260
 1380SOL    HW1 4158   1.383   4.632   3.197
 1380SOL    HW2 4159   1.536   4.592   3.236
 1381SOL     OW 4160   0.072   3.890   2.180
 1381SOL    HW1 4161   0.055   3.973   2.126
 1381SOL    HW2 4162   0.162   3.853   2.158
 1382SOL     OW 4163   0.613   4.566   3.293
 1382SOL    HW1 4164   0.669   4.647   3.276
 1382SOL    HW2 4165   0.672   4.486   3.296
 1383SOL     OW 4166   0.716   4.289   3.570
 1383SOL    HW1 4167   0.735   4.354   3.644
 1383SOL    HW2 4168   0.776   4.209   3.579
 1384SOL     OW 4169   1.450   4.944   3.495
 1384SOL    HW1 4170   1.441   4.934   3.594
 1384SOL    HW2 4171   1.546   4.937   3.469
 1385SOL     OW 4172   1.674   4.607   3.116
 1385SOL    HW1 4173   1.647   4.518   3.079
 1385SOL    HW2 4174   1.675   4.675   3.043
 1386SOL     OW 4175   1.225   4.049   2.311
 1386SOL    HW1 4176   1.290   3.975   2.300
 1386SOL    HW2 4177   1.245   4.099   2.395
 1387SOL     OW 4178   0.594   4.469   2.514
 1387SOL    HW1 4179   0.644   4.554   2.495
 1387SOL    HW2 4180   0.506   4.471   2.466
 1388SOL     OW 4181   1.777   4.066   3.504
 1388SOL    HW1 4182   1.760   4.097   3.410
 1388SOL    HW2 4183   1.693   4.029   3.542
 1389SOL     OW 4184   1.730   4.658   3.379
 1389SOL    HW1 4185   1.768   4.749   3.394
 1389SOL    HW2 4186   1.722   4.641   3.280
 1390SOL     OW 4187   0.859   4.680   2.723
 1390SOL    HW1 4188   0.913   4.611   2.771
 1390SOL    HW2 4189   0.827   4.749   2.789
 1391SOL     OW 4190   1.083   4.708   1.949
 1391SOL    HW1 4191   1.060   4.761   1.867
 1391SOL    HW2 4192   1.164   4.652   1.930
 1392SOL     OW 4193   0.079   4.964   2.515
 1392SOL    HW1 4194   0.078   4.917   2.603
 1392SOL    HW2 4195   0.161   4.936   2.464
 1393SOL     OW 4196   1.824   3.916   3.089
 1393SOL    HW1 4197   1.820   3.826   3.133
 1393SOL    HW2 4198   1.827   3.905   2.990
 1394SOL     OW 4199   0.428   4.148   2.382
 1394SOL    HW1 4200   0.458   4.076   2.320
 1394SOL    HW2 4201   0.389   4.108   2.465
 1395SOL     OW 4202   0.317   4.271   3.142
 1395SOL    HW1 4203   0.355   4.212   3.214
 1395SOL    HW2 4204   0.357   4.245   3.054
 1396SOL     OW 4205   1.424   3.938   2.974
 1396SOL    HW1 4206   1.476   3.873   3.029
 1396SOL    HW2 4207   1.375   4.001   3.035
 1397SOL     OW 4208   1.001   3.758   3.016
 1397SOL    HW1 4209   0.938   3.686   2.985
 1397SOL    HW2 4210   1.094   3.722   3.016
 1398SOL     OW 4211   0.770   5.054   2.163
 1398SOL    HW1 4212   0.724   4.967   2.180
 1398SOL    HW2 4213   0.861   5.051   2.204
 1399SOL     OW 4214   1.352   3.776   2.030
 1399SOL    HW1 4215   1.387   3.735   1.946
 1399SOL    HW2 4216   1.262   3.738   2.050
 1400SOL     OW 4217   1.300   4.177   2.553
 1400SOL    HW1 4218   1.241   4.257   2.557
 1400SOL    HW2 4219   1.315   4.142   2.646
 1401SOL     OW 4220   1.593   3.945   2.744
 1401SOL    HW1 4221   1.509   3.944   2.798
 1401SOL    HW2 4222   1.595   4.028   2.688
 1402SOL     OW 4223   0.039   4.801   2.162
 1402SOL    HW1 4224   0.138   4.790   2.153
 1402SOL    HW2 4225  -0.001   4.715   2.194
 1403SOL     OW 4226   0.230   4.352   3.837
 1403SOL    HW1 4227   0.137   4.350   3.874
 1403SOL    HW2 4228   0.231   4.313   3.745
 1404SOL     OW 4229   0.225   3.999   4.720
 1404SOL    HW1 4230   0.260   3.982   4.812
 1404SOL    HW2 4231   0.137   3.954   4.708
 1405SOL     OW 4232   0.019   4.092   4.371
 1405SOL    HW1 4233  -0.063   4.135   4.410
 1405SOL    HW2 4234  -0.009   4.019   4.308
 1406SOL     OW 4235   1.135   4.427   4.441
 1406SOL    HW1 4236   1.192   4.505   4.416
 1406SOL    HW2 4237   1.075   4.453   4.517
 1407SOL     OW 4238   1.755   4.331   3.955
 1407SOL    HW1 4239   1.743   4.318   3.856
 1407SOL    HW2 4240   1.725   4.250   4.004
 1408SOL     OW 4241   0.768   4.868   4.747
 1408SOL    HW1 4242   0.690   4.885   4.807
 1408SOL    HW2 4243   0.802   4.955   4.711
 1409SOL     OW 4244   0.685   4.736   4.389
 1409SOL    HW1 4245   0.754   4.720   4.459
 1409SOL    HW2 4246   0.612   4.793   4.427
 1410SOL     OW 4247   1.603   4.171   4.461
 1410SOL    HW1 4248   1.529   4.217   4.411
 1410SOL    HW2 4249   1.654   4.239   4.514
 1411SOL     OW 4250   0.240   4.815   4.610
 1411SOL    HW1 4251   0.254   4.731   4.662
 1411SOL    HW2 4252   0.185   4.879   4.665
 1412SOL     OW 4253   0.606   4.688   3.847
 1412SOL    HW1 4254   0.613   4.772   3.793
 1412SOL    HW2 4255   0.652   4.701   3.935
 1413SOL     OW 4256   0.122   4.367   4.287
 1413SOL    HW1 4257   0.077   4.279   4.304
 1413SOL    HW2 4258   0.121   4.421   4.371
 1414SOL     OW 4259   1.689   4.646   4.336
 1414SOL    HW1 4260   1.784   4.617   4.344
 1414SOL    HW2 4261   1.681   4.711   4.261
 1415SOL     OW 4262   0.613   5.089   4.450
 1415SOL    HW1 4263   0.564   5.002   4.459
 1415SOL    HW2 4264   0.590   5.132   4.363
 1416SOL     OW 4265   0.809   3.728   4.226
 1416SOL    HW1 4266   0.849   3.819   4.217
 1416SOL    HW2 4267   0.709   3.736   4.232
 1417SOL     OW 4268   0.197   4.700   4.988
 1417SOL    HW1 4269   0.286   4.655   4.974
 1417SOL    HW2 4270   0.124   4.635   4.969
 1418SOL     OW 4271   1.525   4.723   3.914
 1418SOL    HW1 4272   1.462   4.647   3.927
 1418SOL    HW2 4273   1.573   4.741   4.000
 1419SOL     OW 4274   0.598   4.453   3.994
 1419SOL    HW1 4275   0.622   4.522   3.926
 1419SOL    HW2 4276   0.520   4.486   4.048
 1420SOL     OW 4277   1.281   4.069   4.668
 1420SOL    HW1 4278   1.195   4.019   4.655
 1420SOL    HW2 4279   1.343   4.015   4.724
 1421SOL     OW 4280   1.041   4.425   4.153
 1421SOL    HW1 4281   1.067   4.421   4.249
 1421SOL    HW2 4282   0.956   4.374   4.139
 1422SOL     OW 4283   0.076   4.535   4.513
 1422SOL    HW1 4284   0.175   4.523   4.522
 1422SOL    HW2 4285   0.052   4.630   4.534
 1423SOL     OW 4286   0.865   4.072   3.919
 1423SOL    HW1 4287   0.924   4.135   3.870
 1423SOL    HW2 4288   0.884   3.978   3.890
 1424SOL     OW 4289   0.550   3.920   4.609
 1424SOL    HW1 4290   0.545   3.915   4.709
 1424SOL    HW2 4291   0.552   4.016   4.580
 1425SOL     OW 4292   1.795   4.790   4.597
 1425SOL    HW1 4293   1.733   4.775   4.521
 1425SOL    HW2 4294   1.743   4.801   4.682
 1426SOL     OW 4295   0.321   4.667   3.966
 1426SOL    HW1 4296   0.403   4.706   3.924
 1426SOL    HW2 4297   0.294   4.585   3.917
 1427SOL     OW 4298   1.458   4.459   4.452
 1427SOL    HW1 4299   1.453   4.394   4.527
 1427SOL    HW2 4300   1.538   4.518   4.465
 1428SOL     OW 4301   1.400   3.831   4.150
 1428SOL    HW1 4302   1.376   3.794   4.060
 1428SOL    HW2 4303   1.499   3.847   4.154
 1429SOL     OW 4304   0.382   4.424   4.204
 1429SOL    HW1 4305   0.427   4.334   4.201
 1429SOL    HW2 4306   0.288   4.413   4.237
 1430SOL     OW 4307   0.614   3.846   3.841
 1430SOL    HW1 4308   0.712   3.824   3.848
 1430SOL    HW2 4309   0.583   3.829   3.748
 1431SOL     OW 4310   0.888   5.238   4.919
 1431SOL    HW1 4311   0.865   5.213   4.825
 1431SOL    HW2 4312   0.949   5.169   4.958
 1432SOL     OW 4313   0.922   4.227   4.623
 1432SOL    HW1 4314   0.897   4.218   4.527
 1432SOL    HW2 4315   0.970   4.145   4.654
 1433SOL     OW 4316   0.539   3.788   4.236
 1433SOL    HW1 4317   0.458   3.789   4.294
 1433SOL    HW2 4318   0.542   3.871   4.181
 1434SOL     OW 4319   0.297   3.759   3.895
 1434SOL    HW1 4320   0.346   3.843   3.874
 1434SOL    HW2 4321   0.359   3.694   3.940
 1435SOL     OW 4322   0.935   3.960   4.204
 1435SOL    HW1 4323   0.887   4.001   4.126
 1435SOL    HW2 4324   1.034   3.958   4.185
 1436SOL     OW 4325   0.459   4.876   4.465
 1436SOL    HW1 4326   0.388   4.849   4.530
 1436SOL    HW2 4327   0.433   4.848   4.372
 1437SOL     OW 4328   1.032   4.273   3.740
 1437SOL    HW1 4329   0.991   4.355   3.701
 1437SOL    HW2 4330   1.096   4.299   3.813
 1438SOL     OW 4331   0.866   4.178   4.366
 1438SOL    HW1 4332   0.834   4.250   4.304
 1438SOL    HW2 4333   0.890   4.097   4.313
 1439SOL     OW 4334   1.017   3.763   4.477
 1439SOL    HW1 4335   0.945   3.768   4.408
 1439SOL    HW2 4336   0.993   3.694   4.546
 1440SOL     OW 4337   1.429   4.897   4.591
 1440SOL    HW1 4338   1.374   4.813   4.584
 1440SOL    HW2 4339   1.455   4.926   4.499
 1441SOL     OW 4340   1.466   4.314   4.716
 1441SOL    HW1 4341   1.436   4.219   4.723
 1441SOL    HW2 4342   1.539   4.330   4.782
 1442SOL     OW 4343   1.857   4.557   4.101
 1442SOL    HW1 4344   1.899   4.493   4.165
 1442SOL    HW2 4345   1.819   4.506   4.023
 1443SOL     OW 4346   1.390   4.299   3.802
 1443SOL    HW1 4347   1.336   4.278   3.883
 1443SOL    HW2 4348   1.481   4.258   3.811
 1444SOL     OW 4349   0.527   3.980   4.052
 1444SOL    HW1 4350   0.554   3.921   3.977
 1444SOL    HW2 4351   0.527   4.075   4.021
 1445SOL     OW 4352   1.111   4.919   4.824
 1445SOL    HW1 4353   1.071   4.963   4.905
 1445SOL    HW2 4354   1.070   4.956   4.741
 1446SOL     OW 4355   1.638   4.823   4.803
 1446SOL    HW1 4356   1.643   4.904   4.862
 1446SOL    HW2 4357   1.552   4.825   4.752
 1447SOL     OW 4358   0.705   4.774   4.092
 1447SOL    HW1 4359   0.691   4.781   4.191
 1447SOL    HW2 4360   0.789   4.723   4.074
 1448SOL     OW 4361   0.410   4.537   4.975
 1448SOL    HW1 4362   0.496   4.549   5.025
 1448SOL    HW2 4363   0.368   4.450   5.002
 1449SOL     OW 4364   0.367   4.824   4.225
 1449SOL    HW1 4365   0.360   4.907   4.169
 1449SOL    HW2 4366   0.371   4.744   4.165
 1450SOL     OW 4367   0.566   4.261   4.589
 1450SOL    HW1 4368   0.578   4.327   4.515
 1450SOL    HW2 4369   0.612   4.295   4.672
 1451SOL     OW 4370   1.582   4.363   4.196
 1451SOL    HW1 4371   1.551   4.424   4.269
 1451SOL    HW2 4372   1.632   4.415   4.127
 1452SOL     OW 4373   0.573   4.594   4.753
 1452SOL    HW1 4374   0.617   4.683   4.744
 1452SOL    HW2 4375   0.510   4.594   4.830
 1453SOL     OW 4376   1.209   4.249   3.999
 1453SOL    HW1 4377   1.222   4.165   4.053
 1453SOL    HW2 4378   1.180   4.323   4.059
 1454SOL     OW 4379   0.307   3.937   4.955
 1454SOL    HW1 4380   0.284   3.974   5.045
 1454SOL    HW2 4381   0.277   3.842   4.949
 1455SOL     OW 4382   0.037   5.034   5.006
 1455SOL    HW1 4383   0.090   4.985   5.074
 1455SOL    HW2 4384   0.059   5.132   5.011
 1456SOL     OW 4385   0.732   4.358   4.788
 1456SOL    HW1 4386   0.791   4.332   4.712
 1456SOL    HW2 4387   0.704   4.454   4.777
 1457SOL     OW 4388   0.307   3.787   4.342
 1457SOL    HW1 4389   0.296   3.881   4.375
 1457SOL    HW2 4390   0.302   3.724   4.419
 1458SOL     OW 4391   1.622   4.091   4.098
 1458SOL    HW1 4392   1.624   4.015   4.162
 1458SOL    HW2 4393   1.574   4.168   4.138
 1459SOL     OW 4394   1.023   4.490   4.690
 1459SOL    HW1 4395   1.038   4.511   4.786
 1459SOL    HW2 4396   0.993   4.395   4.681
 1460SOL     OW 4397   1.540   3.998   3.849
 1460SOL    HW1 4398   1.479   3.923   3.872
 1460SOL    HW2 4399   1.562   4.050   3.932
 1461SOL     OW 4400   1.303   4.562   3.766
 1461SOL    HW1 4401   1.337   4.469   3.781
 1461SOL    HW2 4402   1.321   4.589   3.671
 1462SOL     OW 4403   0.319   4.534   4.673
 1462SOL    HW1 4404   0.412   4.570   4.678
 1462SOL    HW2 4405   0.313   4.449   4.725
 1463SOL     OW 4406   0.339   4.233   4.730
 1463SOL    HW1 4407   0.287   4.150   4.713
 1463SOL    HW2 4408   0.416   4.238   4.666
 1464SOL     OW 4409   1.002   4.520   4.962
 1464SOL    HW1 4410   1.043   4.488   5.048
 1464SOL    HW2 4411   0.906   4.493   4.959
 1465SOL     OW 4412   0.040   4.268   4.838
 1465SOL    HW1 4413   0.125   4.235   4.797
 1465SOL    HW2 4414   0.053   4.283   4.936
 1466SOL     OW 4415   0.815   4.296   4.049
 1466SOL    HW1 4416   0.822   4.207   4.003
 1466SOL    HW2 4417   0.721   4.330   4.041
 1467SOL     OW 4418   1.657   4.328   4.930
 1467SOL    HW1 4419   1.619   4.259   4.992
 1467SOL    HW2 4420   1.739   4.292   4.886
 1468SOL     OW 4421   0.671   4.188   4.993
 1468SOL    HW1 4422   0.637   4.099   4.963
 1468SOL    HW2 4423   0.697   4.242   4.913
 1469SOL     OW 4424   0.473   4.224   3.915
 1469SOL    HW1 4425   0.534   4.304   3.919
 1469SOL    HW2 4426   0.378   4.255   3.922
 1470SOL     OW 4427   1.347   4.783   4.958
 1470SOL    HW1 4428   1.371   4.720   4.884
 1470SOL    HW2 4429   1.257   4.823   4.940
 1471SOL     OW 4430   1.302   4.579   4.033
 1471SOL    HW1 4431   1.216   4.548   4.075
 1471SOL    HW2 4432   1.298   4.565   3.934
 1472SOL     OW 4433   0.083   4.982   4.746
 1472SOL    HW1 4434   0.078   4.981   4.846
 1472SOL    HW2 4435   0.000   4.941   4.708
 1473SOL     OW 4436   1.726   3.859   4.247
 1473SOL    HW1 4437   1.799   3.842   4.180
 1473SOL    HW2 4438   1.695   3.772   4.285
 1474SOL     OW 4439   1.280   4.651   4.396
 1474SOL    HW1 4440   1.340   4.570   4.398
 1474SOL    HW2 4441   1.320   4.720   4.336
 1475SOL     OW 4442   1.841   3.899   4.687
 1475SOL    HW1 4443   1.880   3.814   4.651
 1475SOL    HW2 4444   1.743   3.901   4.668
 1476SOL     OW 4445   0.263   4.050   4.444
 1476SOL    HW1 4446   0.184   4.101   4.410
 1476SOL    HW2 4447   0.254   4.035   4.542
 1477SOL     OW 4448   0.822   4.726   5.096
 1477SOL    HW1 4449   0.862   4.725   5.004
 1477SOL    HW2 4450   0.832   4.818   5.136
 1478SOL     OW 4451   0.916   4.634   4.015
 1478SOL    HW1 4452   0.979   4.672   3.947
 1478SOL    HW2 4453   0.956   4.551   4.054
 1479SOL     OW 4454   1.014   3.960   4.695
 1479SOL    HW1 4455   1.006   3.924   4.602
 1479SOL    HW2 4456   1.012   3.884   4.760
 1480SOL     OW 4457   1.709   4.109   5.105
 1480SOL    HW1 4458   1.782   4.178   5.109
 1480SOL    HW2 4459   1.737   4.034   5.046
 1481SOL     OW 4460   0.075   4.069   3.757
 1481SOL    HW1 4461  -0.017   4.041   3.728
 1481SOL    HW2 4462   0.106   4.146   3.701
 1482SOL     OW 4463   0.072   3.890   4.042
 1482SOL    HW1 4464   0.055   3.973   3.988
 1482SOL    HW2 4465   0.162   3.853   4.020
 1483SOL     OW 4466   1.674   4.607   4.978
 1483SOL    HW1 4467   1.647   4.518   4.941
 1483SOL    HW2 4468   1.675   4.675   4.905
 1484SOL     OW 4469   1.225   4.049   4.173
 1484SOL    HW1 4470   1.290   3.975   4.162
 1484SOL    HW2 4471   1.245   4.099   4.257
 1485SOL     OW 4472   0.594   4.469   4.376
 1485SOL    HW1 4473   0.644   4.554   4.357
 1485SOL    HW2 4474   0.506   4.471   4.328
 1486SOL     OW 4475   1.730   4.658   5.241
 1486SOL    HW1 4476   1.768   4.749   5.256
 1486SOL    HW2 4477   1.722   4.641   5.142
 1487SOL     OW 4478   0.859   4.680   4.585
 1487SOL    HW1 4479   0.913   4.611   4.633
 1487SOL    HW2 4480   0.827   4.749   4.651
 1488SOL     OW 4481   1.083   4.708   3.811
 1488SOL    HW1 4482   1.060   4.761   3.729
 1488SOL    HW2 4483   1.164   4.652   3.792
 1489SOL     OW 4484   0.079   4.964   4.377
 1489SOL    HW1 4485   0.078   4.917   4.465
 1489SOL    HW2 4486   0.161   4.936   4.326
 1490SOL     OW 4487   1.824   3.916   4.951
 1490SOL    HW1 4488   1.820   3.826   4.995
 1490SOL    HW2 4489   1.827   3.905   4.852
 1491SOL     OW 4490   0.428   4.148   4.244
 1491SOL    HW1 4491   0.458   4.076   4.182
 1491SOL    HW2 4492   0.389   4.108   4.327
 1492SOL     OW 4493   1.424   3.938   4.836
 1492SOL    HW1 4494   1.476   3.873   4.891
 1492SOL    HW2 4495   1.375   4.001   4.897
 1493SOL     OW 4496   0.770   5.054   4.025
 1493SOL    HW1 4497   0.724   4.967   4.042
 1493SOL    HW2 4498   0.861   5.051   4.066
 1494SOL     OW 4499   1.352   3.776   3.892
 1494SOL    HW1 4500   1.387   3.735   3.808
 1494SOL    HW2 4501   1.262   3.738   3.912
 1495SOL     OW 4502   1.300   4.177   4.415
 1495SOL    HW1 4503   1.241   4.257   4.419
 1495SOL    HW2 4504   1.315   4.142   4.508
 1496SOL     OW 4505   1.593   3.945   4.606
 1496SOL    HW1 4506   1.509   3.944   4.660
 1496SOL    HW2 4507   1.595   4.028   4.550
 1497SOL     OW 4508   0.039   4.801   4.024
 1497SOL    HW1 4509   0.138   4.790   4.015
 1497SOL    HW2 4510  -0.001   4.715   4.056
 1498SOL     OW 4511   2.092   0.628   0.113
 1498SOL    HW1 4512   1.999   0.626   0.150
 1498SOL    HW2 4513   2.093   0.589   0.021
 1499SOL     OW 4514   2.087   0.275   0.996
 1499SOL    HW1 4515   2.122   0.258   1.088
 1499SOL    HW2 4516   1.999   0.230   0.984
 1500SOL     OW 4517   1.881   0.368   0.647
 1500SOL    HW1 4518   1.799   0.411   0.686
 1500SOL    HW2 4519   1.853   0.295   0.584
 1501SOL     OW 4520   2.431   1.275   1.165
 1501SOL    HW1 4521   2.338   1.268   1.128
 1501SOL    HW2 4522   2.442   1.364   1.209
 1502SOL     OW 4523   3.417   1.511   0.703
 1502SOL    HW1 4524   3.360   1.495   0.784
 1502SOL    HW2 4525   3.358   1.521   0.623
 1503SOL     OW 4526   2.997   0.703   0.717
 1503SOL    HW1 4527   3.054   0.781   0.692
 1503SOL    HW2 4528   2.937   0.729   0.793
 1504SOL     OW 4529   3.617   0.607   0.231
 1504SOL    HW1 4530   3.605   0.594   0.132
 1504SOL    HW2 4531   3.587   0.526   0.280
 1505SOL     OW 4532   2.630   1.144   1.023
 1505SOL    HW1 4533   2.552   1.161   1.083
 1505SOL    HW2 4534   2.664   1.231   0.987
 1506SOL     OW 4535   2.712   0.798   1.823
 1506SOL    HW1 4536   2.708   0.874   1.888
 1506SOL    HW2 4537   2.734   0.834   1.732
 1507SOL     OW 4538   2.547   1.012   0.665
 1507SOL    HW1 4539   2.616   0.996   0.735
 1507SOL    HW2 4540   2.474   1.069   0.703
 1508SOL     OW 4541   2.548   1.161   1.803
 1508SOL    HW1 4542   2.608   1.240   1.817
 1508SOL    HW2 4543   2.462   1.192   1.762
 1509SOL     OW 4544   2.197   1.435   1.061
 1509SOL    HW1 4545   2.119   1.404   1.008
 1509SOL    HW2 4546   2.255   1.493   1.004
 1510SOL     OW 4547   3.322   1.505   1.339
 1510SOL    HW1 4548   3.346   1.599   1.365
 1510SOL    HW2 4549   3.306   1.451   1.421
 1511SOL     OW 4550   2.300   0.392   1.499
 1511SOL    HW1 4551   2.382   0.336   1.508
 1511SOL    HW2 4552   2.219   0.334   1.503
 1512SOL     OW 4553   3.465   0.447   0.737
 1512SOL    HW1 4554   3.391   0.493   0.687
 1512SOL    HW2 4555   3.516   0.515   0.790
 1513SOL     OW 4556   2.093   1.713   0.483
 1513SOL    HW1 4557   2.127   1.790   0.537
 1513SOL    HW2 4558   2.137   1.713   0.393
 1514SOL     OW 4559   2.989   1.341   1.690
 1514SOL    HW1 4560   3.036   1.341   1.778
 1514SOL    HW2 4561   2.941   1.254   1.679
 1515SOL     OW 4562   2.092   1.434   0.538
 1515SOL    HW1 4563   2.066   1.530   0.538
 1515SOL    HW2 4564   2.021   1.380   0.583
 1516SOL     OW 4565   2.102   1.091   0.886
 1516SOL    HW1 4566   2.116   1.007   0.938
 1516SOL    HW2 4567   2.047   1.155   0.941
 1517SOL     OW 4568   2.482   1.786   1.439
 1517SOL    HW1 4569   2.390   1.769   1.474
 1517SOL    HW2 4570   2.510   1.878   1.465
 1518SOL     OW 4571   2.468   0.964   0.123
 1518SOL    HW1 4572   2.475   1.048   0.069
 1518SOL    HW2 4573   2.514   0.977   0.211
 1519SOL     OW 4574   3.456   0.114   1.480
 1519SOL    HW1 4575   3.438   0.181   1.408
 1519SOL    HW2 4576   3.453   0.160   1.569
 1520SOL     OW 4577   1.984   0.643   0.563
 1520SOL    HW1 4578   1.939   0.555   0.580
 1520SOL    HW2 4579   1.983   0.697   0.647
 1521SOL     OW 4580   3.704   1.767   0.359
 1521SOL    HW1 4581   3.758   1.738   0.439
 1521SOL    HW2 4582   3.734   1.857   0.330
 1522SOL     OW 4583   1.889   1.596   0.117
 1522SOL    HW1 4584   1.870   1.500   0.138
 1522SOL    HW2 4585   1.856   1.654   0.192
 1523SOL     OW 4586   3.551   0.922   0.612
 1523SOL    HW1 4587   3.646   0.893   0.620
 1523SOL    HW2 4588   3.543   0.987   0.537
 1524SOL     OW 4589   3.503   1.108   0.432
 1524SOL    HW1 4590   3.589   1.110   0.380
 1524SOL    HW2 4591   3.517   1.155   0.520
 1525SOL     OW 4592   1.975   0.737   1.597
 1525SOL    HW1 4593   2.063   0.724   1.642
 1525SOL    HW2 4594   1.962   0.834   1.575
 1526SOL     OW 4595   2.475   1.365   0.726
 1526SOL    HW1 4596   2.426   1.278   0.735
 1526SOL    HW2 4597   2.452   1.408   0.639
 1527SOL     OW 4598   3.155   1.228   1.423
 1527SOL    HW1 4599   3.192   1.155   1.365
 1527SOL    HW2 4600   3.207   1.233   1.508
 1528SOL     OW 4601   2.671   0.004   0.502
 1528SOL    HW1 4602   2.711   0.095   0.493
 1528SOL    HW2 4603   2.571   0.012   0.508
 1529SOL     OW 4604   2.059   0.976   1.264
 1529SOL    HW1 4605   2.148   0.931   1.250
 1529SOL    HW2 4606   1.986   0.911   1.245
 1530SOL     OW 4607   3.387   0.999   0.190
 1530SOL    HW1 4608   3.324   0.923   0.203
 1530SOL    HW2 4609   3.435   1.017   0.276
 1531SOL     OW 4610   3.049   1.792   1.616
 1531SOL    HW1 4611   3.073   1.852   1.540
 1531SOL    HW2 4612   3.056   1.697   1.586
 1532SOL     OW 4613   2.179   0.251   1.801
 1532SOL    HW1 4614   2.250   0.322   1.807
 1532SOL    HW2 4615   2.091   0.290   1.829
 1533SOL     OW 4616   3.328   1.417   0.953
 1533SOL    HW1 4617   3.269   1.423   1.033
 1533SOL    HW2 4618   3.313   1.329   0.907
 1534SOL     OW 4619   3.529   1.714   0.572
 1534SOL    HW1 4620   3.488   1.691   0.484
 1534SOL    HW2 4621   3.511   1.640   0.637
 1535SOL     OW 4622   2.460   0.729   0.270
 1535SOL    HW1 4623   2.484   0.798   0.202
 1535SOL    HW2 4624   2.382   0.762   0.324
 1536SOL     OW 4625   3.143   0.345   0.944
 1536SOL    HW1 4626   3.057   0.295   0.931
 1536SOL    HW2 4627   3.205   0.291   1.000
 1537SOL     OW 4628   3.438   1.662   0.307
 1537SOL    HW1 4629   3.527   1.708   0.310
 1537SOL    HW2 4630   3.417   1.638   0.212
 1538SOL     OW 4631   2.669   0.605   1.465
 1538SOL    HW1 4632   2.622   0.602   1.554
 1538SOL    HW2 4633   2.618   0.550   1.399
 1539SOL     OW 4634   3.256   0.469   1.674
 1539SOL    HW1 4635   3.236   0.512   1.762
 1539SOL    HW2 4636   3.334   0.407   1.683
 1540SOL     OW 4637   2.835   0.890   1.572
 1540SOL    HW1 4638   2.881   0.806   1.543
 1540SOL    HW2 4639   2.779   0.924   1.497
 1541SOL     OW 4640   2.853   0.410   1.242
 1541SOL    HW1 4641   2.776   0.444   1.296
 1541SOL    HW2 4642   2.819   0.359   1.163
 1542SOL     OW 4643   2.903   0.701   0.429
 1542SOL    HW1 4644   2.929   0.697   0.525
 1542SOL    HW2 4645   2.818   0.650   0.415
 1543SOL     OW 4646   1.938   0.811   0.789
 1543SOL    HW1 4647   2.037   0.799   0.798
 1543SOL    HW2 4648   1.914   0.906   0.810
 1544SOL     OW 4649   1.992   1.821   1.571
 1544SOL    HW1 4650   1.982   1.806   1.670
 1544SOL    HW2 4651   1.906   1.857   1.535
 1545SOL     OW 4652   2.727   0.348   0.195
 1545SOL    HW1 4653   2.786   0.411   0.146
 1545SOL    HW2 4654   2.746   0.254   0.166
 1546SOL     OW 4655   3.581   0.585   1.831
 1546SOL    HW1 4656   3.555   0.674   1.795
 1546SOL    HW2 4657   3.579   0.517   1.758
 1547SOL     OW 4658   3.224   1.144   0.545
 1547SOL    HW1 4659   3.307   1.115   0.497
 1547SOL    HW2 4660   3.175   1.211   0.489
 1548SOL     OW 4661   2.412   0.196   0.885
 1548SOL    HW1 4662   2.407   0.191   0.985
 1548SOL    HW2 4663   2.414   0.292   0.856
 1549SOL     OW 4664   2.870   1.456   0.477
 1549SOL    HW1 4665   2.824   1.528   0.425
 1549SOL    HW2 4666   2.866   1.476   0.575
 1550SOL     OW 4667   2.213   1.801   0.853
 1550SOL    HW1 4668   2.263   1.715   0.859
 1550SOL    HW2 4669   2.278   1.878   0.850
 1551SOL     OW 4670   3.657   1.066   0.873
 1551SOL    HW1 4671   3.595   1.051   0.797
 1551SOL    HW2 4672   3.605   1.077   0.958
 1552SOL     OW 4673   3.089   1.550   1.506
 1552SOL    HW1 4674   3.095   1.473   1.570
 1552SOL    HW2 4675   3.037   1.524   1.426
 1553SOL     OW 4676   2.183   0.943   0.242
 1553SOL    HW1 4677   2.265   0.982   0.200
 1553SOL    HW2 4678   2.156   0.861   0.193
 1554SOL     OW 4679   3.320   0.735   0.728
 1554SOL    HW1 4680   3.315   0.670   0.803
 1554SOL    HW2 4681   3.400   0.794   0.741
 1555SOL     OW 4682   2.323   1.266   1.727
 1555SOL    HW1 4683   2.273   1.267   1.641
 1555SOL    HW2 4684   2.260   1.248   1.803
 1556SOL     OW 4685   2.973   1.776   0.237
 1556SOL    HW1 4686   2.913   1.714   0.287
 1556SOL    HW2 4687   3.004   1.732   0.152
 1557SOL     OW 4688   2.064   0.285   1.498
 1557SOL    HW1 4689   1.984   0.345   1.485
 1557SOL    HW2 4690   2.054   0.236   1.584
 1558SOL     OW 4691   3.494   1.377   0.081
 1558SOL    HW1 4692   3.462   1.471   0.071
 1558SOL    HW2 4693   3.418   1.314   0.069
 1559SOL     OW 4694   2.326   1.743   0.323
 1559SOL    HW1 4695   2.359   1.782   0.409
 1559SOL    HW2 4696   2.402   1.736   0.258
 1560SOL     OW 4697   3.262   0.107   0.426
 1560SOL    HW1 4698   3.238   0.070   0.336
 1560SOL    HW2 4699   3.361   0.123   0.430
 1561SOL     OW 4700   2.111   1.785   1.241
 1561SOL    HW1 4701   2.168   1.720   1.291
 1561SOL    HW2 4702   2.095   1.752   1.148
 1562SOL     OW 4703   2.802   1.698   0.904
 1562SOL    HW1 4704   2.882   1.641   0.925
 1562SOL    HW2 4705   2.753   1.658   0.827
 1563SOL     OW 4706   2.244   0.700   0.480
 1563SOL    HW1 4707   2.289   0.610   0.477
 1563SOL    HW2 4708   2.150   0.689   0.513
 1564SOL     OW 4709   3.409   0.222   1.729
 1564SOL    HW1 4710   3.404   0.259   1.821
 1564SOL    HW2 4711   3.337   0.153   1.717
 1565SOL     OW 4712   2.476   0.122   0.117
 1565SOL    HW1 4713   2.574   0.100   0.124
 1565SOL    HW2 4714   2.445   0.105   0.024
 1566SOL     OW 4715   2.643   0.264   1.749
 1566SOL    HW1 4716   2.710   0.203   1.792
 1566SOL    HW2 4717   2.570   0.283   1.814
 1567SOL     OW 4718   2.750   1.514   1.195
 1567SOL    HW1 4719   2.727   1.489   1.101
 1567SOL    HW2 4720   2.811   1.445   1.234
 1568SOL     OW 4721   3.213   0.590   1.433
 1568SOL    HW1 4722   3.241   0.547   1.518
 1568SOL    HW2 4723   3.238   0.686   1.434
 1569SOL     OW 4724   2.665   1.402   0.924
 1569SOL    HW1 4725   2.755   1.416   0.882
 1569SOL    HW2 4726   2.594   1.404   0.853
 1570SOL     OW 4727   2.784   0.503   0.899
 1570SOL    HW1 4728   2.759   0.494   0.803
 1570SOL    HW2 4729   2.832   0.421   0.930
 1571SOL     OW 4730   2.401   0.064   0.512
 1571SOL    HW1 4731   2.320   0.065   0.570
 1571SOL    HW2 4732   2.404   0.147   0.457
 1572SOL     OW 4733   3.296   1.188   0.041
 1572SOL    HW1 4734   3.328   1.112   0.098
 1572SOL    HW2 4735   3.204   1.215   0.071
 1573SOL     OW 4736   2.159   0.035   0.171
 1573SOL    HW1 4737   2.208   0.119   0.150
 1573SOL    HW2 4738   2.221  -0.030   0.216
 1574SOL     OW 4739   2.797   0.236   0.480
 1574SOL    HW1 4740   2.749   0.277   0.402
 1574SOL    HW2 4741   2.896   0.234   0.461
 1575SOL     OW 4742   2.938   0.683   1.464
 1575SOL    HW1 4743   2.858   0.622   1.467
 1575SOL    HW2 4744   3.019   0.630   1.440
 1576SOL     OW 4745   3.089   1.570   0.793
 1576SOL    HW1 4746   3.110   1.644   0.728
 1576SOL    HW2 4747   3.157   1.570   0.866
 1577SOL     OW 4748   2.321   1.152   0.741
 1577SOL    HW1 4749   2.250   1.125   0.806
 1577SOL    HW2 4750   2.295   1.124   0.648
 1578SOL     OW 4751   3.133   1.797   0.591
 1578SOL    HW1 4752   3.177   1.861   0.527
 1578SOL    HW2 4753   3.083   1.849   0.661
 1579SOL     OW 4754   2.894   0.549   0.016
 1579SOL    HW1 4755   2.853   0.631  -0.023
 1579SOL    HW2 4756   2.958   0.575   0.089
 1580SOL     OW 4757   1.940   0.556   1.386
 1580SOL    HW1 4758   2.032   0.555   1.345
 1580SOL    HW2 4759   1.934   0.630   1.453
 1581SOL     OW 4760   2.423   0.222   1.147
 1581SOL    HW1 4761   2.461   0.138   1.184
 1581SOL    HW2 4762   2.335   0.241   1.191
 1582SOL     OW 4763   2.728   0.454   0.642
 1582SOL    HW1 4764   2.696   0.526   0.580
 1582SOL    HW2 4765   2.752   0.373   0.589
 1583SOL     OW 4766   2.879   0.039   0.753
 1583SOL    HW1 4767   2.807   0.044   0.684
 1583SOL    HW2 4768   2.855  -0.030   0.822
 1584SOL     OW 4769   3.291   1.173   0.867
 1584SOL    HW1 4770   3.236   1.089   0.860
 1584SOL    HW2 4771   3.317   1.202   0.775
 1585SOL     OW 4772   3.328   0.590   0.992
 1585SOL    HW1 4773   3.298   0.495   0.999
 1585SOL    HW2 4774   3.401   0.606   1.058
 1586SOL     OW 4775   3.719   0.833   0.377
 1586SOL    HW1 4776   3.761   0.769   0.441
 1586SOL    HW2 4777   3.681   0.782   0.299
 1587SOL     OW 4778   2.350   1.385   0.174
 1587SOL    HW1 4779   2.263   1.370   0.221
 1587SOL    HW2 4780   2.333   1.411   0.079
 1588SOL     OW 4781   3.526   1.280   0.657
 1588SOL    HW1 4782   3.625   1.288   0.671
 1588SOL    HW2 4783   3.481   1.364   0.688
 1589SOL     OW 4784   3.252   0.575   0.078
 1589SOL    HW1 4785   3.198   0.554   0.159
 1589SOL    HW2 4786   3.343   0.534   0.087
 1590SOL     OW 4787   2.389   0.256   0.328
 1590SOL    HW1 4788   2.416   0.197   0.253
 1590SOL    HW2 4789   2.389   0.351   0.297
 1591SOL     OW 4790   3.616   1.223   1.588
 1591SOL    HW1 4791   3.707   1.184   1.575
 1591SOL    HW2 4792   3.624   1.319   1.612
 1592SOL     OW 4793   2.926   1.347   1.340
 1592SOL    HW1 4794   2.846   1.324   1.395
 1592SOL    HW2 4795   3.009   1.321   1.389
 1593SOL     OW 4796   3.454   1.629   1.625
 1593SOL    HW1 4797   3.481   1.663   1.535
 1593SOL    HW2 4798   3.533   1.591   1.671
 1594SOL     OW 4799   2.973   1.195   1.100
 1594SOL    HW1 4800   2.933   1.239   1.181
 1594SOL    HW2 4801   2.932   1.232   1.017
 1595SOL     OW 4802   3.500   1.099   1.079
 1595SOL    HW1 4803   3.505   1.180   1.138
 1595SOL    HW2 4804   3.414   1.101   1.028
 1596SOL     OW 4805   2.777   0.089   1.402
 1596SOL    HW1 4806   2.802   0.069   1.307
 1596SOL    HW2 4807   2.849   0.145   1.444
 1597SOL     OW 4808   2.842   1.116   1.719
 1597SOL    HW1 4809   2.743   1.122   1.729
 1597SOL    HW2 4810   2.865   1.036   1.663
 1598SOL     OW 4811   2.567   1.050   0.368
 1598SOL    HW1 4812   2.553   1.057   0.467
 1598SOL    HW2 4813   2.651   0.999   0.350
 1599SOL     OW 4814   2.272   0.813   1.251
 1599SOL    HW1 4815   2.358   0.825   1.301
 1599SOL    HW2 4816   2.230   0.726   1.278
 1600SOL     OW 4817   3.136   0.386   1.262
 1600SOL    HW1 4818   3.157   0.460   1.326
 1600SOL    HW2 4819   3.047   0.403   1.219
 1601SOL     OW 4820   1.926   1.564   1.331
 1601SOL    HW1 4821   1.880   1.646   1.297
 1601SOL    HW2 4822   2.024   1.583   1.340
 1602SOL     OW 4823   2.229   1.100   0.501
 1602SOL    HW1 4824   2.222   1.183   0.445
 1602SOL    HW2 4825   2.233   1.020   0.441
 1603SOL     OW 4826   2.428   0.537   0.865
 1603SOL    HW1 4827   2.440   0.603   0.791
 1603SOL    HW2 4828   2.474   0.571   0.948
 1604SOL     OW 4829   3.114   1.348   0.388
 1604SOL    HW1 4830   3.164   1.425   0.428
 1604SOL    HW2 4831   3.019   1.350   0.420
 1605SOL     OW 4832   3.134   1.445   1.142
 1605SOL    HW1 4833   3.181   1.458   1.229
 1605SOL    HW2 4834   3.068   1.371   1.151
 1606SOL     OW 4835   3.444   0.639   0.472
 1606SOL    HW1 4836   3.413   0.700   0.545
 1606SOL    HW2 4837   3.494   0.691   0.403
 1607SOL     OW 4838   2.216   1.510   1.329
 1607SOL    HW1 4839   2.195   1.466   1.242
 1607SOL    HW2 4840   2.313   1.536   1.332
 1608SOL     OW 4841   2.264   0.751   1.598
 1608SOL    HW1 4842   2.332   0.806   1.551
 1608SOL    HW2 4843   2.304   0.663   1.625
 1609SOL     OW 4844   3.449   0.779   1.670
 1609SOL    HW1 4845   3.357   0.817   1.665
 1609SOL    HW2 4846   3.509   0.826   1.605
 1610SOL     OW 4847   2.875   0.105   1.770
 1610SOL    HW1 4848   2.881   0.190   1.718
 1610SOL    HW2 4849   2.907   0.029   1.713
 1611SOL     OW 4850   2.366   0.050   1.740
 1611SOL    HW1 4851   2.324  -0.007   1.670
 1611SOL    HW2 4852   2.300   0.119   1.772
 1612SOL     OW 4853   2.435   0.870   1.029
 1612SOL    HW1 4854   2.479   0.959   1.020
 1612SOL    HW2 4855   2.372   0.870   1.106
 1613SOL     OW 4856   3.222   0.862   1.045
 1613SOL    HW1 4857   3.147   0.862   0.979
 1613SOL    HW2 4858   3.259   0.770   1.054
 1614SOL     OW 4859   3.071   0.525   0.275
 1614SOL    HW1 4860   3.084   0.441   0.329
 1614SOL    HW2 4861   3.042   0.599   0.335
 1615SOL     OW 4862   2.169   0.213   1.231
 1615SOL    HW1 4863   2.146   0.250   1.321
 1615SOL    HW2 4864   2.139   0.118   1.225
 1616SOL     OW 4865   1.899   1.310   1.282
 1616SOL    HW1 4866   1.952   1.261   1.350
 1616SOL    HW2 4867   1.921   1.408   1.287
 1617SOL     OW 4868   2.594   0.634   1.064
 1617SOL    HW1 4869   2.653   0.608   0.988
 1617SOL    HW2 4870   2.566   0.730   1.053
 1618SOL     OW 4871   3.590   0.935   1.854
 1618SOL    HW1 4872   3.544   0.928   1.765
 1618SOL    HW2 4873   3.528   0.979   1.920
 1619SOL     OW 4874   2.169   0.063   0.618
 1619SOL    HW1 4875   2.158   0.157   0.651
 1619SOL    HW2 4876   2.164   0.000   0.695
 1620SOL     OW 4877   3.484   0.367   0.374
 1620SOL    HW1 4878   3.486   0.291   0.438
 1620SOL    HW2 4879   3.436   0.444   0.414
 1621SOL     OW 4880   2.885   0.766   0.966
 1621SOL    HW1 4881   2.900   0.787   1.062
 1621SOL    HW2 4882   2.855   0.671   0.957
 1622SOL     OW 4883   2.842   1.573   1.700
 1622SOL    HW1 4884   2.822   1.617   1.612
 1622SOL    HW2 4885   2.881   1.482   1.684
 1623SOL     OW 4886   3.721   1.518   1.605
 1623SOL    HW1 4887   3.735   1.545   1.510
 1623SOL    HW2 4888   3.804   1.540   1.658
 1624SOL     OW 4889   2.212   0.898   1.804
 1624SOL    HW1 4890   2.288   0.942   1.852
 1624SOL    HW2 4891   2.247   0.851   1.722
 1625SOL     OW 4892   3.402   0.274   0.125
 1625SOL    HW1 4893   3.341   0.199   0.148
 1625SOL    HW2 4894   3.424   0.326   0.208
 1626SOL     OW 4895   3.165   0.838   0.042
 1626SOL    HW1 4896   3.199   0.745   0.057
 1626SOL    HW2 4897   3.183   0.865  -0.053
 1627SOL     OW 4898   2.930   1.333   0.849
 1627SOL    HW1 4899   2.937   1.249   0.794
 1627SOL    HW2 4900   2.992   1.402   0.813
 1628SOL     OW 4901   2.181   0.810   0.949
 1628SOL    HW1 4902   2.274   0.846   0.954
 1628SOL    HW2 4903   2.175   0.725   1.001
 1629SOL     OW 4904   2.201   0.509   1.006
 1629SOL    HW1 4905   2.149   0.426   0.989
 1629SOL    HW2 4906   2.278   0.514   0.942
 1630SOL     OW 4907   3.000   0.380   1.678
 1630SOL    HW1 4908   2.955   0.443   1.742
 1630SOL    HW2 4909   3.093   0.411   1.661
 1631SOL     OW 4910   3.022   0.207   1.477
 1631SOL    HW1 4911   3.022   0.271   1.554
 1631SOL    HW2 4912   3.050   0.255   1.394
 1632SOL     OW 4913   1.870   1.326   0.200
 1632SOL    HW1 4914   1.777   1.347   0.169
 1632SOL    HW2 4915   1.880   1.227   0.213
 1633SOL     OW 4916   1.950   1.801   0.927
 1633SOL    HW1 4917   1.908   1.715   0.900
 1633SOL    HW2 4918   2.044   1.804   0.893
 1634SOL     OW 4919   2.366   1.568   0.910
 1634SOL    HW1 4920   2.432   1.642   0.919
 1634SOL    HW2 4921   2.410   1.489   0.868
 1635SOL     OW 4922   2.864   0.796   1.238
 1635SOL    HW1 4923   2.905   0.764   1.324
 1635SOL    HW2 4924   2.768   0.769   1.235
 1636SOL     OW 4925   1.902   0.544   1.114
 1636SOL    HW1 4926   1.987   0.511   1.073
 1636SOL    HW2 4927   1.915   0.559   1.212
 1637SOL     OW 4928   2.051   0.520   1.722
 1637SOL    HW1 4929   2.110   0.480   1.652
 1637SOL    HW2 4930   1.993   0.591   1.681
 1638SOL     OW 4931   3.231   0.950   1.660
 1638SOL    HW1 4932   3.270   1.039   1.680
 1638SOL    HW2 4933   3.241   0.930   1.563
 1639SOL     OW 4934   2.677   0.572   0.325
 1639SOL    HW1 4935   2.684   0.483   0.279
 1639SOL    HW2 4936   2.583   0.606   0.317
 1640SOL     OW 4937   3.519   0.604   1.206
 1640SOL    HW1 4938   3.481   0.535   1.268
 1640SOL    HW2 4939   3.601   0.568   1.162
 1641SOL     OW 4940   2.114   1.564   1.744
 1641SOL    HW1 4941   2.084   1.621   1.820
 1641SOL    HW2 4942   2.107   1.467   1.770
 1642SOL     OW 4943   2.533   0.464   1.269
 1642SOL    HW1 4944   2.499   0.375   1.239
 1642SOL    HW2 4945   2.559   0.518   1.189
 1643SOL     OW 4946   2.792   1.678   1.465
 1643SOL    HW1 4947   2.768   1.660   1.370
 1643SOL    HW2 4948   2.822   1.772   1.475
 1644SOL     OW 4949   2.335   0.500   0.191
 1644SOL    HW1 4950   2.396   0.580   0.195
 1644SOL    HW2 4951   2.240   0.531   0.198
 1645SOL     OW 4952   2.021   1.137   1.466
 1645SOL    HW1 4953   2.043   1.076   1.542
 1645SOL    HW2 4954   2.031   1.088   1.380
 1646SOL     OW 4955   3.209   1.059   1.234
 1646SOL    HW1 4956   3.233   0.996   1.160
 1646SOL    HW2 4957   3.119   1.099   1.216
 1647SOL     OW 4958   3.164   0.855   0.309
 1647SOL    HW1 4959   3.078   0.824   0.351
 1647SOL    HW2 4960   3.160   0.841   0.210
 1648SOL     OW 4961   3.621   1.747   1.154
 1648SOL    HW1 4962   3.682   1.777   1.081
 1648SOL    HW2 4963   3.583   1.658   1.132
 1649SOL     OW 4964   3.114   1.731   1.128
 1649SOL    HW1 4965   3.198   1.736   1.074
 1649SOL    HW2 4966   3.091   1.635   1.146
 1650SOL     OW 4967   1.945   1.258   1.022
 1650SOL    HW1 4968   1.940   1.257   1.122
 1650SOL    HW2 4969   1.862   1.217   0.984
 1651SOL     OW 4970   2.550   1.662   1.716
 1651SOL    HW1 4971   2.494   1.743   1.725
 1651SOL    HW2 4972   2.602   1.666   1.630
 1652SOL     OW 4973   2.765   0.086   0.133
 1652SOL    HW1 4974   2.816   0.087   0.047
 1652SOL    HW2 4975   2.821   0.044   0.204
 1653SOL     OW 4976   3.588   0.135   0.523
 1653SOL    HW1 4977   3.661   0.118   0.456
 1653SOL    HW2 4978   3.557   0.048   0.561
 1654SOL     OW 4979   3.250   1.573   0.477
 1654SOL    HW1 4980   3.317   1.585   0.403
 1654SOL    HW2 4981   3.210   1.662   0.500
 1655SOL     OW 4982   1.992   1.794   1.851
 1655SOL    HW1 4983   1.951   1.720   1.904
 1655SOL    HW2 4984   2.056   1.845   1.909
 1656SOL     OW 4985   3.142   0.927   0.672
 1656SOL    HW1 4986   3.202   0.846   0.674
 1656SOL    HW2 4987   3.182   0.996   0.612
 1657SOL     OW 4988   2.692   1.273   1.422
 1657SOL    HW1 4989   2.687   1.306   1.517
 1657SOL    HW2 4990   2.606   1.292   1.376
 1658SOL     OW 4991   2.534   1.616   0.154
 1658SOL    HW1 4992   2.543   1.626   0.055
 1658SOL    HW2 4993   2.494   1.527   0.175
 1659SOL     OW 4994   3.512   1.720   1.394
 1659SOL    HW1 4995   3.565   1.730   1.310
 1659SOL    HW2 4996   3.485   1.810   1.428
 1660SOL     OW 4997   3.703   0.175   0.963
 1660SOL    HW1 4998   3.742   0.090   0.927
 1660SOL    HW2 4999   3.605   0.177   0.944
 1661SOL     OW 5000   2.125   0.326   0.720
 1661SOL    HW1 5001   2.046   0.377   0.686
 1661SOL    HW2 5002   2.116   0.311   0.818
 1662SOL     OW 5003   3.056   1.612   0.031
 1662SOL    HW1 5004   3.062   1.519   0.068
 1662SOL    HW2 5005   2.997   1.612  -0.049
 1663SOL     OW 5006   2.684   1.002   1.372
 1663SOL    HW1 5007   2.724   1.001   1.280
 1663SOL    HW2 5008   2.694   1.094   1.412
 1664SOL     OW 5009   2.778   0.910   0.291
 1664SOL    HW1 5010   2.841   0.948   0.223
 1664SOL    HW2 5011   2.818   0.827   0.330
 1665SOL     OW 5012   3.366   1.607   0.044
 1665SOL    HW1 5013   3.274   1.644   0.051
 1665SOL    HW2 5014   3.404   1.627  -0.046
 1666SOL     OW 5015   2.234   1.288   1.490
 1666SOL    HW1 5016   2.221   1.381   1.456
 1666SOL    HW2 5017   2.150   1.236   1.477
 1667SOL     OW 5018   3.476   1.292   1.289
 1667SOL    HW1 5019   3.536   1.295   1.369
 1667SOL    HW2 5020   3.401   1.356   1.302
 1668SOL     OW 5021   2.901   1.098   0.696
 1668SOL    HW1 5022   2.831   1.051   0.750
 1668SOL    HW2 5023   2.960   1.030   0.653
 1669SOL     OW 5024   2.876   0.236   0.971
 1669SOL    HW1 5025   2.868   0.200   0.878
 1669SOL    HW2 5026   2.874   0.160   1.036
 1670SOL     OW 5027   2.452   1.487   0.491
 1670SOL    HW1 5028   2.494   1.429   0.421
 1670SOL    HW2 5029   2.408   1.566   0.447
 1671SOL     OW 5030   3.571   0.385   1.381
 1671SOL    HW1 5031   3.644   0.454   1.385
 1671SOL    HW2 5032   3.599   0.310   1.322
 1672SOL     OW 5033   2.117   1.348   0.290
 1672SOL    HW1 5034   2.021   1.349   0.263
 1672SOL    HW2 5035   2.129   1.401   0.374
 1673SOL     OW 5036   1.967   1.013   1.726
 1673SOL    HW1 5037   1.890   0.980   1.780
 1673SOL    HW2 5038   2.052   0.983   1.768
 1674SOL     OW 5039   2.534   0.203   1.489
 1674SOL    HW1 5040   2.624   0.187   1.449
 1674SOL    HW2 5041   2.542   0.208   1.588
 1675SOL     OW 5042   3.302   0.856   1.398
 1675SOL    HW1 5043   3.245   0.908   1.335
 1675SOL    HW2 5044   3.398   0.868   1.374
 1676SOL     OW 5045   1.934   0.166   0.318
 1676SOL    HW1 5046   1.917   0.249   0.264
 1676SOL    HW2 5047   2.024   0.129   0.296
 1677SOL     OW 5048   3.045   1.335   0.119
 1677SOL    HW1 5049   2.946   1.324   0.121
 1677SOL    HW2 5050   3.079   1.350   0.212
 1678SOL     OW 5051   2.475   0.842   1.431
 1678SOL    HW1 5052   2.531   0.923   1.414
 1678SOL    HW2 5053   2.534   0.762   1.434
 1679SOL     OW 5054   3.355   1.767   0.959
 1679SOL    HW1 5055   3.388   1.831   0.890
 1679SOL    HW2 5056   3.421   1.761   1.034
 1680SOL     OW 5057   2.578   0.565   1.708
 1680SOL    HW1 5058   2.597   0.630   1.782
 1680SOL    HW2 5059   2.638   0.485   1.717
 1681SOL     OW 5060   3.312   1.220   1.633
 1681SOL    HW1 5061   3.303   1.210   1.732
 1681SOL    HW2 5062   3.408   1.213   1.607
 1682SOL     OW 5063   2.252   1.741   1.560
 1682SOL    HW1 5064   2.161   1.782   1.558
 1682SOL    HW2 5065   2.245   1.647   1.592
 1683SOL     OW 5066   3.536   0.883   1.254
 1683SOL    HW1 5067   3.509   0.794   1.217
 1683SOL    HW2 5068   3.537   0.951   1.181
 1684SOL     OW 5069   3.087   0.325   0.449
 1684SOL    HW1 5070   3.152   0.251   0.438
 1684SOL    HW2 5071   3.107   0.375   0.533
 1685SOL     OW 5072   2.456   0.745   0.652
 1685SOL    HW1 5073   2.506   0.830   0.633
 1685SOL    HW2 5074   2.368   0.747   0.604
 1686SOL     OW 5075   3.639   0.342   1.642
 1686SOL    HW1 5076   3.622   0.373   1.548
 1686SOL    HW2 5077   3.555   0.305   1.680
 1687SOL     OW 5078   3.592   0.934   1.517
 1687SOL    HW1 5079   3.630   1.025   1.532
 1687SOL    HW2 5080   3.584   0.917   1.418
 1688SOL     OW 5081   2.721   1.374   0.016
 1688SOL    HW1 5082   2.675   1.389   0.104
 1688SOL    HW2 5083   2.765   1.459  -0.014
 1689SOL     OW 5084   2.523   1.790   0.953
 1689SOL    HW1 5085   2.477   1.878   0.940
 1689SOL    HW2 5086   2.622   1.802   0.946
 1690SOL     OW 5087   2.721   0.956   0.861
 1690SOL    HW1 5088   2.775   0.887   0.909
 1690SOL    HW2 5089   2.689   1.025   0.927
 1691SOL     OW 5090   2.945   0.984   0.087
 1691SOL    HW1 5091   2.922   1.037   0.005
 1691SOL    HW2 5092   3.026   0.928   0.068
 1692SOL     OW 5093   3.723   1.569   0.851
 1692SOL    HW1 5094   3.652   1.557   0.781
 1692SOL    HW2 5095   3.724   1.490   0.911
 1693SOL     OW 5096   2.083   1.314   1.844
 1693SOL    HW1 5097   2.018   1.241   1.823
 1693SOL    HW2 5098   2.087   1.328   1.942
 1694SOL     OW 5099   1.941   1.240   0.653
 1694SOL    HW1 5100   1.940   1.193   0.741
 1694SOL    HW2 5101   2.023   1.212   0.602
 1695SOL     OW 5102   2.534   1.391   1.624
 1695SOL    HW1 5103   2.456   1.341   1.662
 1695SOL    HW2 5104   2.531   1.486   1.655
 1696SOL     OW 5105   3.686   0.192   1.227
 1696SOL    HW1 5106   3.682   0.102   1.271
 1696SOL    HW2 5107   3.689   0.181   1.128
 1697SOL     OW 5108   2.290   0.424   0.520
 1697SOL    HW1 5109   2.320   0.352   0.458
 1697SOL    HW2 5110   2.251   0.384   0.603
 1698SOL     OW 5111   3.567   1.487   1.104
 1698SOL    HW1 5112   3.474   1.462   1.077
 1698SOL    HW2 5113   3.593   1.437   1.186
 1699SOL     OW 5114   2.179   0.547   1.280
 1699SOL    HW1 5115   2.217   0.488   1.352
 1699SOL    HW2 5116   2.219   0.521   1.192
 1700SOL     OW 5117   2.674   1.586   0.687
 1700SOL    HW1 5118   2.706   1.596   0.593
 1700SOL    HW2 5119   2.595   1.524   0.689
 1701SOL     OW 5120   3.286   0.214   1.112
 1701SOL    HW1 5121   3.338   0.149   1.167
 1701SOL    HW2 5122   3.237   0.277   1.173
 1702SOL     OW 5123   2.863   0.034   1.154
 1702SOL    HW1 5124   2.800  -0.038   1.123
 1702SOL    HW2 5125   2.956  -0.002   1.154
 1703SOL     OW 5126   2.632   1.330   0.301
 1703SOL    HW1 5127   2.586   1.243   0.318
 1703SOL    HW2 5128   2.723   1.327   0.342
 1704SOL     OW 5129   2.480   1.567   1.284
 1704SOL    HW1 5130   2.475   1.649   1.341
 1704SOL    HW2 5131   2.569   1.564   1.239
 1705SOL     OW 5132   3.214   0.052   0.168
 1705SOL    HW1 5133   3.249   0.011   0.084
 1705SOL    HW2 5134   3.124   0.014   0.188
 1706SOL     OW 5135   3.162   0.453   0.691
 1706SOL    HW1 5136   3.103   0.533   0.695
 1706SOL    HW2 5137   3.177   0.418   0.784
 1707SOL     OW 5138   3.455   0.221   0.882
 1707SOL    HW1 5139   3.371   0.220   0.936
 1707SOL    HW2 5140   3.457   0.304   0.826
 1708SOL     OW 5141   1.901   1.077   0.300
 1708SOL    HW1 5142   2.000   1.066   0.291
 1708SOL    HW2 5143   1.861   0.991   0.332
 1709SOL     OW 5144   2.737   1.646   0.337
 1709SOL    HW1 5145   2.660   1.611   0.283
 1709SOL    HW2 5146   2.705   1.717   0.399
 1710SOL     OW 5147   2.092   0.628   1.975
 1710SOL    HW1 5148   1.999   0.626   2.012
 1710SOL    HW2 5149   2.093   0.589   1.883
 1711SOL     OW 5150   2.087   0.275   2.858
 1711SOL    HW1 5151   2.122   0.258   2.950
 1711SOL    HW2 5152   1.999   0.230   2.846
 1712SOL     OW 5153   1.881   0.368   2.509
 1712SOL    HW1 5154   1.799   0.411   2.548
 1712SOL    HW2 5155   1.853   0.295   2.446
 1713SOL     OW 5156   2.431   1.275   3.027
 1713SOL    HW1 5157   2.338   1.268   2.990
 1713SOL    HW2 5158   2.442   1.364   3.071
 1714SOL     OW 5159   3.417   1.511   2.565
 1714SOL    HW1 5160   3.360   1.495   2.646
 1714SOL    HW2 5161   3.358   1.521   2.485
 1715SOL     OW 5162   2.997   0.703   2.579
 1715SOL    HW1 5163   3.054   0.781   2.554
 1715SOL    HW2 5164   2.937   0.729   2.655
 1716SOL     OW 5165   3.617   0.607   2.093
 1716SOL    HW1 5166   3.605   0.594   1.994
 1716SOL    HW2 5167   3.587   0.526   2.142
 1717SOL     OW 5168   2.630   1.144   2.885
 1717SOL    HW1 5169   2.552   1.161   2.945
 1717SOL    HW2 5170   2.664   1.231   2.849
 1718SOL     OW 5171   2.712   0.798   3.685
 1718SOL    HW1 5172   2.708   0.874   3.750
 1718SOL    HW2 5173   2.734   0.834   3.594
 1719SOL     OW 5174   2.547   1.012   2.527
 1719SOL    HW1 5175   2.616   0.996   2.597
 1719SOL    HW2 5176   2.474   1.069   2.565
 1720SOL     OW 5177   2.548   1.161   3.665
 1720SOL    HW1 5178   2.608   1.240   3.679
 1720SOL    HW2 5179   2.462   1.192   3.624
 1721SOL     OW 5180   2.197   1.435   2.923
 1721SOL    HW1 5181   2.119   1.404   2.870
 1721SOL    HW2 5182   2.255   1.493   2.866
 1722SOL     OW 5183   3.322   1.505   3.201
 1722SOL    HW1 5184   3.346   1.599   3.227
 1722SOL    HW2 5185   3.306   1.451   3.283
 1723SOL     OW 5186   2.300   0.392   3.361
 1723SOL    HW1 5187   2.382   0.336   3.370
 1723SOL    HW2 5188   2.219   0.334   3.365
 1724SOL     OW 5189   3.465   0.447   2.599
 1724SOL    HW1 5190   3.391   0.493   2.549
 1724SOL    HW2 5191   3.516   0.515   2.652
 1725SOL     OW 5192   2.093   1.713   2.345
 1725SOL    HW1 5193   2.127   1.790   2.399
 1725SOL    HW2 5194   2.137   1.713   2.255
 1726SOL     OW 5195   2.989   1.341   3.552
 1726SOL    HW1 5196   3.036   1.341   3.640
 1726SOL    HW2 5197   2.941   1.254   3.541
 1727SOL     OW 5198   2.092   1.434   2.400
 1727SOL    HW1 5199   2.066   1.530   2.400
 1727SOL    HW2 5200   2.021   1.380   2.445
 1728SOL     OW 5201   2.102   1.091   2.748
 1728SOL    HW1 5202   2.116   1.007   2.800
 1728SOL    HW2 5203   2.047   1.155   2.803
 1729SOL     OW 5204   2.482   1.786   3.301
 1729SOL    HW1 5205   2.390   1.769   3.336
 1729SOL    HW2 5206   2.510   1.878   3.327
 1730SOL     OW 5207   2.468   0.964   1.985
 1730SOL    HW1 5208   2.475   1.048   1.931
 1730SOL    HW2 5209   2.514   0.977   2.073
 1731SOL     OW 5210   3.456   0.114   3.342
 1731SOL    HW1 5211   3.438   0.181   3.270
 1731SOL    HW2 5212   3.453   0.160   3.431
 1732SOL     OW 5213   1.984   0.643   2.425
 1732SOL    HW1 5214   1.939   0.555   2.442
 1732SOL    HW2 5215   1.983   0.697   2.509
 1733SOL     OW 5216   3.704   1.767   2.221
 1733SOL    HW1 5217   3.758   1.738   2.301
 1733SOL    HW2 5218   3.734   1.857   2.192
 1734SOL     OW 5219   1.889   1.596   1.979
 1734SOL    HW1 5220   1.870   1.500   2.000
 1734SOL    HW2 5221   1.856   1.654   2.054
 1735SOL     OW 5222   3.551   0.922   2.474
 1735SOL    HW1 5223   3.646   0.893   2.482
 1735SOL    HW2 5224   3.543   0.987   2.399
 1736SOL     OW 5225   3.503   1.108   2.294
 1736SOL    HW1 5226   3.589   1.110   2.242
 1736SOL    HW2 5227   3.517   1.155   2.382
 1737SOL     OW 5228   1.975   0.737   3.459
 1737SOL    HW1 5229   2.063   0.724   3.504
 1737SOL    HW2 5230   1.962   0.834   3.437
 1738SOL     OW 5231   2.475   1.365   2.588
 1738SOL    HW1 5232   2.426   1.278   2.597
 1738SOL    HW2 5233   2.452   1.408   2.501
 1739SOL     OW 5234   3.155   1.228   3.285
 1739SOL    HW1 5235   3.192   1.155   3.227
 1739SOL    HW2 5236   3.207   1.233   3.370
 1740SOL     OW 5237   2.671   0.004   2.364
 1740SOL    HW1 5238   2.711   0.095   2.355
 1740SOL    HW2 5239   2.571   0.012   2.370
 1741SOL     OW 5240   2.059   0.976   3.126
 1741SOL    HW1 5241   2.148   0.931   3.112
 1741SOL    HW2 5242   1.986   0.911   3.107
 1742SOL     OW 5243   3.387   0.999   2.052
 1742SOL    HW1 5244   3.324   0.923   2.065
 1742SOL    HW2 5245   3.435   1.017   2.138
 1743SOL     OW 5246   3.049   1.792   3.478
 1743SOL    HW1 5247   3.073   1.852   3.402
 1743SOL    HW2 5248   3.056   1.697   3.448
 1744SOL     OW 5249   2.179   0.251   3.663
 1744SOL    HW1 5250   2.250   0.322   3.669
 1744SOL    HW2 5251   2.091   0.290   3.691
 1745SOL     OW 5252   3.328   1.417   2.815
 1745SOL    HW1 5253   3.269   1.423   2.895
 1745SOL    HW2 5254   3.313   1.329   2.769
 1746SOL     OW 5255   3.529   1.714   2.434
 1746SOL    HW1 5256   3.488   1.691   2.346
 1746SOL    HW2 5257   3.511   1.640   2.499
 1747SOL     OW 5258   2.460   0.729   2.132
 1747SOL    HW1 5259   2.484   0.798   2.064
 1747SOL    HW2 5260   2.382   0.762   2.186
 1748SOL     OW 5261   3.143   0.345   2.806
 1748SOL    HW1 5262   3.057   0.295   2.793
 1748SOL    HW2 5263   3.205   0.291   2.862
 1749SOL     OW 5264   3.438   1.662   2.169
 1749SOL    HW1 5265   3.527   1.708   2.172
 1749SOL    HW2 5266   3.417   1.638   2.074
 1750SOL     OW 5267   2.669   0.605   3.327
 1750SOL    HW1 5268   2.622   0.602   3.416
 1750SOL    HW2 5269   2.618   0.550   3.261
 1751SOL     OW 5270   3.256   0.469   3.536
 1751SOL    HW1 5271   3.236   0.512   3.624
 1751SOL    HW2 5272   3.334   0.407   3.545
 1752SOL     OW 5273   2.835   0.890   3.434
 1752SOL    HW1 5274   2.881   0.806   3.405
 1752SOL    HW2 5275   2.779   0.924   3.359
 1753SOL     OW 5276   2.853   0.410   3.104
 1753SOL    HW1 5277   2.776   0.444   3.158
 1753SOL    HW2 5278   2.819   0.359   3.025
 1754SOL     OW 5279   2.903   0.701   2.291
 1754SOL    HW1 5280   2.929   0.697   2.387
 1754SOL    HW2 5281   2.818   0.650   2.277
 1755SOL     OW 5282   1.938   0.811   2.651
 1755SOL    HW1 5283   2.037   0.799   2.660
 1755SOL    HW2 5284   1.914   0.906   2.672
 1756SOL     OW 5285   1.992   1.821   3.433
 1756SOL    HW1 5286   1.982   1.806   3.532
 1756SOL    HW2 5287   1.906   1.857   3.397
 1757SOL     OW 5288   2.727   0.348   2.057
 1757SOL    HW1 5289   2.786   0.411   2.008
 1757SOL    HW2 5290   2.746   0.254   2.028
 1758SOL     OW 5291   3.581   0.585   3.693
 1758SOL    HW1 5292   3.555   0.674   3.657
 1758SOL    HW2 5293   3.579   0.517   3.620
 1759SOL     OW 5294   3.224   1.144   2.407
 1759SOL    HW1 5295   3.307   1.115   2.359
 1759SOL    HW2 5296   3.175   1.211   2.351
 1760SOL     OW 5297   2.412   0.196   2.747
 1760SOL    HW1 5298   2.407   0.191   2.847
 1760SOL    HW2 5299   2.414   0.292   2.718
 1761SOL     OW 5300   2.870   1.456   2.339
 1761SOL    HW1 5301   2.824   1.528   2.287
 1761SOL    HW2 5302   2.866   1.476   2.437
 1762SOL     OW 5303   2.213   1.801   2.715
 1762SOL    HW1 5304   2.263   1.715   2.721
 1762SOL    HW2 5305   2.278   1.878   2.712
 1763SOL     OW 5306   3.657   1.066   2.735
 1763SOL    HW1 5307   3.595   1.051   2.659
 1763SOL    HW2 5308   3.605   1.077   2.820
 1764SOL     OW 5309   3.089   1.550   3.368
 1764SOL    HW1 5310   3.095   1.473   3.432
 1764SOL    HW2 5311   3.037   1.524   3.288
 1765SOL     OW 5312   2.183   0.943   2.104
 1765SOL    HW1 5313   2.265   0.982   2.062
 1765SOL    HW2 5314   2.156   0.861   2.055
 1766SOL     OW 5315   3.320   0.735   2.590
 1766SOL    HW1 5316   3.315   0.670   2.665
 1766SOL    HW2 5317   3.400   0.794   2.603
 1767SOL     OW 5318   2.323   1.266   3.589
 1767SOL    HW1 5319   2.273   1.267   3.503
 1767SOL    HW2 5320   2.260   1.248   3.665
 1768SOL     OW 5321   2.973   1.776   2.099
 1768SOL    HW1 5322   2.913   1.714   2.149
 1768SOL    HW2 5323   3.004   1.732   2.014
 1769SOL     OW 5324   2.064   0.285   3.360
 1769SOL    HW1 5325   1.984   0.345   3.347
 1769SOL    HW2 5326   2.054   0.236   3.446
 1770SOL     OW 5327   3.494   1.377   1.943
 1770SOL    HW1 5328   3.462   1.471   1.933
 1770SOL    HW2 5329   3.418   1.314   1.931
 1771SOL     OW 5330   2.326   1.743   2.185
 1771SOL    HW1 5331   2.359   1.782   2.271
 1771SOL    HW2 5332   2.402   1.736   2.120
 1772SOL     OW 5333   3.262   0.107   2.288
 1772SOL    HW1 5334   3.238   0.070   2.198
 1772SOL    HW2 5335   3.361   0.123   2.292
 1773SOL     OW 5336   2.111   1.785   3.103
 1773SOL    HW1 5337   2.168   1.720   3.153
 1773SOL    HW2 5338   2.095   1.752   3.010
 1774SOL     OW 5339   2.802   1.698   2.766
 1774SOL    HW1 5340   2.882   1.641   2.787
 1774SOL    HW2 5341   2.753   1.658   2.689
 1775SOL     OW 5342   2.244   0.700   2.342
 1775SOL    HW1 5343   2.289   0.610   2.339
 1775SOL    HW2 5344   2.150   0.689   2.375
 1776SOL     OW 5345   3.409   0.222   3.591
 1776SOL    HW1 5346   3.404   0.259   3.683
 1776SOL    HW2 5347   3.337   0.153   3.579
 1777SOL     OW 5348   2.476   0.122   1.979
 1777SOL    HW1 5349   2.574   0.100   1.986
 1777SOL    HW2 5350   2.445   0.105   1.886
 1778SOL     OW 5351   2.643   0.264   3.611
 1778SOL    HW1 5352   2.710   0.203   3.654
 1778SOL    HW2 5353   2.570   0.283   3.676
 1779SOL     OW 5354   2.750   1.514   3.057
 1779SOL    HW1 5355   2.727   1.489   2.963
 1779SOL    HW2 5356   2.811   1.445   3.096
 1780SOL     OW 5357   3.213   0.590   3.295
 1780SOL    HW1 5358   3.241   0.547   3.380
 1780SOL    HW2 5359   3.238   0.686   3.296
 1781SOL     OW 5360   2.665   1.402   2.786
 1781SOL    HW1 5361   2.755   1.416   2.744
 1781SOL    HW2 5362   2.594   1.404   2.715
 1782SOL     OW 5363   2.784   0.503   2.761
 1782SOL    HW1 5364   2.759   0.494   2.665
 1782SOL    HW2 5365   2.832   0.421   2.792
 1783SOL     OW 5366   2.401   0.064   2.374
 1783SOL    HW1 5367   2.320   0.065   2.432
 1783SOL    HW2 5368   2.404   0.147   2.319
 1784SOL     OW 5369   3.296   1.188   1.903
 1784SOL    HW1 5370   3.328   1.112   1.960
 1784SOL    HW2 5371   3.204   1.215   1.933
 1785SOL     OW 5372   2.159   0.035   2.033
 1785SOL    HW1 5373   2.208   0.119   2.012
 1785SOL    HW2 5374   2.221  -0.030   2.078
 1786SOL     OW 5375   2.797   0.236   2.342
 1786SOL    HW1 5376   2.749   0.277   2.264
 1786SOL    HW2 5377   2.896   0.234   2.323
 1787SOL     OW 5378   2.938   0.683   3.326
 1787SOL    HW1 5379   2.858   0.622   3.329
 1787SOL    HW2 5380   3.019   0.630   3.302
 1788SOL     OW 5381   3.089   1.570   2.655
 1788SOL    HW1 5382   3.110   1.644   2.590
 1788SOL    HW2 5383   3.157   1.570   2.728
 1789SOL     OW 5384   2.321   1.152   2.603
 1789SOL    HW1 5385   2.250   1.125   2.668
 1789SOL    HW2 5386   2.295   1.124   2.510
 1790SOL     OW 5387   3.133   1.797   2.453
 1790SOL    HW1 5388   3.177   1.861   2.389
 1790SOL    HW2 5389   3.083   1.849   2.523
 1791SOL     OW 5390   2.894   0.549   1.878
 1791SOL    HW1 5391   2.853   0.631   1.839
 1791SOL    HW2 5392   2.958   0.575   1.951
 1792SOL     OW 5393   1.940   0.556   3.248
 1792SOL    HW1 5394   2.032   0.555   3.207
 1792SOL    HW2 5395   1.934   0.630   3.315
 1793SOL     OW 5396   2.423   0.222   3.009
 1793SOL    HW1 5397   2.461   0.138   3.046
 1793SOL    HW2 5398   2.335   0.241   3.053
 1794SOL     OW 5399   2.728   0.454   2.504
 1794SOL    HW1 5400   2.696   0.526   2.442
 1794SOL    HW2 5401   2.752   0.373   2.451
 1795SOL     OW 5402   2.879   0.039   2.615
 1795SOL    HW1 5403   2.807   0.044   2.546
 1795SOL    HW2 5404   2.855  -0.030   2.684
 1796SOL     OW 5405   3.291   1.173   2.729
 1796SOL    HW1 5406   3.236   1.089   2.722
 1796SOL    HW2 5407   3.317   1.202   2.637
 1797SOL     OW 5408   3.328   0.590   2.854
 1797SOL    HW1 5409   3.298   0.495   2.861
 1797SOL    HW2 5410   3.401   0.606   2.920
 1798SOL     OW 5411   3.719   0.833   2.239
 1798SOL    HW1 5412   3.761   0.769   2.303
 1798SOL    HW2 5413   3.681   0.782   2.161
 1799SOL     OW 5414   2.350   1.385   2.036
 1799SOL    HW1 5415   2.263   1.370   2.083
 1799SOL    HW2 5416   2.333   1.411   1.941
 1800SOL     OW 5417   3.526   1.280   2.519
 1800SOL    HW1 5418   3.625   1.288   2.533
 1800SOL    HW2 5419   3.481   1.364   2.550
 1801SOL     OW 5420   3.252   0.575   1.940
 1801SOL    HW1 5421   3.198   0.554   2.021
 1801SOL    HW2 5422   3.343   0.534   1.949
 1802SOL     OW 5423   2.389   0.256   2.190
 1802SOL    HW1 5424   2.416   0.197   2.115
 1802SOL    HW2 5425   2.389   0.351   2.159
 1803SOL     OW 5426   3.616   1.223   3.450
 1803SOL    HW1 5427   3.707   1.184   3.437
 1803SOL    HW2 5428   3.624   1.319   3.474
 1804SOL     OW 5429   2.926   1.347   3.202
 1804SOL    HW1 5430   2.846   1.324   3.257
 1804SOL    HW2 5431   3.009   1.321   3.251
 1805SOL     OW 5432   3.454   1.629   3.487
 1805SOL    HW1 5433   3.481   1.663   3.397
 1805SOL    HW2 5434   3.533   1.591   3.533
 1806SOL     OW 5435   2.973   1.195   2.962
 1806SOL    HW1 5436   2.933   1.239   3.043
 1806SOL    HW2 5437   2.932   1.232   2.879
 1807SOL     OW 5438   3.500   1.099   2.941
 1807SOL    HW1 5439   3.505   1.180   3.000
 1807SOL    HW2 5440   3.414   1.101   2.890
 1808SOL     OW 5441   2.777   0.089   3.264
 1808SOL    HW1 5442   2.802   0.069   3.169
 1808SOL    HW2 5443   2.849   0.145   3.306
 1809SOL     OW 5444   2.842   1.116   3.581
 1809SOL    HW1 5445   2.743   1.122   3.591
 1809SOL    HW2 5446   2.865   1.036   3.525
 1810SOL     OW 5447   2.567   1.050   2.230
 1810SOL    HW1 5448   2.553   1.057   2.329
 1810SOL    HW2 5449   2.651   0.999   2.212
 1811SOL     OW 5450   2.272   0.813   3.113
 1811SOL    HW1 5451   2.358   0.825   3.163
 1811SOL    HW2 5452   2.230   0.726   3.140
 1812SOL     OW 5453   3.136   0.386   3.124
 1812SOL    HW1 5454   3.157   0.460   3.188
 1812SOL    HW2 5455   3.047   0.403   3.081
 1813SOL     OW 5456   1.926   1.564   3.193
 1813SOL    HW1 5457   1.880   1.646   3.159
 1813SOL    HW2 5458   2.024   1.583   3.202
 1814SOL     OW 5459   2.229   1.100   2.363
 1814SOL    HW1 5460   2.222   1.183   2.307
 1814SOL    HW2 5461   2.233   1.020   2.303
 1815SOL     OW 5462   2.428   0.537   2.727
 1815SOL    HW1 5463   2.440   0.603   2.653
 1815SOL    HW2 5464   2.474   0.571   2.810
 1816SOL     OW 5465   3.114   1.348   2.250
 1816SOL    HW1 5466   3.164   1.425   2.290
 1816SOL    HW2 5467   3.019   1.350   2.282
 1817SOL     OW 5468   3.134   1.445   3.004
 1817SOL    HW1 5469   3.181   1.458   3.091
 1817SOL    HW2 5470   3.068   1.371   3.013
 1818SOL     OW 5471   3.444   0.639   2.334
 1818SOL    HW1 5472   3.413   0.700   2.407
 1818SOL    HW2 5473   3.494   0.691   2.265
 1819SOL     OW 5474   2.216   1.510   3.191
 1819SOL    HW1 5475   2.195   1.466   3.104
 1819SOL    HW2 5476   2.313   1.536   3.194
 1820SOL     OW 5477   2.264   0.751   3.460
 1820SOL    HW1 5478   2.332   0.806   3.413
 1820SOL    HW2 5479   2.304   0.663   3.487
 1821SOL     OW 5480   3.449   0.779   3.532
 1821SOL    HW1 5481   3.357   0.817   3.527
 1821SOL    HW2 5482   3.509   0.826   3.467
 1822SOL     OW 5483   2.875   0.105   3.632
 1822SOL    HW1 5484   2.881   0.190   3.580
 1822SOL    HW2 5485   2.907   0.029   3.575
 1823SOL     OW 5486   2.366   0.050   3.602
 1823SOL    HW1 5487   2.324  -0.007   3.532
 1823SOL    HW2 5488   2.300   0.119   3.634
 1824SOL     OW 5489   2.435   0.870   2.891
 1824SOL    HW1 5490   2.479   0.959   2.882
 1824SOL    HW2 5491   2.372   0.870   2.968
 1825SOL     OW 5492   3.222   0.862   2.907
 1825SOL    HW1 5493   3.147   0.862   2.841
 1825SOL    HW2 5494   3.259   0.770   2.916
 1826SOL     OW 5495   3.071   0.525   2.137
 1826SOL    HW1 5496   3.084   0.441   2.191
 1826SOL    HW2 5497   3.042   0.599   2.197
 1827SOL     OW 5498   2.169   0.213   3.093
 1827SOL    HW1 5499   2.146   0.250   3.183
 1827SOL    HW2 5500   2.139   0.118   3.087
 1828SOL     OW 5501   1.899   1.310   3.144
 1828SOL    HW1 5502   1.952   1.261   3.212
 1828SOL    HW2 5503   1.921   1.408   3.149
 1829SOL     OW 5504   2.594   0.634   2.926
 1829SOL    HW1 5505   2.653   0.608   2.850
 1829SOL    HW2 5506   2.566   0.730   2.915
 1830SOL     OW 5507   3.590   0.935   3.716
 1830SOL    HW1 5508   3.544   0.928   3.627
 1830SOL    HW2 5509   3.528   0.979   3.782
 1831SOL     OW 5510   2.169   0.063   2.480
 1831SOL    HW1 5511   2.158   0.157   2.513
 1831SOL    HW2 5512   2.164   0.000   2.557
 1832SOL     OW 5513   3.484   0.367   2.236
 1832SOL    HW1 5514   3.486   0.291   2.300
 1832SOL    HW2 5515   3.436   0.444   2.276
 1833SOL     OW 5516   2.885   0.766   2.828
 1833SOL    HW1 5517   2.900   0.787   2.924
 1833SOL    HW2 5518   2.855   0.671   2.819
 1834SOL     OW 5519   2.842   1.573   3.562
 1834SOL    HW1 5520   2.822   1.617   3.474
 1834SOL    HW2 5521   2.881   1.482   3.546
 1835SOL     OW 5522   3.721   1.518   3.467
 1835SOL    HW1 5523   3.735   1.545   3.372
 1835SOL    HW2 5524   3.804   1.540   3.520
 1836SOL     OW 5525   2.212   0.898   3.666
 1836SOL    HW1 5526   2.288   0.942   3.714
 1836SOL    HW2 5527   2.247   0.851   3.584
 1837SOL     OW 5528   3.402   0.274   1.987
 1837SOL    HW1 5529   3.341   0.199   2.010
 1837SOL    HW2 5530   3.424   0.326   2.070
 1838SOL     OW 5531   3.165   0.838   1.904
 1838SOL    HW1 5532   3.199   0.745   1.919
 1838SOL    HW2 5533   3.183   0.865   1.809
 1839SOL     OW 5534   2.930   1.333   2.711
 1839SOL    HW1 5535   2.937   1.249   2.656
 1839SOL    HW2 5536   2.992   1.402   2.675
 1840SOL     OW 5537   2.181   0.810   2.811
 1840SOL    HW1 5538   2.274   0.846   2.816
 1840SOL    HW2 5539   2.175   0.725   2.863
 1841SOL     OW 5540   2.201   0.509   2.868
 1841SOL    HW1 5541   2.149   0.426   2.851
 1841SOL    HW2 5542   2.278   0.514   2.804
 1842SOL     OW 5543   3.000   0.380   3.540
 1842SOL    HW1 5544   2.955   0.443   3.604
 1842SOL    HW2 5545   3.093   0.411   3.523
 1843SOL     OW 5546   3.022   0.207   3.339
 1843SOL    HW1 5547   3.022   0.271   3.416
 1843SOL    HW2 5548   3.050   0.255   3.256
 1844SOL     OW 5549   1.870   1.326   2.062
 1844SOL    HW1 5550   1.777   1.347   2.031
 1844SOL    HW2 5551   1.880   1.227   2.075
 1845SOL     OW 5552   1.950   1.801   2.789
 1845SOL    HW1 5553   1.908   1.715   2.762
 1845SOL    HW2 5554   2.044   1.804   2.755
 1846SOL     OW 5555   2.366   1.568   2.772
 1846SOL    HW1 5556   2.432   1.642   2.781
 1846SOL    HW2 5557   2.410   1.489   2.730
 1847SOL     OW 5558   2.864   0.796   3.100
 1847SOL    HW1 5559   2.905   0.764   3.186
 1847SOL    HW2 5560   2.768   0.769   3.097
 1848SOL     OW 5561   1.902   0.544   2.976
 1848SOL    HW1 5562   1.987   0.511   2.935
 1848SOL    HW2 5563   1.915   0.559   3.074
 1849SOL     OW 5564   2.051   0.520   3.584
 1849SOL    HW1 5565   2.110   0.480   3.514
 1849SOL    HW2 5566   1.993   0.591   3.543
 1850SOL     OW 5567   3.231   0.950   3.522
 1850SOL    HW1 5568   3.270   1.039   3.542
 1850SOL    HW2 5569   3.241   0.930   3.425
 1851SOL     OW 5570   2.677   0.572   2.187
 1851SOL    HW1 5571   2.684   0.483   2.141
 1851SOL    HW2 5572   2.583   0.606   2.179
 1852SOL     OW 5573   3.519   0.604   3.068
 1852SOL    HW1 5574   3.481   0.535   3.130
 1852SOL    HW2 5575   3.601   0.568   3.024
 1853SOL     OW 5576   2.114   1.564   3.606
 1853SOL    HW1 5577   2.084   1.621   3.682
 1853SOL    HW2 5578   2.107   1.467   3.632
 1854SOL     OW 5579   2.533   0.464   3.131
 1854SOL    HW1 5580   2.499   0.375   3.101
 1854SOL    HW2 5581   2.559   0.518   3.051
 1855SOL     OW 5582   2.792   1.678   3.327
 1855SOL    HW1 5583   2.768   1.660   3.232
 1855SOL    HW2 5584   2.822   1.772   3.337
 1856SOL     OW 5585   2.335   0.500   2.053
 1856SOL    HW1 5586   2.396   0.580   2.057
 1856SOL    HW2 5587   2.240   0.531   2.060
 1857SOL     OW 5588   2.021   1.137   3.328
 1857SOL    HW1 5589   2.043   1.076   3.404
 1857SOL    HW2 5590   2.031   1.088   3.242
 1858SOL     OW 5591   3.209   1.059   3.096
 1858SOL    HW1 5592   3.233   0.996   3.022
 1858SOL    HW2 5593   3.119   1.099   3.078
 1859SOL     OW 5594   3.164   0.855   2.171
 1859SOL    HW1 5595   3.078   0.824   2.213
 1859SOL    HW2 5596   3.160   0.841   2.072
 1860SOL     OW 5597   3.621   1.747   3.016
 1860SOL    HW1 5598   3.682   1.777   2.943
 1860SOL    HW2 5599   3.583   1.658   2.994
 1861SOL     OW 5600   3.114   1.731   2.990
 1861SOL    HW1 5601   3.198   1.736   2.936
 1861SOL    HW2 5602   3.091   1.635   3.008
 1862SOL     OW 5603   1.945   1.258   2.884
 1862SOL    HW1 5604   1.940   1.257   2.984
 1862SOL    HW2 5605   1.862   1.217   2.846
 1863SOL     OW 5606   2.550   1.662   3.578
 1863SOL    HW1 5607   2.494   1.743   3.587
 1863SOL    HW2 5608   2.602   1.666   3.492
 1864SOL     OW 5609   3.588   0.135   2.385
 1864SOL    HW1 5610   3.661   0.118   2.318
 1864SOL    HW2 5611   3.557   0.048   2.423
 1865SOL     OW 5612   3.250   1.573   2.339
 1865SOL    HW1 5613   3.317   1.585   2.265
 1865SOL    HW2 5614   3.210   1.662   2.362
 1866SOL     OW 5615   1.992   1.794   3.713
 1866SOL    HW1 5616   1.951   1.720   3.766
 1866SOL    HW2 5617   2.056   1.845   3.771
 1867SOL     OW 5618   3.142   0.927   2.534
 1867SOL    HW1 5619   3.202   0.846   2.536
 1867SOL    HW2 5620   3.182   0.996   2.474
 1868SOL     OW 5621   2.692   1.273   3.284
 1868SOL    HW1 5622   2.687   1.306   3.379
 1868SOL    HW2 5623   2.606   1.292   3.238
 1869SOL     OW 5624   2.534   1.616   2.016
 1869SOL    HW1 5625   2.543   1.626   1.917
 1869SOL    HW2 5626   2.494   1.527   2.037
 1870SOL     OW 5627   3.512   1.720   3.256
 1870SOL    HW1 5628   3.565   1.730   3.172
 1870SOL    HW2 5629   3.485   1.810   3.290
 1871SOL     OW 5630   3.703   0.175   2.825
 1871SOL    HW1 5631   3.742   0.090   2.789
 1871SOL    HW2 5632   3.605   0.177   2.806
 1872SOL     OW 5633   2.125   0.326   2.582
 1872SOL    HW1 5634   2.046   0.377   2.548
 1872SOL    HW2 5635   2.116   0.311   2.680
 1873SOL     OW 5636   3.056   1.612   1.893
 1873SOL    HW1 5637   3.062   1.519   1.930
 1873SOL    HW2 5638   2.997   1.612   1.813
 1874SOL     OW 5639   2.684   1.002   3.234
 1874SOL    HW1 5640   2.724   1.001   3.142
 1874SOL    HW2 5641   2.694   1.094   3.274
 1875SOL     OW 5642   2.778   0.910   2.153
 1875SOL    HW1 5643   2.841   0.948   2.085
 1875SOL    HW2 5644   2.818   0.827   2.192
 1876SOL     OW 5645   3.366   1.607   1.906
 1876SOL    HW1 5646   3.274   1.644   1.913
 1876SOL    HW2 5647   3.404   1.627   1.816
 1877SOL     OW 5648   2.234   1.288   3.352
 1877SOL    HW1 5649   2.221   1.381   3.318
 1877SOL    HW2 5650   2.150   1.236   3.339
 1878SOL     OW 5651   3.476   1.292   3.151
 1878SOL    HW1 5652   3.536   1.295   3.231
 1878SOL    HW2 5653   3.401   1.356   3.164
 1879SOL     OW 5654   2.901   1.098   2.558
 1879SOL    HW1 5655   2.831   1.051   2.612
 1879SOL    HW2 5656   2.960   1.030   2.515
 1880SOL     OW 5657   2.876   0.236   2.833
 1880SOL    HW1 5658   2.868   0.200   2.740
 1880SOL    HW2 5659   2.874   0.160   2.898
 1881SOL     OW 5660   2.452   1.487   2.353
 1881SOL    HW1 5661   2.494   1.429   2.283
 1881SOL    HW2 5662   2.408   1.566   2.309
 1882SOL     OW 5663   3.571   0.385   3.243
 1882SOL    HW1 5664   3.644   0.454   3.247
 1882SOL    HW2 5665   3.599   0.310   3.184
 1883SOL     OW 5666   2.117   1.348   2.152
 1883SOL    HW1 5667   2.021   1.349   2.125
 1883SOL    HW2 5668   2.129   1.401   2.236
 1884SOL     OW 5669   1.967   1.013   3.588
 1884SOL    HW1 5670   1.890   0.980   3.642
 1884SOL    HW2 5671   2.052   0.983   3.630
 1885SOL     OW 5672   2.534   0.203   3.351
 1885SOL    HW1 5673   2.624   0.187   3.311
 1885SOL    HW2 5674   2.542   0.208   3.450
 1886SOL     OW 5675   1.937   0.345   1.895
 1886SOL    HW1 5676   1.845   0.317   1.866
 1886SOL    HW2 5677   1.968   0.422   1.839
 1887SOL     OW 5678   3.302   0.856   3.260
 1887SOL    HW1 5679   3.245   0.908   3.197
 1887SOL    HW2 5680   3.398   0.868   3.236
 1888SOL     OW 5681   1.934   0.166   2.180
 1888SOL    HW1 5682   1.917   0.249   2.126
 1888SOL    HW2 5683   2.024   0.129   2.158
 1889SOL     OW 5684   3.045   1.335   1.981
 1889SOL    HW1 5685   2.946   1.324   1.983
 1889SOL    HW2 5686   3.079   1.350   2.074
 1890SOL     OW 5687   2.475   0.842   3.293
 1890SOL    HW1 5688   2.531   0.923   3.276
 1890SOL    HW2 5689   2.534   0.762   3.296
 1891SOL     OW 5690   3.355   1.767   2.821
 1891SOL    HW1 5691   3.388   1.831   2.752
 1891SOL    HW2 5692   3.421   1.761   2.896
 1892SOL     OW 5693   2.578   0.565   3.570
 1892SOL    HW1 5694   2.597   0.630   3.644
 1892SOL    HW2 5695   2.638   0.485   3.579
 1893SOL     OW 5696   3.312   1.220   3.495
 1893SOL    HW1 5697   3.303   1.210   3.594
 1893SOL    HW2 5698   3.408   1.213   3.469
 1894SOL     OW 5699   2.252   1.741   3.422
 1894SOL    HW1 5700   2.161   1.782   3.420
 1894SOL    HW2 5701   2.245   1.647   3.454
 1895SOL     OW 5702   3.536   0.883   3.116
 1895SOL    HW1 5703   3.509   0.794   3.079
 1895SOL    HW2 5704   3.537   0.951   3.043
 1896SOL     OW 5705   3.087   0.325   2.311
 1896SOL    HW1 5706   3.152   0.251   2.300
 1896SOL    HW2 5707   3.107   0.375   2.395
 1897SOL     OW 5708   2.456   0.745   2.514
 1897SOL    HW1 5709   2.506   0.830   2.495
 1897SOL    HW2 5710   2.368   0.747   2.466
 1898SOL     OW 5711   3.639   0.342   3.504
 1898SOL    HW1 5712   3.622   0.373   3.410
 1898SOL    HW2 5713   3.555   0.305   3.542
 1899SOL     OW 5714   3.592   0.934   3.379
 1899SOL    HW1 5715   3.630   1.025   3.394
 1899SOL    HW2 5716   3.584   0.917   3.280
 1900SOL     OW 5717   2.721   1.374   1.878
 1900SOL    HW1 5718   2.675   1.389   1.966
 1900SOL    HW2 5719   2.765   1.459   1.848
 1901SOL     OW 5720   2.523   1.790   2.815
 1901SOL    HW1 5721   2.477   1.878   2.802
 1901SOL    HW2 5722   2.622   1.802   2.808
 1902SOL     OW 5723   2.721   0.956   2.723
 1902SOL    HW1 5724   2.775   0.887   2.771
 1902SOL    HW2 5725   2.689   1.025   2.789
 1903SOL     OW 5726   2.945   0.984   1.949
 1903SOL    HW1 5727   2.922   1.037   1.867
 1903SOL    HW2 5728   3.026   0.928   1.930
 1904SOL     OW 5729   3.723   1.569   2.713
 1904SOL    HW1 5730   3.652   1.557   2.643
 1904SOL    HW2 5731   3.724   1.490   2.773
 1905SOL     OW 5732   2.083   1.314   3.706
 1905SOL    HW1 5733   2.018   1.241   3.685
 1905SOL    HW2 5734   2.087   1.328   3.804
 1906SOL     OW 5735   1.941   1.240   2.515
 1906SOL    HW1 5736   1.940   1.193   2.603
 1906SOL    HW2 5737   2.023   1.212   2.464
 1907SOL     OW 5738   2.534   1.391   3.486
 1907SOL    HW1 5739   2.456   1.341   3.524
 1907SOL    HW2 5740   2.531   1.486   3.517
 1908SOL     OW 5741   3.686   0.192   3.089
 1908SOL    HW1 5742   3.682   0.102   3.133
 1908SOL    HW2 5743   3.689   0.181   2.990
 1909SOL     OW 5744   2.290   0.424   2.382
 1909SOL    HW1 5745   2.320   0.352   2.320
 1909SOL    HW2 5746   2.251   0.384   2.465
 1910SOL     OW 5747   3.567   1.487   2.966
 1910SOL    HW1 5748   3.474   1.462   2.939
 1910SOL    HW2 5749   3.593   1.437   3.048
 1911SOL     OW 5750   2.179   0.547   3.142
 1911SOL    HW1 5751   2.217   0.488   3.214
 1911SOL    HW2 5752   2.219   0.521   3.054
 1912SOL     OW 5753   2.674   1.586   2.549
 1912SOL    HW1 5754   2.706   1.596   2.455
 1912SOL    HW2 5755   2.595   1.524   2.551
 1913SOL     OW 5756   3.286   0.214   2.974
 1913SOL    HW1 5757   3.338   0.149   3.029
 1913SOL    HW2 5758   3.237   0.277   3.035
 1914SOL     OW 5759   2.863   0.034   3.016
 1914SOL    HW1 5760   2.800  -0.038   2.985
 1914SOL    HW2 5761   2.956  -0.002   3.016
 1915SOL     OW 5762   2.632   1.330   2.163
 1915SOL    HW1 5763   2.586   1.243   2.180
 1915SOL    HW2 5764   2.723   1.327   2.204
 1916SOL     OW 5765   2.480   1.567   3.146
 1916SOL    HW1 5766   2.475   1.649   3.203
 1916SOL    HW2 5767   2.569   1.564   3.101
 1917SOL     OW 5768   3.214   0.052   2.030
 1917SOL    HW1 5769   3.249   0.011   1.946
 1917SOL    HW2 5770   3.124   0.014   2.050
 1918SOL     OW 5771   3.162   0.453   2.553
 1918SOL    HW1 5772   3.103   0.533   2.557
 1918SOL    HW2 5773   3.177   0.418   2.646
 1919SOL     OW 5774   3.455   0.221   2.744
 1919SOL    HW1 5775   3.371   0.220   2.798
 1919SOL    HW2 5776   3.457   0.304   2.688
 1920SOL     OW 5777   1.901   1.077   2.162
 1920SOL    HW1 5778   2.000   1.066   2.153
 1920SOL    HW2 5779   1.861   0.991   2.194
 1921SOL     OW 5780   2.737   1.646   2.199
 1921SOL    HW1 5781   2.660   1.611   2.145
 1921SOL    HW2 5782   2.705   1.717   2.261
 1922SOL     OW 5783   2.092   0.628   3.837
 1922SOL    HW1 5784   1.999   0.626   3.874
 1922SOL    HW2 5785   2.093   0.589   3.745
 1923SOL     OW 5786   2.087   0.275   4.720
 1923SOL    HW1 5787   2.122   0.258   4.812
 1923SOL    HW2 5788   1.999   0.230   4.708
 1924SOL     OW 5789   1.881   0.368   4.371
 1924SOL    HW1 5790   1.799   0.411   4.410
 1924SOL    HW2 5791   1.853   0.295   4.308
 1925SOL     OW 5792   2.431   1.275   4.889
 1925SOL    HW1 5793   2.338   1.268   4.852
 1925SOL    HW2 5794   2.442   1.364   4.933
 1926SOL     OW 5795   3.417   1.511   4.427
 1926SOL    HW1 5796   3.360   1.495   4.508
 1926SOL    HW2 5797   3.358   1.521   4.347
 1927SOL     OW 5798   2.997   0.703   4.441
 1927SOL    HW1 5799   3.054   0.781   4.416
 1927SOL    HW2 5800   2.937   0.729   4.517
 1928SOL     OW 5801   3.617   0.607   3.955
 1928SOL    HW1 5802   3.605   0.594   3.856
 1928SOL    HW2 5803   3.587   0.526   4.004
 1929SOL     OW 5804   2.630   1.144   4.747
 1929SOL    HW1 5805   2.552   1.161   4.807
 1929SOL    HW2 5806   2.664   1.231   4.711
 1930SOL     OW 5807   2.547   1.012   4.389
 1930SOL    HW1 5808   2.616   0.996   4.459
 1930SOL    HW2 5809   2.474   1.069   4.427
 1931SOL     OW 5810   2.197   1.435   4.785
 1931SOL    HW1 5811   2.119   1.404   4.732
 1931SOL    HW2 5812   2.255   1.493   4.728
 1932SOL     OW 5813   3.465   0.447   4.461
 1932SOL    HW1 5814   3.391   0.493   4.411
 1932SOL    HW2 5815   3.516   0.515   4.514
 1933SOL     OW 5816   2.093   1.713   4.207
 1933SOL    HW1 5817   2.127   1.790   4.261
 1933SOL    HW2 5818   2.137   1.713   4.117
 1934SOL     OW 5819   2.092   1.434   4.262
 1934SOL    HW1 5820   2.066   1.530   4.262
 1934SOL    HW2 5821   2.021   1.380   4.307
 1935SOL     OW 5822   2.102   1.091   4.610
 1935SOL    HW1 5823   2.116   1.007   4.662
 1935SOL    HW2 5824   2.047   1.155   4.665
 1936SOL     OW 5825   2.468   0.964   3.847
 1936SOL    HW1 5826   2.475   1.048   3.793
 1936SOL    HW2 5827   2.514   0.977   3.935
 1937SOL     OW 5828   1.984   0.643   4.287
 1937SOL    HW1 5829   1.939   0.555   4.304
 1937SOL    HW2 5830   1.983   0.697   4.371
 1938SOL     OW 5831   3.704   1.767   4.083
 1938SOL    HW1 5832   3.758   1.738   4.163
 1938SOL    HW2 5833   3.734   1.857   4.054
 1939SOL     OW 5834   1.889   1.596   3.841
 1939SOL    HW1 5835   1.870   1.500   3.862
 1939SOL    HW2 5836   1.856   1.654   3.916
 1940SOL     OW 5837   3.551   0.922   4.336
 1940SOL    HW1 5838   3.646   0.893   4.344
 1940SOL    HW2 5839   3.543   0.987   4.261
 1941SOL     OW 5840   3.503   1.108   4.156
 1941SOL    HW1 5841   3.589   1.110   4.104
 1941SOL    HW2 5842   3.517   1.155   4.244
 1942SOL     OW 5843   2.475   1.365   4.450
 1942SOL    HW1 5844   2.426   1.278   4.459
 1942SOL    HW2 5845   2.452   1.408   4.363
 1943SOL     OW 5846   2.671   0.004   4.226
 1943SOL    HW1 5847   2.711   0.095   4.217
 1943SOL    HW2 5848   2.571   0.012   4.232
 1944SOL     OW 5849   2.059   0.976   4.988
 1944SOL    HW1 5850   2.148   0.931   4.974
 1944SOL    HW2 5851   1.986   0.911   4.969
 1945SOL     OW 5852   3.387   0.999   3.914
 1945SOL    HW1 5853   3.324   0.923   3.927
 1945SOL    HW2 5854   3.435   1.017   4.000
 1946SOL     OW 5855   3.328   1.417   4.677
 1946SOL    HW1 5856   3.269   1.423   4.757
 1946SOL    HW2 5857   3.313   1.329   4.631
 1947SOL     OW 5858   3.529   1.714   4.296
 1947SOL    HW1 5859   3.488   1.691   4.208
 1947SOL    HW2 5860   3.511   1.640   4.361
 1948SOL     OW 5861   2.460   0.729   3.994
 1948SOL    HW1 5862   2.484   0.798   3.926
 1948SOL    HW2 5863   2.382   0.762   4.048
 1949SOL     OW 5864   3.143   0.345   4.668
 1949SOL    HW1 5865   3.057   0.295   4.655
 1949SOL    HW2 5866   3.205   0.291   4.724
 1950SOL     OW 5867   3.438   1.662   4.031
 1950SOL    HW1 5868   3.527   1.708   4.034
 1950SOL    HW2 5869   3.417   1.638   3.936
 1951SOL     OW 5870   2.903   0.701   4.153
 1951SOL    HW1 5871   2.929   0.697   4.249
 1951SOL    HW2 5872   2.818   0.650   4.139
 1952SOL     OW 5873   1.938   0.811   4.513
 1952SOL    HW1 5874   2.037   0.799   4.522
 1952SOL    HW2 5875   1.914   0.906   4.534
 1953SOL     OW 5876   2.727   0.348   3.919
 1953SOL    HW1 5877   2.786   0.411   3.870
 1953SOL    HW2 5878   2.746   0.254   3.890
 1954SOL     OW 5879   3.224   1.144   4.269
 1954SOL    HW1 5880   3.307   1.115   4.221
 1954SOL    HW2 5881   3.175   1.211   4.213
 1955SOL     OW 5882   2.412   0.196   4.609
 1955SOL    HW1 5883   2.407   0.191   4.709
 1955SOL    HW2 5884   2.414   0.292   4.580
 1956SOL     OW 5885   2.870   1.456   4.201
 1956SOL    HW1 5886   2.824   1.528   4.149
 1956SOL    HW2 5887   2.866   1.476   4.299
 1957SOL     OW 5888   2.213   1.801   4.577
 1957SOL    HW1 5889   2.263   1.715   4.583
 1957SOL    HW2 5890   2.278   1.878   4.574
 1958SOL     OW 5891   3.657   1.066   4.597
 1958SOL    HW1 5892   3.595   1.051   4.521
 1958SOL    HW2 5893   3.605   1.077   4.682
 1959SOL     OW 5894   2.183   0.943   3.966
 1959SOL    HW1 5895   2.265   0.982   3.924
 1959SOL    HW2 5896   2.156   0.861   3.917
 1960SOL     OW 5897   3.320   0.735   4.452
 1960SOL    HW1 5898   3.315   0.670   4.527
 1960SOL    HW2 5899   3.400   0.794   4.465
 1961SOL     OW 5900   2.973   1.776   3.961
 1961SOL    HW1 5901   2.913   1.714   4.011
 1961SOL    HW2 5902   3.004   1.732   3.876
 1962SOL     OW 5903   3.494   1.377   3.805
 1962SOL    HW1 5904   3.462   1.471   3.795
 1962SOL    HW2 5905   3.418   1.314   3.793
 1963SOL     OW 5906   2.326   1.743   4.047
 1963SOL    HW1 5907   2.359   1.782   4.133
 1963SOL    HW2 5908   2.402   1.736   3.982
 1964SOL     OW 5909   3.262   0.107   4.150
 1964SOL    HW1 5910   3.238   0.070   4.060
 1964SOL    HW2 5911   3.361   0.123   4.154
 1965SOL     OW 5912   2.111   1.785   4.965
 1965SOL    HW1 5913   2.168   1.720   5.015
 1965SOL    HW2 5914   2.095   1.752   4.872
 1966SOL     OW 5915   2.802   1.698   4.628
 1966SOL    HW1 5916   2.882   1.641   4.649
 1966SOL    HW2 5917   2.753   1.658   4.551
 1967SOL     OW 5918   2.244   0.700   4.204
 1967SOL    HW1 5919   2.289   0.610   4.201
 1967SOL    HW2 5920   2.150   0.689   4.237
 1968SOL     OW 5921   2.476   0.122   3.841
 1968SOL    HW1 5922   2.574   0.100   3.848
 1968SOL    HW2 5923   2.445   0.105   3.748
 1969SOL     OW 5924   2.665   1.402   4.648
 1969SOL    HW1 5925   2.755   1.416   4.606
 1969SOL    HW2 5926   2.594   1.404   4.577
 1970SOL     OW 5927   2.784   0.503   4.623
 1970SOL    HW1 5928   2.759   0.494   4.527
 1970SOL    HW2 5929   2.832   0.421   4.654
 1971SOL     OW 5930   2.401   0.064   4.236
 1971SOL    HW1 5931   2.320   0.065   4.294
 1971SOL    HW2 5932   2.404   0.147   4.181
 1972SOL     OW 5933   3.296   1.188   3.765
 1972SOL    HW1 5934   3.328   1.112   3.822
 1972SOL    HW2 5935   3.204   1.215   3.795
 1973SOL     OW 5936   2.159   0.035   3.895
 1973SOL    HW1 5937   2.208   0.119   3.874
 1973SOL    HW2 5938   2.221  -0.030   3.940
 1974SOL     OW 5939   2.797   0.236   4.204
 1974SOL    HW1 5940   2.749   0.277   4.126
 1974SOL    HW2 5941   2.896   0.234   4.185
 1975SOL     OW 5942   3.089   1.570   4.517
 1975SOL    HW1 5943   3.110   1.644   4.452
 1975SOL    HW2 5944   3.157   1.570   4.590
 1976SOL     OW 5945   2.321   1.152   4.465
 1976SOL    HW1 5946   2.250   1.125   4.530
 1976SOL    HW2 5947   2.295   1.124   4.372
 1977SOL     OW 5948   3.133   1.797   4.315
 1977SOL    HW1 5949   3.177   1.861   4.251
 1977SOL    HW2 5950   3.083   1.849   4.385
 1978SOL     OW 5951   2.894   0.549   3.740
 1978SOL    HW1 5952   2.853   0.631   3.701
 1978SOL    HW2 5953   2.958   0.575   3.813
 1979SOL     OW 5954   2.728   0.454   4.366
 1979SOL    HW1 5955   2.696   0.526   4.304
 1979SOL    HW2 5956   2.752   0.373   4.313
 1980SOL     OW 5957   2.879   0.039   4.477
 1980SOL    HW1 5958   2.807   0.044   4.408
 1980SOL    HW2 5959   2.855  -0.030   4.546
 1981SOL     OW 5960   3.291   1.173   4.591
 1981SOL    HW1 5961   3.236   1.089   4.584
 1981SOL    HW2 5962   3.317   1.202   4.499
 1982SOL     OW 5963   3.328   0.590   4.716
 1982SOL    HW1 5964   3.298   0.495   4.723
 1982SOL    HW2 5965   3.401   0.606   4.782
 1983SOL     OW 5966   3.719   0.833   4.101
 1983SOL    HW1 5967   3.761   0.769   4.165
 1983SOL    HW2 5968   3.681   0.782   4.023
 1984SOL     OW 5969   2.350   1.385   3.898
 1984SOL    HW1 5970   2.263   1.370   3.945
 1984SOL    HW2 5971   2.333   1.411   3.803
 1985SOL     OW 5972   3.526   1.280   4.381
 1985SOL    HW1 5973   3.625   1.288   4.395
 1985SOL    HW2 5974   3.481   1.364   4.412
 1986SOL     OW 5975   3.252   0.575   3.802
 1986SOL    HW1 5976   3.198   0.554   3.883
 1986SOL    HW2 5977   3.343   0.534   3.811
 1987SOL     OW 5978   2.389   0.256   4.052
 1987SOL    HW1 5979   2.416   0.197   3.977
 1987SOL    HW2 5980   2.389   0.351   4.021
 1988SOL     OW 5981   2.973   1.195   4.824
 1988SOL    HW1 5982   2.933   1.239   4.905
 1988SOL    HW2 5983   2.932   1.232   4.741
 1989SOL     OW 5984   3.500   1.099   4.803
 1989SOL    HW1 5985   3.505   1.180   4.862
 1989SOL    HW2 5986   3.414   1.101   4.752
 1990SOL     OW 5987   2.567   1.050   4.092
 1990SOL    HW1 5988   2.553   1.057   4.191
 1990SOL    HW2 5989   2.651   0.999   4.074
 1991SOL     OW 5990   2.272   0.813   4.975
 1991SOL    HW1 5991   2.358   0.825   5.025
 1991SOL    HW2 5992   2.230   0.726   5.002
 1992SOL     OW 5993   2.229   1.100   4.225
 1992SOL    HW1 5994   2.222   1.183   4.169
 1992SOL    HW2 5995   2.233   1.020   4.165
 1993SOL     OW 5996   2.428   0.537   4.589
 1993SOL    HW1 5997   2.440   0.603   4.515
 1993SOL    HW2 5998   2.474   0.571   4.672
 1994SOL     OW 5999   3.114   1.348   4.112
 1994SOL    HW1 6000   3.164   1.425   4.152
 1994SOL    HW2 6001   3.019   1.350   4.144
 1995SOL     OW 6002   3.134   1.445   4.866
 1995SOL    HW1 6003   3.181   1.458   4.953
 1995SOL    HW2 6004   3.068   1.371   4.875
 1996SOL     OW 6005   3.444   0.639   4.196
 1996SOL    HW1 6006   3.413   0.700   4.269
 1996SOL    HW2 6007   3.494   0.691   4.127
 1997SOL     OW 6008   2.435   0.870   4.753
 1997SOL    HW1 6009   2.479   0.959   4.744
 1997SOL    HW2 6010   2.372   0.870   4.830
 1998SOL     OW 6011   3.071   0.525   3.999
 1998SOL    HW1 6012   3.084   0.441   4.053
 1998SOL    HW2 6013   3.042   0.599   4.059
 1999SOL     OW 6014   2.169   0.213   4.955
 1999SOL    HW1 6015   2.146   0.250   5.045
 1999SOL    HW2 6016   2.139   0.118   4.949
 2000SOL     OW 6017   2.594   0.634   4.788
 2000SOL    HW1 6018   2.653   0.608   4.712
 2000SOL    HW2 6019   2.566   0.730   4.777
 2001SOL     OW 6020   2.169   0.063   4.342
 2001SOL    HW1 6021   2.158   0.157   4.375
 2001SOL    HW2 6022   2.164   0.000   4.419
 2002SOL     OW 6023   3.484   0.367   4.098
 2002SOL    HW1 6024   3.486   0.291   4.162
 2002SOL    HW2 6025   3.436   0.444   4.138
 2003SOL     OW 6026   2.885   0.766   4.690
 2003SOL    HW1 6027   2.900   0.787   4.786
 2003SOL    HW2 6028   2.855   0.671   4.681
 2004SOL     OW 6029   3.402   0.274   3.849
 2004SOL    HW1 6030   3.341   0.199   3.872
 2004SOL    HW2 6031   3.424   0.326   3.932
 2005SOL     OW 6032   3.165   0.838   3.766
 2005SOL    HW1 6033   3.199   0.745   3.781
 2005SOL    HW2 6034   3.183   0.865   3.671
 2006SOL     OW 6035   2.930   1.333   4.573
 2006SOL    HW1 6036   2.937   1.249   4.518
 2006SOL    HW2 6037   2.992   1.402   4.537
 2007SOL     OW 6038   2.181   0.810   4.673
 2007SOL    HW1 6039   2.274   0.846   4.678
 2007SOL    HW2 6040   2.175   0.725   4.725
 2008SOL     OW 6041   2.201   0.509   4.730
 2008SOL    HW1 6042   2.149   0.426   4.713
 2008SOL    HW2 6043   2.278   0.514   4.666
 2009SOL     OW 6044   1.870   1.326   3.924
 2009SOL    HW1 6045   1.777   1.347   3.893
 2009SOL    HW2 6046   1.880   1.227   3.937
 2010SOL     OW 6047   1.950   1.801   4.651
 2010SOL    HW1 6048   1.908   1.715   4.624
 2010SOL    HW2 6049   2.044   1.804   4.617
 2011SOL     OW 6050   2.366   1.568   4.634
 2011SOL    HW1 6051   2.432   1.642   4.643
 2011SOL    HW2 6052   2.410   1.489   4.592
 2012SOL     OW 6053   2.864   0.796   4.962
 2012SOL    HW1 6054   2.905   0.764   5.048
 2012SOL    HW2 6055   2.768   0.769   4.959
 2013SOL     OW 6056   1.902   0.544   4.838
 2013SOL    HW1 6057   1.987   0.511   4.797
 2013SOL    HW2 6058   1.915   0.559   4.936
 2014SOL     OW 6059   2.677   0.572   4.049
 2014SOL    HW1 6060   2.684   0.483   4.003
 2014SOL    HW2 6061   2.583   0.606   4.041
 2015SOL     OW 6062   3.519   0.604   4.930
 2015SOL    HW1 6063   3.481   0.535   4.992
 2015SOL    HW2 6064   3.601   0.568   4.886
 2016SOL     OW 6065   2.533   0.464   4.993
 2016SOL    HW1 6066   2.499   0.375   4.963
 2016SOL    HW2 6067   2.559   0.518   4.913
 2017SOL     OW 6068   2.335   0.500   3.915
 2017SOL    HW1 6069   2.396   0.580   3.919
 2017SOL    HW2 6070   2.240   0.531   3.922
 2018SOL     OW 6071   3.164   0.855   4.033
 2018SOL    HW1 6072   3.078   0.824   4.075
 2018SOL    HW2 6073   3.160   0.841   3.934
 2019SOL     OW 6074   3.621   1.747   4.878
 2019SOL    HW1 6075   3.682   1.777   4.805
 2019SOL    HW2 6076   3.583   1.658   4.856
 2020SOL     OW 6077   1.945   1.258   4.746
 2020SOL    HW1 6078   1.940   1.257   4.846
 2020SOL    HW2 6079   1.862   1.217   4.708
 2021SOL     OW 6080   3.588   0.135   4.247
 2021SOL    HW1 6081   3.661   0.118   4.180
 2021SOL    HW2 6082   3.557   0.048   4.285
 2022SOL     OW 6083   3.250   1.573   4.201
 2022SOL    HW1 6084   3.317   1.585   4.127
 2022SOL    HW2 6085   3.210   1.662   4.224
 2023SOL     OW 6086   3.142   0.927   4.396
 2023SOL    HW1 6087   3.202   0.846   4.398
 2023SOL    HW2 6088   3.182   0.996   4.336
 2024SOL     OW 6089   2.534   1.616   3.878
 2024SOL    HW1 6090   2.543   1.626   3.779
 2024SOL    HW2 6091   2.494   1.527   3.899
 2025SOL     OW 6092   3.703   0.175   4.687
 2025SOL    HW1 6093   3.742   0.090   4.651
 2025SOL    HW2 6094   3.605   0.177   4.668
 2026SOL     OW 6095   2.125   0.326   4.444
 2026SOL    HW1 6096   2.046   0.377   4.410
 2026SOL    HW2 6097   2.116   0.311   4.542
 2027SOL     OW 6098   3.056   1.612   3.755
 2027SOL    HW1 6099   3.062   1.519   3.792
 2027SOL    HW2 6100   2.997   1.612   3.675
 2028SOL     OW 6101   2.684   1.002   5.096
 2028SOL    HW1 6102   2.724   1.001   5.004
 2028SOL    HW2 6103   2.694   1.094   5.136
 2029SOL     OW 6104   2.778   0.910   4.015
 2029SOL    HW1 6105   2.841   0.948   3.947
 2029SOL    HW2 6106   2.818   0.827   4.054
 2030SOL     OW 6107   3.366   1.607   3.768
 2030SOL    HW1 6108   3.274   1.644   3.775
 2030SOL    HW2 6109   3.404   1.627   3.678
 2031SOL     OW 6110   2.901   1.098   4.420
 2031SOL    HW1 6111   2.831   1.051   4.474
 2031SOL    HW2 6112   2.960   1.030   4.377
 2032SOL     OW 6113   2.876   0.236   4.695
 2032SOL    HW1 6114   2.868   0.200   4.602
 2032SOL    HW2 6115   2.874   0.160   4.760
 2033SOL     OW 6116   2.452   1.487   4.215
 2033SOL    HW1 6117   2.494   1.429   4.145
 2033SOL    HW2 6118   2.408   1.566   4.171
 2034SOL     OW 6119   3.571   0.385   5.105
 2034SOL    HW1 6120   3.644   0.454   5.109
 2034SOL    HW2 6121   3.599   0.310   5.046
 2035SOL     OW 6122   2.117   1.348   4.014
 2035SOL    HW1 6123   2.021   1.349   3.987
 2035SOL    HW2 6124   2.129   1.401   4.098
 2036SOL     OW 6125   1.937   0.345   3.757
 2036SOL    HW1 6126   1.845   0.317   3.728
 2036SOL    HW2 6127   1.968   0.422   3.701
 2037SOL     OW 6128   1.934   0.166   4.042
 2037SOL    HW1 6129   1.917   0.249   3.988
 2037SOL    HW2 6130   2.024   0.129   4.020
 2038SOL     OW 6131   3.045   1.335   3.843
 2038SOL    HW1 6132   2.946   1.324   3.845
 2038SOL    HW2 6133   3.079   1.350   3.936
 2039SOL     OW 6134   3.355   1.767   4.683
 2039SOL    HW1 6135   3.388   1.831   4.614
 2039SOL    HW2 6136   3.421   1.761   4.758
 2040SOL     OW 6137   3.536   0.883   4.978
 2040SOL    HW1 6138   3.509   0.794   4.941
 2040SOL    HW2 6139   3.537   0.951   4.905
 2041SOL     OW 6140   3.087   0.325   4.173
 2041SOL    HW1 6141   3.152   0.251   4.162
 2041SOL    HW2 6142   3.107   0.375   4.257
 2042SOL     OW 6143   2.456   0.745   4.376
 2042SOL    HW1 6144   2.506   0.830   4.357
 2042SOL    HW2 6145   2.368   0.747   4.328
 2043SOL     OW 6146   2.721   1.374   3.740
 2043SOL    HW1 6147   2.675   1.389   3.828
 2043SOL    HW2 6148   2.765   1.459   3.710
 2044SOL     OW 6149   2.523   1.790   4.677
 2044SOL    HW1 6150   2.477   1.878   4.664
 2044SOL    HW2 6151   2.622   1.802   4.670
 2045SOL     OW 6152   2.721   0.956   4.585
 2045SOL    HW1 6153   2.775   0.887   4.633
 2045SOL    HW2 6154   2.689   1.025   4.651
 2046SOL     OW 6155   2.945   0.984   3.811
 2046SOL    HW1 6156   2.922   1.037   3.729
 2046SOL    HW2 6157   3.026   0.928   3.792
 2047SOL     OW 6158   3.723   1.569   4.575
 2047SOL    HW1 6159   3.652   1.557   4.505
 2047SOL    HW2 6160   3.724   1.490   4.635
 2048SOL     OW 6161   1.941   1.240   4.377
 2048SOL    HW1 6162   1.940   1.193   4.465
 2048SOL    HW2 6163   2.023   1.212   4.326
 2049SOL     OW 6164   3.686   0.192   4.951
 2049SOL    HW1 6165   3.682   0.102   4.995
 2049SOL    HW2 6166   3.689   0.181   4.852
 2050SOL     OW 6167   2.290   0.424   4.244
 2050SOL    HW1 6168   2.320   0.352   4.182
 2050SOL    HW2 6169   2.251   0.384   4.327
 2051SOL     OW 6170   3.567   1.487   4.828
 2051SOL    HW1 6171   3.474   1.462   4.801
 2051SOL    HW2 6172   3.593   1.437   4.910
 2052SOL     OW 6173   2.674   1.586   4.411
 2052SOL    HW1 6174   2.706   1.596   4.317
 2052SOL    HW2 6175   2.595   1.524   4.413
 2053SOL     OW 6176   3.286   0.214   4.836
 2053SOL    HW1 6177   3.338   0.149   4.891
 2053SOL    HW2 6178   3.237   0.277   4.897
 2054SOL     OW 6179   2.632   1.330   4.025
 2054SOL    HW1 6180   2.586   1.243   4.042
 2054SOL    HW2 6181   2.723   1.327   4.066
 2055SOL     OW 6182   3.214   0.052   3.892
 2055SOL    HW1 6183   3.249   0.011   3.808
 2055SOL    HW2 6184   3.124   0.014   3.912
 2056SOL     OW 6185   3.162   0.453   4.415
 2056SOL    HW1 6186   3.103   0.533   4.419
 2056SOL    HW2 6187   3.177   0.418   4.508
 2057SOL     OW 6188   3.455   0.221   4.606
 2057SOL    HW1 6189   3.371   0.220   4.660
 2057SOL    HW2 6190   3.457   0.304   4.550
 2058SOL     OW 6191   1.901   1.077   4.024
 2058SOL    HW1 6192   2.000   1.066   4.015
 2058SOL    HW2 6193   1.861   0.991   4.056
 2059SOL     OW 6194   2.737   1.646   4.061
 2059SOL    HW1 6195   2.660   1.611   4.007
 2059SOL    HW2 6196   2.705   1.717   4.123
 2060SOL     OW 6197   2.092   2.490   0.113
 2060SOL    HW1 6198   1.999   2.488   0.150
 2060SOL    HW2 6199   2.093   2.451   0.021
 2061SOL     OW 6200   2.087   2.137   0.996
 2061SOL    HW1 6201   2.122   2.120   1.088
 2061SOL    HW2 6202   1.999   2.092   0.984
 2062SOL     OW 6203   1.881   2.230   0.647
 2062SOL    HW1 6204   1.799   2.273   0.686
 2062SOL    HW2 6205   1.853   2.157   0.584
 2063SOL     OW 6206   2.431   3.137   1.165
 2063SOL    HW1 6207   2.338   3.130   1.128
 2063SOL    HW2 6208   2.442   3.226   1.209
 2064SOL     OW 6209   3.417   3.373   0.703
 2064SOL    HW1 6210   3.360   3.357   0.784
 2064SOL    HW2 6211   3.358   3.383   0.623
 2065SOL     OW 6212   2.997   2.565   0.717
 2065SOL    HW1 6213   3.054   2.643   0.692
 2065SOL    HW2 6214   2.937   2.591   0.793
 2066SOL     OW 6215   3.617   2.469   0.231
 2066SOL    HW1 6216   3.605   2.456   0.132
 2066SOL    HW2 6217   3.587   2.388   0.280
 2067SOL     OW 6218   2.630   3.006   1.023
 2067SOL    HW1 6219   2.552   3.023   1.083
 2067SOL    HW2 6220   2.664   3.093   0.987
 2068SOL     OW 6221   2.712   2.660   1.823
 2068SOL    HW1 6222   2.708   2.736   1.888
 2068SOL    HW2 6223   2.734   2.696   1.732
 2069SOL     OW 6224   2.547   2.874   0.665
 2069SOL    HW1 6225   2.616   2.858   0.735
 2069SOL    HW2 6226   2.474   2.931   0.703
 2070SOL     OW 6227   2.548   3.023   1.803
 2070SOL    HW1 6228   2.608   3.102   1.817
 2070SOL    HW2 6229   2.462   3.054   1.762
 2071SOL     OW 6230   2.197   3.297   1.061
 2071SOL    HW1 6231   2.119   3.266   1.008
 2071SOL    HW2 6232   2.255   3.355   1.004
 2072SOL     OW 6233   3.322   3.367   1.339
 2072SOL    HW1 6234   3.346   3.461   1.365
 2072SOL    HW2 6235   3.306   3.313   1.421
 2073SOL     OW 6236   2.300   2.254   1.499
 2073SOL    HW1 6237   2.382   2.198   1.508
 2073SOL    HW2 6238   2.219   2.196   1.503
 2074SOL     OW 6239   3.465   2.309   0.737
 2074SOL    HW1 6240   3.391   2.355   0.687
 2074SOL    HW2 6241   3.516   2.377   0.790
 2075SOL     OW 6242   2.093   3.575   0.483
 2075SOL    HW1 6243   2.127   3.652   0.537
 2075SOL    HW2 6244   2.137   3.575   0.393
 2076SOL     OW 6245   2.989   3.203   1.690
 2076SOL    HW1 6246   3.036   3.203   1.778
 2076SOL    HW2 6247   2.941   3.116   1.679
 2077SOL     OW 6248   2.092   3.296   0.538
 2077SOL    HW1 6249   2.066   3.392   0.538
 2077SOL    HW2 6250   2.021   3.242   0.583
 2078SOL     OW 6251   2.102   2.953   0.886
 2078SOL    HW1 6252   2.116   2.869   0.938
 2078SOL    HW2 6253   2.047   3.017   0.941
 2079SOL     OW 6254   2.482   3.648   1.439
 2079SOL    HW1 6255   2.390   3.631   1.474
 2079SOL    HW2 6256   2.510   3.740   1.465
 2080SOL     OW 6257   2.468   2.826   0.123
 2080SOL    HW1 6258   2.475   2.910   0.069
 2080SOL    HW2 6259   2.514   2.839   0.211
 2081SOL     OW 6260   3.456   1.976   1.480
 2081SOL    HW1 6261   3.438   2.043   1.408
 2081SOL    HW2 6262   3.453   2.022   1.569
 2082SOL     OW 6263   1.984   2.505   0.563
 2082SOL    HW1 6264   1.939   2.417   0.580
 2082SOL    HW2 6265   1.983   2.559   0.647
 2083SOL     OW 6266   3.704   3.629   0.359
 2083SOL    HW1 6267   3.758   3.600   0.439
 2083SOL    HW2 6268   3.734   3.719   0.330
 2084SOL     OW 6269   1.889   3.458   0.117
 2084SOL    HW1 6270   1.870   3.362   0.138
 2084SOL    HW2 6271   1.856   3.516   0.192
 2085SOL     OW 6272   3.551   2.784   0.612
 2085SOL    HW1 6273   3.646   2.755   0.620
 2085SOL    HW2 6274   3.543   2.849   0.537
 2086SOL     OW 6275   3.503   2.970   0.432
 2086SOL    HW1 6276   3.589   2.972   0.380
 2086SOL    HW2 6277   3.517   3.017   0.520
 2087SOL     OW 6278   1.975   2.599   1.597
 2087SOL    HW1 6279   2.063   2.586   1.642
 2087SOL    HW2 6280   1.962   2.696   1.575
 2088SOL     OW 6281   2.475   3.227   0.726
 2088SOL    HW1 6282   2.426   3.140   0.735
 2088SOL    HW2 6283   2.452   3.270   0.639
 2089SOL     OW 6284   3.155   3.090   1.423
 2089SOL    HW1 6285   3.192   3.017   1.365
 2089SOL    HW2 6286   3.207   3.095   1.508
 2090SOL     OW 6287   2.671   1.866   0.502
 2090SOL    HW1 6288   2.711   1.957   0.493
 2090SOL    HW2 6289   2.571   1.874   0.508
 2091SOL     OW 6290   2.059   2.838   1.264
 2091SOL    HW1 6291   2.148   2.793   1.250
 2091SOL    HW2 6292   1.986   2.773   1.245
 2092SOL     OW 6293   3.387   2.861   0.190
 2092SOL    HW1 6294   3.324   2.785   0.203
 2092SOL    HW2 6295   3.435   2.879   0.276
 2093SOL     OW 6296   3.049   3.654   1.616
 2093SOL    HW1 6297   3.073   3.714   1.540
 2093SOL    HW2 6298   3.056   3.559   1.586
 2094SOL     OW 6299   2.179   2.113   1.801
 2094SOL    HW1 6300   2.250   2.184   1.807
 2094SOL    HW2 6301   2.091   2.152   1.829
 2095SOL     OW 6302   3.328   3.279   0.953
 2095SOL    HW1 6303   3.269   3.285   1.033
 2095SOL    HW2 6304   3.313   3.191   0.907
 2096SOL     OW 6305   3.529   3.576   0.572
 2096SOL    HW1 6306   3.488   3.553   0.484
 2096SOL    HW2 6307   3.511   3.502   0.637
 2097SOL     OW 6308   2.460   2.591   0.270
 2097SOL    HW1 6309   2.484   2.660   0.202
 2097SOL    HW2 6310   2.382   2.624   0.324
 2098SOL     OW 6311   3.143   2.207   0.944
 2098SOL    HW1 6312   3.057   2.157   0.931
 2098SOL    HW2 6313   3.205   2.153   1.000
 2099SOL     OW 6314   3.438   3.524   0.307
 2099SOL    HW1 6315   3.527   3.570   0.310
 2099SOL    HW2 6316   3.417   3.500   0.212
 2100SOL     OW 6317   2.669   2.467   1.465
 2100SOL    HW1 6318   2.622   2.464   1.554
 2100SOL    HW2 6319   2.618   2.412   1.399
 2101SOL     OW 6320   3.256   2.331   1.674
 2101SOL    HW1 6321   3.236   2.374   1.762
 2101SOL    HW2 6322   3.334   2.269   1.683
 2102SOL     OW 6323   2.835   2.752   1.572
 2102SOL    HW1 6324   2.881   2.668   1.543
 2102SOL    HW2 6325   2.779   2.786   1.497
 2103SOL     OW 6326   2.853   2.272   1.242
 2103SOL    HW1 6327   2.776   2.306   1.296
 2103SOL    HW2 6328   2.819   2.221   1.163
 2104SOL     OW 6329   2.903   2.563   0.429
 2104SOL    HW1 6330   2.929   2.559   0.525
 2104SOL    HW2 6331   2.818   2.512   0.415
 2105SOL     OW 6332   1.938   2.673   0.789
 2105SOL    HW1 6333   2.037   2.661   0.798
 2105SOL    HW2 6334   1.914   2.768   0.810
 2106SOL     OW 6335   1.992   3.683   1.571
 2106SOL    HW1 6336   1.982   3.668   1.670
 2106SOL    HW2 6337   1.906   3.719   1.535
 2107SOL     OW 6338   2.727   2.210   0.195
 2107SOL    HW1 6339   2.786   2.273   0.146
 2107SOL    HW2 6340   2.746   2.116   0.166
 2108SOL     OW 6341   3.581   2.447   1.831
 2108SOL    HW1 6342   3.555   2.536   1.795
 2108SOL    HW2 6343   3.579   2.379   1.758
 2109SOL     OW 6344   3.224   3.006   0.545
 2109SOL    HW1 6345   3.307   2.977   0.497
 2109SOL    HW2 6346   3.175   3.073   0.489
 2110SOL     OW 6347   2.412   2.058   0.885
 2110SOL    HW1 6348   2.407   2.053   0.985
 2110SOL    HW2 6349   2.414   2.154   0.856
 2111SOL     OW 6350   2.870   3.318   0.477
 2111SOL    HW1 6351   2.824   3.390   0.425
 2111SOL    HW2 6352   2.866   3.338   0.575
 2112SOL     OW 6353   2.213   3.663   0.853
 2112SOL    HW1 6354   2.263   3.577   0.859
 2112SOL    HW2 6355   2.278   3.740   0.850
 2113SOL     OW 6356   3.657   2.928   0.873
 2113SOL    HW1 6357   3.595   2.913   0.797
 2113SOL    HW2 6358   3.605   2.939   0.958
 2114SOL     OW 6359   3.089   3.412   1.506
 2114SOL    HW1 6360   3.095   3.335   1.570
 2114SOL    HW2 6361   3.037   3.386   1.426
 2115SOL     OW 6362   2.183   2.805   0.242
 2115SOL    HW1 6363   2.265   2.844   0.200
 2115SOL    HW2 6364   2.156   2.723   0.193
 2116SOL     OW 6365   3.320   2.597   0.728
 2116SOL    HW1 6366   3.315   2.532   0.803
 2116SOL    HW2 6367   3.400   2.656   0.741
 2117SOL     OW 6368   2.323   3.128   1.727
 2117SOL    HW1 6369   2.273   3.129   1.641
 2117SOL    HW2 6370   2.260   3.110   1.803
 2118SOL     OW 6371   2.973   3.638   0.237
 2118SOL    HW1 6372   2.913   3.576   0.287
 2118SOL    HW2 6373   3.004   3.594   0.152
 2119SOL     OW 6374   2.064   2.147   1.498
 2119SOL    HW1 6375   1.984   2.207   1.485
 2119SOL    HW2 6376   2.054   2.098   1.584
 2120SOL     OW 6377   3.494   3.239   0.081
 2120SOL    HW1 6378   3.462   3.333   0.071
 2120SOL    HW2 6379   3.418   3.176   0.069
 2121SOL     OW 6380   2.326   3.605   0.323
 2121SOL    HW1 6381   2.359   3.644   0.409
 2121SOL    HW2 6382   2.402   3.598   0.258
 2122SOL     OW 6383   3.262   1.969   0.426
 2122SOL    HW1 6384   3.238   1.932   0.336
 2122SOL    HW2 6385   3.361   1.985   0.430
 2123SOL     OW 6386   2.111   3.647   1.241
 2123SOL    HW1 6387   2.168   3.582   1.291
 2123SOL    HW2 6388   2.095   3.614   1.148
 2124SOL     OW 6389   2.802   3.560   0.904
 2124SOL    HW1 6390   2.882   3.503   0.925
 2124SOL    HW2 6391   2.753   3.520   0.827
 2125SOL     OW 6392   2.244   2.562   0.480
 2125SOL    HW1 6393   2.289   2.472   0.477
 2125SOL    HW2 6394   2.150   2.551   0.513
 2126SOL     OW 6395   3.409   2.084   1.729
 2126SOL    HW1 6396   3.404   2.121   1.821
 2126SOL    HW2 6397   3.337   2.015   1.717
 2127SOL     OW 6398   2.476   1.984   0.117
 2127SOL    HW1 6399   2.574   1.962   0.124
 2127SOL    HW2 6400   2.445   1.967   0.024
 2128SOL     OW 6401   2.643   2.126   1.749
 2128SOL    HW1 6402   2.710   2.065   1.792
 2128SOL    HW2 6403   2.570   2.145   1.814
 2129SOL     OW 6404   2.750   3.376   1.195
 2129SOL    HW1 6405   2.727   3.351   1.101
 2129SOL    HW2 6406   2.811   3.307   1.234
 2130SOL     OW 6407   3.213   2.452   1.433
 2130SOL    HW1 6408   3.241   2.409   1.518
 2130SOL    HW2 6409   3.238   2.548   1.434
 2131SOL     OW 6410   2.665   3.264   0.924
 2131SOL    HW1 6411   2.755   3.278   0.882
 2131SOL    HW2 6412   2.594   3.266   0.853
 2132SOL     OW 6413   2.784   2.365   0.899
 2132SOL    HW1 6414   2.759   2.356   0.803
 2132SOL    HW2 6415   2.832   2.283   0.930
 2133SOL     OW 6416   2.401   1.926   0.512
 2133SOL    HW1 6417   2.320   1.927   0.570
 2133SOL    HW2 6418   2.404   2.009   0.457
 2134SOL     OW 6419   3.296   3.050   0.041
 2134SOL    HW1 6420   3.328   2.974   0.098
 2134SOL    HW2 6421   3.204   3.077   0.071
 2135SOL     OW 6422   2.159   1.897   0.171
 2135SOL    HW1 6423   2.208   1.981   0.150
 2135SOL    HW2 6424   2.221   1.832   0.216
 2136SOL     OW 6425   2.797   2.098   0.480
 2136SOL    HW1 6426   2.749   2.139   0.402
 2136SOL    HW2 6427   2.896   2.096   0.461
 2137SOL     OW 6428   2.938   2.545   1.464
 2137SOL    HW1 6429   2.858   2.484   1.467
 2137SOL    HW2 6430   3.019   2.492   1.440
 2138SOL     OW 6431   3.089   3.432   0.793
 2138SOL    HW1 6432   3.110   3.506   0.728
 2138SOL    HW2 6433   3.157   3.432   0.866
 2139SOL     OW 6434   2.321   3.014   0.741
 2139SOL    HW1 6435   2.250   2.987   0.806
 2139SOL    HW2 6436   2.295   2.986   0.648
 2140SOL     OW 6437   3.133   3.659   0.591
 2140SOL    HW1 6438   3.177   3.723   0.527
 2140SOL    HW2 6439   3.083   3.711   0.661
 2141SOL     OW 6440   2.894   2.411   0.016
 2141SOL    HW1 6441   2.853   2.493  -0.023
 2141SOL    HW2 6442   2.958   2.437   0.089
 2142SOL     OW 6443   1.940   2.418   1.386
 2142SOL    HW1 6444   2.032   2.417   1.345
 2142SOL    HW2 6445   1.934   2.492   1.453
 2143SOL     OW 6446   2.423   2.084   1.147
 2143SOL    HW1 6447   2.461   2.000   1.184
 2143SOL    HW2 6448   2.335   2.103   1.191
 2144SOL     OW 6449   2.728   2.316   0.642
 2144SOL    HW1 6450   2.696   2.388   0.580
 2144SOL    HW2 6451   2.752   2.235   0.589
 2145SOL     OW 6452   2.879   1.901   0.753
 2145SOL    HW1 6453   2.807   1.906   0.684
 2145SOL    HW2 6454   2.855   1.832   0.822
 2146SOL     OW 6455   3.291   3.035   0.867
 2146SOL    HW1 6456   3.236   2.951   0.860
 2146SOL    HW2 6457   3.317   3.064   0.775
 2147SOL     OW 6458   3.328   2.452   0.992
 2147SOL    HW1 6459   3.298   2.357   0.999
 2147SOL    HW2 6460   3.401   2.468   1.058
 2148SOL     OW 6461   3.719   2.695   0.377
 2148SOL    HW1 6462   3.761   2.631   0.441
 2148SOL    HW2 6463   3.681   2.644   0.299
 2149SOL     OW 6464   2.350   3.247   0.174
 2149SOL    HW1 6465   2.263   3.232   0.221
 2149SOL    HW2 6466   2.333   3.273   0.079
 2150SOL     OW 6467   3.526   3.142   0.657
 2150SOL    HW1 6468   3.625   3.150   0.671
 2150SOL    HW2 6469   3.481   3.226   0.688
 2151SOL     OW 6470   3.252   2.437   0.078
 2151SOL    HW1 6471   3.198   2.416   0.159
 2151SOL    HW2 6472   3.343   2.396   0.087
 2152SOL     OW 6473   2.389   2.118   0.328
 2152SOL    HW1 6474   2.416   2.059   0.253
 2152SOL    HW2 6475   2.389   2.213   0.297
 2153SOL     OW 6476   3.616   3.085   1.588
 2153SOL    HW1 6477   3.707   3.046   1.575
 2153SOL    HW2 6478   3.624   3.181   1.612
 2154SOL     OW 6479   2.926   3.209   1.340
 2154SOL    HW1 6480   2.846   3.186   1.395
 2154SOL    HW2 6481   3.009   3.183   1.389
 2155SOL     OW 6482   3.454   3.491   1.625
 2155SOL    HW1 6483   3.481   3.525   1.535
 2155SOL    HW2 6484   3.533   3.453   1.671
 2156SOL     OW 6485   2.973   3.057   1.100
 2156SOL    HW1 6486   2.933   3.101   1.181
 2156SOL    HW2 6487   2.932   3.094   1.017
 2157SOL     OW 6488   3.500   2.961   1.079
 2157SOL    HW1 6489   3.505   3.042   1.138
 2157SOL    HW2 6490   3.414   2.963   1.028
 2158SOL     OW 6491   2.777   1.951   1.402
 2158SOL    HW1 6492   2.802   1.931   1.307
 2158SOL    HW2 6493   2.849   2.007   1.444
 2159SOL     OW 6494   2.842   2.978   1.719
 2159SOL    HW1 6495   2.743   2.984   1.729
 2159SOL    HW2 6496   2.865   2.898   1.663
 2160SOL     OW 6497   2.567   2.912   0.368
 2160SOL    HW1 6498   2.553   2.919   0.467
 2160SOL    HW2 6499   2.651   2.861   0.350
 2161SOL     OW 6500   2.272   2.675   1.251
 2161SOL    HW1 6501   2.358   2.687   1.301
 2161SOL    HW2 6502   2.230   2.588   1.278
 2162SOL     OW 6503   3.136   2.248   1.262
 2162SOL    HW1 6504   3.157   2.322   1.326
 2162SOL    HW2 6505   3.047   2.265   1.219
 2163SOL     OW 6506   1.926   3.426   1.331
 2163SOL    HW1 6507   1.880   3.508   1.297
 2163SOL    HW2 6508   2.024   3.445   1.340
 2164SOL     OW 6509   2.229   2.962   0.501
 2164SOL    HW1 6510   2.222   3.045   0.445
 2164SOL    HW2 6511   2.233   2.882   0.441
 2165SOL     OW 6512   2.428   2.399   0.865
 2165SOL    HW1 6513   2.440   2.465   0.791
 2165SOL    HW2 6514   2.474   2.433   0.948
 2166SOL     OW 6515   3.114   3.210   0.388
 2166SOL    HW1 6516   3.164   3.287   0.428
 2166SOL    HW2 6517   3.019   3.212   0.420
 2167SOL     OW 6518   3.134   3.307   1.142
 2167SOL    HW1 6519   3.181   3.320   1.229
 2167SOL    HW2 6520   3.068   3.233   1.151
 2168SOL     OW 6521   3.444   2.501   0.472
 2168SOL    HW1 6522   3.413   2.562   0.545
 2168SOL    HW2 6523   3.494   2.553   0.403
 2169SOL     OW 6524   2.216   3.372   1.329
 2169SOL    HW1 6525   2.195   3.328   1.242
 2169SOL    HW2 6526   2.313   3.398   1.332
 2170SOL     OW 6527   2.264   2.613   1.598
 2170SOL    HW1 6528   2.332   2.668   1.551
 2170SOL    HW2 6529   2.304   2.525   1.625
 2171SOL     OW 6530   3.449   2.641   1.670
 2171SOL    HW1 6531   3.357   2.679   1.665
 2171SOL    HW2 6532   3.509   2.688   1.605
 2172SOL     OW 6533   2.875   1.967   1.770
 2172SOL    HW1 6534   2.881   2.052   1.718
 2172SOL    HW2 6535   2.907   1.891   1.713
 2173SOL     OW 6536   2.366   1.912   1.740
 2173SOL    HW1 6537   2.324   1.855   1.670
 2173SOL    HW2 6538   2.300   1.981   1.772
 2174SOL     OW 6539   2.435   2.732   1.029
 2174SOL    HW1 6540   2.479   2.821   1.020
 2174SOL    HW2 6541   2.372   2.732   1.106
 2175SOL     OW 6542   3.222   2.724   1.045
 2175SOL    HW1 6543   3.147   2.724   0.979
 2175SOL    HW2 6544   3.259   2.632   1.054
 2176SOL     OW 6545   3.071   2.387   0.275
 2176SOL    HW1 6546   3.084   2.303   0.329
 2176SOL    HW2 6547   3.042   2.461   0.335
 2177SOL     OW 6548   2.169   2.075   1.231
 2177SOL    HW1 6549   2.146   2.112   1.321
 2177SOL    HW2 6550   2.139   1.980   1.225
 2178SOL     OW 6551   1.899   3.172   1.282
 2178SOL    HW1 6552   1.952   3.123   1.350
 2178SOL    HW2 6553   1.921   3.270   1.287
 2179SOL     OW 6554   2.594   2.496   1.064
 2179SOL    HW1 6555   2.653   2.470   0.988
 2179SOL    HW2 6556   2.566   2.592   1.053
 2180SOL     OW 6557   3.590   2.797   1.854
 2180SOL    HW1 6558   3.544   2.790   1.765
 2180SOL    HW2 6559   3.528   2.841   1.920
 2181SOL     OW 6560   2.169   1.925   0.618
 2181SOL    HW1 6561   2.158   2.019   0.651
 2181SOL    HW2 6562   2.164   1.862   0.695
 2182SOL     OW 6563   3.484   2.229   0.374
 2182SOL    HW1 6564   3.486   2.153   0.438
 2182SOL    HW2 6565   3.436   2.306   0.414
 2183SOL     OW 6566   2.885   2.628   0.966
 2183SOL    HW1 6567   2.900   2.649   1.062
 2183SOL    HW2 6568   2.855   2.533   0.957
 2184SOL     OW 6569   2.842   3.435   1.700
 2184SOL    HW1 6570   2.822   3.479   1.612
 2184SOL    HW2 6571   2.881   3.344   1.684
 2185SOL     OW 6572   3.721   3.380   1.605
 2185SOL    HW1 6573   3.735   3.407   1.510
 2185SOL    HW2 6574   3.804   3.402   1.658
 2186SOL     OW 6575   2.212   2.760   1.804
 2186SOL    HW1 6576   2.288   2.804   1.852
 2186SOL    HW2 6577   2.247   2.713   1.722
 2187SOL     OW 6578   3.402   2.136   0.125
 2187SOL    HW1 6579   3.341   2.061   0.148
 2187SOL    HW2 6580   3.424   2.188   0.208
 2188SOL     OW 6581   3.165   2.700   0.042
 2188SOL    HW1 6582   3.199   2.607   0.057
 2188SOL    HW2 6583   3.183   2.727  -0.053
 2189SOL     OW 6584   2.930   3.195   0.849
 2189SOL    HW1 6585   2.937   3.111   0.794
 2189SOL    HW2 6586   2.992   3.264   0.813
 2190SOL     OW 6587   2.181   2.672   0.949
 2190SOL    HW1 6588   2.274   2.708   0.954
 2190SOL    HW2 6589   2.175   2.587   1.001
 2191SOL     OW 6590   2.201   2.371   1.006
 2191SOL    HW1 6591   2.149   2.288   0.989
 2191SOL    HW2 6592   2.278   2.376   0.942
 2192SOL     OW 6593   3.000   2.242   1.678
 2192SOL    HW1 6594   2.955   2.305   1.742
 2192SOL    HW2 6595   3.093   2.273   1.661
 2193SOL     OW 6596   3.022   2.069   1.477
 2193SOL    HW1 6597   3.022   2.133   1.554
 2193SOL    HW2 6598   3.050   2.117   1.394
 2194SOL     OW 6599   1.870   3.188   0.200
 2194SOL    HW1 6600   1.777   3.209   0.169
 2194SOL    HW2 6601   1.880   3.089   0.213
 2195SOL     OW 6602   1.950   3.663   0.927
 2195SOL    HW1 6603   1.908   3.577   0.900
 2195SOL    HW2 6604   2.044   3.666   0.893
 2196SOL     OW 6605   2.366   3.430   0.910
 2196SOL    HW1 6606   2.432   3.504   0.919
 2196SOL    HW2 6607   2.410   3.351   0.868
 2197SOL     OW 6608   2.864   2.658   1.238
 2197SOL    HW1 6609   2.905   2.626   1.324
 2197SOL    HW2 6610   2.768   2.631   1.235
 2198SOL     OW 6611   1.902   2.406   1.114
 2198SOL    HW1 6612   1.987   2.373   1.073
 2198SOL    HW2 6613   1.915   2.421   1.212
 2199SOL     OW 6614   2.051   2.382   1.722
 2199SOL    HW1 6615   2.110   2.342   1.652
 2199SOL    HW2 6616   1.993   2.453   1.681
 2200SOL     OW 6617   3.231   2.812   1.660
 2200SOL    HW1 6618   3.270   2.901   1.680
 2200SOL    HW2 6619   3.241   2.792   1.563
 2201SOL     OW 6620   2.677   2.434   0.325
 2201SOL    HW1 6621   2.684   2.345   0.279
 2201SOL    HW2 6622   2.583   2.468   0.317
 2202SOL     OW 6623   3.519   2.466   1.206
 2202SOL    HW1 6624   3.481   2.397   1.268
 2202SOL    HW2 6625   3.601   2.430   1.162
 2203SOL     OW 6626   2.114   3.426   1.744
 2203SOL    HW1 6627   2.084   3.483   1.820
 2203SOL    HW2 6628   2.107   3.329   1.770
 2204SOL     OW 6629   2.533   2.326   1.269
 2204SOL    HW1 6630   2.499   2.237   1.239
 2204SOL    HW2 6631   2.559   2.380   1.189
 2205SOL     OW 6632   2.792   3.540   1.465
 2205SOL    HW1 6633   2.768   3.522   1.370
 2205SOL    HW2 6634   2.822   3.634   1.475
 2206SOL     OW 6635   2.335   2.362   0.191
 2206SOL    HW1 6636   2.396   2.442   0.195
 2206SOL    HW2 6637   2.240   2.393   0.198
 2207SOL     OW 6638   2.021   2.999   1.466
 2207SOL    HW1 6639   2.043   2.938   1.542
 2207SOL    HW2 6640   2.031   2.950   1.380
 2208SOL     OW 6641   3.209   2.921   1.234
 2208SOL    HW1 6642   3.233   2.858   1.160
 2208SOL    HW2 6643   3.119   2.961   1.216
 2209SOL     OW 6644   3.164   2.717   0.309
 2209SOL    HW1 6645   3.078   2.686   0.351
 2209SOL    HW2 6646   3.160   2.703   0.210
 2210SOL     OW 6647   3.621   3.609   1.154
 2210SOL    HW1 6648   3.682   3.639   1.081
 2210SOL    HW2 6649   3.583   3.520   1.132
 2211SOL     OW 6650   3.114   3.593   1.128
 2211SOL    HW1 6651   3.198   3.598   1.074
 2211SOL    HW2 6652   3.091   3.497   1.146
 2212SOL     OW 6653   1.945   3.120   1.022
 2212SOL    HW1 6654   1.940   3.119   1.122
 2212SOL    HW2 6655   1.862   3.079   0.984
 2213SOL     OW 6656   2.550   3.524   1.716
 2213SOL    HW1 6657   2.494   3.605   1.725
 2213SOL    HW2 6658   2.602   3.528   1.630
 2214SOL     OW 6659   2.765   1.948   0.133
 2214SOL    HW1 6660   2.816   1.949   0.047
 2214SOL    HW2 6661   2.821   1.906   0.204
 2215SOL     OW 6662   3.588   1.997   0.523
 2215SOL    HW1 6663   3.661   1.980   0.456
 2215SOL    HW2 6664   3.557   1.910   0.561
 2216SOL     OW 6665   3.250   3.435   0.477
 2216SOL    HW1 6666   3.317   3.447   0.403
 2216SOL    HW2 6667   3.210   3.524   0.500
 2217SOL     OW 6668   1.992   3.656   1.851
 2217SOL    HW1 6669   1.951   3.582   1.904
 2217SOL    HW2 6670   2.056   3.707   1.909
 2218SOL     OW 6671   3.142   2.789   0.672
 2218SOL    HW1 6672   3.202   2.708   0.674
 2218SOL    HW2 6673   3.182   2.858   0.612
 2219SOL     OW 6674   2.692   3.135   1.422
 2219SOL    HW1 6675   2.687   3.168   1.517
 2219SOL    HW2 6676   2.606   3.154   1.376
 2220SOL     OW 6677   2.534   3.478   0.154
 2220SOL    HW1 6678   2.543   3.488   0.055
 2220SOL    HW2 6679   2.494   3.389   0.175
 2221SOL     OW 6680   3.512   3.582   1.394
 2221SOL    HW1 6681   3.565   3.592   1.310
 2221SOL    HW2 6682   3.485   3.672   1.428
 2222SOL     OW 6683   3.703   2.037   0.963
 2222SOL    HW1 6684   3.742   1.952   0.927
 2222SOL    HW2 6685   3.605   2.039   0.944
 2223SOL     OW 6686   2.125   2.188   0.720
 2223SOL    HW1 6687   2.046   2.239   0.686
 2223SOL    HW2 6688   2.116   2.173   0.818
 2224SOL     OW 6689   3.056   3.474   0.031
 2224SOL    HW1 6690   3.062   3.381   0.068
 2224SOL    HW2 6691   2.997   3.474  -0.049
 2225SOL     OW 6692   2.684   2.864   1.372
 2225SOL    HW1 6693   2.724   2.863   1.280
 2225SOL    HW2 6694   2.694   2.956   1.412
 2226SOL     OW 6695   2.778   2.772   0.291
 2226SOL    HW1 6696   2.841   2.810   0.223
 2226SOL    HW2 6697   2.818   2.689   0.330
 2227SOL     OW 6698   3.366   3.469   0.044
 2227SOL    HW1 6699   3.274   3.506   0.051
 2227SOL    HW2 6700   3.404   3.489  -0.046
 2228SOL     OW 6701   2.234   3.150   1.490
 2228SOL    HW1 6702   2.221   3.243   1.456
 2228SOL    HW2 6703   2.150   3.098   1.477
 2229SOL     OW 6704   3.476   3.154   1.289
 2229SOL    HW1 6705   3.536   3.157   1.369
 2229SOL    HW2 6706   3.401   3.218   1.302
 2230SOL     OW 6707   2.901   2.960   0.696
 2230SOL    HW1 6708   2.831   2.913   0.750
 2230SOL    HW2 6709   2.960   2.892   0.653
 2231SOL     OW 6710   2.876   2.098   0.971
 2231SOL    HW1 6711   2.868   2.062   0.878
 2231SOL    HW2 6712   2.874   2.022   1.036
 2232SOL     OW 6713   2.452   3.349   0.491
 2232SOL    HW1 6714   2.494   3.291   0.421
 2232SOL    HW2 6715   2.408   3.428   0.447
 2233SOL     OW 6716   3.571   2.247   1.381
 2233SOL    HW1 6717   3.644   2.316   1.385
 2233SOL    HW2 6718   3.599   2.172   1.322
 2234SOL     OW 6719   2.117   3.210   0.290
 2234SOL    HW1 6720   2.021   3.211   0.263
 2234SOL    HW2 6721   2.129   3.263   0.374
 2235SOL     OW 6722   1.967   2.875   1.726
 2235SOL    HW1 6723   1.890   2.842   1.780
 2235SOL    HW2 6724   2.052   2.845   1.768
 2236SOL     OW 6725   2.534   2.065   1.489
 2236SOL    HW1 6726   2.624   2.049   1.449
 2236SOL    HW2 6727   2.542   2.070   1.588
 2237SOL     OW 6728   3.302   2.718   1.398
 2237SOL    HW1 6729   3.245   2.770   1.335
 2237SOL    HW2 6730   3.398   2.730   1.374
 2238SOL     OW 6731   1.934   2.028   0.318
 2238SOL    HW1 6732   1.917   2.111   0.264
 2238SOL    HW2 6733   2.024   1.991   0.296
 2239SOL     OW 6734   3.045   3.197   0.119
 2239SOL    HW1 6735   2.946   3.186   0.121
 2239SOL    HW2 6736   3.079   3.212   0.212
 2240SOL     OW 6737   2.475   2.704   1.431
 2240SOL    HW1 6738   2.531   2.785   1.414
 2240SOL    HW2 6739   2.534   2.624   1.434
 2241SOL     OW 6740   3.355   3.629   0.959
 2241SOL    HW1 6741   3.388   3.693   0.890
 2241SOL    HW2 6742   3.421   3.623   1.034
 2242SOL     OW 6743   2.578   2.427   1.708
 2242SOL    HW1 6744   2.597   2.492   1.782
 2242SOL    HW2 6745   2.638   2.347   1.717
 2243SOL     OW 6746   3.312   3.082   1.633
 2243SOL    HW1 6747   3.303   3.072   1.732
 2243SOL    HW2 6748   3.408   3.075   1.607
 2244SOL     OW 6749   2.252   3.603   1.560
 2244SOL    HW1 6750   2.161   3.644   1.558
 2244SOL    HW2 6751   2.245   3.509   1.592
 2245SOL     OW 6752   3.536   2.745   1.254
 2245SOL    HW1 6753   3.509   2.656   1.217
 2245SOL    HW2 6754   3.537   2.813   1.181
 2246SOL     OW 6755   3.087   2.187   0.449
 2246SOL    HW1 6756   3.152   2.113   0.438
 2246SOL    HW2 6757   3.107   2.237   0.533
 2247SOL     OW 6758   2.456   2.607   0.652
 2247SOL    HW1 6759   2.506   2.692   0.633
 2247SOL    HW2 6760   2.368   2.609   0.604
 2248SOL     OW 6761   3.639   2.204   1.642
 2248SOL    HW1 6762   3.622   2.235   1.548
 2248SOL    HW2 6763   3.555   2.167   1.680
 2249SOL     OW 6764   3.592   2.796   1.517
 2249SOL    HW1 6765   3.630   2.887   1.532
 2249SOL    HW2 6766   3.584   2.779   1.418
 2250SOL     OW 6767   2.721   3.236   0.016
 2250SOL    HW1 6768   2.675   3.251   0.104
 2250SOL    HW2 6769   2.765   3.321  -0.014
 2251SOL     OW 6770   2.523   3.652   0.953
 2251SOL    HW1 6771   2.477   3.740   0.940
 2251SOL    HW2 6772   2.622   3.664   0.946
 2252SOL     OW 6773   2.721   2.818   0.861
 2252SOL    HW1 6774   2.775   2.749   0.909
 2252SOL    HW2 6775   2.689   2.887   0.927
 2253SOL     OW 6776   2.945   2.846   0.087
 2253SOL    HW1 6777   2.922   2.899   0.005
 2253SOL    HW2 6778   3.026   2.790   0.068
 2254SOL     OW 6779   3.723   3.431   0.851
 2254SOL    HW1 6780   3.652   3.419   0.781
 2254SOL    HW2 6781   3.724   3.352   0.911
 2255SOL     OW 6782   2.083   3.176   1.844
 2255SOL    HW1 6783   2.018   3.103   1.823
 2255SOL    HW2 6784   2.087   3.190   1.942
 2256SOL     OW 6785   1.941   3.102   0.653
 2256SOL    HW1 6786   1.940   3.055   0.741
 2256SOL    HW2 6787   2.023   3.074   0.602
 2257SOL     OW 6788   2.534   3.253   1.624
 2257SOL    HW1 6789   2.456   3.203   1.662
 2257SOL    HW2 6790   2.531   3.348   1.655
 2258SOL     OW 6791   3.686   2.054   1.227
 2258SOL    HW1 6792   3.682   1.964   1.271
 2258SOL    HW2 6793   3.689   2.043   1.128
 2259SOL     OW 6794   2.290   2.286   0.520
 2259SOL    HW1 6795   2.320   2.214   0.458
 2259SOL    HW2 6796   2.251   2.246   0.603
 2260SOL     OW 6797   3.567   3.349   1.104
 2260SOL    HW1 6798   3.474   3.324   1.077
 2260SOL    HW2 6799   3.593   3.299   1.186
 2261SOL     OW 6800   2.179   2.409   1.280
 2261SOL    HW1 6801   2.217   2.350   1.352
 2261SOL    HW2 6802   2.219   2.383   1.192
 2262SOL     OW 6803   2.674   3.448   0.687
 2262SOL    HW1 6804   2.706   3.458   0.593
 2262SOL    HW2 6805   2.595   3.386   0.689
 2263SOL     OW 6806   3.286   2.076   1.112
 2263SOL    HW1 6807   3.338   2.011   1.167
 2263SOL    HW2 6808   3.237   2.139   1.173
 2264SOL     OW 6809   2.863   1.896   1.154
 2264SOL    HW1 6810   2.800   1.824   1.123
 2264SOL    HW2 6811   2.956   1.860   1.154
 2265SOL     OW 6812   2.632   3.192   0.301
 2265SOL    HW1 6813   2.586   3.105   0.318
 2265SOL    HW2 6814   2.723   3.189   0.342
 2266SOL     OW 6815   2.480   3.429   1.284
 2266SOL    HW1 6816   2.475   3.511   1.341
 2266SOL    HW2 6817   2.569   3.426   1.239
 2267SOL     OW 6818   3.214   1.914   0.168
 2267SOL    HW1 6819   3.249   1.873   0.084
 2267SOL    HW2 6820   3.124   1.876   0.188
 2268SOL     OW 6821   3.162   2.315   0.691
 2268SOL    HW1 6822   3.103   2.395   0.695
 2268SOL    HW2 6823   3.177   2.280   0.784
 2269SOL     OW 6824   3.455   2.083   0.882
 2269SOL    HW1 6825   3.371   2.082   0.936
 2269SOL    HW2 6826   3.457   2.166   0.826
 2270SOL     OW 6827   1.901   2.939   0.300
 2270SOL    HW1 6828   2.000   2.928   0.291
 2270SOL    HW2 6829   1.861   2.853   0.332
 2271SOL     OW 6830   2.737   3.508   0.337
 2271SOL    HW1 6831   2.660   3.473   0.283
 2271SOL    HW2 6832   2.705   3.579   0.399
 2272SOL     OW 6833   2.092   2.490   1.975
 2272SOL    HW1 6834   1.999   2.488   2.012
 2272SOL    HW2 6835   2.093   2.451   1.883
 2273SOL     OW 6836   2.087   2.137   2.858
 2273SOL    HW1 6837   2.122   2.120   2.950
 2273SOL    HW2 6838   1.999   2.092   2.846
 2274SOL     OW 6839   1.881   2.230   2.509
 2274SOL    HW1 6840   1.799   2.273   2.548
 2274SOL    HW2 6841   1.853   2.157   2.446
 2275SOL     OW 6842   2.431   3.137   3.027
 2275SOL    HW1 6843   2.338   3.130   2.990
 2275SOL    HW2 6844   2.442   3.226   3.071
 2276SOL     OW 6845   3.417   3.373   2.565
 2276SOL    HW1 6846   3.360   3.357   2.646
 2276SOL    HW2 6847   3.358   3.383   2.485
 2277SOL     OW 6848   2.997   2.565   2.579
 2277SOL    HW1 6849   3.054   2.643   2.554
 2277SOL    HW2 6850   2.937   2.591   2.655
 2278SOL     OW 6851   3.617   2.469   2.093
 2278SOL    HW1 6852   3.605   2.456   1.994
 2278SOL    HW2 6853   3.587   2.388   2.142
 2279SOL     OW 6854   2.630   3.006   2.885
 2279SOL    HW1 6855   2.552   3.023   2.945
 2279SOL    HW2 6856   2.664   3.093   2.849
 2280SOL     OW 6857   2.712   2.660   3.685
 2280SOL    HW1 6858   2.708   2.736   3.750
 2280SOL    HW2 6859   2.734   2.696   3.594
 2281SOL     OW 6860   2.547   2.874   2.527
 2281SOL    HW1 6861   2.616   2.858   2.597
 2281SOL    HW2 6862   2.474   2.931   2.565
 2282SOL     OW 6863   2.548   3.023   3.665
 2282SOL    HW1 6864   2.608   3.102   3.679
 2282SOL    HW2 6865   2.462   3.054   3.624
 2283SOL     OW 6866   2.197   3.297   2.923
 2283SOL    HW1 6867   2.119   3.266   2.870
 2283SOL    HW2 6868   2.255   3.355   2.866
 2284SOL     OW 6869   3.322   3.367   3.201
 2284SOL    HW1 6870   3.346   3.461   3.227
 2284SOL    HW2 6871   3.306   3.313   3.283
 2285SOL     OW 6872   2.300   2.254   3.361
 2285SOL    HW1 6873   2.382   2.198   3.370
 2285SOL    HW2 6874   2.219   2.196   3.365
 2286SOL     OW 6875   3.465   2.309   2.599
 2286SOL    HW1 6876   3.391   2.355   2.549
 2286SOL    HW2 6877   3.516   2.377   2.652
 2287SOL     OW 6878   2.093   3.575   2.345
 2287SOL    HW1 6879   2.127   3.652   2.399
 2287SOL    HW2 6880   2.137   3.575   2.255
 2288SOL     OW 6881   2.989   3.203   3.552
 2288SOL    HW1 6882   3.036   3.203   3.640
 2288SOL    HW2 6883   2.941   3.116   3.541
 2289SOL     OW 6884   2.092   3.296   2.400
 2289SOL    HW1 6885   2.066   3.392   2.400
 2289SOL    HW2 6886   2.021   3.242   2.445
 2290SOL     OW 6887   2.102   2.953   2.748
 2290SOL    HW1 6888   2.116   2.869   2.800
 2290SOL    HW2 6889   2.047   3.017   2.803
 2291SOL     OW 6890   2.482   3.648   3.301
 2291SOL    HW1 6891   2.390   3.631   3.336
 2291SOL    HW2 6892   2.510   3.740   3.327
 2292SOL     OW 6893   2.468   2.826   1.985
 2292SOL    HW1 6894   2.475   2.910   1.931
 2292SOL    HW2 6895   2.514   2.839   2.073
 2293SOL     OW 6896   3.456   1.976   3.342
 2293SOL    HW1 6897   3.438   2.043   3.270
 2293SOL    HW2 6898   3.453   2.022   3.431
 2294SOL     OW 6899   1.984   2.505   2.425
 2294SOL    HW1 6900   1.939   2.417   2.442
 2294SOL    HW2 6901   1.983   2.559   2.509
 2295SOL     OW 6902   3.704   3.629   2.221
 2295SOL    HW1 6903   3.758   3.600   2.301
 2295SOL    HW2 6904   3.734   3.719   2.192
 2296SOL     OW 6905   1.889   3.458   1.979
 2296SOL    HW1 6906   1.870   3.362   2.000
 2296SOL    HW2 6907   1.856   3.516   2.054
 2297SOL     OW 6908   3.551   2.784   2.474
 2297SOL    HW1 6909   3.646   2.755   2.482
 2297SOL    HW2 6910   3.543   2.849   2.399
 2298SOL     OW 6911   3.503   2.970   2.294
 2298SOL    HW1 6912   3.589   2.972   2.242
 2298SOL    HW2 6913   3.517   3.017   2.382
 2299SOL     OW 6914   1.975   2.599   3.459
 2299SOL    HW1 6915   2.063   2.586   3.504
 2299SOL    HW2 6916   1.962   2.696   3.437
 2300SOL     OW 6917   2.475   3.227   2.588
 2300SOL    HW1 6918   2.426   3.140   2.597
 2300SOL    HW2 6919   2.452   3.270   2.501
 2301SOL     OW 6920   3.155   3.090   3.285
 2301SOL    HW1 6921   3.192   3.017   3.227
 2301SOL    HW2 6922   3.207   3.095   3.370
 2302SOL     OW 6923   2.671   1.866   2.364
 2302SOL    HW1 6924   2.711   1.957   2.355
 2302SOL    HW2 6925   2.571   1.874   2.370
 2303SOL     OW 6926   2.059   2.838   3.126
 2303SOL    HW1 6927   2.148   2.793   3.112
 2303SOL    HW2 6928   1.986   2.773   3.107
 2304SOL     OW 6929   3.387   2.861   2.052
 2304SOL    HW1 6930   3.324   2.785   2.065
 2304SOL    HW2 6931   3.435   2.879   2.138
 2305SOL     OW 6932   3.049   3.654   3.478
 2305SOL    HW1 6933   3.073   3.714   3.402
 2305SOL    HW2 6934   3.056   3.559   3.448
 2306SOL     OW 6935   2.179   2.113   3.663
 2306SOL    HW1 6936   2.250   2.184   3.669
 2306SOL    HW2 6937   2.091   2.152   3.691
 2307SOL     OW 6938   3.328   3.279   2.815
 2307SOL    HW1 6939   3.269   3.285   2.895
 2307SOL    HW2 6940   3.313   3.191   2.769
 2308SOL     OW 6941   3.529   3.576   2.434
 2308SOL    HW1 6942   3.488   3.553   2.346
 2308SOL    HW2 6943   3.511   3.502   2.499
 2309SOL     OW 6944   2.460   2.591   2.132
 2309SOL    HW1 6945   2.484   2.660   2.064
 2309SOL    HW2 6946   2.382   2.624   2.186
 2310SOL     OW 6947   3.143   2.207   2.806
 2310SOL    HW1 6948   3.057   2.157   2.793
 2310SOL    HW2 6949   3.205   2.153   2.862
 2311SOL     OW 6950   3.438   3.524   2.169
 2311SOL    HW1 6951   3.527   3.570   2.172
 2311SOL    HW2 6952   3.417   3.500   2.074
 2312SOL     OW 6953   2.669   2.467   3.327
 2312SOL    HW1 6954   2.622   2.464   3.416
 2312SOL    HW2 6955   2.618   2.412   3.261
 2313SOL     OW 6956   3.256   2.331   3.536
 2313SOL    HW1 6957   3.236   2.374   3.624
 2313SOL    HW2 6958   3.334   2.269   3.545
 2314SOL     OW 6959   2.835   2.752   3.434
 2314SOL    HW1 6960   2.881   2.668   3.405
 2314SOL    HW2 6961   2.779   2.786   3.359
 2315SOL     OW 6962   2.853   2.272   3.104
 2315SOL    HW1 6963   2.776   2.306   3.158
 2315SOL    HW2 6964   2.819   2.221   3.025
 2316SOL     OW 6965   2.903   2.563   2.291
 2316SOL    HW1 6966   2.929   2.559   2.387
 2316SOL    HW2 6967   2.818   2.512   2.277
 2317SOL     OW 6968   1.938   2.673   2.651
 2317SOL    HW1 6969   2.037   2.661   2.660
 2317SOL    HW2 6970   1.914   2.768   2.672
 2318SOL     OW 6971   1.992   3.683   3.433
 2318SOL    HW1 6972   1.982   3.668   3.532
 2318SOL    HW2 6973   1.906   3.719   3.397
 2319SOL     OW 6974   2.727   2.210   2.057
 2319SOL    HW1 6975   2.786   2.273   2.008
 2319SOL    HW2 6976   2.746   2.116   2.028
 2320SOL     OW 6977   3.581   2.447   3.693
 2320SOL    HW1 6978   3.555   2.536   3.657
 2320SOL    HW2 6979   3.579   2.379   3.620
 2321SOL     OW 6980   3.224   3.006   2.407
 2321SOL    HW1 6981   3.307   2.977   2.359
 2321SOL    HW2 6982   3.175   3.073   2.351
 2322SOL     OW 6983   2.412   2.058   2.747
 2322SOL    HW1 6984   2.407   2.053   2.847
 2322SOL    HW2 6985   2.414   2.154   2.718
 2323SOL     OW 6986   2.870   3.318   2.339
 2323SOL    HW1 6987   2.824   3.390   2.287
 2323SOL    HW2 6988   2.866   3.338   2.437
 2324SOL     OW 6989   2.213   3.663   2.715
 2324SOL    HW1 6990   2.263   3.577   2.721
 2324SOL    HW2 6991   2.278   3.740   2.712
 2325SOL     OW 6992   3.657   2.928   2.735
 2325SOL    HW1 6993   3.595   2.913   2.659
 2325SOL    HW2 6994   3.605   2.939   2.820
 2326SOL     OW 6995   3.089   3.412   3.368
 2326SOL    HW1 6996   3.095   3.335   3.432
 2326SOL    HW2 6997   3.037   3.386   3.288
 2327SOL     OW 6998   2.183   2.805   2.104
 2327SOL    HW1 6999   2.265   2.844   2.062
 2327SOL    HW2 7000   2.156   2.723   2.055
 2328SOL     OW 7001   3.320   2.597   2.590
 2328SOL    HW1 7002   3.315   2.532   2.665
 2328SOL    HW2 7003   3.400   2.656   2.603
 2329SOL     OW 7004   2.323   3.128   3.589
 2329SOL    HW1 7005   2.273   3.129   3.503
 2329SOL    HW2 7006   2.260   3.110   3.665
 2330SOL     OW 7007   2.973   3.638   2.099
 2330SOL    HW1 7008   2.913   3.576   2.149
 2330SOL    HW2 7009   3.004   3.594   2.014
 2331SOL     OW 7010   2.064   2.147   3.360
 2331SOL    HW1 7011   1.984   2.207   3.347
 2331SOL    HW2 7012   2.054   2.098   3.446
 2332SOL     OW 7013   3.494   3.239   1.943
 2332SOL    HW1 7014   3.462   3.333   1.933
 2332SOL    HW2 7015   3.418   3.176   1.931
 2333SOL     OW 7016   2.326   3.605   2.185
 2333SOL    HW1 7017   2.359   3.644   2.271
 2333SOL    HW2 7018   2.402   3.598   2.120
 2334SOL     OW 7019   3.262   1.969   2.288
 2334SOL    HW1 7020   3.238   1.932   2.198
 2334SOL    HW2 7021   3.361   1.985   2.292
 2335SOL     OW 7022   2.111   3.647   3.103
 2335SOL    HW1 7023   2.168   3.582   3.153
 2335SOL    HW2 7024   2.095   3.614   3.010
 2336SOL     OW 7025   2.802   3.560   2.766
 2336SOL    HW1 7026   2.882   3.503   2.787
 2336SOL    HW2 7027   2.753   3.520   2.689
 2337SOL     OW 7028   3.409   2.084   3.591
 2337SOL    HW1 7029   3.404   2.121   3.683
 2337SOL    HW2 7030   3.337   2.015   3.579
 2338SOL     OW 7031   2.476   1.984   1.979
 2338SOL    HW1 7032   2.574   1.962   1.986
 2338SOL    HW2 7033   2.445   1.967   1.886
 2339SOL     OW 7034   2.643   2.126   3.611
 2339SOL    HW1 7035   2.710   2.065   3.654
 2339SOL    HW2 7036   2.570   2.145   3.676
 2340SOL     OW 7037   2.750   3.376   3.057
 2340SOL    HW1 7038   2.727   3.351   2.963
 2340SOL    HW2 7039   2.811   3.307   3.096
 2341SOL     OW 7040   3.213   2.452   3.295
 2341SOL    HW1 7041   3.241   2.409   3.380
 2341SOL    HW2 7042   3.238   2.548   3.296
 2342SOL     OW 7043   2.665   3.264   2.786
 2342SOL    HW1 7044   2.755   3.278   2.744
 2342SOL    HW2 7045   2.594   3.266   2.715
 2343SOL     OW 7046   2.784   2.365   2.761
 2343SOL    HW1 7047   2.759   2.356   2.665
 2343SOL    HW2 7048   2.832   2.283   2.792
 2344SOL     OW 7049   2.401   1.926   2.374
 2344SOL    HW1 7050   2.320   1.927   2.432
 2344SOL    HW2 7051   2.404   2.009   2.319
 2345SOL     OW 7052   3.296   3.050   1.903
 2345SOL    HW1 7053   3.328   2.974   1.960
 2345SOL    HW2 7054   3.204   3.077   1.933
 2346SOL     OW 7055   2.159   1.897   2.033
 2346SOL    HW1 7056   2.208   1.981   2.012
 2346SOL    HW2 7057   2.221   1.832   2.078
 2347SOL     OW 7058   2.797   2.098   2.342
 2347SOL    HW1 7059   2.749   2.139   2.264
 2347SOL    HW2 7060   2.896   2.096   2.323
 2348SOL     OW 7061   2.938   2.545   3.326
 2348SOL    HW1 7062   2.858   2.484   3.329
 2348SOL    HW2 7063   3.019   2.492   3.302
 2349SOL     OW 7064   3.089   3.432   2.655
 2349SOL    HW1 7065   3.110   3.506   2.590
 2349SOL    HW2 7066   3.157   3.432   2.728
 2350SOL     OW 7067   2.321   3.014   2.603
 2350SOL    HW1 7068   2.250   2.987   2.668
 2350SOL    HW2 7069   2.295   2.986   2.510
 2351SOL     OW 7070   3.133   3.659   2.453
 2351SOL    HW1 7071   3.177   3.723   2.389
 2351SOL    HW2 7072   3.083   3.711   2.523
 2352SOL     OW 7073   2.894   2.411   1.878
 2352SOL    HW1 7074   2.853   2.493   1.839
 2352SOL    HW2 7075   2.958   2.437   1.951
 2353SOL     OW 7076   1.940   2.418   3.248
 2353SOL    HW1 7077   2.032   2.417   3.207
 2353SOL    HW2 7078   1.934   2.492   3.315
 2354SOL     OW 7079   2.423   2.084   3.009
 2354SOL    HW1 7080   2.461   2.000   3.046
 2354SOL    HW2 7081   2.335   2.103   3.053
 2355SOL     OW 7082   2.879   1.901   2.615
 2355SOL    HW1 7083   2.807   1.906   2.546
 2355SOL    HW2 7084   2.855   1.832   2.684
 2356SOL     OW 7085   3.291   3.035   2.729
 2356SOL    HW1 7086   3.236   2.951   2.722
 2356SOL    HW2 7087   3.317   3.064   2.637
 2357SOL     OW 7088   3.328   2.452   2.854
 2357SOL    HW1 7089   3.298   2.357   2.861
 2357SOL    HW2 7090   3.401   2.468   2.920
 2358SOL     OW 7091   3.719   2.695   2.239
 2358SOL    HW1 7092   3.761   2.631   2.303
 2358SOL    HW2 7093   3.681   2.644   2.161
 2359SOL     OW 7094   2.350   3.247   2.036
 2359SOL    HW1 7095   2.263   3.232   2.083
 2359SOL    HW2 7096   2.333   3.273   1.941
 2360SOL     OW 7097   3.526   3.142   2.519
 2360SOL    HW1 7098   3.625   3.150   2.533
 2360SOL    HW2 7099   3.481   3.226   2.550
 2361SOL     OW 7100   3.252   2.437   1.940
 2361SOL    HW1 7101   3.198   2.416   2.021
 2361SOL    HW2 7102   3.343   2.396   1.949
 2362SOL     OW 7103   3.616   3.085   3.450
 2362SOL    HW1 7104   3.707   3.046   3.437
 2362SOL    HW2 7105   3.624   3.181   3.474
 2363SOL     OW 7106   2.926   3.209   3.202
 2363SOL    HW1 7107   2.846   3.186   3.257
 2363SOL    HW2 7108   3.009   3.183   3.251
 2364SOL     OW 7109   3.454   3.491   3.487
 2364SOL    HW1 7110   3.481   3.525   3.397
 2364SOL    HW2 7111   3.533   3.453   3.533
 2365SOL     OW 7112   2.973   3.057   2.962
 2365SOL    HW1 7113   2.933   3.101   3.043
 2365SOL    HW2 7114   2.932   3.094   2.879
 2366SOL     OW 7115   3.500   2.961   2.941
 2366SOL    HW1 7116   3.505   3.042   3.000
 2366SOL    HW2 7117   3.414   2.963   2.890
 2367SOL     OW 7118   2.777   1.951   3.264
 2367SOL    HW1 7119   2.802   1.931   3.169
 2367SOL    HW2 7120   2.849   2.007   3.306
 2368SOL     OW 7121   2.842   2.978   3.581
 2368SOL    HW1 7122   2.743   2.984   3.591
 2368SOL    HW2 7123   2.865   2.898   3.525
 2369SOL     OW 7124   2.567   2.912   2.230
 2369SOL    HW1 7125   2.553   2.919   2.329
 2369SOL    HW2 7126   2.651   2.861   2.212
 2370SOL     OW 7127   2.272   2.675   3.113
 2370SOL    HW1 7128   2.358   2.687   3.163
 2370SOL    HW2 7129   2.230   2.588   3.140
 2371SOL     OW 7130   3.136   2.248   3.124
 2371SOL    HW1 7131   3.157   2.322   3.188
 2371SOL    HW2 7132   3.047   2.265   3.081
 2372SOL     OW 7133   1.926   3.426   3.193
 2372SOL    HW1 7134   1.880   3.508   3.159
 2372SOL    HW2 7135   2.024   3.445   3.202
 2373SOL     OW 7136   2.229   2.962   2.363
 2373SOL    HW1 7137   2.222   3.045   2.307
 2373SOL    HW2 7138   2.233   2.882   2.303
 2374SOL     OW 7139   3.114   3.210   2.250
 2374SOL    HW1 7140   3.164   3.287   2.290
 2374SOL    HW2 7141   3.019   3.212   2.282
 2375SOL     OW 7142   3.134   3.307   3.004
 2375SOL    HW1 7143   3.181   3.320   3.091
 2375SOL    HW2 7144   3.068   3.233   3.013
 2376SOL     OW 7145   3.444   2.501   2.334
 2376SOL    HW1 7146   3.413   2.562   2.407
 2376SOL    HW2 7147   3.494   2.553   2.265
 2377SOL     OW 7148   2.216   3.372   3.191
 2377SOL    HW1 7149   2.195   3.328   3.104
 2377SOL    HW2 7150   2.313   3.398   3.194
 2378SOL     OW 7151   2.264   2.613   3.460
 2378SOL    HW1 7152   2.332   2.668   3.413
 2378SOL    HW2 7153   2.304   2.525   3.487
 2379SOL     OW 7154   3.449   2.641   3.532
 2379SOL    HW1 7155   3.357   2.679   3.527
 2379SOL    HW2 7156   3.509   2.688   3.467
 2380SOL     OW 7157   2.875   1.967   3.632
 2380SOL    HW1 7158   2.881   2.052   3.580
 2380SOL    HW2 7159   2.907   1.891   3.575
 2381SOL     OW 7160   2.366   1.912   3.602
 2381SOL    HW1 7161   2.324   1.855   3.532
 2381SOL    HW2 7162   2.300   1.981   3.634
 2382SOL     OW 7163   2.435   2.732   2.891
 2382SOL    HW1 7164   2.479   2.821   2.882
 2382SOL    HW2 7165   2.372   2.732   2.968
 2383SOL     OW 7166   3.222   2.724   2.907
 2383SOL    HW1 7167   3.147   2.724   2.841
 2383SOL    HW2 7168   3.259   2.632   2.916
 2384SOL     OW 7169   3.071   2.387   2.137
 2384SOL    HW1 7170   3.084   2.303   2.191
 2384SOL    HW2 7171   3.042   2.461   2.197
 2385SOL     OW 7172   2.169   2.075   3.093
 2385SOL    HW1 7173   2.146   2.112   3.183
 2385SOL    HW2 7174   2.139   1.980   3.087
 2386SOL     OW 7175   1.899   3.172   3.144
 2386SOL    HW1 7176   1.952   3.123   3.212
 2386SOL    HW2 7177   1.921   3.270   3.149
 2387SOL     OW 7178   2.594   2.496   2.926
 2387SOL    HW1 7179   2.653   2.470   2.850
 2387SOL    HW2 7180   2.566   2.592   2.915
 2388SOL     OW 7181   3.590   2.797   3.716
 2388SOL    HW1 7182   3.544   2.790   3.627
 2388SOL    HW2 7183   3.528   2.841   3.782
 2389SOL     OW 7184   2.169   1.925   2.480
 2389SOL    HW1 7185   2.158   2.019   2.513
 2389SOL    HW2 7186   2.164   1.862   2.557
 2390SOL     OW 7187   3.484   2.229   2.236
 2390SOL    HW1 7188   3.486   2.153   2.300
 2390SOL    HW2 7189   3.436   2.306   2.276
 2391SOL     OW 7190   2.885   2.628   2.828
 2391SOL    HW1 7191   2.900   2.649   2.924
 2391SOL    HW2 7192   2.855   2.533   2.819
 2392SOL     OW 7193   2.842   3.435   3.562
 2392SOL    HW1 7194   2.822   3.479   3.474
 2392SOL    HW2 7195   2.881   3.344   3.546
 2393SOL     OW 7196   3.721   3.380   3.467
 2393SOL    HW1 7197   3.735   3.407   3.372
 2393SOL    HW2 7198   3.804   3.402   3.520
 2394SOL     OW 7199   2.212   2.760   3.666
 2394SOL    HW1 7200   2.288   2.804   3.714
 2394SOL    HW2 7201   2.247   2.713   3.584
 2395SOL     OW 7202   3.402   2.136   1.987
 2395SOL    HW1 7203   3.341   2.061   2.010
 2395SOL    HW2 7204   3.424   2.188   2.070
 2396SOL     OW 7205   3.165   2.700   1.904
 2396SOL    HW1 7206   3.199   2.607   1.919
 2396SOL    HW2 7207   3.183   2.727   1.809
 2397SOL     OW 7208   2.930   3.195   2.711
 2397SOL    HW1 7209   2.937   3.111   2.656
 2397SOL    HW2 7210   2.992   3.264   2.675
 2398SOL     OW 7211   2.181   2.672   2.811
 2398SOL    HW1 7212   2.274   2.708   2.816
 2398SOL    HW2 7213   2.175   2.587   2.863
 2399SOL     OW 7214   2.201   2.371   2.868
 2399SOL    HW1 7215   2.149   2.288   2.851
 2399SOL    HW2 7216   2.278   2.376   2.804
 2400SOL     OW 7217   3.000   2.242   3.540
 2400SOL    HW1 7218   2.955   2.305   3.604
 2400SOL    HW2 7219   3.093   2.273   3.523
 2401SOL     OW 7220   3.022   2.069   3.339
 2401SOL    HW1 7221   3.022   2.133   3.416
 2401SOL    HW2 7222   3.050   2.117   3.256
 2402SOL     OW 7223   1.870   3.188   2.062
 2402SOL    HW1 7224   1.777   3.209   2.031
 2402SOL    HW2 7225   1.880   3.089   2.075
 2403SOL     OW 7226   1.950   3.663   2.789
 2403SOL    HW1 7227   1.908   3.577   2.762
 2403SOL    HW2 7228   2.044   3.666   2.755
 2404SOL     OW 7229   2.366   3.430   2.772
 2404SOL    HW1 7230   2.432   3.504   2.781
 2404SOL    HW2 7231   2.410   3.351   2.730
 2405SOL     OW 7232   2.864   2.658   3.100
 2405SOL    HW1 7233   2.905   2.626   3.186
 2405SOL    HW2 7234   2.768   2.631   3.097
 2406SOL     OW 7235   1.902   2.406   2.976
 2406SOL    HW1 7236   1.987   2.373   2.935
 2406SOL    HW2 7237   1.915   2.421   3.074
 2407SOL     OW 7238   2.051   2.382   3.584
 2407SOL    HW1 7239   2.110   2.342   3.514
 2407SOL    HW2 7240   1.993   2.453   3.543
 2408SOL     OW 7241   3.231   2.812   3.522
 2408SOL    HW1 7242   3.270   2.901   3.542
 2408SOL    HW2 7243   3.241   2.792   3.425
 2409SOL     OW 7244   2.677   2.434   2.187
 2409SOL    HW1 7245   2.684   2.345   2.141
 2409SOL    HW2 7246   2.583   2.468   2.179
 2410SOL     OW 7247   3.519   2.466   3.068
 2410SOL    HW1 7248   3.481   2.397   3.130
 2410SOL    HW2 7249   3.601   2.430   3.024
 2411SOL     OW 7250   2.114   3.426   3.606
 2411SOL    HW1 7251   2.084   3.483   3.682
 2411SOL    HW2 7252   2.107   3.329   3.632
 2412SOL     OW 7253   2.533   2.326   3.131
 2412SOL    HW1 7254   2.499   2.237   3.101
 2412SOL    HW2 7255   2.559   2.380   3.051
 2413SOL     OW 7256   2.792   3.540   3.327
 2413SOL    HW1 7257   2.768   3.522   3.232
 2413SOL    HW2 7258   2.822   3.634   3.337
 2414SOL     OW 7259   2.021   2.999   3.328
 2414SOL    HW1 7260   2.043   2.938   3.404
 2414SOL    HW2 7261   2.031   2.950   3.242
 2415SOL     OW 7262   3.209   2.921   3.096
 2415SOL    HW1 7263   3.233   2.858   3.022
 2415SOL    HW2 7264   3.119   2.961   3.078
 2416SOL     OW 7265   3.164   2.717   2.171
 2416SOL    HW1 7266   3.078   2.686   2.213
 2416SOL    HW2 7267   3.160   2.703   2.072
 2417SOL     OW 7268   3.621   3.609   3.016
 2417SOL    HW1 7269   3.682   3.639   2.943
 2417SOL    HW2 7270   3.583   3.520   2.994
 2418SOL     OW 7271   3.114   3.593   2.990
 2418SOL    HW1 7272   3.198   3.598   2.936
 2418SOL    HW2 7273   3.091   3.497   3.008
 2419SOL     OW 7274   1.945   3.120   2.884
 2419SOL    HW1 7275   1.940   3.119   2.984
 2419SOL    HW2 7276   1.862   3.079   2.846
 2420SOL     OW 7277   2.550   3.524   3.578
 2420SOL    HW1 7278   2.494   3.605   3.587
 2420SOL    HW2 7279   2.602   3.528   3.492
 2421SOL     OW 7280   3.588   1.997   2.385
 2421SOL    HW1 7281   3.661   1.980   2.318
 2421SOL    HW2 7282   3.557   1.910   2.423
 2422SOL     OW 7283   3.250   3.435   2.339
 2422SOL    HW1 7284   3.317   3.447   2.265
 2422SOL    HW2 7285   3.210   3.524   2.362
 2423SOL     OW 7286   1.992   3.656   3.713
 2423SOL    HW1 7287   1.951   3.582   3.766
 2423SOL    HW2 7288   2.056   3.707   3.771
 2424SOL     OW 7289   3.142   2.789   2.534
 2424SOL    HW1 7290   3.202   2.708   2.536
 2424SOL    HW2 7291   3.182   2.858   2.474
 2425SOL     OW 7292   2.692   3.135   3.284
 2425SOL    HW1 7293   2.687   3.168   3.379
 2425SOL    HW2 7294   2.606   3.154   3.238
 2426SOL     OW 7295   2.534   3.478   2.016
 2426SOL    HW1 7296   2.543   3.488   1.917
 2426SOL    HW2 7297   2.494   3.389   2.037
 2427SOL     OW 7298   3.512   3.582   3.256
 2427SOL    HW1 7299   3.565   3.592   3.172
 2427SOL    HW2 7300   3.485   3.672   3.290
 2428SOL     OW 7301   3.703   2.037   2.825
 2428SOL    HW1 7302   3.742   1.952   2.789
 2428SOL    HW2 7303   3.605   2.039   2.806
 2429SOL     OW 7304   2.125   2.188   2.582
 2429SOL    HW1 7305   2.046   2.239   2.548
 2429SOL    HW2 7306   2.116   2.173   2.680
 2430SOL     OW 7307   3.056   3.474   1.893
 2430SOL    HW1 7308   3.062   3.381   1.930
 2430SOL    HW2 7309   2.997   3.474   1.813
 2431SOL     OW 7310   2.684   2.864   3.234
 2431SOL    HW1 7311   2.724   2.863   3.142
 2431SOL    HW2 7312   2.694   2.956   3.274
 2432SOL     OW 7313   2.778   2.772   2.153
 2432SOL    HW1 7314   2.841   2.810   2.085
 2432SOL    HW2 7315   2.818   2.689   2.192
 2433SOL     OW 7316   3.366   3.469   1.906
 2433SOL    HW1 7317   3.274   3.506   1.913
 2433SOL    HW2 7318   3.404   3.489   1.816
 2434SOL     OW 7319   2.234   3.150   3.352
 2434SOL    HW1 7320   2.221   3.243   3.318
 2434SOL    HW2 7321   2.150   3.098   3.339
 2435SOL     OW 7322   3.476   3.154   3.151
 2435SOL    HW1 7323   3.536   3.157   3.231
 2435SOL    HW2 7324   3.401   3.218   3.164
 2436SOL     OW 7325   2.901   2.960   2.558
 2436SOL    HW1 7326   2.831   2.913   2.612
 2436SOL    HW2 7327   2.960   2.892   2.515
 2437SOL     OW 7328   2.876   2.098   2.833
 2437SOL    HW1 7329   2.868   2.062   2.740
 2437SOL    HW2 7330   2.874   2.022   2.898
 2438SOL     OW 7331   2.452   3.349   2.353
 2438SOL    HW1 7332   2.494   3.291   2.283
 2438SOL    HW2 7333   2.408   3.428   2.309
 2439SOL     OW 7334   3.571   2.247   3.243
 2439SOL    HW1 7335   3.644   2.316   3.247
 2439SOL    HW2 7336   3.599   2.172   3.184
 2440SOL     OW 7337   2.117   3.210   2.152
 2440SOL    HW1 7338   2.021   3.211   2.125
 2440SOL    HW2 7339   2.129   3.263   2.236
 2441SOL     OW 7340   1.967   2.875   3.588
 2441SOL    HW1 7341   1.890   2.842   3.642
 2441SOL    HW2 7342   2.052   2.845   3.630
 2442SOL     OW 7343   2.534   2.065   3.351
 2442SOL    HW1 7344   2.624   2.049   3.311
 2442SOL    HW2 7345   2.542   2.070   3.450
 2443SOL     OW 7346   1.937   2.207   1.895
 2443SOL    HW1 7347   1.845   2.179   1.866
 2443SOL    HW2 7348   1.968   2.284   1.839
 2444SOL     OW 7349   3.302   2.718   3.260
 2444SOL    HW1 7350   3.245   2.770   3.197
 2444SOL    HW2 7351   3.398   2.730   3.236
 2445SOL     OW 7352   1.934   2.028   2.180
 2445SOL    HW1 7353   1.917   2.111   2.126
 2445SOL    HW2 7354   2.024   1.991   2.158
 2446SOL     OW 7355   3.045   3.197   1.981
 2446SOL    HW1 7356   2.946   3.186   1.983
 2446SOL    HW2 7357   3.079   3.212   2.074
 2447SOL     OW 7358   2.475   2.704   3.293
 2447SOL    HW1 7359   2.531   2.785   3.276
 2447SOL    HW2 7360   2.534   2.624   3.296
 2448SOL     OW 7361   3.355   3.629   2.821
 2448SOL    HW1 7362   3.388   3.693   2.752
 2448SOL    HW2 7363   3.421   3.623   2.896
 2449SOL     OW 7364   2.578   2.427   3.570
 2449SOL    HW1 7365   2.597   2.492   3.644
 2449SOL    HW2 7366   2.638   2.347   3.579
 2450SOL     OW 7367   3.312   3.082   3.495
 2450SOL    HW1 7368   3.303   3.072   3.594
 2450SOL    HW2 7369   3.408   3.075   3.469
 2451SOL     OW 7370   2.252   3.603   3.422
 2451SOL    HW1 7371   2.161   3.644   3.420
 2451SOL    HW2 7372   2.245   3.509   3.454
 2452SOL     OW 7373   3.536   2.745   3.116
 2452SOL    HW1 7374   3.509   2.656   3.079
 2452SOL    HW2 7375   3.537   2.813   3.043
 2453SOL     OW 7376   3.087   2.187   2.311
 2453SOL    HW1 7377   3.152   2.113   2.300
 2453SOL    HW2 7378   3.107   2.237   2.395
 2454SOL     OW 7379   3.639   2.204   3.504
 2454SOL    HW1 7380   3.622   2.235   3.410
 2454SOL    HW2 7381   3.555   2.167   3.542
 2455SOL     OW 7382   3.592   2.796   3.379
 2455SOL    HW1 7383   3.630   2.887   3.394
 2455SOL    HW2 7384   3.584   2.779   3.280
 2456SOL     OW 7385   2.721   3.236   1.878
 2456SOL    HW1 7386   2.675   3.251   1.966
 2456SOL    HW2 7387   2.765   3.321   1.848
 2457SOL     OW 7388   2.523   3.652   2.815
 2457SOL    HW1 7389   2.477   3.740   2.802
 2457SOL    HW2 7390   2.622   3.664   2.808
 2458SOL     OW 7391   2.945   2.846   1.949
 2458SOL    HW1 7392   2.922   2.899   1.867
 2458SOL    HW2 7393   3.026   2.790   1.930
 2459SOL     OW 7394   3.723   3.431   2.713
 2459SOL    HW1 7395   3.652   3.419   2.643
 2459SOL    HW2 7396   3.724   3.352   2.773
 2460SOL     OW 7397   2.083   3.176   3.706
 2460SOL    HW1 7398   2.018   3.103   3.685
 2460SOL    HW2 7399   2.087   3.190   3.804
 2461SOL     OW 7400   1.941   3.102   2.515
 2461SOL    HW1 7401   1.940   3.055   2.603
 2461SOL    HW2 7402   2.023   3.074   2.464
 2462SOL     OW 7403   2.534   3.253   3.486
 2462SOL    HW1 7404   2.456   3.203   3.524
 2462SOL    HW2 7405   2.531   3.348   3.517
 2463SOL     OW 7406   3.686   2.054   3.089
 2463SOL    HW1 7407   3.682   1.964   3.133
 2463SOL    HW2 7408   3.689   2.043   2.990
 2464SOL     OW 7409   3.567   3.349   2.966
 2464SOL    HW1 7410   3.474   3.324   2.939
 2464SOL    HW2 7411   3.593   3.299   3.048
 2465SOL     OW 7412   2.179   2.409   3.142
 2465SOL    HW1 7413   2.217   2.350   3.214
 2465SOL    HW2 7414   2.219   2.383   3.054
 2466SOL     OW 7415   2.674   3.448   2.549
 2466SOL    HW1 7416   2.706   3.458   2.455
 2466SOL    HW2 7417   2.595   3.386   2.551
 2467SOL     OW 7418   3.286   2.076   2.974
 2467SOL    HW1 7419   3.338   2.011   3.029
 2467SOL    HW2 7420   3.237   2.139   3.035
 2468SOL     OW 7421   2.863   1.896   3.016
 2468SOL    HW1 7422   2.800   1.824   2.985
 2468SOL    HW2 7423   2.956   1.860   3.016
 2469SOL     OW 7424   2.632   3.192   2.163
 2469SOL    HW1 7425   2.586   3.105   2.180
 2469SOL    HW2 7426   2.723   3.189   2.204
 2470SOL     OW 7427   2.480   3.429   3.146
 2470SOL    HW1 7428   2.475   3.511   3.203
 2470SOL    HW2 7429   2.569   3.426   3.101
 2471SOL     OW 7430   3.214   1.914   2.030
 2471SOL    HW1 7431   3.249   1.873   1.946
 2471SOL    HW2 7432   3.124   1.876   2.050
 2472SOL     OW 7433   3.162   2.315   2.553
 2472SOL    HW1 7434   3.103   2.395   2.557
 2472SOL    HW2 7435   3.177   2.280   2.646
 2473SOL     OW 7436   3.455   2.083   2.744
 2473SOL    HW1 7437   3.371   2.082   2.798
 2473SOL    HW2 7438   3.457   2.166   2.688
 2474SOL     OW 7439   1.901   2.939   2.162
 2474SOL    HW1 7440   2.000   2.928   2.153
 2474SOL    HW2 7441   1.861   2.853   2.194
 2475SOL     OW 7442   2.737   3.508   2.199
 2475SOL    HW1 7443   2.660   3.473   2.145
 2475SOL    HW2 7444   2.705   3.579   2.261
 2476SOL     OW 7445   2.092   2.490   3.837
 2476SOL    HW1 7446   1.999   2.488   3.874
 2476SOL    HW2 7447   2.093   2.451   3.745
 2477SOL     OW 7448   2.087   2.137   4.720
 2477SOL    HW1 7449   2.122   2.120   4.812
 2477SOL    HW2 7450   1.999   2.092   4.708
 2478SOL     OW 7451   1.881   2.230   4.371
 2478SOL    HW1 7452   1.799   2.273   4.410
 2478SOL    HW2 7453   1.853   2.157   4.308
 2479SOL     OW 7454   2.431   3.137   4.889
 2479SOL    HW1 7455   2.338   3.130   4.852
 2479SOL    HW2 7456   2.442   3.226   4.933
 2480SOL     OW 7457   3.417   3.373   4.427
 2480SOL    HW1 7458   3.360   3.357   4.508
 2480SOL    HW2 7459   3.358   3.383   4.347
 2481SOL     OW 7460   2.997   2.565   4.441
 2481SOL    HW1 7461   3.054   2.643   4.416
 2481SOL    HW2 7462   2.937   2.591   4.517
 2482SOL     OW 7463   3.617   2.469   3.955
 2482SOL    HW1 7464   3.605   2.456   3.856
 2482SOL    HW2 7465   3.587   2.388   4.004
 2483SOL     OW 7466   2.630   3.006   4.747
 2483SOL    HW1 7467   2.552   3.023   4.807
 2483SOL    HW2 7468   2.664   3.093   4.711
 2484SOL     OW 7469   2.547   2.874   4.389
 2484SOL    HW1 7470   2.616   2.858   4.459
 2484SOL    HW2 7471   2.474   2.931   4.427
 2485SOL     OW 7472   2.197   3.297   4.785
 2485SOL    HW1 7473   2.119   3.266   4.732
 2485SOL    HW2 7474   2.255   3.355   4.728
 2486SOL     OW 7475   3.465   2.309   4.461
 2486SOL    HW1 7476   3.391   2.355   4.411
 2486SOL    HW2 7477   3.516   2.377   4.514
 2487SOL     OW 7478   2.093   3.575   4.207
 2487SOL    HW1 7479   2.127   3.652   4.261
 2487SOL    HW2 7480   2.137   3.575   4.117
 2488SOL     OW 7481   2.092   3.296   4.262
 2488SOL    HW1 7482   2.066   3.392   4.262
 2488SOL    HW2 7483   2.021   3.242   4.307
 2489SOL     OW 7484   2.102   2.953   4.610
 2489SOL    HW1 7485   2.116   2.869   4.662
 2489SOL    HW2 7486   2.047   3.017   4.665
 2490SOL     OW 7487   2.468   2.826   3.847
 2490SOL    HW1 7488   2.475   2.910   3.793
 2490SOL    HW2 7489   2.514   2.839   3.935
 2491SOL     OW 7490   1.984   2.505   4.287
 2491SOL    HW1 7491   1.939   2.417   4.304
 2491SOL    HW2 7492   1.983   2.559   4.371
 2492SOL     OW 7493   3.704   3.629   4.083
 2492SOL    HW1 7494   3.758   3.600   4.163
 2492SOL    HW2 7495   3.734   3.719   4.054
 2493SOL     OW 7496   1.889   3.458   3.841
 2493SOL    HW1 7497   1.870   3.362   3.862
 2493SOL    HW2 7498   1.856   3.516   3.916
 2494SOL     OW 7499   3.551   2.784   4.336
 2494SOL    HW1 7500   3.646   2.755   4.344
 2494SOL    HW2 7501   3.543   2.849   4.261
 2495SOL     OW 7502   3.503   2.970   4.156
 2495SOL    HW1 7503   3.589   2.972   4.104
 2495SOL    HW2 7504   3.517   3.017   4.244
 2496SOL     OW 7505   2.475   3.227   4.450
 2496SOL    HW1 7506   2.426   3.140   4.459
 2496SOL    HW2 7507   2.452   3.270   4.363
 2497SOL     OW 7508   2.671   1.866   4.226
 2497SOL    HW1 7509   2.711   1.957   4.217
 2497SOL    HW2 7510   2.571   1.874   4.232
 2498SOL     OW 7511   2.059   2.838   4.988
 2498SOL    HW1 7512   2.148   2.793   4.974
 2498SOL    HW2 7513   1.986   2.773   4.969
 2499SOL     OW 7514   3.387   2.861   3.914
 2499SOL    HW1 7515   3.324   2.785   3.927
 2499SOL    HW2 7516   3.435   2.879   4.000
 2500SOL     OW 7517   3.328   3.279   4.677
 2500SOL    HW1 7518   3.269   3.285   4.757
 2500SOL    HW2 7519   3.313   3.191   4.631
 2501SOL     OW 7520   3.529   3.576   4.296
 2501SOL    HW1 7521   3.488   3.553   4.208
 2501SOL    HW2 7522   3.511   3.502   4.361
 2502SOL     OW 7523   2.460   2.591   3.994
 2502SOL    HW1 7524   2.484   2.660   3.926
 2502SOL    HW2 7525   2.382   2.624   4.048
 2503SOL     OW 7526   3.143   2.207   4.668
 2503SOL    HW1 7527   3.057   2.157   4.655
 2503SOL    HW2 7528   3.205   2.153   4.724
 2504SOL     OW 7529   3.438   3.524   4.031
 2504SOL    HW1 7530   3.527   3.570   4.034
 2504SOL    HW2 7531   3.417   3.500   3.936
 2505SOL     OW 7532   2.903   2.563   4.153
 2505SOL    HW1 7533   2.929   2.559   4.249
 2505SOL    HW2 7534   2.818   2.512   4.139
 2506SOL     OW 7535   1.938   2.673   4.513
 2506SOL    HW1 7536   2.037   2.661   4.522
 2506SOL    HW2 7537   1.914   2.768   4.534
 2507SOL     OW 7538   2.727   2.210   3.919
 2507SOL    HW1 7539   2.786   2.273   3.870
 2507SOL    HW2 7540   2.746   2.116   3.890
 2508SOL     OW 7541   3.224   3.006   4.269
 2508SOL    HW1 7542   3.307   2.977   4.221
 2508SOL    HW2 7543   3.175   3.073   4.213
 2509SOL     OW 7544   2.412   2.058   4.609
 2509SOL    HW1 7545   2.407   2.053   4.709
 2509SOL    HW2 7546   2.414   2.154   4.580
 2510SOL     OW 7547   2.870   3.318   4.201
 2510SOL    HW1 7548   2.824   3.390   4.149
 2510SOL    HW2 7549   2.866   3.338   4.299
 2511SOL     OW 7550   2.213   3.663   4.577
 2511SOL    HW1 7551   2.263   3.577   4.583
 2511SOL    HW2 7552   2.278   3.740   4.574
 2512SOL     OW 7553   3.657   2.928   4.597
 2512SOL    HW1 7554   3.595   2.913   4.521
 2512SOL    HW2 7555   3.605   2.939   4.682
 2513SOL     OW 7556   2.183   2.805   3.966
 2513SOL    HW1 7557   2.265   2.844   3.924
 2513SOL    HW2 7558   2.156   2.723   3.917
 2514SOL     OW 7559   3.320   2.597   4.452
 2514SOL    HW1 7560   3.315   2.532   4.527
 2514SOL    HW2 7561   3.400   2.656   4.465
 2515SOL     OW 7562   2.973   3.638   3.961
 2515SOL    HW1 7563   2.913   3.576   4.011
 2515SOL    HW2 7564   3.004   3.594   3.876
 2516SOL     OW 7565   3.494   3.239   3.805
 2516SOL    HW1 7566   3.462   3.333   3.795
 2516SOL    HW2 7567   3.418   3.176   3.793
 2517SOL     OW 7568   2.326   3.605   4.047
 2517SOL    HW1 7569   2.359   3.644   4.133
 2517SOL    HW2 7570   2.402   3.598   3.982
 2518SOL     OW 7571   3.262   1.969   4.150
 2518SOL    HW1 7572   3.238   1.932   4.060
 2518SOL    HW2 7573   3.361   1.985   4.154
 2519SOL     OW 7574   2.111   3.647   4.965
 2519SOL    HW1 7575   2.168   3.582   5.015
 2519SOL    HW2 7576   2.095   3.614   4.872
 2520SOL     OW 7577   2.802   3.560   4.628
 2520SOL    HW1 7578   2.882   3.503   4.649
 2520SOL    HW2 7579   2.753   3.520   4.551
 2521SOL     OW 7580   2.244   2.562   4.204
 2521SOL    HW1 7581   2.289   2.472   4.201
 2521SOL    HW2 7582   2.150   2.551   4.237
 2522SOL     OW 7583   2.476   1.984   3.841
 2522SOL    HW1 7584   2.574   1.962   3.848
 2522SOL    HW2 7585   2.445   1.967   3.748
 2523SOL     OW 7586   2.665   3.264   4.648
 2523SOL    HW1 7587   2.755   3.278   4.606
 2523SOL    HW2 7588   2.594   3.266   4.577
 2524SOL     OW 7589   2.784   2.365   4.623
 2524SOL    HW1 7590   2.759   2.356   4.527
 2524SOL    HW2 7591   2.832   2.283   4.654
 2525SOL     OW 7592   2.401   1.926   4.236
 2525SOL    HW1 7593   2.320   1.927   4.294
 2525SOL    HW2 7594   2.404   2.009   4.181
 2526SOL     OW 7595   3.296   3.050   3.765
 2526SOL    HW1 7596   3.328   2.974   3.822
 2526SOL    HW2 7597   3.204   3.077   3.795
 2527SOL     OW 7598   2.159   1.897   3.895
 2527SOL    HW1 7599   2.208   1.981   3.874
 2527SOL    HW2 7600   2.221   1.832   3.940
 2528SOL     OW 7601   2.797   2.098   4.204
 2528SOL    HW1 7602   2.749   2.139   4.126
 2528SOL    HW2 7603   2.896   2.096   4.185
 2529SOL     OW 7604   3.089   3.432   4.517
 2529SOL    HW1 7605   3.110   3.506   4.452
 2529SOL    HW2 7606   3.157   3.432   4.590
 2530SOL     OW 7607   2.321   3.014   4.465
 2530SOL    HW1 7608   2.250   2.987   4.530
 2530SOL    HW2 7609   2.295   2.986   4.372
 2531SOL     OW 7610   3.133   3.659   4.315
 2531SOL    HW1 7611   3.177   3.723   4.251
 2531SOL    HW2 7612   3.083   3.711   4.385
 2532SOL     OW 7613   2.894   2.411   3.740
 2532SOL    HW1 7614   2.853   2.493   3.701
 2532SOL    HW2 7615   2.958   2.437   3.813
 2533SOL     OW 7616   2.728   2.316   4.366
 2533SOL    HW1 7617   2.696   2.388   4.304
 2533SOL    HW2 7618   2.752   2.235   4.313
 2534SOL     OW 7619   2.879   1.901   4.477
 2534SOL    HW1 7620   2.807   1.906   4.408
 2534SOL    HW2 7621   2.855   1.832   4.546
 2535SOL     OW 7622   3.291   3.035   4.591
 2535SOL    HW1 7623   3.236   2.951   4.584
 2535SOL    HW2 7624   3.317   3.064   4.499
 2536SOL     OW 7625   3.328   2.452   4.716
 2536SOL    HW1 7626   3.298   2.357   4.723
 2536SOL    HW2 7627   3.401   2.468   4.782
 2537SOL     OW 7628   3.719   2.695   4.101
 2537SOL    HW1 7629   3.761   2.631   4.165
 2537SOL    HW2 7630   3.681   2.644   4.023
 2538SOL     OW 7631   2.350   3.247   3.898
 2538SOL    HW1 7632   2.263   3.232   3.945
 2538SOL    HW2 7633   2.333   3.273   3.803
 2539SOL     OW 7634   3.526   3.142   4.381
 2539SOL    HW1 7635   3.625   3.150   4.395
 2539SOL    HW2 7636   3.481   3.226   4.412
 2540SOL     OW 7637   3.252   2.437   3.802
 2540SOL    HW1 7638   3.198   2.416   3.883
 2540SOL    HW2 7639   3.343   2.396   3.811
 2541SOL     OW 7640   2.389   2.118   4.052
 2541SOL    HW1 7641   2.416   2.059   3.977
 2541SOL    HW2 7642   2.389   2.213   4.021
 2542SOL     OW 7643   2.973   3.057   4.824
 2542SOL    HW1 7644   2.933   3.101   4.905
 2542SOL    HW2 7645   2.932   3.094   4.741
 2543SOL     OW 7646   3.500   2.961   4.803
 2543SOL    HW1 7647   3.505   3.042   4.862
 2543SOL    HW2 7648   3.414   2.963   4.752
 2544SOL     OW 7649   2.567   2.912   4.092
 2544SOL    HW1 7650   2.553   2.919   4.191
 2544SOL    HW2 7651   2.651   2.861   4.074
 2545SOL     OW 7652   2.272   2.675   4.975
 2545SOL    HW1 7653   2.358   2.687   5.025
 2545SOL    HW2 7654   2.230   2.588   5.002
 2546SOL     OW 7655   2.229   2.962   4.225
 2546SOL    HW1 7656   2.222   3.045   4.169
 2546SOL    HW2 7657   2.233   2.882   4.165
 2547SOL     OW 7658   2.428   2.399   4.589
 2547SOL    HW1 7659   2.440   2.465   4.515
 2547SOL    HW2 7660   2.474   2.433   4.672
 2548SOL     OW 7661   3.114   3.210   4.112
 2548SOL    HW1 7662   3.164   3.287   4.152
 2548SOL    HW2 7663   3.019   3.212   4.144
 2549SOL     OW 7664   3.134   3.307   4.866
 2549SOL    HW1 7665   3.181   3.320   4.953
 2549SOL    HW2 7666   3.068   3.233   4.875
 2550SOL     OW 7667   3.444   2.501   4.196
 2550SOL    HW1 7668   3.413   2.562   4.269
 2550SOL    HW2 7669   3.494   2.553   4.127
 2551SOL     OW 7670   2.435   2.732   4.753
 2551SOL    HW1 7671   2.479   2.821   4.744
 2551SOL    HW2 7672   2.372   2.732   4.830
 2552SOL     OW 7673   3.071   2.387   3.999
 2552SOL    HW1 7674   3.084   2.303   4.053
 2552SOL    HW2 7675   3.042   2.461   4.059
 2553SOL     OW 7676   2.169   2.075   4.955
 2553SOL    HW1 7677   2.146   2.112   5.045
 2553SOL    HW2 7678   2.139   1.980   4.949
 2554SOL     OW 7679   2.594   2.496   4.788
 2554SOL    HW1 7680   2.653   2.470   4.712
 2554SOL    HW2 7681   2.566   2.592   4.777
 2555SOL     OW 7682   2.169   1.925   4.342
 2555SOL    HW1 7683   2.158   2.019   4.375
 2555SOL    HW2 7684   2.164   1.862   4.419
 2556SOL     OW 7685   3.484   2.229   4.098
 2556SOL    HW1 7686   3.486   2.153   4.162
 2556SOL    HW2 7687   3.436   2.306   4.138
 2557SOL     OW 7688   2.885   2.628   4.690
 2557SOL    HW1 7689   2.900   2.649   4.786
 2557SOL    HW2 7690   2.855   2.533   4.681
 2558SOL     OW 7691   3.402   2.136   3.849
 2558SOL    HW1 7692   3.341   2.061   3.872
 2558SOL    HW2 7693   3.424   2.188   3.932
 2559SOL     OW 7694   3.165   2.700   3.766
 2559SOL    HW1 7695   3.199   2.607   3.781
 2559SOL    HW2 7696   3.183   2.727   3.671
 2560SOL     OW 7697   2.930   3.195   4.573
 2560SOL    HW1 7698   2.937   3.111   4.518
 2560SOL    HW2 7699   2.992   3.264   4.537
 2561SOL     OW 7700   2.181   2.672   4.673
 2561SOL    HW1 7701   2.274   2.708   4.678
 2561SOL    HW2 7702   2.175   2.587   4.725
 2562SOL     OW 7703   2.201   2.371   4.730
 2562SOL    HW1 7704   2.149   2.288   4.713
 2562SOL    HW2 7705   2.278   2.376   4.666
 2563SOL     OW 7706   1.870   3.188   3.924
 2563SOL    HW1 7707   1.777   3.209   3.893
 2563SOL    HW2 7708   1.880   3.089   3.937
 2564SOL     OW 7709   1.950   3.663   4.651
 2564SOL    HW1 7710   1.908   3.577   4.624
 2564SOL    HW2 7711   2.044   3.666   4.617
 2565SOL     OW 7712   2.366   3.430   4.634
 2565SOL    HW1 7713   2.432   3.504   4.643
 2565SOL    HW2 7714   2.410   3.351   4.592
 2566SOL     OW 7715   2.864   2.658   4.962
 2566SOL    HW1 7716   2.905   2.626   5.048
 2566SOL    HW2 7717   2.768   2.631   4.959
 2567SOL     OW 7718   1.902   2.406   4.838
 2567SOL    HW1 7719   1.987   2.373   4.797
 2567SOL    HW2 7720   1.915   2.421   4.936
 2568SOL     OW 7721   2.677   2.434   4.049
 2568SOL    HW1 7722   2.684   2.345   4.003
 2568SOL    HW2 7723   2.583   2.468   4.041
 2569SOL     OW 7724   3.519   2.466   4.930
 2569SOL    HW1 7725   3.481   2.397   4.992
 2569SOL    HW2 7726   3.601   2.430   4.886
 2570SOL     OW 7727   2.533   2.326   4.993
 2570SOL    HW1 7728   2.499   2.237   4.963
 2570SOL    HW2 7729   2.559   2.380   4.913
 2571SOL     OW 7730   2.335   2.362   3.915
 2571SOL    HW1 7731   2.396   2.442   3.919
 2571SOL    HW2 7732   2.240   2.393   3.922
 2572SOL     OW 7733   3.164   2.717   4.033
 2572SOL    HW1 7734   3.078   2.686   4.075
 2572SOL    HW2 7735   3.160   2.703   3.934
 2573SOL     OW 7736   3.621   3.609   4.878
 2573SOL    HW1 7737   3.682   3.639   4.805
 2573SOL    HW2 7738   3.583   3.520   4.856
 2574SOL     OW 7739   1.945   3.120   4.746
 2574SOL    HW1 7740   1.940   3.119   4.846
 2574SOL    HW2 7741   1.862   3.079   4.708
 2575SOL     OW 7742   3.588   1.997   4.247
 2575SOL    HW1 7743   3.661   1.980   4.180
 2575SOL    HW2 7744   3.557   1.910   4.285
 2576SOL     OW 7745   3.250   3.435   4.201
 2576SOL    HW1 7746   3.317   3.447   4.127
 2576SOL    HW2 7747   3.210   3.524   4.224
 2577SOL     OW 7748   3.142   2.789   4.396
 2577SOL    HW1 7749   3.202   2.708   4.398
 2577SOL    HW2 7750   3.182   2.858   4.336
 2578SOL     OW 7751   2.534   3.478   3.878
 2578SOL    HW1 7752   2.543   3.488   3.779
 2578SOL    HW2 7753   2.494   3.389   3.899
 2579SOL     OW 7754   3.703   2.037   4.687
 2579SOL    HW1 7755   3.742   1.952   4.651
 2579SOL    HW2 7756   3.605   2.039   4.668
 2580SOL     OW 7757   2.125   2.188   4.444
 2580SOL    HW1 7758   2.046   2.239   4.410
 2580SOL    HW2 7759   2.116   2.173   4.542
 2581SOL     OW 7760   3.056   3.474   3.755
 2581SOL    HW1 7761   3.062   3.381   3.792
 2581SOL    HW2 7762   2.997   3.474   3.675
 2582SOL     OW 7763   2.684   2.864   5.096
 2582SOL    HW1 7764   2.724   2.863   5.004
 2582SOL    HW2 7765   2.694   2.956   5.136
 2583SOL     OW 7766   2.778   2.772   4.015
 2583SOL    HW1 7767   2.841   2.810   3.947
 2583SOL    HW2 7768   2.818   2.689   4.054
 2584SOL     OW 7769   3.366   3.469   3.768
 2584SOL    HW1 7770   3.274   3.506   3.775
 2584SOL    HW2 7771   3.404   3.489   3.678
 2585SOL     OW 7772   2.901   2.960   4.420
 2585SOL    HW1 7773   2.831   2.913   4.474
 2585SOL    HW2 7774   2.960   2.892   4.377
 2586SOL     OW 7775   2.876   2.098   4.695
 2586SOL    HW1 7776   2.868   2.062   4.602
 2586SOL    HW2 7777   2.874   2.022   4.760
 2587SOL     OW 7778   2.452   3.349   4.215
 2587SOL    HW1 7779   2.494   3.291   4.145
 2587SOL    HW2 7780   2.408   3.428   4.171
 2588SOL     OW 7781   3.571   2.247   5.105
 2588SOL    HW1 7782   3.644   2.316   5.109
 2588SOL    HW2 7783   3.599   2.172   5.046
 2589SOL     OW 7784   2.117   3.210   4.014
 2589SOL    HW1 7785   2.021   3.211   3.987
 2589SOL    HW2 7786   2.129   3.263   4.098
 2590SOL     OW 7787   1.937   2.207   3.757
 2590SOL    HW1 7788   1.845   2.179   3.728
 2590SOL    HW2 7789   1.968   2.284   3.701
 2591SOL     OW 7790   1.934   2.028   4.042
 2591SOL    HW1 7791   1.917   2.111   3.988
 2591SOL    HW2 7792   2.024   1.991   4.020
 2592SOL     OW 7793   3.045   3.197   3.843
 2592SOL    HW1 7794   2.946   3.186   3.845
 2592SOL    HW2 7795   3.079   3.212   3.936
 2593SOL     OW 7796   3.355   3.629   4.683
 2593SOL    HW1 7797   3.388   3.693   4.614
 2593SOL    HW2 7798   3.421   3.623   4.758
 2594SOL     OW 7799   3.536   2.745   4.978
 2594SOL    HW1 7800   3.509   2.656   4.941
 2594SOL    HW2 7801   3.537   2.813   4.905
 2595SOL     OW 7802   3.087   2.187   4.173
 2595SOL    HW1 7803   3.152   2.113   4.162
 2595SOL    HW2 7804   3.107   2.237   4.257
 2596SOL     OW 7805   2.456   2.607   4.376
 2596SOL    HW1 7806   2.506   2.692   4.357
 2596SOL    HW2 7807   2.368   2.609   4.328
 2597SOL     OW 7808   2.721   3.236   3.740
 2597SOL    HW1 7809   2.675   3.251   3.828
 2597SOL    HW2 7810   2.765   3.321   3.710
 2598SOL     OW 7811   2.523   3.652   4.677
 2598SOL    HW1 7812   2.477   3.740   4.664
 2598SOL    HW2 7813   2.622   3.664   4.670
 2599SOL     OW 7814   2.721   2.818   4.585
 2599SOL    HW1 7815   2.775   2.749   4.633
 2599SOL    HW2 7816   2.689   2.887   4.651
 2600SOL     OW 7817   2.945   2.846   3.811
 2600SOL    HW1 7818   2.922   2.899   3.729
 2600SOL    HW2 7819   3.026   2.790   3.792
 2601SOL     OW 7820   3.723   3.431   4.575
 2601SOL    HW1 7821   3.652   3.419   4.505
 2601SOL    HW2 7822   3.724   3.352   4.635
 2602SOL     OW 7823   1.941   3.102   4.377
 2602SOL    HW1 7824   1.940   3.055   4.465
 2602SOL    HW2 7825   2.023   3.074   4.326
 2603SOL     OW 7826   3.686   2.054   4.951
 2603SOL    HW1 7827   3.682   1.964   4.995
 2603SOL    HW2 7828   3.689   2.043   4.852
 2604SOL     OW 7829   2.290   2.286   4.244
 2604SOL    HW1 7830   2.320   2.214   4.182
 2604SOL    HW2 7831   2.251   2.246   4.327
 2605SOL     OW 7832   3.567   3.349   4.828
 2605SOL    HW1 7833   3.474   3.324   4.801
 2605SOL    HW2 7834   3.593   3.299   4.910
 2606SOL     OW 7835   2.674   3.448   4.411
 2606SOL    HW1 7836   2.706   3.458   4.317
 2606SOL    HW2 7837   2.595   3.386   4.413
 2607SOL     OW 7838   3.286   2.076   4.836
 2607SOL    HW1 7839   3.338   2.011   4.891
 2607SOL    HW2 7840   3.237   2.139   4.897
 2608SOL     OW 7841   2.632   3.192   4.025
 2608SOL    HW1 7842   2.586   3.105   4.042
 2608SOL    HW2 7843   2.723   3.189   4.066
 2609SOL     OW 7844   3.214   1.914   3.892
 2609SOL    HW1 7845   3.249   1.873   3.808
 2609SOL    HW2 7846   3.124   1.876   3.912
 2610SOL     OW 7847   3.162   2.315   4.415
 2610SOL    HW1 7848   3.103   2.395   4.419
 2610SOL    HW2 7849   3.177   2.280   4.508
 2611SOL     OW 7850   3.455   2.083   4.606
 2611SOL    HW1 7851   3.371   2.082   4.660
 2611SOL    HW2 7852   3.457   2.166   4.550
 2612SOL     OW 7853   1.901   2.939   4.024
 2612SOL    HW1 7854   2.000   2.928   4.015
 2612SOL    HW2 7855   1.861   2.853   4.056
 2613SOL     OW 7856   2.737   3.508   4.061
 2613SOL    HW1 7857   2.660   3.473   4.007
 2613SOL    HW2 7858   2.705   3.579   4.123
 2614SOL     OW 7859   2.092   4.352   0.113
 2614SOL    HW1 7860   1.999   4.350   0.150
 2614SOL    HW2 7861   2.093   4.313   0.021
 2615SOL     OW 7862   2.087   3.999   0.996
 2615SOL    HW1 7863   2.122   3.982   1.088
 2615SOL    HW2 7864   1.999   3.954   0.984
 2616SOL     OW 7865   1.881   4.092   0.647
 2616SOL    HW1 7866   1.799   4.135   0.686
 2616SOL    HW2 7867   1.853   4.019   0.584
 2617SOL     OW 7868   2.997   4.427   0.717
 2617SOL    HW1 7869   3.054   4.505   0.692
 2617SOL    HW2 7870   2.937   4.453   0.793
 2618SOL     OW 7871   3.617   4.331   0.231
 2618SOL    HW1 7872   3.605   4.318   0.132
 2618SOL    HW2 7873   3.587   4.250   0.280
 2619SOL     OW 7874   2.630   4.868   1.023
 2619SOL    HW1 7875   2.552   4.885   1.083
 2619SOL    HW2 7876   2.664   4.955   0.987
 2620SOL     OW 7877   2.712   4.522   1.823
 2620SOL    HW1 7878   2.708   4.598   1.888
 2620SOL    HW2 7879   2.734   4.558   1.732
 2621SOL     OW 7880   2.547   4.736   0.665
 2621SOL    HW1 7881   2.616   4.720   0.735
 2621SOL    HW2 7882   2.474   4.793   0.703
 2622SOL     OW 7883   3.322   5.229   1.339
 2622SOL    HW1 7884   3.346   5.323   1.365
 2622SOL    HW2 7885   3.306   5.175   1.421
 2623SOL     OW 7886   2.300   4.116   1.499
 2623SOL    HW1 7887   2.382   4.060   1.508
 2623SOL    HW2 7888   2.219   4.058   1.503
 2624SOL     OW 7889   3.465   4.171   0.737
 2624SOL    HW1 7890   3.391   4.217   0.687
 2624SOL    HW2 7891   3.516   4.239   0.790
 2625SOL     OW 7892   2.102   4.815   0.886
 2625SOL    HW1 7893   2.116   4.731   0.938
 2625SOL    HW2 7894   2.047   4.879   0.941
 2626SOL     OW 7895   2.468   4.688   0.123
 2626SOL    HW1 7896   2.475   4.772   0.069
 2626SOL    HW2 7897   2.514   4.701   0.211
 2627SOL     OW 7898   3.456   3.838   1.480
 2627SOL    HW1 7899   3.438   3.905   1.408
 2627SOL    HW2 7900   3.453   3.884   1.569
 2628SOL     OW 7901   1.984   4.367   0.563
 2628SOL    HW1 7902   1.939   4.279   0.580
 2628SOL    HW2 7903   1.983   4.421   0.647
 2629SOL     OW 7904   3.551   4.646   0.612
 2629SOL    HW1 7905   3.646   4.617   0.620
 2629SOL    HW2 7906   3.543   4.711   0.537
 2630SOL     OW 7907   1.975   4.461   1.597
 2630SOL    HW1 7908   2.063   4.448   1.642
 2630SOL    HW2 7909   1.962   4.558   1.575
 2631SOL     OW 7910   2.475   5.089   0.726
 2631SOL    HW1 7911   2.426   5.002   0.735
 2631SOL    HW2 7912   2.452   5.132   0.639
 2632SOL     OW 7913   3.155   4.952   1.423
 2632SOL    HW1 7914   3.192   4.879   1.365
 2632SOL    HW2 7915   3.207   4.957   1.508
 2633SOL     OW 7916   2.671   3.728   0.502
 2633SOL    HW1 7917   2.711   3.819   0.493
 2633SOL    HW2 7918   2.571   3.736   0.508
 2634SOL     OW 7919   2.059   4.700   1.264
 2634SOL    HW1 7920   2.148   4.655   1.250
 2634SOL    HW2 7921   1.986   4.635   1.245
 2635SOL     OW 7922   3.387   4.723   0.190
 2635SOL    HW1 7923   3.324   4.647   0.203
 2635SOL    HW2 7924   3.435   4.741   0.276
 2636SOL     OW 7925   2.179   3.975   1.801
 2636SOL    HW1 7926   2.250   4.046   1.807
 2636SOL    HW2 7927   2.091   4.014   1.829
 2637SOL     OW 7928   2.460   4.453   0.270
 2637SOL    HW1 7929   2.484   4.522   0.202
 2637SOL    HW2 7930   2.382   4.486   0.324
 2638SOL     OW 7931   3.143   4.069   0.944
 2638SOL    HW1 7932   3.057   4.019   0.931
 2638SOL    HW2 7933   3.205   4.015   1.000
 2639SOL     OW 7934   2.669   4.329   1.465
 2639SOL    HW1 7935   2.622   4.326   1.554
 2639SOL    HW2 7936   2.618   4.274   1.399
 2640SOL     OW 7937   3.256   4.193   1.674
 2640SOL    HW1 7938   3.236   4.236   1.762
 2640SOL    HW2 7939   3.334   4.131   1.683
 2641SOL     OW 7940   2.835   4.614   1.572
 2641SOL    HW1 7941   2.881   4.530   1.543
 2641SOL    HW2 7942   2.779   4.648   1.497
 2642SOL     OW 7943   2.853   4.134   1.242
 2642SOL    HW1 7944   2.776   4.168   1.296
 2642SOL    HW2 7945   2.819   4.083   1.163
 2643SOL     OW 7946   2.903   4.425   0.429
 2643SOL    HW1 7947   2.929   4.421   0.525
 2643SOL    HW2 7948   2.818   4.374   0.415
 2644SOL     OW 7949   1.938   4.535   0.789
 2644SOL    HW1 7950   2.037   4.523   0.798
 2644SOL    HW2 7951   1.914   4.630   0.810
 2645SOL     OW 7952   2.727   4.072   0.195
 2645SOL    HW1 7953   2.786   4.135   0.146
 2645SOL    HW2 7954   2.746   3.978   0.166
 2646SOL     OW 7955   3.581   4.309   1.831
 2646SOL    HW1 7956   3.555   4.398   1.795
 2646SOL    HW2 7957   3.579   4.241   1.758
 2647SOL     OW 7958   2.412   3.920   0.885
 2647SOL    HW1 7959   2.407   3.915   0.985
 2647SOL    HW2 7960   2.414   4.016   0.856
 2648SOL     OW 7961   3.657   4.790   0.873
 2648SOL    HW1 7962   3.595   4.775   0.797
 2648SOL    HW2 7963   3.605   4.801   0.958
 2649SOL     OW 7964   2.183   4.667   0.242
 2649SOL    HW1 7965   2.265   4.706   0.200
 2649SOL    HW2 7966   2.156   4.585   0.193
 2650SOL     OW 7967   3.320   4.459   0.728
 2650SOL    HW1 7968   3.315   4.394   0.803
 2650SOL    HW2 7969   3.400   4.518   0.741
 2651SOL     OW 7970   2.064   4.009   1.498
 2651SOL    HW1 7971   1.984   4.069   1.485
 2651SOL    HW2 7972   2.054   3.960   1.584
 2652SOL     OW 7973   3.262   3.831   0.426
 2652SOL    HW1 7974   3.238   3.794   0.336
 2652SOL    HW2 7975   3.361   3.847   0.430
 2653SOL     OW 7976   2.244   4.424   0.480
 2653SOL    HW1 7977   2.289   4.334   0.477
 2653SOL    HW2 7978   2.150   4.413   0.513
 2654SOL     OW 7979   3.409   3.946   1.729
 2654SOL    HW1 7980   3.404   3.983   1.821
 2654SOL    HW2 7981   3.337   3.877   1.717
 2655SOL     OW 7982   2.476   3.846   0.117
 2655SOL    HW1 7983   2.574   3.824   0.124
 2655SOL    HW2 7984   2.445   3.829   0.024
 2656SOL     OW 7985   2.643   3.988   1.749
 2656SOL    HW1 7986   2.710   3.927   1.792
 2656SOL    HW2 7987   2.570   4.007   1.814
 2657SOL     OW 7988   3.213   4.314   1.433
 2657SOL    HW1 7989   3.241   4.271   1.518
 2657SOL    HW2 7990   3.238   4.410   1.434
 2658SOL     OW 7991   2.784   4.227   0.899
 2658SOL    HW1 7992   2.759   4.218   0.803
 2658SOL    HW2 7993   2.832   4.145   0.930
 2659SOL     OW 7994   2.401   3.788   0.512
 2659SOL    HW1 7995   2.320   3.789   0.570
 2659SOL    HW2 7996   2.404   3.871   0.457
 2660SOL     OW 7997   2.159   3.759   0.171
 2660SOL    HW1 7998   2.208   3.843   0.150
 2660SOL    HW2 7999   2.221   3.694   0.216
 2661SOL     OW 8000   2.797   3.960   0.480
 2661SOL    HW1 8001   2.749   4.001   0.402
 2661SOL    HW2 8002   2.896   3.958   0.461
 2662SOL     OW 8003   2.938   4.407   1.464
 2662SOL    HW1 8004   2.858   4.346   1.467
 2662SOL    HW2 8005   3.019   4.354   1.440
 2663SOL     OW 8006   2.321   4.876   0.741
 2663SOL    HW1 8007   2.250   4.849   0.806
 2663SOL    HW2 8008   2.295   4.848   0.648
 2664SOL     OW 8009   2.894   4.273   0.016
 2664SOL    HW1 8010   2.853   4.355  -0.023
 2664SOL    HW2 8011   2.958   4.299   0.089
 2665SOL     OW 8012   1.940   4.280   1.386
 2665SOL    HW1 8013   2.032   4.279   1.345
 2665SOL    HW2 8014   1.934   4.354   1.453
 2666SOL     OW 8015   2.423   3.946   1.147
 2666SOL    HW1 8016   2.461   3.862   1.184
 2666SOL    HW2 8017   2.335   3.965   1.191
 2667SOL     OW 8018   2.728   4.178   0.642
 2667SOL    HW1 8019   2.696   4.250   0.580
 2667SOL    HW2 8020   2.752   4.097   0.589
 2668SOL     OW 8021   2.879   3.763   0.753
 2668SOL    HW1 8022   2.807   3.768   0.684
 2668SOL    HW2 8023   2.855   3.694   0.822
 2669SOL     OW 8024   3.291   4.897   0.867
 2669SOL    HW1 8025   3.236   4.813   0.860
 2669SOL    HW2 8026   3.317   4.926   0.775
 2670SOL     OW 8027   3.328   4.314   0.992
 2670SOL    HW1 8028   3.298   4.219   0.999
 2670SOL    HW2 8029   3.401   4.330   1.058
 2671SOL     OW 8030   3.719   4.557   0.377
 2671SOL    HW1 8031   3.761   4.493   0.441
 2671SOL    HW2 8032   3.681   4.506   0.299
 2672SOL     OW 8033   3.252   4.299   0.078
 2672SOL    HW1 8034   3.198   4.278   0.159
 2672SOL    HW2 8035   3.343   4.258   0.087
 2673SOL     OW 8036   2.389   3.980   0.328
 2673SOL    HW1 8037   2.416   3.921   0.253
 2673SOL    HW2 8038   2.389   4.075   0.297
 2674SOL     OW 8039   3.616   4.947   1.588
 2674SOL    HW1 8040   3.707   4.908   1.575
 2674SOL    HW2 8041   3.624   5.043   1.612
 2675SOL     OW 8042   3.500   4.823   1.079
 2675SOL    HW1 8043   3.505   4.904   1.138
 2675SOL    HW2 8044   3.414   4.825   1.028
 2676SOL     OW 8045   2.777   3.813   1.402
 2676SOL    HW1 8046   2.802   3.793   1.307
 2676SOL    HW2 8047   2.849   3.869   1.444
 2677SOL     OW 8048   2.567   4.774   0.368
 2677SOL    HW1 8049   2.553   4.781   0.467
 2677SOL    HW2 8050   2.651   4.723   0.350
 2678SOL     OW 8051   2.272   4.537   1.251
 2678SOL    HW1 8052   2.358   4.549   1.301
 2678SOL    HW2 8053   2.230   4.450   1.278
 2679SOL     OW 8054   3.136   4.110   1.262
 2679SOL    HW1 8055   3.157   4.184   1.326
 2679SOL    HW2 8056   3.047   4.127   1.219
 2680SOL     OW 8057   2.229   4.824   0.501
 2680SOL    HW1 8058   2.222   4.907   0.445
 2680SOL    HW2 8059   2.233   4.744   0.441
 2681SOL     OW 8060   2.428   4.261   0.865
 2681SOL    HW1 8061   2.440   4.327   0.791
 2681SOL    HW2 8062   2.474   4.295   0.948
 2682SOL     OW 8063   3.444   4.363   0.472
 2682SOL    HW1 8064   3.413   4.424   0.545
 2682SOL    HW2 8065   3.494   4.415   0.403
 2683SOL     OW 8066   2.264   4.475   1.598
 2683SOL    HW1 8067   2.332   4.530   1.551
 2683SOL    HW2 8068   2.304   4.387   1.625
 2684SOL     OW 8069   3.449   4.503   1.670
 2684SOL    HW1 8070   3.357   4.541   1.665
 2684SOL    HW2 8071   3.509   4.550   1.605
 2685SOL     OW 8072   2.875   3.829   1.770
 2685SOL    HW1 8073   2.881   3.914   1.718
 2685SOL    HW2 8074   2.907   3.753   1.713
 2686SOL     OW 8075   2.366   3.774   1.740
 2686SOL    HW1 8076   2.324   3.717   1.670
 2686SOL    HW2 8077   2.300   3.843   1.772
 2687SOL     OW 8078   2.435   4.594   1.029
 2687SOL    HW1 8079   2.479   4.683   1.020
 2687SOL    HW2 8080   2.372   4.594   1.106
 2688SOL     OW 8081   3.222   4.586   1.045
 2688SOL    HW1 8082   3.147   4.586   0.979
 2688SOL    HW2 8083   3.259   4.494   1.054
 2689SOL     OW 8084   3.071   4.249   0.275
 2689SOL    HW1 8085   3.084   4.165   0.329
 2689SOL    HW2 8086   3.042   4.323   0.335
 2690SOL     OW 8087   2.169   3.937   1.231
 2690SOL    HW1 8088   2.146   3.974   1.321
 2690SOL    HW2 8089   2.139   3.842   1.225
 2691SOL     OW 8090   2.594   4.358   1.064
 2691SOL    HW1 8091   2.653   4.332   0.988
 2691SOL    HW2 8092   2.566   4.454   1.053
 2692SOL     OW 8093   3.590   4.659   1.854
 2692SOL    HW1 8094   3.544   4.652   1.765
 2692SOL    HW2 8095   3.528   4.703   1.920
 2693SOL     OW 8096   2.169   3.787   0.618
 2693SOL    HW1 8097   2.158   3.881   0.651
 2693SOL    HW2 8098   2.164   3.724   0.695
 2694SOL     OW 8099   3.484   4.091   0.374
 2694SOL    HW1 8100   3.486   4.015   0.438
 2694SOL    HW2 8101   3.436   4.168   0.414
 2695SOL     OW 8102   2.885   4.490   0.966
 2695SOL    HW1 8103   2.900   4.511   1.062
 2695SOL    HW2 8104   2.855   4.395   0.957
 2696SOL     OW 8105   2.212   4.622   1.804
 2696SOL    HW1 8106   2.288   4.666   1.852
 2696SOL    HW2 8107   2.247   4.575   1.722
 2697SOL     OW 8108   3.402   3.998   0.125
 2697SOL    HW1 8109   3.341   3.923   0.148
 2697SOL    HW2 8110   3.424   4.050   0.208
 2698SOL     OW 8111   3.165   4.562   0.042
 2698SOL    HW1 8112   3.199   4.469   0.057
 2698SOL    HW2 8113   3.183   4.589  -0.053
 2699SOL     OW 8114   2.181   4.534   0.949
 2699SOL    HW1 8115   2.274   4.570   0.954
 2699SOL    HW2 8116   2.175   4.449   1.001
 2700SOL     OW 8117   2.201   4.233   1.006
 2700SOL    HW1 8118   2.149   4.150   0.989
 2700SOL    HW2 8119   2.278   4.238   0.942
 2701SOL     OW 8120   3.000   4.104   1.678
 2701SOL    HW1 8121   2.955   4.167   1.742
 2701SOL    HW2 8122   3.093   4.135   1.661
 2702SOL     OW 8123   3.022   3.931   1.477
 2702SOL    HW1 8124   3.022   3.995   1.554
 2702SOL    HW2 8125   3.050   3.979   1.394
 2703SOL     OW 8126   2.864   4.520   1.238
 2703SOL    HW1 8127   2.905   4.488   1.324
 2703SOL    HW2 8128   2.768   4.493   1.235
 2704SOL     OW 8129   1.902   4.268   1.114
 2704SOL    HW1 8130   1.987   4.235   1.073
 2704SOL    HW2 8131   1.915   4.283   1.212
 2705SOL     OW 8132   2.051   4.244   1.722
 2705SOL    HW1 8133   2.110   4.204   1.652
 2705SOL    HW2 8134   1.993   4.315   1.681
 2706SOL     OW 8135   3.231   4.674   1.660
 2706SOL    HW1 8136   3.270   4.763   1.680
 2706SOL    HW2 8137   3.241   4.654   1.563
 2707SOL     OW 8138   2.677   4.296   0.325
 2707SOL    HW1 8139   2.684   4.207   0.279
 2707SOL    HW2 8140   2.583   4.330   0.317
 2708SOL     OW 8141   3.519   4.328   1.206
 2708SOL    HW1 8142   3.481   4.259   1.268
 2708SOL    HW2 8143   3.601   4.292   1.162
 2709SOL     OW 8144   2.533   4.188   1.269
 2709SOL    HW1 8145   2.499   4.099   1.239
 2709SOL    HW2 8146   2.559   4.242   1.189
 2710SOL     OW 8147   2.335   4.224   0.191
 2710SOL    HW1 8148   2.396   4.304   0.195
 2710SOL    HW2 8149   2.240   4.255   0.198
 2711SOL     OW 8150   2.021   4.861   1.466
 2711SOL    HW1 8151   2.043   4.800   1.542
 2711SOL    HW2 8152   2.031   4.812   1.380
 2712SOL     OW 8153   3.209   4.783   1.234
 2712SOL    HW1 8154   3.233   4.720   1.160
 2712SOL    HW2 8155   3.119   4.823   1.216
 2713SOL     OW 8156   3.164   4.579   0.309
 2713SOL    HW1 8157   3.078   4.548   0.351
 2713SOL    HW2 8158   3.160   4.565   0.210
 2714SOL     OW 8159   2.765   3.810   0.133
 2714SOL    HW1 8160   2.816   3.811   0.047
 2714SOL    HW2 8161   2.821   3.768   0.204
 2715SOL     OW 8162   3.588   3.859   0.523
 2715SOL    HW1 8163   3.661   3.842   0.456
 2715SOL    HW2 8164   3.557   3.772   0.561
 2716SOL     OW 8165   3.142   4.651   0.672
 2716SOL    HW1 8166   3.202   4.570   0.674
 2716SOL    HW2 8167   3.182   4.720   0.612
 2717SOL     OW 8168   3.703   3.899   0.963
 2717SOL    HW1 8169   3.742   3.814   0.927
 2717SOL    HW2 8170   3.605   3.901   0.944
 2718SOL     OW 8171   2.125   4.050   0.720
 2718SOL    HW1 8172   2.046   4.101   0.686
 2718SOL    HW2 8173   2.116   4.035   0.818
 2719SOL     OW 8174   2.684   4.726   1.372
 2719SOL    HW1 8175   2.724   4.725   1.280
 2719SOL    HW2 8176   2.694   4.818   1.412
 2720SOL     OW 8177   2.778   4.634   0.291
 2720SOL    HW1 8178   2.841   4.672   0.223
 2720SOL    HW2 8179   2.818   4.551   0.330
 2721SOL     OW 8180   2.234   5.012   1.490
 2721SOL    HW1 8181   2.221   5.105   1.456
 2721SOL    HW2 8182   2.150   4.960   1.477
 2722SOL     OW 8183   2.876   3.960   0.971
 2722SOL    HW1 8184   2.868   3.924   0.878
 2722SOL    HW2 8185   2.874   3.884   1.036
 2723SOL     OW 8186   3.571   4.109   1.381
 2723SOL    HW1 8187   3.644   4.178   1.385
 2723SOL    HW2 8188   3.599   4.034   1.322
 2724SOL     OW 8189   1.967   4.737   1.726
 2724SOL    HW1 8190   1.890   4.704   1.780
 2724SOL    HW2 8191   2.052   4.707   1.768
 2725SOL     OW 8192   2.534   3.927   1.489
 2725SOL    HW1 8193   2.624   3.911   1.449
 2725SOL    HW2 8194   2.542   3.932   1.588
 2726SOL     OW 8195   3.302   4.580   1.398
 2726SOL    HW1 8196   3.245   4.632   1.335
 2726SOL    HW2 8197   3.398   4.592   1.374
 2727SOL     OW 8198   1.934   3.890   0.318
 2727SOL    HW1 8199   1.917   3.973   0.264
 2727SOL    HW2 8200   2.024   3.853   0.296
 2728SOL     OW 8201   2.475   4.566   1.431
 2728SOL    HW1 8202   2.531   4.647   1.414
 2728SOL    HW2 8203   2.534   4.486   1.434
 2729SOL     OW 8204   2.578   4.289   1.708
 2729SOL    HW1 8205   2.597   4.354   1.782
 2729SOL    HW2 8206   2.638   4.209   1.717
 2730SOL     OW 8207   3.312   4.944   1.633
 2730SOL    HW1 8208   3.303   4.934   1.732
 2730SOL    HW2 8209   3.408   4.937   1.607
 2731SOL     OW 8210   3.536   4.607   1.254
 2731SOL    HW1 8211   3.509   4.518   1.217
 2731SOL    HW2 8212   3.537   4.675   1.181
 2732SOL     OW 8213   3.087   4.049   0.449
 2732SOL    HW1 8214   3.152   3.975   0.438
 2732SOL    HW2 8215   3.107   4.099   0.533
 2733SOL     OW 8216   2.456   4.469   0.652
 2733SOL    HW1 8217   2.506   4.554   0.633
 2733SOL    HW2 8218   2.368   4.471   0.604
 2734SOL     OW 8219   3.639   4.066   1.642
 2734SOL    HW1 8220   3.622   4.097   1.548
 2734SOL    HW2 8221   3.555   4.029   1.680
 2735SOL     OW 8222   3.592   4.658   1.517
 2735SOL    HW1 8223   3.630   4.749   1.532
 2735SOL    HW2 8224   3.584   4.641   1.418
 2736SOL     OW 8225   2.721   4.680   0.861
 2736SOL    HW1 8226   2.775   4.611   0.909
 2736SOL    HW2 8227   2.689   4.749   0.927
 2737SOL     OW 8228   2.945   4.708   0.087
 2737SOL    HW1 8229   2.922   4.761   0.005
 2737SOL    HW2 8230   3.026   4.652   0.068
 2738SOL     OW 8231   1.941   4.964   0.653
 2738SOL    HW1 8232   1.940   4.917   0.741
 2738SOL    HW2 8233   2.023   4.936   0.602
 2739SOL     OW 8234   3.686   3.916   1.227
 2739SOL    HW1 8235   3.682   3.826   1.271
 2739SOL    HW2 8236   3.689   3.905   1.128
 2740SOL     OW 8237   2.290   4.148   0.520
 2740SOL    HW1 8238   2.320   4.076   0.458
 2740SOL    HW2 8239   2.251   4.108   0.603
 2741SOL     OW 8240   2.179   4.271   1.280
 2741SOL    HW1 8241   2.217   4.212   1.352
 2741SOL    HW2 8242   2.219   4.245   1.192
 2742SOL     OW 8243   3.286   3.938   1.112
 2742SOL    HW1 8244   3.338   3.873   1.167
 2742SOL    HW2 8245   3.237   4.001   1.173
 2743SOL     OW 8246   2.863   3.758   1.154
 2743SOL    HW1 8247   2.800   3.686   1.123
 2743SOL    HW2 8248   2.956   3.722   1.154
 2744SOL     OW 8249   2.632   5.054   0.301
 2744SOL    HW1 8250   2.586   4.967   0.318
 2744SOL    HW2 8251   2.723   5.051   0.342
 2745SOL     OW 8252   3.214   3.776   0.168
 2745SOL    HW1 8253   3.249   3.735   0.084
 2745SOL    HW2 8254   3.124   3.738   0.188
 2746SOL     OW 8255   3.162   4.177   0.691
 2746SOL    HW1 8256   3.103   4.257   0.695
 2746SOL    HW2 8257   3.177   4.142   0.784
 2747SOL     OW 8258   3.455   3.945   0.882
 2747SOL    HW1 8259   3.371   3.944   0.936
 2747SOL    HW2 8260   3.457   4.028   0.826
 2748SOL     OW 8261   2.092   4.352   1.975
 2748SOL    HW1 8262   1.999   4.350   2.012
 2748SOL    HW2 8263   2.093   4.313   1.883
 2749SOL     OW 8264   2.087   3.999   2.858
 2749SOL    HW1 8265   2.122   3.982   2.950
 2749SOL    HW2 8266   1.999   3.954   2.846
 2750SOL     OW 8267   1.881   4.092   2.509
 2750SOL    HW1 8268   1.799   4.135   2.548
 2750SOL    HW2 8269   1.853   4.019   2.446
 2751SOL     OW 8270   2.997   4.427   2.579
 2751SOL    HW1 8271   3.054   4.505   2.554
 2751SOL    HW2 8272   2.937   4.453   2.655
 2752SOL     OW 8273   3.617   4.331   2.093
 2752SOL    HW1 8274   3.605   4.318   1.994
 2752SOL    HW2 8275   3.587   4.250   2.142
 2753SOL     OW 8276   2.630   4.868   2.885
 2753SOL    HW1 8277   2.552   4.885   2.945
 2753SOL    HW2 8278   2.664   4.955   2.849
 2754SOL     OW 8279   2.712   4.522   3.685
 2754SOL    HW1 8280   2.708   4.598   3.750
 2754SOL    HW2 8281   2.734   4.558   3.594
 2755SOL     OW 8282   2.547   4.736   2.527
 2755SOL    HW1 8283   2.616   4.720   2.597
 2755SOL    HW2 8284   2.474   4.793   2.565
 2756SOL     OW 8285   3.322   5.229   3.201
 2756SOL    HW1 8286   3.346   5.323   3.227
 2756SOL    HW2 8287   3.306   5.175   3.283
 2757SOL     OW 8288   2.300   4.116   3.361
 2757SOL    HW1 8289   2.382   4.060   3.370
 2757SOL    HW2 8290   2.219   4.058   3.365
 2758SOL     OW 8291   3.465   4.171   2.599
 2758SOL    HW1 8292   3.391   4.217   2.549
 2758SOL    HW2 8293   3.516   4.239   2.652
 2759SOL     OW 8294   2.102   4.815   2.748
 2759SOL    HW1 8295   2.116   4.731   2.800
 2759SOL    HW2 8296   2.047   4.879   2.803
 2760SOL     OW 8297   2.468   4.688   1.985
 2760SOL    HW1 8298   2.475   4.772   1.931
 2760SOL    HW2 8299   2.514   4.701   2.073
 2761SOL     OW 8300   3.456   3.838   3.342
 2761SOL    HW1 8301   3.438   3.905   3.270
 2761SOL    HW2 8302   3.453   3.884   3.431
 2762SOL     OW 8303   1.984   4.367   2.425
 2762SOL    HW1 8304   1.939   4.279   2.442
 2762SOL    HW2 8305   1.983   4.421   2.509
 2763SOL     OW 8306   3.551   4.646   2.474
 2763SOL    HW1 8307   3.646   4.617   2.482
 2763SOL    HW2 8308   3.543   4.711   2.399
 2764SOL     OW 8309   1.975   4.461   3.459
 2764SOL    HW1 8310   2.063   4.448   3.504
 2764SOL    HW2 8311   1.962   4.558   3.437
 2765SOL     OW 8312   2.475   5.089   2.588
 2765SOL    HW1 8313   2.426   5.002   2.597
 2765SOL    HW2 8314   2.452   5.132   2.501
 2766SOL     OW 8315   3.155   4.952   3.285
 2766SOL    HW1 8316   3.192   4.879   3.227
 2766SOL    HW2 8317   3.207   4.957   3.370
 2767SOL     OW 8318   2.671   3.728   2.364
 2767SOL    HW1 8319   2.711   3.819   2.355
 2767SOL    HW2 8320   2.571   3.736   2.370
 2768SOL     OW 8321   2.059   4.700   3.126
 2768SOL    HW1 8322   2.148   4.655   3.112
 2768SOL    HW2 8323   1.986   4.635   3.107
 2769SOL     OW 8324   3.387   4.723   2.052
 2769SOL    HW1 8325   3.324   4.647   2.065
 2769SOL    HW2 8326   3.435   4.741   2.138
 2770SOL     OW 8327   2.179   3.975   3.663
 2770SOL    HW1 8328   2.250   4.046   3.669
 2770SOL    HW2 8329   2.091   4.014   3.691
 2771SOL     OW 8330   2.460   4.453   2.132
 2771SOL    HW1 8331   2.484   4.522   2.064
 2771SOL    HW2 8332   2.382   4.486   2.186
 2772SOL     OW 8333   3.143   4.069   2.806
 2772SOL    HW1 8334   3.057   4.019   2.793
 2772SOL    HW2 8335   3.205   4.015   2.862
 2773SOL     OW 8336   2.669   4.329   3.327
 2773SOL    HW1 8337   2.622   4.326   3.416
 2773SOL    HW2 8338   2.618   4.274   3.261
 2774SOL     OW 8339   3.256   4.193   3.536
 2774SOL    HW1 8340   3.236   4.236   3.624
 2774SOL    HW2 8341   3.334   4.131   3.545
 2775SOL     OW 8342   2.835   4.614   3.434
 2775SOL    HW1 8343   2.881   4.530   3.405
 2775SOL    HW2 8344   2.779   4.648   3.359
 2776SOL     OW 8345   2.853   4.134   3.104
 2776SOL    HW1 8346   2.776   4.168   3.158
 2776SOL    HW2 8347   2.819   4.083   3.025
 2777SOL     OW 8348   2.903   4.425   2.291
 2777SOL    HW1 8349   2.929   4.421   2.387
 2777SOL    HW2 8350   2.818   4.374   2.277
 2778SOL     OW 8351   1.938   4.535   2.651
 2778SOL    HW1 8352   2.037   4.523   2.660
 2778SOL    HW2 8353   1.914   4.630   2.672
 2779SOL     OW 8354   2.727   4.072   2.057
 2779SOL    HW1 8355   2.786   4.135   2.008
 2779SOL    HW2 8356   2.746   3.978   2.028
 2780SOL     OW 8357   3.581   4.309   3.693
 2780SOL    HW1 8358   3.555   4.398   3.657
 2780SOL    HW2 8359   3.579   4.241   3.620
 2781SOL     OW 8360   2.412   3.920   2.747
 2781SOL    HW1 8361   2.407   3.915   2.847
 2781SOL    HW2 8362   2.414   4.016   2.718
 2782SOL     OW 8363   3.657   4.790   2.735
 2782SOL    HW1 8364   3.595   4.775   2.659
 2782SOL    HW2 8365   3.605   4.801   2.820
 2783SOL     OW 8366   2.183   4.667   2.104
 2783SOL    HW1 8367   2.265   4.706   2.062
 2783SOL    HW2 8368   2.156   4.585   2.055
 2784SOL     OW 8369   3.320   4.459   2.590
 2784SOL    HW1 8370   3.315   4.394   2.665
 2784SOL    HW2 8371   3.400   4.518   2.603
 2785SOL     OW 8372   2.064   4.009   3.360
 2785SOL    HW1 8373   1.984   4.069   3.347
 2785SOL    HW2 8374   2.054   3.960   3.446
 2786SOL     OW 8375   3.262   3.831   2.288
 2786SOL    HW1 8376   3.238   3.794   2.198
 2786SOL    HW2 8377   3.361   3.847   2.292
 2787SOL     OW 8378   2.244   4.424   2.342
 2787SOL    HW1 8379   2.289   4.334   2.339
 2787SOL    HW2 8380   2.150   4.413   2.375
 2788SOL     OW 8381   3.409   3.946   3.591
 2788SOL    HW1 8382   3.404   3.983   3.683
 2788SOL    HW2 8383   3.337   3.877   3.579
 2789SOL     OW 8384   2.476   3.846   1.979
 2789SOL    HW1 8385   2.574   3.824   1.986
 2789SOL    HW2 8386   2.445   3.829   1.886
 2790SOL     OW 8387   2.643   3.988   3.611
 2790SOL    HW1 8388   2.710   3.927   3.654
 2790SOL    HW2 8389   2.570   4.007   3.676
 2791SOL     OW 8390   3.213   4.314   3.295
 2791SOL    HW1 8391   3.241   4.271   3.380
 2791SOL    HW2 8392   3.238   4.410   3.296
 2792SOL     OW 8393   2.784   4.227   2.761
 2792SOL    HW1 8394   2.759   4.218   2.665
 2792SOL    HW2 8395   2.832   4.145   2.792
 2793SOL     OW 8396   2.401   3.788   2.374
 2793SOL    HW1 8397   2.320   3.789   2.432
 2793SOL    HW2 8398   2.404   3.871   2.319
 2794SOL     OW 8399   2.159   3.759   2.033
 2794SOL    HW1 8400   2.208   3.843   2.012
 2794SOL    HW2 8401   2.221   3.694   2.078
 2795SOL     OW 8402   2.797   3.960   2.342
 2795SOL    HW1 8403   2.749   4.001   2.264
 2795SOL    HW2 8404   2.896   3.958   2.323
 2796SOL     OW 8405   2.938   4.407   3.326
 2796SOL    HW1 8406   2.858   4.346   3.329
 2796SOL    HW2 8407   3.019   4.354   3.302
 2797SOL     OW 8408   2.321   4.876   2.603
 2797SOL    HW1 8409   2.250   4.849   2.668
 2797SOL    HW2 8410   2.295   4.848   2.510
 2798SOL     OW 8411   2.894   4.273   1.878
 2798SOL    HW1 8412   2.853   4.355   1.839
 2798SOL    HW2 8413   2.958   4.299   1.951
 2799SOL     OW 8414   1.940   4.280   3.248
 2799SOL    HW1 8415   2.032   4.279   3.207
 2799SOL    HW2 8416   1.934   4.354   3.315
 2800SOL     OW 8417   2.423   3.946   3.009
 2800SOL    HW1 8418   2.461   3.862   3.046
 2800SOL    HW2 8419   2.335   3.965   3.053
 2801SOL     OW 8420   2.728   4.178   2.504
 2801SOL    HW1 8421   2.696   4.250   2.442
 2801SOL    HW2 8422   2.752   4.097   2.451
 2802SOL     OW 8423   2.879   3.763   2.615
 2802SOL    HW1 8424   2.807   3.768   2.546
 2802SOL    HW2 8425   2.855   3.694   2.684
 2803SOL     OW 8426   3.291   4.897   2.729
 2803SOL    HW1 8427   3.236   4.813   2.722
 2803SOL    HW2 8428   3.317   4.926   2.637
 2804SOL     OW 8429   3.328   4.314   2.854
 2804SOL    HW1 8430   3.298   4.219   2.861
 2804SOL    HW2 8431   3.401   4.330   2.920
 2805SOL     OW 8432   3.719   4.557   2.239
 2805SOL    HW1 8433   3.761   4.493   2.303
 2805SOL    HW2 8434   3.681   4.506   2.161
 2806SOL     OW 8435   3.252   4.299   1.940
 2806SOL    HW1 8436   3.198   4.278   2.021
 2806SOL    HW2 8437   3.343   4.258   1.949
 2807SOL     OW 8438   2.389   3.980   2.190
 2807SOL    HW1 8439   2.416   3.921   2.115
 2807SOL    HW2 8440   2.389   4.075   2.159
 2808SOL     OW 8441   3.616   4.947   3.450
 2808SOL    HW1 8442   3.707   4.908   3.437
 2808SOL    HW2 8443   3.624   5.043   3.474
 2809SOL     OW 8444   3.500   4.823   2.941
 2809SOL    HW1 8445   3.505   4.904   3.000
 2809SOL    HW2 8446   3.414   4.825   2.890
 2810SOL     OW 8447   2.777   3.813   3.264
 2810SOL    HW1 8448   2.802   3.793   3.169
 2810SOL    HW2 8449   2.849   3.869   3.306
 2811SOL     OW 8450   2.567   4.774   2.230
 2811SOL    HW1 8451   2.553   4.781   2.329
 2811SOL    HW2 8452   2.651   4.723   2.212
 2812SOL     OW 8453   2.272   4.537   3.113
 2812SOL    HW1 8454   2.358   4.549   3.163
 2812SOL    HW2 8455   2.230   4.450   3.140
 2813SOL     OW 8456   3.136   4.110   3.124
 2813SOL    HW1 8457   3.157   4.184   3.188
 2813SOL    HW2 8458   3.047   4.127   3.081
 2814SOL     OW 8459   2.229   4.824   2.363
 2814SOL    HW1 8460   2.222   4.907   2.307
 2814SOL    HW2 8461   2.233   4.744   2.303
 2815SOL     OW 8462   2.428   4.261   2.727
 2815SOL    HW1 8463   2.440   4.327   2.653
 2815SOL    HW2 8464   2.474   4.295   2.810
 2816SOL     OW 8465   3.444   4.363   2.334
 2816SOL    HW1 8466   3.413   4.424   2.407
 2816SOL    HW2 8467   3.494   4.415   2.265
 2817SOL     OW 8468   2.264   4.475   3.460
 2817SOL    HW1 8469   2.332   4.530   3.413
 2817SOL    HW2 8470   2.304   4.387   3.487
 2818SOL     OW 8471   3.449   4.503   3.532
 2818SOL    HW1 8472   3.357   4.541   3.527
 2818SOL    HW2 8473   3.509   4.550   3.467
 2819SOL     OW 8474   2.875   3.829   3.632
 2819SOL    HW1 8475   2.881   3.914   3.580
 2819SOL    HW2 8476   2.907   3.753   3.575
 2820SOL     OW 8477   2.366   3.774   3.602
 2820SOL    HW1 8478   2.324   3.717   3.532
 2820SOL    HW2 8479   2.300   3.843   3.634
 2821SOL     OW 8480   2.435   4.594   2.891
 2821SOL    HW1 8481   2.479   4.683   2.882
 2821SOL    HW2 8482   2.372   4.594   2.968
 2822SOL     OW 8483   3.222   4.586   2.907
 2822SOL    HW1 8484   3.147   4.586   2.841
 2822SOL    HW2 8485   3.259   4.494   2.916
 2823SOL     OW 8486   3.071   4.249   2.137
 2823SOL    HW1 8487   3.084   4.165   2.191
 2823SOL    HW2 8488   3.042   4.323   2.197
 2824SOL     OW 8489   2.169   3.937   3.093
 2824SOL    HW1 8490   2.146   3.974   3.183
 2824SOL    HW2 8491   2.139   3.842   3.087
 2825SOL     OW 8492   2.594   4.358   2.926
 2825SOL    HW1 8493   2.653   4.332   2.850
 2825SOL    HW2 8494   2.566   4.454   2.915
 2826SOL     OW 8495   3.590   4.659   3.716
 2826SOL    HW1 8496   3.544   4.652   3.627
 2826SOL    HW2 8497   3.528   4.703   3.782
 2827SOL     OW 8498   2.169   3.787   2.480
 2827SOL    HW1 8499   2.158   3.881   2.513
 2827SOL    HW2 8500   2.164   3.724   2.557
 2828SOL     OW 8501   3.484   4.091   2.236
 2828SOL    HW1 8502   3.486   4.015   2.300
 2828SOL    HW2 8503   3.436   4.168   2.276
 2829SOL     OW 8504   2.885   4.490   2.828
 2829SOL    HW1 8505   2.900   4.511   2.924
 2829SOL    HW2 8506   2.855   4.395   2.819
 2830SOL     OW 8507   2.212   4.622   3.666
 2830SOL    HW1 8508   2.288   4.666   3.714
 2830SOL    HW2 8509   2.247   4.575   3.584
 2831SOL     OW 8510   3.402   3.998   1.987
 2831SOL    HW1 8511   3.341   3.923   2.010
 2831SOL    HW2 8512   3.424   4.050   2.070
 2832SOL     OW 8513   3.165   4.562   1.904
 2832SOL    HW1 8514   3.199   4.469   1.919
 2832SOL    HW2 8515   3.183   4.589   1.809
 2833SOL     OW 8516   2.181   4.534   2.811
 2833SOL    HW1 8517   2.274   4.570   2.816
 2833SOL    HW2 8518   2.175   4.449   2.863
 2834SOL     OW 8519   2.201   4.233   2.868
 2834SOL    HW1 8520   2.149   4.150   2.851
 2834SOL    HW2 8521   2.278   4.238   2.804
 2835SOL     OW 8522   3.000   4.104   3.540
 2835SOL    HW1 8523   2.955   4.167   3.604
 2835SOL    HW2 8524   3.093   4.135   3.523
 2836SOL     OW 8525   3.022   3.931   3.339
 2836SOL    HW1 8526   3.022   3.995   3.416
 2836SOL    HW2 8527   3.050   3.979   3.256
 2837SOL     OW 8528   2.864   4.520   3.100
 2837SOL    HW1 8529   2.905   4.488   3.186
 2837SOL    HW2 8530   2.768   4.493   3.097
 2838SOL     OW 8531   1.902   4.268   2.976
 2838SOL    HW1 8532   1.987   4.235   2.935
 2838SOL    HW2 8533   1.915   4.283   3.074
 2839SOL     OW 8534   2.051   4.244   3.584
 2839SOL    HW1 8535   2.110   4.204   3.514
 2839SOL    HW2 8536   1.993   4.315   3.543
 2840SOL     OW 8537   3.231   4.674   3.522
 2840SOL    HW1 8538   3.270   4.763   3.542
 2840SOL    HW2 8539   3.241   4.654   3.425
 2841SOL     OW 8540   2.677   4.296   2.187
 2841SOL    HW1 8541   2.684   4.207   2.141
 2841SOL    HW2 8542   2.583   4.330   2.179
 2842SOL     OW 8543   3.519   4.328   3.068
 2842SOL    HW1 8544   3.481   4.259   3.130
 2842SOL    HW2 8545   3.601   4.292   3.024
 2843SOL     OW 8546   2.533   4.188   3.131
 2843SOL    HW1 8547   2.499   4.099   3.101
 2843SOL    HW2 8548   2.559   4.242   3.051
 2844SOL     OW 8549   2.335   4.224   2.053
 2844SOL    HW1 8550   2.396   4.304   2.057
 2844SOL    HW2 8551   2.240   4.255   2.060
 2845SOL     OW 8552   2.021   4.861   3.328
 2845SOL    HW1 8553   2.043   4.800   3.404
 2845SOL    HW2 8554   2.031   4.812   3.242
 2846SOL     OW 8555   3.209   4.783   3.096
 2846SOL    HW1 8556   3.233   4.720   3.022
 2846SOL    HW2 8557   3.119   4.823   3.078
 2847SOL     OW 8558   3.164   4.579   2.171
 2847SOL    HW1 8559   3.078   4.548   2.213
 2847SOL    HW2 8560   3.160   4.565   2.072
 2848SOL     OW 8561   3.588   3.859   2.385
 2848SOL    HW1 8562   3.661   3.842   2.318
 2848SOL    HW2 8563   3.557   3.772   2.423
 2849SOL     OW 8564   3.142   4.651   2.534
 2849SOL    HW1 8565   3.202   4.570   2.536
 2849SOL    HW2 8566   3.182   4.720   2.474
 2850SOL     OW 8567   3.703   3.899   2.825
 2850SOL    HW1 8568   3.742   3.814   2.789
 2850SOL    HW2 8569   3.605   3.901   2.806
 2851SOL     OW 8570   2.125   4.050   2.582
 2851SOL    HW1 8571   2.046   4.101   2.548
 2851SOL    HW2 8572   2.116   4.035   2.680
 2852SOL     OW 8573   2.684   4.726   3.234
 2852SOL    HW1 8574   2.724   4.725   3.142
 2852SOL    HW2 8575   2.694   4.818   3.274
 2853SOL     OW 8576   2.778   4.634   2.153
 2853SOL    HW1 8577   2.841   4.672   2.085
 2853SOL    HW2 8578   2.818   4.551   2.192
 2854SOL     OW 8579   2.234   5.012   3.352
 2854SOL    HW1 8580   2.221   5.105   3.318
 2854SOL    HW2 8581   2.150   4.960   3.339
 2855SOL     OW 8582   2.876   3.960   2.833
 2855SOL    HW1 8583   2.868   3.924   2.740
 2855SOL    HW2 8584   2.874   3.884   2.898
 2856SOL     OW 8585   3.571   4.109   3.243
 2856SOL    HW1 8586   3.644   4.178   3.247
 2856SOL    HW2 8587   3.599   4.034   3.184
 2857SOL     OW 8588   1.967   4.737   3.588
 2857SOL    HW1 8589   1.890   4.704   3.642
 2857SOL    HW2 8590   2.052   4.707   3.630
 2858SOL     OW 8591   2.534   3.927   3.351
 2858SOL    HW1 8592   2.624   3.911   3.311
 2858SOL    HW2 8593   2.542   3.932   3.450
 2859SOL     OW 8594   1.937   4.069   1.895
 2859SOL    HW1 8595   1.845   4.041   1.866
 2859SOL    HW2 8596   1.968   4.146   1.839
 2860SOL     OW 8597   3.302   4.580   3.260
 2860SOL    HW1 8598   3.245   4.632   3.197
 2860SOL    HW2 8599   3.398   4.592   3.236
 2861SOL     OW 8600   1.934   3.890   2.180
 2861SOL    HW1 8601   1.917   3.973   2.126
 2861SOL    HW2 8602   2.024   3.853   2.158
 2862SOL     OW 8603   2.475   4.566   3.293
 2862SOL    HW1 8604   2.531   4.647   3.276
 2862SOL    HW2 8605   2.534   4.486   3.296
 2863SOL     OW 8606   2.578   4.289   3.570
 2863SOL    HW1 8607   2.597   4.354   3.644
 2863SOL    HW2 8608   2.638   4.209   3.579
 2864SOL     OW 8609   3.312   4.944   3.495
 2864SOL    HW1 8610   3.303   4.934   3.594
 2864SOL    HW2 8611   3.408   4.937   3.469
 2865SOL     OW 8612   3.536   4.607   3.116
 2865SOL    HW1 8613   3.509   4.518   3.079
 2865SOL    HW2 8614   3.537   4.675   3.043
 2866SOL     OW 8615   3.087   4.049   2.311
 2866SOL    HW1 8616   3.152   3.975   2.300
 2866SOL    HW2 8617   3.107   4.099   2.395
 2867SOL     OW 8618   2.456   4.469   2.514
 2867SOL    HW1 8619   2.506   4.554   2.495
 2867SOL    HW2 8620   2.368   4.471   2.466
 2868SOL     OW 8621   3.639   4.066   3.504
 2868SOL    HW1 8622   3.622   4.097   3.410
 2868SOL    HW2 8623   3.555   4.029   3.542
 2869SOL     OW 8624   3.592   4.658   3.379
 2869SOL    HW1 8625   3.630   4.749   3.394
 2869SOL    HW2 8626   3.584   4.641   3.280
 2870SOL     OW 8627   2.721   4.680   2.723
 2870SOL    HW1 8628   2.775   4.611   2.771
 2870SOL    HW2 8629   2.689   4.749   2.789
 2871SOL     OW 8630   2.945   4.708   1.949
 2871SOL    HW1 8631   2.922   4.761   1.867
 2871SOL    HW2 8632   3.026   4.652   1.930
 2872SOL     OW 8633   1.941   4.964   2.515
 2872SOL    HW1 8634   1.940   4.917   2.603
 2872SOL    HW2 8635   2.023   4.936   2.464
 2873SOL     OW 8636   3.686   3.916   3.089
 2873SOL    HW1 8637   3.682   3.826   3.133
 2873SOL    HW2 8638   3.689   3.905   2.990
 2874SOL     OW 8639   2.290   4.148   2.382
 2874SOL    HW1 8640   2.320   4.076   2.320
 2874SOL    HW2 8641   2.251   4.108   2.465
 2875SOL     OW 8642   2.179   4.271   3.142
 2875SOL    HW1 8643   2.217   4.212   3.214
 2875SOL    HW2 8644   2.219   4.245   3.054
 2876SOL     OW 8645   3.286   3.938   2.974
 2876SOL    HW1 8646   3.338   3.873   3.029
 2876SOL    HW2 8647   3.237   4.001   3.035
 2877SOL     OW 8648   2.863   3.758   3.016
 2877SOL    HW1 8649   2.800   3.686   2.985
 2877SOL    HW2 8650   2.956   3.722   3.016
 2878SOL     OW 8651   2.632   5.054   2.163
 2878SOL    HW1 8652   2.586   4.967   2.180
 2878SOL    HW2 8653   2.723   5.051   2.204
 2879SOL     OW 8654   3.214   3.776   2.030
 2879SOL    HW1 8655   3.249   3.735   1.946
 2879SOL    HW2 8656   3.124   3.738   2.050
 2880SOL     OW 8657   3.162   4.177   2.553
 2880SOL    HW1 8658   3.103   4.257   2.557
 2880SOL    HW2 8659   3.177   4.142   2.646
 2881SOL     OW 8660   3.455   3.945   2.744
 2881SOL    HW1 8661   3.371   3.944   2.798
 2881SOL    HW2 8662   3.457   4.028   2.688
 2882SOL     OW 8663   1.901   4.801   2.162
 2882SOL    HW1 8664   2.000   4.790   2.153
 2882SOL    HW2 8665   1.861   4.715   2.194
 2883SOL     OW 8666   2.092   4.352   3.837
 2883SOL    HW1 8667   1.999   4.350   3.874
 2883SOL    HW2 8668   2.093   4.313   3.745
 2884SOL     OW 8669   2.087   3.999   4.720
 2884SOL    HW1 8670   2.122   3.982   4.812
 2884SOL    HW2 8671   1.999   3.954   4.708
 2885SOL     OW 8672   1.881   4.092   4.371
 2885SOL    HW1 8673   1.799   4.135   4.410
 2885SOL    HW2 8674   1.853   4.019   4.308
 2886SOL     OW 8675   2.997   4.427   4.441
 2886SOL    HW1 8676   3.054   4.505   4.416
 2886SOL    HW2 8677   2.937   4.453   4.517
 2887SOL     OW 8678   3.617   4.331   3.955
 2887SOL    HW1 8679   3.605   4.318   3.856
 2887SOL    HW2 8680   3.587   4.250   4.004
 2888SOL     OW 8681   2.630   4.868   4.747
 2888SOL    HW1 8682   2.552   4.885   4.807
 2888SOL    HW2 8683   2.664   4.955   4.711
 2889SOL     OW 8684   2.547   4.736   4.389
 2889SOL    HW1 8685   2.616   4.720   4.459
 2889SOL    HW2 8686   2.474   4.793   4.427
 2890SOL     OW 8687   3.465   4.171   4.461
 2890SOL    HW1 8688   3.391   4.217   4.411
 2890SOL    HW2 8689   3.516   4.239   4.514
 2891SOL     OW 8690   2.102   4.815   4.610
 2891SOL    HW1 8691   2.116   4.731   4.662
 2891SOL    HW2 8692   2.047   4.879   4.665
 2892SOL     OW 8693   2.468   4.688   3.847
 2892SOL    HW1 8694   2.475   4.772   3.793
 2892SOL    HW2 8695   2.514   4.701   3.935
 2893SOL     OW 8696   1.984   4.367   4.287
 2893SOL    HW1 8697   1.939   4.279   4.304
 2893SOL    HW2 8698   1.983   4.421   4.371
 2894SOL     OW 8699   3.551   4.646   4.336
 2894SOL    HW1 8700   3.646   4.617   4.344
 2894SOL    HW2 8701   3.543   4.711   4.261
 2895SOL     OW 8702   2.475   5.089   4.450
 2895SOL    HW1 8703   2.426   5.002   4.459
 2895SOL    HW2 8704   2.452   5.132   4.363
 2896SOL     OW 8705   2.671   3.728   4.226
 2896SOL    HW1 8706   2.711   3.819   4.217
 2896SOL    HW2 8707   2.571   3.736   4.232
 2897SOL     OW 8708   2.059   4.700   4.988
 2897SOL    HW1 8709   2.148   4.655   4.974
 2897SOL    HW2 8710   1.986   4.635   4.969
 2898SOL     OW 8711   3.387   4.723   3.914
 2898SOL    HW1 8712   3.324   4.647   3.927
 2898SOL    HW2 8713   3.435   4.741   4.000
 2899SOL     OW 8714   2.460   4.453   3.994
 2899SOL    HW1 8715   2.484   4.522   3.926
 2899SOL    HW2 8716   2.382   4.486   4.048
 2900SOL     OW 8717   3.143   4.069   4.668
 2900SOL    HW1 8718   3.057   4.019   4.655
 2900SOL    HW2 8719   3.205   4.015   4.724
 2901SOL     OW 8720   2.903   4.425   4.153
 2901SOL    HW1 8721   2.929   4.421   4.249
 2901SOL    HW2 8722   2.818   4.374   4.139
 2902SOL     OW 8723   1.938   4.535   4.513
 2902SOL    HW1 8724   2.037   4.523   4.522
 2902SOL    HW2 8725   1.914   4.630   4.534
 2903SOL     OW 8726   2.727   4.072   3.919
 2903SOL    HW1 8727   2.786   4.135   3.870
 2903SOL    HW2 8728   2.746   3.978   3.890
 2904SOL     OW 8729   2.412   3.920   4.609
 2904SOL    HW1 8730   2.407   3.915   4.709
 2904SOL    HW2 8731   2.414   4.016   4.580
 2905SOL     OW 8732   3.657   4.790   4.597
 2905SOL    HW1 8733   3.595   4.775   4.521
 2905SOL    HW2 8734   3.605   4.801   4.682
 2906SOL     OW 8735   2.183   4.667   3.966
 2906SOL    HW1 8736   2.265   4.706   3.924
 2906SOL    HW2 8737   2.156   4.585   3.917
 2907SOL     OW 8738   3.320   4.459   4.452
 2907SOL    HW1 8739   3.315   4.394   4.527
 2907SOL    HW2 8740   3.400   4.518   4.465
 2908SOL     OW 8741   3.262   3.831   4.150
 2908SOL    HW1 8742   3.238   3.794   4.060
 2908SOL    HW2 8743   3.361   3.847   4.154
 2909SOL     OW 8744   2.244   4.424   4.204
 2909SOL    HW1 8745   2.289   4.334   4.201
 2909SOL    HW2 8746   2.150   4.413   4.237
 2910SOL     OW 8747   2.476   3.846   3.841
 2910SOL    HW1 8748   2.574   3.824   3.848
 2910SOL    HW2 8749   2.445   3.829   3.748
 2911SOL     OW 8750   2.750   5.238   4.919
 2911SOL    HW1 8751   2.727   5.213   4.825
 2911SOL    HW2 8752   2.811   5.169   4.958
 2912SOL     OW 8753   2.784   4.227   4.623
 2912SOL    HW1 8754   2.759   4.218   4.527
 2912SOL    HW2 8755   2.832   4.145   4.654
 2913SOL     OW 8756   2.401   3.788   4.236
 2913SOL    HW1 8757   2.320   3.789   4.294
 2913SOL    HW2 8758   2.404   3.871   4.181
 2914SOL     OW 8759   2.159   3.759   3.895
 2914SOL    HW1 8760   2.208   3.843   3.874
 2914SOL    HW2 8761   2.221   3.694   3.940
 2915SOL     OW 8762   2.797   3.960   4.204
 2915SOL    HW1 8763   2.749   4.001   4.126
 2915SOL    HW2 8764   2.896   3.958   4.185
 2916SOL     OW 8765   2.321   4.876   4.465
 2916SOL    HW1 8766   2.250   4.849   4.530
 2916SOL    HW2 8767   2.295   4.848   4.372
 2917SOL     OW 8768   2.894   4.273   3.740
 2917SOL    HW1 8769   2.853   4.355   3.701
 2917SOL    HW2 8770   2.958   4.299   3.813
 2918SOL     OW 8771   2.728   4.178   4.366
 2918SOL    HW1 8772   2.696   4.250   4.304
 2918SOL    HW2 8773   2.752   4.097   4.313
 2919SOL     OW 8774   2.879   3.763   4.477
 2919SOL    HW1 8775   2.807   3.768   4.408
 2919SOL    HW2 8776   2.855   3.694   4.546
 2920SOL     OW 8777   3.291   4.897   4.591
 2920SOL    HW1 8778   3.236   4.813   4.584
 2920SOL    HW2 8779   3.317   4.926   4.499
 2921SOL     OW 8780   3.328   4.314   4.716
 2921SOL    HW1 8781   3.298   4.219   4.723
 2921SOL    HW2 8782   3.401   4.330   4.782
 2922SOL     OW 8783   3.719   4.557   4.101
 2922SOL    HW1 8784   3.761   4.493   4.165
 2922SOL    HW2 8785   3.681   4.506   4.023
 2923SOL     OW 8786   3.252   4.299   3.802
 2923SOL    HW1 8787   3.198   4.278   3.883
 2923SOL    HW2 8788   3.343   4.258   3.811
 2924SOL     OW 8789   2.389   3.980   4.052
 2924SOL    HW1 8790   2.416   3.921   3.977
 2924SOL    HW2 8791   2.389   4.075   4.021
 2925SOL     OW 8792   2.973   4.919   4.824
 2925SOL    HW1 8793   2.933   4.963   4.905
 2925SOL    HW2 8794   2.932   4.956   4.741
 2926SOL     OW 8795   3.500   4.823   4.803
 2926SOL    HW1 8796   3.505   4.904   4.862
 2926SOL    HW2 8797   3.414   4.825   4.752
 2927SOL     OW 8798   2.567   4.774   4.092
 2927SOL    HW1 8799   2.553   4.781   4.191
 2927SOL    HW2 8800   2.651   4.723   4.074
 2928SOL     OW 8801   2.272   4.537   4.975
 2928SOL    HW1 8802   2.358   4.549   5.025
 2928SOL    HW2 8803   2.230   4.450   5.002
 2929SOL     OW 8804   2.229   4.824   4.225
 2929SOL    HW1 8805   2.222   4.907   4.169
 2929SOL    HW2 8806   2.233   4.744   4.165
 2930SOL     OW 8807   2.428   4.261   4.589
 2930SOL    HW1 8808   2.440   4.327   4.515
 2930SOL    HW2 8809   2.474   4.295   4.672
 2931SOL     OW 8810   3.444   4.363   4.196
 2931SOL    HW1 8811   3.413   4.424   4.269
 2931SOL    HW2 8812   3.494   4.415   4.127
 2932SOL     OW 8813   2.435   4.594   4.753
 2932SOL    HW1 8814   2.479   4.683   4.744
 2932SOL    HW2 8815   2.372   4.594   4.830
 2933SOL     OW 8816   3.071   4.249   3.999
 2933SOL    HW1 8817   3.084   4.165   4.053
 2933SOL    HW2 8818   3.042   4.323   4.059
 2934SOL     OW 8819   2.169   3.937   4.955
 2934SOL    HW1 8820   2.146   3.974   5.045
 2934SOL    HW2 8821   2.139   3.842   4.949
 2935SOL     OW 8822   2.594   4.358   4.788
 2935SOL    HW1 8823   2.653   4.332   4.712
 2935SOL    HW2 8824   2.566   4.454   4.777
 2936SOL     OW 8825   2.169   3.787   4.342
 2936SOL    HW1 8826   2.158   3.881   4.375
 2936SOL    HW2 8827   2.164   3.724   4.419
 2937SOL     OW 8828   3.484   4.091   4.098
 2937SOL    HW1 8829   3.486   4.015   4.162
 2937SOL    HW2 8830   3.436   4.168   4.138
 2938SOL     OW 8831   2.885   4.490   4.690
 2938SOL    HW1 8832   2.900   4.511   4.786
 2938SOL    HW2 8833   2.855   4.395   4.681
 2939SOL     OW 8834   3.402   3.998   3.849
 2939SOL    HW1 8835   3.341   3.923   3.872
 2939SOL    HW2 8836   3.424   4.050   3.932
 2940SOL     OW 8837   3.165   4.562   3.766
 2940SOL    HW1 8838   3.199   4.469   3.781
 2940SOL    HW2 8839   3.183   4.589   3.671
 2941SOL     OW 8840   2.181   4.534   4.673
 2941SOL    HW1 8841   2.274   4.570   4.678
 2941SOL    HW2 8842   2.175   4.449   4.725
 2942SOL     OW 8843   2.201   4.233   4.730
 2942SOL    HW1 8844   2.149   4.150   4.713
 2942SOL    HW2 8845   2.278   4.238   4.666
 2943SOL     OW 8846   2.864   4.520   4.962
 2943SOL    HW1 8847   2.905   4.488   5.048
 2943SOL    HW2 8848   2.768   4.493   4.959
 2944SOL     OW 8849   1.902   4.268   4.838
 2944SOL    HW1 8850   1.987   4.235   4.797
 2944SOL    HW2 8851   1.915   4.283   4.936
 2945SOL     OW 8852   2.677   4.296   4.049
 2945SOL    HW1 8853   2.684   4.207   4.003
 2945SOL    HW2 8854   2.583   4.330   4.041
 2946SOL     OW 8855   3.519   4.328   4.930
 2946SOL    HW1 8856   3.481   4.259   4.992
 2946SOL    HW2 8857   3.601   4.292   4.886
 2947SOL     OW 8858   2.533   4.188   4.993
 2947SOL    HW1 8859   2.499   4.099   4.963
 2947SOL    HW2 8860   2.559   4.242   4.913
 2948SOL     OW 8861   2.335   4.224   3.915
 2948SOL    HW1 8862   2.396   4.304   3.919
 2948SOL    HW2 8863   2.240   4.255   3.922
 2949SOL     OW 8864   2.021   4.861   5.190
 2949SOL    HW1 8865   2.043   4.800   5.266
 2949SOL    HW2 8866   2.031   4.812   5.104
 2950SOL     OW 8867   3.209   4.783   4.958
 2950SOL    HW1 8868   3.233   4.720   4.884
 2950SOL    HW2 8869   3.119   4.823   4.940
 2951SOL     OW 8870   3.164   4.579   4.033
 2951SOL    HW1 8871   3.078   4.548   4.075
 2951SOL    HW2 8872   3.160   4.565   3.934
 2952SOL     OW 8873   3.588   3.859   4.247
 2952SOL    HW1 8874   3.661   3.842   4.180
 2952SOL    HW2 8875   3.557   3.772   4.285
 2953SOL     OW 8876   3.142   4.651   4.396
 2953SOL    HW1 8877   3.202   4.570   4.398
 2953SOL    HW2 8878   3.182   4.720   4.336
 2954SOL     OW 8879   3.703   3.899   4.687
 2954SOL    HW1 8880   3.742   3.814   4.651
 2954SOL    HW2 8881   3.605   3.901   4.668
 2955SOL     OW 8882   2.125   4.050   4.444
 2955SOL    HW1 8883   2.046   4.101   4.410
 2955SOL    HW2 8884   2.116   4.035   4.542
 2956SOL     OW 8885   2.684   4.726   5.096
 2956SOL    HW1 8886   2.724   4.725   5.004
 2956SOL    HW2 8887   2.694   4.818   5.136
 2957SOL     OW 8888   2.778   4.634   4.015
 2957SOL    HW1 8889   2.841   4.672   3.947
 2957SOL    HW2 8890   2.818   4.551   4.054
 2958SOL     OW 8891   2.876   3.960   4.695
 2958SOL    HW1 8892   2.868   3.924   4.602
 2958SOL    HW2 8893   2.874   3.884   4.760
 2959SOL     OW 8894   3.571   4.109   5.105
 2959SOL    HW1 8895   3.644   4.178   5.109
 2959SOL    HW2 8896   3.599   4.034   5.046
 2960SOL     OW 8897   1.937   4.069   3.757
 2960SOL    HW1 8898   1.845   4.041   3.728
 2960SOL    HW2 8899   1.968   4.146   3.701
 2961SOL     OW 8900   1.934   3.890   4.042
 2961SOL    HW1 8901   1.917   3.973   3.988
 2961SOL    HW2 8902   2.024   3.853   4.020
 2962SOL     OW 8903   3.536   4.607   4.978
 2962SOL    HW1 8904   3.509   4.518   4.941
 2962SOL    HW2 8905   3.537   4.675   4.905
 2963SOL     OW 8906   3.087   4.049   4.173
 2963SOL    HW1 8907   3.152   3.975   4.162
 2963SOL    HW2 8908   3.107   4.099   4.257
 2964SOL     OW 8909   2.456   4.469   4.376
 2964SOL    HW1 8910   2.506   4.554   4.357
 2964SOL    HW2 8911   2.368   4.471   4.328
 2965SOL     OW 8912   3.592   4.658   5.241
 2965SOL    HW1 8913   3.630   4.749   5.256
 2965SOL    HW2 8914   3.584   4.641   5.142
 2966SOL     OW 8915   2.721   4.680   4.585
 2966SOL    HW1 8916   2.775   4.611   4.633
 2966SOL    HW2 8917   2.689   4.749   4.651
 2967SOL     OW 8918   2.945   4.708   3.811
 2967SOL    HW1 8919   2.922   4.761   3.729
 2967SOL    HW2 8920   3.026   4.652   3.792
 2968SOL     OW 8921   1.941   4.964   4.377
 2968SOL    HW1 8922   1.940   4.917   4.465
 2968SOL    HW2 8923   2.023   4.936   4.326
 2969SOL     OW 8924   3.686   3.916   4.951
 2969SOL    HW1 8925   3.682   3.826   4.995
 2969SOL    HW2 8926   3.689   3.905   4.852
 2970SOL     OW 8927   2.290   4.148   4.244
 2970SOL    HW1 8928   2.320   4.076   4.182
 2970SOL    HW2 8929   2.251   4.108   4.327
 2971SOL     OW 8930   3.286   3.938   4.836
 2971SOL    HW1 8931   3.338   3.873   4.891
 2971SOL    HW2 8932   3.237   4.001   4.897
 2972SOL     OW 8933   2.632   5.054   4.025
 2972SOL    HW1 8934   2.586   4.967   4.042
 2972SOL    HW2 8935   2.723   5.051   4.066
 2973SOL     OW 8936   3.214   3.776   3.892
 2973SOL    HW1 8937   3.249   3.735   3.808
 2973SOL    HW2 8938   3.124   3.738   3.912
 2974SOL     OW 8939   3.162   4.177   4.415
 2974SOL    HW1 8940   3.103   4.257   4.419
 2974SOL    HW2 8941   3.177   4.142   4.508
 2975SOL     OW 8942   3.455   3.945   4.606
 2975SOL    HW1 8943   3.371   3.944   4.660
 2975SOL    HW2 8944   3.457   4.028   4.550
 2976SOL     OW 8945   1.901   4.801   4.024
 2976SOL    HW1 8946   2.000   4.790   4.015
 2976SOL    HW2 8947   1.861   4.715   4.056
 2977SOL     OW 8948   3.954   0.628   0.113
 2977SOL    HW1 8949   3.861   0.626   0.150
 2977SOL    HW2 8950   3.955   0.589   0.021
 2978SOL     OW 8951   3.949   0.275   0.996
 2978SOL    HW1 8952   3.984   0.258   1.088
 2978SOL    HW2 8953   3.861   0.230   0.984
 2979SOL     OW 8954   3.743   0.368   0.647
 2979SOL    HW1 8955   3.661   0.411   0.686
 2979SOL    HW2 8956   3.715   0.295   0.584
 2980SOL     OW 8957   4.293   1.275   1.165
 2980SOL    HW1 8958   4.200   1.268   1.128
 2980SOL    HW2 8959   4.304   1.364   1.209
 2981SOL     OW 8960   4.492   1.144   1.023
 2981SOL    HW1 8961   4.414   1.161   1.083
 2981SOL    HW2 8962   4.526   1.231   0.987
 2982SOL     OW 8963   4.574   0.798   1.823
 2982SOL    HW1 8964   4.570   0.874   1.888
 2982SOL    HW2 8965   4.596   0.834   1.732
 2983SOL     OW 8966   4.409   1.012   0.665
 2983SOL    HW1 8967   4.478   0.996   0.735
 2983SOL    HW2 8968   4.336   1.069   0.703
 2984SOL     OW 8969   4.410   1.161   1.803
 2984SOL    HW1 8970   4.470   1.240   1.817
 2984SOL    HW2 8971   4.324   1.192   1.762
 2985SOL     OW 8972   4.059   1.435   1.061
 2985SOL    HW1 8973   3.981   1.404   1.008
 2985SOL    HW2 8974   4.117   1.493   1.004
 2986SOL     OW 8975   4.162   0.392   1.499
 2986SOL    HW1 8976   4.244   0.336   1.508
 2986SOL    HW2 8977   4.081   0.334   1.503
 2987SOL     OW 8978   3.955   1.713   0.483
 2987SOL    HW1 8979   3.989   1.790   0.537
 2987SOL    HW2 8980   3.999   1.713   0.393
 2988SOL     OW 8981   4.851   1.341   1.690
 2988SOL    HW1 8982   4.898   1.341   1.778
 2988SOL    HW2 8983   4.803   1.254   1.679
 2989SOL     OW 8984   3.954   1.434   0.538
 2989SOL    HW1 8985   3.928   1.530   0.538
 2989SOL    HW2 8986   3.883   1.380   0.583
 2990SOL     OW 8987   3.964   1.091   0.886
 2990SOL    HW1 8988   3.978   1.007   0.938
 2990SOL    HW2 8989   3.909   1.155   0.941
 2991SOL     OW 8990   4.344   1.786   1.439
 2991SOL    HW1 8991   4.252   1.769   1.474
 2991SOL    HW2 8992   4.372   1.878   1.465
 2992SOL     OW 8993   4.330   0.964   0.123
 2992SOL    HW1 8994   4.337   1.048   0.069
 2992SOL    HW2 8995   4.376   0.977   0.211
 2993SOL     OW 8996   3.846   0.643   0.563
 2993SOL    HW1 8997   3.801   0.555   0.580
 2993SOL    HW2 8998   3.845   0.697   0.647
 2994SOL     OW 8999   3.751   1.596   0.117
 2994SOL    HW1 9000   3.732   1.500   0.138
 2994SOL    HW2 9001   3.718   1.654   0.192
 2995SOL     OW 9002   3.837   0.737   1.597
 2995SOL    HW1 9003   3.925   0.724   1.642
 2995SOL    HW2 9004   3.824   0.834   1.575
 2996SOL     OW 9005   4.337   1.365   0.726
 2996SOL    HW1 9006   4.288   1.278   0.735
 2996SOL    HW2 9007   4.314   1.408   0.639
 2997SOL     OW 9008   4.533   0.004   0.502
 2997SOL    HW1 9009   4.573   0.095   0.493
 2997SOL    HW2 9010   4.433   0.012   0.508
 2998SOL     OW 9011   3.921   0.976   1.264
 2998SOL    HW1 9012   4.010   0.931   1.250
 2998SOL    HW2 9013   3.848   0.911   1.245
 2999SOL     OW 9014   4.041   0.251   1.801
 2999SOL    HW1 9015   4.112   0.322   1.807
 2999SOL    HW2 9016   3.953   0.290   1.829
 3000SOL     OW 9017   4.322   0.729   0.270
 3000SOL    HW1 9018   4.346   0.798   0.202
 3000SOL    HW2 9019   4.244   0.762   0.324
 3001SOL     OW 9020   4.531   0.605   1.465
 3001SOL    HW1 9021   4.484   0.602   1.554
 3001SOL    HW2 9022   4.480   0.550   1.399
 3002SOL     OW 9023   4.697   0.890   1.572
 3002SOL    HW1 9024   4.743   0.806   1.543
 3002SOL    HW2 9025   4.641   0.924   1.497
 3003SOL     OW 9026   4.715   0.410   1.242
 3003SOL    HW1 9027   4.638   0.444   1.296
 3003SOL    HW2 9028   4.681   0.359   1.163
 3004SOL     OW 9029   4.765   0.701   0.429
 3004SOL    HW1 9030   4.791   0.697   0.525
 3004SOL    HW2 9031   4.680   0.650   0.415
 3005SOL     OW 9032   3.800   0.811   0.789
 3005SOL    HW1 9033   3.899   0.799   0.798
 3005SOL    HW2 9034   3.776   0.906   0.810
 3006SOL     OW 9035   3.854   1.821   1.571
 3006SOL    HW1 9036   3.844   1.806   1.670
 3006SOL    HW2 9037   3.768   1.857   1.535
 3007SOL     OW 9038   4.589   0.348   0.195
 3007SOL    HW1 9039   4.648   0.411   0.146
 3007SOL    HW2 9040   4.608   0.254   0.166
 3008SOL     OW 9041   4.274   0.196   0.885
 3008SOL    HW1 9042   4.269   0.191   0.985
 3008SOL    HW2 9043   4.276   0.292   0.856
 3009SOL     OW 9044   4.732   1.456   0.477
 3009SOL    HW1 9045   4.686   1.528   0.425
 3009SOL    HW2 9046   4.728   1.476   0.575
 3010SOL     OW 9047   4.075   1.801   0.853
 3010SOL    HW1 9048   4.125   1.715   0.859
 3010SOL    HW2 9049   4.140   1.878   0.850
 3011SOL     OW 9050   4.045   0.943   0.242
 3011SOL    HW1 9051   4.127   0.982   0.200
 3011SOL    HW2 9052   4.018   0.861   0.193
 3012SOL     OW 9053   4.185   1.266   1.727
 3012SOL    HW1 9054   4.135   1.267   1.641
 3012SOL    HW2 9055   4.122   1.248   1.803
 3013SOL     OW 9056   3.926   0.285   1.498
 3013SOL    HW1 9057   3.846   0.345   1.485
 3013SOL    HW2 9058   3.916   0.236   1.584
 3014SOL     OW 9059   4.188   1.743   0.323
 3014SOL    HW1 9060   4.221   1.782   0.409
 3014SOL    HW2 9061   4.264   1.736   0.258
 3015SOL     OW 9062   3.973   1.785   1.241
 3015SOL    HW1 9063   4.030   1.720   1.291
 3015SOL    HW2 9064   3.957   1.752   1.148
 3016SOL     OW 9065   4.664   1.698   0.904
 3016SOL    HW1 9066   4.744   1.641   0.925
 3016SOL    HW2 9067   4.615   1.658   0.827
 3017SOL     OW 9068   4.106   0.700   0.480
 3017SOL    HW1 9069   4.151   0.610   0.477
 3017SOL    HW2 9070   4.012   0.689   0.513
 3018SOL     OW 9071   4.338   0.122   0.117
 3018SOL    HW1 9072   4.436   0.100   0.124
 3018SOL    HW2 9073   4.307   0.105   0.024
 3019SOL     OW 9074   4.505   0.264   1.749
 3019SOL    HW1 9075   4.572   0.203   1.792
 3019SOL    HW2 9076   4.432   0.283   1.814
 3020SOL     OW 9077   4.612   1.514   1.195
 3020SOL    HW1 9078   4.589   1.489   1.101
 3020SOL    HW2 9079   4.673   1.445   1.234
 3021SOL     OW 9080   4.527   1.402   0.924
 3021SOL    HW1 9081   4.617   1.416   0.882
 3021SOL    HW2 9082   4.456   1.404   0.853
 3022SOL     OW 9083   4.646   0.503   0.899
 3022SOL    HW1 9084   4.621   0.494   0.803
 3022SOL    HW2 9085   4.694   0.421   0.930
 3023SOL     OW 9086   4.263   0.064   0.512
 3023SOL    HW1 9087   4.182   0.065   0.570
 3023SOL    HW2 9088   4.266   0.147   0.457
 3024SOL     OW 9089   4.021   0.035   0.171
 3024SOL    HW1 9090   4.070   0.119   0.150
 3024SOL    HW2 9091   4.083  -0.030   0.216
 3025SOL     OW 9092   4.659   0.236   0.480
 3025SOL    HW1 9093   4.611   0.277   0.402
 3025SOL    HW2 9094   4.758   0.234   0.461
 3026SOL     OW 9095   4.951   1.570   0.793
 3026SOL    HW1 9096   4.972   1.644   0.728
 3026SOL    HW2 9097   5.019   1.570   0.866
 3027SOL     OW 9098   4.183   1.152   0.741
 3027SOL    HW1 9099   4.112   1.125   0.806
 3027SOL    HW2 9100   4.157   1.124   0.648
 3028SOL     OW 9101   4.995   1.797   0.591
 3028SOL    HW1 9102   5.039   1.861   0.527
 3028SOL    HW2 9103   4.945   1.849   0.661
 3029SOL     OW 9104   4.756   0.549   0.016
 3029SOL    HW1 9105   4.715   0.631  -0.023
 3029SOL    HW2 9106   4.820   0.575   0.089
 3030SOL     OW 9107   3.802   0.556   1.386
 3030SOL    HW1 9108   3.894   0.555   1.345
 3030SOL    HW2 9109   3.796   0.630   1.453
 3031SOL     OW 9110   4.285   0.222   1.147
 3031SOL    HW1 9111   4.323   0.138   1.184
 3031SOL    HW2 9112   4.197   0.241   1.191
 3032SOL     OW 9113   4.590   0.454   0.642
 3032SOL    HW1 9114   4.558   0.526   0.580
 3032SOL    HW2 9115   4.614   0.373   0.589
 3033SOL     OW 9116   4.741   0.039   0.753
 3033SOL    HW1 9117   4.669   0.044   0.684
 3033SOL    HW2 9118   4.717  -0.030   0.822
 3034SOL     OW 9119   4.212   1.385   0.174
 3034SOL    HW1 9120   4.125   1.370   0.221
 3034SOL    HW2 9121   4.195   1.411   0.079
 3035SOL     OW 9122   4.251   0.256   0.328
 3035SOL    HW1 9123   4.278   0.197   0.253
 3035SOL    HW2 9124   4.251   0.351   0.297
 3036SOL     OW 9125   4.835   1.195   1.100
 3036SOL    HW1 9126   4.795   1.239   1.181
 3036SOL    HW2 9127   4.794   1.232   1.017
 3037SOL     OW 9128   4.639   0.089   1.402
 3037SOL    HW1 9129   4.664   0.069   1.307
 3037SOL    HW2 9130   4.711   0.145   1.444
 3038SOL     OW 9131   4.704   1.116   1.719
 3038SOL    HW1 9132   4.605   1.122   1.729
 3038SOL    HW2 9133   4.727   1.036   1.663
 3039SOL     OW 9134   4.429   1.050   0.368
 3039SOL    HW1 9135   4.415   1.057   0.467
 3039SOL    HW2 9136   4.513   0.999   0.350
 3040SOL     OW 9137   4.134   0.813   1.251
 3040SOL    HW1 9138   4.220   0.825   1.301
 3040SOL    HW2 9139   4.092   0.726   1.278
 3041SOL     OW 9140   3.788   1.564   1.331
 3041SOL    HW1 9141   3.742   1.646   1.297
 3041SOL    HW2 9142   3.886   1.583   1.340
 3042SOL     OW 9143   4.091   1.100   0.501
 3042SOL    HW1 9144   4.084   1.183   0.445
 3042SOL    HW2 9145   4.095   1.020   0.441
 3043SOL     OW 9146   4.290   0.537   0.865
 3043SOL    HW1 9147   4.302   0.603   0.791
 3043SOL    HW2 9148   4.336   0.571   0.948
 3044SOL     OW 9149   4.976   1.348   0.388
 3044SOL    HW1 9150   5.026   1.425   0.428
 3044SOL    HW2 9151   4.881   1.350   0.420
 3045SOL     OW 9152   4.078   1.510   1.329
 3045SOL    HW1 9153   4.057   1.466   1.242
 3045SOL    HW2 9154   4.175   1.536   1.332
 3046SOL     OW 9155   4.126   0.751   1.598
 3046SOL    HW1 9156   4.194   0.806   1.551
 3046SOL    HW2 9157   4.166   0.663   1.625
 3047SOL     OW 9158   4.737   0.105   1.770
 3047SOL    HW1 9159   4.743   0.190   1.718
 3047SOL    HW2 9160   4.769   0.029   1.713
 3048SOL     OW 9161   4.228   0.050   1.740
 3048SOL    HW1 9162   4.186  -0.007   1.670
 3048SOL    HW2 9163   4.162   0.119   1.772
 3049SOL     OW 9164   4.297   0.870   1.029
 3049SOL    HW1 9165   4.341   0.959   1.020
 3049SOL    HW2 9166   4.234   0.870   1.106
 3050SOL     OW 9167   5.084   0.862   1.045
 3050SOL    HW1 9168   5.009   0.862   0.979
 3050SOL    HW2 9169   5.121   0.770   1.054
 3051SOL     OW 9170   4.933   0.525   0.275
 3051SOL    HW1 9171   4.946   0.441   0.329
 3051SOL    HW2 9172   4.904   0.599   0.335
 3052SOL     OW 9173   4.031   0.213   1.231
 3052SOL    HW1 9174   4.008   0.250   1.321
 3052SOL    HW2 9175   4.001   0.118   1.225
 3053SOL     OW 9176   3.761   1.310   1.282
 3053SOL    HW1 9177   3.814   1.261   1.350
 3053SOL    HW2 9178   3.783   1.408   1.287
 3054SOL     OW 9179   4.456   0.634   1.064
 3054SOL    HW1 9180   4.515   0.608   0.988
 3054SOL    HW2 9181   4.428   0.730   1.053
 3055SOL     OW 9182   4.031   0.063   0.618
 3055SOL    HW1 9183   4.020   0.157   0.651
 3055SOL    HW2 9184   4.026   0.000   0.695
 3056SOL     OW 9185   4.747   0.766   0.966
 3056SOL    HW1 9186   4.762   0.787   1.062
 3056SOL    HW2 9187   4.717   0.671   0.957
 3057SOL     OW 9188   4.704   1.573   1.700
 3057SOL    HW1 9189   4.684   1.617   1.612
 3057SOL    HW2 9190   4.743   1.482   1.684
 3058SOL     OW 9191   4.074   0.898   1.804
 3058SOL    HW1 9192   4.150   0.942   1.852
 3058SOL    HW2 9193   4.109   0.851   1.722
 3059SOL     OW 9194   4.792   1.333   0.849
 3059SOL    HW1 9195   4.799   1.249   0.794
 3059SOL    HW2 9196   4.854   1.402   0.813
 3060SOL     OW 9197   4.043   0.810   0.949
 3060SOL    HW1 9198   4.136   0.846   0.954
 3060SOL    HW2 9199   4.037   0.725   1.001
 3061SOL     OW 9200   4.063   0.509   1.006
 3061SOL    HW1 9201   4.011   0.426   0.989
 3061SOL    HW2 9202   4.140   0.514   0.942
 3062SOL     OW 9203   4.862   0.380   1.678
 3062SOL    HW1 9204   4.817   0.443   1.742
 3062SOL    HW2 9205   4.955   0.411   1.661
 3063SOL     OW 9206   4.884   0.207   1.477
 3063SOL    HW1 9207   4.884   0.271   1.554
 3063SOL    HW2 9208   4.912   0.255   1.394
 3064SOL     OW 9209   3.732   1.326   0.200
 3064SOL    HW1 9210   3.639   1.347   0.169
 3064SOL    HW2 9211   3.742   1.227   0.213
 3065SOL     OW 9212   3.812   1.801   0.927
 3065SOL    HW1 9213   3.770   1.715   0.900
 3065SOL    HW2 9214   3.906   1.804   0.893
 3066SOL     OW 9215   4.228   1.568   0.910
 3066SOL    HW1 9216   4.294   1.642   0.919
 3066SOL    HW2 9217   4.272   1.489   0.868
 3067SOL     OW 9218   4.726   0.796   1.238
 3067SOL    HW1 9219   4.767   0.764   1.324
 3067SOL    HW2 9220   4.630   0.769   1.235
 3068SOL     OW 9221   3.764   0.544   1.114
 3068SOL    HW1 9222   3.849   0.511   1.073
 3068SOL    HW2 9223   3.777   0.559   1.212
 3069SOL     OW 9224   3.913   0.520   1.722
 3069SOL    HW1 9225   3.972   0.480   1.652
 3069SOL    HW2 9226   3.855   0.591   1.681
 3070SOL     OW 9227   4.539   0.572   0.325
 3070SOL    HW1 9228   4.546   0.483   0.279
 3070SOL    HW2 9229   4.445   0.606   0.317
 3071SOL     OW 9230   3.976   1.564   1.744
 3071SOL    HW1 9231   3.946   1.621   1.820
 3071SOL    HW2 9232   3.969   1.467   1.770
 3072SOL     OW 9233   4.395   0.464   1.269
 3072SOL    HW1 9234   4.361   0.375   1.239
 3072SOL    HW2 9235   4.421   0.518   1.189
 3073SOL     OW 9236   4.654   1.678   1.465
 3073SOL    HW1 9237   4.630   1.660   1.370
 3073SOL    HW2 9238   4.684   1.772   1.475
 3074SOL     OW 9239   4.197   0.500   0.191
 3074SOL    HW1 9240   4.258   0.580   0.195
 3074SOL    HW2 9241   4.102   0.531   0.198
 3075SOL     OW 9242   3.883   1.137   1.466
 3075SOL    HW1 9243   3.905   1.076   1.542
 3075SOL    HW2 9244   3.893   1.088   1.380
 3076SOL     OW 9245   5.026   0.855   0.309
 3076SOL    HW1 9246   4.940   0.824   0.351
 3076SOL    HW2 9247   5.022   0.841   0.210
 3077SOL     OW 9248   3.807   1.258   1.022
 3077SOL    HW1 9249   3.802   1.257   1.122
 3077SOL    HW2 9250   3.724   1.217   0.984
 3078SOL     OW 9251   4.412   1.662   1.716
 3078SOL    HW1 9252   4.356   1.743   1.725
 3078SOL    HW2 9253   4.464   1.666   1.630
 3079SOL     OW 9254   4.627   0.086   0.133
 3079SOL    HW1 9255   4.678   0.087   0.047
 3079SOL    HW2 9256   4.683   0.044   0.204
 3080SOL     OW 9257   3.854   1.794   1.851
 3080SOL    HW1 9258   3.813   1.720   1.904
 3080SOL    HW2 9259   3.918   1.845   1.909
 3081SOL     OW 9260   4.554   1.273   1.422
 3081SOL    HW1 9261   4.549   1.306   1.517
 3081SOL    HW2 9262   4.468   1.292   1.376
 3082SOL     OW 9263   4.396   1.616   0.154
 3082SOL    HW1 9264   4.405   1.626   0.055
 3082SOL    HW2 9265   4.356   1.527   0.175
 3083SOL     OW 9266   3.987   0.326   0.720
 3083SOL    HW1 9267   3.908   0.377   0.686
 3083SOL    HW2 9268   3.978   0.311   0.818
 3084SOL     OW 9269   4.546   1.002   1.372
 3084SOL    HW1 9270   4.586   1.001   1.280
 3084SOL    HW2 9271   4.556   1.094   1.412
 3085SOL     OW 9272   4.640   0.910   0.291
 3085SOL    HW1 9273   4.703   0.948   0.223
 3085SOL    HW2 9274   4.680   0.827   0.330
 3086SOL     OW 9275   4.096   1.288   1.490
 3086SOL    HW1 9276   4.083   1.381   1.456
 3086SOL    HW2 9277   4.012   1.236   1.477
 3087SOL     OW 9278   4.763   1.098   0.696
 3087SOL    HW1 9279   4.693   1.051   0.750
 3087SOL    HW2 9280   4.822   1.030   0.653
 3088SOL     OW 9281   4.738   0.236   0.971
 3088SOL    HW1 9282   4.730   0.200   0.878
 3088SOL    HW2 9283   4.736   0.160   1.036
 3089SOL     OW 9284   4.314   1.487   0.491
 3089SOL    HW1 9285   4.356   1.429   0.421
 3089SOL    HW2 9286   4.270   1.566   0.447
 3090SOL     OW 9287   3.979   1.348   0.290
 3090SOL    HW1 9288   3.883   1.349   0.263
 3090SOL    HW2 9289   3.991   1.401   0.374
 3091SOL     OW 9290   3.829   1.013   1.726
 3091SOL    HW1 9291   3.752   0.980   1.780
 3091SOL    HW2 9292   3.914   0.983   1.768
 3092SOL     OW 9293   4.396   0.203   1.489
 3092SOL    HW1 9294   4.486   0.187   1.449
 3092SOL    HW2 9295   4.404   0.208   1.588
 3093SOL     OW 9296   3.796   0.166   0.318
 3093SOL    HW1 9297   3.779   0.249   0.264
 3093SOL    HW2 9298   3.886   0.129   0.296
 3094SOL     OW 9299   4.337   0.842   1.431
 3094SOL    HW1 9300   4.393   0.923   1.414
 3094SOL    HW2 9301   4.396   0.762   1.434
 3095SOL     OW 9302   4.440   0.565   1.708
 3095SOL    HW1 9303   4.459   0.630   1.782
 3095SOL    HW2 9304   4.500   0.485   1.717
 3096SOL     OW 9305   4.114   1.741   1.560
 3096SOL    HW1 9306   4.023   1.782   1.558
 3096SOL    HW2 9307   4.107   1.647   1.592
 3097SOL     OW 9308   4.318   0.745   0.652
 3097SOL    HW1 9309   4.368   0.830   0.633
 3097SOL    HW2 9310   4.230   0.747   0.604
 3098SOL     OW 9311   4.583   1.374   0.016
 3098SOL    HW1 9312   4.537   1.389   0.104
 3098SOL    HW2 9313   4.627   1.459  -0.014
 3099SOL     OW 9314   4.385   1.790   0.953
 3099SOL    HW1 9315   4.339   1.878   0.940
 3099SOL    HW2 9316   4.484   1.802   0.946
 3100SOL     OW 9317   4.583   0.956   0.861
 3100SOL    HW1 9318   4.637   0.887   0.909
 3100SOL    HW2 9319   4.551   1.025   0.927
 3101SOL     OW 9320   4.807   0.984   0.087
 3101SOL    HW1 9321   4.784   1.037   0.005
 3101SOL    HW2 9322   4.888   0.928   0.068
 3102SOL     OW 9323   3.945   1.314   1.844
 3102SOL    HW1 9324   3.880   1.241   1.823
 3102SOL    HW2 9325   3.949   1.328   1.942
 3103SOL     OW 9326   3.803   1.240   0.653
 3103SOL    HW1 9327   3.802   1.193   0.741
 3103SOL    HW2 9328   3.885   1.212   0.602
 3104SOL     OW 9329   4.396   1.391   1.624
 3104SOL    HW1 9330   4.318   1.341   1.662
 3104SOL    HW2 9331   4.393   1.486   1.655
 3105SOL     OW 9332   4.152   0.424   0.520
 3105SOL    HW1 9333   4.182   0.352   0.458
 3105SOL    HW2 9334   4.113   0.384   0.603
 3106SOL     OW 9335   4.041   0.547   1.280
 3106SOL    HW1 9336   4.079   0.488   1.352
 3106SOL    HW2 9337   4.081   0.521   1.192
 3107SOL     OW 9338   4.536   1.586   0.687
 3107SOL    HW1 9339   4.568   1.596   0.593
 3107SOL    HW2 9340   4.457   1.524   0.689
 3108SOL     OW 9341   4.725   0.034   1.154
 3108SOL    HW1 9342   4.662  -0.038   1.123
 3108SOL    HW2 9343   4.818  -0.002   1.154
 3109SOL     OW 9344   4.494   1.330   0.301
 3109SOL    HW1 9345   4.448   1.243   0.318
 3109SOL    HW2 9346   4.585   1.327   0.342
 3110SOL     OW 9347   4.342   1.567   1.284
 3110SOL    HW1 9348   4.337   1.649   1.341
 3110SOL    HW2 9349   4.431   1.564   1.239
 3111SOL     OW 9350   3.763   1.077   0.300
 3111SOL    HW1 9351   3.862   1.066   0.291
 3111SOL    HW2 9352   3.723   0.991   0.332
 3112SOL     OW 9353   4.599   1.646   0.337
 3112SOL    HW1 9354   4.522   1.611   0.283
 3112SOL    HW2 9355   4.567   1.717   0.399
 3113SOL     OW 9356   3.954   0.628   1.975
 3113SOL    HW1 9357   3.861   0.626   2.012
 3113SOL    HW2 9358   3.955   0.589   1.883
 3114SOL     OW 9359   3.949   0.275   2.858
 3114SOL    HW1 9360   3.984   0.258   2.950
 3114SOL    HW2 9361   3.861   0.230   2.846
 3115SOL     OW 9362   3.743   0.368   2.509
 3115SOL    HW1 9363   3.661   0.411   2.548
 3115SOL    HW2 9364   3.715   0.295   2.446
 3116SOL     OW 9365   4.293   1.275   3.027
 3116SOL    HW1 9366   4.200   1.268   2.990
 3116SOL    HW2 9367   4.304   1.364   3.071
 3117SOL     OW 9368   4.492   1.144   2.885
 3117SOL    HW1 9369   4.414   1.161   2.945
 3117SOL    HW2 9370   4.526   1.231   2.849
 3118SOL     OW 9371   4.574   0.798   3.685
 3118SOL    HW1 9372   4.570   0.874   3.750
 3118SOL    HW2 9373   4.596   0.834   3.594
 3119SOL     OW 9374   4.409   1.012   2.527
 3119SOL    HW1 9375   4.478   0.996   2.597
 3119SOL    HW2 9376   4.336   1.069   2.565
 3120SOL     OW 9377   4.410   1.161   3.665
 3120SOL    HW1 9378   4.470   1.240   3.679
 3120SOL    HW2 9379   4.324   1.192   3.624
 3121SOL     OW 9380   4.059   1.435   2.923
 3121SOL    HW1 9381   3.981   1.404   2.870
 3121SOL    HW2 9382   4.117   1.493   2.866
 3122SOL     OW 9383   4.162   0.392   3.361
 3122SOL    HW1 9384   4.244   0.336   3.370
 3122SOL    HW2 9385   4.081   0.334   3.365
 3123SOL     OW 9386   3.955   1.713   2.345
 3123SOL    HW1 9387   3.989   1.790   2.399
 3123SOL    HW2 9388   3.999   1.713   2.255
 3124SOL     OW 9389   4.851   1.341   3.552
 3124SOL    HW1 9390   4.898   1.341   3.640
 3124SOL    HW2 9391   4.803   1.254   3.541
 3125SOL     OW 9392   3.954   1.434   2.400
 3125SOL    HW1 9393   3.928   1.530   2.400
 3125SOL    HW2 9394   3.883   1.380   2.445
 3126SOL     OW 9395   3.964   1.091   2.748
 3126SOL    HW1 9396   3.978   1.007   2.800
 3126SOL    HW2 9397   3.909   1.155   2.803
 3127SOL     OW 9398   4.344   1.786   3.301
 3127SOL    HW1 9399   4.252   1.769   3.336
 3127SOL    HW2 9400   4.372   1.878   3.327
 3128SOL     OW 9401   4.330   0.964   1.985
 3128SOL    HW1 9402   4.337   1.048   1.931
 3128SOL    HW2 9403   4.376   0.977   2.073
 3129SOL     OW 9404   3.846   0.643   2.425
 3129SOL    HW1 9405   3.801   0.555   2.442
 3129SOL    HW2 9406   3.845   0.697   2.509
 3130SOL     OW 9407   3.751   1.596   1.979
 3130SOL    HW1 9408   3.732   1.500   2.000
 3130SOL    HW2 9409   3.718   1.654   2.054
 3131SOL     OW 9410   3.837   0.737   3.459
 3131SOL    HW1 9411   3.925   0.724   3.504
 3131SOL    HW2 9412   3.824   0.834   3.437
 3132SOL     OW 9413   4.337   1.365   2.588
 3132SOL    HW1 9414   4.288   1.278   2.597
 3132SOL    HW2 9415   4.314   1.408   2.501
 3133SOL     OW 9416   4.533   0.004   2.364
 3133SOL    HW1 9417   4.573   0.095   2.355
 3133SOL    HW2 9418   4.433   0.012   2.370
 3134SOL     OW 9419   3.921   0.976   3.126
 3134SOL    HW1 9420   4.010   0.931   3.112
 3134SOL    HW2 9421   3.848   0.911   3.107
 3135SOL     OW 9422   4.041   0.251   3.663
 3135SOL    HW1 9423   4.112   0.322   3.669
 3135SOL    HW2 9424   3.953   0.290   3.691
 3136SOL     OW 9425   4.322   0.729   2.132
 3136SOL    HW1 9426   4.346   0.798   2.064
 3136SOL    HW2 9427   4.244   0.762   2.186
 3137SOL     OW 9428   4.531   0.605   3.327
 3137SOL    HW1 9429   4.484   0.602   3.416
 3137SOL    HW2 9430   4.480   0.550   3.261
 3138SOL     OW 9431   4.697   0.890   3.434
 3138SOL    HW1 9432   4.743   0.806   3.405
 3138SOL    HW2 9433   4.641   0.924   3.359
 3139SOL     OW 9434   4.715   0.410   3.104
 3139SOL    HW1 9435   4.638   0.444   3.158
 3139SOL    HW2 9436   4.681   0.359   3.025
 3140SOL     OW 9437   4.765   0.701   2.291
 3140SOL    HW1 9438   4.791   0.697   2.387
 3140SOL    HW2 9439   4.680   0.650   2.277
 3141SOL     OW 9440   3.800   0.811   2.651
 3141SOL    HW1 9441   3.899   0.799   2.660
 3141SOL    HW2 9442   3.776   0.906   2.672
 3142SOL     OW 9443   3.854   1.821   3.433
 3142SOL    HW1 9444   3.844   1.806   3.532
 3142SOL    HW2 9445   3.768   1.857   3.397
 3143SOL     OW 9446   4.589   0.348   2.057
 3143SOL    HW1 9447   4.648   0.411   2.008
 3143SOL    HW2 9448   4.608   0.254   2.028
 3144SOL     OW 9449   4.274   0.196   2.747
 3144SOL    HW1 9450   4.269   0.191   2.847
 3144SOL    HW2 9451   4.276   0.292   2.718
 3145SOL     OW 9452   4.732   1.456   2.339
 3145SOL    HW1 9453   4.686   1.528   2.287
 3145SOL    HW2 9454   4.728   1.476   2.437
 3146SOL     OW 9455   4.075   1.801   2.715
 3146SOL    HW1 9456   4.125   1.715   2.721
 3146SOL    HW2 9457   4.140   1.878   2.712
 3147SOL     OW 9458   4.045   0.943   2.104
 3147SOL    HW1 9459   4.127   0.982   2.062
 3147SOL    HW2 9460   4.018   0.861   2.055
 3148SOL     OW 9461   4.185   1.266   3.589
 3148SOL    HW1 9462   4.135   1.267   3.503
 3148SOL    HW2 9463   4.122   1.248   3.665
 3149SOL     OW 9464   3.926   0.285   3.360
 3149SOL    HW1 9465   3.846   0.345   3.347
 3149SOL    HW2 9466   3.916   0.236   3.446
 3150SOL     OW 9467   4.188   1.743   2.185
 3150SOL    HW1 9468   4.221   1.782   2.271
 3150SOL    HW2 9469   4.264   1.736   2.120
 3151SOL     OW 9470   3.973   1.785   3.103
 3151SOL    HW1 9471   4.030   1.720   3.153
 3151SOL    HW2 9472   3.957   1.752   3.010
 3152SOL     OW 9473   4.664   1.698   2.766
 3152SOL    HW1 9474   4.744   1.641   2.787
 3152SOL    HW2 9475   4.615   1.658   2.689
 3153SOL     OW 9476   4.106   0.700   2.342
 3153SOL    HW1 9477   4.151   0.610   2.339
 3153SOL    HW2 9478   4.012   0.689   2.375
 3154SOL     OW 9479   4.338   0.122   1.979
 3154SOL    HW1 9480   4.436   0.100   1.986
 3154SOL    HW2 9481   4.307   0.105   1.886
 3155SOL     OW 9482   4.505   0.264   3.611
 3155SOL    HW1 9483   4.572   0.203   3.654
 3155SOL    HW2 9484   4.432   0.283   3.676
 3156SOL     OW 9485   4.612   1.514   3.057
 3156SOL    HW1 9486   4.589   1.489   2.963
 3156SOL    HW2 9487   4.673   1.445   3.096
 3157SOL     OW 9488   4.527   1.402   2.786
 3157SOL    HW1 9489   4.617   1.416   2.744
 3157SOL    HW2 9490   4.456   1.404   2.715
 3158SOL     OW 9491   4.646   0.503   2.761
 3158SOL    HW1 9492   4.621   0.494   2.665
 3158SOL    HW2 9493   4.694   0.421   2.792
 3159SOL     OW 9494   4.263   0.064   2.374
 3159SOL    HW1 9495   4.182   0.065   2.432
 3159SOL    HW2 9496   4.266   0.147   2.319
 3160SOL     OW 9497   4.021   0.035   2.033
 3160SOL    HW1 9498   4.070   0.119   2.012
 3160SOL    HW2 9499   4.083  -0.030   2.078
 3161SOL     OW 9500   4.659   0.236   2.342
 3161SOL    HW1 9501   4.611   0.277   2.264
 3161SOL    HW2 9502   4.758   0.234   2.323
 3162SOL     OW 9503   4.951   1.570   2.655
 3162SOL    HW1 9504   4.972   1.644   2.590
 3162SOL    HW2 9505   5.019   1.570   2.728
 3163SOL     OW 9506   4.183   1.152   2.603
 3163SOL    HW1 9507   4.112   1.125   2.668
 3163SOL    HW2 9508   4.157   1.124   2.510
 3164SOL     OW 9509   4.995   1.797   2.453
 3164SOL    HW1 9510   5.039   1.861   2.389
 3164SOL    HW2 9511   4.945   1.849   2.523
 3165SOL     OW 9512   4.756   0.549   1.878
 3165SOL    HW1 9513   4.715   0.631   1.839
 3165SOL    HW2 9514   4.820   0.575   1.951
 3166SOL     OW 9515   3.802   0.556   3.248
 3166SOL    HW1 9516   3.894   0.555   3.207
 3166SOL    HW2 9517   3.796   0.630   3.315
 3167SOL     OW 9518   4.285   0.222   3.009
 3167SOL    HW1 9519   4.323   0.138   3.046
 3167SOL    HW2 9520   4.197   0.241   3.053
 3168SOL     OW 9521   4.590   0.454   2.504
 3168SOL    HW1 9522   4.558   0.526   2.442
 3168SOL    HW2 9523   4.614   0.373   2.451
 3169SOL     OW 9524   4.741   0.039   2.615
 3169SOL    HW1 9525   4.669   0.044   2.546
 3169SOL    HW2 9526   4.717  -0.030   2.684
 3170SOL     OW 9527   4.212   1.385   2.036
 3170SOL    HW1 9528   4.125   1.370   2.083
 3170SOL    HW2 9529   4.195   1.411   1.941
 3171SOL     OW 9530   4.251   0.256   2.190
 3171SOL    HW1 9531   4.278   0.197   2.115
 3171SOL    HW2 9532   4.251   0.351   2.159
 3172SOL     OW 9533   4.835   1.195   2.962
 3172SOL    HW1 9534   4.795   1.239   3.043
 3172SOL    HW2 9535   4.794   1.232   2.879
 3173SOL     OW 9536   4.639   0.089   3.264
 3173SOL    HW1 9537   4.664   0.069   3.169
 3173SOL    HW2 9538   4.711   0.145   3.306
 3174SOL     OW 9539   4.704   1.116   3.581
 3174SOL    HW1 9540   4.605   1.122   3.591
 3174SOL    HW2 9541   4.727   1.036   3.525
 3175SOL     OW 9542   4.429   1.050   2.230
 3175SOL    HW1 9543   4.415   1.057   2.329
 3175SOL    HW2 9544   4.513   0.999   2.212
 3176SOL     OW 9545   4.134   0.813   3.113
 3176SOL    HW1 9546   4.220   0.825   3.163
 3176SOL    HW2 9547   4.092   0.726   3.140
 3177SOL     OW 9548   3.788   1.564   3.193
 3177SOL    HW1 9549   3.742   1.646   3.159
 3177SOL    HW2 9550   3.886   1.583   3.202
 3178SOL     OW 9551   4.091   1.100   2.363
 3178SOL    HW1 9552   4.084   1.183   2.307
 3178SOL    HW2 9553   4.095   1.020   2.303
 3179SOL     OW 9554   4.290   0.537   2.727
 3179SOL    HW1 9555   4.302   0.603   2.653
 3179SOL    HW2 9556   4.336   0.571   2.810
 3180SOL     OW 9557   4.976   1.348   2.250
 3180SOL    HW1 9558   5.026   1.425   2.290
 3180SOL    HW2 9559   4.881   1.350   2.282
 3181SOL     OW 9560   4.078   1.510   3.191
 3181SOL    HW1 9561   4.057   1.466   3.104
 3181SOL    HW2 9562   4.175   1.536   3.194
 3182SOL     OW 9563   4.126   0.751   3.460
 3182SOL    HW1 9564   4.194   0.806   3.413
 3182SOL    HW2 9565   4.166   0.663   3.487
 3183SOL     OW 9566   4.737   0.105   3.632
 3183SOL    HW1 9567   4.743   0.190   3.580
 3183SOL    HW2 9568   4.769   0.029   3.575
 3184SOL     OW 9569   4.228   0.050   3.602
 3184SOL    HW1 9570   4.186  -0.007   3.532
 3184SOL    HW2 9571   4.162   0.119   3.634
 3185SOL     OW 9572   4.297   0.870   2.891
 3185SOL    HW1 9573   4.341   0.959   2.882
 3185SOL    HW2 9574   4.234   0.870   2.968
 3186SOL     OW 9575   5.084   0.862   2.907
 3186SOL    HW1 9576   5.009   0.862   2.841
 3186SOL    HW2 9577   5.121   0.770   2.916
 3187SOL     OW 9578   4.933   0.525   2.137
 3187SOL    HW1 9579   4.946   0.441   2.191
 3187SOL    HW2 9580   4.904   0.599   2.197
 3188SOL     OW 9581   4.031   0.213   3.093
 3188SOL    HW1 9582   4.008   0.250   3.183
 3188SOL    HW2 9583   4.001   0.118   3.087
 3189SOL     OW 9584   3.761   1.310   3.144
 3189SOL    HW1 9585   3.814   1.261   3.212
 3189SOL    HW2 9586   3.783   1.408   3.149
 3190SOL     OW 9587   4.456   0.634   2.926
 3190SOL    HW1 9588   4.515   0.608   2.850
 3190SOL    HW2 9589   4.428   0.730   2.915
 3191SOL     OW 9590   4.031   0.063   2.480
 3191SOL    HW1 9591   4.020   0.157   2.513
 3191SOL    HW2 9592   4.026   0.000   2.557
 3192SOL     OW 9593   4.747   0.766   2.828
 3192SOL    HW1 9594   4.762   0.787   2.924
 3192SOL    HW2 9595   4.717   0.671   2.819
 3193SOL     OW 9596   4.704   1.573   3.562
 3193SOL    HW1 9597   4.684   1.617   3.474
 3193SOL    HW2 9598   4.743   1.482   3.546
 3194SOL     OW 9599   4.074   0.898   3.666
 3194SOL    HW1 9600   4.150   0.942   3.714
 3194SOL    HW2 9601   4.109   0.851   3.584
 3195SOL     OW 9602   5.027   0.838   1.904
 3195SOL    HW1 9603   5.061   0.745   1.919
 3195SOL    HW2 9604   5.045   0.865   1.809
 3196SOL     OW 9605   4.792   1.333   2.711
 3196SOL    HW1 9606   4.799   1.249   2.656
 3196SOL    HW2 9607   4.854   1.402   2.675
 3197SOL     OW 9608   4.043   0.810   2.811
 3197SOL    HW1 9609   4.136   0.846   2.816
 3197SOL    HW2 9610   4.037   0.725   2.863
 3198SOL     OW 9611   4.063   0.509   2.868
 3198SOL    HW1 9612   4.011   0.426   2.851
 3198SOL    HW2 9613   4.140   0.514   2.804
 3199SOL     OW 9614   4.862   0.380   3.540
 3199SOL    HW1 9615   4.817   0.443   3.604
 3199SOL    HW2 9616   4.955   0.411   3.523
 3200SOL     OW 9617   4.884   0.207   3.339
 3200SOL    HW1 9618   4.884   0.271   3.416
 3200SOL    HW2 9619   4.912   0.255   3.256
 3201SOL     OW 9620   3.732   1.326   2.062
 3201SOL    HW1 9621   3.639   1.347   2.031
 3201SOL    HW2 9622   3.742   1.227   2.075
 3202SOL     OW 9623   3.812   1.801   2.789
 3202SOL    HW1 9624   3.770   1.715   2.762
 3202SOL    HW2 9625   3.906   1.804   2.755
 3203SOL     OW 9626   4.228   1.568   2.772
 3203SOL    HW1 9627   4.294   1.642   2.781
 3203SOL    HW2 9628   4.272   1.489   2.730
 3204SOL     OW 9629   4.726   0.796   3.100
 3204SOL    HW1 9630   4.767   0.764   3.186
 3204SOL    HW2 9631   4.630   0.769   3.097
 3205SOL     OW 9632   3.764   0.544   2.976
 3205SOL    HW1 9633   3.849   0.511   2.935
 3205SOL    HW2 9634   3.777   0.559   3.074
 3206SOL     OW 9635   3.913   0.520   3.584
 3206SOL    HW1 9636   3.972   0.480   3.514
 3206SOL    HW2 9637   3.855   0.591   3.543
 3207SOL     OW 9638   4.539   0.572   2.187
 3207SOL    HW1 9639   4.546   0.483   2.141
 3207SOL    HW2 9640   4.445   0.606   2.179
 3208SOL     OW 9641   3.976   1.564   3.606
 3208SOL    HW1 9642   3.946   1.621   3.682
 3208SOL    HW2 9643   3.969   1.467   3.632
 3209SOL     OW 9644   4.395   0.464   3.131
 3209SOL    HW1 9645   4.361   0.375   3.101
 3209SOL    HW2 9646   4.421   0.518   3.051
 3210SOL     OW 9647   4.654   1.678   3.327
 3210SOL    HW1 9648   4.630   1.660   3.232
 3210SOL    HW2 9649   4.684   1.772   3.337
 3211SOL     OW 9650   4.197   0.500   2.053
 3211SOL    HW1 9651   4.258   0.580   2.057
 3211SOL    HW2 9652   4.102   0.531   2.060
 3212SOL     OW 9653   3.883   1.137   3.328
 3212SOL    HW1 9654   3.905   1.076   3.404
 3212SOL    HW2 9655   3.893   1.088   3.242
 3213SOL     OW 9656   5.026   0.855   2.171
 3213SOL    HW1 9657   4.940   0.824   2.213
 3213SOL    HW2 9658   5.022   0.841   2.072
 3214SOL     OW 9659   3.807   1.258   2.884
 3214SOL    HW1 9660   3.802   1.257   2.984
 3214SOL    HW2 9661   3.724   1.217   2.846
 3215SOL     OW 9662   4.412   1.662   3.578
 3215SOL    HW1 9663   4.356   1.743   3.587
 3215SOL    HW2 9664   4.464   1.666   3.492
 3216SOL     OW 9665   3.854   1.794   3.713
 3216SOL    HW1 9666   3.813   1.720   3.766
 3216SOL    HW2 9667   3.918   1.845   3.771
 3217SOL     OW 9668   4.554   1.273   3.284
 3217SOL    HW1 9669   4.549   1.306   3.379
 3217SOL    HW2 9670   4.468   1.292   3.238
 3218SOL     OW 9671   4.396   1.616   2.016
 3218SOL    HW1 9672   4.405   1.626   1.917
 3218SOL    HW2 9673   4.356   1.527   2.037
 3219SOL     OW 9674   3.987   0.326   2.582
 3219SOL    HW1 9675   3.908   0.377   2.548
 3219SOL    HW2 9676   3.978   0.311   2.680
 3220SOL     OW 9677   4.546   1.002   3.234
 3220SOL    HW1 9678   4.586   1.001   3.142
 3220SOL    HW2 9679   4.556   1.094   3.274
 3221SOL     OW 9680   4.640   0.910   2.153
 3221SOL    HW1 9681   4.703   0.948   2.085
 3221SOL    HW2 9682   4.680   0.827   2.192
 3222SOL     OW 9683   4.096   1.288   3.352
 3222SOL    HW1 9684   4.083   1.381   3.318
 3222SOL    HW2 9685   4.012   1.236   3.339
 3223SOL     OW 9686   4.763   1.098   2.558
 3223SOL    HW1 9687   4.693   1.051   2.612
 3223SOL    HW2 9688   4.822   1.030   2.515
 3224SOL     OW 9689   4.738   0.236   2.833
 3224SOL    HW1 9690   4.730   0.200   2.740
 3224SOL    HW2 9691   4.736   0.160   2.898
 3225SOL     OW 9692   4.314   1.487   2.353
 3225SOL    HW1 9693   4.356   1.429   2.283
 3225SOL    HW2 9694   4.270   1.566   2.309
 3226SOL     OW 9695   3.979   1.348   2.152
 3226SOL    HW1 9696   3.883   1.349   2.125
 3226SOL    HW2 9697   3.991   1.401   2.236
 3227SOL     OW 9698   3.829   1.013   3.588
 3227SOL    HW1 9699   3.752   0.980   3.642
 3227SOL    HW2 9700   3.914   0.983   3.630
 3228SOL     OW 9701   4.396   0.203   3.351
 3228SOL    HW1 9702   4.486   0.187   3.311
 3228SOL    HW2 9703   4.404   0.208   3.450
 3229SOL     OW 9704   3.799   0.345   1.895
 3229SOL    HW1 9705   3.707   0.317   1.866
 3229SOL    HW2 9706   3.830   0.422   1.839
 3230SOL     OW 9707   3.796   0.166   2.180
 3230SOL    HW1 9708   3.779   0.249   2.126
 3230SOL    HW2 9709   3.886   0.129   2.158
 3231SOL     OW 9710   4.337   0.842   3.293
 3231SOL    HW1 9711   4.393   0.923   3.276
 3231SOL    HW2 9712   4.396   0.762   3.296
 3232SOL     OW 9713   4.440   0.565   3.570
 3232SOL    HW1 9714   4.459   0.630   3.644
 3232SOL    HW2 9715   4.500   0.485   3.579
 3233SOL     OW 9716   4.114   1.741   3.422
 3233SOL    HW1 9717   4.023   1.782   3.420
 3233SOL    HW2 9718   4.107   1.647   3.454
 3234SOL     OW 9719   4.318   0.745   2.514
 3234SOL    HW1 9720   4.368   0.830   2.495
 3234SOL    HW2 9721   4.230   0.747   2.466
 3235SOL     OW 9722   4.583   1.374   1.878
 3235SOL    HW1 9723   4.537   1.389   1.966
 3235SOL    HW2 9724   4.627   1.459   1.848
 3236SOL     OW 9725   4.385   1.790   2.815
 3236SOL    HW1 9726   4.339   1.878   2.802
 3236SOL    HW2 9727   4.484   1.802   2.808
 3237SOL     OW 9728   4.583   0.956   2.723
 3237SOL    HW1 9729   4.637   0.887   2.771
 3237SOL    HW2 9730   4.551   1.025   2.789
 3238SOL     OW 9731   4.807   0.984   1.949
 3238SOL    HW1 9732   4.784   1.037   1.867
 3238SOL    HW2 9733   4.888   0.928   1.930
 3239SOL     OW 9734   3.945   1.314   3.706
 3239SOL    HW1 9735   3.880   1.241   3.685
 3239SOL    HW2 9736   3.949   1.328   3.804
 3240SOL     OW 9737   3.803   1.240   2.515
 3240SOL    HW1 9738   3.802   1.193   2.603
 3240SOL    HW2 9739   3.885   1.212   2.464
 3241SOL     OW 9740   4.396   1.391   3.486
 3241SOL    HW1 9741   4.318   1.341   3.524
 3241SOL    HW2 9742   4.393   1.486   3.517
 3242SOL     OW 9743   4.152   0.424   2.382
 3242SOL    HW1 9744   4.182   0.352   2.320
 3242SOL    HW2 9745   4.113   0.384   2.465
 3243SOL     OW 9746   4.041   0.547   3.142
 3243SOL    HW1 9747   4.079   0.488   3.214
 3243SOL    HW2 9748   4.081   0.521   3.054
 3244SOL     OW 9749   4.536   1.586   2.549
 3244SOL    HW1 9750   4.568   1.596   2.455
 3244SOL    HW2 9751   4.457   1.524   2.551
 3245SOL     OW 9752   4.725   0.034   3.016
 3245SOL    HW1 9753   4.662  -0.038   2.985
 3245SOL    HW2 9754   4.818  -0.002   3.016
 3246SOL     OW 9755   4.494   1.330   2.163
 3246SOL    HW1 9756   4.448   1.243   2.180
 3246SOL    HW2 9757   4.585   1.327   2.204
 3247SOL     OW 9758   4.342   1.567   3.146
 3247SOL    HW1 9759   4.337   1.649   3.203
 3247SOL    HW2 9760   4.431   1.564   3.101
 3248SOL     OW 9761   3.763   1.077   2.162
 3248SOL    HW1 9762   3.862   1.066   2.153
 3248SOL    HW2 9763   3.723   0.991   2.194
 3249SOL     OW 9764   4.599   1.646   2.199
 3249SOL    HW1 9765   4.522   1.611   2.145
 3249SOL    HW2 9766   4.567   1.717   2.261
 3250SOL     OW 9767   3.954   0.628   3.837
 3250SOL    HW1 9768   3.861   0.626   3.874
 3250SOL    HW2 9769   3.955   0.589   3.745
 3251SOL     OW 9770   3.949   0.275   4.720
 3251SOL    HW1 9771   3.984   0.258   4.812
 3251SOL    HW2 9772   3.861   0.230   4.708
 3252SOL     OW 9773   3.743   0.368   4.371
 3252SOL    HW1 9774   3.661   0.411   4.410
 3252SOL    HW2 9775   3.715   0.295   4.308
 3253SOL     OW 9776   4.293   1.275   4.889
 3253SOL    HW1 9777   4.200   1.268   4.852
 3253SOL    HW2 9778   4.304   1.364   4.933
 3254SOL     OW 9779   4.492   1.144   4.747
 3254SOL    HW1 9780   4.414   1.161   4.807
 3254SOL    HW2 9781   4.526   1.231   4.711
 3255SOL     OW 9782   4.409   1.012   4.389
 3255SOL    HW1 9783   4.478   0.996   4.459
 3255SOL    HW2 9784   4.336   1.069   4.427
 3256SOL     OW 9785   4.059   1.435   4.785
 3256SOL    HW1 9786   3.981   1.404   4.732
 3256SOL    HW2 9787   4.117   1.493   4.728
 3257SOL     OW 9788   3.955   1.713   4.207
 3257SOL    HW1 9789   3.989   1.790   4.261
 3257SOL    HW2 9790   3.999   1.713   4.117
 3258SOL     OW 9791   3.954   1.434   4.262
 3258SOL    HW1 9792   3.928   1.530   4.262
 3258SOL    HW2 9793   3.883   1.380   4.307
 3259SOL     OW 9794   3.964   1.091   4.610
 3259SOL    HW1 9795   3.978   1.007   4.662
 3259SOL    HW2 9796   3.909   1.155   4.665
 3260SOL     OW 9797   4.330   0.964   3.847
 3260SOL    HW1 9798   4.337   1.048   3.793
 3260SOL    HW2 9799   4.376   0.977   3.935
 3261SOL     OW 9800   3.846   0.643   4.287
 3261SOL    HW1 9801   3.801   0.555   4.304
 3261SOL    HW2 9802   3.845   0.697   4.371
 3262SOL     OW 9803   3.751   1.596   3.841
 3262SOL    HW1 9804   3.732   1.500   3.862
 3262SOL    HW2 9805   3.718   1.654   3.916
 3263SOL     OW 9806   4.337   1.365   4.450
 3263SOL    HW1 9807   4.288   1.278   4.459
 3263SOL    HW2 9808   4.314   1.408   4.363
 3264SOL     OW 9809   4.533   0.004   4.226
 3264SOL    HW1 9810   4.573   0.095   4.217
 3264SOL    HW2 9811   4.433   0.012   4.232
 3265SOL     OW 9812   3.921   0.976   4.988
 3265SOL    HW1 9813   4.010   0.931   4.974
 3265SOL    HW2 9814   3.848   0.911   4.969
 3266SOL     OW 9815   4.322   0.729   3.994
 3266SOL    HW1 9816   4.346   0.798   3.926
 3266SOL    HW2 9817   4.244   0.762   4.048
 3267SOL     OW 9818   4.765   0.701   4.153
 3267SOL    HW1 9819   4.791   0.697   4.249
 3267SOL    HW2 9820   4.680   0.650   4.139
 3268SOL     OW 9821   3.800   0.811   4.513
 3268SOL    HW1 9822   3.899   0.799   4.522
 3268SOL    HW2 9823   3.776   0.906   4.534
 3269SOL     OW 9824   4.589   0.348   3.919
 3269SOL    HW1 9825   4.648   0.411   3.870
 3269SOL    HW2 9826   4.608   0.254   3.890
 3270SOL     OW 9827   4.274   0.196   4.609
 3270SOL    HW1 9828   4.269   0.191   4.709
 3270SOL    HW2 9829   4.276   0.292   4.580
 3271SOL     OW 9830   4.732   1.456   4.201
 3271SOL    HW1 9831   4.686   1.528   4.149
 3271SOL    HW2 9832   4.728   1.476   4.299
 3272SOL     OW 9833   4.075   1.801   4.577
 3272SOL    HW1 9834   4.125   1.715   4.583
 3272SOL    HW2 9835   4.140   1.878   4.574
 3273SOL     OW 9836   4.045   0.943   3.966
 3273SOL    HW1 9837   4.127   0.982   3.924
 3273SOL    HW2 9838   4.018   0.861   3.917
 3274SOL     OW 9839   4.188   1.743   4.047
 3274SOL    HW1 9840   4.221   1.782   4.133
 3274SOL    HW2 9841   4.264   1.736   3.982
 3275SOL     OW 9842   3.973   1.785   4.965
 3275SOL    HW1 9843   4.030   1.720   5.015
 3275SOL    HW2 9844   3.957   1.752   4.872
 3276SOL     OW 9845   4.664   1.698   4.628
 3276SOL    HW1 9846   4.744   1.641   4.649
 3276SOL    HW2 9847   4.615   1.658   4.551
 3277SOL     OW 9848   4.106   0.700   4.204
 3277SOL    HW1 9849   4.151   0.610   4.201
 3277SOL    HW2 9850   4.012   0.689   4.237
 3278SOL     OW 9851   4.338   0.122   3.841
 3278SOL    HW1 9852   4.436   0.100   3.848
 3278SOL    HW2 9853   4.307   0.105   3.748
 3279SOL     OW 9854   4.527   1.402   4.648
 3279SOL    HW1 9855   4.617   1.416   4.606
 3279SOL    HW2 9856   4.456   1.404   4.577
 3280SOL     OW 9857   4.646   0.503   4.623
 3280SOL    HW1 9858   4.621   0.494   4.527
 3280SOL    HW2 9859   4.694   0.421   4.654
 3281SOL     OW 9860   4.263   0.064   4.236
 3281SOL    HW1 9861   4.182   0.065   4.294
 3281SOL    HW2 9862   4.266   0.147   4.181
 3282SOL     OW 9863   4.021   0.035   3.895
 3282SOL    HW1 9864   4.070   0.119   3.874
 3282SOL    HW2 9865   4.083  -0.030   3.940
 3283SOL     OW 9866   4.659   0.236   4.204
 3283SOL    HW1 9867   4.611   0.277   4.126
 3283SOL    HW2 9868   4.758   0.234   4.185
 3284SOL     OW 9869   4.951   1.570   4.517
 3284SOL    HW1 9870   4.972   1.644   4.452
 3284SOL    HW2 9871   5.019   1.570   4.590
 3285SOL     OW 9872   4.183   1.152   4.465
 3285SOL    HW1 9873   4.112   1.125   4.530
 3285SOL    HW2 9874   4.157   1.124   4.372
 3286SOL     OW 9875   4.995   1.797   4.315
 3286SOL    HW1 9876   5.039   1.861   4.251
 3286SOL    HW2 9877   4.945   1.849   4.385
 3287SOL     OW 9878   4.756   0.549   3.740
 3287SOL    HW1 9879   4.715   0.631   3.701
 3287SOL    HW2 9880   4.820   0.575   3.813
 3288SOL     OW 9881   4.590   0.454   4.366
 3288SOL    HW1 9882   4.558   0.526   4.304
 3288SOL    HW2 9883   4.614   0.373   4.313
 3289SOL     OW 9884   4.741   0.039   4.477
 3289SOL    HW1 9885   4.669   0.044   4.408
 3289SOL    HW2 9886   4.717  -0.030   4.546
 3290SOL     OW 9887   4.212   1.385   3.898
 3290SOL    HW1 9888   4.125   1.370   3.945
 3290SOL    HW2 9889   4.195   1.411   3.803
 3291SOL     OW 9890   4.251   0.256   4.052
 3291SOL    HW1 9891   4.278   0.197   3.977
 3291SOL    HW2 9892   4.251   0.351   4.021
 3292SOL     OW 9893   4.835   1.195   4.824
 3292SOL    HW1 9894   4.795   1.239   4.905
 3292SOL    HW2 9895   4.794   1.232   4.741
 3293SOL     OW 9896   4.429   1.050   4.092
 3293SOL    HW1 9897   4.415   1.057   4.191
 3293SOL    HW2 9898   4.513   0.999   4.074
 3294SOL     OW 9899   4.134   0.813   4.975
 3294SOL    HW1 9900   4.220   0.825   5.025
 3294SOL    HW2 9901   4.092   0.726   5.002
 3295SOL     OW 9902   4.091   1.100   4.225
 3295SOL    HW1 9903   4.084   1.183   4.169
 3295SOL    HW2 9904   4.095   1.020   4.165
 3296SOL     OW 9905   4.290   0.537   4.589
 3296SOL    HW1 9906   4.302   0.603   4.515
 3296SOL    HW2 9907   4.336   0.571   4.672
 3297SOL     OW 9908   4.976   1.348   4.112
 3297SOL    HW1 9909   5.026   1.425   4.152
 3297SOL    HW2 9910   4.881   1.350   4.144
 3298SOL     OW 9911   4.996   1.445   4.866
 3298SOL    HW1 9912   5.043   1.458   4.953
 3298SOL    HW2 9913   4.930   1.371   4.875
 3299SOL     OW 9914   4.297   0.870   4.753
 3299SOL    HW1 9915   4.341   0.959   4.744
 3299SOL    HW2 9916   4.234   0.870   4.830
 3300SOL     OW 9917   5.084   0.862   4.769
 3300SOL    HW1 9918   5.009   0.862   4.703
 3300SOL    HW2 9919   5.121   0.770   4.778
 3301SOL     OW 9920   4.933   0.525   3.999
 3301SOL    HW1 9921   4.946   0.441   4.053
 3301SOL    HW2 9922   4.904   0.599   4.059
 3302SOL     OW 9923   4.031   0.213   4.955
 3302SOL    HW1 9924   4.008   0.250   5.045
 3302SOL    HW2 9925   4.001   0.118   4.949
 3303SOL     OW 9926   4.456   0.634   4.788
 3303SOL    HW1 9927   4.515   0.608   4.712
 3303SOL    HW2 9928   4.428   0.730   4.777
 3304SOL     OW 9929   4.031   0.063   4.342
 3304SOL    HW1 9930   4.020   0.157   4.375
 3304SOL    HW2 9931   4.026   0.000   4.419
 3305SOL     OW 9932   4.747   0.766   4.690
 3305SOL    HW1 9933   4.762   0.787   4.786
 3305SOL    HW2 9934   4.717   0.671   4.681
 3306SOL     OW 9935   5.027   0.838   3.766
 3306SOL    HW1 9936   5.061   0.745   3.781
 3306SOL    HW2 9937   5.045   0.865   3.671
 3307SOL     OW 9938   4.792   1.333   4.573
 3307SOL    HW1 9939   4.799   1.249   4.518
 3307SOL    HW2 9940   4.854   1.402   4.537
 3308SOL     OW 9941   4.043   0.810   4.673
 3308SOL    HW1 9942   4.136   0.846   4.678
 3308SOL    HW2 9943   4.037   0.725   4.725
 3309SOL     OW 9944   4.063   0.509   4.730
 3309SOL    HW1 9945   4.011   0.426   4.713
 3309SOL    HW2 9946   4.140   0.514   4.666
 3310SOL     OW 9947   3.732   1.326   3.924
 3310SOL    HW1 9948   3.639   1.347   3.893
 3310SOL    HW2 9949   3.742   1.227   3.937
 3311SOL     OW 9950   3.812   1.801   4.651
 3311SOL    HW1 9951   3.770   1.715   4.624
 3311SOL    HW2 9952   3.906   1.804   4.617
 3312SOL     OW 9953   4.228   1.568   4.634
 3312SOL    HW1 9954   4.294   1.642   4.643
 3312SOL    HW2 9955   4.272   1.489   4.592
 3313SOL     OW 9956   4.726   0.796   4.962
 3313SOL    HW1 9957   4.767   0.764   5.048
 3313SOL    HW2 9958   4.630   0.769   4.959
 3314SOL     OW 9959   3.764   0.544   4.838
 3314SOL    HW1 9960   3.849   0.511   4.797
 3314SOL    HW2 9961   3.777   0.559   4.936
 3315SOL     OW 9962   4.539   0.572   4.049
 3315SOL    HW1 9963   4.546   0.483   4.003
 3315SOL    HW2 9964   4.445   0.606   4.041
 3316SOL     OW 9965   4.395   0.464   4.993
 3316SOL    HW1 9966   4.361   0.375   4.963
 3316SOL    HW2 9967   4.421   0.518   4.913
 3317SOL     OW 9968   4.197   0.500   3.915
 3317SOL    HW1 9969   4.258   0.580   3.919
 3317SOL    HW2 9970   4.102   0.531   3.922
 3318SOL     OW 9971   5.026   0.855   4.033
 3318SOL    HW1 9972   4.940   0.824   4.075
 3318SOL    HW2 9973   5.022   0.841   3.934
 3319SOL     OW 9974   3.807   1.258   4.746
 3319SOL    HW1 9975   3.802   1.257   4.846
 3319SOL    HW2 9976   3.724   1.217   4.708
 3320SOL     OW 9977   4.396   1.616   3.878
 3320SOL    HW1 9978   4.405   1.626   3.779
 3320SOL    HW2 9979   4.356   1.527   3.899
 3321SOL     OW 9980   3.987   0.326   4.444
 3321SOL    HW1 9981   3.908   0.377   4.410
 3321SOL    HW2 9982   3.978   0.311   4.542
 3322SOL     OW 9983   4.546   1.002   5.096
 3322SOL    HW1 9984   4.586   1.001   5.004
 3322SOL    HW2 9985   4.556   1.094   5.136
 3323SOL     OW 9986   4.640   0.910   4.015
 3323SOL    HW1 9987   4.703   0.948   3.947
 3323SOL    HW2 9988   4.680   0.827   4.054
 3324SOL     OW 9989   4.763   1.098   4.420
 3324SOL    HW1 9990   4.693   1.051   4.474
 3324SOL    HW2 9991   4.822   1.030   4.377
 3325SOL     OW 9992   4.738   0.236   4.695
 3325SOL    HW1 9993   4.730   0.200   4.602
 3325SOL    HW2 9994   4.736   0.160   4.760
 3326SOL     OW 9995   4.314   1.487   4.215
 3326SOL    HW1 9996   4.356   1.429   4.145
 3326SOL    HW2 9997   4.270   1.566   4.171
 3327SOL     OW 9998   3.979   1.348   4.014
 3327SOL    HW1 9999   3.883   1.349   3.987
 3327SOL    HW210000   3.991   1.401   4.098
 3328SOL     OW10001   3.799   0.345   3.757
 3328SOL    HW110002   3.707   0.317   3.728
 3328SOL    HW210003   3.830   0.422   3.701
 3329SOL     OW10004   3.796   0.166   4.042
 3329SOL    HW110005   3.779   0.249   3.988
 3329SOL    HW210006   3.886   0.129   4.020
 3330SOL     OW10007   4.318   0.745   4.376
 3330SOL    HW110008   4.368   0.830   4.357
 3330SOL    HW210009   4.230   0.747   4.328
 3331SOL     OW10010   4.583   1.374   3.740
 3331SOL    HW110011   4.537   1.389   3.828
 3331SOL    HW210012   4.627   1.459   3.710
 3332SOL     OW10013   4.385   1.790   4.677
 3332SOL    HW110014   4.339   1.878   4.664
 3332SOL    HW210015   4.484   1.802   4.670
 3333SOL     OW10016   4.583   0.956   4.585
 3333SOL    HW110017   4.637   0.887   4.633
 3333SOL    HW210018   4.551   1.025   4.651
 3334SOL     OW10019   4.807   0.984   3.811
 3334SOL    HW110020   4.784   1.037   3.729
 3334SOL    HW210021   4.888   0.928   3.792
 3335SOL     OW10022   3.803   1.240   4.377
 3335SOL    HW110023   3.802   1.193   4.465
 3335SOL    HW210024   3.885   1.212   4.326
 3336SOL     OW10025   4.152   0.424   4.244
 3336SOL    HW110026   4.182   0.352   4.182
 3336SOL    HW210027   4.113   0.384   4.327
 3337SOL     OW10028   4.536   1.586   4.411
 3337SOL    HW110029   4.568   1.596   4.317
 3337SOL    HW210030   4.457   1.524   4.413
 3338SOL     OW10031   4.494   1.330   4.025
 3338SOL    HW110032   4.448   1.243   4.042
 3338SOL    HW210033   4.585   1.327   4.066
 3339SOL     OW10034   3.763   1.077   4.024
 3339SOL    HW110035   3.862   1.066   4.015
 3339SOL    HW210036   3.723   0.991   4.056
 3340SOL     OW10037   4.599   1.646   4.061
 3340SOL    HW110038   4.522   1.611   4.007
 3340SOL    HW210039   4.567   1.717   4.123
 3341SOL     OW10040   3.954   2.490   0.113
 3341SOL    HW110041   3.861   2.488   0.150
 3341SOL    HW210042   3.955   2.451   0.021
 3342SOL     OW10043   3.949   2.137   0.996
 3342SOL    HW110044   3.984   2.120   1.088
 3342SOL    HW210045   3.861   2.092   0.984
 3343SOL     OW10046   3.743   2.230   0.647
 3343SOL    HW110047   3.661   2.273   0.686
 3343SOL    HW210048   3.715   2.157   0.584
 3344SOL     OW10049   4.293   3.137   1.165
 3344SOL    HW110050   4.200   3.130   1.128
 3344SOL    HW210051   4.304   3.226   1.209
 3345SOL     OW10052   4.492   3.006   1.023
 3345SOL    HW110053   4.414   3.023   1.083
 3345SOL    HW210054   4.526   3.093   0.987
 3346SOL     OW10055   4.574   2.660   1.823
 3346SOL    HW110056   4.570   2.736   1.888
 3346SOL    HW210057   4.596   2.696   1.732
 3347SOL     OW10058   4.409   2.874   0.665
 3347SOL    HW110059   4.478   2.858   0.735
 3347SOL    HW210060   4.336   2.931   0.703
 3348SOL     OW10061   4.410   3.023   1.803
 3348SOL    HW110062   4.470   3.102   1.817
 3348SOL    HW210063   4.324   3.054   1.762
 3349SOL     OW10064   4.059   3.297   1.061
 3349SOL    HW110065   3.981   3.266   1.008
 3349SOL    HW210066   4.117   3.355   1.004
 3350SOL     OW10067   4.162   2.254   1.499
 3350SOL    HW110068   4.244   2.198   1.508
 3350SOL    HW210069   4.081   2.196   1.503
 3351SOL     OW10070   3.955   3.575   0.483
 3351SOL    HW110071   3.989   3.652   0.537
 3351SOL    HW210072   3.999   3.575   0.393
 3352SOL     OW10073   4.851   3.203   1.690
 3352SOL    HW110074   4.898   3.203   1.778
 3352SOL    HW210075   4.803   3.116   1.679
 3353SOL     OW10076   3.954   3.296   0.538
 3353SOL    HW110077   3.928   3.392   0.538
 3353SOL    HW210078   3.883   3.242   0.583
 3354SOL     OW10079   3.964   2.953   0.886
 3354SOL    HW110080   3.978   2.869   0.938
 3354SOL    HW210081   3.909   3.017   0.941
 3355SOL     OW10082   4.344   3.648   1.439
 3355SOL    HW110083   4.252   3.631   1.474
 3355SOL    HW210084   4.372   3.740   1.465
 3356SOL     OW10085   4.330   2.826   0.123
 3356SOL    HW110086   4.337   2.910   0.069
 3356SOL    HW210087   4.376   2.839   0.211
 3357SOL     OW10088   3.846   2.505   0.563
 3357SOL    HW110089   3.801   2.417   0.580
 3357SOL    HW210090   3.845   2.559   0.647
 3358SOL     OW10091   3.751   3.458   0.117
 3358SOL    HW110092   3.732   3.362   0.138
 3358SOL    HW210093   3.718   3.516   0.192
 3359SOL     OW10094   3.837   2.599   1.597
 3359SOL    HW110095   3.925   2.586   1.642
 3359SOL    HW210096   3.824   2.696   1.575
 3360SOL     OW10097   4.337   3.227   0.726
 3360SOL    HW110098   4.288   3.140   0.735
 3360SOL    HW210099   4.314   3.270   0.639
 3361SOL     OW10100   4.533   1.866   0.502
 3361SOL    HW110101   4.573   1.957   0.493
 3361SOL    HW210102   4.433   1.874   0.508
 3362SOL     OW10103   3.921   2.838   1.264
 3362SOL    HW110104   4.010   2.793   1.250
 3362SOL    HW210105   3.848   2.773   1.245
 3363SOL     OW10106   4.041   2.113   1.801
 3363SOL    HW110107   4.112   2.184   1.807
 3363SOL    HW210108   3.953   2.152   1.829
 3364SOL     OW10109   4.322   2.591   0.270
 3364SOL    HW110110   4.346   2.660   0.202
 3364SOL    HW210111   4.244   2.624   0.324
 3365SOL     OW10112   4.531   2.467   1.465
 3365SOL    HW110113   4.484   2.464   1.554
 3365SOL    HW210114   4.480   2.412   1.399
 3366SOL     OW10115   4.697   2.752   1.572
 3366SOL    HW110116   4.743   2.668   1.543
 3366SOL    HW210117   4.641   2.786   1.497
 3367SOL     OW10118   4.715   2.272   1.242
 3367SOL    HW110119   4.638   2.306   1.296
 3367SOL    HW210120   4.681   2.221   1.163
 3368SOL     OW10121   4.765   2.563   0.429
 3368SOL    HW110122   4.791   2.559   0.525
 3368SOL    HW210123   4.680   2.512   0.415
 3369SOL     OW10124   3.800   2.673   0.789
 3369SOL    HW110125   3.899   2.661   0.798
 3369SOL    HW210126   3.776   2.768   0.810
 3370SOL     OW10127   3.854   3.683   1.571
 3370SOL    HW110128   3.844   3.668   1.670
 3370SOL    HW210129   3.768   3.719   1.535
 3371SOL     OW10130   4.589   2.210   0.195
 3371SOL    HW110131   4.648   2.273   0.146
 3371SOL    HW210132   4.608   2.116   0.166
 3372SOL     OW10133   4.274   2.058   0.885
 3372SOL    HW110134   4.269   2.053   0.985
 3372SOL    HW210135   4.276   2.154   0.856
 3373SOL     OW10136   4.732   3.318   0.477
 3373SOL    HW110137   4.686   3.390   0.425
 3373SOL    HW210138   4.728   3.338   0.575
 3374SOL     OW10139   4.075   3.663   0.853
 3374SOL    HW110140   4.125   3.577   0.859
 3374SOL    HW210141   4.140   3.740   0.850
 3375SOL     OW10142   4.045   2.805   0.242
 3375SOL    HW110143   4.127   2.844   0.200
 3375SOL    HW210144   4.018   2.723   0.193
 3376SOL     OW10145   4.185   3.128   1.727
 3376SOL    HW110146   4.135   3.129   1.641
 3376SOL    HW210147   4.122   3.110   1.803
 3377SOL     OW10148   3.926   2.147   1.498
 3377SOL    HW110149   3.846   2.207   1.485
 3377SOL    HW210150   3.916   2.098   1.584
 3378SOL     OW10151   4.188   3.605   0.323
 3378SOL    HW110152   4.221   3.644   0.409
 3378SOL    HW210153   4.264   3.598   0.258
 3379SOL     OW10154   3.973   3.647   1.241
 3379SOL    HW110155   4.030   3.582   1.291
 3379SOL    HW210156   3.957   3.614   1.148
 3380SOL     OW10157   4.664   3.560   0.904
 3380SOL    HW110158   4.744   3.503   0.925
 3380SOL    HW210159   4.615   3.520   0.827
 3381SOL     OW10160   4.106   2.562   0.480
 3381SOL    HW110161   4.151   2.472   0.477
 3381SOL    HW210162   4.012   2.551   0.513
 3382SOL     OW10163   4.338   1.984   0.117
 3382SOL    HW110164   4.436   1.962   0.124
 3382SOL    HW210165   4.307   1.967   0.024
 3383SOL     OW10166   4.505   2.126   1.749
 3383SOL    HW110167   4.572   2.065   1.792
 3383SOL    HW210168   4.432   2.145   1.814
 3384SOL     OW10169   4.612   3.376   1.195
 3384SOL    HW110170   4.589   3.351   1.101
 3384SOL    HW210171   4.673   3.307   1.234
 3385SOL     OW10172   4.527   3.264   0.924
 3385SOL    HW110173   4.617   3.278   0.882
 3385SOL    HW210174   4.456   3.266   0.853
 3386SOL     OW10175   4.646   2.365   0.899
 3386SOL    HW110176   4.621   2.356   0.803
 3386SOL    HW210177   4.694   2.283   0.930
 3387SOL     OW10178   4.263   1.926   0.512
 3387SOL    HW110179   4.182   1.927   0.570
 3387SOL    HW210180   4.266   2.009   0.457
 3388SOL     OW10181   4.021   1.897   0.171
 3388SOL    HW110182   4.070   1.981   0.150
 3388SOL    HW210183   4.083   1.832   0.216
 3389SOL     OW10184   4.659   2.098   0.480
 3389SOL    HW110185   4.611   2.139   0.402
 3389SOL    HW210186   4.758   2.096   0.461
 3390SOL     OW10187   4.951   3.432   0.793
 3390SOL    HW110188   4.972   3.506   0.728
 3390SOL    HW210189   5.019   3.432   0.866
 3391SOL     OW10190   4.183   3.014   0.741
 3391SOL    HW110191   4.112   2.987   0.806
 3391SOL    HW210192   4.157   2.986   0.648
 3392SOL     OW10193   4.995   3.659   0.591
 3392SOL    HW110194   5.039   3.723   0.527
 3392SOL    HW210195   4.945   3.711   0.661
 3393SOL     OW10196   4.756   2.411   0.016
 3393SOL    HW110197   4.715   2.493  -0.023
 3393SOL    HW210198   4.820   2.437   0.089
 3394SOL     OW10199   3.802   2.418   1.386
 3394SOL    HW110200   3.894   2.417   1.345
 3394SOL    HW210201   3.796   2.492   1.453
 3395SOL     OW10202   4.285   2.084   1.147
 3395SOL    HW110203   4.323   2.000   1.184
 3395SOL    HW210204   4.197   2.103   1.191
 3396SOL     OW10205   4.590   2.316   0.642
 3396SOL    HW110206   4.558   2.388   0.580
 3396SOL    HW210207   4.614   2.235   0.589
 3397SOL     OW10208   4.741   1.901   0.753
 3397SOL    HW110209   4.669   1.906   0.684
 3397SOL    HW210210   4.717   1.832   0.822
 3398SOL     OW10211   4.212   3.247   0.174
 3398SOL    HW110212   4.125   3.232   0.221
 3398SOL    HW210213   4.195   3.273   0.079
 3399SOL     OW10214   4.251   2.118   0.328
 3399SOL    HW110215   4.278   2.059   0.253
 3399SOL    HW210216   4.251   2.213   0.297
 3400SOL     OW10217   4.835   3.057   1.100
 3400SOL    HW110218   4.795   3.101   1.181
 3400SOL    HW210219   4.794   3.094   1.017
 3401SOL     OW10220   4.639   1.951   1.402
 3401SOL    HW110221   4.664   1.931   1.307
 3401SOL    HW210222   4.711   2.007   1.444
 3402SOL     OW10223   4.704   2.978   1.719
 3402SOL    HW110224   4.605   2.984   1.729
 3402SOL    HW210225   4.727   2.898   1.663
 3403SOL     OW10226   4.429   2.912   0.368
 3403SOL    HW110227   4.415   2.919   0.467
 3403SOL    HW210228   4.513   2.861   0.350
 3404SOL     OW10229   4.134   2.675   1.251
 3404SOL    HW110230   4.220   2.687   1.301
 3404SOL    HW210231   4.092   2.588   1.278
 3405SOL     OW10232   3.788   3.426   1.331
 3405SOL    HW110233   3.742   3.508   1.297
 3405SOL    HW210234   3.886   3.445   1.340
 3406SOL     OW10235   4.091   2.962   0.501
 3406SOL    HW110236   4.084   3.045   0.445
 3406SOL    HW210237   4.095   2.882   0.441
 3407SOL     OW10238   4.290   2.399   0.865
 3407SOL    HW110239   4.302   2.465   0.791
 3407SOL    HW210240   4.336   2.433   0.948
 3408SOL     OW10241   4.976   3.210   0.388
 3408SOL    HW110242   5.026   3.287   0.428
 3408SOL    HW210243   4.881   3.212   0.420
 3409SOL     OW10244   4.078   3.372   1.329
 3409SOL    HW110245   4.057   3.328   1.242
 3409SOL    HW210246   4.175   3.398   1.332
 3410SOL     OW10247   4.126   2.613   1.598
 3410SOL    HW110248   4.194   2.668   1.551
 3410SOL    HW210249   4.166   2.525   1.625
 3411SOL     OW10250   4.737   1.967   1.770
 3411SOL    HW110251   4.743   2.052   1.718
 3411SOL    HW210252   4.769   1.891   1.713
 3412SOL     OW10253   4.228   1.912   1.740
 3412SOL    HW110254   4.186   1.855   1.670
 3412SOL    HW210255   4.162   1.981   1.772
 3413SOL     OW10256   4.297   2.732   1.029
 3413SOL    HW110257   4.341   2.821   1.020
 3413SOL    HW210258   4.234   2.732   1.106
 3414SOL     OW10259   5.084   2.724   1.045
 3414SOL    HW110260   5.009   2.724   0.979
 3414SOL    HW210261   5.121   2.632   1.054
 3415SOL     OW10262   4.933   2.387   0.275
 3415SOL    HW110263   4.946   2.303   0.329
 3415SOL    HW210264   4.904   2.461   0.335
 3416SOL     OW10265   4.031   2.075   1.231
 3416SOL    HW110266   4.008   2.112   1.321
 3416SOL    HW210267   4.001   1.980   1.225
 3417SOL     OW10268   3.761   3.172   1.282
 3417SOL    HW110269   3.814   3.123   1.350
 3417SOL    HW210270   3.783   3.270   1.287
 3418SOL     OW10271   4.456   2.496   1.064
 3418SOL    HW110272   4.515   2.470   0.988
 3418SOL    HW210273   4.428   2.592   1.053
 3419SOL     OW10274   4.031   1.925   0.618
 3419SOL    HW110275   4.020   2.019   0.651
 3419SOL    HW210276   4.026   1.862   0.695
 3420SOL     OW10277   4.747   2.628   0.966
 3420SOL    HW110278   4.762   2.649   1.062
 3420SOL    HW210279   4.717   2.533   0.957
 3421SOL     OW10280   4.704   3.435   1.700
 3421SOL    HW110281   4.684   3.479   1.612
 3421SOL    HW210282   4.743   3.344   1.684
 3422SOL     OW10283   4.074   2.760   1.804
 3422SOL    HW110284   4.150   2.804   1.852
 3422SOL    HW210285   4.109   2.713   1.722
 3423SOL     OW10286   4.792   3.195   0.849
 3423SOL    HW110287   4.799   3.111   0.794
 3423SOL    HW210288   4.854   3.264   0.813
 3424SOL     OW10289   4.043   2.672   0.949
 3424SOL    HW110290   4.136   2.708   0.954
 3424SOL    HW210291   4.037   2.587   1.001
 3425SOL     OW10292   4.063   2.371   1.006
 3425SOL    HW110293   4.011   2.288   0.989
 3425SOL    HW210294   4.140   2.376   0.942
 3426SOL     OW10295   4.862   2.242   1.678
 3426SOL    HW110296   4.817   2.305   1.742
 3426SOL    HW210297   4.955   2.273   1.661
 3427SOL     OW10298   4.884   2.069   1.477
 3427SOL    HW110299   4.884   2.133   1.554
 3427SOL    HW210300   4.912   2.117   1.394
 3428SOL     OW10301   3.732   3.188   0.200
 3428SOL    HW110302   3.639   3.209   0.169
 3428SOL    HW210303   3.742   3.089   0.213
 3429SOL     OW10304   3.812   3.663   0.927
 3429SOL    HW110305   3.770   3.577   0.900
 3429SOL    HW210306   3.906   3.666   0.893
 3430SOL     OW10307   4.228   3.430   0.910
 3430SOL    HW110308   4.294   3.504   0.919
 3430SOL    HW210309   4.272   3.351   0.868
 3431SOL     OW10310   4.726   2.658   1.238
 3431SOL    HW110311   4.767   2.626   1.324
 3431SOL    HW210312   4.630   2.631   1.235
 3432SOL     OW10313   3.764   2.406   1.114
 3432SOL    HW110314   3.849   2.373   1.073
 3432SOL    HW210315   3.777   2.421   1.212
 3433SOL     OW10316   3.913   2.382   1.722
 3433SOL    HW110317   3.972   2.342   1.652
 3433SOL    HW210318   3.855   2.453   1.681
 3434SOL     OW10319   4.539   2.434   0.325
 3434SOL    HW110320   4.546   2.345   0.279
 3434SOL    HW210321   4.445   2.468   0.317
 3435SOL     OW10322   3.976   3.426   1.744
 3435SOL    HW110323   3.946   3.483   1.820
 3435SOL    HW210324   3.969   3.329   1.770
 3436SOL     OW10325   4.395   2.326   1.269
 3436SOL    HW110326   4.361   2.237   1.239
 3436SOL    HW210327   4.421   2.380   1.189
 3437SOL     OW10328   4.654   3.540   1.465
 3437SOL    HW110329   4.630   3.522   1.370
 3437SOL    HW210330   4.684   3.634   1.475
 3438SOL     OW10331   4.197   2.362   0.191
 3438SOL    HW110332   4.258   2.442   0.195
 3438SOL    HW210333   4.102   2.393   0.198
 3439SOL     OW10334   3.883   2.999   1.466
 3439SOL    HW110335   3.905   2.938   1.542
 3439SOL    HW210336   3.893   2.950   1.380
 3440SOL     OW10337   5.026   2.717   0.309
 3440SOL    HW110338   4.940   2.686   0.351
 3440SOL    HW210339   5.022   2.703   0.210
 3441SOL     OW10340   3.807   3.120   1.022
 3441SOL    HW110341   3.802   3.119   1.122
 3441SOL    HW210342   3.724   3.079   0.984
 3442SOL     OW10343   4.412   3.524   1.716
 3442SOL    HW110344   4.356   3.605   1.725
 3442SOL    HW210345   4.464   3.528   1.630
 3443SOL     OW10346   4.627   1.948   0.133
 3443SOL    HW110347   4.678   1.949   0.047
 3443SOL    HW210348   4.683   1.906   0.204
 3444SOL     OW10349   3.854   3.656   1.851
 3444SOL    HW110350   3.813   3.582   1.904
 3444SOL    HW210351   3.918   3.707   1.909
 3445SOL     OW10352   4.554   3.135   1.422
 3445SOL    HW110353   4.549   3.168   1.517
 3445SOL    HW210354   4.468   3.154   1.376
 3446SOL     OW10355   4.396   3.478   0.154
 3446SOL    HW110356   4.405   3.488   0.055
 3446SOL    HW210357   4.356   3.389   0.175
 3447SOL     OW10358   3.987   2.188   0.720
 3447SOL    HW110359   3.908   2.239   0.686
 3447SOL    HW210360   3.978   2.173   0.818
 3448SOL     OW10361   4.546   2.864   1.372
 3448SOL    HW110362   4.586   2.863   1.280
 3448SOL    HW210363   4.556   2.956   1.412
 3449SOL     OW10364   4.640   2.772   0.291
 3449SOL    HW110365   4.703   2.810   0.223
 3449SOL    HW210366   4.680   2.689   0.330
 3450SOL     OW10367   4.096   3.150   1.490
 3450SOL    HW110368   4.083   3.243   1.456
 3450SOL    HW210369   4.012   3.098   1.477
 3451SOL     OW10370   4.763   2.960   0.696
 3451SOL    HW110371   4.693   2.913   0.750
 3451SOL    HW210372   4.822   2.892   0.653
 3452SOL     OW10373   4.738   2.098   0.971
 3452SOL    HW110374   4.730   2.062   0.878
 3452SOL    HW210375   4.736   2.022   1.036
 3453SOL     OW10376   4.314   3.349   0.491
 3453SOL    HW110377   4.356   3.291   0.421
 3453SOL    HW210378   4.270   3.428   0.447
 3454SOL     OW10379   3.979   3.210   0.290
 3454SOL    HW110380   3.883   3.211   0.263
 3454SOL    HW210381   3.991   3.263   0.374
 3455SOL     OW10382   3.829   2.875   1.726
 3455SOL    HW110383   3.752   2.842   1.780
 3455SOL    HW210384   3.914   2.845   1.768
 3456SOL     OW10385   4.396   2.065   1.489
 3456SOL    HW110386   4.486   2.049   1.449
 3456SOL    HW210387   4.404   2.070   1.588
 3457SOL     OW10388   3.796   2.028   0.318
 3457SOL    HW110389   3.779   2.111   0.264
 3457SOL    HW210390   3.886   1.991   0.296
 3458SOL     OW10391   4.337   2.704   1.431
 3458SOL    HW110392   4.393   2.785   1.414
 3458SOL    HW210393   4.396   2.624   1.434
 3459SOL     OW10394   4.440   2.427   1.708
 3459SOL    HW110395   4.459   2.492   1.782
 3459SOL    HW210396   4.500   2.347   1.717
 3460SOL     OW10397   4.114   3.603   1.560
 3460SOL    HW110398   4.023   3.644   1.558
 3460SOL    HW210399   4.107   3.509   1.592
 3461SOL     OW10400   4.318   2.607   0.652
 3461SOL    HW110401   4.368   2.692   0.633
 3461SOL    HW210402   4.230   2.609   0.604
 3462SOL     OW10403   4.583   3.236   0.016
 3462SOL    HW110404   4.537   3.251   0.104
 3462SOL    HW210405   4.627   3.321  -0.014
 3463SOL     OW10406   4.385   3.652   0.953
 3463SOL    HW110407   4.339   3.740   0.940
 3463SOL    HW210408   4.484   3.664   0.946
 3464SOL     OW10409   4.583   2.818   0.861
 3464SOL    HW110410   4.637   2.749   0.909
 3464SOL    HW210411   4.551   2.887   0.927
 3465SOL     OW10412   4.807   2.846   0.087
 3465SOL    HW110413   4.784   2.899   0.005
 3465SOL    HW210414   4.888   2.790   0.068
 3466SOL     OW10415   3.945   3.176   1.844
 3466SOL    HW110416   3.880   3.103   1.823
 3466SOL    HW210417   3.949   3.190   1.942
 3467SOL     OW10418   3.803   3.102   0.653
 3467SOL    HW110419   3.802   3.055   0.741
 3467SOL    HW210420   3.885   3.074   0.602
 3468SOL     OW10421   4.396   3.253   1.624
 3468SOL    HW110422   4.318   3.203   1.662
 3468SOL    HW210423   4.393   3.348   1.655
 3469SOL     OW10424   4.152   2.286   0.520
 3469SOL    HW110425   4.182   2.214   0.458
 3469SOL    HW210426   4.113   2.246   0.603
 3470SOL     OW10427   4.041   2.409   1.280
 3470SOL    HW110428   4.079   2.350   1.352
 3470SOL    HW210429   4.081   2.383   1.192
 3471SOL     OW10430   4.536   3.448   0.687
 3471SOL    HW110431   4.568   3.458   0.593
 3471SOL    HW210432   4.457   3.386   0.689
 3472SOL     OW10433   4.725   1.896   1.154
 3472SOL    HW110434   4.662   1.824   1.123
 3472SOL    HW210435   4.818   1.860   1.154
 3473SOL     OW10436   4.494   3.192   0.301
 3473SOL    HW110437   4.448   3.105   0.318
 3473SOL    HW210438   4.585   3.189   0.342
 3474SOL     OW10439   4.342   3.429   1.284
 3474SOL    HW110440   4.337   3.511   1.341
 3474SOL    HW210441   4.431   3.426   1.239
 3475SOL     OW10442   3.763   2.939   0.300
 3475SOL    HW110443   3.862   2.928   0.291
 3475SOL    HW210444   3.723   2.853   0.332
 3476SOL     OW10445   4.599   3.508   0.337
 3476SOL    HW110446   4.522   3.473   0.283
 3476SOL    HW210447   4.567   3.579   0.399
 3477SOL     OW10448   3.954   2.490   1.975
 3477SOL    HW110449   3.861   2.488   2.012
 3477SOL    HW210450   3.955   2.451   1.883
 3478SOL     OW10451   3.949   2.137   2.858
 3478SOL    HW110452   3.984   2.120   2.950
 3478SOL    HW210453   3.861   2.092   2.846
 3479SOL     OW10454   3.743   2.230   2.509
 3479SOL    HW110455   3.661   2.273   2.548
 3479SOL    HW210456   3.715   2.157   2.446
 3480SOL     OW10457   4.293   3.137   3.027
 3480SOL    HW110458   4.200   3.130   2.990
 3480SOL    HW210459   4.304   3.226   3.071
 3481SOL     OW10460   4.492   3.006   2.885
 3481SOL    HW110461   4.414   3.023   2.945
 3481SOL    HW210462   4.526   3.093   2.849
 3482SOL     OW10463   4.574   2.660   3.685
 3482SOL    HW110464   4.570   2.736   3.750
 3482SOL    HW210465   4.596   2.696   3.594
 3483SOL     OW10466   4.409   2.874   2.527
 3483SOL    HW110467   4.478   2.858   2.597
 3483SOL    HW210468   4.336   2.931   2.565
 3484SOL     OW10469   4.410   3.023   3.665
 3484SOL    HW110470   4.470   3.102   3.679
 3484SOL    HW210471   4.324   3.054   3.624
 3485SOL     OW10472   4.059   3.297   2.923
 3485SOL    HW110473   3.981   3.266   2.870
 3485SOL    HW210474   4.117   3.355   2.866
 3486SOL     OW10475   4.162   2.254   3.361
 3486SOL    HW110476   4.244   2.198   3.370
 3486SOL    HW210477   4.081   2.196   3.365
 3487SOL     OW10478   3.955   3.575   2.345
 3487SOL    HW110479   3.989   3.652   2.399
 3487SOL    HW210480   3.999   3.575   2.255
 3488SOL     OW10481   4.851   3.203   3.552
 3488SOL    HW110482   4.898   3.203   3.640
 3488SOL    HW210483   4.803   3.116   3.541
 3489SOL     OW10484   3.954   3.296   2.400
 3489SOL    HW110485   3.928   3.392   2.400
 3489SOL    HW210486   3.883   3.242   2.445
 3490SOL     OW10487   3.964   2.953   2.748
 3490SOL    HW110488   3.978   2.869   2.800
 3490SOL    HW210489   3.909   3.017   2.803
 3491SOL     OW10490   4.344   3.648   3.301
 3491SOL    HW110491   4.252   3.631   3.336
 3491SOL    HW210492   4.372   3.740   3.327
 3492SOL     OW10493   4.330   2.826   1.985
 3492SOL    HW110494   4.337   2.910   1.931
 3492SOL    HW210495   4.376   2.839   2.073
 3493SOL     OW10496   3.846   2.505   2.425
 3493SOL    HW110497   3.801   2.417   2.442
 3493SOL    HW210498   3.845   2.559   2.509
 3494SOL     OW10499   3.751   3.458   1.979
 3494SOL    HW110500   3.732   3.362   2.000
 3494SOL    HW210501   3.718   3.516   2.054
 3495SOL     OW10502   3.837   2.599   3.459
 3495SOL    HW110503   3.925   2.586   3.504
 3495SOL    HW210504   3.824   2.696   3.437
 3496SOL     OW10505   4.337   3.227   2.588
 3496SOL    HW110506   4.288   3.140   2.597
 3496SOL    HW210507   4.314   3.270   2.501
 3497SOL     OW10508   4.533   1.866   2.364
 3497SOL    HW110509   4.573   1.957   2.355
 3497SOL    HW210510   4.433   1.874   2.370
 3498SOL     OW10511   3.921   2.838   3.126
 3498SOL    HW110512   4.010   2.793   3.112
 3498SOL    HW210513   3.848   2.773   3.107
 3499SOL     OW10514   4.041   2.113   3.663
 3499SOL    HW110515   4.112   2.184   3.669
 3499SOL    HW210516   3.953   2.152   3.691
 3500SOL     OW10517   4.322   2.591   2.132
 3500SOL    HW110518   4.346   2.660   2.064
 3500SOL    HW210519   4.244   2.624   2.186
 3501SOL     OW10520   4.531   2.467   3.327
 3501SOL    HW110521   4.484   2.464   3.416
 3501SOL    HW210522   4.480   2.412   3.261
 3502SOL     OW10523   4.697   2.752   3.434
 3502SOL    HW110524   4.743   2.668   3.405
 3502SOL    HW210525   4.641   2.786   3.359
 3503SOL     OW10526   4.715   2.272   3.104
 3503SOL    HW110527   4.638   2.306   3.158
 3503SOL    HW210528   4.681   2.221   3.025
 3504SOL     OW10529   4.765   2.563   2.291
 3504SOL    HW110530   4.791   2.559   2.387
 3504SOL    HW210531   4.680   2.512   2.277
 3505SOL     OW10532   3.800   2.673   2.651
 3505SOL    HW110533   3.899   2.661   2.660
 3505SOL    HW210534   3.776   2.768   2.672
 3506SOL     OW10535   3.854   3.683   3.433
 3506SOL    HW110536   3.844   3.668   3.532
 3506SOL    HW210537   3.768   3.719   3.397
 3507SOL     OW10538   4.589   2.210   2.057
 3507SOL    HW110539   4.648   2.273   2.008
 3507SOL    HW210540   4.608   2.116   2.028
 3508SOL     OW10541   4.274   2.058   2.747
 3508SOL    HW110542   4.269   2.053   2.847
 3508SOL    HW210543   4.276   2.154   2.718
 3509SOL     OW10544   4.732   3.318   2.339
 3509SOL    HW110545   4.686   3.390   2.287
 3509SOL    HW210546   4.728   3.338   2.437
 3510SOL     OW10547   4.075   3.663   2.715
 3510SOL    HW110548   4.125   3.577   2.721
 3510SOL    HW210549   4.140   3.740   2.712
 3511SOL     OW10550   4.045   2.805   2.104
 3511SOL    HW110551   4.127   2.844   2.062
 3511SOL    HW210552   4.018   2.723   2.055
 3512SOL     OW10553   4.185   3.128   3.589
 3512SOL    HW110554   4.135   3.129   3.503
 3512SOL    HW210555   4.122   3.110   3.665
 3513SOL     OW10556   3.926   2.147   3.360
 3513SOL    HW110557   3.846   2.207   3.347
 3513SOL    HW210558   3.916   2.098   3.446
 3514SOL     OW10559   4.188   3.605   2.185
 3514SOL    HW110560   4.221   3.644   2.271
 3514SOL    HW210561   4.264   3.598   2.120
 3515SOL     OW10562   3.973   3.647   3.103
 3515SOL    HW110563   4.030   3.582   3.153
 3515SOL    HW210564   3.957   3.614   3.010
 3516SOL     OW10565   4.664   3.560   2.766
 3516SOL    HW110566   4.744   3.503   2.787
 3516SOL    HW210567   4.615   3.520   2.689
 3517SOL     OW10568   4.106   2.562   2.342
 3517SOL    HW110569   4.151   2.472   2.339
 3517SOL    HW210570   4.012   2.551   2.375
 3518SOL     OW10571   4.338   1.984   1.979
 3518SOL    HW110572   4.436   1.962   1.986
 3518SOL    HW210573   4.307   1.967   1.886
 3519SOL     OW10574   4.505   2.126   3.611
 3519SOL    HW110575   4.572   2.065   3.654
 3519SOL    HW210576   4.432   2.145   3.676
 3520SOL     OW10577   4.612   3.376   3.057
 3520SOL    HW110578   4.589   3.351   2.963
 3520SOL    HW210579   4.673   3.307   3.096
 3521SOL     OW10580   4.527   3.264   2.786
 3521SOL    HW110581   4.617   3.278   2.744
 3521SOL    HW210582   4.456   3.266   2.715
 3522SOL     OW10583   4.646   2.365   2.761
 3522SOL    HW110584   4.621   2.356   2.665
 3522SOL    HW210585   4.694   2.283   2.792
 3523SOL     OW10586   4.263   1.926   2.374
 3523SOL    HW110587   4.182   1.927   2.432
 3523SOL    HW210588   4.266   2.009   2.319
 3524SOL     OW10589   4.021   1.897   2.033
 3524SOL    HW110590   4.070   1.981   2.012
 3524SOL    HW210591   4.083   1.832   2.078
 3525SOL     OW10592   4.659   2.098   2.342
 3525SOL    HW110593   4.611   2.139   2.264
 3525SOL    HW210594   4.758   2.096   2.323
 3526SOL     OW10595   4.951   3.432   2.655
 3526SOL    HW110596   4.972   3.506   2.590
 3526SOL    HW210597   5.019   3.432   2.728
 3527SOL     OW10598   4.183   3.014   2.603
 3527SOL    HW110599   4.112   2.987   2.668
 3527SOL    HW210600   4.157   2.986   2.510
 3528SOL     OW10601   4.995   3.659   2.453
 3528SOL    HW110602   5.039   3.723   2.389
 3528SOL    HW210603   4.945   3.711   2.523
 3529SOL     OW10604   4.756   2.411   1.878
 3529SOL    HW110605   4.715   2.493   1.839
 3529SOL    HW210606   4.820   2.437   1.951
 3530SOL     OW10607   3.802   2.418   3.248
 3530SOL    HW110608   3.894   2.417   3.207
 3530SOL    HW210609   3.796   2.492   3.315
 3531SOL     OW10610   4.285   2.084   3.009
 3531SOL    HW110611   4.323   2.000   3.046
 3531SOL    HW210612   4.197   2.103   3.053
 3532SOL     OW10613   4.590   2.316   2.504
 3532SOL    HW110614   4.558   2.388   2.442
 3532SOL    HW210615   4.614   2.235   2.451
 3533SOL     OW10616   4.741   1.901   2.615
 3533SOL    HW110617   4.669   1.906   2.546
 3533SOL    HW210618   4.717   1.832   2.684
 3534SOL     OW10619   4.212   3.247   2.036
 3534SOL    HW110620   4.125   3.232   2.083
 3534SOL    HW210621   4.195   3.273   1.941
 3535SOL     OW10622   4.251   2.118   2.190
 3535SOL    HW110623   4.278   2.059   2.115
 3535SOL    HW210624   4.251   2.213   2.159
 3536SOL     OW10625   4.835   3.057   2.962
 3536SOL    HW110626   4.795   3.101   3.043
 3536SOL    HW210627   4.794   3.094   2.879
 3537SOL     OW10628   4.639   1.951   3.264
 3537SOL    HW110629   4.664   1.931   3.169
 3537SOL    HW210630   4.711   2.007   3.306
 3538SOL     OW10631   4.704   2.978   3.581
 3538SOL    HW110632   4.605   2.984   3.591
 3538SOL    HW210633   4.727   2.898   3.525
 3539SOL     OW10634   4.429   2.912   2.230
 3539SOL    HW110635   4.415   2.919   2.329
 3539SOL    HW210636   4.513   2.861   2.212
 3540SOL     OW10637   4.134   2.675   3.113
 3540SOL    HW110638   4.220   2.687   3.163
 3540SOL    HW210639   4.092   2.588   3.140
 3541SOL     OW10640   3.788   3.426   3.193
 3541SOL    HW110641   3.742   3.508   3.159
 3541SOL    HW210642   3.886   3.445   3.202
 3542SOL     OW10643   4.091   2.962   2.363
 3542SOL    HW110644   4.084   3.045   2.307
 3542SOL    HW210645   4.095   2.882   2.303
 3543SOL     OW10646   4.290   2.399   2.727
 3543SOL    HW110647   4.302   2.465   2.653
 3543SOL    HW210648   4.336   2.433   2.810
 3544SOL     OW10649   4.976   3.210   2.250
 3544SOL    HW110650   5.026   3.287   2.290
 3544SOL    HW210651   4.881   3.212   2.282
 3545SOL     OW10652   4.078   3.372   3.191
 3545SOL    HW110653   4.057   3.328   3.104
 3545SOL    HW210654   4.175   3.398   3.194
 3546SOL     OW10655   4.126   2.613   3.460
 3546SOL    HW110656   4.194   2.668   3.413
 3546SOL    HW210657   4.166   2.525   3.487
 3547SOL     OW10658   4.737   1.967   3.632
 3547SOL    HW110659   4.743   2.052   3.580
 3547SOL    HW210660   4.769   1.891   3.575
 3548SOL     OW10661   4.228   1.912   3.602
 3548SOL    HW110662   4.186   1.855   3.532
 3548SOL    HW210663   4.162   1.981   3.634
 3549SOL     OW10664   4.297   2.732   2.891
 3549SOL    HW110665   4.341   2.821   2.882
 3549SOL    HW210666   4.234   2.732   2.968
 3550SOL     OW10667   5.084   2.724   2.907
 3550SOL    HW110668   5.009   2.724   2.841
 3550SOL    HW210669   5.121   2.632   2.916
 3551SOL     OW10670   4.933   2.387   2.137
 3551SOL    HW110671   4.946   2.303   2.191
 3551SOL    HW210672   4.904   2.461   2.197
 3552SOL     OW10673   4.031   2.075   3.093
 3552SOL    HW110674   4.008   2.112   3.183
 3552SOL    HW210675   4.001   1.980   3.087
 3553SOL     OW10676   3.761   3.172   3.144
 3553SOL    HW110677   3.814   3.123   3.212
 3553SOL    HW210678   3.783   3.270   3.149
 3554SOL     OW10679   4.456   2.496   2.926
 3554SOL    HW110680   4.515   2.470   2.850
 3554SOL    HW210681   4.428   2.592   2.915
 3555SOL     OW10682   4.031   1.925   2.480
 3555SOL    HW110683   4.020   2.019   2.513
 3555SOL    HW210684   4.026   1.862   2.557
 3556SOL     OW10685   4.747   2.628   2.828
 3556SOL    HW110686   4.762   2.649   2.924
 3556SOL    HW210687   4.717   2.533   2.819
 3557SOL     OW10688   4.704   3.435   3.562
 3557SOL    HW110689   4.684   3.479   3.474
 3557SOL    HW210690   4.743   3.344   3.546
 3558SOL     OW10691   4.074   2.760   3.666
 3558SOL    HW110692   4.150   2.804   3.714
 3558SOL    HW210693   4.109   2.713   3.584
 3559SOL     OW10694   5.027   2.700   1.904
 3559SOL    HW110695   5.061   2.607   1.919
 3559SOL    HW210696   5.045   2.727   1.809
 3560SOL     OW10697   4.792   3.195   2.711
 3560SOL    HW110698   4.799   3.111   2.656
 3560SOL    HW210699   4.854   3.264   2.675
 3561SOL     OW10700   4.043   2.672   2.811
 3561SOL    HW110701   4.136   2.708   2.816
 3561SOL    HW210702   4.037   2.587   2.863
 3562SOL     OW10703   4.063   2.371   2.868
 3562SOL    HW110704   4.011   2.288   2.851
 3562SOL    HW210705   4.140   2.376   2.804
 3563SOL     OW10706   4.862   2.242   3.540
 3563SOL    HW110707   4.817   2.305   3.604
 3563SOL    HW210708   4.955   2.273   3.523
 3564SOL     OW10709   4.884   2.069   3.339
 3564SOL    HW110710   4.884   2.133   3.416
 3564SOL    HW210711   4.912   2.117   3.256
 3565SOL     OW10712   3.732   3.188   2.062
 3565SOL    HW110713   3.639   3.209   2.031
 3565SOL    HW210714   3.742   3.089   2.075
 3566SOL     OW10715   3.812   3.663   2.789
 3566SOL    HW110716   3.770   3.577   2.762
 3566SOL    HW210717   3.906   3.666   2.755
 3567SOL     OW10718   4.228   3.430   2.772
 3567SOL    HW110719   4.294   3.504   2.781
 3567SOL    HW210720   4.272   3.351   2.730
 3568SOL     OW10721   4.726   2.658   3.100
 3568SOL    HW110722   4.767   2.626   3.186
 3568SOL    HW210723   4.630   2.631   3.097
 3569SOL     OW10724   3.764   2.406   2.976
 3569SOL    HW110725   3.849   2.373   2.935
 3569SOL    HW210726   3.777   2.421   3.074
 3570SOL     OW10727   3.913   2.382   3.584
 3570SOL    HW110728   3.972   2.342   3.514
 3570SOL    HW210729   3.855   2.453   3.543
 3571SOL     OW10730   4.539   2.434   2.187
 3571SOL    HW110731   4.546   2.345   2.141
 3571SOL    HW210732   4.445   2.468   2.179
 3572SOL     OW10733   3.976   3.426   3.606
 3572SOL    HW110734   3.946   3.483   3.682
 3572SOL    HW210735   3.969   3.329   3.632
 3573SOL     OW10736   4.395   2.326   3.131
 3573SOL    HW110737   4.361   2.237   3.101
 3573SOL    HW210738   4.421   2.380   3.051
 3574SOL     OW10739   4.654   3.540   3.327
 3574SOL    HW110740   4.630   3.522   3.232
 3574SOL    HW210741   4.684   3.634   3.337
 3575SOL     OW10742   4.197   2.362   2.053
 3575SOL    HW110743   4.258   2.442   2.057
 3575SOL    HW210744   4.102   2.393   2.060
 3576SOL     OW10745   3.883   2.999   3.328
 3576SOL    HW110746   3.905   2.938   3.404
 3576SOL    HW210747   3.893   2.950   3.242
 3577SOL     OW10748   5.026   2.717   2.171
 3577SOL    HW110749   4.940   2.686   2.213
 3577SOL    HW210750   5.022   2.703   2.072
 3578SOL     OW10751   3.807   3.120   2.884
 3578SOL    HW110752   3.802   3.119   2.984
 3578SOL    HW210753   3.724   3.079   2.846
 3579SOL     OW10754   4.412   3.524   3.578
 3579SOL    HW110755   4.356   3.605   3.587
 3579SOL    HW210756   4.464   3.528   3.492
 3580SOL     OW10757   3.854   3.656   3.713
 3580SOL    HW110758   3.813   3.582   3.766
 3580SOL    HW210759   3.918   3.707   3.771
 3581SOL     OW10760   4.554   3.135   3.284
 3581SOL    HW110761   4.549   3.168   3.379
 3581SOL    HW210762   4.468   3.154   3.238
 3582SOL     OW10763   4.396   3.478   2.016
 3582SOL    HW110764   4.405   3.488   1.917
 3582SOL    HW210765   4.356   3.389   2.037
 3583SOL     OW10766   3.987   2.188   2.582
 3583SOL    HW110767   3.908   2.239   2.548
 3583SOL    HW210768   3.978   2.173   2.680
 3584SOL     OW10769   4.546   2.864   3.234
 3584SOL    HW110770   4.586   2.863   3.142
 3584SOL    HW210771   4.556   2.956   3.274
 3585SOL     OW10772   4.640   2.772   2.153
 3585SOL    HW110773   4.703   2.810   2.085
 3585SOL    HW210774   4.680   2.689   2.192
 3586SOL     OW10775   4.096   3.150   3.352
 3586SOL    HW110776   4.083   3.243   3.318
 3586SOL    HW210777   4.012   3.098   3.339
 3587SOL     OW10778   4.763   2.960   2.558
 3587SOL    HW110779   4.693   2.913   2.612
 3587SOL    HW210780   4.822   2.892   2.515
 3588SOL     OW10781   4.738   2.098   2.833
 3588SOL    HW110782   4.730   2.062   2.740
 3588SOL    HW210783   4.736   2.022   2.898
 3589SOL     OW10784   4.314   3.349   2.353
 3589SOL    HW110785   4.356   3.291   2.283
 3589SOL    HW210786   4.270   3.428   2.309
 3590SOL     OW10787   3.979   3.210   2.152
 3590SOL    HW110788   3.883   3.211   2.125
 3590SOL    HW210789   3.991   3.263   2.236
 3591SOL     OW10790   3.829   2.875   3.588
 3591SOL    HW110791   3.752   2.842   3.642
 3591SOL    HW210792   3.914   2.845   3.630
 3592SOL     OW10793   4.396   2.065   3.351
 3592SOL    HW110794   4.486   2.049   3.311
 3592SOL    HW210795   4.404   2.070   3.450
 3593SOL     OW10796   3.799   2.207   1.895
 3593SOL    HW110797   3.707   2.179   1.866
 3593SOL    HW210798   3.830   2.284   1.839
 3594SOL     OW10799   3.796   2.028   2.180
 3594SOL    HW110800   3.779   2.111   2.126
 3594SOL    HW210801   3.886   1.991   2.158
 3595SOL     OW10802   4.337   2.704   3.293
 3595SOL    HW110803   4.393   2.785   3.276
 3595SOL    HW210804   4.396   2.624   3.296
 3596SOL     OW10805   4.440   2.427   3.570
 3596SOL    HW110806   4.459   2.492   3.644
 3596SOL    HW210807   4.500   2.347   3.579
 3597SOL     OW10808   4.114   3.603   3.422
 3597SOL    HW110809   4.023   3.644   3.420
 3597SOL    HW210810   4.107   3.509   3.454
 3598SOL     OW10811   4.318   2.607   2.514
 3598SOL    HW110812   4.368   2.692   2.495
 3598SOL    HW210813   4.230   2.609   2.466
 3599SOL     OW10814   4.583   3.236   1.878
 3599SOL    HW110815   4.537   3.251   1.966
 3599SOL    HW210816   4.627   3.321   1.848
 3600SOL     OW10817   4.385   3.652   2.815
 3600SOL    HW110818   4.339   3.740   2.802
 3600SOL    HW210819   4.484   3.664   2.808
 3601SOL     OW10820   4.583   2.818   2.723
 3601SOL    HW110821   4.637   2.749   2.771
 3601SOL    HW210822   4.551   2.887   2.789
 3602SOL     OW10823   4.807   2.846   1.949
 3602SOL    HW110824   4.784   2.899   1.867
 3602SOL    HW210825   4.888   2.790   1.930
 3603SOL     OW10826   3.945   3.176   3.706
 3603SOL    HW110827   3.880   3.103   3.685
 3603SOL    HW210828   3.949   3.190   3.804
 3604SOL     OW10829   3.803   3.102   2.515
 3604SOL    HW110830   3.802   3.055   2.603
 3604SOL    HW210831   3.885   3.074   2.464
 3605SOL     OW10832   4.396   3.253   3.486
 3605SOL    HW110833   4.318   3.203   3.524
 3605SOL    HW210834   4.393   3.348   3.517
 3606SOL     OW10835   4.152   2.286   2.382
 3606SOL    HW110836   4.182   2.214   2.320
 3606SOL    HW210837   4.113   2.246   2.465
 3607SOL     OW10838   4.041   2.409   3.142
 3607SOL    HW110839   4.079   2.350   3.214
 3607SOL    HW210840   4.081   2.383   3.054
 3608SOL     OW10841   4.536   3.448   2.549
 3608SOL    HW110842   4.568   3.458   2.455
 3608SOL    HW210843   4.457   3.386   2.551
 3609SOL     OW10844   4.725   1.896   3.016
 3609SOL    HW110845   4.662   1.824   2.985
 3609SOL    HW210846   4.818   1.860   3.016
 3610SOL     OW10847   4.494   3.192   2.163
 3610SOL    HW110848   4.448   3.105   2.180
 3610SOL    HW210849   4.585   3.189   2.204
 3611SOL     OW10850   4.342   3.429   3.146
 3611SOL    HW110851   4.337   3.511   3.203
 3611SOL    HW210852   4.431   3.426   3.101
 3612SOL     OW10853   3.763   2.939   2.162
 3612SOL    HW110854   3.862   2.928   2.153
 3612SOL    HW210855   3.723   2.853   2.194
 3613SOL     OW10856   4.599   3.508   2.199
 3613SOL    HW110857   4.522   3.473   2.145
 3613SOL    HW210858   4.567   3.579   2.261
 3614SOL     OW10859   3.954   2.490   3.837
 3614SOL    HW110860   3.861   2.488   3.874
 3614SOL    HW210861   3.955   2.451   3.745
 3615SOL     OW10862   3.949   2.137   4.720
 3615SOL    HW110863   3.984   2.120   4.812
 3615SOL    HW210864   3.861   2.092   4.708
 3616SOL     OW10865   3.743   2.230   4.371
 3616SOL    HW110866   3.661   2.273   4.410
 3616SOL    HW210867   3.715   2.157   4.308
 3617SOL     OW10868   4.293   3.137   4.889
 3617SOL    HW110869   4.200   3.130   4.852
 3617SOL    HW210870   4.304   3.226   4.933
 3618SOL     OW10871   4.492   3.006   4.747
 3618SOL    HW110872   4.414   3.023   4.807
 3618SOL    HW210873   4.526   3.093   4.711
 3619SOL     OW10874   4.409   2.874   4.389
 3619SOL    HW110875   4.478   2.858   4.459
 3619SOL    HW210876   4.336   2.931   4.427
 3620SOL     OW10877   4.059   3.297   4.785
 3620SOL    HW110878   3.981   3.266   4.732
 3620SOL    HW210879   4.117   3.355   4.728
 3621SOL     OW10880   3.955   3.575   4.207
 3621SOL    HW110881   3.989   3.652   4.261
 3621SOL    HW210882   3.999   3.575   4.117
 3622SOL     OW10883   3.954   3.296   4.262
 3622SOL    HW110884   3.928   3.392   4.262
 3622SOL    HW210885   3.883   3.242   4.307
 3623SOL     OW10886   3.964   2.953   4.610
 3623SOL    HW110887   3.978   2.869   4.662
 3623SOL    HW210888   3.909   3.017   4.665
 3624SOL     OW10889   4.330   2.826   3.847
 3624SOL    HW110890   4.337   2.910   3.793
 3624SOL    HW210891   4.376   2.839   3.935
 3625SOL     OW10892   3.846   2.505   4.287
 3625SOL    HW110893   3.801   2.417   4.304
 3625SOL    HW210894   3.845   2.559   4.371
 3626SOL     OW10895   3.751   3.458   3.841
 3626SOL    HW110896   3.732   3.362   3.862
 3626SOL    HW210897   3.718   3.516   3.916
 3627SOL     OW10898   4.337   3.227   4.450
 3627SOL    HW110899   4.288   3.140   4.459
 3627SOL    HW210900   4.314   3.270   4.363
 3628SOL     OW10901   4.533   1.866   4.226
 3628SOL    HW110902   4.573   1.957   4.217
 3628SOL    HW210903   4.433   1.874   4.232
 3629SOL     OW10904   3.921   2.838   4.988
 3629SOL    HW110905   4.010   2.793   4.974
 3629SOL    HW210906   3.848   2.773   4.969
 3630SOL     OW10907   4.322   2.591   3.994
 3630SOL    HW110908   4.346   2.660   3.926
 3630SOL    HW210909   4.244   2.624   4.048
 3631SOL     OW10910   4.765   2.563   4.153
 3631SOL    HW110911   4.791   2.559   4.249
 3631SOL    HW210912   4.680   2.512   4.139
 3632SOL     OW10913   3.800   2.673   4.513
 3632SOL    HW110914   3.899   2.661   4.522
 3632SOL    HW210915   3.776   2.768   4.534
 3633SOL     OW10916   4.589   2.210   3.919
 3633SOL    HW110917   4.648   2.273   3.870
 3633SOL    HW210918   4.608   2.116   3.890
 3634SOL     OW10919   4.274   2.058   4.609
 3634SOL    HW110920   4.269   2.053   4.709
 3634SOL    HW210921   4.276   2.154   4.580
 3635SOL     OW10922   4.732   3.318   4.201
 3635SOL    HW110923   4.686   3.390   4.149
 3635SOL    HW210924   4.728   3.338   4.299
 3636SOL     OW10925   4.075   3.663   4.577
 3636SOL    HW110926   4.125   3.577   4.583
 3636SOL    HW210927   4.140   3.740   4.574
 3637SOL     OW10928   4.045   2.805   3.966
 3637SOL    HW110929   4.127   2.844   3.924
 3637SOL    HW210930   4.018   2.723   3.917
 3638SOL     OW10931   4.188   3.605   4.047
 3638SOL    HW110932   4.221   3.644   4.133
 3638SOL    HW210933   4.264   3.598   3.982
 3639SOL     OW10934   3.973   3.647   4.965
 3639SOL    HW110935   4.030   3.582   5.015
 3639SOL    HW210936   3.957   3.614   4.872
 3640SOL     OW10937   4.664   3.560   4.628
 3640SOL    HW110938   4.744   3.503   4.649
 3640SOL    HW210939   4.615   3.520   4.551
 3641SOL     OW10940   4.106   2.562   4.204
 3641SOL    HW110941   4.151   2.472   4.201
 3641SOL    HW210942   4.012   2.551   4.237
 3642SOL     OW10943   4.338   1.984   3.841
 3642SOL    HW110944   4.436   1.962   3.848
 3642SOL    HW210945   4.307   1.967   3.748
 3643SOL     OW10946   4.527   3.264   4.648
 3643SOL    HW110947   4.617   3.278   4.606
 3643SOL    HW210948   4.456   3.266   4.577
 3644SOL     OW10949   4.646   2.365   4.623
 3644SOL    HW110950   4.621   2.356   4.527
 3644SOL    HW210951   4.694   2.283   4.654
 3645SOL     OW10952   4.263   1.926   4.236
 3645SOL    HW110953   4.182   1.927   4.294
 3645SOL    HW210954   4.266   2.009   4.181
 3646SOL     OW10955   4.021   1.897   3.895
 3646SOL    HW110956   4.070   1.981   3.874
 3646SOL    HW210957   4.083   1.832   3.940
 3647SOL     OW10958   4.659   2.098   4.204
 3647SOL    HW110959   4.611   2.139   4.126
 3647SOL    HW210960   4.758   2.096   4.185
 3648SOL     OW10961   4.951   3.432   4.517
 3648SOL    HW110962   4.972   3.506   4.452
 3648SOL    HW210963   5.019   3.432   4.590
 3649SOL     OW10964   4.183   3.014   4.465
 3649SOL    HW110965   4.112   2.987   4.530
 3649SOL    HW210966   4.157   2.986   4.372
 3650SOL     OW10967   4.995   3.659   4.315
 3650SOL    HW110968   5.039   3.723   4.251
 3650SOL    HW210969   4.945   3.711   4.385
 3651SOL     OW10970   4.756   2.411   3.740
 3651SOL    HW110971   4.715   2.493   3.701
 3651SOL    HW210972   4.820   2.437   3.813
 3652SOL     OW10973   4.590   2.316   4.366
 3652SOL    HW110974   4.558   2.388   4.304
 3652SOL    HW210975   4.614   2.235   4.313
 3653SOL     OW10976   4.741   1.901   4.477
 3653SOL    HW110977   4.669   1.906   4.408
 3653SOL    HW210978   4.717   1.832   4.546
 3654SOL     OW10979   4.212   3.247   3.898
 3654SOL    HW110980   4.125   3.232   3.945
 3654SOL    HW210981   4.195   3.273   3.803
 3655SOL     OW10982   4.251   2.118   4.052
 3655SOL    HW110983   4.278   2.059   3.977
 3655SOL    HW210984   4.251   2.213   4.021
 3656SOL     OW10985   4.835   3.057   4.824
 3656SOL    HW110986   4.795   3.101   4.905
 3656SOL    HW210987   4.794   3.094   4.741
 3657SOL     OW10988   4.429   2.912   4.092
 3657SOL    HW110989   4.415   2.919   4.191
 3657SOL    HW210990   4.513   2.861   4.074
 3658SOL     OW10991   4.134   2.675   4.975
 3658SOL    HW110992   4.220   2.687   5.025
 3658SOL    HW210993   4.092   2.588   5.002
 3659SOL     OW10994   4.091   2.962   4.225
 3659SOL    HW110995   4.084   3.045   4.169
 3659SOL    HW210996   4.095   2.882   4.165
 3660SOL     OW10997   4.290   2.399   4.589
 3660SOL    HW110998   4.302   2.465   4.515
 3660SOL    HW210999   4.336   2.433   4.672
 3661SOL     OW11000   4.976   3.210   4.112
 3661SOL    HW111001   5.026   3.287   4.152
 3661SOL    HW211002   4.881   3.212   4.144
 3662SOL     OW11003   4.996   3.307   4.866
 3662SOL    HW111004   5.043   3.320   4.953
 3662SOL    HW211005   4.930   3.233   4.875
 3663SOL     OW11006   4.297   2.732   4.753
 3663SOL    HW111007   4.341   2.821   4.744
 3663SOL    HW211008   4.234   2.732   4.830
 3664SOL     OW11009   5.084   2.724   4.769
 3664SOL    HW111010   5.009   2.724   4.703
 3664SOL    HW211011   5.121   2.632   4.778
 3665SOL     OW11012   4.933   2.387   3.999
 3665SOL    HW111013   4.946   2.303   4.053
 3665SOL    HW211014   4.904   2.461   4.059
 3666SOL     OW11015   4.031   2.075   4.955
 3666SOL    HW111016   4.008   2.112   5.045
 3666SOL    HW211017   4.001   1.980   4.949
 3667SOL     OW11018   4.456   2.496   4.788
 3667SOL    HW111019   4.515   2.470   4.712
 3667SOL    HW211020   4.428   2.592   4.777
 3668SOL     OW11021   4.031   1.925   4.342
 3668SOL    HW111022   4.020   2.019   4.375
 3668SOL    HW211023   4.026   1.862   4.419
 3669SOL     OW11024   4.747   2.628   4.690
 3669SOL    HW111025   4.762   2.649   4.786
 3669SOL    HW211026   4.717   2.533   4.681
 3670SOL     OW11027   5.027   2.700   3.766
 3670SOL    HW111028   5.061   2.607   3.781
 3670SOL    HW211029   5.045   2.727   3.671
 3671SOL     OW11030   4.792   3.195   4.573
 3671SOL    HW111031   4.799   3.111   4.518
 3671SOL    HW211032   4.854   3.264   4.537
 3672SOL     OW11033   4.043   2.672   4.673
 3672SOL    HW111034   4.136   2.708   4.678
 3672SOL    HW211035   4.037   2.587   4.725
 3673SOL     OW11036   4.063   2.371   4.730
 3673SOL    HW111037   4.011   2.288   4.713
 3673SOL    HW211038   4.140   2.376   4.666
 3674SOL     OW11039   3.732   3.188   3.924
 3674SOL    HW111040   3.639   3.209   3.893
 3674SOL    HW211041   3.742   3.089   3.937
 3675SOL     OW11042   3.812   3.663   4.651
 3675SOL    HW111043   3.770   3.577   4.624
 3675SOL    HW211044   3.906   3.666   4.617
 3676SOL     OW11045   4.228   3.430   4.634
 3676SOL    HW111046   4.294   3.504   4.643
 3676SOL    HW211047   4.272   3.351   4.592
 3677SOL     OW11048   4.726   2.658   4.962
 3677SOL    HW111049   4.767   2.626   5.048
 3677SOL    HW211050   4.630   2.631   4.959
 3678SOL     OW11051   3.764   2.406   4.838
 3678SOL    HW111052   3.849   2.373   4.797
 3678SOL    HW211053   3.777   2.421   4.936
 3679SOL     OW11054   4.539   2.434   4.049
 3679SOL    HW111055   4.546   2.345   4.003
 3679SOL    HW211056   4.445   2.468   4.041
 3680SOL     OW11057   4.395   2.326   4.993
 3680SOL    HW111058   4.361   2.237   4.963
 3680SOL    HW211059   4.421   2.380   4.913
 3681SOL     OW11060   4.197   2.362   3.915
 3681SOL    HW111061   4.258   2.442   3.919
 3681SOL    HW211062   4.102   2.393   3.922
 3682SOL     OW11063   5.026   2.717   4.033
 3682SOL    HW111064   4.940   2.686   4.075
 3682SOL    HW211065   5.022   2.703   3.934
 3683SOL     OW11066   3.807   3.120   4.746
 3683SOL    HW111067   3.802   3.119   4.846
 3683SOL    HW211068   3.724   3.079   4.708
 3684SOL     OW11069   4.396   3.478   3.878
 3684SOL    HW111070   4.405   3.488   3.779
 3684SOL    HW211071   4.356   3.389   3.899
 3685SOL     OW11072   3.987   2.188   4.444
 3685SOL    HW111073   3.908   2.239   4.410
 3685SOL    HW211074   3.978   2.173   4.542
 3686SOL     OW11075   4.546   2.864   5.096
 3686SOL    HW111076   4.586   2.863   5.004
 3686SOL    HW211077   4.556   2.956   5.136
 3687SOL     OW11078   4.640   2.772   4.015
 3687SOL    HW111079   4.703   2.810   3.947
 3687SOL    HW211080   4.680   2.689   4.054
 3688SOL     OW11081   4.763   2.960   4.420
 3688SOL    HW111082   4.693   2.913   4.474
 3688SOL    HW211083   4.822   2.892   4.377
 3689SOL     OW11084   4.738   2.098   4.695
 3689SOL    HW111085   4.730   2.062   4.602
 3689SOL    HW211086   4.736   2.022   4.760
 3690SOL     OW11087   4.314   3.349   4.215
 3690SOL    HW111088   4.356   3.291   4.145
 3690SOL    HW211089   4.270   3.428   4.171
 3691SOL     OW11090   3.979   3.210   4.014
 3691SOL    HW111091   3.883   3.211   3.987
 3691SOL    HW211092   3.991   3.263   4.098
 3692SOL     OW11093   3.799   2.207   3.757
 3692SOL    HW111094   3.707   2.179   3.728
 3692SOL    HW211095   3.830   2.284   3.701
 3693SOL     OW11096   3.796   2.028   4.042
 3693SOL    HW111097   3.779   2.111   3.988
 3693SOL    HW211098   3.886   1.991   4.020
 3694SOL     OW11099   4.318   2.607   4.376
 3694SOL    HW111100   4.368   2.692   4.357
 3694SOL    HW211101   4.230   2.609   4.328
 3695SOL     OW11102   4.583   3.236   3.740
 3695SOL    HW111103   4.537   3.251   3.828
 3695SOL    HW211104   4.627   3.321   3.710
 3696SOL     OW11105   4.385   3.652   4.677
 3696SOL    HW111106   4.339   3.740   4.664
 3696SOL    HW211107   4.484   3.664   4.670
 3697SOL     OW11108   4.583   2.818   4.585
 3697SOL    HW111109   4.637   2.749   4.633
 3697SOL    HW211110   4.551   2.887   4.651
 3698SOL     OW11111   4.807   2.846   3.811
 3698SOL    HW111112   4.784   2.899   3.729
 3698SOL    HW211113   4.888   2.790   3.792
 3699SOL     OW11114   3.803   3.102   4.377
 3699SOL    HW111115   3.802   3.055   4.465
 3699SOL    HW211116   3.885   3.074   4.326
 3700SOL     OW11117   4.152   2.286   4.244
 3700SOL    HW111118   4.182   2.214   4.182
 3700SOL    HW211119   4.113   2.246   4.327
 3701SOL     OW11120   4.536   3.448   4.411
 3701SOL    HW111121   4.568   3.458   4.317
 3701SOL    HW211122   4.457   3.386   4.413
 3702SOL     OW11123   4.494   3.192   4.025
 3702SOL    HW111124   4.448   3.105   4.042
 3702SOL    HW211125   4.585   3.189   4.066
 3703SOL     OW11126   3.763   2.939   4.024
 3703SOL    HW111127   3.862   2.928   4.015
 3703SOL    HW211128   3.723   2.853   4.056
 3704SOL     OW11129   4.599   3.508   4.061
 3704SOL    HW111130   4.522   3.473   4.007
 3704SOL    HW211131   4.567   3.579   4.123
 3705SOL     OW11132   3.954   4.352   0.113
 3705SOL    HW111133   3.861   4.350   0.150
 3705SOL    HW211134   3.955   4.313   0.021
 3706SOL     OW11135   3.949   3.999   0.996
 3706SOL    HW111136   3.984   3.982   1.088
 3706SOL    HW211137   3.861   3.954   0.984
 3707SOL     OW11138   3.743   4.092   0.647
 3707SOL    HW111139   3.661   4.135   0.686
 3707SOL    HW211140   3.715   4.019   0.584
 3708SOL     OW11141   4.492   4.868   1.023
 3708SOL    HW111142   4.414   4.885   1.083
 3708SOL    HW211143   4.526   4.955   0.987
 3709SOL     OW11144   4.574   4.522   1.823
 3709SOL    HW111145   4.570   4.598   1.888
 3709SOL    HW211146   4.596   4.558   1.732
 3710SOL     OW11147   4.409   4.736   0.665
 3710SOL    HW111148   4.478   4.720   0.735
 3710SOL    HW211149   4.336   4.793   0.703
 3711SOL     OW11150   4.162   4.116   1.499
 3711SOL    HW111151   4.244   4.060   1.508
 3711SOL    HW211152   4.081   4.058   1.503
 3712SOL     OW11153   3.964   4.815   0.886
 3712SOL    HW111154   3.978   4.731   0.938
 3712SOL    HW211155   3.909   4.879   0.941
 3713SOL     OW11156   4.330   4.688   0.123
 3713SOL    HW111157   4.337   4.772   0.069
 3713SOL    HW211158   4.376   4.701   0.211
 3714SOL     OW11159   3.846   4.367   0.563
 3714SOL    HW111160   3.801   4.279   0.580
 3714SOL    HW211161   3.845   4.421   0.647
 3715SOL     OW11162   3.837   4.461   1.597
 3715SOL    HW111163   3.925   4.448   1.642
 3715SOL    HW211164   3.824   4.558   1.575
 3716SOL     OW11165   4.337   5.089   0.726
 3716SOL    HW111166   4.288   5.002   0.735
 3716SOL    HW211167   4.314   5.132   0.639
 3717SOL     OW11168   4.533   3.728   0.502
 3717SOL    HW111169   4.573   3.819   0.493
 3717SOL    HW211170   4.433   3.736   0.508
 3718SOL     OW11171   3.921   4.700   1.264
 3718SOL    HW111172   4.010   4.655   1.250
 3718SOL    HW211173   3.848   4.635   1.245
 3719SOL     OW11174   4.041   3.975   1.801
 3719SOL    HW111175   4.112   4.046   1.807
 3719SOL    HW211176   3.953   4.014   1.829
 3720SOL     OW11177   4.322   4.453   0.270
 3720SOL    HW111178   4.346   4.522   0.202
 3720SOL    HW211179   4.244   4.486   0.324
 3721SOL     OW11180   4.531   4.329   1.465
 3721SOL    HW111181   4.484   4.326   1.554
 3721SOL    HW211182   4.480   4.274   1.399
 3722SOL     OW11183   4.697   4.614   1.572
 3722SOL    HW111184   4.743   4.530   1.543
 3722SOL    HW211185   4.641   4.648   1.497
 3723SOL     OW11186   4.715   4.134   1.242
 3723SOL    HW111187   4.638   4.168   1.296
 3723SOL    HW211188   4.681   4.083   1.163
 3724SOL     OW11189   4.765   4.425   0.429
 3724SOL    HW111190   4.791   4.421   0.525
 3724SOL    HW211191   4.680   4.374   0.415
 3725SOL     OW11192   3.800   4.535   0.789
 3725SOL    HW111193   3.899   4.523   0.798
 3725SOL    HW211194   3.776   4.630   0.810
 3726SOL     OW11195   4.589   4.072   0.195
 3726SOL    HW111196   4.648   4.135   0.146
 3726SOL    HW211197   4.608   3.978   0.166
 3727SOL     OW11198   4.274   3.920   0.885
 3727SOL    HW111199   4.269   3.915   0.985
 3727SOL    HW211200   4.276   4.016   0.856
 3728SOL     OW11201   4.045   4.667   0.242
 3728SOL    HW111202   4.127   4.706   0.200
 3728SOL    HW211203   4.018   4.585   0.193
 3729SOL     OW11204   3.926   4.009   1.498
 3729SOL    HW111205   3.846   4.069   1.485
 3729SOL    HW211206   3.916   3.960   1.584
 3730SOL     OW11207   4.106   4.424   0.480
 3730SOL    HW111208   4.151   4.334   0.477
 3730SOL    HW211209   4.012   4.413   0.513
 3731SOL     OW11210   4.338   3.846   0.117
 3731SOL    HW111211   4.436   3.824   0.124
 3731SOL    HW211212   4.307   3.829   0.024
 3732SOL     OW11213   4.505   3.988   1.749
 3732SOL    HW111214   4.572   3.927   1.792
 3732SOL    HW211215   4.432   4.007   1.814
 3733SOL     OW11216   4.646   4.227   0.899
 3733SOL    HW111217   4.621   4.218   0.803
 3733SOL    HW211218   4.694   4.145   0.930
 3734SOL     OW11219   4.263   3.788   0.512
 3734SOL    HW111220   4.182   3.789   0.570
 3734SOL    HW211221   4.266   3.871   0.457
 3735SOL     OW11222   4.021   3.759   0.171
 3735SOL    HW111223   4.070   3.843   0.150
 3735SOL    HW211224   4.083   3.694   0.216
 3736SOL     OW11225   4.659   3.960   0.480
 3736SOL    HW111226   4.611   4.001   0.402
 3736SOL    HW211227   4.758   3.958   0.461
 3737SOL     OW11228   4.183   4.876   0.741
 3737SOL    HW111229   4.112   4.849   0.806
 3737SOL    HW211230   4.157   4.848   0.648
 3738SOL     OW11231   4.756   4.273   0.016
 3738SOL    HW111232   4.715   4.355  -0.023
 3738SOL    HW211233   4.820   4.299   0.089
 3739SOL     OW11234   3.802   4.280   1.386
 3739SOL    HW111235   3.894   4.279   1.345
 3739SOL    HW211236   3.796   4.354   1.453
 3740SOL     OW11237   4.285   3.946   1.147
 3740SOL    HW111238   4.323   3.862   1.184
 3740SOL    HW211239   4.197   3.965   1.191
 3741SOL     OW11240   4.590   4.178   0.642
 3741SOL    HW111241   4.558   4.250   0.580
 3741SOL    HW211242   4.614   4.097   0.589
 3742SOL     OW11243   4.741   3.763   0.753
 3742SOL    HW111244   4.669   3.768   0.684
 3742SOL    HW211245   4.717   3.694   0.822
 3743SOL     OW11246   4.251   3.980   0.328
 3743SOL    HW111247   4.278   3.921   0.253
 3743SOL    HW211248   4.251   4.075   0.297
 3744SOL     OW11249   4.639   3.813   1.402
 3744SOL    HW111250   4.664   3.793   1.307
 3744SOL    HW211251   4.711   3.869   1.444
 3745SOL     OW11252   4.429   4.774   0.368
 3745SOL    HW111253   4.415   4.781   0.467
 3745SOL    HW211254   4.513   4.723   0.350
 3746SOL     OW11255   4.134   4.537   1.251
 3746SOL    HW111256   4.220   4.549   1.301
 3746SOL    HW211257   4.092   4.450   1.278
 3747SOL     OW11258   4.091   4.824   0.501
 3747SOL    HW111259   4.084   4.907   0.445
 3747SOL    HW211260   4.095   4.744   0.441
 3748SOL     OW11261   4.290   4.261   0.865
 3748SOL    HW111262   4.302   4.327   0.791
 3748SOL    HW211263   4.336   4.295   0.948
 3749SOL     OW11264   4.126   4.475   1.598
 3749SOL    HW111265   4.194   4.530   1.551
 3749SOL    HW211266   4.166   4.387   1.625
 3750SOL     OW11267   4.737   3.829   1.770
 3750SOL    HW111268   4.743   3.914   1.718
 3750SOL    HW211269   4.769   3.753   1.713
 3751SOL     OW11270   4.228   3.774   1.740
 3751SOL    HW111271   4.186   3.717   1.670
 3751SOL    HW211272   4.162   3.843   1.772
 3752SOL     OW11273   4.297   4.594   1.029
 3752SOL    HW111274   4.341   4.683   1.020
 3752SOL    HW211275   4.234   4.594   1.106
 3753SOL     OW11276   5.084   4.586   1.045
 3753SOL    HW111277   5.009   4.586   0.979
 3753SOL    HW211278   5.121   4.494   1.054
 3754SOL     OW11279   4.933   4.249   0.275
 3754SOL    HW111280   4.946   4.165   0.329
 3754SOL    HW211281   4.904   4.323   0.335
 3755SOL     OW11282   4.031   3.937   1.231
 3755SOL    HW111283   4.008   3.974   1.321
 3755SOL    HW211284   4.001   3.842   1.225
 3756SOL     OW11285   4.456   4.358   1.064
 3756SOL    HW111286   4.515   4.332   0.988
 3756SOL    HW211287   4.428   4.454   1.053
 3757SOL     OW11288   4.031   3.787   0.618
 3757SOL    HW111289   4.020   3.881   0.651
 3757SOL    HW211290   4.026   3.724   0.695
 3758SOL     OW11291   4.747   4.490   0.966
 3758SOL    HW111292   4.762   4.511   1.062
 3758SOL    HW211293   4.717   4.395   0.957
 3759SOL     OW11294   4.074   4.622   1.804
 3759SOL    HW111295   4.150   4.666   1.852
 3759SOL    HW211296   4.109   4.575   1.722
 3760SOL     OW11297   4.043   4.534   0.949
 3760SOL    HW111298   4.136   4.570   0.954
 3760SOL    HW211299   4.037   4.449   1.001
 3761SOL     OW11300   4.063   4.233   1.006
 3761SOL    HW111301   4.011   4.150   0.989
 3761SOL    HW211302   4.140   4.238   0.942
 3762SOL     OW11303   4.862   4.104   1.678
 3762SOL    HW111304   4.817   4.167   1.742
 3762SOL    HW211305   4.955   4.135   1.661
 3763SOL     OW11306   4.884   3.931   1.477
 3763SOL    HW111307   4.884   3.995   1.554
 3763SOL    HW211308   4.912   3.979   1.394
 3764SOL     OW11309   4.726   4.520   1.238
 3764SOL    HW111310   4.767   4.488   1.324
 3764SOL    HW211311   4.630   4.493   1.235
 3765SOL     OW11312   3.764   4.268   1.114
 3765SOL    HW111313   3.849   4.235   1.073
 3765SOL    HW211314   3.777   4.283   1.212
 3766SOL     OW11315   3.913   4.244   1.722
 3766SOL    HW111316   3.972   4.204   1.652
 3766SOL    HW211317   3.855   4.315   1.681
 3767SOL     OW11318   4.539   4.296   0.325
 3767SOL    HW111319   4.546   4.207   0.279
 3767SOL    HW211320   4.445   4.330   0.317
 3768SOL     OW11321   4.395   4.188   1.269
 3768SOL    HW111322   4.361   4.099   1.239
 3768SOL    HW211323   4.421   4.242   1.189
 3769SOL     OW11324   4.197   4.224   0.191
 3769SOL    HW111325   4.258   4.304   0.195
 3769SOL    HW211326   4.102   4.255   0.198
 3770SOL     OW11327   3.883   4.861   1.466
 3770SOL    HW111328   3.905   4.800   1.542
 3770SOL    HW211329   3.893   4.812   1.380
 3771SOL     OW11330   5.026   4.579   0.309
 3771SOL    HW111331   4.940   4.548   0.351
 3771SOL    HW211332   5.022   4.565   0.210
 3772SOL     OW11333   4.627   3.810   0.133
 3772SOL    HW111334   4.678   3.811   0.047
 3772SOL    HW211335   4.683   3.768   0.204
 3773SOL     OW11336   3.987   4.050   0.720
 3773SOL    HW111337   3.908   4.101   0.686
 3773SOL    HW211338   3.978   4.035   0.818
 3774SOL     OW11339   4.546   4.726   1.372
 3774SOL    HW111340   4.586   4.725   1.280
 3774SOL    HW211341   4.556   4.818   1.412
 3775SOL     OW11342   4.640   4.634   0.291
 3775SOL    HW111343   4.703   4.672   0.223
 3775SOL    HW211344   4.680   4.551   0.330
 3776SOL     OW11345   4.096   5.012   1.490
 3776SOL    HW111346   4.083   5.105   1.456
 3776SOL    HW211347   4.012   4.960   1.477
 3777SOL     OW11348   4.738   3.960   0.971
 3777SOL    HW111349   4.730   3.924   0.878
 3777SOL    HW211350   4.736   3.884   1.036
 3778SOL     OW11351   3.829   4.737   1.726
 3778SOL    HW111352   3.752   4.704   1.780
 3778SOL    HW211353   3.914   4.707   1.768
 3779SOL     OW11354   4.396   3.927   1.489
 3779SOL    HW111355   4.486   3.911   1.449
 3779SOL    HW211356   4.404   3.932   1.588
 3780SOL     OW11357   3.796   3.890   0.318
 3780SOL    HW111358   3.779   3.973   0.264
 3780SOL    HW211359   3.886   3.853   0.296
 3781SOL     OW11360   4.337   4.566   1.431
 3781SOL    HW111361   4.393   4.647   1.414
 3781SOL    HW211362   4.396   4.486   1.434
 3782SOL     OW11363   4.440   4.289   1.708
 3782SOL    HW111364   4.459   4.354   1.782
 3782SOL    HW211365   4.500   4.209   1.717
 3783SOL     OW11366   4.318   4.469   0.652
 3783SOL    HW111367   4.368   4.554   0.633
 3783SOL    HW211368   4.230   4.471   0.604
 3784SOL     OW11369   4.583   4.680   0.861
 3784SOL    HW111370   4.637   4.611   0.909
 3784SOL    HW211371   4.551   4.749   0.927
 3785SOL     OW11372   4.807   4.708   0.087
 3785SOL    HW111373   4.784   4.761   0.005
 3785SOL    HW211374   4.888   4.652   0.068
 3786SOL     OW11375   3.803   4.964   0.653
 3786SOL    HW111376   3.802   4.917   0.741
 3786SOL    HW211377   3.885   4.936   0.602
 3787SOL     OW11378   4.152   4.148   0.520
 3787SOL    HW111379   4.182   4.076   0.458
 3787SOL    HW211380   4.113   4.108   0.603
 3788SOL     OW11381   4.041   4.271   1.280
 3788SOL    HW111382   4.079   4.212   1.352
 3788SOL    HW211383   4.081   4.245   1.192
 3789SOL     OW11384   4.725   3.758   1.154
 3789SOL    HW111385   4.662   3.686   1.123
 3789SOL    HW211386   4.818   3.722   1.154
 3790SOL     OW11387   4.494   5.054   0.301
 3790SOL    HW111388   4.448   4.967   0.318
 3790SOL    HW211389   4.585   5.051   0.342
 3791SOL     OW11390   3.954   4.352   1.975
 3791SOL    HW111391   3.861   4.350   2.012
 3791SOL    HW211392   3.955   4.313   1.883
 3792SOL     OW11393   3.949   3.999   2.858
 3792SOL    HW111394   3.984   3.982   2.950
 3792SOL    HW211395   3.861   3.954   2.846
 3793SOL     OW11396   3.743   4.092   2.509
 3793SOL    HW111397   3.661   4.135   2.548
 3793SOL    HW211398   3.715   4.019   2.446
 3794SOL     OW11399   4.492   4.868   2.885
 3794SOL    HW111400   4.414   4.885   2.945
 3794SOL    HW211401   4.526   4.955   2.849
 3795SOL     OW11402   4.574   4.522   3.685
 3795SOL    HW111403   4.570   4.598   3.750
 3795SOL    HW211404   4.596   4.558   3.594
 3796SOL     OW11405   4.409   4.736   2.527
 3796SOL    HW111406   4.478   4.720   2.597
 3796SOL    HW211407   4.336   4.793   2.565
 3797SOL     OW11408   4.162   4.116   3.361
 3797SOL    HW111409   4.244   4.060   3.370
 3797SOL    HW211410   4.081   4.058   3.365
 3798SOL     OW11411   3.964   4.815   2.748
 3798SOL    HW111412   3.978   4.731   2.800
 3798SOL    HW211413   3.909   4.879   2.803
 3799SOL     OW11414   4.330   4.688   1.985
 3799SOL    HW111415   4.337   4.772   1.931
 3799SOL    HW211416   4.376   4.701   2.073
 3800SOL     OW11417   3.846   4.367   2.425
 3800SOL    HW111418   3.801   4.279   2.442
 3800SOL    HW211419   3.845   4.421   2.509
 3801SOL     OW11420   3.837   4.461   3.459
 3801SOL    HW111421   3.925   4.448   3.504
 3801SOL    HW211422   3.824   4.558   3.437
 3802SOL     OW11423   4.337   5.089   2.588
 3802SOL    HW111424   4.288   5.002   2.597
 3802SOL    HW211425   4.314   5.132   2.501
 3803SOL     OW11426   4.533   3.728   2.364
 3803SOL    HW111427   4.573   3.819   2.355
 3803SOL    HW211428   4.433   3.736   2.370
 3804SOL     OW11429   3.921   4.700   3.126
 3804SOL    HW111430   4.010   4.655   3.112
 3804SOL    HW211431   3.848   4.635   3.107
 3805SOL     OW11432   4.041   3.975   3.663
 3805SOL    HW111433   4.112   4.046   3.669
 3805SOL    HW211434   3.953   4.014   3.691
 3806SOL     OW11435   4.322   4.453   2.132
 3806SOL    HW111436   4.346   4.522   2.064
 3806SOL    HW211437   4.244   4.486   2.186
 3807SOL     OW11438   4.531   4.329   3.327
 3807SOL    HW111439   4.484   4.326   3.416
 3807SOL    HW211440   4.480   4.274   3.261
 3808SOL     OW11441   4.697   4.614   3.434
 3808SOL    HW111442   4.743   4.530   3.405
 3808SOL    HW211443   4.641   4.648   3.359
 3809SOL     OW11444   4.715   4.134   3.104
 3809SOL    HW111445   4.638   4.168   3.158
 3809SOL    HW211446   4.681   4.083   3.025
 3810SOL     OW11447   4.765   4.425   2.291
 3810SOL    HW111448   4.791   4.421   2.387
 3810SOL    HW211449   4.680   4.374   2.277
 3811SOL     OW11450   3.800   4.535   2.651
 3811SOL    HW111451   3.899   4.523   2.660
 3811SOL    HW211452   3.776   4.630   2.672
 3812SOL     OW11453   4.589   4.072   2.057
 3812SOL    HW111454   4.648   4.135   2.008
 3812SOL    HW211455   4.608   3.978   2.028
 3813SOL     OW11456   4.274   3.920   2.747
 3813SOL    HW111457   4.269   3.915   2.847
 3813SOL    HW211458   4.276   4.016   2.718
 3814SOL     OW11459   4.045   4.667   2.104
 3814SOL    HW111460   4.127   4.706   2.062
 3814SOL    HW211461   4.018   4.585   2.055
 3815SOL     OW11462   3.926   4.009   3.360
 3815SOL    HW111463   3.846   4.069   3.347
 3815SOL    HW211464   3.916   3.960   3.446
 3816SOL     OW11465   4.106   4.424   2.342
 3816SOL    HW111466   4.151   4.334   2.339
 3816SOL    HW211467   4.012   4.413   2.375
 3817SOL     OW11468   4.338   3.846   1.979
 3817SOL    HW111469   4.436   3.824   1.986
 3817SOL    HW211470   4.307   3.829   1.886
 3818SOL     OW11471   4.505   3.988   3.611
 3818SOL    HW111472   4.572   3.927   3.654
 3818SOL    HW211473   4.432   4.007   3.676
 3819SOL     OW11474   4.646   4.227   2.761
 3819SOL    HW111475   4.621   4.218   2.665
 3819SOL    HW211476   4.694   4.145   2.792
 3820SOL     OW11477   4.263   3.788   2.374
 3820SOL    HW111478   4.182   3.789   2.432
 3820SOL    HW211479   4.266   3.871   2.319
 3821SOL     OW11480   4.021   3.759   2.033
 3821SOL    HW111481   4.070   3.843   2.012
 3821SOL    HW211482   4.083   3.694   2.078
 3822SOL     OW11483   4.659   3.960   2.342
 3822SOL    HW111484   4.611   4.001   2.264
 3822SOL    HW211485   4.758   3.958   2.323
 3823SOL     OW11486   4.183   4.876   2.603
 3823SOL    HW111487   4.112   4.849   2.668
 3823SOL    HW211488   4.157   4.848   2.510
 3824SOL     OW11489   4.756   4.273   1.878
 3824SOL    HW111490   4.715   4.355   1.839
 3824SOL    HW211491   4.820   4.299   1.951
 3825SOL     OW11492   3.802   4.280   3.248
 3825SOL    HW111493   3.894   4.279   3.207
 3825SOL    HW211494   3.796   4.354   3.315
 3826SOL     OW11495   4.285   3.946   3.009
 3826SOL    HW111496   4.323   3.862   3.046
 3826SOL    HW211497   4.197   3.965   3.053
 3827SOL     OW11498   4.590   4.178   2.504
 3827SOL    HW111499   4.558   4.250   2.442
 3827SOL    HW211500   4.614   4.097   2.451
 3828SOL     OW11501   4.741   3.763   2.615
 3828SOL    HW111502   4.669   3.768   2.546
 3828SOL    HW211503   4.717   3.694   2.684
 3829SOL     OW11504   4.251   3.980   2.190
 3829SOL    HW111505   4.278   3.921   2.115
 3829SOL    HW211506   4.251   4.075   2.159
 3830SOL     OW11507   4.639   3.813   3.264
 3830SOL    HW111508   4.664   3.793   3.169
 3830SOL    HW211509   4.711   3.869   3.306
 3831SOL     OW11510   4.429   4.774   2.230
 3831SOL    HW111511   4.415   4.781   2.329
 3831SOL    HW211512   4.513   4.723   2.212
 3832SOL     OW11513   4.134   4.537   3.113
 3832SOL    HW111514   4.220   4.549   3.163
 3832SOL    HW211515   4.092   4.450   3.140
 3833SOL     OW11516   4.091   4.824   2.363
 3833SOL    HW111517   4.084   4.907   2.307
 3833SOL    HW211518   4.095   4.744   2.303
 3834SOL     OW11519   4.290   4.261   2.727
 3834SOL    HW111520   4.302   4.327   2.653
 3834SOL    HW211521   4.336   4.295   2.810
 3835SOL     OW11522   4.126   4.475   3.460
 3835SOL    HW111523   4.194   4.530   3.413
 3835SOL    HW211524   4.166   4.387   3.487
 3836SOL     OW11525   4.737   3.829   3.632
 3836SOL    HW111526   4.743   3.914   3.580
 3836SOL    HW211527   4.769   3.753   3.575
 3837SOL     OW11528   4.228   3.774   3.602
 3837SOL    HW111529   4.186   3.717   3.532
 3837SOL    HW211530   4.162   3.843   3.634
 3838SOL     OW11531   4.297   4.594   2.891
 3838SOL    HW111532   4.341   4.683   2.882
 3838SOL    HW211533   4.234   4.594   2.968
 3839SOL     OW11534   5.084   4.586   2.907
 3839SOL    HW111535   5.009   4.586   2.841
 3839SOL    HW211536   5.121   4.494   2.916
 3840SOL     OW11537   4.933   4.249   2.137
 3840SOL    HW111538   4.946   4.165   2.191
 3840SOL    HW211539   4.904   4.323   2.197
 3841SOL     OW11540   4.031   3.937   3.093
 3841SOL    HW111541   4.008   3.974   3.183
 3841SOL    HW211542   4.001   3.842   3.087
 3842SOL     OW11543   4.456   4.358   2.926
 3842SOL    HW111544   4.515   4.332   2.850
 3842SOL    HW211545   4.428   4.454   2.915
 3843SOL     OW11546   4.031   3.787   2.480
 3843SOL    HW111547   4.020   3.881   2.513
 3843SOL    HW211548   4.026   3.724   2.557
 3844SOL     OW11549   4.747   4.490   2.828
 3844SOL    HW111550   4.762   4.511   2.924
 3844SOL    HW211551   4.717   4.395   2.819
 3845SOL     OW11552   4.074   4.622   3.666
 3845SOL    HW111553   4.150   4.666   3.714
 3845SOL    HW211554   4.109   4.575   3.584
 3846SOL     OW11555   5.027   4.562   1.904
 3846SOL    HW111556   5.061   4.469   1.919
 3846SOL    HW211557   5.045   4.589   1.809
 3847SOL     OW11558   4.043   4.534   2.811
 3847SOL    HW111559   4.136   4.570   2.816
 3847SOL    HW211560   4.037   4.449   2.863
 3848SOL     OW11561   4.063   4.233   2.868
 3848SOL    HW111562   4.011   4.150   2.851
 3848SOL    HW211563   4.140   4.238   2.804
 3849SOL     OW11564   4.862   4.104   3.540
 3849SOL    HW111565   4.817   4.167   3.604
 3849SOL    HW211566   4.955   4.135   3.523
 3850SOL     OW11567   4.884   3.931   3.339
 3850SOL    HW111568   4.884   3.995   3.416
 3850SOL    HW211569   4.912   3.979   3.256
 3851SOL     OW11570   4.726   4.520   3.100
 3851SOL    HW111571   4.767   4.488   3.186
 3851SOL    HW211572   4.630   4.493   3.097
 3852SOL     OW11573   3.764   4.268   2.976
 3852SOL    HW111574   3.849   4.235   2.935
 3852SOL    HW211575   3.777   4.283   3.074
 3853SOL     OW11576   3.913   4.244   3.584
 3853SOL    HW111577   3.972   4.204   3.514
 3853SOL    HW211578   3.855   4.315   3.543
 3854SOL     OW11579   4.539   4.296   2.187
 3854SOL    HW111580   4.546   4.207   2.141
 3854SOL    HW211581   4.445   4.330   2.179
 3855SOL     OW11582   4.395   4.188   3.131
 3855SOL    HW111583   4.361   4.099   3.101
 3855SOL    HW211584   4.421   4.242   3.051
 3856SOL     OW11585   4.197   4.224   2.053
 3856SOL    HW111586   4.258   4.304   2.057
 3856SOL    HW211587   4.102   4.255   2.060
 3857SOL     OW11588   3.883   4.861   3.328
 3857SOL    HW111589   3.905   4.800   3.404
 3857SOL    HW211590   3.893   4.812   3.242
 3858SOL     OW11591   5.026   4.579   2.171
 3858SOL    HW111592   4.940   4.548   2.213
 3858SOL    HW211593   5.022   4.565   2.072
 3859SOL     OW11594   3.987   4.050   2.582
 3859SOL    HW111595   3.908   4.101   2.548
 3859SOL    HW211596   3.978   4.035   2.680
 3860SOL     OW11597   4.546   4.726   3.234
 3860SOL    HW111598   4.586   4.725   3.142
 3860SOL    HW211599   4.556   4.818   3.274
 3861SOL     OW11600   4.640   4.634   2.153
 3861SOL    HW111601   4.703   4.672   2.085
 3861SOL    HW211602   4.680   4.551   2.192
 3862SOL     OW11603   4.096   5.012   3.352
 3862SOL    HW111604   4.083   5.105   3.318
 3862SOL    HW211605   4.012   4.960   3.339
 3863SOL     OW11606   4.738   3.960   2.833
 3863SOL    HW111607   4.730   3.924   2.740
 3863SOL    HW211608   4.736   3.884   2.898
 3864SOL     OW11609   3.829   4.737   3.588
 3864SOL    HW111610   3.752   4.704   3.642
 3864SOL    HW211611   3.914   4.707   3.630
 3865SOL     OW11612   4.396   3.927   3.351
 3865SOL    HW111613   4.486   3.911   3.311
 3865SOL    HW211614   4.404   3.932   3.450
 3866SOL     OW11615   3.799   4.069   1.895
 3866SOL    HW111616   3.707   4.041   1.866
 3866SOL    HW211617   3.830   4.146   1.839
 3867SOL     OW11618   3.796   3.890   2.180
 3867SOL    HW111619   3.779   3.973   2.126
 3867SOL    HW211620   3.886   3.853   2.158
 3868SOL     OW11621   4.337   4.566   3.293
 3868SOL    HW111622   4.393   4.647   3.276
 3868SOL    HW211623   4.396   4.486   3.296
 3869SOL     OW11624   4.440   4.289   3.570
 3869SOL    HW111625   4.459   4.354   3.644
 3869SOL    HW211626   4.500   4.209   3.579
 3870SOL     OW11627   4.318   4.469   2.514
 3870SOL    HW111628   4.368   4.554   2.495
 3870SOL    HW211629   4.230   4.471   2.466
 3871SOL     OW11630   4.583   4.680   2.723
 3871SOL    HW111631   4.637   4.611   2.771
 3871SOL    HW211632   4.551   4.749   2.789
 3872SOL     OW11633   4.807   4.708   1.949
 3872SOL    HW111634   4.784   4.761   1.867
 3872SOL    HW211635   4.888   4.652   1.930
 3873SOL     OW11636   3.803   4.964   2.515
 3873SOL    HW111637   3.802   4.917   2.603
 3873SOL    HW211638   3.885   4.936   2.464
 3874SOL     OW11639   4.152   4.148   2.382
 3874SOL    HW111640   4.182   4.076   2.320
 3874SOL    HW211641   4.113   4.108   2.465
 3875SOL     OW11642   4.041   4.271   3.142
 3875SOL    HW111643   4.079   4.212   3.214
 3875SOL    HW211644   4.081   4.245   3.054
 3876SOL     OW11645   4.725   3.758   3.016
 3876SOL    HW111646   4.662   3.686   2.985
 3876SOL    HW211647   4.818   3.722   3.016
 3877SOL     OW11648   4.494   5.054   2.163
 3877SOL    HW111649   4.448   4.967   2.180
 3877SOL    HW211650   4.585   5.051   2.204
 3878SOL     OW11651   3.763   4.801   2.162
 3878SOL    HW111652   3.862   4.790   2.153
 3878SOL    HW211653   3.723   4.715   2.194
 3879SOL     OW11654   3.954   4.352   3.837
 3879SOL    HW111655   3.861   4.350   3.874
 3879SOL    HW211656   3.955   4.313   3.745
 3880SOL     OW11657   3.949   3.999   4.720
 3880SOL    HW111658   3.984   3.982   4.812
 3880SOL    HW211659   3.861   3.954   4.708
 3881SOL     OW11660   3.743   4.092   4.371
 3881SOL    HW111661   3.661   4.135   4.410
 3881SOL    HW211662   3.715   4.019   4.308
 3882SOL     OW11663   4.492   4.868   4.747
 3882SOL    HW111664   4.414   4.885   4.807
 3882SOL    HW211665   4.526   4.955   4.711
 3883SOL     OW11666   4.409   4.736   4.389
 3883SOL    HW111667   4.478   4.720   4.459
 3883SOL    HW211668   4.336   4.793   4.427
 3884SOL     OW11669   3.964   4.815   4.610
 3884SOL    HW111670   3.978   4.731   4.662
 3884SOL    HW211671   3.909   4.879   4.665
 3885SOL     OW11672   4.330   4.688   3.847
 3885SOL    HW111673   4.337   4.772   3.793
 3885SOL    HW211674   4.376   4.701   3.935
 3886SOL     OW11675   3.846   4.367   4.287
 3886SOL    HW111676   3.801   4.279   4.304
 3886SOL    HW211677   3.845   4.421   4.371
 3887SOL     OW11678   4.337   5.089   4.450
 3887SOL    HW111679   4.288   5.002   4.459
 3887SOL    HW211680   4.314   5.132   4.363
 3888SOL     OW11681   4.533   3.728   4.226
 3888SOL    HW111682   4.573   3.819   4.217
 3888SOL    HW211683   4.433   3.736   4.232
 3889SOL     OW11684   3.921   4.700   4.988
 3889SOL    HW111685   4.010   4.655   4.974
 3889SOL    HW211686   3.848   4.635   4.969
 3890SOL     OW11687   4.322   4.453   3.994
 3890SOL    HW111688   4.346   4.522   3.926
 3890SOL    HW211689   4.244   4.486   4.048
 3891SOL     OW11690   4.765   4.425   4.153
 3891SOL    HW111691   4.791   4.421   4.249
 3891SOL    HW211692   4.680   4.374   4.139
 3892SOL     OW11693   3.800   4.535   4.513
 3892SOL    HW111694   3.899   4.523   4.522
 3892SOL    HW211695   3.776   4.630   4.534
 3893SOL     OW11696   4.589   4.072   3.919
 3893SOL    HW111697   4.648   4.135   3.870
 3893SOL    HW211698   4.608   3.978   3.890
 3894SOL     OW11699   4.274   3.920   4.609
 3894SOL    HW111700   4.269   3.915   4.709
 3894SOL    HW211701   4.276   4.016   4.580
 3895SOL     OW11702   4.045   4.667   3.966
 3895SOL    HW111703   4.127   4.706   3.924
 3895SOL    HW211704   4.018   4.585   3.917
 3896SOL     OW11705   4.106   4.424   4.204
 3896SOL    HW111706   4.151   4.334   4.201
 3896SOL    HW211707   4.012   4.413   4.237
 3897SOL     OW11708   4.338   3.846   3.841
 3897SOL    HW111709   4.436   3.824   3.848
 3897SOL    HW211710   4.307   3.829   3.748
 3898SOL     OW11711   4.612   5.238   4.919
 3898SOL    HW111712   4.589   5.213   4.825
 3898SOL    HW211713   4.673   5.169   4.958
 3899SOL     OW11714   4.646   4.227   4.623
 3899SOL    HW111715   4.621   4.218   4.527
 3899SOL    HW211716   4.694   4.145   4.654
 3900SOL     OW11717   4.263   3.788   4.236
 3900SOL    HW111718   4.182   3.789   4.294
 3900SOL    HW211719   4.266   3.871   4.181
 3901SOL     OW11720   4.021   3.759   3.895
 3901SOL    HW111721   4.070   3.843   3.874
 3901SOL    HW211722   4.083   3.694   3.940
 3902SOL     OW11723   4.659   3.960   4.204
 3902SOL    HW111724   4.611   4.001   4.126
 3902SOL    HW211725   4.758   3.958   4.185
 3903SOL     OW11726   4.183   4.876   4.465
 3903SOL    HW111727   4.112   4.849   4.530
 3903SOL    HW211728   4.157   4.848   4.372
 3904SOL     OW11729   4.756   4.273   3.740
 3904SOL    HW111730   4.715   4.355   3.701
 3904SOL    HW211731   4.820   4.299   3.813
 3905SOL     OW11732   4.590   4.178   4.366
 3905SOL    HW111733   4.558   4.250   4.304
 3905SOL    HW211734   4.614   4.097   4.313
 3906SOL     OW11735   4.741   3.763   4.477
 3906SOL    HW111736   4.669   3.768   4.408
 3906SOL    HW211737   4.717   3.694   4.546
 3907SOL     OW11738   4.251   3.980   4.052
 3907SOL    HW111739   4.278   3.921   3.977
 3907SOL    HW211740   4.251   4.075   4.021
 3908SOL     OW11741   4.835   4.919   4.824
 3908SOL    HW111742   4.795   4.963   4.905
 3908SOL    HW211743   4.794   4.956   4.741
 3909SOL     OW11744   4.429   4.774   4.092
 3909SOL    HW111745   4.415   4.781   4.191
 3909SOL    HW211746   4.513   4.723   4.074
 3910SOL     OW11747   4.134   4.537   4.975
 3910SOL    HW111748   4.220   4.549   5.025
 3910SOL    HW211749   4.092   4.450   5.002
 3911SOL     OW11750   4.091   4.824   4.225
 3911SOL    HW111751   4.084   4.907   4.169
 3911SOL    HW211752   4.095   4.744   4.165
 3912SOL     OW11753   4.290   4.261   4.589
 3912SOL    HW111754   4.302   4.327   4.515
 3912SOL    HW211755   4.336   4.295   4.672
 3913SOL     OW11756   4.297   4.594   4.753
 3913SOL    HW111757   4.341   4.683   4.744
 3913SOL    HW211758   4.234   4.594   4.830
 3914SOL     OW11759   5.084   4.586   4.769
 3914SOL    HW111760   5.009   4.586   4.703
 3914SOL    HW211761   5.121   4.494   4.778
 3915SOL     OW11762   4.933   4.249   3.999
 3915SOL    HW111763   4.946   4.165   4.053
 3915SOL    HW211764   4.904   4.323   4.059
 3916SOL     OW11765   4.031   3.937   4.955
 3916SOL    HW111766   4.008   3.974   5.045
 3916SOL    HW211767   4.001   3.842   4.949
 3917SOL     OW11768   4.456   4.358   4.788
 3917SOL    HW111769   4.515   4.332   4.712
 3917SOL    HW211770   4.428   4.454   4.777
 3918SOL     OW11771   4.031   3.787   4.342
 3918SOL    HW111772   4.020   3.881   4.375
 3918SOL    HW211773   4.026   3.724   4.419
 3919SOL     OW11774   4.747   4.490   4.690
 3919SOL    HW111775   4.762   4.511   4.786
 3919SOL    HW211776   4.717   4.395   4.681
 3920SOL     OW11777   5.027   4.562   3.766
 3920SOL    HW111778   5.061   4.469   3.781
 3920SOL    HW211779   5.045   4.589   3.671
 3921SOL     OW11780   4.043   4.534   4.673
 3921SOL    HW111781   4.136   4.570   4.678
 3921SOL    HW211782   4.037   4.449   4.725
 3922SOL     OW11783   4.063   4.233   4.730
 3922SOL    HW111784   4.011   4.150   4.713
 3922SOL    HW211785   4.140   4.238   4.666
 3923SOL     OW11786   4.726   4.520   4.962
 3923SOL    HW111787   4.767   4.488   5.048
 3923SOL    HW211788   4.630   4.493   4.959
 3924SOL     OW11789   3.764   4.268   4.838
 3924SOL    HW111790   3.849   4.235   4.797
 3924SOL    HW211791   3.777   4.283   4.936
 3925SOL     OW11792   4.539   4.296   4.049
 3925SOL    HW111793   4.546   4.207   4.003
 3925SOL    HW211794   4.445   4.330   4.041
 3926SOL     OW11795   4.395   4.188   4.993
 3926SOL    HW111796   4.361   4.099   4.963
 3926SOL    HW211797   4.421   4.242   4.913
 3927SOL     OW11798   4.197   4.224   3.915
 3927SOL    HW111799   4.258   4.304   3.919
 3927SOL    HW211800   4.102   4.255   3.922
 3928SOL     OW11801   3.883   4.861   5.190
 3928SOL    HW111802   3.905   4.800   5.266
 3928SOL    HW211803   3.893   4.812   5.104
 3929SOL     OW11804   5.026   4.579   4.033
 3929SOL    HW111805   4.940   4.548   4.075
 3929SOL    HW211806   5.022   4.565   3.934
 3930SOL     OW11807   3.987   4.050   4.444
 3930SOL    HW111808   3.908   4.101   4.410
 3930SOL    HW211809   3.978   4.035   4.542
 3931SOL     OW11810   4.546   4.726   5.096
 3931SOL    HW111811   4.586   4.725   5.004
 3931SOL    HW211812   4.556   4.818   5.136
 3932SOL     OW11813   4.640   4.634   4.015
 3932SOL    HW111814   4.703   4.672   3.947
 3932SOL    HW211815   4.680   4.551   4.054
 3933SOL     OW11816   4.738   3.960   4.695
 3933SOL    HW111817   4.730   3.924   4.602
 3933SOL    HW211818   4.736   3.884   4.760
 3934SOL     OW11819   3.799   4.069   3.757
 3934SOL    HW111820   3.707   4.041   3.728
 3934SOL    HW211821   3.830   4.146   3.701
 3935SOL     OW11822   3.796   3.890   4.042
 3935SOL    HW111823   3.779   3.973   3.988
 3935SOL    HW211824   3.886   3.853   4.020
 3936SOL     OW11825   4.318   4.469   4.376
 3936SOL    HW111826   4.368   4.554   4.357
 3936SOL    HW211827   4.230   4.471   4.328
 3937SOL     OW11828   4.583   4.680   4.585
 3937SOL    HW111829   4.637   4.611   4.633
 3937SOL    HW211830   4.551   4.749   4.651
 3938SOL     OW11831   4.807   4.708   3.811
 3938SOL    HW111832   4.784   4.761   3.729
 3938SOL    HW211833   4.888   4.652   3.792
 3939SOL     OW11834   3.803   4.964   4.377
 3939SOL    HW111835   3.802   4.917   4.465
 3939SOL    HW211836   3.885   4.936   4.326
 3940SOL     OW11837   4.152   4.148   4.244
 3940SOL    HW111838   4.182   4.076   4.182
 3940SOL    HW211839   4.113   4.108   4.327
 3941SOL     OW11840   4.494   5.054   4.025
 3941SOL    HW111841   4.448   4.967   4.042
 3941SOL    HW211842   4.585   5.051   4.066
 3942SOL     OW11843   3.763   4.801   4.024
 3942SOL    HW111844   3.862   4.790   4.015
 3942SOL    HW211845   3.723   4.715   4.056
   4.93696   4.93696   4.93696
