mobley_2043882_GMX.gro created by acpype (v: 2023.10.27) on Wed May 20 23:48:41 2026
   23
    1MOL     C1    1   2.473   2.522   2.454
    1MOL     C2    2   2.204   2.208   2.329
    1MOL     C3    3   2.353   2.175   2.340
    1MOL     C4    4   2.182   2.348   2.272
    1MOL     C5    5   2.427   2.280   2.422
    1MOL     C6    6   2.256   2.454   2.354
    1MOL     C7    7   2.405   2.421   2.366
    1MOL     C8    8   2.617   2.554   2.423
    1MOL     O1    9   2.414   2.576   2.547
    1MOL     H1   10   2.155   2.134   2.264
    1MOL     H2   11   2.157   2.201   2.427
    1MOL     H3   12   2.365   2.077   2.387
    1MOL     H4   13   2.397   2.169   2.240
    1MOL     H5   14   2.216   2.352   2.168
    1MOL     H6   15   2.075   2.371   2.272
    1MOL     H7   16   2.394   2.276   2.526
    1MOL     H8   17   2.535   2.257   2.422
    1MOL     H9   18   2.243   2.552   2.307
    1MOL    H10   19   2.211   2.461   2.454
    1MOL    H11   20   2.452   2.429   2.267
    1MOL    H12   21   2.677   2.463   2.432
    1MOL    H13   22   2.624   2.594   2.322
    1MOL    H14   23   2.654   2.628   2.494
   4.73888   4.73888   4.73888
