; mobley_1036761_GMX_OPLS.top created by acpype (v: 2023.10.27) on Wed May 20 23:41:58 2026

; Include forcefield parameters
#include "ffoplsaa.itp"

; Include mobley_1036761_GMX.itp topology
#include "mobley_1036761_GMX.itp"

; Ligand position restraints
#ifdef POSRES_LIG
#include "posre_mobley_1036761.itp"
#endif

[ system ]
 mobley_1036761

[ molecules ]
; Compound        nmols
 mobley_1036761   1     
