%VERSION  VERSION_STAMP = V0001.000  DATE = 05/20/26  23:41:59                  
%FLAG TITLE                                                                     
%FORMAT(20a4)                                                                   
cyclohexylamine                                                                 
%FLAG POINTERS                                                                  
%FORMAT(10I8)                                                                   
      20       5      13       7      31       8      52       8       0       0
     117       1       7       8       8       5       8       7       5       0
       0       0       0       0       0       0       0       0      20       0
       0
%FLAG ATOM_NAME                                                                 
%FORMAT(20a4)                                                                   
C1  C2  C3  C4  C5  C6  N1  H1  H2  H3  H4  H5  H6  H7  H8  H9  H10 H11 H12 H13 
%FLAG CHARGE                                                                    
%FORMAT(5E16.8)                                                                 
 -1.33751682E+00 -1.30107222E+00 -1.30107222E+00 -1.26462762E+00 -1.26462762E+00
  3.16156905E+00 -1.66333154E+01  6.41424960E-01  6.41424960E-01  8.05425660E-01
  8.05425660E-01  8.05425660E-01  8.05425660E-01  6.86980710E-01  6.86980710E-01
  6.86980710E-01  6.86980710E-01  1.27556100E-02  6.33771594E+00  6.33771594E+00
%FLAG ATOMIC_NUMBER                                                             
%FORMAT(10I8)                                                                   
       6       6       6       6       6       6       7       1       1       1
       1       1       1       1       1       1       1       1       1       1
%FLAG MASS                                                                      
%FORMAT(5E16.8)                                                                 
  1.20100000E+01  1.20100000E+01  1.20100000E+01  1.20100000E+01  1.20100000E+01
  1.20100000E+01  1.40100000E+01  1.00800000E+00  1.00800000E+00  1.00800000E+00
  1.00800000E+00  1.00800000E+00  1.00800000E+00  1.00800000E+00  1.00800000E+00
  1.00800000E+00  1.00800000E+00  1.00800000E+00  1.00800000E+00  1.00800000E+00
%FLAG ATOM_TYPE_INDEX                                                           
%FORMAT(10I8)                                                                   
       1       1       1       1       1       1       2       3       3       3
       3       3       3       3       3       3       3       4       5       5
%FLAG NUMBER_EXCLUDED_ATOMS                                                     
%FORMAT(10I8)                                                                   
      15      14      13      14      13      12       7       5       4       3
       2       3       2       2       1       2       1       2       1       1
%FLAG NONBONDED_PARM_INDEX                                                      
%FORMAT(10I8)                                                                   
       1       2       4       7      11       2       3       5       8      12
       4       5       6       9      13       7       8       9      10      14
      11      12      13      14      15
%FLAG RESIDUE_LABEL                                                             
%FORMAT(20a4)                                                                   
MOL 
%FLAG RESIDUE_POINTER                                                           
%FORMAT(10I8)                                                                   
       1
%FLAG BOND_FORCE_CONSTANT                                                       
%FORMAT(5E16.8)                                                                 
  2.26810000E+02  3.42750000E+02  2.51960000E+02  3.42020000E+02  4.60680000E+02
%FLAG BOND_EQUIL_VALUE                                                          
%FORMAT(5E16.8)                                                                 
  1.53840000E+00  1.09790000E+00  1.46740000E+00  1.09840000E+00  1.01920000E+00
%FLAG ANGLE_FORCE_CONSTANT                                                      
%FORMAT(5E16.8)                                                                 
  6.01800000E+01  4.32300000E+01  6.56300000E+01  4.32800000E+01  5.61500000E+01
  4.84100000E+01  3.59300000E+01  4.78900000E+01
%FLAG ANGLE_EQUIL_VALUE                                                         
%FORMAT(5E16.8)                                                                 
  1.93836350E+00  1.91026369E+00  1.91968847E+00  1.90555129E+00  1.90886742E+00
  1.86558324E+00  1.86087085E+00  1.85668205E+00
%FLAG DIHEDRAL_FORCE_CONSTANT                                                   
%FORMAT(5E16.8)                                                                 
  5.20000000E-01  1.30000000E-01  1.55555556E-01  3.00000000E-02  5.00000000E-02
  1.20000000E-01  3.00000000E-01
%FLAG DIHEDRAL_PERIODICITY                                                      
%FORMAT(5E16.8)                                                                 
  3.00000000E+00  3.00000000E+00  3.00000000E+00  3.00000000E+00  3.00000000E+00
  3.00000000E+00  3.00000000E+00
%FLAG DIHEDRAL_PHASE                                                            
%FORMAT(5E16.8)                                                                 
  0.00000000E+00  0.00000000E+00  0.00000000E+00  3.14159400E+00  0.00000000E+00
  0.00000000E+00  0.00000000E+00
%FLAG SCEE_SCALE_FACTOR                                                         
%FORMAT(5E16.8)                                                                 
  1.20000000E+00  1.20000000E+00  1.20000000E+00  1.20000000E+00  1.20000000E+00
  1.20000000E+00  1.20000000E+00
%FLAG SCNB_SCALE_FACTOR                                                         
%FORMAT(5E16.8)                                                                 
  2.00000000E+00  2.00000000E+00  2.00000000E+00  2.00000000E+00  2.00000000E+00
  2.00000000E+00  2.00000000E+00
%FLAG SOLTY                                                                     
%FORMAT(5E16.8)                                                                 
  0.00000000E+00  0.00000000E+00  0.00000000E+00  0.00000000E+00  0.00000000E+00
%FLAG LENNARD_JONES_ACOEF                                                       
%FORMAT(5E16.8)                                                                 
  1.02073671E+06  8.65620051E+05  7.22850509E+05  1.00235148E+05  8.99910629E+04
  7.94617769E+03  6.97998263E+04  6.36026248E+04  5.22955465E+03  3.39005767E+03
  2.23577481E+03  2.35480845E+03  9.47421632E+01  5.24570081E+01  1.34728399E-01
%FLAG LENNARD_JONES_BCOEF                                                       
%FORMAT(5E16.8)                                                                 
  6.63431737E+02  4.52010965E+02  3.05601515E+02  1.37787728E+02  9.65931103E+01
  2.57122925E+01  1.14981426E+02  8.12052260E+01  2.08590256E+01  1.67944276E+01
  1.71355763E+01  1.30109323E+01  2.33785449E+00  1.73959275E+00  7.34107347E-02
%FLAG BONDS_INC_HYDROGEN                                                        
%FORMAT(10I8)                                                                   
       0      21       2       0      24       2       3      27       2       3
      30       2       6      33       2       6      36       2       9      39
       2       9      42       2      12      45       2      12      48       2
      15      51       4      18      54       5      18      57       5
%FLAG BONDS_WITHOUT_HYDROGEN                                                    
%FORMAT(10I8)                                                                   
       0       3       1       0       6       1       3       9       1       6
      12       1       9      15       1      12      15       1      15      18
       3
%FLAG ANGLES_INC_HYDROGEN                                                       
%FORMAT(10I8)                                                                   
       0       3      27       2       0       3      30       2       0       6
      33       2       0       6      36       2       3       0      21       2
       3       0      24       2       3       9      39       2       3       9
      42       2       6       0      21       2       6       0      24       2
       6      12      45       2       6      12      48       2       9       3
      27       2       9       3      30       2       9      15      51       4
      12       6      33       2      12       6      36       2      12      15
      51       4      15       9      39       2      15       9      42       2
      15      12      45       2      15      12      48       2      15      18
      54       5      15      18      57       5      18      15      51       6
      21       0      24       7      27       3      30       7      33       6
      36       7      39       9      42       7      45      12      48       7
      54      18      57       8
%FLAG ANGLES_WITHOUT_HYDROGEN                                                   
%FORMAT(10I8)                                                                   
       0       3       9       1       0       6      12       1       3       0
       6       1       3       9      15       1       6      12      15       1
       9      15      12       1       9      15      18       3      12      15
      18       3
%FLAG DIHEDRALS_INC_HYDROGEN                                                    
%FORMAT(10I8)                                                                   
       0       3       9      39       2       0       3       9      42       2
       0       6      12      45       2       0       6      12      48       2
       3       0       6      33       2       3       0       6      36       2
       3       9      15      51       3       6       0       3      27       2
       6       0       3      30       2       6      12      15      51       3
      21       0       3       9       2      24       0       3       9       2
       9      15      12      45       2       9      15      12      48       2
       9      15      18      54       4       9      15      18      57       4
      21       0       6      12       2      24       0       6      12       2
      12      15       9      39       2      12      15       9      42       2
      12      15      18      54       4      12      15      18      57       4
      15       9       3      27       2      15       9       3      30       2
      15      12       6      33       2      15      12       6      36       2
      18      15       9      39       5      18      15       9      42       5
      18      15      12      45       5      18      15      12      48       5
      21       0       3      27       6      21       0       3      30       6
      21       0       6      33       6      21       0       6      36       6
      24       0       3      27       6      24       0       3      30       6
      24       0       6      33       6      24       0       6      36       6
      27       3       9      39       6      27       3       9      42       6
      30       3       9      39       6      30       3       9      42       6
      33       6      12      45       6      33       6      12      48       6
      36       6      12      45       6      36       6      12      48       6
      39       9      15      51       3      42       9      15      51       3
      45      12      15      51       3      48      12      15      51       3
      51      15      18      54       7      51      15      18      57       7
%FLAG DIHEDRALS_WITHOUT_HYDROGEN                                                
%FORMAT(10I8)                                                                   
       0       3       9      15       1       0       6     -12      15       1
       3       0       6      12       1       3       9     -15      12       1
       3       9      15      18       1       6       0       3       9       1
       6      12     -15       9       1       6      12      15      18       1
%FLAG EXCLUDED_ATOMS_LIST                                                       
%FORMAT(10I8)                                                                   
       2       3       4       5       6       8       9      10      11      12
      13      14      15      16      17       3       4       5       6       7
       8       9      10      11      12      13      14      15      18       4
       5       6       7       8       9      10      11      12      13      16
      17      18       5       6       7       8       9      10      11      14
      15      16      17      18      19      20       6       7       8       9
      12      13      14      15      16      17      18      19      20       7
      10      11      12      13      14      15      16      17      18      19
      20      14      15      16      17      18      19      20       9      10
      11      12      13      10      11      12      13      11      14      15
      14      15      13      16      17      16      17      15      18      18
      17      18      18      19      20      20       0
%FLAG HBOND_ACOEF                                                               
%FORMAT(5E16.8)                                                                 

%FLAG HBOND_BCOEF                                                               
%FORMAT(5E16.8)                                                                 

%FLAG HBCUT                                                                     
%FORMAT(5E16.8)                                                                 

%FLAG AMBER_ATOM_TYPE                                                           
%FORMAT(20a4)                                                                   
c6  c6  c6  c6  c6  c6  n8  hc  hc  hc  hc  hc  hc  hc  hc  hc  hc  h1  hn  hn  
%FLAG TREE_CHAIN_CLASSIFICATION                                                 
%FORMAT(20a4)                                                                   
BLA BLA BLA BLA BLA BLA BLA BLA BLA BLA BLA BLA BLA BLA BLA BLA BLA BLA BLA BLA 
%FLAG JOIN_ARRAY                                                                
%FORMAT(10I8)                                                                   
       0       0       0       0       0       0       0       0       0       0
       0       0       0       0       0       0       0       0       0       0
%FLAG IROTAT                                                                    
%FORMAT(10I8)                                                                   
       0       0       0       0       0       0       0       0       0       0
       0       0       0       0       0       0       0       0       0       0
%FLAG RADIUS_SET                                                                
%FORMAT(1a80)                                                                   
modified Bondi radii (mbondi)                                                   
%FLAG RADII                                                                     
%FORMAT(5E16.8)                                                                 
  1.70000000E+00  1.70000000E+00  1.70000000E+00  1.70000000E+00  1.70000000E+00
  1.70000000E+00  1.55000000E+00  1.30000000E+00  1.30000000E+00  1.30000000E+00
  1.30000000E+00  1.30000000E+00  1.30000000E+00  1.30000000E+00  1.30000000E+00
  1.30000000E+00  1.30000000E+00  1.30000000E+00  1.30000000E+00  1.30000000E+00
%FLAG SCREEN                                                                    
%FORMAT(5E16.8)                                                                 
  7.20000000E-01  7.20000000E-01  7.20000000E-01  7.20000000E-01  7.20000000E-01
  7.20000000E-01  7.90000000E-01  8.50000000E-01  8.50000000E-01  8.50000000E-01
  8.50000000E-01  8.50000000E-01  8.50000000E-01  8.50000000E-01  8.50000000E-01
  8.50000000E-01  8.50000000E-01  8.50000000E-01  8.50000000E-01  8.50000000E-01
%FLAG IPOL                                                                      
%FORMAT(1I8)                                                                    
       0
