cyclohexylamine
    20
   1.0090000   0.0280000   0.4300000   1.9790000   0.6050000  -0.5980000
   0.9870000   0.8490000   1.7160000   1.6940000   2.0820000  -0.8730000
   0.7040000   2.3260000   1.4360000   1.6670000   2.9310000   0.4050000
   3.0130000   3.0390000   0.9710000   0.0000000   0.0010000  -0.0000000
   1.2860000  -1.0080000   0.6580000   3.0080000   0.4840000  -0.2400000
   1.9020000   0.0380000  -1.5330000   0.2200000   0.4520000   2.3910000
   1.9480000   0.7450000   2.2340000   2.4400000   2.4750000  -1.5760000
   0.7220000   2.1670000  -1.3750000  -0.3230000   2.4240000   1.0610000
   0.7460000   2.8920000   2.3750000   1.3300000   3.9430000   0.1540000
   3.0340000   3.8160000   1.6260000   3.6650000   3.2690000   0.2270000
