; mobley_1674094_GMX_OPLS.top created by acpype (v: 2023.10.27) on Wed May 20 23:44:14 2026

; Include forcefield parameters
#include "ffoplsaa.itp"

; Include mobley_1674094_GMX.itp topology
#include "mobley_1674094_GMX.itp"

; Ligand position restraints
#ifdef POSRES_LIG
#include "posre_mobley_1674094.itp"
#endif

[ system ]
 mobley_1674094

[ molecules ]
; Compound        nmols
 mobley_1674094   1     
