hex_1_yne
    16
   3.2170000   3.6500000  -3.2580000   1.3910000  -0.4450000  -1.0600000
   2.1450000   3.1120000  -2.4090000   1.2140000   1.0470000  -1.2940000
   2.3260000   1.6120000  -2.1760000   4.8680000   4.4850000  -4.5660000
   4.0920000   4.0930000  -3.9510000   0.5840000  -0.8280000  -0.4270000
   2.3420000  -0.6530000  -0.5610000   1.3710000  -0.9950000  -2.0060000
   2.1400000   3.6390000  -1.4480000   1.1750000   3.3000000  -2.8840000
   0.2390000   1.2240000  -1.7640000   1.2060000   1.5640000  -0.3270000
   3.3000000   1.4250000  -1.7060000   2.3360000   1.0850000  -3.1390000
