; mobley_1674094_GMX_OPLS.itp created by acpype (v: 2023.10.27) on Wed May 20 23:44:14 2026

; For OPLS atomtypes manual fine tuning
; AC_at:OPLS_at:OPLScode: Possible_Alternatives (see ffoplsaa.atp and ffoplsaanb.itp)
; c1:x:opls_x: []
; c3:CT:opls_135: ['136', '137', '149', '157', '158', '206', '209', '210', '223B', '224B', '245', '246', '274', '283', '284', '285', '292', '292B', '293B', '296', '307', '308', '505']
; ha:HA:opls_146: []
; hc:HC:opls_140: []

[ moleculetype ]
;name            nrexcl
 mobley_1674094   3

[ atoms ]
;   nr  type  resi  res  atom  cgnr     charge      mass       ; qtot   bond_type
     1 opls_x     1   MOL    C2    1    -0.138100      0.00000 ; qtot -0.138  x   
     2 opls_135     1   MOL    C3    2    -0.093100     12.01100 ; qtot -0.231  CT  
     3 opls_135     1   MOL    C4    3    -0.004300     12.01100 ; qtot -0.236  CT  
     4 opls_135     1   MOL    C5    4    -0.081400     12.01100 ; qtot -0.317  CT  
     5 opls_135     1   MOL    C6    5    -0.076400     12.01100 ; qtot -0.393  CT  
     6 opls_146     1   MOL    H1    6     0.164500      1.00800 ; qtot -0.229  HA  
     7 opls_x     1   MOL    C1    7    -0.162500      0.00000 ; qtot -0.391  x   
     8 opls_140     1   MOL    H2    8     0.033700      1.00800 ; qtot -0.358  HC  
     9 opls_140     1   MOL    H3    9     0.033700      1.00800 ; qtot -0.324  HC  
    10 opls_140     1   MOL    H4   10     0.033700      1.00800 ; qtot -0.290  HC  
    11 opls_140     1   MOL    H5   11     0.058700      1.00800 ; qtot -0.231  HC  
    12 opls_140     1   MOL    H6   12     0.058700      1.00800 ; qtot -0.173  HC  
    13 opls_140     1   MOL    H7   13     0.038700      1.00800 ; qtot -0.134  HC  
    14 opls_140     1   MOL    H8   14     0.038700      1.00800 ; qtot -0.095  HC  
    15 opls_140     1   MOL    H9   15     0.047700      1.00800 ; qtot -0.048  HC  
    16 opls_140     1   MOL   H10   16     0.047700      1.00800 ; qtot  0.000  HC  

[ bonds ]
;   ai     aj funct   r             k
     1      3   1 ;    1.4656e-01    2.3814e+05 ;     C2 - C4          x - CT    
     1      7   1 ;    1.2095e-01    5.8503e+05 ;     C2 - C1          x - x     
     2      4   1 ;    1.5354e-01    1.9154e+05 ;     C3 - C5         CT - CT    
     2      8   1 ;    1.0962e-01    2.8891e+05 ;     C3 - H2         CT - HC    
     2      9   1 ;    1.0962e-01    2.8891e+05 ;     C3 - H3         CT - HC    
     2     10   1 ;    1.0962e-01    2.8891e+05 ;     C3 - H4         CT - HC    
     3      5   1 ;    1.5354e-01    1.9154e+05 ;     C4 - C6         CT - CT    
     3     11   1 ;    1.0962e-01    2.8891e+05 ;     C4 - H5         CT - HC    
     3     12   1 ;    1.0962e-01    2.8891e+05 ;     C4 - H6         CT - HC    
     4      5   1 ;    1.5354e-01    1.9154e+05 ;     C5 - C6         CT - CT    
     4     13   1 ;    1.0962e-01    2.8891e+05 ;     C5 - H7         CT - HC    
     4     14   1 ;    1.0962e-01    2.8891e+05 ;     C5 - H8         CT - HC    
     5     15   1 ;    1.0962e-01    2.8891e+05 ;     C6 - H9         CT - HC    
     5     16   1 ;    1.0962e-01    2.8891e+05 ;     C6 - H10        CT - HC    
     6      7   1 ;    1.0666e-01    3.2839e+05 ;     H1 - C1         HA - x     

[ pairs ]
;   ai     aj    funct
     1      4      1 ;     C2 - C5    
     1     15      1 ;     C2 - H9    
     1     16      1 ;     C2 - H10   
     2      3      1 ;     C3 - C4    
     2     15      1 ;     C3 - H9    
     2     16      1 ;     C3 - H10   
     3      6      1 ;     C4 - H1    
     3     13      1 ;     C4 - H7    
     3     14      1 ;     C4 - H8    
     4     11      1 ;     C5 - H5    
     4     12      1 ;     C5 - H6    
     5      8      1 ;     C6 - H2    
     5      9      1 ;     C6 - H3    
     5     10      1 ;     C6 - H4    
     7      5      1 ;     C1 - C6    
     7     11      1 ;     C1 - H5    
     7     12      1 ;     C1 - H6    
     8     13      1 ;     H2 - H7    
     8     14      1 ;     H2 - H8    
     9     13      1 ;     H3 - H7    
     9     14      1 ;     H3 - H8    
    10     13      1 ;     H4 - H7    
    10     14      1 ;     H4 - H8    
    11     15      1 ;     H5 - H9    
    11     16      1 ;     H5 - H10   
    12     15      1 ;     H6 - H9    
    12     16      1 ;     H6 - H10   
    13     15      1 ;     H7 - H9    
    13     16      1 ;     H7 - H10   
    14     15      1 ;     H8 - H9    
    14     16      1 ;     H8 - H10   

[ angles ]
;   ai     aj     ak    funct   theta         cth
     1      3      5      1 ;    1.1202e+02    5.1354e+02 ;     C2 - C4   - C6        x -   CT - CT  
     1      3     11      1 ;    1.0945e+02    3.7765e+02 ;     C2 - C4   - H5        x -   CT - HC  
     1      3     12      1 ;    1.0945e+02    3.7765e+02 ;     C2 - C4   - H6        x -   CT - HC  
     1      7      6      1 ;    1.7928e+02    3.4351e+02 ;     C2 - C1   - H1        x -    x - HA  
     2      4      5      1 ;    1.1263e+02    5.0099e+02 ;     C3 - C5   - C6       CT -   CT - CT  
     2      4     13      1 ;    1.0968e+02    3.6208e+02 ;     C3 - C5   - H7       CT -   CT - HC  
     2      4     14      1 ;    1.0968e+02    3.6208e+02 ;     C3 - C5   - H8       CT -   CT - HC  
     3      1      7      1 ;    1.7867e+02    4.4836e+02 ;     C4 - C2   - C1       CT -    x - x   
     3      5      4      1 ;    1.1263e+02    5.0099e+02 ;     C4 - C6   - C5       CT -   CT - CT  
     3      5     15      1 ;    1.0968e+02    3.6208e+02 ;     C4 - C6   - H9       CT -   CT - HC  
     3      5     16      1 ;    1.0968e+02    3.6208e+02 ;     C4 - C6   - H10      CT -   CT - HC  
     4      2      8      1 ;    1.0968e+02    3.6208e+02 ;     C5 - C3   - H2       CT -   CT - HC  
     4      2      9      1 ;    1.0968e+02    3.6208e+02 ;     C5 - C3   - H3       CT -   CT - HC  
     4      2     10      1 ;    1.0968e+02    3.6208e+02 ;     C5 - C3   - H4       CT -   CT - HC  
     4      5     15      1 ;    1.0968e+02    3.6208e+02 ;     C5 - C6   - H9       CT -   CT - HC  
     4      5     16      1 ;    1.0968e+02    3.6208e+02 ;     C5 - C6   - H10      CT -   CT - HC  
     5      3     11      1 ;    1.0968e+02    3.6208e+02 ;     C6 - C4   - H5       CT -   CT - HC  
     5      3     12      1 ;    1.0968e+02    3.6208e+02 ;     C6 - C4   - H6       CT -   CT - HC  
     5      4     13      1 ;    1.0968e+02    3.6208e+02 ;     C6 - C5   - H7       CT -   CT - HC  
     5      4     14      1 ;    1.0968e+02    3.6208e+02 ;     C6 - C5   - H8       CT -   CT - HC  
     8      2      9      1 ;    1.0773e+02    2.9957e+02 ;     H2 - C3   - H3       HC -   CT - HC  
     8      2     10      1 ;    1.0773e+02    2.9957e+02 ;     H2 - C3   - H4       HC -   CT - HC  
     9      2     10      1 ;    1.0773e+02    2.9957e+02 ;     H3 - C3   - H4       HC -   CT - HC  
    11      3     12      1 ;    1.0773e+02    2.9957e+02 ;     H5 - C4   - H6       HC -   CT - HC  
    13      4     14      1 ;    1.0773e+02    2.9957e+02 ;     H7 - C5   - H8       HC -   CT - HC  
    15      5     16      1 ;    1.0773e+02    2.9957e+02 ;     H9 - C6   - H10      HC -   CT - HC  

[ dihedrals ] ; propers
; for gromacs 4.5 or higher, using funct 9
;    i      j      k      l   func   phase     kd      pn
     1      3      5      4      9 ;     0.00   0.65084   3 ;     C2-    C4-    C6-    C5
     1      3      5     15      9 ;     0.00   0.65084   3 ;     C2-    C4-    C6-    H9
     1      3      5     16      9 ;     0.00   0.65084   3 ;     C2-    C4-    C6-   H10
     2      4      5      3      9 ;     0.00   2.17568   3 ;     C3-    C5-    C6-    C4
     2      4      5     15      9 ;     0.00   0.54392   3 ;     C3-    C5-    C6-    H9
     2      4      5     16      9 ;     0.00   0.54392   3 ;     C3-    C5-    C6-   H10
     3      1      7      6      9 ;   180.00   0.00000   2 ;     C4-    C2-    C1-    H1
     3      5      4     13      9 ;     0.00   0.54392   3 ;     C4-    C6-    C5-    H7
     3      5      4     14      9 ;     0.00   0.54392   3 ;     C4-    C6-    C5-    H8
     4      5      3     11      9 ;     0.00   0.54392   3 ;     C5-    C6-    C4-    H5
     4      5      3     12      9 ;     0.00   0.54392   3 ;     C5-    C6-    C4-    H6
     5      4      2      8      9 ;     0.00   0.54392   3 ;     C6-    C5-    C3-    H2
     5      4      2      9      9 ;     0.00   0.54392   3 ;     C6-    C5-    C3-    H3
     5      4      2     10      9 ;     0.00   0.54392   3 ;     C6-    C5-    C3-    H4
     7      1      3      5      9 ;   180.00   0.00000   2 ;     C1-    C2-    C4-    C6
     7      1      3     11      9 ;   180.00   0.00000   2 ;     C1-    C2-    C4-    H5
     7      1      3     12      9 ;   180.00   0.00000   2 ;     C1-    C2-    C4-    H6
     8      2      4     13      9 ;     0.00   0.50208   3 ;     H2-    C3-    C5-    H7
     8      2      4     14      9 ;     0.00   0.50208   3 ;     H2-    C3-    C5-    H8
     9      2      4     13      9 ;     0.00   0.50208   3 ;     H3-    C3-    C5-    H7
     9      2      4     14      9 ;     0.00   0.50208   3 ;     H3-    C3-    C5-    H8
    10      2      4     13      9 ;     0.00   0.50208   3 ;     H4-    C3-    C5-    H7
    10      2      4     14      9 ;     0.00   0.50208   3 ;     H4-    C3-    C5-    H8
    11      3      5     15      9 ;     0.00   0.50208   3 ;     H5-    C4-    C6-    H9
    11      3      5     16      9 ;     0.00   0.50208   3 ;     H5-    C4-    C6-   H10
    12      3      5     15      9 ;     0.00   0.50208   3 ;     H6-    C4-    C6-    H9
    12      3      5     16      9 ;     0.00   0.50208   3 ;     H6-    C4-    C6-   H10
    13      4      5     15      9 ;     0.00   0.50208   3 ;     H7-    C5-    C6-    H9
    13      4      5     16      9 ;     0.00   0.50208   3 ;     H7-    C5-    C6-   H10
    14      4      5     15      9 ;     0.00   0.50208   3 ;     H8-    C5-    C6-    H9
    14      4      5     16      9 ;     0.00   0.50208   3 ;     H8-    C5-    C6-   H10
