%VERSION  VERSION_STAMP = V0001.000  DATE = 05/20/26  23:44:15                  
%FLAG TITLE                                                                     
%FORMAT(20a4)                                                                   
hex_1_yne                                                                       
%FLAG POINTERS                                                                  
%FORMAT(10I8)                                                                   
      16       4      10       5      22       4      28       3       0       0
      73       1       5       4       3       5       7       5       4       0
       0       0       0       0       0       0       0       0      16       0
       0
%FLAG ATOM_NAME                                                                 
%FORMAT(20a4)                                                                   
C2  C3  C4  C5  C6  H1  C1  H2  H3  H4  H5  H6  H7  H8  H9  H10 
%FLAG CHARGE                                                                    
%FORMAT(5E16.8)                                                                 
 -2.51649963E+00 -1.69649613E+00 -7.83558900E-02 -1.48329522E+00 -1.39218372E+00
  2.97934605E+00 -2.96112375E+00  6.14091510E-01  6.14091510E-01  6.14091510E-01
  1.06964901E+00  1.06964901E+00  7.05203010E-01  7.05203010E-01  8.69203710E-01
  8.69203710E-01
%FLAG ATOMIC_NUMBER                                                             
%FORMAT(10I8)                                                                   
       6       6       6       6       6       1       6       1       1       1
       1       1       1       1       1       1
%FLAG MASS                                                                      
%FORMAT(5E16.8)                                                                 
  1.20100000E+01  1.20100000E+01  1.20100000E+01  1.20100000E+01  1.20100000E+01
  1.00800000E+00  1.20100000E+01  1.00800000E+00  1.00800000E+00  1.00800000E+00
  1.00800000E+00  1.00800000E+00  1.00800000E+00  1.00800000E+00  1.00800000E+00
  1.00800000E+00
%FLAG ATOM_TYPE_INDEX                                                           
%FORMAT(10I8)                                                                   
       1       2       2       2       2       3       1       4       4       4
       4       4       4       4       4       4
%FLAG NUMBER_EXCLUDED_ATOMS                                                     
%FORMAT(10I8)                                                                   
       9      10      10      10      10       1       2       4       3       2
       3       2       3       2       1       1
%FLAG NONBONDED_PARM_INDEX                                                      
%FORMAT(10I8)                                                                   
       1       2       4       7       2       3       5       8       4       5
       6       9       7       8       9      10
%FLAG RESIDUE_LABEL                                                             
%FORMAT(20a4)                                                                   
MOL 
%FLAG RESIDUE_POINTER                                                           
%FORMAT(10I8)                                                                   
       1
%FLAG BOND_FORCE_CONSTANT                                                       
%FORMAT(5E16.8)                                                                 
  6.99130000E+02  2.84580000E+02  2.28890000E+02  3.45250000E+02  3.92430000E+02
%FLAG BOND_EQUIL_VALUE                                                          
%FORMAT(5E16.8)                                                                 
  1.20950000E+00  1.46560000E+00  1.53540000E+00  1.09620000E+00  1.06660000E+00
%FLAG ANGLE_FORCE_CONSTANT                                                      
%FORMAT(5E16.8)                                                                 
  4.10500000E+01  6.13700000E+01  4.51300000E+01  5.98700000E+01  4.32700000E+01
  5.35800000E+01  3.58000000E+01
%FLAG ANGLE_EQUIL_VALUE                                                         
%FORMAT(5E16.8)                                                                 
  3.12902762E+00  1.95511867E+00  1.91026369E+00  1.96576518E+00  1.91427794E+00
  3.11838111E+00  1.88024401E+00
%FLAG DIHEDRAL_FORCE_CONSTANT                                                   
%FORMAT(5E16.8)                                                                 
  1.55555556E-01  5.20000000E-01  1.30000000E-01  0.00000000E+00  1.20000000E-01
%FLAG DIHEDRAL_PERIODICITY                                                      
%FORMAT(5E16.8)                                                                 
  3.00000000E+00  3.00000000E+00  3.00000000E+00  2.00000000E+00  3.00000000E+00
%FLAG DIHEDRAL_PHASE                                                            
%FORMAT(5E16.8)                                                                 
  0.00000000E+00  0.00000000E+00  0.00000000E+00  3.14159400E+00  0.00000000E+00
%FLAG SCEE_SCALE_FACTOR                                                         
%FORMAT(5E16.8)                                                                 
  1.20000000E+00  1.20000000E+00  1.20000000E+00  1.20000000E+00  1.20000000E+00
%FLAG SCNB_SCALE_FACTOR                                                         
%FORMAT(5E16.8)                                                                 
  2.00000000E+00  2.00000000E+00  2.00000000E+00  2.00000000E+00  2.00000000E+00
%FLAG SOLTY                                                                     
%FORMAT(5E16.8)                                                                 
  0.00000000E+00  0.00000000E+00  0.00000000E+00  0.00000000E+00
%FLAG LENNARD_JONES_ACOEF                                                       
%FORMAT(5E16.8)                                                                 
  2.00671338E+06  1.43239677E+06  1.02073671E+06  1.32549375E+05  9.27554496E+04
  6.90855956E+03  1.43334551E+05  1.00235148E+05  7.41026906E+03  7.94617769E+03
%FLAG LENNARD_JONES_BCOEF                                                       
%FORMAT(5E16.8)                                                                 
  1.13185062E+03  8.66911122E+02  6.63431737E+02  1.63939471E+02  1.24325688E+02
  2.10929191E+01  1.81752124E+02  1.37787728E+02  2.32899892E+01  2.57122925E+01
%FLAG BONDS_INC_HYDROGEN                                                        
%FORMAT(10I8)                                                                   
       3      21       4       3      24       4       3      27       4       6
      30       4       6      33       4       9      36       4       9      39
       4      12      42       4      12      45       4      15      18       5
%FLAG BONDS_WITHOUT_HYDROGEN                                                    
%FORMAT(10I8)                                                                   
       0      18       1       0       6       2       3       9       3       6
      12       3       9      12       3
%FLAG ANGLES_INC_HYDROGEN                                                       
%FORMAT(10I8)                                                                   
       0      18      15       1       0       6      30       3       0       6
      33       3       3       9      36       5       3       9      39       5
       6      12      42       5       6      12      45       5       9       3
      21       5       9       3      24       5       9       3      27       5
       9      12      42       5       9      12      45       5      12       6
      30       5      12       6      33       5      12       9      36       5
      12       9      39       5      21       3      24       7      21       3
      27       7      24       3      27       7      30       6      33       7
      36       9      39       7      42      12      45       7
%FLAG ANGLES_WITHOUT_HYDROGEN                                                   
%FORMAT(10I8)                                                                   
       0       6      12       2       3       9      12       4       6       0
      18       6       6      12       9       4
%FLAG DIHEDRALS_INC_HYDROGEN                                                    
%FORMAT(10I8)                                                                   
       0       6      12      42       1       0       6      12      45       1
       3       9      12      42       3       3       9      12      45       3
       6       0      18      15       4       6      12       9      36       3
       6      12       9      39       3       9      12       6      30       3
       9      12       6      33       3      12       9       3      21       3
      12       9       3      24       3      12       9       3      27       3
      18       0       6      30       4      18       0       6      33       4
      21       3       9      36       5      21       3       9      39       5
      24       3       9      36       5      24       3       9      39       5
      27       3       9      36       5      27       3       9      39       5
      30       6      12      42       5      30       6      12      45       5
      33       6      12      42       5      33       6      12      45       5
      36       9      12      42       5      36       9      12      45       5
      39       9      12      42       5      39       9      12      45       5
%FLAG DIHEDRALS_WITHOUT_HYDROGEN                                                
%FORMAT(10I8)                                                                   
       0       6      12       9       1       3       9      12       6       2
      18       0       6      12       4
%FLAG EXCLUDED_ATOMS_LIST                                                       
%FORMAT(10I8)                                                                   
       3       4       5       6       7      11      12      15      16       3
       4       5       8       9      10      13      14      15      16       4
       5       6       7      11      12      13      14      15      16       5
       8       9      10      11      12      13      14      15      16       7
       8       9      10      11      12      13      14      15      16       7
      11      12       9      10      13      14      10      13      14      13
      14      12      15      16      15      16      14      15      16      15
      16      16       0
%FLAG HBOND_ACOEF                                                               
%FORMAT(5E16.8)                                                                 

%FLAG HBOND_BCOEF                                                               
%FORMAT(5E16.8)                                                                 

%FLAG HBCUT                                                                     
%FORMAT(5E16.8)                                                                 

%FLAG AMBER_ATOM_TYPE                                                           
%FORMAT(20a4)                                                                   
c1  c3  c3  c3  c3  ha  c1  hc  hc  hc  hc  hc  hc  hc  hc  hc  
%FLAG TREE_CHAIN_CLASSIFICATION                                                 
%FORMAT(20a4)                                                                   
BLA BLA BLA BLA BLA BLA BLA BLA BLA BLA BLA BLA BLA BLA BLA BLA 
%FLAG JOIN_ARRAY                                                                
%FORMAT(10I8)                                                                   
       0       0       0       0       0       0       0       0       0       0
       0       0       0       0       0       0
%FLAG IROTAT                                                                    
%FORMAT(10I8)                                                                   
       0       0       0       0       0       0       0       0       0       0
       0       0       0       0       0       0
%FLAG RADIUS_SET                                                                
%FORMAT(1a80)                                                                   
modified Bondi radii (mbondi)                                                   
%FLAG RADII                                                                     
%FORMAT(5E16.8)                                                                 
  1.70000000E+00  1.70000000E+00  1.70000000E+00  1.70000000E+00  1.70000000E+00
  1.30000000E+00  1.70000000E+00  1.30000000E+00  1.30000000E+00  1.30000000E+00
  1.30000000E+00  1.30000000E+00  1.30000000E+00  1.30000000E+00  1.30000000E+00
  1.30000000E+00
%FLAG SCREEN                                                                    
%FORMAT(5E16.8)                                                                 
  7.20000000E-01  7.20000000E-01  7.20000000E-01  7.20000000E-01  7.20000000E-01
  8.50000000E-01  7.20000000E-01  8.50000000E-01  8.50000000E-01  8.50000000E-01
  8.50000000E-01  8.50000000E-01  8.50000000E-01  8.50000000E-01  8.50000000E-01
  8.50000000E-01
%FLAG IPOL                                                                      
%FORMAT(1I8)                                                                    
       0
