mobley_1674094_GMX.gro created by acpype (v: 2023.10.27) on Wed May 20 23:44:14 2026
 16
    1  MOL   C2    1   0.322   0.365  -0.326
    1  MOL   C3    2   0.139  -0.045  -0.106
    1  MOL   C4    3   0.215   0.311  -0.241
    1  MOL   C5    4   0.121   0.105  -0.129
    1  MOL   C6    5   0.233   0.161  -0.218
    1  MOL   H1    6   0.487   0.449  -0.457
    1  MOL   C1    7   0.409   0.409  -0.395
    1  MOL   H2    8   0.058  -0.083  -0.043
    1  MOL   H3    9   0.234  -0.065  -0.056
    1  MOL   H4   10   0.137  -0.100  -0.201
    1  MOL   H5   11   0.214   0.364  -0.145
    1  MOL   H6   12   0.118   0.330  -0.288
    1  MOL   H7   13   0.024   0.122  -0.176
    1  MOL   H8   14   0.121   0.156  -0.033
    1  MOL   H9   15   0.330   0.143  -0.171
    1  MOL  H10   16   0.234   0.108  -0.314
    9.25800    10.96000     8.47800
