mobley_8739734_GMX.gro created by acpype (v: 2023.10.27) on Wed May 20 23:43:14 2026
   16
    1MOL     C1    1   2.235   2.188   2.230
    1MOL     C2    2   2.259   2.061   2.307
    1MOL     C3    3   2.415   2.356   2.275
    1MOL     C4    4   2.176   2.431   2.257
    1MOL     C5    5   2.269   2.319   2.301
    1MOL     O1    6   2.193   2.186   2.114
    1MOL     H1    7   2.366   2.046   2.322
    1MOL     H2    8   2.220   1.976   2.250
    1MOL     H3    9   2.207   2.065   2.403
    1MOL     H4   10   2.434   2.368   2.168
    1MOL     H5   11   2.441   2.450   2.325
    1MOL     H6   12   2.483   2.279   2.312
    1MOL     H7   13   2.071   2.404   2.273
    1MOL     H8   14   2.188   2.454   2.151
    1MOL     H9   15   2.196   2.523   2.314
    1MOL    H10   16   2.254   2.303   2.409
   4.55125   4.55125   4.55125
