mobley_6338073_GMX.gro created by acpype (v: 2023.10.27) on Wed May 20 23:59:04 2026
   35
    1MOL     C1    1   2.606   2.376   2.605
    1MOL     C2    2   2.473   2.558   2.597
    1MOL     C3    3   2.447   2.405   2.759
    1MOL     C4    4   2.835   2.203   2.372
    1MOL     C5    5   2.368   2.841   2.377
    1MOL     C6    6   2.591   2.733   2.362
    1MOL     C7    7   2.381   2.600   2.312
    1MOL     C8    8   2.312   2.502   2.977
    1MOL     C9    9   2.725   2.299   2.412
    1MOL    C10   10   2.444   2.709   2.400
    1MOL     N1   11   2.572   2.489   2.544
    1MOL     N2   12   2.545   2.329   2.713
    1MOL     N3   13   2.406   2.520   2.705
    1MOL     N4   14   2.710   2.297   2.556
    1MOL     N5   15   2.431   2.677   2.543
    1MOL     S1   16   2.362   2.345   2.903
    1MOL     H1   17   2.931   2.230   2.419
    1MOL     H2   18   2.811   2.100   2.403
    1MOL     H3   19   2.849   2.203   2.263
    1MOL     H4   20   2.261   2.830   2.403
    1MOL     H5   21   2.408   2.921   2.439
    1MOL     H6   22   2.373   2.873   2.272
    1MOL     H7   23   2.650   2.641   2.363
    1MOL     H8   24   2.639   2.804   2.430
    1MOL     H9   25   2.599   2.774   2.260
    1MOL    H10   26   2.435   2.505   2.318
    1MOL    H11   27   2.277   2.581   2.341
    1MOL    H12   28   2.380   2.631   2.207
    1MOL    H13   29   2.265   2.483   3.074
    1MOL    H14   30   2.239   2.554   2.914
    1MOL    H15   31   2.399   2.567   2.993
    1MOL    H16   32   2.632   2.269   2.363
    1MOL    H17   33   2.752   2.399   2.377
    1MOL    H18   34   2.698   2.206   2.598
    1MOL    H19   35   2.340   2.697   2.583
   5.03787   5.03787   5.03787
