; mobley_3006808_GMX_OPLS.top created by acpype (v: 2023.10.27) on Wed May 20 23:56:25 2026

; Include forcefield parameters
#include "ffoplsaa.itp"

; Include mobley_3006808_GMX.itp topology
#include "mobley_3006808_GMX.itp"

; Ligand position restraints
#ifdef POSRES_LIG
#include "posre_mobley_3006808.itp"
#endif

[ system ]
 mobley_3006808

[ molecules ]
; Compound        nmols
 mobley_3006808   1     
