222_trifluoroethanol
     9
   0.7720000  -0.3320000   0.7000000   1.3430000   0.8420000   1.4540000
   1.8120000  -0.9630000  -0.0310000   2.3090000   0.4360000   2.3050000
   0.3910000   1.4670000   2.1790000   1.8890000   1.7450000   0.6120000
   0.3380000  -1.0580000   1.3930000   0.0000000   0.0000000   0.0000000
   1.9280000  -1.8480000   0.3510000
