; mobley_3006808_GMX_OPLS.itp created by acpype (v: 2023.10.27) on Wed May 20 23:56:25 2026

; For OPLS atomtypes manual fine tuning
; AC_at:OPLS_at:OPLScode: Possible_Alternatives (see ffoplsaa.atp and ffoplsaanb.itp)
; c3:CT:opls_135: ['136', '137', '149', '157', '158', '206', '209', '210', '223B', '224B', '245', '246', '274', '283', '284', '285', '292', '292B', '293B', '296', '307', '308', '505']
; oh:OH:opls_154: ['167']
; f:x:opls_x: []
; h1:HC:opls_140: []
; ho:HO:opls_155: ['168']

[ moleculetype ]
;name            nrexcl
 mobley_3006808   3

[ atoms ]
;   nr  type  resi  res  atom  cgnr     charge      mass       ; qtot   bond_type
     1 opls_135     1   MOL    C1    1     0.103400     12.01100 ; qtot  0.103  CT  
     2 opls_135     1   MOL    C2    2     0.579901     12.01100 ; qtot  0.683  CT  
     3 opls_154     1   MOL    O1    3    -0.565800     15.99940 ; qtot  0.118  OH  
     4 opls_x     1   MOL    F1    4    -0.236967      0.00000 ; qtot -0.119  x   
     5 opls_x     1   MOL    F2    5    -0.236967      0.00000 ; qtot -0.356  x   
     6 opls_x     1   MOL    F3    6    -0.236967      0.00000 ; qtot -0.593  x   
     7 opls_140     1   MOL    H1    7     0.087200      1.00800 ; qtot -0.506  HC  
     8 opls_140     1   MOL    H2    8     0.087200      1.00800 ; qtot -0.419  HC  
     9 opls_155     1   MOL    H3    9     0.419000      1.00800 ; qtot  0.000  HO  

[ bonds ]
;   ai     aj funct   r             k
     1      2   1 ;    1.5354e-01    1.9154e+05 ;     C1 - C2         CT - CT    
     1      3   1 ;    1.4242e-01    2.3861e+05 ;     C1 - O1         CT - OH    
     1      7   1 ;    1.0969e-01    2.8804e+05 ;     C1 - H1         CT - HC    
     1      8   1 ;    1.0969e-01    2.8804e+05 ;     C1 - H2         CT - HC    
     2      4   1 ;    1.3512e-01    2.7973e+05 ;     C2 - F1         CT - x     
     2      5   1 ;    1.3512e-01    2.7973e+05 ;     C2 - F2         CT - x     
     2      6   1 ;    1.3512e-01    2.7973e+05 ;     C2 - F3         CT - x     
     3      9   1 ;    9.7250e-02    4.4811e+05 ;     O1 - H3         OH - HO    

[ pairs ]
;   ai     aj    funct
     2      9      1 ;     C2 - H3    
     3      4      1 ;     O1 - F1    
     3      5      1 ;     O1 - F2    
     3      6      1 ;     O1 - F3    
     7      4      1 ;     H1 - F1    
     7      5      1 ;     H1 - F2    
     7      6      1 ;     H1 - F3    
     7      9      1 ;     H1 - H3    
     8      4      1 ;     H2 - F1    
     8      5      1 ;     H2 - F2    
     8      6      1 ;     H2 - F3    
     8      9      1 ;     H2 - H3    

[ angles ]
;   ai     aj     ak    funct   theta         cth
     1      2      4      1 ;    1.0948e+02    6.6408e+02 ;     C1 - C2   - F1       CT -   CT - x   
     1      2      5      1 ;    1.0948e+02    6.6408e+02 ;     C1 - C2   - F2       CT -   CT - x   
     1      2      6      1 ;    1.0948e+02    6.6408e+02 ;     C1 - C2   - F3       CT -   CT - x   
     1      3      9      1 ;    1.0739e+02    5.4501e+02 ;     C1 - O1   - H3       CT -   OH - HO  
     2      1      3      1 ;    1.0966e+02    6.4258e+02 ;     C2 - C1   - O1       CT -   CT - OH  
     2      1      7      1 ;    1.0959e+02    3.6217e+02 ;     C2 - C1   - H1       CT -   CT - HC  
     2      1      8      1 ;    1.0959e+02    3.6217e+02 ;     C2 - C1   - H2       CT -   CT - HC  
     3      1      7      1 ;    1.1038e+02    4.7103e+02 ;     O1 - C1   - H1       OH -   CT - HC  
     3      1      8      1 ;    1.1038e+02    4.7103e+02 ;     O1 - C1   - H2       OH -   CT - HC  
     4      2      5      1 ;    1.0737e+02    8.9437e+02 ;     F1 - C2   - F2        x -   CT - x   
     4      2      6      1 ;    1.0737e+02    8.9437e+02 ;     F1 - C2   - F3        x -   CT - x   
     5      2      6      1 ;    1.0737e+02    8.9437e+02 ;     F2 - C2   - F3        x -   CT - x   
     7      1      8      1 ;    1.0855e+02    2.9824e+02 ;     H1 - C1   - H2       HC -   CT - HC  

[ dihedrals ] ; propers
; for gromacs 4.5 or higher, using funct 9
;    i      j      k      l   func   phase     kd      pn
     2      1      3      9      9 ;     0.00   0.25104   3 ;     C2-    C1-    O1-    H3
     3      1      2      4      9 ;     0.00   0.65084   3 ;     O1-    C1-    C2-    F1
     3      1      2      5      9 ;     0.00   0.65084   3 ;     O1-    C1-    C2-    F2
     3      1      2      6      9 ;     0.00   0.65084   3 ;     O1-    C1-    C2-    F3
     7      1      2      4      9 ;     0.00   0.00000   0 ;     H1-    C1-    C2-    F1
     7      1      2      4      9 ;     0.00   0.79496   1 ;     H1-    C1-    C2-    F1
     7      1      2      5      9 ;     0.00   0.00000   0 ;     H1-    C1-    C2-    F2
     7      1      2      5      9 ;     0.00   0.79496   1 ;     H1-    C1-    C2-    F2
     7      1      2      6      9 ;     0.00   0.00000   0 ;     H1-    C1-    C2-    F3
     7      1      2      6      9 ;     0.00   0.79496   1 ;     H1-    C1-    C2-    F3
     7      1      3      9      9 ;     0.00   0.51463   3 ;     H1-    C1-    O1-    H3
     8      1      2      4      9 ;     0.00   0.00000   0 ;     H2-    C1-    C2-    F1
     8      1      2      4      9 ;     0.00   0.79496   1 ;     H2-    C1-    C2-    F1
     8      1      2      5      9 ;     0.00   0.00000   0 ;     H2-    C1-    C2-    F2
     8      1      2      5      9 ;     0.00   0.79496   1 ;     H2-    C1-    C2-    F2
     8      1      2      6      9 ;     0.00   0.00000   0 ;     H2-    C1-    C2-    F3
     8      1      2      6      9 ;     0.00   0.79496   1 ;     H2-    C1-    C2-    F3
     8      1      3      9      9 ;     0.00   0.51463   3 ;     H2-    C1-    O1-    H3
