; mobley_2789243_GMX.top created by acpype (v: 2023.10.27) on Wed May 20 23:59:03 2026

[ defaults ]
; nbfunc        comb-rule       gen-pairs       fudgeLJ fudgeQQ
1               2               yes             0.5     0.8333333333

; Include mobley_2789243_GMX.itp topology
#include "mobley_2789243_GMX.itp"

; Ligand position restraints
#ifdef POSRES_LIG
#include "posre_mobley_2789243.itp"
#endif


#include "/home/carla/github/Solvation-openMM/DADES/common/SOL.TIP3P.itp"

[ system ]
mobley_2789243 in water

[ molecules ]
; Compound        nmols
 mobley_2789243   1     
SOL 801
