mobley_2789243_GMX.gro created by acpype (v: 2023.10.27) on Wed May 20 23:59:03 2026
   11
    1MOL     C1    1   2.235   2.319   2.158
    1MOL     C2    2   2.348   2.355   2.231
    1MOL     C3    3   2.149   2.224   2.213
    1MOL     C4    4   2.280   2.203   2.401
    1MOL     C5    5   2.371   2.297   2.354
    1MOL     N1    6   2.169   2.166   2.333
    1MOL    CL1    7   2.509   2.339   2.447
    1MOL     H1    8   2.214   2.363   2.061
    1MOL     H2    9   2.416   2.429   2.189
    1MOL     H3   10   2.060   2.193   2.160
    1MOL     H4   11   2.293   2.154   2.497
   4.55253   4.55253   4.55253
