; mobley_1893815_GMX_OPLS.itp created by acpype (v: 2023.10.27) on Wed May 20 23:45:13 2026

; For OPLS atomtypes manual fine tuning
; AC_at:OPLS_at:OPLScode: Possible_Alternatives (see ffoplsaa.atp and ffoplsaanb.itp)
; c3:CT:opls_135: ['136', '137', '149', '157', '158', '206', '209', '210', '223B', '224B', '245', '246', '274', '283', '284', '285', '292', '292B', '293B', '296', '307', '308', '505']
; cl:x:opls_x: []
; h1:HC:opls_140: []

[ moleculetype ]
;name            nrexcl
 mobley_1893815   3

[ atoms ]
;   nr  type  resi  res  atom  cgnr     charge      mass       ; qtot   bond_type
     1 opls_135     1   MOL    C1    1     0.008000     12.01100 ; qtot  0.008  CT  
     2 opls_135     1   MOL    C2    2     0.241201     12.01100 ; qtot  0.249  CT  
     3 opls_x     1   MOL   CL1    3    -0.134400      0.00000 ; qtot  0.115  x   
     4 opls_x     1   MOL   CL2    4    -0.104067      0.00000 ; qtot  0.011  x   
     5 opls_x     1   MOL   CL3    5    -0.104067      0.00000 ; qtot -0.093  x   
     6 opls_x     1   MOL   CL4    6    -0.104067      0.00000 ; qtot -0.197  x   
     7 opls_140     1   MOL    H1    7     0.098700      1.00800 ; qtot -0.099  HC  
     8 opls_140     1   MOL    H2    8     0.098700      1.00800 ; qtot  0.000  HC  

[ bonds ]
;   ai     aj funct   r             k
     1      2   1 ;    1.5354e-01    1.9154e+05 ;     C1 - C2         CT - CT    
     1      3   1 ;    1.8092e-01    1.3724e+05 ;     C1 - CL1        CT - x     
     1      7   1 ;    1.0969e-01    2.8804e+05 ;     C1 - H1         CT - HC    
     1      8   1 ;    1.0969e-01    2.8804e+05 ;     C1 - H2         CT - HC    
     2      4   1 ;    1.8092e-01    1.3724e+05 ;     C2 - CL2        CT - x     
     2      5   1 ;    1.8092e-01    1.3724e+05 ;     C2 - CL3        CT - x     
     2      6   1 ;    1.8092e-01    1.3724e+05 ;     C2 - CL4        CT - x     

[ pairs ]
;   ai     aj    funct
     3      4      1 ;    CL1 - CL2   
     3      5      1 ;    CL1 - CL3   
     3      6      1 ;    CL1 - CL4   
     7      4      1 ;     H1 - CL2   
     7      5      1 ;     H1 - CL3   
     7      6      1 ;     H1 - CL4   
     8      4      1 ;     H2 - CL2   
     8      5      1 ;     H2 - CL3   
     8      6      1 ;     H2 - CL4   

[ angles ]
;   ai     aj     ak    funct   theta         cth
     1      2      4      1 ;    1.1039e+02    5.3254e+02 ;     C1 - C2   - CL2      CT -   CT - x   
     1      2      5      1 ;    1.1039e+02    5.3254e+02 ;     C1 - C2   - CL3      CT -   CT - x   
     1      2      6      1 ;    1.1039e+02    5.3254e+02 ;     C1 - C2   - CL4      CT -   CT - x   
     2      1      3      1 ;    1.1039e+02    5.3254e+02 ;     C2 - C1   - CL1      CT -   CT - x   
     2      1      7      1 ;    1.0959e+02    3.6217e+02 ;     C2 - C1   - H1       CT -   CT - HC  
     2      1      8      1 ;    1.0959e+02    3.6217e+02 ;     C2 - C1   - H2       CT -   CT - HC  
     3      1      7      1 ;    1.0682e+02    3.6183e+02 ;    CL1 - C1   - H1        x -   CT - HC  
     3      1      8      1 ;    1.0682e+02    3.6183e+02 ;    CL1 - C1   - H2        x -   CT - HC  
     4      2      5      1 ;    1.0934e+02    5.8225e+02 ;    CL2 - C2   - CL3       x -   CT - x   
     4      2      6      1 ;    1.0934e+02    5.8225e+02 ;    CL2 - C2   - CL4       x -   CT - x   
     5      2      6      1 ;    1.0934e+02    5.8225e+02 ;    CL3 - C2   - CL4       x -   CT - x   
     7      1      8      1 ;    1.0855e+02    2.9824e+02 ;     H1 - C1   - H2       HC -   CT - HC  

[ dihedrals ] ; propers
; for gromacs 4.5 or higher, using funct 9
;    i      j      k      l   func   phase     kd      pn
     3      1      2      4      9 ;     0.00   5.94128   3 ;    CL1-    C1-    C2-   CL2
     3      1      2      5      9 ;     0.00   5.94128   3 ;    CL1-    C1-    C2-   CL3
     3      1      2      6      9 ;     0.00   5.94128   3 ;    CL1-    C1-    C2-   CL4
     7      1      2      4      9 ;     0.00   0.00000   0 ;     H1-    C1-    C2-   CL2
     7      1      2      4      9 ;     0.00   1.04600   1 ;     H1-    C1-    C2-   CL2
     7      1      2      5      9 ;     0.00   0.00000   0 ;     H1-    C1-    C2-   CL3
     7      1      2      5      9 ;     0.00   1.04600   1 ;     H1-    C1-    C2-   CL3
     7      1      2      6      9 ;     0.00   0.00000   0 ;     H1-    C1-    C2-   CL4
     7      1      2      6      9 ;     0.00   1.04600   1 ;     H1-    C1-    C2-   CL4
     8      1      2      4      9 ;     0.00   0.00000   0 ;     H2-    C1-    C2-   CL2
     8      1      2      4      9 ;     0.00   1.04600   1 ;     H2-    C1-    C2-   CL2
     8      1      2      5      9 ;     0.00   0.00000   0 ;     H2-    C1-    C2-   CL3
     8      1      2      5      9 ;     0.00   1.04600   1 ;     H2-    C1-    C2-   CL3
     8      1      2      6      9 ;     0.00   0.00000   0 ;     H2-    C1-    C2-   CL4
     8      1      2      6      9 ;     0.00   1.04600   1 ;     H2-    C1-    C2-   CL4
