; mobley_1893815_GMX_OPLS.top created by acpype (v: 2023.10.27) on Wed May 20 23:45:13 2026

; Include forcefield parameters
#include "ffoplsaa.itp"

; Include mobley_1893815_GMX.itp topology
#include "mobley_1893815_GMX.itp"

; Ligand position restraints
#ifdef POSRES_LIG
#include "posre_mobley_1893815.itp"
#endif

[ system ]
 mobley_1893815

[ molecules ]
; Compound        nmols
 mobley_1893815   1     
