; mobley_1893815_GMX.itp created by acpype (v: 2023.10.27) on Wed May 20 23:45:13 2026

[ atomtypes ]
;name   bond_type     mass     charge   ptype   sigma         epsilon       Amb
 c3       c3          0.00000  0.00000   A     3.39771e-01   4.51035e-01 ; 1.91  0.1078
 cl       cl          0.00000  0.00000   A     3.46595e-01   1.10374e+00 ; 1.95  0.2638
 h1       h1          0.00000  0.00000   A     2.42200e-01   8.70272e-02 ; 1.36  0.0208

[ moleculetype ]
;name            nrexcl
 mobley_1893815   3

[ atoms ]
;   nr  type  resi  res  atom  cgnr     charge      mass       ; qtot   bond_type
     1   c3     1   MOL    C1    1     0.008000     12.01000 ; qtot 0.008
     2   c3     1   MOL    C2    2     0.241201     12.01000 ; qtot 0.249
     3   cl     1   MOL   CL1    3    -0.134400     35.45000 ; qtot 0.115
     4   cl     1   MOL   CL2    4    -0.104067     35.45000 ; qtot 0.011
     5   cl     1   MOL   CL3    5    -0.104067     35.45000 ; qtot -0.093
     6   cl     1   MOL   CL4    6    -0.104067     35.45000 ; qtot -0.197
     7   h1     1   MOL    H1    7     0.098700      1.00800 ; qtot -0.099
     8   h1     1   MOL    H2    8     0.098700      1.00800 ; qtot 0.000

[ bonds ]
;   ai     aj funct   r             k
     1      2   1    1.5354e-01    1.9154e+05 ;     C1 - C2    
     1      3   1    1.8092e-01    1.3724e+05 ;     C1 - CL1   
     1      7   1    1.0969e-01    2.8804e+05 ;     C1 - H1    
     1      8   1    1.0969e-01    2.8804e+05 ;     C1 - H2    
     2      4   1    1.8092e-01    1.3724e+05 ;     C2 - CL2   
     2      5   1    1.8092e-01    1.3724e+05 ;     C2 - CL3   
     2      6   1    1.8092e-01    1.3724e+05 ;     C2 - CL4   

[ pairs ]
;   ai     aj    funct
     3      4      1 ;    CL1 - CL2   
     3      5      1 ;    CL1 - CL3   
     3      6      1 ;    CL1 - CL4   
     7      4      1 ;     H1 - CL2   
     7      5      1 ;     H1 - CL3   
     7      6      1 ;     H1 - CL4   
     8      4      1 ;     H2 - CL2   
     8      5      1 ;     H2 - CL3   
     8      6      1 ;     H2 - CL4   

[ angles ]
;   ai     aj     ak    funct   theta         cth
     1      2      4      1    1.1039e+02    5.3254e+02 ;     C1 - C2     - CL2   
     1      2      5      1    1.1039e+02    5.3254e+02 ;     C1 - C2     - CL3   
     1      2      6      1    1.1039e+02    5.3254e+02 ;     C1 - C2     - CL4   
     2      1      3      1    1.1039e+02    5.3254e+02 ;     C2 - C1     - CL1   
     2      1      7      1    1.0959e+02    3.6217e+02 ;     C2 - C1     - H1    
     2      1      8      1    1.0959e+02    3.6217e+02 ;     C2 - C1     - H2    
     3      1      7      1    1.0682e+02    3.6183e+02 ;    CL1 - C1     - H1    
     3      1      8      1    1.0682e+02    3.6183e+02 ;    CL1 - C1     - H2    
     4      2      5      1    1.0934e+02    5.8225e+02 ;    CL2 - C2     - CL3   
     4      2      6      1    1.0934e+02    5.8225e+02 ;    CL2 - C2     - CL4   
     5      2      6      1    1.0934e+02    5.8225e+02 ;    CL3 - C2     - CL4   
     7      1      8      1    1.0855e+02    2.9824e+02 ;     H1 - C1     - H2    

[ dihedrals ] ; propers
; for gromacs 4.5 or higher, using funct 9
;    i      j      k      l   func   phase     kd      pn
     3      1      2      4      9     0.00   5.94128   3 ;    CL1-    C1-    C2-   CL2
     3      1      2      5      9     0.00   5.94128   3 ;    CL1-    C1-    C2-   CL3
     3      1      2      6      9     0.00   5.94128   3 ;    CL1-    C1-    C2-   CL4
     7      1      2      4      9     0.00   0.00000   0 ;     H1-    C1-    C2-   CL2
     7      1      2      4      9     0.00   1.04600   1 ;     H1-    C1-    C2-   CL2
     7      1      2      5      9     0.00   0.00000   0 ;     H1-    C1-    C2-   CL3
     7      1      2      5      9     0.00   1.04600   1 ;     H1-    C1-    C2-   CL3
     7      1      2      6      9     0.00   0.00000   0 ;     H1-    C1-    C2-   CL4
     7      1      2      6      9     0.00   1.04600   1 ;     H1-    C1-    C2-   CL4
     8      1      2      4      9     0.00   0.00000   0 ;     H2-    C1-    C2-   CL2
     8      1      2      4      9     0.00   1.04600   1 ;     H2-    C1-    C2-   CL2
     8      1      2      5      9     0.00   0.00000   0 ;     H2-    C1-    C2-   CL3
     8      1      2      5      9     0.00   1.04600   1 ;     H2-    C1-    C2-   CL3
     8      1      2      6      9     0.00   0.00000   0 ;     H2-    C1-    C2-   CL4
     8      1      2      6      9     0.00   1.04600   1 ;     H2-    C1-    C2-   CL4
