; mobley_6091882_GMX_OPLS.itp created by acpype (v: 2023.10.27) on Wed May 20 23:51:50 2026

; For OPLS atomtypes manual fine tuning
; AC_at:OPLS_at:OPLScode: Possible_Alternatives (see ffoplsaa.atp and ffoplsaanb.itp)
; c2:CR:opls_509: ['510']
; ha:HA:opls_146: []

[ moleculetype ]
;name            nrexcl
 mobley_6091882   3

[ atoms ]
;   nr  type  resi  res  atom  cgnr     charge      mass       ; qtot   bond_type
     1 opls_509     1   MOL    C1    1    -0.218000     12.01100 ; qtot -0.218  CR  
     2 opls_509     1   MOL    C2    2    -0.218000     12.01100 ; qtot -0.436  CR  
     3 opls_146     1   MOL    H1    3     0.109000      1.00800 ; qtot -0.327  HA  
     4 opls_146     1   MOL    H2    4     0.109000      1.00800 ; qtot -0.218  HA  
     5 opls_146     1   MOL    H3    5     0.109000      1.00800 ; qtot -0.109  HA  
     6 opls_146     1   MOL    H4    6     0.109000      1.00800 ; qtot -0.000  HA  

[ bonds ]
;   ai     aj funct   r             k
     1      2   1 ;    1.3379e-01    3.6484e+05 ;     C1 - C2         CR - CR    
     1      3   1 ;    1.0882e-01    2.9898e+05 ;     C1 - H1         CR - HA    
     1      4   1 ;    1.0882e-01    2.9898e+05 ;     C1 - H2         CR - HA    
     2      5   1 ;    1.0882e-01    2.9898e+05 ;     C2 - H3         CR - HA    
     2      6   1 ;    1.0882e-01    2.9898e+05 ;     C2 - H4         CR - HA    

[ pairs ]
;   ai     aj    funct
     3      5      1 ;     H1 - H3    
     3      6      1 ;     H1 - H4    
     4      5      1 ;     H2 - H3    
     4      6      1 ;     H2 - H4    

[ angles ]
;   ai     aj     ak    funct   theta         cth
     1      2      5      1 ;    1.2039e+02    3.8802e+02 ;     C1 - C2   - H3       CR -   CR - HA  
     1      2      6      1 ;    1.2039e+02    3.8802e+02 ;     C1 - C2   - H4       CR -   CR - HA  
     2      1      3      1 ;    1.2039e+02    3.8802e+02 ;     C2 - C1   - H1       CR -   CR - HA  
     2      1      4      1 ;    1.2039e+02    3.8802e+02 ;     C2 - C1   - H2       CR -   CR - HA  
     3      1      4      1 ;    1.1666e+02    2.9003e+02 ;     H1 - C1   - H2       HA -   CR - HA  
     5      2      6      1 ;    1.1666e+02    2.9003e+02 ;     H3 - C2   - H4       HA -   CR - HA  

[ dihedrals ] ; propers
; for gromacs 4.5 or higher, using funct 9
;    i      j      k      l   func   phase     kd      pn
     3      1      2      5      9 ;   180.00  27.82360   2 ;     H1-    C1-    C2-    H3
     3      1      2      6      9 ;   180.00  27.82360   2 ;     H1-    C1-    C2-    H4
     4      1      2      5      9 ;   180.00  27.82360   2 ;     H2-    C1-    C2-    H3
     4      1      2      6      9 ;   180.00  27.82360   2 ;     H2-    C1-    C2-    H4

[ dihedrals ] ; impropers
; treated as propers in GROMACS to use correct AMBER analytical function
;    i      j      k      l   func   phase     kd      pn
     1      5      2      6      4 ;   180.00   4.60240   2 ;     C1-    H3-    C2-    H4
     4      1      3      2      4 ;   180.00   4.60240   2 ;     H2-    C1-    H1-    C2
