; mobley_6091882_GMX_OPLS.top created by acpype (v: 2023.10.27) on Wed May 20 23:51:50 2026

; Include forcefield parameters
#include "ffoplsaa.itp"

; Include mobley_6091882_GMX.itp topology
#include "mobley_6091882_GMX.itp"

; Ligand position restraints
#ifdef POSRES_LIG
#include "posre_mobley_6091882.itp"
#endif

[ system ]
 mobley_6091882

[ molecules ]
; Compound        nmols
 mobley_6091882   1     
