mobley_9246351_GMX.gro created by acpype (v: 2023.10.27) on Wed May 20 23:58:59 2026
    5
    1MOL     C1    1   2.178   2.159   2.166
    1MOL    BR1    2   2.112   2.131   1.987
    1MOL    BR2    3   2.042   2.213   2.291
    1MOL     H1    4   2.254   2.237   2.162
    1MOL     H2    5   2.222   2.065   2.201
   4.32255   4.32255   4.32255
