4_cyanophenol
    14
   1.9050000  -1.0680000  -1.5330000   0.8180000  -0.4390000   0.5640000
   2.9370000  -1.5970000   0.6200000   0.7990000  -0.4060000   1.9590000
   2.9180000  -1.5650000   2.0140000   1.8870000  -1.0340000  -0.1050000
   1.8500000  -0.9690000   2.6840000   1.9200000  -1.0960000  -2.6950000
   1.8310000  -0.9370000   4.0440000  -0.0080000   0.0060000   0.0140000
   3.7780000  -2.0640000   0.1120000  -0.0350000   0.0600000   2.4750000
   3.7400000  -2.0050000   2.5730000   1.1750000  -0.2770000   4.3350000
