; mobley_2123854_GMX_OPLS.itp created by acpype (v: 2023.10.27) on Wed May 20 23:43:44 2026

; For OPLS atomtypes manual fine tuning
; AC_at:OPLS_at:OPLScode: Possible_Alternatives (see ffoplsaa.atp and ffoplsaanb.itp)
; cg:x:opls_x: []
; ca:CA:opls_145: ['166', '501', '502']
; n1:x:opls_x: []
; oh:OH:opls_154: ['167']
; ha:HA:opls_146: []
; ho:HO:opls_155: ['168']

[ moleculetype ]
;name            nrexcl
 mobley_2123854   3

[ atoms ]
;   nr  type  resi  res  atom  cgnr     charge      mass       ; qtot   bond_type
     1 opls_x     1   MOL    C1    1     0.237800      0.00000 ; qtot  0.238  x   
     2 opls_145     1   MOL    C2    2    -0.053500     12.01100 ; qtot  0.184  CA  
     3 opls_145     1   MOL    C3    3    -0.053500     12.01100 ; qtot  0.131  CA  
     4 opls_145     1   MOL    C4    4    -0.193000     12.01100 ; qtot -0.062  CA  
     5 opls_145     1   MOL    C5    5    -0.193000     12.01100 ; qtot -0.255  CA  
     6 opls_145     1   MOL    C6    6    -0.058000     12.01100 ; qtot -0.313  CA  
     7 opls_145     1   MOL    C7    7     0.149100     12.01100 ; qtot -0.164  CA  
     8 opls_x     1   MOL    N1    8    -0.367800      0.00000 ; qtot -0.532  x   
     9 opls_154     1   MOL    O1    9    -0.490100     15.99940 ; qtot -1.022  OH  
    10 opls_146     1   MOL    H1   10     0.148000      1.00800 ; qtot -0.874  HA  
    11 opls_146     1   MOL    H2   11     0.148000      1.00800 ; qtot -0.726  HA  
    12 opls_146     1   MOL    H3   12     0.150500      1.00800 ; qtot -0.576  HA  
    13 opls_146     1   MOL    H4   13     0.150500      1.00800 ; qtot -0.425  HA  
    14 opls_155     1   MOL    H5   14     0.425000      1.00800 ; qtot -0.000  HO  

[ bonds ]
;   ai     aj funct   r             k
     1      6   1 ;    1.4318e-01    2.6561e+05 ;     C1 - C6          x - CA    
     1      8   1 ;    1.1643e-01    6.2260e+05 ;     C1 - N1          x - x     
     2      4   1 ;    1.3986e-01    2.9644e+05 ;     C2 - C4         CA - CA    
     2      6   1 ;    1.3986e-01    2.9644e+05 ;     C2 - C6         CA - CA    
     2     10   1 ;    1.0860e-01    3.0183e+05 ;     C2 - H1         CA - HA    
     3      5   1 ;    1.3986e-01    2.9644e+05 ;     C3 - C5         CA - CA    
     3      6   1 ;    1.3986e-01    2.9644e+05 ;     C3 - C6         CA - CA    
     3     11   1 ;    1.0860e-01    3.0183e+05 ;     C3 - H2         CA - HA    
     4      7   1 ;    1.3986e-01    2.9644e+05 ;     C4 - C7         CA - CA    
     4     12   1 ;    1.0860e-01    3.0183e+05 ;     C4 - H3         CA - HA    
     5      7   1 ;    1.3986e-01    2.9644e+05 ;     C5 - C7         CA - CA    
     5     13   1 ;    1.0860e-01    3.0183e+05 ;     C5 - H4         CA - HA    
     7      9   1 ;    1.3644e-01    2.9167e+05 ;     C7 - O1         CA - OH    
     9     14   1 ;    9.7250e-02    4.4811e+05 ;     O1 - H5         OH - HO    

[ pairs ]
;   ai     aj    funct
     1      4      1 ;     C1 - C4    
     1      5      1 ;     C1 - C5    
     1     10      1 ;     C1 - H1    
     1     11      1 ;     C1 - H2    
     2      5      1 ;     C2 - C5    
     2      9      1 ;     C2 - O1    
     2     11      1 ;     C2 - H2    
     3      4      1 ;     C3 - C4    
     3      9      1 ;     C3 - O1    
     3     10      1 ;     C3 - H1    
     4     13      1 ;     C4 - H4    
     4     14      1 ;     C4 - H5    
     5     12      1 ;     C5 - H3    
     5     14      1 ;     C5 - H5    
     6      7      1 ;     C6 - C7    
     6     12      1 ;     C6 - H3    
     6     13      1 ;     C6 - H4    
     7     10      1 ;     C7 - H1    
     7     11      1 ;     C7 - H2    
     8      2      1 ;     N1 - C2    
     8      3      1 ;     N1 - C3    
     9     12      1 ;     O1 - H3    
     9     13      1 ;     O1 - H4    
    10     12      1 ;     H1 - H3    
    11     13      1 ;     H2 - H4    

[ angles ]
;   ai     aj     ak    funct   theta         cth
     1      6      2      1 ;    1.2025e+02    5.2593e+02 ;     C1 - C6   - C2        x -   CA - CA  
     1      6      3      1 ;    1.2025e+02    5.2593e+02 ;     C1 - C6   - C3        x -   CA - CA  
     2      4      7      1 ;    1.2002e+02    5.3279e+02 ;     C2 - C4   - C7       CA -   CA - CA  
     2      4     12      1 ;    1.1988e+02    3.7572e+02 ;     C2 - C4   - H3       CA -   CA - HA  
     2      6      3      1 ;    1.2002e+02    5.3279e+02 ;     C2 - C6   - C3       CA -   CA - CA  
     3      5      7      1 ;    1.2002e+02    5.3279e+02 ;     C3 - C5   - C7       CA -   CA - CA  
     3      5     13      1 ;    1.1988e+02    3.7572e+02 ;     C3 - C5   - H4       CA -   CA - HA  
     4      2      6      1 ;    1.2002e+02    5.3279e+02 ;     C4 - C2   - C6       CA -   CA - CA  
     4      2     10      1 ;    1.1988e+02    3.7572e+02 ;     C4 - C2   - H1       CA -   CA - HA  
     4      7      5      1 ;    1.2002e+02    5.3279e+02 ;     C4 - C7   - C5       CA -   CA - CA  
     4      7      9      1 ;    1.1990e+02    6.5990e+02 ;     C4 - C7   - O1       CA -   CA - OH  
     5      3      6      1 ;    1.2002e+02    5.3279e+02 ;     C5 - C3   - C6       CA -   CA - CA  
     5      3     11      1 ;    1.1988e+02    3.7572e+02 ;     C5 - C3   - H2       CA -   CA - HA  
     5      7      9      1 ;    1.1990e+02    6.5990e+02 ;     C5 - C7   - O1       CA -   CA - OH  
     6      1      8      1 ;    1.7952e+02    4.8785e+02 ;     C6 - C1   - N1       CA -    x - x   
     6      2     10      1 ;    1.1988e+02    3.7572e+02 ;     C6 - C2   - H1       CA -   CA - HA  
     6      3     11      1 ;    1.1988e+02    3.7572e+02 ;     C6 - C3   - H2       CA -   CA - HA  
     7      4     12      1 ;    1.1988e+02    3.7572e+02 ;     C7 - C4   - H3       CA -   CA - HA  
     7      5     13      1 ;    1.1988e+02    3.7572e+02 ;     C7 - C5   - H4       CA -   CA - HA  
     7      9     14      1 ;    1.0858e+02    5.6409e+02 ;     C7 - O1   - H5       CA -   OH - HO  

[ dihedrals ] ; propers
; for gromacs 4.5 or higher, using funct 9
;    i      j      k      l   func   phase     kd      pn
     1      6      2      4      9 ;   180.00  15.16700   2 ;     C1-    C6-    C2-    C4
     1      6      2     10      9 ;   180.00  15.16700   2 ;     C1-    C6-    C2-    H1
     1      6      3      5      9 ;   180.00  15.16700   2 ;     C1-    C6-    C3-    C5
     1      6      3     11      9 ;   180.00  15.16700   2 ;     C1-    C6-    C3-    H2
     2      4      7      5      9 ;   180.00  15.16700   2 ;     C2-    C4-    C7-    C5
     2      4      7      9      9 ;   180.00  15.16700   2 ;     C2-    C4-    C7-    O1
     2      6      3      5      9 ;   180.00  15.16700   2 ;     C2-    C6-    C3-    C5
     2      6      3     11      9 ;   180.00  15.16700   2 ;     C2-    C6-    C3-    H2
     3      5      7      4      9 ;   180.00  15.16700   2 ;     C3-    C5-    C7-    C4
     3      5      7      9      9 ;   180.00  15.16700   2 ;     C3-    C5-    C7-    O1
     3      6      2      4      9 ;   180.00  15.16700   2 ;     C3-    C6-    C2-    C4
     3      6      2     10      9 ;   180.00  15.16700   2 ;     C3-    C6-    C2-    H1
     4      7      5     13      9 ;   180.00  15.16700   2 ;     C4-    C7-    C5-    H4
     4      7      9     14      9 ;   180.00   3.57732   2 ;     C4-    C7-    O1-    H5
     5      7      4     12      9 ;   180.00  15.16700   2 ;     C5-    C7-    C4-    H3
     5      7      9     14      9 ;   180.00   3.57732   2 ;     C5-    C7-    O1-    H5
     6      2      4      7      9 ;   180.00  15.16700   2 ;     C6-    C2-    C4-    C7
     6      2      4     12      9 ;   180.00  15.16700   2 ;     C6-    C2-    C4-    H3
     6      3      5      7      9 ;   180.00  15.16700   2 ;     C6-    C3-    C5-    C7
     6      3      5     13      9 ;   180.00  15.16700   2 ;     C6-    C3-    C5-    H4
     7      4      2     10      9 ;   180.00  15.16700   2 ;     C7-    C4-    C2-    H1
     7      5      3     11      9 ;   180.00  15.16700   2 ;     C7-    C5-    C3-    H2
     8      1      6      2      9 ;   180.00   0.00000   2 ;     N1-    C1-    C6-    C2
     8      1      6      3      9 ;   180.00   0.00000   2 ;     N1-    C1-    C6-    C3
     9      7      4     12      9 ;   180.00  15.16700   2 ;     O1-    C7-    C4-    H3
     9      7      5     13      9 ;   180.00  15.16700   2 ;     O1-    C7-    C5-    H4
    10      2      4     12      9 ;   180.00  15.16700   2 ;     H1-    C2-    C4-    H3
    11      3      5     13      9 ;   180.00  15.16700   2 ;     H2-    C3-    C5-    H4

[ dihedrals ] ; impropers
; treated as propers in GROMACS to use correct AMBER analytical function
;    i      j      k      l   func   phase     kd      pn
     1      6      3      2      4 ;   180.00   4.60240   2 ;     C1-    C6-    C3-    C2
     2      7      4     12      4 ;   180.00   4.60240   2 ;     C2-    C7-    C4-    H3
     3      7      5     13      4 ;   180.00   4.60240   2 ;     C3-    C7-    C5-    H4
     4      5      7      9      4 ;   180.00   4.60240   2 ;     C4-    C5-    C7-    O1
     4      6      2     10      4 ;   180.00   4.60240   2 ;     C4-    C6-    C2-    H1
     5      6      3     11      4 ;   180.00   4.60240   2 ;     C5-    C6-    C3-    H2
