%VERSION  VERSION_STAMP = V0001.000  DATE = 05/20/26  23:43:45                  
%FLAG TITLE                                                                     
%FORMAT(20a4)                                                                   
4_cyanophenol                                                                   
%FLAG POINTERS                                                                  
%FORMAT(10I8)                                                                   
      14       6       5       9       9      11      20      14       0       0
      63       1       9      11      14       6       6       4       6       0
       0       0       0       0       0       0       0       0      14       0
       0
%FLAG ATOM_NAME                                                                 
%FORMAT(20a4)                                                                   
C1  C2  C3  C4  C5  C6  C7  N1  O1  H1  H2  H3  H4  H5  
%FLAG CHARGE                                                                    
%FORMAT(5E16.8)                                                                 
  4.33326294E+00 -9.74893050E-01 -9.74893050E-01 -3.51690390E+00 -3.51690390E+00
 -1.05689340E+00  2.71694493E+00 -6.70216194E+00 -8.93074923E+00  2.69690040E+00
  2.69690040E+00  2.74245615E+00  2.74245615E+00  7.74447750E+00
%FLAG ATOMIC_NUMBER                                                             
%FORMAT(10I8)                                                                   
       6       6       6       6       6       6       6       7       8       1
       1       1       1       1
%FLAG MASS                                                                      
%FORMAT(5E16.8)                                                                 
  1.20100000E+01  1.20100000E+01  1.20100000E+01  1.20100000E+01  1.20100000E+01
  1.20100000E+01  1.20100000E+01  1.40100000E+01  1.60000000E+01  1.00800000E+00
  1.00800000E+00  1.00800000E+00  1.00800000E+00  1.00800000E+00
%FLAG ATOM_TYPE_INDEX                                                           
%FORMAT(10I8)                                                                   
       1       2       2       2       2       2       2       3       4       5
       5       5       5       6
%FLAG NUMBER_EXCLUDED_ATOMS                                                     
%FORMAT(10I8)                                                                   
       8      10       9       8       7       6       6       1       3       1
       1       1       1       1
%FLAG NONBONDED_PARM_INDEX                                                      
%FORMAT(10I8)                                                                   
       1       2       4       7      11      16       2       3       5       8
      12      17       4       5       6       9      13      18       7       8
       9      10      14      19      11      12      13      14      15      20
      16      17      18      19      20      21
%FLAG RESIDUE_LABEL                                                             
%FORMAT(20a4)                                                                   
MOL 
%FLAG RESIDUE_POINTER                                                           
%FORMAT(10I8)                                                                   
       1
%FLAG BOND_FORCE_CONSTANT                                                       
%FORMAT(5E16.8)                                                                 
  3.17410000E+02  7.44030000E+02  3.54250000E+02  3.60690000E+02  3.48550000E+02
  5.35510000E+02
%FLAG BOND_EQUIL_VALUE                                                          
%FORMAT(5E16.8)                                                                 
  1.43180000E+00  1.16430000E+00  1.39860000E+00  1.08600000E+00  1.36440000E+00
  9.72500000E-01
%FLAG ANGLE_FORCE_CONSTANT                                                      
%FORMAT(5E16.8)                                                                 
  6.28500000E+01  6.36700000E+01  4.49000000E+01  7.88600000E+01  5.83000000E+01
  6.74100000E+01
%FLAG ANGLE_EQUIL_VALUE                                                         
%FORMAT(5E16.8)                                                                 
  2.09875933E+00  2.09474507E+00  2.09230160E+00  2.09265067E+00  3.13321642E+00
  1.89507931E+00
%FLAG DIHEDRAL_FORCE_CONSTANT                                                   
%FORMAT(5E16.8)                                                                 
  3.62500000E+00  0.00000000E+00  8.55000000E-01  1.10000000E+00
%FLAG DIHEDRAL_PERIODICITY                                                      
%FORMAT(5E16.8)                                                                 
  2.00000000E+00  2.00000000E+00  2.00000000E+00  2.00000000E+00
%FLAG DIHEDRAL_PHASE                                                            
%FORMAT(5E16.8)                                                                 
  3.14159400E+00  3.14159400E+00  3.14159400E+00  3.14159400E+00
%FLAG SCEE_SCALE_FACTOR                                                         
%FORMAT(5E16.8)                                                                 
  1.20000000E+00  1.20000000E+00  1.20000000E+00  0.00000000E+00
%FLAG SCNB_SCALE_FACTOR                                                         
%FORMAT(5E16.8)                                                                 
  2.00000000E+00  2.00000000E+00  2.00000000E+00  0.00000000E+00
%FLAG SOLTY                                                                     
%FORMAT(5E16.8)                                                                 
  0.00000000E+00  0.00000000E+00  0.00000000E+00  0.00000000E+00  0.00000000E+00
  0.00000000E+00
%FLAG LENNARD_JONES_ACOEF                                                       
%FORMAT(5E16.8)                                                                 
  2.00671338E+06  1.18640578E+06  6.96551276E+05  1.16165080E+06  6.80770393E+05
  6.65027384E+05  1.01229921E+06  5.92438683E+05  5.78531722E+05  5.03152404E+05
  1.32549375E+05  7.52549148E+04  7.29041169E+04  6.30298721E+04  6.90855956E+03
  4.71994656E+02  2.25372434E+02  2.08508206E+02  1.74176419E+02  8.53132435E+00
  1.10360882E-05
%FLAG LENNARD_JONES_BCOEF                                                       
%FORMAT(5E16.8)                                                                 
  1.13185062E+03  7.71958727E+02  5.24668528E+02  7.84289859E+02  5.32561965E+02
  5.40444287E+02  7.02365877E+02  4.76608379E+02  4.83576187E+02  4.32634597E+02
  1.63939471E+02  1.09570372E+02  1.10729433E+02  9.87712192E+01  2.10929191E+01
  7.19086644E+00  4.40751799E+00  4.35277903E+00  3.81654050E+00  5.44840215E-01
  4.55498033E-04
%FLAG BONDS_INC_HYDROGEN                                                        
%FORMAT(10I8)                                                                   
       3      27       4       6      30       4       9      33       4      12
      36       4      24      39       6
%FLAG BONDS_WITHOUT_HYDROGEN                                                    
%FORMAT(10I8)                                                                   
       0      15       1       0      21       2       3       9       3       3
      15       3       6      12       3       6      15       3       9      18
       3      12      18       3      18      24       5
%FLAG ANGLES_INC_HYDROGEN                                                       
%FORMAT(10I8)                                                                   
       3       9      33       3       6      12      36       3       9       3
      27       3      12       6      30       3      15       3      27       3
      15       6      30       3      18       9      33       3      18      12
      36       3      18      24      39       6
%FLAG ANGLES_WITHOUT_HYDROGEN                                                   
%FORMAT(10I8)                                                                   
       0      15       3       1       0      15       6       1       3       9
      18       2       3      15       6       2       6      12      18       2
       9       3      15       2       9      18      12       2       9      18
      24       4      12       6      15       2      12      18      24       4
      15       0      21       5
%FLAG DIHEDRALS_INC_HYDROGEN                                                    
%FORMAT(10I8)                                                                   
       0      15       3      27       1       0      15       6      30       1
       3      15       6      30       1       6      15       3      27       1
       9      18      12      36       1       9      18      24      39       3
      12      18       9      33       1      12      18      24      39       3
      15       3       9      33       1      15       6      12      36       1
      18       9       3      27       1      18      12       6      30       1
      24      18       9      33       1      24      18      12      36       1
      27       3       9      33       1      30       6      12      36       1
       9      15      -3     -27       4      12      15      -6     -30       4
       3      18      -9     -33       4       6      18     -12     -36       4
%FLAG DIHEDRALS_WITHOUT_HYDROGEN                                                
%FORMAT(10I8)                                                                   
       0      15       3       9       1       0      15       6      12       1
       3       9      18      12       1       3       9      18      24       1
      21       0      15       3       2       3      15      -6      12       1
       6      12      18       9       1       6      12      18      24       1
      21       0      15       6       2       6      15      -3       9       1
      15       3       9      18       1      15       6     -12      18       1
       0      15      -6      -3       4       9      12     -18     -24       4
%FLAG EXCLUDED_ATOMS_LIST                                                       
%FORMAT(10I8)                                                                   
       2       3       4       5       6       8      10      11       3       4
       5       6       7       8       9      10      11      12       4       5
       6       7       8       9      10      11      13       5       6       7
       9      10      12      13      14       6       7       9      11      12
      13      14       7       8      10      11      12      13       9      10
      11      12      13      14       0      12      13      14      12      13
       0       0       0
%FLAG HBOND_ACOEF                                                               
%FORMAT(5E16.8)                                                                 

%FLAG HBOND_BCOEF                                                               
%FORMAT(5E16.8)                                                                 

%FLAG HBCUT                                                                     
%FORMAT(5E16.8)                                                                 

%FLAG AMBER_ATOM_TYPE                                                           
%FORMAT(20a4)                                                                   
cg  ca  ca  ca  ca  ca  ca  n1  oh  ha  ha  ha  ha  ho  
%FLAG TREE_CHAIN_CLASSIFICATION                                                 
%FORMAT(20a4)                                                                   
BLA BLA BLA BLA BLA BLA BLA BLA BLA BLA BLA BLA BLA BLA 
%FLAG JOIN_ARRAY                                                                
%FORMAT(10I8)                                                                   
       0       0       0       0       0       0       0       0       0       0
       0       0       0       0
%FLAG IROTAT                                                                    
%FORMAT(10I8)                                                                   
       0       0       0       0       0       0       0       0       0       0
       0       0       0       0
%FLAG RADIUS_SET                                                                
%FORMAT(1a80)                                                                   
modified Bondi radii (mbondi)                                                   
%FLAG RADII                                                                     
%FORMAT(5E16.8)                                                                 
  1.70000000E+00  1.70000000E+00  1.70000000E+00  1.70000000E+00  1.70000000E+00
  1.70000000E+00  1.70000000E+00  1.55000000E+00  1.50000000E+00  1.30000000E+00
  1.30000000E+00  1.30000000E+00  1.30000000E+00  8.00000000E-01
%FLAG SCREEN                                                                    
%FORMAT(5E16.8)                                                                 
  7.20000000E-01  7.20000000E-01  7.20000000E-01  7.20000000E-01  7.20000000E-01
  7.20000000E-01  7.20000000E-01  7.90000000E-01  8.50000000E-01  8.50000000E-01
  8.50000000E-01  8.50000000E-01  8.50000000E-01  8.50000000E-01
%FLAG IPOL                                                                      
%FORMAT(1I8)                                                                    
       0
