mobley_1893937_GMX.gro created by acpype (v: 2023.10.27) on Wed May 20 23:42:20 2026
11099
    1MOL     C1    1   2.410   2.549   2.120
    1MOL     C2    2   2.347   2.514   2.254
    1MOL     C3    3   2.438   2.423   2.337
    1MOL     C4    4   2.373   2.385   2.470
    1MOL     C5    5   2.466   2.297   2.554
    1MOL     C6    6   2.403   2.250   2.685
    1MOL    CL1    7   2.358   2.386   2.790
    1MOL     H1    8   2.504   2.602   2.134
    1MOL     H2    9   2.343   2.613   2.063
    1MOL     H3   10   2.429   2.459   2.061
    1MOL     H4   11   2.325   2.606   2.309
    1MOL     H5   12   2.251   2.463   2.237
    1MOL     H6   13   2.533   2.475   2.356
    1MOL     H7   14   2.462   2.332   2.280
    1MOL     H8   15   2.279   2.332   2.451
    1MOL     H9   16   2.347   2.477   2.525
    1MOL    H10   17   2.559   2.351   2.575
    1MOL    H11   18   2.494   2.209   2.496
    1MOL    H12   19   2.313   2.191   2.666
    1MOL    H13   20   2.473   2.188   2.740
    2SOL     OW   21   0.230   0.628   0.113
    2SOL    HW1   22   0.137   0.626   0.150
    2SOL    HW2   23   0.231   0.589   0.021
    3SOL     OW   24   0.225   0.275   0.996
    3SOL    HW1   25   0.260   0.258   1.088
    3SOL    HW2   26   0.137   0.230   0.984
    4SOL     OW   27   0.019   0.368   0.647
    4SOL    HW1   28  -0.063   0.411   0.686
    4SOL    HW2   29  -0.009   0.295   0.584
    5SOL     OW   30   0.569   1.275   1.165
    5SOL    HW1   31   0.476   1.268   1.128
    5SOL    HW2   32   0.580   1.364   1.209
    6SOL     OW   33   1.555   1.511   0.703
    6SOL    HW1   34   1.498   1.495   0.784
    6SOL    HW2   35   1.496   1.521   0.623
    7SOL     OW   36   1.135   0.703   0.717
    7SOL    HW1   37   1.192   0.781   0.692
    7SOL    HW2   38   1.075   0.729   0.793
    8SOL     OW   39   1.755   0.607   0.231
    8SOL    HW1   40   1.743   0.594   0.132
    8SOL    HW2   41   1.725   0.526   0.280
    9SOL     OW   42   0.768   1.144   1.023
    9SOL    HW1   43   0.690   1.161   1.083
    9SOL    HW2   44   0.802   1.231   0.987
   10SOL     OW   45   0.850   0.798   1.823
   10SOL    HW1   46   0.846   0.874   1.888
   10SOL    HW2   47   0.872   0.834   1.732
   11SOL     OW   48   0.685   1.012   0.665
   11SOL    HW1   49   0.754   0.996   0.735
   11SOL    HW2   50   0.612   1.069   0.703
   12SOL     OW   51   0.686   1.161   1.803
   12SOL    HW1   52   0.746   1.240   1.817
   12SOL    HW2   53   0.600   1.192   1.762
   13SOL     OW   54   0.335   1.435   1.061
   13SOL    HW1   55   0.257   1.404   1.008
   13SOL    HW2   56   0.393   1.493   1.004
   14SOL     OW   57   1.460   1.505   1.339
   14SOL    HW1   58   1.484   1.599   1.365
   14SOL    HW2   59   1.444   1.451   1.421
   15SOL     OW   60   0.438   0.392   1.499
   15SOL    HW1   61   0.520   0.336   1.508
   15SOL    HW2   62   0.357   0.334   1.503
   16SOL     OW   63   1.603   0.447   0.737
   16SOL    HW1   64   1.529   0.493   0.687
   16SOL    HW2   65   1.654   0.515   0.790
   17SOL     OW   66   0.231   1.713   0.483
   17SOL    HW1   67   0.265   1.790   0.537
   17SOL    HW2   68   0.275   1.713   0.393
   18SOL     OW   69   1.127   1.341   1.690
   18SOL    HW1   70   1.174   1.341   1.778
   18SOL    HW2   71   1.079   1.254   1.679
   19SOL     OW   72   0.230   1.434   0.538
   19SOL    HW1   73   0.204   1.530   0.538
   19SOL    HW2   74   0.159   1.380   0.583
   20SOL     OW   75   0.240   1.091   0.886
   20SOL    HW1   76   0.254   1.007   0.938
   20SOL    HW2   77   0.185   1.155   0.941
   21SOL     OW   78   0.620   1.786   1.439
   21SOL    HW1   79   0.528   1.769   1.474
   21SOL    HW2   80   0.648   1.878   1.465
   22SOL     OW   81   0.606   0.964   0.123
   22SOL    HW1   82   0.613   1.048   0.069
   22SOL    HW2   83   0.652   0.977   0.211
   23SOL     OW   84   1.594   0.114   1.480
   23SOL    HW1   85   1.576   0.181   1.408
   23SOL    HW2   86   1.591   0.160   1.569
   24SOL     OW   87   0.122   0.643   0.563
   24SOL    HW1   88   0.077   0.555   0.580
   24SOL    HW2   89   0.121   0.697   0.647
   25SOL     OW   90   1.842   1.767   0.359
   25SOL    HW1   91   1.896   1.738   0.439
   25SOL    HW2   92   1.872   1.857   0.330
   26SOL     OW   93   0.027   1.596   0.117
   26SOL    HW1   94   0.008   1.500   0.138
   26SOL    HW2   95  -0.006   1.654   0.192
   27SOL     OW   96   1.689   0.922   0.612
   27SOL    HW1   97   1.784   0.893   0.620
   27SOL    HW2   98   1.681   0.987   0.537
   28SOL     OW   99   1.641   1.108   0.432
   28SOL    HW1  100   1.727   1.110   0.380
   28SOL    HW2  101   1.655   1.155   0.520
   29SOL     OW  102   0.113   0.737   1.597
   29SOL    HW1  103   0.201   0.724   1.642
   29SOL    HW2  104   0.100   0.834   1.575
   30SOL     OW  105   0.613   1.365   0.726
   30SOL    HW1  106   0.564   1.278   0.735
   30SOL    HW2  107   0.590   1.408   0.639
   31SOL     OW  108   1.293   1.228   1.423
   31SOL    HW1  109   1.330   1.155   1.365
   31SOL    HW2  110   1.345   1.233   1.508
   32SOL     OW  111   0.809   0.004   0.502
   32SOL    HW1  112   0.849   0.095   0.493
   32SOL    HW2  113   0.709   0.012   0.508
   33SOL     OW  114   0.197   0.976   1.264
   33SOL    HW1  115   0.286   0.931   1.250
   33SOL    HW2  116   0.124   0.911   1.245
   34SOL     OW  117   1.525   0.999   0.190
   34SOL    HW1  118   1.462   0.923   0.203
   34SOL    HW2  119   1.573   1.017   0.276
   35SOL     OW  120   1.187   1.792   1.616
   35SOL    HW1  121   1.211   1.852   1.540
   35SOL    HW2  122   1.194   1.697   1.586
   36SOL     OW  123   0.317   0.251   1.801
   36SOL    HW1  124   0.388   0.322   1.807
   36SOL    HW2  125   0.229   0.290   1.829
   37SOL     OW  126   1.466   1.417   0.953
   37SOL    HW1  127   1.407   1.423   1.033
   37SOL    HW2  128   1.451   1.329   0.907
   38SOL     OW  129   1.667   1.714   0.572
   38SOL    HW1  130   1.626   1.691   0.484
   38SOL    HW2  131   1.649   1.640   0.637
   39SOL     OW  132   0.598   0.729   0.270
   39SOL    HW1  133   0.622   0.798   0.202
   39SOL    HW2  134   0.520   0.762   0.324
   40SOL     OW  135   1.281   0.345   0.944
   40SOL    HW1  136   1.195   0.295   0.931
   40SOL    HW2  137   1.343   0.291   1.000
   41SOL     OW  138   1.576   1.662   0.307
   41SOL    HW1  139   1.665   1.708   0.310
   41SOL    HW2  140   1.555   1.638   0.212
   42SOL     OW  141   0.807   0.605   1.465
   42SOL    HW1  142   0.760   0.602   1.554
   42SOL    HW2  143   0.756   0.550   1.399
   43SOL     OW  144   1.394   0.469   1.674
   43SOL    HW1  145   1.374   0.512   1.762
   43SOL    HW2  146   1.472   0.407   1.683
   44SOL     OW  147   0.973   0.890   1.572
   44SOL    HW1  148   1.019   0.806   1.543
   44SOL    HW2  149   0.917   0.924   1.497
   45SOL     OW  150   0.991   0.410   1.242
   45SOL    HW1  151   0.914   0.444   1.296
   45SOL    HW2  152   0.957   0.359   1.163
   46SOL     OW  153   1.041   0.701   0.429
   46SOL    HW1  154   1.067   0.697   0.525
   46SOL    HW2  155   0.956   0.650   0.415
   47SOL     OW  156   0.076   0.811   0.789
   47SOL    HW1  157   0.175   0.799   0.798
   47SOL    HW2  158   0.052   0.906   0.810
   48SOL     OW  159   0.130   1.821   1.571
   48SOL    HW1  160   0.120   1.806   1.670
   48SOL    HW2  161   0.044   1.857   1.535
   49SOL     OW  162   0.865   0.348   0.195
   49SOL    HW1  163   0.924   0.411   0.146
   49SOL    HW2  164   0.884   0.254   0.166
   50SOL     OW  165   1.719   0.585   1.831
   50SOL    HW1  166   1.693   0.674   1.795
   50SOL    HW2  167   1.717   0.517   1.758
   51SOL     OW  168   1.362   1.144   0.545
   51SOL    HW1  169   1.445   1.115   0.497
   51SOL    HW2  170   1.313   1.211   0.489
   52SOL     OW  171   0.550   0.196   0.885
   52SOL    HW1  172   0.545   0.191   0.985
   52SOL    HW2  173   0.552   0.292   0.856
   53SOL     OW  174   1.008   1.456   0.477
   53SOL    HW1  175   0.962   1.528   0.425
   53SOL    HW2  176   1.004   1.476   0.575
   54SOL     OW  177   0.351   1.801   0.853
   54SOL    HW1  178   0.401   1.715   0.859
   54SOL    HW2  179   0.416   1.878   0.850
   55SOL     OW  180   1.795   1.066   0.873
   55SOL    HW1  181   1.733   1.051   0.797
   55SOL    HW2  182   1.743   1.077   0.958
   56SOL     OW  183   1.227   1.550   1.506
   56SOL    HW1  184   1.233   1.473   1.570
   56SOL    HW2  185   1.175   1.524   1.426
   57SOL     OW  186   0.321   0.943   0.242
   57SOL    HW1  187   0.403   0.982   0.200
   57SOL    HW2  188   0.294   0.861   0.193
   58SOL     OW  189   1.458   0.735   0.728
   58SOL    HW1  190   1.453   0.670   0.803
   58SOL    HW2  191   1.538   0.794   0.741
   59SOL     OW  192   0.461   1.266   1.727
   59SOL    HW1  193   0.411   1.267   1.641
   59SOL    HW2  194   0.398   1.248   1.803
   60SOL     OW  195   1.111   1.776   0.237
   60SOL    HW1  196   1.051   1.714   0.287
   60SOL    HW2  197   1.142   1.732   0.152
   61SOL     OW  198   0.202   0.285   1.498
   61SOL    HW1  199   0.122   0.345   1.485
   61SOL    HW2  200   0.192   0.236   1.584
   62SOL     OW  201   1.632   1.377   0.081
   62SOL    HW1  202   1.600   1.471   0.071
   62SOL    HW2  203   1.556   1.314   0.069
   63SOL     OW  204   0.464   1.743   0.323
   63SOL    HW1  205   0.497   1.782   0.409
   63SOL    HW2  206   0.540   1.736   0.258
   64SOL     OW  207   1.400   0.107   0.426
   64SOL    HW1  208   1.376   0.070   0.336
   64SOL    HW2  209   1.499   0.123   0.430
   65SOL     OW  210   0.249   1.785   1.241
   65SOL    HW1  211   0.306   1.720   1.291
   65SOL    HW2  212   0.233   1.752   1.148
   66SOL     OW  213   0.940   1.698   0.904
   66SOL    HW1  214   1.020   1.641   0.925
   66SOL    HW2  215   0.891   1.658   0.827
   67SOL     OW  216   0.382   0.700   0.480
   67SOL    HW1  217   0.427   0.610   0.477
   67SOL    HW2  218   0.288   0.689   0.513
   68SOL     OW  219   1.547   0.222   1.729
   68SOL    HW1  220   1.542   0.259   1.821
   68SOL    HW2  221   1.475   0.153   1.717
   69SOL     OW  222   0.614   0.122   0.117
   69SOL    HW1  223   0.712   0.100   0.124
   69SOL    HW2  224   0.583   0.105   0.024
   70SOL     OW  225   0.781   0.264   1.749
   70SOL    HW1  226   0.848   0.203   1.792
   70SOL    HW2  227   0.708   0.283   1.814
   71SOL     OW  228   0.888   1.514   1.195
   71SOL    HW1  229   0.865   1.489   1.101
   71SOL    HW2  230   0.949   1.445   1.234
   72SOL     OW  231   1.351   0.590   1.433
   72SOL    HW1  232   1.379   0.547   1.518
   72SOL    HW2  233   1.376   0.686   1.434
   73SOL     OW  234   0.803   1.402   0.924
   73SOL    HW1  235   0.893   1.416   0.882
   73SOL    HW2  236   0.732   1.404   0.853
   74SOL     OW  237   0.922   0.503   0.899
   74SOL    HW1  238   0.897   0.494   0.803
   74SOL    HW2  239   0.970   0.421   0.930
   75SOL     OW  240   0.539   0.064   0.512
   75SOL    HW1  241   0.458   0.065   0.570
   75SOL    HW2  242   0.542   0.147   0.457
   76SOL     OW  243   1.434   1.188   0.041
   76SOL    HW1  244   1.466   1.112   0.098
   76SOL    HW2  245   1.342   1.215   0.071
   77SOL     OW  246   0.297   0.035   0.171
   77SOL    HW1  247   0.346   0.119   0.150
   77SOL    HW2  248   0.359  -0.030   0.216
   78SOL     OW  249   0.935   0.236   0.480
   78SOL    HW1  250   0.887   0.277   0.402
   78SOL    HW2  251   1.034   0.234   0.461
   79SOL     OW  252   1.076   0.683   1.464
   79SOL    HW1  253   0.996   0.622   1.467
   79SOL    HW2  254   1.157   0.630   1.440
   80SOL     OW  255   1.227   1.570   0.793
   80SOL    HW1  256   1.248   1.644   0.728
   80SOL    HW2  257   1.295   1.570   0.866
   81SOL     OW  258   0.459   1.152   0.741
   81SOL    HW1  259   0.388   1.125   0.806
   81SOL    HW2  260   0.433   1.124   0.648
   82SOL     OW  261   1.271   1.797   0.591
   82SOL    HW1  262   1.315   1.861   0.527
   82SOL    HW2  263   1.221   1.849   0.661
   83SOL     OW  264   1.032   0.549   0.016
   83SOL    HW1  265   0.991   0.631  -0.023
   83SOL    HW2  266   1.096   0.575   0.089
   84SOL     OW  267   0.078   0.556   1.386
   84SOL    HW1  268   0.170   0.555   1.345
   84SOL    HW2  269   0.072   0.630   1.453
   85SOL     OW  270   0.561   0.222   1.147
   85SOL    HW1  271   0.599   0.138   1.184
   85SOL    HW2  272   0.473   0.241   1.191
   86SOL     OW  273   0.866   0.454   0.642
   86SOL    HW1  274   0.834   0.526   0.580
   86SOL    HW2  275   0.890   0.373   0.589
   87SOL     OW  276   1.017   0.039   0.753
   87SOL    HW1  277   0.945   0.044   0.684
   87SOL    HW2  278   0.993  -0.030   0.822
   88SOL     OW  279   1.429   1.173   0.867
   88SOL    HW1  280   1.374   1.089   0.860
   88SOL    HW2  281   1.455   1.202   0.775
   89SOL     OW  282   1.466   0.590   0.992
   89SOL    HW1  283   1.436   0.495   0.999
   89SOL    HW2  284   1.539   0.606   1.058
   90SOL     OW  285   1.857   0.833   0.377
   90SOL    HW1  286   1.899   0.769   0.441
   90SOL    HW2  287   1.819   0.782   0.299
   91SOL     OW  288   0.488   1.385   0.174
   91SOL    HW1  289   0.401   1.370   0.221
   91SOL    HW2  290   0.471   1.411   0.079
   92SOL     OW  291   1.664   1.280   0.657
   92SOL    HW1  292   1.763   1.288   0.671
   92SOL    HW2  293   1.619   1.364   0.688
   93SOL     OW  294   1.390   0.575   0.078
   93SOL    HW1  295   1.336   0.554   0.159
   93SOL    HW2  296   1.481   0.534   0.087
   94SOL     OW  297   0.527   0.256   0.328
   94SOL    HW1  298   0.554   0.197   0.253
   94SOL    HW2  299   0.527   0.351   0.297
   95SOL     OW  300   1.754   1.223   1.588
   95SOL    HW1  301   1.845   1.184   1.575
   95SOL    HW2  302   1.762   1.319   1.612
   96SOL     OW  303   1.064   1.347   1.340
   96SOL    HW1  304   0.984   1.324   1.395
   96SOL    HW2  305   1.147   1.321   1.389
   97SOL     OW  306   1.592   1.629   1.625
   97SOL    HW1  307   1.619   1.663   1.535
   97SOL    HW2  308   1.671   1.591   1.671
   98SOL     OW  309   1.111   1.195   1.100
   98SOL    HW1  310   1.071   1.239   1.181
   98SOL    HW2  311   1.070   1.232   1.017
   99SOL     OW  312   1.638   1.099   1.079
   99SOL    HW1  313   1.643   1.180   1.138
   99SOL    HW2  314   1.552   1.101   1.028
  100SOL     OW  315   0.915   0.089   1.402
  100SOL    HW1  316   0.940   0.069   1.307
  100SOL    HW2  317   0.987   0.145   1.444
  101SOL     OW  318   0.980   1.116   1.719
  101SOL    HW1  319   0.881   1.122   1.729
  101SOL    HW2  320   1.003   1.036   1.663
  102SOL     OW  321   0.705   1.050   0.368
  102SOL    HW1  322   0.691   1.057   0.467
  102SOL    HW2  323   0.789   0.999   0.350
  103SOL     OW  324   0.410   0.813   1.251
  103SOL    HW1  325   0.496   0.825   1.301
  103SOL    HW2  326   0.368   0.726   1.278
  104SOL     OW  327   1.274   0.386   1.262
  104SOL    HW1  328   1.295   0.460   1.326
  104SOL    HW2  329   1.185   0.403   1.219
  105SOL     OW  330   0.064   1.564   1.331
  105SOL    HW1  331   0.018   1.646   1.297
  105SOL    HW2  332   0.162   1.583   1.340
  106SOL     OW  333   0.367   1.100   0.501
  106SOL    HW1  334   0.360   1.183   0.445
  106SOL    HW2  335   0.371   1.020   0.441
  107SOL     OW  336   0.566   0.537   0.865
  107SOL    HW1  337   0.578   0.603   0.791
  107SOL    HW2  338   0.612   0.571   0.948
  108SOL     OW  339   1.252   1.348   0.388
  108SOL    HW1  340   1.302   1.425   0.428
  108SOL    HW2  341   1.157   1.350   0.420
  109SOL     OW  342   1.272   1.445   1.142
  109SOL    HW1  343   1.319   1.458   1.229
  109SOL    HW2  344   1.206   1.371   1.151
  110SOL     OW  345   1.582   0.639   0.472
  110SOL    HW1  346   1.551   0.700   0.545
  110SOL    HW2  347   1.632   0.691   0.403
  111SOL     OW  348   0.354   1.510   1.329
  111SOL    HW1  349   0.333   1.466   1.242
  111SOL    HW2  350   0.451   1.536   1.332
  112SOL     OW  351   0.402   0.751   1.598
  112SOL    HW1  352   0.470   0.806   1.551
  112SOL    HW2  353   0.442   0.663   1.625
  113SOL     OW  354   1.587   0.779   1.670
  113SOL    HW1  355   1.495   0.817   1.665
  113SOL    HW2  356   1.647   0.826   1.605
  114SOL     OW  357   1.013   0.105   1.770
  114SOL    HW1  358   1.019   0.190   1.718
  114SOL    HW2  359   1.045   0.029   1.713
  115SOL     OW  360   0.504   0.050   1.740
  115SOL    HW1  361   0.462  -0.007   1.670
  115SOL    HW2  362   0.438   0.119   1.772
  116SOL     OW  363   0.573   0.870   1.029
  116SOL    HW1  364   0.617   0.959   1.020
  116SOL    HW2  365   0.510   0.870   1.106
  117SOL     OW  366   1.360   0.862   1.045
  117SOL    HW1  367   1.285   0.862   0.979
  117SOL    HW2  368   1.397   0.770   1.054
  118SOL     OW  369   1.209   0.525   0.275
  118SOL    HW1  370   1.222   0.441   0.329
  118SOL    HW2  371   1.180   0.599   0.335
  119SOL     OW  372   0.307   0.213   1.231
  119SOL    HW1  373   0.284   0.250   1.321
  119SOL    HW2  374   0.277   0.118   1.225
  120SOL     OW  375   0.037   1.310   1.282
  120SOL    HW1  376   0.090   1.261   1.350
  120SOL    HW2  377   0.059   1.408   1.287
  121SOL     OW  378   0.732   0.634   1.064
  121SOL    HW1  379   0.791   0.608   0.988
  121SOL    HW2  380   0.704   0.730   1.053
  122SOL     OW  381   1.728   0.935   1.854
  122SOL    HW1  382   1.682   0.928   1.765
  122SOL    HW2  383   1.666   0.979   1.920
  123SOL     OW  384   0.307   0.063   0.618
  123SOL    HW1  385   0.296   0.157   0.651
  123SOL    HW2  386   0.302   0.000   0.695
  124SOL     OW  387   1.622   0.367   0.374
  124SOL    HW1  388   1.624   0.291   0.438
  124SOL    HW2  389   1.574   0.444   0.414
  125SOL     OW  390   1.023   0.766   0.966
  125SOL    HW1  391   1.038   0.787   1.062
  125SOL    HW2  392   0.993   0.671   0.957
  126SOL     OW  393   0.980   1.573   1.700
  126SOL    HW1  394   0.960   1.617   1.612
  126SOL    HW2  395   1.019   1.482   1.684
  127SOL     OW  396   1.859   1.518   1.605
  127SOL    HW1  397   1.873   1.545   1.510
  127SOL    HW2  398   1.942   1.540   1.658
  128SOL     OW  399   0.350   0.898   1.804
  128SOL    HW1  400   0.426   0.942   1.852
  128SOL    HW2  401   0.385   0.851   1.722
  129SOL     OW  402   1.540   0.274   0.125
  129SOL    HW1  403   1.479   0.199   0.148
  129SOL    HW2  404   1.562   0.326   0.208
  130SOL     OW  405   1.303   0.838   0.042
  130SOL    HW1  406   1.337   0.745   0.057
  130SOL    HW2  407   1.321   0.865  -0.053
  131SOL     OW  408   1.068   1.333   0.849
  131SOL    HW1  409   1.075   1.249   0.794
  131SOL    HW2  410   1.130   1.402   0.813
  132SOL     OW  411   0.319   0.810   0.949
  132SOL    HW1  412   0.412   0.846   0.954
  132SOL    HW2  413   0.313   0.725   1.001
  133SOL     OW  414   0.339   0.509   1.006
  133SOL    HW1  415   0.287   0.426   0.989
  133SOL    HW2  416   0.416   0.514   0.942
  134SOL     OW  417   1.138   0.380   1.678
  134SOL    HW1  418   1.093   0.443   1.742
  134SOL    HW2  419   1.231   0.411   1.661
  135SOL     OW  420   1.160   0.207   1.477
  135SOL    HW1  421   1.160   0.271   1.554
  135SOL    HW2  422   1.188   0.255   1.394
  136SOL     OW  423   0.008   1.326   0.200
  136SOL    HW1  424  -0.085   1.347   0.169
  136SOL    HW2  425   0.018   1.227   0.213
  137SOL     OW  426   0.088   1.801   0.927
  137SOL    HW1  427   0.046   1.715   0.900
  137SOL    HW2  428   0.182   1.804   0.893
  138SOL     OW  429   0.504   1.568   0.910
  138SOL    HW1  430   0.570   1.642   0.919
  138SOL    HW2  431   0.548   1.489   0.868
  139SOL     OW  432   1.002   0.796   1.238
  139SOL    HW1  433   1.043   0.764   1.324
  139SOL    HW2  434   0.906   0.769   1.235
  140SOL     OW  435   0.040   0.544   1.114
  140SOL    HW1  436   0.125   0.511   1.073
  140SOL    HW2  437   0.053   0.559   1.212
  141SOL     OW  438   0.189   0.520   1.722
  141SOL    HW1  439   0.248   0.480   1.652
  141SOL    HW2  440   0.131   0.591   1.681
  142SOL     OW  441   1.369   0.950   1.660
  142SOL    HW1  442   1.408   1.039   1.680
  142SOL    HW2  443   1.379   0.930   1.563
  143SOL     OW  444   0.815   0.572   0.325
  143SOL    HW1  445   0.822   0.483   0.279
  143SOL    HW2  446   0.721   0.606   0.317
  144SOL     OW  447   1.657   0.604   1.206
  144SOL    HW1  448   1.619   0.535   1.268
  144SOL    HW2  449   1.739   0.568   1.162
  145SOL     OW  450   0.252   1.564   1.744
  145SOL    HW1  451   0.222   1.621   1.820
  145SOL    HW2  452   0.245   1.467   1.770
  146SOL     OW  453   0.671   0.464   1.269
  146SOL    HW1  454   0.637   0.375   1.239
  146SOL    HW2  455   0.697   0.518   1.189
  147SOL     OW  456   0.930   1.678   1.465
  147SOL    HW1  457   0.906   1.660   1.370
  147SOL    HW2  458   0.960   1.772   1.475
  148SOL     OW  459   0.473   0.500   0.191
  148SOL    HW1  460   0.534   0.580   0.195
  148SOL    HW2  461   0.378   0.531   0.198
  149SOL     OW  462   0.159   1.137   1.466
  149SOL    HW1  463   0.181   1.076   1.542
  149SOL    HW2  464   0.169   1.088   1.380
  150SOL     OW  465   1.347   1.059   1.234
  150SOL    HW1  466   1.371   0.996   1.160
  150SOL    HW2  467   1.257   1.099   1.216
  151SOL     OW  468   1.302   0.855   0.309
  151SOL    HW1  469   1.216   0.824   0.351
  151SOL    HW2  470   1.298   0.841   0.210
  152SOL     OW  471   1.759   1.747   1.154
  152SOL    HW1  472   1.820   1.777   1.081
  152SOL    HW2  473   1.721   1.658   1.132
  153SOL     OW  474   1.252   1.731   1.128
  153SOL    HW1  475   1.336   1.736   1.074
  153SOL    HW2  476   1.229   1.635   1.146
  154SOL     OW  477   0.083   1.258   1.022
  154SOL    HW1  478   0.078   1.257   1.122
  154SOL    HW2  479   0.000   1.217   0.984
  155SOL     OW  480   0.688   1.662   1.716
  155SOL    HW1  481   0.632   1.743   1.725
  155SOL    HW2  482   0.740   1.666   1.630
  156SOL     OW  483   0.903   0.086   0.133
  156SOL    HW1  484   0.954   0.087   0.047
  156SOL    HW2  485   0.959   0.044   0.204
  157SOL     OW  486   1.726   0.135   0.523
  157SOL    HW1  487   1.799   0.118   0.456
  157SOL    HW2  488   1.695   0.048   0.561
  158SOL     OW  489   1.388   1.573   0.477
  158SOL    HW1  490   1.455   1.585   0.403
  158SOL    HW2  491   1.348   1.662   0.500
  159SOL     OW  492   0.130   1.794   1.851
  159SOL    HW1  493   0.089   1.720   1.904
  159SOL    HW2  494   0.194   1.845   1.909
  160SOL     OW  495   1.280   0.927   0.672
  160SOL    HW1  496   1.340   0.846   0.674
  160SOL    HW2  497   1.320   0.996   0.612
  161SOL     OW  498   0.830   1.273   1.422
  161SOL    HW1  499   0.825   1.306   1.517
  161SOL    HW2  500   0.744   1.292   1.376
  162SOL     OW  501   0.672   1.616   0.154
  162SOL    HW1  502   0.681   1.626   0.055
  162SOL    HW2  503   0.632   1.527   0.175
  163SOL     OW  504   1.650   1.720   1.394
  163SOL    HW1  505   1.703   1.730   1.310
  163SOL    HW2  506   1.623   1.810   1.428
  164SOL     OW  507   1.841   0.175   0.963
  164SOL    HW1  508   1.880   0.090   0.927
  164SOL    HW2  509   1.743   0.177   0.944
  165SOL     OW  510   0.263   0.326   0.720
  165SOL    HW1  511   0.184   0.377   0.686
  165SOL    HW2  512   0.254   0.311   0.818
  166SOL     OW  513   1.194   1.612   0.031
  166SOL    HW1  514   1.200   1.519   0.068
  166SOL    HW2  515   1.135   1.612  -0.049
  167SOL     OW  516   0.822   1.002   1.372
  167SOL    HW1  517   0.862   1.001   1.280
  167SOL    HW2  518   0.832   1.094   1.412
  168SOL     OW  519   0.916   0.910   0.291
  168SOL    HW1  520   0.979   0.948   0.223
  168SOL    HW2  521   0.956   0.827   0.330
  169SOL     OW  522   1.504   1.607   0.044
  169SOL    HW1  523   1.412   1.644   0.051
  169SOL    HW2  524   1.542   1.627  -0.046
  170SOL     OW  525   0.372   1.288   1.490
  170SOL    HW1  526   0.359   1.381   1.456
  170SOL    HW2  527   0.288   1.236   1.477
  171SOL     OW  528   1.614   1.292   1.289
  171SOL    HW1  529   1.674   1.295   1.369
  171SOL    HW2  530   1.539   1.356   1.302
  172SOL     OW  531   1.039   1.098   0.696
  172SOL    HW1  532   0.969   1.051   0.750
  172SOL    HW2  533   1.098   1.030   0.653
  173SOL     OW  534   1.014   0.236   0.971
  173SOL    HW1  535   1.006   0.200   0.878
  173SOL    HW2  536   1.012   0.160   1.036
  174SOL     OW  537   0.590   1.487   0.491
  174SOL    HW1  538   0.632   1.429   0.421
  174SOL    HW2  539   0.546   1.566   0.447
  175SOL     OW  540   1.709   0.385   1.381
  175SOL    HW1  541   1.782   0.454   1.385
  175SOL    HW2  542   1.737   0.310   1.322
  176SOL     OW  543   0.255   1.348   0.290
  176SOL    HW1  544   0.159   1.349   0.263
  176SOL    HW2  545   0.267   1.401   0.374
  177SOL     OW  546   0.105   1.013   1.726
  177SOL    HW1  547   0.028   0.980   1.780
  177SOL    HW2  548   0.190   0.983   1.768
  178SOL     OW  549   0.672   0.203   1.489
  178SOL    HW1  550   0.762   0.187   1.449
  178SOL    HW2  551   0.680   0.208   1.588
  179SOL     OW  552   0.075   0.345   0.033
  179SOL    HW1  553  -0.017   0.317   0.004
  179SOL    HW2  554   0.106   0.422  -0.023
  180SOL     OW  555   1.440   0.856   1.398
  180SOL    HW1  556   1.383   0.908   1.335
  180SOL    HW2  557   1.536   0.868   1.374
  181SOL     OW  558   0.072   0.166   0.318
  181SOL    HW1  559   0.055   0.249   0.264
  181SOL    HW2  560   0.162   0.129   0.296
  182SOL     OW  561   1.183   1.335   0.119
  182SOL    HW1  562   1.084   1.324   0.121
  182SOL    HW2  563   1.217   1.350   0.212
  183SOL     OW  564   0.613   0.842   1.431
  183SOL    HW1  565   0.669   0.923   1.414
  183SOL    HW2  566   0.672   0.762   1.434
  184SOL     OW  567   1.493   1.767   0.959
  184SOL    HW1  568   1.526   1.831   0.890
  184SOL    HW2  569   1.559   1.761   1.034
  185SOL     OW  570   0.716   0.565   1.708
  185SOL    HW1  571   0.735   0.630   1.782
  185SOL    HW2  572   0.776   0.485   1.717
  186SOL     OW  573   1.450   1.220   1.633
  186SOL    HW1  574   1.441   1.210   1.732
  186SOL    HW2  575   1.546   1.213   1.607
  187SOL     OW  576   0.390   1.741   1.560
  187SOL    HW1  577   0.299   1.782   1.558
  187SOL    HW2  578   0.383   1.647   1.592
  188SOL     OW  579   1.674   0.883   1.254
  188SOL    HW1  580   1.647   0.794   1.217
  188SOL    HW2  581   1.675   0.951   1.181
  189SOL     OW  582   1.225   0.325   0.449
  189SOL    HW1  583   1.290   0.251   0.438
  189SOL    HW2  584   1.245   0.375   0.533
  190SOL     OW  585   0.594   0.745   0.652
  190SOL    HW1  586   0.644   0.830   0.633
  190SOL    HW2  587   0.506   0.747   0.604
  191SOL     OW  588   1.777   0.342   1.642
  191SOL    HW1  589   1.760   0.373   1.548
  191SOL    HW2  590   1.693   0.305   1.680
  192SOL     OW  591   1.730   0.934   1.517
  192SOL    HW1  592   1.768   1.025   1.532
  192SOL    HW2  593   1.722   0.917   1.418
  193SOL     OW  594   0.859   1.374   0.016
  193SOL    HW1  595   0.813   1.389   0.104
  193SOL    HW2  596   0.903   1.459  -0.014
  194SOL     OW  597   0.661   1.790   0.953
  194SOL    HW1  598   0.615   1.878   0.940
  194SOL    HW2  599   0.760   1.802   0.946
  195SOL     OW  600   0.859   0.956   0.861
  195SOL    HW1  601   0.913   0.887   0.909
  195SOL    HW2  602   0.827   1.025   0.927
  196SOL     OW  603   1.083   0.984   0.087
  196SOL    HW1  604   1.060   1.037   0.005
  196SOL    HW2  605   1.164   0.928   0.068
  197SOL     OW  606   1.861   1.569   0.851
  197SOL    HW1  607   1.790   1.557   0.781
  197SOL    HW2  608   1.862   1.490   0.911
  198SOL     OW  609   0.221   1.314   1.844
  198SOL    HW1  610   0.156   1.241   1.823
  198SOL    HW2  611   0.225   1.328   1.942
  199SOL     OW  612   0.079   1.240   0.653
  199SOL    HW1  613   0.078   1.193   0.741
  199SOL    HW2  614   0.161   1.212   0.602
  200SOL     OW  615   0.672   1.391   1.624
  200SOL    HW1  616   0.594   1.341   1.662
  200SOL    HW2  617   0.669   1.486   1.655
  201SOL     OW  618   1.824   0.192   1.227
  201SOL    HW1  619   1.820   0.102   1.271
  201SOL    HW2  620   1.827   0.181   1.128
  202SOL     OW  621   0.428   0.424   0.520
  202SOL    HW1  622   0.458   0.352   0.458
  202SOL    HW2  623   0.389   0.384   0.603
  203SOL     OW  624   1.705   1.487   1.104
  203SOL    HW1  625   1.612   1.462   1.077
  203SOL    HW2  626   1.731   1.437   1.186
  204SOL     OW  627   0.317   0.547   1.280
  204SOL    HW1  628   0.355   0.488   1.352
  204SOL    HW2  629   0.357   0.521   1.192
  205SOL     OW  630   0.812   1.586   0.687
  205SOL    HW1  631   0.844   1.596   0.593
  205SOL    HW2  632   0.733   1.524   0.689
  206SOL     OW  633   1.424   0.214   1.112
  206SOL    HW1  634   1.476   0.149   1.167
  206SOL    HW2  635   1.375   0.277   1.173
  207SOL     OW  636   1.001   0.034   1.154
  207SOL    HW1  637   0.938  -0.038   1.123
  207SOL    HW2  638   1.094  -0.002   1.154
  208SOL     OW  639   0.770   1.330   0.301
  208SOL    HW1  640   0.724   1.243   0.318
  208SOL    HW2  641   0.861   1.327   0.342
  209SOL     OW  642   0.618   1.567   1.284
  209SOL    HW1  643   0.613   1.649   1.341
  209SOL    HW2  644   0.707   1.564   1.239
  210SOL     OW  645   1.352   0.052   0.168
  210SOL    HW1  646   1.387   0.011   0.084
  210SOL    HW2  647   1.262   0.014   0.188
  211SOL     OW  648   1.300   0.453   0.691
  211SOL    HW1  649   1.241   0.533   0.695
  211SOL    HW2  650   1.315   0.418   0.784
  212SOL     OW  651   1.593   0.221   0.882
  212SOL    HW1  652   1.509   0.220   0.936
  212SOL    HW2  653   1.595   0.304   0.826
  213SOL     OW  654   0.039   1.077   0.300
  213SOL    HW1  655   0.138   1.066   0.291
  213SOL    HW2  656  -0.001   0.991   0.332
  214SOL     OW  657   0.875   1.646   0.337
  214SOL    HW1  658   0.798   1.611   0.283
  214SOL    HW2  659   0.843   1.717   0.399
  215SOL     OW  660   0.230   0.628   1.975
  215SOL    HW1  661   0.137   0.626   2.012
  215SOL    HW2  662   0.231   0.589   1.883
  216SOL     OW  663   0.225   0.275   2.858
  216SOL    HW1  664   0.260   0.258   2.950
  216SOL    HW2  665   0.137   0.230   2.846
  217SOL     OW  666   0.019   0.368   2.509
  217SOL    HW1  667  -0.063   0.411   2.548
  217SOL    HW2  668  -0.009   0.295   2.446
  218SOL     OW  669   0.569   1.275   3.027
  218SOL    HW1  670   0.476   1.268   2.990
  218SOL    HW2  671   0.580   1.364   3.071
  219SOL     OW  672   1.555   1.511   2.565
  219SOL    HW1  673   1.498   1.495   2.646
  219SOL    HW2  674   1.496   1.521   2.485
  220SOL     OW  675   1.135   0.703   2.579
  220SOL    HW1  676   1.192   0.781   2.554
  220SOL    HW2  677   1.075   0.729   2.655
  221SOL     OW  678   1.755   0.607   2.093
  221SOL    HW1  679   1.743   0.594   1.994
  221SOL    HW2  680   1.725   0.526   2.142
  222SOL     OW  681   0.768   1.144   2.885
  222SOL    HW1  682   0.690   1.161   2.945
  222SOL    HW2  683   0.802   1.231   2.849
  223SOL     OW  684   0.850   0.798   3.685
  223SOL    HW1  685   0.846   0.874   3.750
  223SOL    HW2  686   0.872   0.834   3.594
  224SOL     OW  687   0.685   1.012   2.527
  224SOL    HW1  688   0.754   0.996   2.597
  224SOL    HW2  689   0.612   1.069   2.565
  225SOL     OW  690   0.686   1.161   3.665
  225SOL    HW1  691   0.746   1.240   3.679
  225SOL    HW2  692   0.600   1.192   3.624
  226SOL     OW  693   0.335   1.435   2.923
  226SOL    HW1  694   0.257   1.404   2.870
  226SOL    HW2  695   0.393   1.493   2.866
  227SOL     OW  696   1.460   1.505   3.201
  227SOL    HW1  697   1.484   1.599   3.227
  227SOL    HW2  698   1.444   1.451   3.283
  228SOL     OW  699   0.438   0.392   3.361
  228SOL    HW1  700   0.520   0.336   3.370
  228SOL    HW2  701   0.357   0.334   3.365
  229SOL     OW  702   1.603   0.447   2.599
  229SOL    HW1  703   1.529   0.493   2.549
  229SOL    HW2  704   1.654   0.515   2.652
  230SOL     OW  705   0.231   1.713   2.345
  230SOL    HW1  706   0.265   1.790   2.399
  230SOL    HW2  707   0.275   1.713   2.255
  231SOL     OW  708   1.127   1.341   3.552
  231SOL    HW1  709   1.174   1.341   3.640
  231SOL    HW2  710   1.079   1.254   3.541
  232SOL     OW  711   0.230   1.434   2.400
  232SOL    HW1  712   0.204   1.530   2.400
  232SOL    HW2  713   0.159   1.380   2.445
  233SOL     OW  714   0.240   1.091   2.748
  233SOL    HW1  715   0.254   1.007   2.800
  233SOL    HW2  716   0.185   1.155   2.803
  234SOL     OW  717   0.620   1.786   3.301
  234SOL    HW1  718   0.528   1.769   3.336
  234SOL    HW2  719   0.648   1.878   3.327
  235SOL     OW  720   0.606   0.964   1.985
  235SOL    HW1  721   0.613   1.048   1.931
  235SOL    HW2  722   0.652   0.977   2.073
  236SOL     OW  723   1.594   0.114   3.342
  236SOL    HW1  724   1.576   0.181   3.270
  236SOL    HW2  725   1.591   0.160   3.431
  237SOL     OW  726   0.122   0.643   2.425
  237SOL    HW1  727   0.077   0.555   2.442
  237SOL    HW2  728   0.121   0.697   2.509
  238SOL     OW  729   1.842   1.767   2.221
  238SOL    HW1  730   1.896   1.738   2.301
  238SOL    HW2  731   1.872   1.857   2.192
  239SOL     OW  732   0.027   1.596   1.979
  239SOL    HW1  733   0.008   1.500   2.000
  239SOL    HW2  734  -0.006   1.654   2.054
  240SOL     OW  735   1.689   0.922   2.474
  240SOL    HW1  736   1.784   0.893   2.482
  240SOL    HW2  737   1.681   0.987   2.399
  241SOL     OW  738   1.641   1.108   2.294
  241SOL    HW1  739   1.727   1.110   2.242
  241SOL    HW2  740   1.655   1.155   2.382
  242SOL     OW  741   0.113   0.737   3.459
  242SOL    HW1  742   0.201   0.724   3.504
  242SOL    HW2  743   0.100   0.834   3.437
  243SOL     OW  744   0.613   1.365   2.588
  243SOL    HW1  745   0.564   1.278   2.597
  243SOL    HW2  746   0.590   1.408   2.501
  244SOL     OW  747   1.293   1.228   3.285
  244SOL    HW1  748   1.330   1.155   3.227
  244SOL    HW2  749   1.345   1.233   3.370
  245SOL     OW  750   0.809   0.004   2.364
  245SOL    HW1  751   0.849   0.095   2.355
  245SOL    HW2  752   0.709   0.012   2.370
  246SOL     OW  753   0.197   0.976   3.126
  246SOL    HW1  754   0.286   0.931   3.112
  246SOL    HW2  755   0.124   0.911   3.107
  247SOL     OW  756   1.525   0.999   2.052
  247SOL    HW1  757   1.462   0.923   2.065
  247SOL    HW2  758   1.573   1.017   2.138
  248SOL     OW  759   1.187   1.792   3.478
  248SOL    HW1  760   1.211   1.852   3.402
  248SOL    HW2  761   1.194   1.697   3.448
  249SOL     OW  762   0.317   0.251   3.663
  249SOL    HW1  763   0.388   0.322   3.669
  249SOL    HW2  764   0.229   0.290   3.691
  250SOL     OW  765   1.466   1.417   2.815
  250SOL    HW1  766   1.407   1.423   2.895
  250SOL    HW2  767   1.451   1.329   2.769
  251SOL     OW  768   1.667   1.714   2.434
  251SOL    HW1  769   1.626   1.691   2.346
  251SOL    HW2  770   1.649   1.640   2.499
  252SOL     OW  771   0.598   0.729   2.132
  252SOL    HW1  772   0.622   0.798   2.064
  252SOL    HW2  773   0.520   0.762   2.186
  253SOL     OW  774   1.281   0.345   2.806
  253SOL    HW1  775   1.195   0.295   2.793
  253SOL    HW2  776   1.343   0.291   2.862
  254SOL     OW  777   1.576   1.662   2.169
  254SOL    HW1  778   1.665   1.708   2.172
  254SOL    HW2  779   1.555   1.638   2.074
  255SOL     OW  780   0.807   0.605   3.327
  255SOL    HW1  781   0.760   0.602   3.416
  255SOL    HW2  782   0.756   0.550   3.261
  256SOL     OW  783   1.394   0.469   3.536
  256SOL    HW1  784   1.374   0.512   3.624
  256SOL    HW2  785   1.472   0.407   3.545
  257SOL     OW  786   0.973   0.890   3.434
  257SOL    HW1  787   1.019   0.806   3.405
  257SOL    HW2  788   0.917   0.924   3.359
  258SOL     OW  789   0.991   0.410   3.104
  258SOL    HW1  790   0.914   0.444   3.158
  258SOL    HW2  791   0.957   0.359   3.025
  259SOL     OW  792   1.041   0.701   2.291
  259SOL    HW1  793   1.067   0.697   2.387
  259SOL    HW2  794   0.956   0.650   2.277
  260SOL     OW  795   0.076   0.811   2.651
  260SOL    HW1  796   0.175   0.799   2.660
  260SOL    HW2  797   0.052   0.906   2.672
  261SOL     OW  798   0.130   1.821   3.433
  261SOL    HW1  799   0.120   1.806   3.532
  261SOL    HW2  800   0.044   1.857   3.397
  262SOL     OW  801   0.865   0.348   2.057
  262SOL    HW1  802   0.924   0.411   2.008
  262SOL    HW2  803   0.884   0.254   2.028
  263SOL     OW  804   1.719   0.585   3.693
  263SOL    HW1  805   1.693   0.674   3.657
  263SOL    HW2  806   1.717   0.517   3.620
  264SOL     OW  807   1.362   1.144   2.407
  264SOL    HW1  808   1.445   1.115   2.359
  264SOL    HW2  809   1.313   1.211   2.351
  265SOL     OW  810   0.550   0.196   2.747
  265SOL    HW1  811   0.545   0.191   2.847
  265SOL    HW2  812   0.552   0.292   2.718
  266SOL     OW  813   1.008   1.456   2.339
  266SOL    HW1  814   0.962   1.528   2.287
  266SOL    HW2  815   1.004   1.476   2.437
  267SOL     OW  816   0.351   1.801   2.715
  267SOL    HW1  817   0.401   1.715   2.721
  267SOL    HW2  818   0.416   1.878   2.712
  268SOL     OW  819   1.795   1.066   2.735
  268SOL    HW1  820   1.733   1.051   2.659
  268SOL    HW2  821   1.743   1.077   2.820
  269SOL     OW  822   1.227   1.550   3.368
  269SOL    HW1  823   1.233   1.473   3.432
  269SOL    HW2  824   1.175   1.524   3.288
  270SOL     OW  825   0.321   0.943   2.104
  270SOL    HW1  826   0.403   0.982   2.062
  270SOL    HW2  827   0.294   0.861   2.055
  271SOL     OW  828   1.458   0.735   2.590
  271SOL    HW1  829   1.453   0.670   2.665
  271SOL    HW2  830   1.538   0.794   2.603
  272SOL     OW  831   0.461   1.266   3.589
  272SOL    HW1  832   0.411   1.267   3.503
  272SOL    HW2  833   0.398   1.248   3.665
  273SOL     OW  834   1.111   1.776   2.099
  273SOL    HW1  835   1.051   1.714   2.149
  273SOL    HW2  836   1.142   1.732   2.014
  274SOL     OW  837   0.202   0.285   3.360
  274SOL    HW1  838   0.122   0.345   3.347
  274SOL    HW2  839   0.192   0.236   3.446
  275SOL     OW  840   1.632   1.377   1.943
  275SOL    HW1  841   1.600   1.471   1.933
  275SOL    HW2  842   1.556   1.314   1.931
  276SOL     OW  843   0.464   1.743   2.185
  276SOL    HW1  844   0.497   1.782   2.271
  276SOL    HW2  845   0.540   1.736   2.120
  277SOL     OW  846   1.400   0.107   2.288
  277SOL    HW1  847   1.376   0.070   2.198
  277SOL    HW2  848   1.499   0.123   2.292
  278SOL     OW  849   0.249   1.785   3.103
  278SOL    HW1  850   0.306   1.720   3.153
  278SOL    HW2  851   0.233   1.752   3.010
  279SOL     OW  852   0.940   1.698   2.766
  279SOL    HW1  853   1.020   1.641   2.787
  279SOL    HW2  854   0.891   1.658   2.689
  280SOL     OW  855   0.382   0.700   2.342
  280SOL    HW1  856   0.427   0.610   2.339
  280SOL    HW2  857   0.288   0.689   2.375
  281SOL     OW  858   1.547   0.222   3.591
  281SOL    HW1  859   1.542   0.259   3.683
  281SOL    HW2  860   1.475   0.153   3.579
  282SOL     OW  861   0.614   0.122   1.979
  282SOL    HW1  862   0.712   0.100   1.986
  282SOL    HW2  863   0.583   0.105   1.886
  283SOL     OW  864   0.781   0.264   3.611
  283SOL    HW1  865   0.848   0.203   3.654
  283SOL    HW2  866   0.708   0.283   3.676
  284SOL     OW  867   0.888   1.514   3.057
  284SOL    HW1  868   0.865   1.489   2.963
  284SOL    HW2  869   0.949   1.445   3.096
  285SOL     OW  870   1.351   0.590   3.295
  285SOL    HW1  871   1.379   0.547   3.380
  285SOL    HW2  872   1.376   0.686   3.296
  286SOL     OW  873   0.803   1.402   2.786
  286SOL    HW1  874   0.893   1.416   2.744
  286SOL    HW2  875   0.732   1.404   2.715
  287SOL     OW  876   0.922   0.503   2.761
  287SOL    HW1  877   0.897   0.494   2.665
  287SOL    HW2  878   0.970   0.421   2.792
  288SOL     OW  879   0.539   0.064   2.374
  288SOL    HW1  880   0.458   0.065   2.432
  288SOL    HW2  881   0.542   0.147   2.319
  289SOL     OW  882   1.434   1.188   1.903
  289SOL    HW1  883   1.466   1.112   1.960
  289SOL    HW2  884   1.342   1.215   1.933
  290SOL     OW  885   0.297   0.035   2.033
  290SOL    HW1  886   0.346   0.119   2.012
  290SOL    HW2  887   0.359  -0.030   2.078
  291SOL     OW  888   0.935   0.236   2.342
  291SOL    HW1  889   0.887   0.277   2.264
  291SOL    HW2  890   1.034   0.234   2.323
  292SOL     OW  891   1.076   0.683   3.326
  292SOL    HW1  892   0.996   0.622   3.329
  292SOL    HW2  893   1.157   0.630   3.302
  293SOL     OW  894   1.227   1.570   2.655
  293SOL    HW1  895   1.248   1.644   2.590
  293SOL    HW2  896   1.295   1.570   2.728
  294SOL     OW  897   0.459   1.152   2.603
  294SOL    HW1  898   0.388   1.125   2.668
  294SOL    HW2  899   0.433   1.124   2.510
  295SOL     OW  900   1.271   1.797   2.453
  295SOL    HW1  901   1.315   1.861   2.389
  295SOL    HW2  902   1.221   1.849   2.523
  296SOL     OW  903   1.032   0.549   1.878
  296SOL    HW1  904   0.991   0.631   1.839
  296SOL    HW2  905   1.096   0.575   1.951
  297SOL     OW  906   0.078   0.556   3.248
  297SOL    HW1  907   0.170   0.555   3.207
  297SOL    HW2  908   0.072   0.630   3.315
  298SOL     OW  909   0.561   0.222   3.009
  298SOL    HW1  910   0.599   0.138   3.046
  298SOL    HW2  911   0.473   0.241   3.053
  299SOL     OW  912   0.866   0.454   2.504
  299SOL    HW1  913   0.834   0.526   2.442
  299SOL    HW2  914   0.890   0.373   2.451
  300SOL     OW  915   1.017   0.039   2.615
  300SOL    HW1  916   0.945   0.044   2.546
  300SOL    HW2  917   0.993  -0.030   2.684
  301SOL     OW  918   1.429   1.173   2.729
  301SOL    HW1  919   1.374   1.089   2.722
  301SOL    HW2  920   1.455   1.202   2.637
  302SOL     OW  921   1.466   0.590   2.854
  302SOL    HW1  922   1.436   0.495   2.861
  302SOL    HW2  923   1.539   0.606   2.920
  303SOL     OW  924   1.857   0.833   2.239
  303SOL    HW1  925   1.899   0.769   2.303
  303SOL    HW2  926   1.819   0.782   2.161
  304SOL     OW  927   0.488   1.385   2.036
  304SOL    HW1  928   0.401   1.370   2.083
  304SOL    HW2  929   0.471   1.411   1.941
  305SOL     OW  930   1.664   1.280   2.519
  305SOL    HW1  931   1.763   1.288   2.533
  305SOL    HW2  932   1.619   1.364   2.550
  306SOL     OW  933   1.390   0.575   1.940
  306SOL    HW1  934   1.336   0.554   2.021
  306SOL    HW2  935   1.481   0.534   1.949
  307SOL     OW  936   0.527   0.256   2.190
  307SOL    HW1  937   0.554   0.197   2.115
  307SOL    HW2  938   0.527   0.351   2.159
  308SOL     OW  939   1.754   1.223   3.450
  308SOL    HW1  940   1.845   1.184   3.437
  308SOL    HW2  941   1.762   1.319   3.474
  309SOL     OW  942   1.064   1.347   3.202
  309SOL    HW1  943   0.984   1.324   3.257
  309SOL    HW2  944   1.147   1.321   3.251
  310SOL     OW  945   1.592   1.629   3.487
  310SOL    HW1  946   1.619   1.663   3.397
  310SOL    HW2  947   1.671   1.591   3.533
  311SOL     OW  948   1.111   1.195   2.962
  311SOL    HW1  949   1.071   1.239   3.043
  311SOL    HW2  950   1.070   1.232   2.879
  312SOL     OW  951   1.638   1.099   2.941
  312SOL    HW1  952   1.643   1.180   3.000
  312SOL    HW2  953   1.552   1.101   2.890
  313SOL     OW  954   0.915   0.089   3.264
  313SOL    HW1  955   0.940   0.069   3.169
  313SOL    HW2  956   0.987   0.145   3.306
  314SOL     OW  957   0.980   1.116   3.581
  314SOL    HW1  958   0.881   1.122   3.591
  314SOL    HW2  959   1.003   1.036   3.525
  315SOL     OW  960   0.705   1.050   2.230
  315SOL    HW1  961   0.691   1.057   2.329
  315SOL    HW2  962   0.789   0.999   2.212
  316SOL     OW  963   0.410   0.813   3.113
  316SOL    HW1  964   0.496   0.825   3.163
  316SOL    HW2  965   0.368   0.726   3.140
  317SOL     OW  966   1.274   0.386   3.124
  317SOL    HW1  967   1.295   0.460   3.188
  317SOL    HW2  968   1.185   0.403   3.081
  318SOL     OW  969   0.064   1.564   3.193
  318SOL    HW1  970   0.018   1.646   3.159
  318SOL    HW2  971   0.162   1.583   3.202
  319SOL     OW  972   0.367   1.100   2.363
  319SOL    HW1  973   0.360   1.183   2.307
  319SOL    HW2  974   0.371   1.020   2.303
  320SOL     OW  975   0.566   0.537   2.727
  320SOL    HW1  976   0.578   0.603   2.653
  320SOL    HW2  977   0.612   0.571   2.810
  321SOL     OW  978   1.252   1.348   2.250
  321SOL    HW1  979   1.302   1.425   2.290
  321SOL    HW2  980   1.157   1.350   2.282
  322SOL     OW  981   1.272   1.445   3.004
  322SOL    HW1  982   1.319   1.458   3.091
  322SOL    HW2  983   1.206   1.371   3.013
  323SOL     OW  984   1.582   0.639   2.334
  323SOL    HW1  985   1.551   0.700   2.407
  323SOL    HW2  986   1.632   0.691   2.265
  324SOL     OW  987   0.354   1.510   3.191
  324SOL    HW1  988   0.333   1.466   3.104
  324SOL    HW2  989   0.451   1.536   3.194
  325SOL     OW  990   0.402   0.751   3.460
  325SOL    HW1  991   0.470   0.806   3.413
  325SOL    HW2  992   0.442   0.663   3.487
  326SOL     OW  993   1.587   0.779   3.532
  326SOL    HW1  994   1.495   0.817   3.527
  326SOL    HW2  995   1.647   0.826   3.467
  327SOL     OW  996   1.013   0.105   3.632
  327SOL    HW1  997   1.019   0.190   3.580
  327SOL    HW2  998   1.045   0.029   3.575
  328SOL     OW  999   0.504   0.050   3.602
  328SOL    HW1 1000   0.462  -0.007   3.532
  328SOL    HW2 1001   0.438   0.119   3.634
  329SOL     OW 1002   0.573   0.870   2.891
  329SOL    HW1 1003   0.617   0.959   2.882
  329SOL    HW2 1004   0.510   0.870   2.968
  330SOL     OW 1005   1.360   0.862   2.907
  330SOL    HW1 1006   1.285   0.862   2.841
  330SOL    HW2 1007   1.397   0.770   2.916
  331SOL     OW 1008   1.209   0.525   2.137
  331SOL    HW1 1009   1.222   0.441   2.191
  331SOL    HW2 1010   1.180   0.599   2.197
  332SOL     OW 1011   0.307   0.213   3.093
  332SOL    HW1 1012   0.284   0.250   3.183
  332SOL    HW2 1013   0.277   0.118   3.087
  333SOL     OW 1014   0.037   1.310   3.144
  333SOL    HW1 1015   0.090   1.261   3.212
  333SOL    HW2 1016   0.059   1.408   3.149
  334SOL     OW 1017   0.732   0.634   2.926
  334SOL    HW1 1018   0.791   0.608   2.850
  334SOL    HW2 1019   0.704   0.730   2.915
  335SOL     OW 1020   1.728   0.935   3.716
  335SOL    HW1 1021   1.682   0.928   3.627
  335SOL    HW2 1022   1.666   0.979   3.782
  336SOL     OW 1023   0.307   0.063   2.480
  336SOL    HW1 1024   0.296   0.157   2.513
  336SOL    HW2 1025   0.302   0.000   2.557
  337SOL     OW 1026   1.622   0.367   2.236
  337SOL    HW1 1027   1.624   0.291   2.300
  337SOL    HW2 1028   1.574   0.444   2.276
  338SOL     OW 1029   1.023   0.766   2.828
  338SOL    HW1 1030   1.038   0.787   2.924
  338SOL    HW2 1031   0.993   0.671   2.819
  339SOL     OW 1032   0.980   1.573   3.562
  339SOL    HW1 1033   0.960   1.617   3.474
  339SOL    HW2 1034   1.019   1.482   3.546
  340SOL     OW 1035   1.859   1.518   3.467
  340SOL    HW1 1036   1.873   1.545   3.372
  340SOL    HW2 1037   1.942   1.540   3.520
  341SOL     OW 1038   0.350   0.898   3.666
  341SOL    HW1 1039   0.426   0.942   3.714
  341SOL    HW2 1040   0.385   0.851   3.584
  342SOL     OW 1041   1.540   0.274   1.987
  342SOL    HW1 1042   1.479   0.199   2.010
  342SOL    HW2 1043   1.562   0.326   2.070
  343SOL     OW 1044   1.303   0.838   1.904
  343SOL    HW1 1045   1.337   0.745   1.919
  343SOL    HW2 1046   1.321   0.865   1.809
  344SOL     OW 1047   1.068   1.333   2.711
  344SOL    HW1 1048   1.075   1.249   2.656
  344SOL    HW2 1049   1.130   1.402   2.675
  345SOL     OW 1050   0.319   0.810   2.811
  345SOL    HW1 1051   0.412   0.846   2.816
  345SOL    HW2 1052   0.313   0.725   2.863
  346SOL     OW 1053   0.339   0.509   2.868
  346SOL    HW1 1054   0.287   0.426   2.851
  346SOL    HW2 1055   0.416   0.514   2.804
  347SOL     OW 1056   1.138   0.380   3.540
  347SOL    HW1 1057   1.093   0.443   3.604
  347SOL    HW2 1058   1.231   0.411   3.523
  348SOL     OW 1059   1.160   0.207   3.339
  348SOL    HW1 1060   1.160   0.271   3.416
  348SOL    HW2 1061   1.188   0.255   3.256
  349SOL     OW 1062   0.008   1.326   2.062
  349SOL    HW1 1063  -0.085   1.347   2.031
  349SOL    HW2 1064   0.018   1.227   2.075
  350SOL     OW 1065   0.088   1.801   2.789
  350SOL    HW1 1066   0.046   1.715   2.762
  350SOL    HW2 1067   0.182   1.804   2.755
  351SOL     OW 1068   0.504   1.568   2.772
  351SOL    HW1 1069   0.570   1.642   2.781
  351SOL    HW2 1070   0.548   1.489   2.730
  352SOL     OW 1071   1.002   0.796   3.100
  352SOL    HW1 1072   1.043   0.764   3.186
  352SOL    HW2 1073   0.906   0.769   3.097
  353SOL     OW 1074   0.040   0.544   2.976
  353SOL    HW1 1075   0.125   0.511   2.935
  353SOL    HW2 1076   0.053   0.559   3.074
  354SOL     OW 1077   0.189   0.520   3.584
  354SOL    HW1 1078   0.248   0.480   3.514
  354SOL    HW2 1079   0.131   0.591   3.543
  355SOL     OW 1080   1.369   0.950   3.522
  355SOL    HW1 1081   1.408   1.039   3.542
  355SOL    HW2 1082   1.379   0.930   3.425
  356SOL     OW 1083   0.815   0.572   2.187
  356SOL    HW1 1084   0.822   0.483   2.141
  356SOL    HW2 1085   0.721   0.606   2.179
  357SOL     OW 1086   1.657   0.604   3.068
  357SOL    HW1 1087   1.619   0.535   3.130
  357SOL    HW2 1088   1.739   0.568   3.024
  358SOL     OW 1089   0.252   1.564   3.606
  358SOL    HW1 1090   0.222   1.621   3.682
  358SOL    HW2 1091   0.245   1.467   3.632
  359SOL     OW 1092   0.671   0.464   3.131
  359SOL    HW1 1093   0.637   0.375   3.101
  359SOL    HW2 1094   0.697   0.518   3.051
  360SOL     OW 1095   0.930   1.678   3.327
  360SOL    HW1 1096   0.906   1.660   3.232
  360SOL    HW2 1097   0.960   1.772   3.337
  361SOL     OW 1098   0.473   0.500   2.053
  361SOL    HW1 1099   0.534   0.580   2.057
  361SOL    HW2 1100   0.378   0.531   2.060
  362SOL     OW 1101   0.159   1.137   3.328
  362SOL    HW1 1102   0.181   1.076   3.404
  362SOL    HW2 1103   0.169   1.088   3.242
  363SOL     OW 1104   1.347   1.059   3.096
  363SOL    HW1 1105   1.371   0.996   3.022
  363SOL    HW2 1106   1.257   1.099   3.078
  364SOL     OW 1107   1.302   0.855   2.171
  364SOL    HW1 1108   1.216   0.824   2.213
  364SOL    HW2 1109   1.298   0.841   2.072
  365SOL     OW 1110   1.759   1.747   3.016
  365SOL    HW1 1111   1.820   1.777   2.943
  365SOL    HW2 1112   1.721   1.658   2.994
  366SOL     OW 1113   1.252   1.731   2.990
  366SOL    HW1 1114   1.336   1.736   2.936
  366SOL    HW2 1115   1.229   1.635   3.008
  367SOL     OW 1116   0.083   1.258   2.884
  367SOL    HW1 1117   0.078   1.257   2.984
  367SOL    HW2 1118   0.000   1.217   2.846
  368SOL     OW 1119   0.688   1.662   3.578
  368SOL    HW1 1120   0.632   1.743   3.587
  368SOL    HW2 1121   0.740   1.666   3.492
  369SOL     OW 1122   1.726   0.135   2.385
  369SOL    HW1 1123   1.799   0.118   2.318
  369SOL    HW2 1124   1.695   0.048   2.423
  370SOL     OW 1125   1.388   1.573   2.339
  370SOL    HW1 1126   1.455   1.585   2.265
  370SOL    HW2 1127   1.348   1.662   2.362
  371SOL     OW 1128   0.130   1.794   3.713
  371SOL    HW1 1129   0.089   1.720   3.766
  371SOL    HW2 1130   0.194   1.845   3.771
  372SOL     OW 1131   1.280   0.927   2.534
  372SOL    HW1 1132   1.340   0.846   2.536
  372SOL    HW2 1133   1.320   0.996   2.474
  373SOL     OW 1134   0.830   1.273   3.284
  373SOL    HW1 1135   0.825   1.306   3.379
  373SOL    HW2 1136   0.744   1.292   3.238
  374SOL     OW 1137   0.672   1.616   2.016
  374SOL    HW1 1138   0.681   1.626   1.917
  374SOL    HW2 1139   0.632   1.527   2.037
  375SOL     OW 1140   1.650   1.720   3.256
  375SOL    HW1 1141   1.703   1.730   3.172
  375SOL    HW2 1142   1.623   1.810   3.290
  376SOL     OW 1143   1.841   0.175   2.825
  376SOL    HW1 1144   1.880   0.090   2.789
  376SOL    HW2 1145   1.743   0.177   2.806
  377SOL     OW 1146   0.263   0.326   2.582
  377SOL    HW1 1147   0.184   0.377   2.548
  377SOL    HW2 1148   0.254   0.311   2.680
  378SOL     OW 1149   1.194   1.612   1.893
  378SOL    HW1 1150   1.200   1.519   1.930
  378SOL    HW2 1151   1.135   1.612   1.813
  379SOL     OW 1152   0.822   1.002   3.234
  379SOL    HW1 1153   0.862   1.001   3.142
  379SOL    HW2 1154   0.832   1.094   3.274
  380SOL     OW 1155   0.916   0.910   2.153
  380SOL    HW1 1156   0.979   0.948   2.085
  380SOL    HW2 1157   0.956   0.827   2.192
  381SOL     OW 1158   1.504   1.607   1.906
  381SOL    HW1 1159   1.412   1.644   1.913
  381SOL    HW2 1160   1.542   1.627   1.816
  382SOL     OW 1161   0.372   1.288   3.352
  382SOL    HW1 1162   0.359   1.381   3.318
  382SOL    HW2 1163   0.288   1.236   3.339
  383SOL     OW 1164   1.614   1.292   3.151
  383SOL    HW1 1165   1.674   1.295   3.231
  383SOL    HW2 1166   1.539   1.356   3.164
  384SOL     OW 1167   1.039   1.098   2.558
  384SOL    HW1 1168   0.969   1.051   2.612
  384SOL    HW2 1169   1.098   1.030   2.515
  385SOL     OW 1170   1.014   0.236   2.833
  385SOL    HW1 1171   1.006   0.200   2.740
  385SOL    HW2 1172   1.012   0.160   2.898
  386SOL     OW 1173   0.590   1.487   2.353
  386SOL    HW1 1174   0.632   1.429   2.283
  386SOL    HW2 1175   0.546   1.566   2.309
  387SOL     OW 1176   1.709   0.385   3.243
  387SOL    HW1 1177   1.782   0.454   3.247
  387SOL    HW2 1178   1.737   0.310   3.184
  388SOL     OW 1179   0.255   1.348   2.152
  388SOL    HW1 1180   0.159   1.349   2.125
  388SOL    HW2 1181   0.267   1.401   2.236
  389SOL     OW 1182   0.105   1.013   3.588
  389SOL    HW1 1183   0.028   0.980   3.642
  389SOL    HW2 1184   0.190   0.983   3.630
  390SOL     OW 1185   0.672   0.203   3.351
  390SOL    HW1 1186   0.762   0.187   3.311
  390SOL    HW2 1187   0.680   0.208   3.450
  391SOL     OW 1188   0.075   0.345   1.895
  391SOL    HW1 1189  -0.017   0.317   1.866
  391SOL    HW2 1190   0.106   0.422   1.839
  392SOL     OW 1191   1.440   0.856   3.260
  392SOL    HW1 1192   1.383   0.908   3.197
  392SOL    HW2 1193   1.536   0.868   3.236
  393SOL     OW 1194   0.072   0.166   2.180
  393SOL    HW1 1195   0.055   0.249   2.126
  393SOL    HW2 1196   0.162   0.129   2.158
  394SOL     OW 1197   1.183   1.335   1.981
  394SOL    HW1 1198   1.084   1.324   1.983
  394SOL    HW2 1199   1.217   1.350   2.074
  395SOL     OW 1200   0.613   0.842   3.293
  395SOL    HW1 1201   0.669   0.923   3.276
  395SOL    HW2 1202   0.672   0.762   3.296
  396SOL     OW 1203   1.493   1.767   2.821
  396SOL    HW1 1204   1.526   1.831   2.752
  396SOL    HW2 1205   1.559   1.761   2.896
  397SOL     OW 1206   0.716   0.565   3.570
  397SOL    HW1 1207   0.735   0.630   3.644
  397SOL    HW2 1208   0.776   0.485   3.579
  398SOL     OW 1209   1.450   1.220   3.495
  398SOL    HW1 1210   1.441   1.210   3.594
  398SOL    HW2 1211   1.546   1.213   3.469
  399SOL     OW 1212   0.390   1.741   3.422
  399SOL    HW1 1213   0.299   1.782   3.420
  399SOL    HW2 1214   0.383   1.647   3.454
  400SOL     OW 1215   1.674   0.883   3.116
  400SOL    HW1 1216   1.647   0.794   3.079
  400SOL    HW2 1217   1.675   0.951   3.043
  401SOL     OW 1218   1.225   0.325   2.311
  401SOL    HW1 1219   1.290   0.251   2.300
  401SOL    HW2 1220   1.245   0.375   2.395
  402SOL     OW 1221   0.594   0.745   2.514
  402SOL    HW1 1222   0.644   0.830   2.495
  402SOL    HW2 1223   0.506   0.747   2.466
  403SOL     OW 1224   1.777   0.342   3.504
  403SOL    HW1 1225   1.760   0.373   3.410
  403SOL    HW2 1226   1.693   0.305   3.542
  404SOL     OW 1227   1.730   0.934   3.379
  404SOL    HW1 1228   1.768   1.025   3.394
  404SOL    HW2 1229   1.722   0.917   3.280
  405SOL     OW 1230   0.859   1.374   1.878
  405SOL    HW1 1231   0.813   1.389   1.966
  405SOL    HW2 1232   0.903   1.459   1.848
  406SOL     OW 1233   0.661   1.790   2.815
  406SOL    HW1 1234   0.615   1.878   2.802
  406SOL    HW2 1235   0.760   1.802   2.808
  407SOL     OW 1236   0.859   0.956   2.723
  407SOL    HW1 1237   0.913   0.887   2.771
  407SOL    HW2 1238   0.827   1.025   2.789
  408SOL     OW 1239   1.083   0.984   1.949
  408SOL    HW1 1240   1.060   1.037   1.867
  408SOL    HW2 1241   1.164   0.928   1.930
  409SOL     OW 1242   1.861   1.569   2.713
  409SOL    HW1 1243   1.790   1.557   2.643
  409SOL    HW2 1244   1.862   1.490   2.773
  410SOL     OW 1245   0.221   1.314   3.706
  410SOL    HW1 1246   0.156   1.241   3.685
  410SOL    HW2 1247   0.225   1.328   3.804
  411SOL     OW 1248   0.079   1.240   2.515
  411SOL    HW1 1249   0.078   1.193   2.603
  411SOL    HW2 1250   0.161   1.212   2.464
  412SOL     OW 1251   0.672   1.391   3.486
  412SOL    HW1 1252   0.594   1.341   3.524
  412SOL    HW2 1253   0.669   1.486   3.517
  413SOL     OW 1254   1.824   0.192   3.089
  413SOL    HW1 1255   1.820   0.102   3.133
  413SOL    HW2 1256   1.827   0.181   2.990
  414SOL     OW 1257   0.428   0.424   2.382
  414SOL    HW1 1258   0.458   0.352   2.320
  414SOL    HW2 1259   0.389   0.384   2.465
  415SOL     OW 1260   1.705   1.487   2.966
  415SOL    HW1 1261   1.612   1.462   2.939
  415SOL    HW2 1262   1.731   1.437   3.048
  416SOL     OW 1263   0.317   0.547   3.142
  416SOL    HW1 1264   0.355   0.488   3.214
  416SOL    HW2 1265   0.357   0.521   3.054
  417SOL     OW 1266   0.812   1.586   2.549
  417SOL    HW1 1267   0.844   1.596   2.455
  417SOL    HW2 1268   0.733   1.524   2.551
  418SOL     OW 1269   1.424   0.214   2.974
  418SOL    HW1 1270   1.476   0.149   3.029
  418SOL    HW2 1271   1.375   0.277   3.035
  419SOL     OW 1272   1.001   0.034   3.016
  419SOL    HW1 1273   0.938  -0.038   2.985
  419SOL    HW2 1274   1.094  -0.002   3.016
  420SOL     OW 1275   0.770   1.330   2.163
  420SOL    HW1 1276   0.724   1.243   2.180
  420SOL    HW2 1277   0.861   1.327   2.204
  421SOL     OW 1278   0.618   1.567   3.146
  421SOL    HW1 1279   0.613   1.649   3.203
  421SOL    HW2 1280   0.707   1.564   3.101
  422SOL     OW 1281   1.352   0.052   2.030
  422SOL    HW1 1282   1.387   0.011   1.946
  422SOL    HW2 1283   1.262   0.014   2.050
  423SOL     OW 1284   1.300   0.453   2.553
  423SOL    HW1 1285   1.241   0.533   2.557
  423SOL    HW2 1286   1.315   0.418   2.646
  424SOL     OW 1287   1.593   0.221   2.744
  424SOL    HW1 1288   1.509   0.220   2.798
  424SOL    HW2 1289   1.595   0.304   2.688
  425SOL     OW 1290   0.039   1.077   2.162
  425SOL    HW1 1291   0.138   1.066   2.153
  425SOL    HW2 1292  -0.001   0.991   2.194
  426SOL     OW 1293   0.875   1.646   2.199
  426SOL    HW1 1294   0.798   1.611   2.145
  426SOL    HW2 1295   0.843   1.717   2.261
  427SOL     OW 1296   0.230   0.628   3.837
  427SOL    HW1 1297   0.137   0.626   3.874
  427SOL    HW2 1298   0.231   0.589   3.745
  428SOL     OW 1299   0.225   0.275   4.720
  428SOL    HW1 1300   0.260   0.258   4.812
  428SOL    HW2 1301   0.137   0.230   4.708
  429SOL     OW 1302   0.019   0.368   4.371
  429SOL    HW1 1303  -0.063   0.411   4.410
  429SOL    HW2 1304  -0.009   0.295   4.308
  430SOL     OW 1305   1.555   1.511   4.427
  430SOL    HW1 1306   1.498   1.495   4.508
  430SOL    HW2 1307   1.496   1.521   4.347
  431SOL     OW 1308   1.135   0.703   4.441
  431SOL    HW1 1309   1.192   0.781   4.416
  431SOL    HW2 1310   1.075   0.729   4.517
  432SOL     OW 1311   1.755   0.607   3.955
  432SOL    HW1 1312   1.743   0.594   3.856
  432SOL    HW2 1313   1.725   0.526   4.004
  433SOL     OW 1314   0.768   1.144   4.747
  433SOL    HW1 1315   0.690   1.161   4.807
  433SOL    HW2 1316   0.802   1.231   4.711
  434SOL     OW 1317   0.685   1.012   4.389
  434SOL    HW1 1318   0.754   0.996   4.459
  434SOL    HW2 1319   0.612   1.069   4.427
  435SOL     OW 1320   0.335   1.435   4.785
  435SOL    HW1 1321   0.257   1.404   4.732
  435SOL    HW2 1322   0.393   1.493   4.728
  436SOL     OW 1323   1.603   0.447   4.461
  436SOL    HW1 1324   1.529   0.493   4.411
  436SOL    HW2 1325   1.654   0.515   4.514
  437SOL     OW 1326   0.231   1.713   4.207
  437SOL    HW1 1327   0.265   1.790   4.261
  437SOL    HW2 1328   0.275   1.713   4.117
  438SOL     OW 1329   0.230   1.434   4.262
  438SOL    HW1 1330   0.204   1.530   4.262
  438SOL    HW2 1331   0.159   1.380   4.307
  439SOL     OW 1332   0.240   1.091   4.610
  439SOL    HW1 1333   0.254   1.007   4.662
  439SOL    HW2 1334   0.185   1.155   4.665
  440SOL     OW 1335   0.606   0.964   3.847
  440SOL    HW1 1336   0.613   1.048   3.793
  440SOL    HW2 1337   0.652   0.977   3.935
  441SOL     OW 1338   0.122   0.643   4.287
  441SOL    HW1 1339   0.077   0.555   4.304
  441SOL    HW2 1340   0.121   0.697   4.371
  442SOL     OW 1341   1.842   1.767   4.083
  442SOL    HW1 1342   1.896   1.738   4.163
  442SOL    HW2 1343   1.872   1.857   4.054
  443SOL     OW 1344   0.027   1.596   3.841
  443SOL    HW1 1345   0.008   1.500   3.862
  443SOL    HW2 1346  -0.006   1.654   3.916
  444SOL     OW 1347   1.689   0.922   4.336
  444SOL    HW1 1348   1.784   0.893   4.344
  444SOL    HW2 1349   1.681   0.987   4.261
  445SOL     OW 1350   1.641   1.108   4.156
  445SOL    HW1 1351   1.727   1.110   4.104
  445SOL    HW2 1352   1.655   1.155   4.244
  446SOL     OW 1353   0.613   1.365   4.450
  446SOL    HW1 1354   0.564   1.278   4.459
  446SOL    HW2 1355   0.590   1.408   4.363
  447SOL     OW 1356   0.809   0.004   4.226
  447SOL    HW1 1357   0.849   0.095   4.217
  447SOL    HW2 1358   0.709   0.012   4.232
  448SOL     OW 1359   1.525   0.999   3.914
  448SOL    HW1 1360   1.462   0.923   3.927
  448SOL    HW2 1361   1.573   1.017   4.000
  449SOL     OW 1362   1.466   1.417   4.677
  449SOL    HW1 1363   1.407   1.423   4.757
  449SOL    HW2 1364   1.451   1.329   4.631
  450SOL     OW 1365   1.667   1.714   4.296
  450SOL    HW1 1366   1.626   1.691   4.208
  450SOL    HW2 1367   1.649   1.640   4.361
  451SOL     OW 1368   0.598   0.729   3.994
  451SOL    HW1 1369   0.622   0.798   3.926
  451SOL    HW2 1370   0.520   0.762   4.048
  452SOL     OW 1371   1.281   0.345   4.668
  452SOL    HW1 1372   1.195   0.295   4.655
  452SOL    HW2 1373   1.343   0.291   4.724
  453SOL     OW 1374   1.576   1.662   4.031
  453SOL    HW1 1375   1.665   1.708   4.034
  453SOL    HW2 1376   1.555   1.638   3.936
  454SOL     OW 1377   1.041   0.701   4.153
  454SOL    HW1 1378   1.067   0.697   4.249
  454SOL    HW2 1379   0.956   0.650   4.139
  455SOL     OW 1380   0.076   0.811   4.513
  455SOL    HW1 1381   0.175   0.799   4.522
  455SOL    HW2 1382   0.052   0.906   4.534
  456SOL     OW 1383   0.865   0.348   3.919
  456SOL    HW1 1384   0.924   0.411   3.870
  456SOL    HW2 1385   0.884   0.254   3.890
  457SOL     OW 1386   1.362   1.144   4.269
  457SOL    HW1 1387   1.445   1.115   4.221
  457SOL    HW2 1388   1.313   1.211   4.213
  458SOL     OW 1389   0.550   0.196   4.609
  458SOL    HW1 1390   0.545   0.191   4.709
  458SOL    HW2 1391   0.552   0.292   4.580
  459SOL     OW 1392   1.008   1.456   4.201
  459SOL    HW1 1393   0.962   1.528   4.149
  459SOL    HW2 1394   1.004   1.476   4.299
  460SOL     OW 1395   0.351   1.801   4.577
  460SOL    HW1 1396   0.401   1.715   4.583
  460SOL    HW2 1397   0.416   1.878   4.574
  461SOL     OW 1398   1.795   1.066   4.597
  461SOL    HW1 1399   1.733   1.051   4.521
  461SOL    HW2 1400   1.743   1.077   4.682
  462SOL     OW 1401   0.321   0.943   3.966
  462SOL    HW1 1402   0.403   0.982   3.924
  462SOL    HW2 1403   0.294   0.861   3.917
  463SOL     OW 1404   1.458   0.735   4.452
  463SOL    HW1 1405   1.453   0.670   4.527
  463SOL    HW2 1406   1.538   0.794   4.465
  464SOL     OW 1407   1.111   1.776   3.961
  464SOL    HW1 1408   1.051   1.714   4.011
  464SOL    HW2 1409   1.142   1.732   3.876
  465SOL     OW 1410   1.632   1.377   3.805
  465SOL    HW1 1411   1.600   1.471   3.795
  465SOL    HW2 1412   1.556   1.314   3.793
  466SOL     OW 1413   0.464   1.743   4.047
  466SOL    HW1 1414   0.497   1.782   4.133
  466SOL    HW2 1415   0.540   1.736   3.982
  467SOL     OW 1416   1.400   0.107   4.150
  467SOL    HW1 1417   1.376   0.070   4.060
  467SOL    HW2 1418   1.499   0.123   4.154
  468SOL     OW 1419   0.249   1.785   4.965
  468SOL    HW1 1420   0.306   1.720   5.015
  468SOL    HW2 1421   0.233   1.752   4.872
  469SOL     OW 1422   0.940   1.698   4.628
  469SOL    HW1 1423   1.020   1.641   4.649
  469SOL    HW2 1424   0.891   1.658   4.551
  470SOL     OW 1425   0.382   0.700   4.204
  470SOL    HW1 1426   0.427   0.610   4.201
  470SOL    HW2 1427   0.288   0.689   4.237
  471SOL     OW 1428   0.614   0.122   3.841
  471SOL    HW1 1429   0.712   0.100   3.848
  471SOL    HW2 1430   0.583   0.105   3.748
  472SOL     OW 1431   0.803   1.402   4.648
  472SOL    HW1 1432   0.893   1.416   4.606
  472SOL    HW2 1433   0.732   1.404   4.577
  473SOL     OW 1434   0.922   0.503   4.623
  473SOL    HW1 1435   0.897   0.494   4.527
  473SOL    HW2 1436   0.970   0.421   4.654
  474SOL     OW 1437   0.539   0.064   4.236
  474SOL    HW1 1438   0.458   0.065   4.294
  474SOL    HW2 1439   0.542   0.147   4.181
  475SOL     OW 1440   1.434   1.188   3.765
  475SOL    HW1 1441   1.466   1.112   3.822
  475SOL    HW2 1442   1.342   1.215   3.795
  476SOL     OW 1443   0.297   0.035   3.895
  476SOL    HW1 1444   0.346   0.119   3.874
  476SOL    HW2 1445   0.359  -0.030   3.940
  477SOL     OW 1446   0.935   0.236   4.204
  477SOL    HW1 1447   0.887   0.277   4.126
  477SOL    HW2 1448   1.034   0.234   4.185
  478SOL     OW 1449   1.227   1.570   4.517
  478SOL    HW1 1450   1.248   1.644   4.452
  478SOL    HW2 1451   1.295   1.570   4.590
  479SOL     OW 1452   0.459   1.152   4.465
  479SOL    HW1 1453   0.388   1.125   4.530
  479SOL    HW2 1454   0.433   1.124   4.372
  480SOL     OW 1455   1.271   1.797   4.315
  480SOL    HW1 1456   1.315   1.861   4.251
  480SOL    HW2 1457   1.221   1.849   4.385
  481SOL     OW 1458   1.032   0.549   3.740
  481SOL    HW1 1459   0.991   0.631   3.701
  481SOL    HW2 1460   1.096   0.575   3.813
  482SOL     OW 1461   0.866   0.454   4.366
  482SOL    HW1 1462   0.834   0.526   4.304
  482SOL    HW2 1463   0.890   0.373   4.313
  483SOL     OW 1464   1.017   0.039   4.477
  483SOL    HW1 1465   0.945   0.044   4.408
  483SOL    HW2 1466   0.993  -0.030   4.546
  484SOL     OW 1467   1.429   1.173   4.591
  484SOL    HW1 1468   1.374   1.089   4.584
  484SOL    HW2 1469   1.455   1.202   4.499
  485SOL     OW 1470   1.466   0.590   4.716
  485SOL    HW1 1471   1.436   0.495   4.723
  485SOL    HW2 1472   1.539   0.606   4.782
  486SOL     OW 1473   1.857   0.833   4.101
  486SOL    HW1 1474   1.899   0.769   4.165
  486SOL    HW2 1475   1.819   0.782   4.023
  487SOL     OW 1476   0.488   1.385   3.898
  487SOL    HW1 1477   0.401   1.370   3.945
  487SOL    HW2 1478   0.471   1.411   3.803
  488SOL     OW 1479   1.664   1.280   4.381
  488SOL    HW1 1480   1.763   1.288   4.395
  488SOL    HW2 1481   1.619   1.364   4.412
  489SOL     OW 1482   1.390   0.575   3.802
  489SOL    HW1 1483   1.336   0.554   3.883
  489SOL    HW2 1484   1.481   0.534   3.811
  490SOL     OW 1485   0.527   0.256   4.052
  490SOL    HW1 1486   0.554   0.197   3.977
  490SOL    HW2 1487   0.527   0.351   4.021
  491SOL     OW 1488   1.638   1.099   4.803
  491SOL    HW1 1489   1.643   1.180   4.862
  491SOL    HW2 1490   1.552   1.101   4.752
  492SOL     OW 1491   0.705   1.050   4.092
  492SOL    HW1 1492   0.691   1.057   4.191
  492SOL    HW2 1493   0.789   0.999   4.074
  493SOL     OW 1494   0.367   1.100   4.225
  493SOL    HW1 1495   0.360   1.183   4.169
  493SOL    HW2 1496   0.371   1.020   4.165
  494SOL     OW 1497   0.566   0.537   4.589
  494SOL    HW1 1498   0.578   0.603   4.515
  494SOL    HW2 1499   0.612   0.571   4.672
  495SOL     OW 1500   1.252   1.348   4.112
  495SOL    HW1 1501   1.302   1.425   4.152
  495SOL    HW2 1502   1.157   1.350   4.144
  496SOL     OW 1503   1.582   0.639   4.196
  496SOL    HW1 1504   1.551   0.700   4.269
  496SOL    HW2 1505   1.632   0.691   4.127
  497SOL     OW 1506   0.573   0.870   4.753
  497SOL    HW1 1507   0.617   0.959   4.744
  497SOL    HW2 1508   0.510   0.870   4.830
  498SOL     OW 1509   1.209   0.525   3.999
  498SOL    HW1 1510   1.222   0.441   4.053
  498SOL    HW2 1511   1.180   0.599   4.059
  499SOL     OW 1512   0.732   0.634   4.788
  499SOL    HW1 1513   0.791   0.608   4.712
  499SOL    HW2 1514   0.704   0.730   4.777
  500SOL     OW 1515   0.307   0.063   4.342
  500SOL    HW1 1516   0.296   0.157   4.375
  500SOL    HW2 1517   0.302   0.000   4.419
  501SOL     OW 1518   1.622   0.367   4.098
  501SOL    HW1 1519   1.624   0.291   4.162
  501SOL    HW2 1520   1.574   0.444   4.138
  502SOL     OW 1521   1.540   0.274   3.849
  502SOL    HW1 1522   1.479   0.199   3.872
  502SOL    HW2 1523   1.562   0.326   3.932
  503SOL     OW 1524   1.303   0.838   3.766
  503SOL    HW1 1525   1.337   0.745   3.781
  503SOL    HW2 1526   1.321   0.865   3.671
  504SOL     OW 1527   1.068   1.333   4.573
  504SOL    HW1 1528   1.075   1.249   4.518
  504SOL    HW2 1529   1.130   1.402   4.537
  505SOL     OW 1530   0.319   0.810   4.673
  505SOL    HW1 1531   0.412   0.846   4.678
  505SOL    HW2 1532   0.313   0.725   4.725
  506SOL     OW 1533   0.339   0.509   4.730
  506SOL    HW1 1534   0.287   0.426   4.713
  506SOL    HW2 1535   0.416   0.514   4.666
  507SOL     OW 1536   0.008   1.326   3.924
  507SOL    HW1 1537  -0.085   1.347   3.893
  507SOL    HW2 1538   0.018   1.227   3.937
  508SOL     OW 1539   0.088   1.801   4.651
  508SOL    HW1 1540   0.046   1.715   4.624
  508SOL    HW2 1541   0.182   1.804   4.617
  509SOL     OW 1542   0.504   1.568   4.634
  509SOL    HW1 1543   0.570   1.642   4.643
  509SOL    HW2 1544   0.548   1.489   4.592
  510SOL     OW 1545   1.002   0.796   4.962
  510SOL    HW1 1546   1.043   0.764   5.048
  510SOL    HW2 1547   0.906   0.769   4.959
  511SOL     OW 1548   0.815   0.572   4.049
  511SOL    HW1 1549   0.822   0.483   4.003
  511SOL    HW2 1550   0.721   0.606   4.041
  512SOL     OW 1551   0.671   0.464   4.993
  512SOL    HW1 1552   0.637   0.375   4.963
  512SOL    HW2 1553   0.697   0.518   4.913
  513SOL     OW 1554   0.473   0.500   3.915
  513SOL    HW1 1555   0.534   0.580   3.919
  513SOL    HW2 1556   0.378   0.531   3.922
  514SOL     OW 1557   1.302   0.855   4.033
  514SOL    HW1 1558   1.216   0.824   4.075
  514SOL    HW2 1559   1.298   0.841   3.934
  515SOL     OW 1560   1.759   1.747   4.878
  515SOL    HW1 1561   1.820   1.777   4.805
  515SOL    HW2 1562   1.721   1.658   4.856
  516SOL     OW 1563   0.083   1.258   4.746
  516SOL    HW1 1564   0.078   1.257   4.846
  516SOL    HW2 1565   0.000   1.217   4.708
  517SOL     OW 1566   1.726   0.135   4.247
  517SOL    HW1 1567   1.799   0.118   4.180
  517SOL    HW2 1568   1.695   0.048   4.285
  518SOL     OW 1569   1.388   1.573   4.201
  518SOL    HW1 1570   1.455   1.585   4.127
  518SOL    HW2 1571   1.348   1.662   4.224
  519SOL     OW 1572   1.280   0.927   4.396
  519SOL    HW1 1573   1.340   0.846   4.398
  519SOL    HW2 1574   1.320   0.996   4.336
  520SOL     OW 1575   0.672   1.616   3.878
  520SOL    HW1 1576   0.681   1.626   3.779
  520SOL    HW2 1577   0.632   1.527   3.899
  521SOL     OW 1578   1.841   0.175   4.687
  521SOL    HW1 1579   1.880   0.090   4.651
  521SOL    HW2 1580   1.743   0.177   4.668
  522SOL     OW 1581   0.263   0.326   4.444
  522SOL    HW1 1582   0.184   0.377   4.410
  522SOL    HW2 1583   0.254   0.311   4.542
  523SOL     OW 1584   1.194   1.612   3.755
  523SOL    HW1 1585   1.200   1.519   3.792
  523SOL    HW2 1586   1.135   1.612   3.675
  524SOL     OW 1587   0.916   0.910   4.015
  524SOL    HW1 1588   0.979   0.948   3.947
  524SOL    HW2 1589   0.956   0.827   4.054
  525SOL     OW 1590   1.504   1.607   3.768
  525SOL    HW1 1591   1.412   1.644   3.775
  525SOL    HW2 1592   1.542   1.627   3.678
  526SOL     OW 1593   1.039   1.098   4.420
  526SOL    HW1 1594   0.969   1.051   4.474
  526SOL    HW2 1595   1.098   1.030   4.377
  527SOL     OW 1596   0.590   1.487   4.215
  527SOL    HW1 1597   0.632   1.429   4.145
  527SOL    HW2 1598   0.546   1.566   4.171
  528SOL     OW 1599   0.255   1.348   4.014
  528SOL    HW1 1600   0.159   1.349   3.987
  528SOL    HW2 1601   0.267   1.401   4.098
  529SOL     OW 1602   0.075   0.345   3.757
  529SOL    HW1 1603  -0.017   0.317   3.728
  529SOL    HW2 1604   0.106   0.422   3.701
  530SOL     OW 1605   0.072   0.166   4.042
  530SOL    HW1 1606   0.055   0.249   3.988
  530SOL    HW2 1607   0.162   0.129   4.020
  531SOL     OW 1608   1.183   1.335   3.843
  531SOL    HW1 1609   1.084   1.324   3.845
  531SOL    HW2 1610   1.217   1.350   3.936
  532SOL     OW 1611   1.674   0.883   4.978
  532SOL    HW1 1612   1.647   0.794   4.941
  532SOL    HW2 1613   1.675   0.951   4.905
  533SOL     OW 1614   1.225   0.325   4.173
  533SOL    HW1 1615   1.290   0.251   4.162
  533SOL    HW2 1616   1.245   0.375   4.257
  534SOL     OW 1617   0.594   0.745   4.376
  534SOL    HW1 1618   0.644   0.830   4.357
  534SOL    HW2 1619   0.506   0.747   4.328
  535SOL     OW 1620   0.859   1.374   3.740
  535SOL    HW1 1621   0.813   1.389   3.828
  535SOL    HW2 1622   0.903   1.459   3.710
  536SOL     OW 1623   0.661   1.790   4.677
  536SOL    HW1 1624   0.615   1.878   4.664
  536SOL    HW2 1625   0.760   1.802   4.670
  537SOL     OW 1626   0.859   0.956   4.585
  537SOL    HW1 1627   0.913   0.887   4.633
  537SOL    HW2 1628   0.827   1.025   4.651
  538SOL     OW 1629   1.083   0.984   3.811
  538SOL    HW1 1630   1.060   1.037   3.729
  538SOL    HW2 1631   1.164   0.928   3.792
  539SOL     OW 1632   1.861   1.569   4.575
  539SOL    HW1 1633   1.790   1.557   4.505
  539SOL    HW2 1634   1.862   1.490   4.635
  540SOL     OW 1635   0.079   1.240   4.377
  540SOL    HW1 1636   0.078   1.193   4.465
  540SOL    HW2 1637   0.161   1.212   4.326
  541SOL     OW 1638   1.824   0.192   4.951
  541SOL    HW1 1639   1.820   0.102   4.995
  541SOL    HW2 1640   1.827   0.181   4.852
  542SOL     OW 1641   0.428   0.424   4.244
  542SOL    HW1 1642   0.458   0.352   4.182
  542SOL    HW2 1643   0.389   0.384   4.327
  543SOL     OW 1644   0.812   1.586   4.411
  543SOL    HW1 1645   0.844   1.596   4.317
  543SOL    HW2 1646   0.733   1.524   4.413
  544SOL     OW 1647   0.770   1.330   4.025
  544SOL    HW1 1648   0.724   1.243   4.042
  544SOL    HW2 1649   0.861   1.327   4.066
  545SOL     OW 1650   1.352   0.052   3.892
  545SOL    HW1 1651   1.387   0.011   3.808
  545SOL    HW2 1652   1.262   0.014   3.912
  546SOL     OW 1653   1.300   0.453   4.415
  546SOL    HW1 1654   1.241   0.533   4.419
  546SOL    HW2 1655   1.315   0.418   4.508
  547SOL     OW 1656   1.593   0.221   4.606
  547SOL    HW1 1657   1.509   0.220   4.660
  547SOL    HW2 1658   1.595   0.304   4.550
  548SOL     OW 1659   0.039   1.077   4.024
  548SOL    HW1 1660   0.138   1.066   4.015
  548SOL    HW2 1661  -0.001   0.991   4.056
  549SOL     OW 1662   0.875   1.646   4.061
  549SOL    HW1 1663   0.798   1.611   4.007
  549SOL    HW2 1664   0.843   1.717   4.123
  550SOL     OW 1665   0.230   2.490   0.113
  550SOL    HW1 1666   0.137   2.488   0.150
  550SOL    HW2 1667   0.231   2.451   0.021
  551SOL     OW 1668   0.225   2.137   0.996
  551SOL    HW1 1669   0.260   2.120   1.088
  551SOL    HW2 1670   0.137   2.092   0.984
  552SOL     OW 1671   0.019   2.230   0.647
  552SOL    HW1 1672  -0.063   2.273   0.686
  552SOL    HW2 1673  -0.009   2.157   0.584
  553SOL     OW 1674   0.569   3.137   1.165
  553SOL    HW1 1675   0.476   3.130   1.128
  553SOL    HW2 1676   0.580   3.226   1.209
  554SOL     OW 1677   1.555   3.373   0.703
  554SOL    HW1 1678   1.498   3.357   0.784
  554SOL    HW2 1679   1.496   3.383   0.623
  555SOL     OW 1680   1.135   2.565   0.717
  555SOL    HW1 1681   1.192   2.643   0.692
  555SOL    HW2 1682   1.075   2.591   0.793
  556SOL     OW 1683   1.755   2.469   0.231
  556SOL    HW1 1684   1.743   2.456   0.132
  556SOL    HW2 1685   1.725   2.388   0.280
  557SOL     OW 1686   0.768   3.006   1.023
  557SOL    HW1 1687   0.690   3.023   1.083
  557SOL    HW2 1688   0.802   3.093   0.987
  558SOL     OW 1689   0.850   2.660   1.823
  558SOL    HW1 1690   0.846   2.736   1.888
  558SOL    HW2 1691   0.872   2.696   1.732
  559SOL     OW 1692   0.685   2.874   0.665
  559SOL    HW1 1693   0.754   2.858   0.735
  559SOL    HW2 1694   0.612   2.931   0.703
  560SOL     OW 1695   0.686   3.023   1.803
  560SOL    HW1 1696   0.746   3.102   1.817
  560SOL    HW2 1697   0.600   3.054   1.762
  561SOL     OW 1698   0.335   3.297   1.061
  561SOL    HW1 1699   0.257   3.266   1.008
  561SOL    HW2 1700   0.393   3.355   1.004
  562SOL     OW 1701   1.460   3.367   1.339
  562SOL    HW1 1702   1.484   3.461   1.365
  562SOL    HW2 1703   1.444   3.313   1.421
  563SOL     OW 1704   0.438   2.254   1.499
  563SOL    HW1 1705   0.520   2.198   1.508
  563SOL    HW2 1706   0.357   2.196   1.503
  564SOL     OW 1707   1.603   2.309   0.737
  564SOL    HW1 1708   1.529   2.355   0.687
  564SOL    HW2 1709   1.654   2.377   0.790
  565SOL     OW 1710   0.231   3.575   0.483
  565SOL    HW1 1711   0.265   3.652   0.537
  565SOL    HW2 1712   0.275   3.575   0.393
  566SOL     OW 1713   1.127   3.203   1.690
  566SOL    HW1 1714   1.174   3.203   1.778
  566SOL    HW2 1715   1.079   3.116   1.679
  567SOL     OW 1716   0.230   3.296   0.538
  567SOL    HW1 1717   0.204   3.392   0.538
  567SOL    HW2 1718   0.159   3.242   0.583
  568SOL     OW 1719   0.240   2.953   0.886
  568SOL    HW1 1720   0.254   2.869   0.938
  568SOL    HW2 1721   0.185   3.017   0.941
  569SOL     OW 1722   0.620   3.648   1.439
  569SOL    HW1 1723   0.528   3.631   1.474
  569SOL    HW2 1724   0.648   3.740   1.465
  570SOL     OW 1725   0.606   2.826   0.123
  570SOL    HW1 1726   0.613   2.910   0.069
  570SOL    HW2 1727   0.652   2.839   0.211
  571SOL     OW 1728   1.594   1.976   1.480
  571SOL    HW1 1729   1.576   2.043   1.408
  571SOL    HW2 1730   1.591   2.022   1.569
  572SOL     OW 1731   0.122   2.505   0.563
  572SOL    HW1 1732   0.077   2.417   0.580
  572SOL    HW2 1733   0.121   2.559   0.647
  573SOL     OW 1734   1.842   3.629   0.359
  573SOL    HW1 1735   1.896   3.600   0.439
  573SOL    HW2 1736   1.872   3.719   0.330
  574SOL     OW 1737   0.027   3.458   0.117
  574SOL    HW1 1738   0.008   3.362   0.138
  574SOL    HW2 1739  -0.006   3.516   0.192
  575SOL     OW 1740   1.689   2.784   0.612
  575SOL    HW1 1741   1.784   2.755   0.620
  575SOL    HW2 1742   1.681   2.849   0.537
  576SOL     OW 1743   1.641   2.970   0.432
  576SOL    HW1 1744   1.727   2.972   0.380
  576SOL    HW2 1745   1.655   3.017   0.520
  577SOL     OW 1746   0.113   2.599   1.597
  577SOL    HW1 1747   0.201   2.586   1.642
  577SOL    HW2 1748   0.100   2.696   1.575
  578SOL     OW 1749   0.613   3.227   0.726
  578SOL    HW1 1750   0.564   3.140   0.735
  578SOL    HW2 1751   0.590   3.270   0.639
  579SOL     OW 1752   1.293   3.090   1.423
  579SOL    HW1 1753   1.330   3.017   1.365
  579SOL    HW2 1754   1.345   3.095   1.508
  580SOL     OW 1755   0.809   1.866   0.502
  580SOL    HW1 1756   0.849   1.957   0.493
  580SOL    HW2 1757   0.709   1.874   0.508
  581SOL     OW 1758   0.197   2.838   1.264
  581SOL    HW1 1759   0.286   2.793   1.250
  581SOL    HW2 1760   0.124   2.773   1.245
  582SOL     OW 1761   1.525   2.861   0.190
  582SOL    HW1 1762   1.462   2.785   0.203
  582SOL    HW2 1763   1.573   2.879   0.276
  583SOL     OW 1764   1.187   3.654   1.616
  583SOL    HW1 1765   1.211   3.714   1.540
  583SOL    HW2 1766   1.194   3.559   1.586
  584SOL     OW 1767   0.317   2.113   1.801
  584SOL    HW1 1768   0.388   2.184   1.807
  584SOL    HW2 1769   0.229   2.152   1.829
  585SOL     OW 1770   1.466   3.279   0.953
  585SOL    HW1 1771   1.407   3.285   1.033
  585SOL    HW2 1772   1.451   3.191   0.907
  586SOL     OW 1773   1.667   3.576   0.572
  586SOL    HW1 1774   1.626   3.553   0.484
  586SOL    HW2 1775   1.649   3.502   0.637
  587SOL     OW 1776   0.598   2.591   0.270
  587SOL    HW1 1777   0.622   2.660   0.202
  587SOL    HW2 1778   0.520   2.624   0.324
  588SOL     OW 1779   1.281   2.207   0.944
  588SOL    HW1 1780   1.195   2.157   0.931
  588SOL    HW2 1781   1.343   2.153   1.000
  589SOL     OW 1782   1.576   3.524   0.307
  589SOL    HW1 1783   1.665   3.570   0.310
  589SOL    HW2 1784   1.555   3.500   0.212
  590SOL     OW 1785   0.807   2.467   1.465
  590SOL    HW1 1786   0.760   2.464   1.554
  590SOL    HW2 1787   0.756   2.412   1.399
  591SOL     OW 1788   1.394   2.331   1.674
  591SOL    HW1 1789   1.374   2.374   1.762
  591SOL    HW2 1790   1.472   2.269   1.683
  592SOL     OW 1791   0.973   2.752   1.572
  592SOL    HW1 1792   1.019   2.668   1.543
  592SOL    HW2 1793   0.917   2.786   1.497
  593SOL     OW 1794   0.991   2.272   1.242
  593SOL    HW1 1795   0.914   2.306   1.296
  593SOL    HW2 1796   0.957   2.221   1.163
  594SOL     OW 1797   1.041   2.563   0.429
  594SOL    HW1 1798   1.067   2.559   0.525
  594SOL    HW2 1799   0.956   2.512   0.415
  595SOL     OW 1800   0.076   2.673   0.789
  595SOL    HW1 1801   0.175   2.661   0.798
  595SOL    HW2 1802   0.052   2.768   0.810
  596SOL     OW 1803   0.130   3.683   1.571
  596SOL    HW1 1804   0.120   3.668   1.670
  596SOL    HW2 1805   0.044   3.719   1.535
  597SOL     OW 1806   0.865   2.210   0.195
  597SOL    HW1 1807   0.924   2.273   0.146
  597SOL    HW2 1808   0.884   2.116   0.166
  598SOL     OW 1809   1.719   2.447   1.831
  598SOL    HW1 1810   1.693   2.536   1.795
  598SOL    HW2 1811   1.717   2.379   1.758
  599SOL     OW 1812   1.362   3.006   0.545
  599SOL    HW1 1813   1.445   2.977   0.497
  599SOL    HW2 1814   1.313   3.073   0.489
  600SOL     OW 1815   0.550   2.058   0.885
  600SOL    HW1 1816   0.545   2.053   0.985
  600SOL    HW2 1817   0.552   2.154   0.856
  601SOL     OW 1818   1.008   3.318   0.477
  601SOL    HW1 1819   0.962   3.390   0.425
  601SOL    HW2 1820   1.004   3.338   0.575
  602SOL     OW 1821   0.351   3.663   0.853
  602SOL    HW1 1822   0.401   3.577   0.859
  602SOL    HW2 1823   0.416   3.740   0.850
  603SOL     OW 1824   1.795   2.928   0.873
  603SOL    HW1 1825   1.733   2.913   0.797
  603SOL    HW2 1826   1.743   2.939   0.958
  604SOL     OW 1827   1.227   3.412   1.506
  604SOL    HW1 1828   1.233   3.335   1.570
  604SOL    HW2 1829   1.175   3.386   1.426
  605SOL     OW 1830   0.321   2.805   0.242
  605SOL    HW1 1831   0.403   2.844   0.200
  605SOL    HW2 1832   0.294   2.723   0.193
  606SOL     OW 1833   1.458   2.597   0.728
  606SOL    HW1 1834   1.453   2.532   0.803
  606SOL    HW2 1835   1.538   2.656   0.741
  607SOL     OW 1836   0.461   3.128   1.727
  607SOL    HW1 1837   0.411   3.129   1.641
  607SOL    HW2 1838   0.398   3.110   1.803
  608SOL     OW 1839   1.111   3.638   0.237
  608SOL    HW1 1840   1.051   3.576   0.287
  608SOL    HW2 1841   1.142   3.594   0.152
  609SOL     OW 1842   0.202   2.147   1.498
  609SOL    HW1 1843   0.122   2.207   1.485
  609SOL    HW2 1844   0.192   2.098   1.584
  610SOL     OW 1845   1.632   3.239   0.081
  610SOL    HW1 1846   1.600   3.333   0.071
  610SOL    HW2 1847   1.556   3.176   0.069
  611SOL     OW 1848   0.464   3.605   0.323
  611SOL    HW1 1849   0.497   3.644   0.409
  611SOL    HW2 1850   0.540   3.598   0.258
  612SOL     OW 1851   1.400   1.969   0.426
  612SOL    HW1 1852   1.376   1.932   0.336
  612SOL    HW2 1853   1.499   1.985   0.430
  613SOL     OW 1854   0.249   3.647   1.241
  613SOL    HW1 1855   0.306   3.582   1.291
  613SOL    HW2 1856   0.233   3.614   1.148
  614SOL     OW 1857   0.940   3.560   0.904
  614SOL    HW1 1858   1.020   3.503   0.925
  614SOL    HW2 1859   0.891   3.520   0.827
  615SOL     OW 1860   0.382   2.562   0.480
  615SOL    HW1 1861   0.427   2.472   0.477
  615SOL    HW2 1862   0.288   2.551   0.513
  616SOL     OW 1863   1.547   2.084   1.729
  616SOL    HW1 1864   1.542   2.121   1.821
  616SOL    HW2 1865   1.475   2.015   1.717
  617SOL     OW 1866   0.614   1.984   0.117
  617SOL    HW1 1867   0.712   1.962   0.124
  617SOL    HW2 1868   0.583   1.967   0.024
  618SOL     OW 1869   0.781   2.126   1.749
  618SOL    HW1 1870   0.848   2.065   1.792
  618SOL    HW2 1871   0.708   2.145   1.814
  619SOL     OW 1872   0.888   3.376   1.195
  619SOL    HW1 1873   0.865   3.351   1.101
  619SOL    HW2 1874   0.949   3.307   1.234
  620SOL     OW 1875   1.351   2.452   1.433
  620SOL    HW1 1876   1.379   2.409   1.518
  620SOL    HW2 1877   1.376   2.548   1.434
  621SOL     OW 1878   0.803   3.264   0.924
  621SOL    HW1 1879   0.893   3.278   0.882
  621SOL    HW2 1880   0.732   3.266   0.853
  622SOL     OW 1881   0.922   2.365   0.899
  622SOL    HW1 1882   0.897   2.356   0.803
  622SOL    HW2 1883   0.970   2.283   0.930
  623SOL     OW 1884   0.539   1.926   0.512
  623SOL    HW1 1885   0.458   1.927   0.570
  623SOL    HW2 1886   0.542   2.009   0.457
  624SOL     OW 1887   1.434   3.050   0.041
  624SOL    HW1 1888   1.466   2.974   0.098
  624SOL    HW2 1889   1.342   3.077   0.071
  625SOL     OW 1890   0.935   2.098   0.480
  625SOL    HW1 1891   0.887   2.139   0.402
  625SOL    HW2 1892   1.034   2.096   0.461
  626SOL     OW 1893   1.076   2.545   1.464
  626SOL    HW1 1894   0.996   2.484   1.467
  626SOL    HW2 1895   1.157   2.492   1.440
  627SOL     OW 1896   1.227   3.432   0.793
  627SOL    HW1 1897   1.248   3.506   0.728
  627SOL    HW2 1898   1.295   3.432   0.866
  628SOL     OW 1899   0.459   3.014   0.741
  628SOL    HW1 1900   0.388   2.987   0.806
  628SOL    HW2 1901   0.433   2.986   0.648
  629SOL     OW 1902   1.271   3.659   0.591
  629SOL    HW1 1903   1.315   3.723   0.527
  629SOL    HW2 1904   1.221   3.711   0.661
  630SOL     OW 1905   1.032   2.411   0.016
  630SOL    HW1 1906   0.991   2.493  -0.023
  630SOL    HW2 1907   1.096   2.437   0.089
  631SOL     OW 1908   0.078   2.418   1.386
  631SOL    HW1 1909   0.170   2.417   1.345
  631SOL    HW2 1910   0.072   2.492   1.453
  632SOL     OW 1911   0.561   2.084   1.147
  632SOL    HW1 1912   0.599   2.000   1.184
  632SOL    HW2 1913   0.473   2.103   1.191
  633SOL     OW 1914   0.866   2.316   0.642
  633SOL    HW1 1915   0.834   2.388   0.580
  633SOL    HW2 1916   0.890   2.235   0.589
  634SOL     OW 1917   1.017   1.901   0.753
  634SOL    HW1 1918   0.945   1.906   0.684
  634SOL    HW2 1919   0.993   1.832   0.822
  635SOL     OW 1920   1.429   3.035   0.867
  635SOL    HW1 1921   1.374   2.951   0.860
  635SOL    HW2 1922   1.455   3.064   0.775
  636SOL     OW 1923   1.466   2.452   0.992
  636SOL    HW1 1924   1.436   2.357   0.999
  636SOL    HW2 1925   1.539   2.468   1.058
  637SOL     OW 1926   1.857   2.695   0.377
  637SOL    HW1 1927   1.899   2.631   0.441
  637SOL    HW2 1928   1.819   2.644   0.299
  638SOL     OW 1929   0.488   3.247   0.174
  638SOL    HW1 1930   0.401   3.232   0.221
  638SOL    HW2 1931   0.471   3.273   0.079
  639SOL     OW 1932   1.664   3.142   0.657
  639SOL    HW1 1933   1.763   3.150   0.671
  639SOL    HW2 1934   1.619   3.226   0.688
  640SOL     OW 1935   1.390   2.437   0.078
  640SOL    HW1 1936   1.336   2.416   0.159
  640SOL    HW2 1937   1.481   2.396   0.087
  641SOL     OW 1938   0.527   2.118   0.328
  641SOL    HW1 1939   0.554   2.059   0.253
  641SOL    HW2 1940   0.527   2.213   0.297
  642SOL     OW 1941   1.754   3.085   1.588
  642SOL    HW1 1942   1.845   3.046   1.575
  642SOL    HW2 1943   1.762   3.181   1.612
  643SOL     OW 1944   1.064   3.209   1.340
  643SOL    HW1 1945   0.984   3.186   1.395
  643SOL    HW2 1946   1.147   3.183   1.389
  644SOL     OW 1947   1.592   3.491   1.625
  644SOL    HW1 1948   1.619   3.525   1.535
  644SOL    HW2 1949   1.671   3.453   1.671
  645SOL     OW 1950   1.111   3.057   1.100
  645SOL    HW1 1951   1.071   3.101   1.181
  645SOL    HW2 1952   1.070   3.094   1.017
  646SOL     OW 1953   1.638   2.961   1.079
  646SOL    HW1 1954   1.643   3.042   1.138
  646SOL    HW2 1955   1.552   2.963   1.028
  647SOL     OW 1956   0.915   1.951   1.402
  647SOL    HW1 1957   0.940   1.931   1.307
  647SOL    HW2 1958   0.987   2.007   1.444
  648SOL     OW 1959   0.980   2.978   1.719
  648SOL    HW1 1960   0.881   2.984   1.729
  648SOL    HW2 1961   1.003   2.898   1.663
  649SOL     OW 1962   0.705   2.912   0.368
  649SOL    HW1 1963   0.691   2.919   0.467
  649SOL    HW2 1964   0.789   2.861   0.350
  650SOL     OW 1965   0.410   2.675   1.251
  650SOL    HW1 1966   0.496   2.687   1.301
  650SOL    HW2 1967   0.368   2.588   1.278
  651SOL     OW 1968   1.274   2.248   1.262
  651SOL    HW1 1969   1.295   2.322   1.326
  651SOL    HW2 1970   1.185   2.265   1.219
  652SOL     OW 1971   0.064   3.426   1.331
  652SOL    HW1 1972   0.018   3.508   1.297
  652SOL    HW2 1973   0.162   3.445   1.340
  653SOL     OW 1974   0.367   2.962   0.501
  653SOL    HW1 1975   0.360   3.045   0.445
  653SOL    HW2 1976   0.371   2.882   0.441
  654SOL     OW 1977   0.566   2.399   0.865
  654SOL    HW1 1978   0.578   2.465   0.791
  654SOL    HW2 1979   0.612   2.433   0.948
  655SOL     OW 1980   1.252   3.210   0.388
  655SOL    HW1 1981   1.302   3.287   0.428
  655SOL    HW2 1982   1.157   3.212   0.420
  656SOL     OW 1983   1.272   3.307   1.142
  656SOL    HW1 1984   1.319   3.320   1.229
  656SOL    HW2 1985   1.206   3.233   1.151
  657SOL     OW 1986   1.582   2.501   0.472
  657SOL    HW1 1987   1.551   2.562   0.545
  657SOL    HW2 1988   1.632   2.553   0.403
  658SOL     OW 1989   0.354   3.372   1.329
  658SOL    HW1 1990   0.333   3.328   1.242
  658SOL    HW2 1991   0.451   3.398   1.332
  659SOL     OW 1992   0.402   2.613   1.598
  659SOL    HW1 1993   0.470   2.668   1.551
  659SOL    HW2 1994   0.442   2.525   1.625
  660SOL     OW 1995   1.587   2.641   1.670
  660SOL    HW1 1996   1.495   2.679   1.665
  660SOL    HW2 1997   1.647   2.688   1.605
  661SOL     OW 1998   1.013   1.967   1.770
  661SOL    HW1 1999   1.019   2.052   1.718
  661SOL    HW2 2000   1.045   1.891   1.713
  662SOL     OW 2001   0.504   1.912   1.740
  662SOL    HW1 2002   0.462   1.855   1.670
  662SOL    HW2 2003   0.438   1.981   1.772
  663SOL     OW 2004   0.573   2.732   1.029
  663SOL    HW1 2005   0.617   2.821   1.020
  663SOL    HW2 2006   0.510   2.732   1.106
  664SOL     OW 2007   1.360   2.724   1.045
  664SOL    HW1 2008   1.285   2.724   0.979
  664SOL    HW2 2009   1.397   2.632   1.054
  665SOL     OW 2010   1.209   2.387   0.275
  665SOL    HW1 2011   1.222   2.303   0.329
  665SOL    HW2 2012   1.180   2.461   0.335
  666SOL     OW 2013   0.307   2.075   1.231
  666SOL    HW1 2014   0.284   2.112   1.321
  666SOL    HW2 2015   0.277   1.980   1.225
  667SOL     OW 2016   0.037   3.172   1.282
  667SOL    HW1 2017   0.090   3.123   1.350
  667SOL    HW2 2018   0.059   3.270   1.287
  668SOL     OW 2019   0.732   2.496   1.064
  668SOL    HW1 2020   0.791   2.470   0.988
  668SOL    HW2 2021   0.704   2.592   1.053
  669SOL     OW 2022   1.728   2.797   1.854
  669SOL    HW1 2023   1.682   2.790   1.765
  669SOL    HW2 2024   1.666   2.841   1.920
  670SOL     OW 2025   0.307   1.925   0.618
  670SOL    HW1 2026   0.296   2.019   0.651
  670SOL    HW2 2027   0.302   1.862   0.695
  671SOL     OW 2028   1.622   2.229   0.374
  671SOL    HW1 2029   1.624   2.153   0.438
  671SOL    HW2 2030   1.574   2.306   0.414
  672SOL     OW 2031   1.023   2.628   0.966
  672SOL    HW1 2032   1.038   2.649   1.062
  672SOL    HW2 2033   0.993   2.533   0.957
  673SOL     OW 2034   0.980   3.435   1.700
  673SOL    HW1 2035   0.960   3.479   1.612
  673SOL    HW2 2036   1.019   3.344   1.684
  674SOL     OW 2037   1.859   3.380   1.605
  674SOL    HW1 2038   1.873   3.407   1.510
  674SOL    HW2 2039   1.942   3.402   1.658
  675SOL     OW 2040   0.350   2.760   1.804
  675SOL    HW1 2041   0.426   2.804   1.852
  675SOL    HW2 2042   0.385   2.713   1.722
  676SOL     OW 2043   1.540   2.136   0.125
  676SOL    HW1 2044   1.479   2.061   0.148
  676SOL    HW2 2045   1.562   2.188   0.208
  677SOL     OW 2046   1.303   2.700   0.042
  677SOL    HW1 2047   1.337   2.607   0.057
  677SOL    HW2 2048   1.321   2.727  -0.053
  678SOL     OW 2049   1.068   3.195   0.849
  678SOL    HW1 2050   1.075   3.111   0.794
  678SOL    HW2 2051   1.130   3.264   0.813
  679SOL     OW 2052   0.319   2.672   0.949
  679SOL    HW1 2053   0.412   2.708   0.954
  679SOL    HW2 2054   0.313   2.587   1.001
  680SOL     OW 2055   0.339   2.371   1.006
  680SOL    HW1 2056   0.287   2.288   0.989
  680SOL    HW2 2057   0.416   2.376   0.942
  681SOL     OW 2058   1.138   2.242   1.678
  681SOL    HW1 2059   1.093   2.305   1.742
  681SOL    HW2 2060   1.231   2.273   1.661
  682SOL     OW 2061   1.160   2.069   1.477
  682SOL    HW1 2062   1.160   2.133   1.554
  682SOL    HW2 2063   1.188   2.117   1.394
  683SOL     OW 2064   0.008   3.188   0.200
  683SOL    HW1 2065  -0.085   3.209   0.169
  683SOL    HW2 2066   0.018   3.089   0.213
  684SOL     OW 2067   0.088   3.663   0.927
  684SOL    HW1 2068   0.046   3.577   0.900
  684SOL    HW2 2069   0.182   3.666   0.893
  685SOL     OW 2070   0.504   3.430   0.910
  685SOL    HW1 2071   0.570   3.504   0.919
  685SOL    HW2 2072   0.548   3.351   0.868
  686SOL     OW 2073   1.002   2.658   1.238
  686SOL    HW1 2074   1.043   2.626   1.324
  686SOL    HW2 2075   0.906   2.631   1.235
  687SOL     OW 2076   0.040   2.406   1.114
  687SOL    HW1 2077   0.125   2.373   1.073
  687SOL    HW2 2078   0.053   2.421   1.212
  688SOL     OW 2079   0.189   2.382   1.722
  688SOL    HW1 2080   0.248   2.342   1.652
  688SOL    HW2 2081   0.131   2.453   1.681
  689SOL     OW 2082   1.369   2.812   1.660
  689SOL    HW1 2083   1.408   2.901   1.680
  689SOL    HW2 2084   1.379   2.792   1.563
  690SOL     OW 2085   0.815   2.434   0.325
  690SOL    HW1 2086   0.822   2.345   0.279
  690SOL    HW2 2087   0.721   2.468   0.317
  691SOL     OW 2088   1.657   2.466   1.206
  691SOL    HW1 2089   1.619   2.397   1.268
  691SOL    HW2 2090   1.739   2.430   1.162
  692SOL     OW 2091   0.252   3.426   1.744
  692SOL    HW1 2092   0.222   3.483   1.820
  692SOL    HW2 2093   0.245   3.329   1.770
  693SOL     OW 2094   0.671   2.326   1.269
  693SOL    HW1 2095   0.637   2.237   1.239
  693SOL    HW2 2096   0.697   2.380   1.189
  694SOL     OW 2097   0.930   3.540   1.465
  694SOL    HW1 2098   0.906   3.522   1.370
  694SOL    HW2 2099   0.960   3.634   1.475
  695SOL     OW 2100   0.473   2.362   0.191
  695SOL    HW1 2101   0.534   2.442   0.195
  695SOL    HW2 2102   0.378   2.393   0.198
  696SOL     OW 2103   0.159   2.999   1.466
  696SOL    HW1 2104   0.181   2.938   1.542
  696SOL    HW2 2105   0.169   2.950   1.380
  697SOL     OW 2106   1.347   2.921   1.234
  697SOL    HW1 2107   1.371   2.858   1.160
  697SOL    HW2 2108   1.257   2.961   1.216
  698SOL     OW 2109   1.302   2.717   0.309
  698SOL    HW1 2110   1.216   2.686   0.351
  698SOL    HW2 2111   1.298   2.703   0.210
  699SOL     OW 2112   1.759   3.609   1.154
  699SOL    HW1 2113   1.820   3.639   1.081
  699SOL    HW2 2114   1.721   3.520   1.132
  700SOL     OW 2115   1.252   3.593   1.128
  700SOL    HW1 2116   1.336   3.598   1.074
  700SOL    HW2 2117   1.229   3.497   1.146
  701SOL     OW 2118   0.083   3.120   1.022
  701SOL    HW1 2119   0.078   3.119   1.122
  701SOL    HW2 2120   0.000   3.079   0.984
  702SOL     OW 2121   0.688   3.524   1.716
  702SOL    HW1 2122   0.632   3.605   1.725
  702SOL    HW2 2123   0.740   3.528   1.630
  703SOL     OW 2124   0.903   1.948   0.133
  703SOL    HW1 2125   0.954   1.949   0.047
  703SOL    HW2 2126   0.959   1.906   0.204
  704SOL     OW 2127   1.726   1.997   0.523
  704SOL    HW1 2128   1.799   1.980   0.456
  704SOL    HW2 2129   1.695   1.910   0.561
  705SOL     OW 2130   1.388   3.435   0.477
  705SOL    HW1 2131   1.455   3.447   0.403
  705SOL    HW2 2132   1.348   3.524   0.500
  706SOL     OW 2133   0.130   3.656   1.851
  706SOL    HW1 2134   0.089   3.582   1.904
  706SOL    HW2 2135   0.194   3.707   1.909
  707SOL     OW 2136   1.280   2.789   0.672
  707SOL    HW1 2137   1.340   2.708   0.674
  707SOL    HW2 2138   1.320   2.858   0.612
  708SOL     OW 2139   0.830   3.135   1.422
  708SOL    HW1 2140   0.825   3.168   1.517
  708SOL    HW2 2141   0.744   3.154   1.376
  709SOL     OW 2142   0.672   3.478   0.154
  709SOL    HW1 2143   0.681   3.488   0.055
  709SOL    HW2 2144   0.632   3.389   0.175
  710SOL     OW 2145   1.650   3.582   1.394
  710SOL    HW1 2146   1.703   3.592   1.310
  710SOL    HW2 2147   1.623   3.672   1.428
  711SOL     OW 2148   1.841   2.037   0.963
  711SOL    HW1 2149   1.880   1.952   0.927
  711SOL    HW2 2150   1.743   2.039   0.944
  712SOL     OW 2151   0.263   2.188   0.720
  712SOL    HW1 2152   0.184   2.239   0.686
  712SOL    HW2 2153   0.254   2.173   0.818
  713SOL     OW 2154   1.194   3.474   0.031
  713SOL    HW1 2155   1.200   3.381   0.068
  713SOL    HW2 2156   1.135   3.474  -0.049
  714SOL     OW 2157   0.822   2.864   1.372
  714SOL    HW1 2158   0.862   2.863   1.280
  714SOL    HW2 2159   0.832   2.956   1.412
  715SOL     OW 2160   0.916   2.772   0.291
  715SOL    HW1 2161   0.979   2.810   0.223
  715SOL    HW2 2162   0.956   2.689   0.330
  716SOL     OW 2163   1.504   3.469   0.044
  716SOL    HW1 2164   1.412   3.506   0.051
  716SOL    HW2 2165   1.542   3.489  -0.046
  717SOL     OW 2166   0.372   3.150   1.490
  717SOL    HW1 2167   0.359   3.243   1.456
  717SOL    HW2 2168   0.288   3.098   1.477
  718SOL     OW 2169   1.614   3.154   1.289
  718SOL    HW1 2170   1.674   3.157   1.369
  718SOL    HW2 2171   1.539   3.218   1.302
  719SOL     OW 2172   1.039   2.960   0.696
  719SOL    HW1 2173   0.969   2.913   0.750
  719SOL    HW2 2174   1.098   2.892   0.653
  720SOL     OW 2175   1.014   2.098   0.971
  720SOL    HW1 2176   1.006   2.062   0.878
  720SOL    HW2 2177   1.012   2.022   1.036
  721SOL     OW 2178   0.590   3.349   0.491
  721SOL    HW1 2179   0.632   3.291   0.421
  721SOL    HW2 2180   0.546   3.428   0.447
  722SOL     OW 2181   1.709   2.247   1.381
  722SOL    HW1 2182   1.782   2.316   1.385
  722SOL    HW2 2183   1.737   2.172   1.322
  723SOL     OW 2184   0.255   3.210   0.290
  723SOL    HW1 2185   0.159   3.211   0.263
  723SOL    HW2 2186   0.267   3.263   0.374
  724SOL     OW 2187   0.105   2.875   1.726
  724SOL    HW1 2188   0.028   2.842   1.780
  724SOL    HW2 2189   0.190   2.845   1.768
  725SOL     OW 2190   0.672   2.065   1.489
  725SOL    HW1 2191   0.762   2.049   1.449
  725SOL    HW2 2192   0.680   2.070   1.588
  726SOL     OW 2193   0.075   2.207   0.033
  726SOL    HW1 2194  -0.017   2.179   0.004
  726SOL    HW2 2195   0.106   2.284  -0.023
  727SOL     OW 2196   1.440   2.718   1.398
  727SOL    HW1 2197   1.383   2.770   1.335
  727SOL    HW2 2198   1.536   2.730   1.374
  728SOL     OW 2199   0.072   2.028   0.318
  728SOL    HW1 2200   0.055   2.111   0.264
  728SOL    HW2 2201   0.162   1.991   0.296
  729SOL     OW 2202   1.183   3.197   0.119
  729SOL    HW1 2203   1.084   3.186   0.121
  729SOL    HW2 2204   1.217   3.212   0.212
  730SOL     OW 2205   0.613   2.704   1.431
  730SOL    HW1 2206   0.669   2.785   1.414
  730SOL    HW2 2207   0.672   2.624   1.434
  731SOL     OW 2208   1.493   3.629   0.959
  731SOL    HW1 2209   1.526   3.693   0.890
  731SOL    HW2 2210   1.559   3.623   1.034
  732SOL     OW 2211   0.716   2.427   1.708
  732SOL    HW1 2212   0.735   2.492   1.782
  732SOL    HW2 2213   0.776   2.347   1.717
  733SOL     OW 2214   1.450   3.082   1.633
  733SOL    HW1 2215   1.441   3.072   1.732
  733SOL    HW2 2216   1.546   3.075   1.607
  734SOL     OW 2217   0.390   3.603   1.560
  734SOL    HW1 2218   0.299   3.644   1.558
  734SOL    HW2 2219   0.383   3.509   1.592
  735SOL     OW 2220   1.674   2.745   1.254
  735SOL    HW1 2221   1.647   2.656   1.217
  735SOL    HW2 2222   1.675   2.813   1.181
  736SOL     OW 2223   1.225   2.187   0.449
  736SOL    HW1 2224   1.290   2.113   0.438
  736SOL    HW2 2225   1.245   2.237   0.533
  737SOL     OW 2226   0.594   2.607   0.652
  737SOL    HW1 2227   0.644   2.692   0.633
  737SOL    HW2 2228   0.506   2.609   0.604
  738SOL     OW 2229   1.777   2.204   1.642
  738SOL    HW1 2230   1.760   2.235   1.548
  738SOL    HW2 2231   1.693   2.167   1.680
  739SOL     OW 2232   1.730   2.796   1.517
  739SOL    HW1 2233   1.768   2.887   1.532
  739SOL    HW2 2234   1.722   2.779   1.418
  740SOL     OW 2235   0.859   3.236   0.016
  740SOL    HW1 2236   0.813   3.251   0.104
  740SOL    HW2 2237   0.903   3.321  -0.014
  741SOL     OW 2238   0.661   3.652   0.953
  741SOL    HW1 2239   0.615   3.740   0.940
  741SOL    HW2 2240   0.760   3.664   0.946
  742SOL     OW 2241   0.859   2.818   0.861
  742SOL    HW1 2242   0.913   2.749   0.909
  742SOL    HW2 2243   0.827   2.887   0.927
  743SOL     OW 2244   1.083   2.846   0.087
  743SOL    HW1 2245   1.060   2.899   0.005
  743SOL    HW2 2246   1.164   2.790   0.068
  744SOL     OW 2247   1.861   3.431   0.851
  744SOL    HW1 2248   1.790   3.419   0.781
  744SOL    HW2 2249   1.862   3.352   0.911
  745SOL     OW 2250   0.221   3.176   1.844
  745SOL    HW1 2251   0.156   3.103   1.823
  745SOL    HW2 2252   0.225   3.190   1.942
  746SOL     OW 2253   0.079   3.102   0.653
  746SOL    HW1 2254   0.078   3.055   0.741
  746SOL    HW2 2255   0.161   3.074   0.602
  747SOL     OW 2256   0.672   3.253   1.624
  747SOL    HW1 2257   0.594   3.203   1.662
  747SOL    HW2 2258   0.669   3.348   1.655
  748SOL     OW 2259   1.824   2.054   1.227
  748SOL    HW1 2260   1.820   1.964   1.271
  748SOL    HW2 2261   1.827   2.043   1.128
  749SOL     OW 2262   0.428   2.286   0.520
  749SOL    HW1 2263   0.458   2.214   0.458
  749SOL    HW2 2264   0.389   2.246   0.603
  750SOL     OW 2265   1.705   3.349   1.104
  750SOL    HW1 2266   1.612   3.324   1.077
  750SOL    HW2 2267   1.731   3.299   1.186
  751SOL     OW 2268   0.317   2.409   1.280
  751SOL    HW1 2269   0.355   2.350   1.352
  751SOL    HW2 2270   0.357   2.383   1.192
  752SOL     OW 2271   0.812   3.448   0.687
  752SOL    HW1 2272   0.844   3.458   0.593
  752SOL    HW2 2273   0.733   3.386   0.689
  753SOL     OW 2274   1.424   2.076   1.112
  753SOL    HW1 2275   1.476   2.011   1.167
  753SOL    HW2 2276   1.375   2.139   1.173
  754SOL     OW 2277   1.001   1.896   1.154
  754SOL    HW1 2278   0.938   1.824   1.123
  754SOL    HW2 2279   1.094   1.860   1.154
  755SOL     OW 2280   0.770   3.192   0.301
  755SOL    HW1 2281   0.724   3.105   0.318
  755SOL    HW2 2282   0.861   3.189   0.342
  756SOL     OW 2283   0.618   3.429   1.284
  756SOL    HW1 2284   0.613   3.511   1.341
  756SOL    HW2 2285   0.707   3.426   1.239
  757SOL     OW 2286   1.352   1.914   0.168
  757SOL    HW1 2287   1.387   1.873   0.084
  757SOL    HW2 2288   1.262   1.876   0.188
  758SOL     OW 2289   1.300   2.315   0.691
  758SOL    HW1 2290   1.241   2.395   0.695
  758SOL    HW2 2291   1.315   2.280   0.784
  759SOL     OW 2292   1.593   2.083   0.882
  759SOL    HW1 2293   1.509   2.082   0.936
  759SOL    HW2 2294   1.595   2.166   0.826
  760SOL     OW 2295   0.039   2.939   0.300
  760SOL    HW1 2296   0.138   2.928   0.291
  760SOL    HW2 2297  -0.001   2.853   0.332
  761SOL     OW 2298   0.875   3.508   0.337
  761SOL    HW1 2299   0.798   3.473   0.283
  761SOL    HW2 2300   0.843   3.579   0.399
  762SOL     OW 2301   0.230   2.490   1.975
  762SOL    HW1 2302   0.137   2.488   2.012
  762SOL    HW2 2303   0.231   2.451   1.883
  763SOL     OW 2304   0.225   2.137   2.858
  763SOL    HW1 2305   0.260   2.120   2.950
  763SOL    HW2 2306   0.137   2.092   2.846
  764SOL     OW 2307   0.019   2.230   2.509
  764SOL    HW1 2308  -0.063   2.273   2.548
  764SOL    HW2 2309  -0.009   2.157   2.446
  765SOL     OW 2310   0.569   3.137   3.027
  765SOL    HW1 2311   0.476   3.130   2.990
  765SOL    HW2 2312   0.580   3.226   3.071
  766SOL     OW 2313   1.555   3.373   2.565
  766SOL    HW1 2314   1.498   3.357   2.646
  766SOL    HW2 2315   1.496   3.383   2.485
  767SOL     OW 2316   1.135   2.565   2.579
  767SOL    HW1 2317   1.192   2.643   2.554
  767SOL    HW2 2318   1.075   2.591   2.655
  768SOL     OW 2319   1.755   2.469   2.093
  768SOL    HW1 2320   1.743   2.456   1.994
  768SOL    HW2 2321   1.725   2.388   2.142
  769SOL     OW 2322   0.768   3.006   2.885
  769SOL    HW1 2323   0.690   3.023   2.945
  769SOL    HW2 2324   0.802   3.093   2.849
  770SOL     OW 2325   0.850   2.660   3.685
  770SOL    HW1 2326   0.846   2.736   3.750
  770SOL    HW2 2327   0.872   2.696   3.594
  771SOL     OW 2328   0.685   2.874   2.527
  771SOL    HW1 2329   0.754   2.858   2.597
  771SOL    HW2 2330   0.612   2.931   2.565
  772SOL     OW 2331   0.686   3.023   3.665
  772SOL    HW1 2332   0.746   3.102   3.679
  772SOL    HW2 2333   0.600   3.054   3.624
  773SOL     OW 2334   0.335   3.297   2.923
  773SOL    HW1 2335   0.257   3.266   2.870
  773SOL    HW2 2336   0.393   3.355   2.866
  774SOL     OW 2337   1.460   3.367   3.201
  774SOL    HW1 2338   1.484   3.461   3.227
  774SOL    HW2 2339   1.444   3.313   3.283
  775SOL     OW 2340   0.438   2.254   3.361
  775SOL    HW1 2341   0.520   2.198   3.370
  775SOL    HW2 2342   0.357   2.196   3.365
  776SOL     OW 2343   1.603   2.309   2.599
  776SOL    HW1 2344   1.529   2.355   2.549
  776SOL    HW2 2345   1.654   2.377   2.652
  777SOL     OW 2346   0.231   3.575   2.345
  777SOL    HW1 2347   0.265   3.652   2.399
  777SOL    HW2 2348   0.275   3.575   2.255
  778SOL     OW 2349   1.127   3.203   3.552
  778SOL    HW1 2350   1.174   3.203   3.640
  778SOL    HW2 2351   1.079   3.116   3.541
  779SOL     OW 2352   0.230   3.296   2.400
  779SOL    HW1 2353   0.204   3.392   2.400
  779SOL    HW2 2354   0.159   3.242   2.445
  780SOL     OW 2355   0.240   2.953   2.748
  780SOL    HW1 2356   0.254   2.869   2.800
  780SOL    HW2 2357   0.185   3.017   2.803
  781SOL     OW 2358   0.620   3.648   3.301
  781SOL    HW1 2359   0.528   3.631   3.336
  781SOL    HW2 2360   0.648   3.740   3.327
  782SOL     OW 2361   0.606   2.826   1.985
  782SOL    HW1 2362   0.613   2.910   1.931
  782SOL    HW2 2363   0.652   2.839   2.073
  783SOL     OW 2364   1.594   1.976   3.342
  783SOL    HW1 2365   1.576   2.043   3.270
  783SOL    HW2 2366   1.591   2.022   3.431
  784SOL     OW 2367   0.122   2.505   2.425
  784SOL    HW1 2368   0.077   2.417   2.442
  784SOL    HW2 2369   0.121   2.559   2.509
  785SOL     OW 2370   1.842   3.629   2.221
  785SOL    HW1 2371   1.896   3.600   2.301
  785SOL    HW2 2372   1.872   3.719   2.192
  786SOL     OW 2373   0.027   3.458   1.979
  786SOL    HW1 2374   0.008   3.362   2.000
  786SOL    HW2 2375  -0.006   3.516   2.054
  787SOL     OW 2376   1.689   2.784   2.474
  787SOL    HW1 2377   1.784   2.755   2.482
  787SOL    HW2 2378   1.681   2.849   2.399
  788SOL     OW 2379   1.641   2.970   2.294
  788SOL    HW1 2380   1.727   2.972   2.242
  788SOL    HW2 2381   1.655   3.017   2.382
  789SOL     OW 2382   0.113   2.599   3.459
  789SOL    HW1 2383   0.201   2.586   3.504
  789SOL    HW2 2384   0.100   2.696   3.437
  790SOL     OW 2385   0.613   3.227   2.588
  790SOL    HW1 2386   0.564   3.140   2.597
  790SOL    HW2 2387   0.590   3.270   2.501
  791SOL     OW 2388   1.293   3.090   3.285
  791SOL    HW1 2389   1.330   3.017   3.227
  791SOL    HW2 2390   1.345   3.095   3.370
  792SOL     OW 2391   0.809   1.866   2.364
  792SOL    HW1 2392   0.849   1.957   2.355
  792SOL    HW2 2393   0.709   1.874   2.370
  793SOL     OW 2394   0.197   2.838   3.126
  793SOL    HW1 2395   0.286   2.793   3.112
  793SOL    HW2 2396   0.124   2.773   3.107
  794SOL     OW 2397   1.525   2.861   2.052
  794SOL    HW1 2398   1.462   2.785   2.065
  794SOL    HW2 2399   1.573   2.879   2.138
  795SOL     OW 2400   1.187   3.654   3.478
  795SOL    HW1 2401   1.211   3.714   3.402
  795SOL    HW2 2402   1.194   3.559   3.448
  796SOL     OW 2403   0.317   2.113   3.663
  796SOL    HW1 2404   0.388   2.184   3.669
  796SOL    HW2 2405   0.229   2.152   3.691
  797SOL     OW 2406   1.466   3.279   2.815
  797SOL    HW1 2407   1.407   3.285   2.895
  797SOL    HW2 2408   1.451   3.191   2.769
  798SOL     OW 2409   1.667   3.576   2.434
  798SOL    HW1 2410   1.626   3.553   2.346
  798SOL    HW2 2411   1.649   3.502   2.499
  799SOL     OW 2412   0.598   2.591   2.132
  799SOL    HW1 2413   0.622   2.660   2.064
  799SOL    HW2 2414   0.520   2.624   2.186
  800SOL     OW 2415   1.281   2.207   2.806
  800SOL    HW1 2416   1.195   2.157   2.793
  800SOL    HW2 2417   1.343   2.153   2.862
  801SOL     OW 2418   1.576   3.524   2.169
  801SOL    HW1 2419   1.665   3.570   2.172
  801SOL    HW2 2420   1.555   3.500   2.074
  802SOL     OW 2421   0.807   2.467   3.327
  802SOL    HW1 2422   0.760   2.464   3.416
  802SOL    HW2 2423   0.756   2.412   3.261
  803SOL     OW 2424   1.394   2.331   3.536
  803SOL    HW1 2425   1.374   2.374   3.624
  803SOL    HW2 2426   1.472   2.269   3.545
  804SOL     OW 2427   0.973   2.752   3.434
  804SOL    HW1 2428   1.019   2.668   3.405
  804SOL    HW2 2429   0.917   2.786   3.359
  805SOL     OW 2430   0.991   2.272   3.104
  805SOL    HW1 2431   0.914   2.306   3.158
  805SOL    HW2 2432   0.957   2.221   3.025
  806SOL     OW 2433   1.041   2.563   2.291
  806SOL    HW1 2434   1.067   2.559   2.387
  806SOL    HW2 2435   0.956   2.512   2.277
  807SOL     OW 2436   0.076   2.673   2.651
  807SOL    HW1 2437   0.175   2.661   2.660
  807SOL    HW2 2438   0.052   2.768   2.672
  808SOL     OW 2439   0.130   3.683   3.433
  808SOL    HW1 2440   0.120   3.668   3.532
  808SOL    HW2 2441   0.044   3.719   3.397
  809SOL     OW 2442   0.865   2.210   2.057
  809SOL    HW1 2443   0.924   2.273   2.008
  809SOL    HW2 2444   0.884   2.116   2.028
  810SOL     OW 2445   1.719   2.447   3.693
  810SOL    HW1 2446   1.693   2.536   3.657
  810SOL    HW2 2447   1.717   2.379   3.620
  811SOL     OW 2448   1.362   3.006   2.407
  811SOL    HW1 2449   1.445   2.977   2.359
  811SOL    HW2 2450   1.313   3.073   2.351
  812SOL     OW 2451   0.550   2.058   2.747
  812SOL    HW1 2452   0.545   2.053   2.847
  812SOL    HW2 2453   0.552   2.154   2.718
  813SOL     OW 2454   1.008   3.318   2.339
  813SOL    HW1 2455   0.962   3.390   2.287
  813SOL    HW2 2456   1.004   3.338   2.437
  814SOL     OW 2457   0.351   3.663   2.715
  814SOL    HW1 2458   0.401   3.577   2.721
  814SOL    HW2 2459   0.416   3.740   2.712
  815SOL     OW 2460   1.795   2.928   2.735
  815SOL    HW1 2461   1.733   2.913   2.659
  815SOL    HW2 2462   1.743   2.939   2.820
  816SOL     OW 2463   1.227   3.412   3.368
  816SOL    HW1 2464   1.233   3.335   3.432
  816SOL    HW2 2465   1.175   3.386   3.288
  817SOL     OW 2466   0.321   2.805   2.104
  817SOL    HW1 2467   0.403   2.844   2.062
  817SOL    HW2 2468   0.294   2.723   2.055
  818SOL     OW 2469   1.458   2.597   2.590
  818SOL    HW1 2470   1.453   2.532   2.665
  818SOL    HW2 2471   1.538   2.656   2.603
  819SOL     OW 2472   0.461   3.128   3.589
  819SOL    HW1 2473   0.411   3.129   3.503
  819SOL    HW2 2474   0.398   3.110   3.665
  820SOL     OW 2475   1.111   3.638   2.099
  820SOL    HW1 2476   1.051   3.576   2.149
  820SOL    HW2 2477   1.142   3.594   2.014
  821SOL     OW 2478   0.202   2.147   3.360
  821SOL    HW1 2479   0.122   2.207   3.347
  821SOL    HW2 2480   0.192   2.098   3.446
  822SOL     OW 2481   1.632   3.239   1.943
  822SOL    HW1 2482   1.600   3.333   1.933
  822SOL    HW2 2483   1.556   3.176   1.931
  823SOL     OW 2484   0.464   3.605   2.185
  823SOL    HW1 2485   0.497   3.644   2.271
  823SOL    HW2 2486   0.540   3.598   2.120
  824SOL     OW 2487   1.400   1.969   2.288
  824SOL    HW1 2488   1.376   1.932   2.198
  824SOL    HW2 2489   1.499   1.985   2.292
  825SOL     OW 2490   0.249   3.647   3.103
  825SOL    HW1 2491   0.306   3.582   3.153
  825SOL    HW2 2492   0.233   3.614   3.010
  826SOL     OW 2493   0.940   3.560   2.766
  826SOL    HW1 2494   1.020   3.503   2.787
  826SOL    HW2 2495   0.891   3.520   2.689
  827SOL     OW 2496   0.382   2.562   2.342
  827SOL    HW1 2497   0.427   2.472   2.339
  827SOL    HW2 2498   0.288   2.551   2.375
  828SOL     OW 2499   1.547   2.084   3.591
  828SOL    HW1 2500   1.542   2.121   3.683
  828SOL    HW2 2501   1.475   2.015   3.579
  829SOL     OW 2502   0.614   1.984   1.979
  829SOL    HW1 2503   0.712   1.962   1.986
  829SOL    HW2 2504   0.583   1.967   1.886
  830SOL     OW 2505   0.781   2.126   3.611
  830SOL    HW1 2506   0.848   2.065   3.654
  830SOL    HW2 2507   0.708   2.145   3.676
  831SOL     OW 2508   0.888   3.376   3.057
  831SOL    HW1 2509   0.865   3.351   2.963
  831SOL    HW2 2510   0.949   3.307   3.096
  832SOL     OW 2511   1.351   2.452   3.295
  832SOL    HW1 2512   1.379   2.409   3.380
  832SOL    HW2 2513   1.376   2.548   3.296
  833SOL     OW 2514   0.803   3.264   2.786
  833SOL    HW1 2515   0.893   3.278   2.744
  833SOL    HW2 2516   0.732   3.266   2.715
  834SOL     OW 2517   0.922   2.365   2.761
  834SOL    HW1 2518   0.897   2.356   2.665
  834SOL    HW2 2519   0.970   2.283   2.792
  835SOL     OW 2520   0.539   1.926   2.374
  835SOL    HW1 2521   0.458   1.927   2.432
  835SOL    HW2 2522   0.542   2.009   2.319
  836SOL     OW 2523   1.434   3.050   1.903
  836SOL    HW1 2524   1.466   2.974   1.960
  836SOL    HW2 2525   1.342   3.077   1.933
  837SOL     OW 2526   0.297   1.897   2.033
  837SOL    HW1 2527   0.346   1.981   2.012
  837SOL    HW2 2528   0.359   1.832   2.078
  838SOL     OW 2529   0.935   2.098   2.342
  838SOL    HW1 2530   0.887   2.139   2.264
  838SOL    HW2 2531   1.034   2.096   2.323
  839SOL     OW 2532   1.076   2.545   3.326
  839SOL    HW1 2533   0.996   2.484   3.329
  839SOL    HW2 2534   1.157   2.492   3.302
  840SOL     OW 2535   1.227   3.432   2.655
  840SOL    HW1 2536   1.248   3.506   2.590
  840SOL    HW2 2537   1.295   3.432   2.728
  841SOL     OW 2538   0.459   3.014   2.603
  841SOL    HW1 2539   0.388   2.987   2.668
  841SOL    HW2 2540   0.433   2.986   2.510
  842SOL     OW 2541   1.271   3.659   2.453
  842SOL    HW1 2542   1.315   3.723   2.389
  842SOL    HW2 2543   1.221   3.711   2.523
  843SOL     OW 2544   1.032   2.411   1.878
  843SOL    HW1 2545   0.991   2.493   1.839
  843SOL    HW2 2546   1.096   2.437   1.951
  844SOL     OW 2547   0.078   2.418   3.248
  844SOL    HW1 2548   0.170   2.417   3.207
  844SOL    HW2 2549   0.072   2.492   3.315
  845SOL     OW 2550   0.561   2.084   3.009
  845SOL    HW1 2551   0.599   2.000   3.046
  845SOL    HW2 2552   0.473   2.103   3.053
  846SOL     OW 2553   0.866   2.316   2.504
  846SOL    HW1 2554   0.834   2.388   2.442
  846SOL    HW2 2555   0.890   2.235   2.451
  847SOL     OW 2556   1.017   1.901   2.615
  847SOL    HW1 2557   0.945   1.906   2.546
  847SOL    HW2 2558   0.993   1.832   2.684
  848SOL     OW 2559   1.429   3.035   2.729
  848SOL    HW1 2560   1.374   2.951   2.722
  848SOL    HW2 2561   1.455   3.064   2.637
  849SOL     OW 2562   1.466   2.452   2.854
  849SOL    HW1 2563   1.436   2.357   2.861
  849SOL    HW2 2564   1.539   2.468   2.920
  850SOL     OW 2565   1.857   2.695   2.239
  850SOL    HW1 2566   1.899   2.631   2.303
  850SOL    HW2 2567   1.819   2.644   2.161
  851SOL     OW 2568   0.488   3.247   2.036
  851SOL    HW1 2569   0.401   3.232   2.083
  851SOL    HW2 2570   0.471   3.273   1.941
  852SOL     OW 2571   1.664   3.142   2.519
  852SOL    HW1 2572   1.763   3.150   2.533
  852SOL    HW2 2573   1.619   3.226   2.550
  853SOL     OW 2574   1.390   2.437   1.940
  853SOL    HW1 2575   1.336   2.416   2.021
  853SOL    HW2 2576   1.481   2.396   1.949
  854SOL     OW 2577   0.527   2.118   2.190
  854SOL    HW1 2578   0.554   2.059   2.115
  854SOL    HW2 2579   0.527   2.213   2.159
  855SOL     OW 2580   1.754   3.085   3.450
  855SOL    HW1 2581   1.845   3.046   3.437
  855SOL    HW2 2582   1.762   3.181   3.474
  856SOL     OW 2583   1.064   3.209   3.202
  856SOL    HW1 2584   0.984   3.186   3.257
  856SOL    HW2 2585   1.147   3.183   3.251
  857SOL     OW 2586   1.592   3.491   3.487
  857SOL    HW1 2587   1.619   3.525   3.397
  857SOL    HW2 2588   1.671   3.453   3.533
  858SOL     OW 2589   1.111   3.057   2.962
  858SOL    HW1 2590   1.071   3.101   3.043
  858SOL    HW2 2591   1.070   3.094   2.879
  859SOL     OW 2592   1.638   2.961   2.941
  859SOL    HW1 2593   1.643   3.042   3.000
  859SOL    HW2 2594   1.552   2.963   2.890
  860SOL     OW 2595   0.915   1.951   3.264
  860SOL    HW1 2596   0.940   1.931   3.169
  860SOL    HW2 2597   0.987   2.007   3.306
  861SOL     OW 2598   0.980   2.978   3.581
  861SOL    HW1 2599   0.881   2.984   3.591
  861SOL    HW2 2600   1.003   2.898   3.525
  862SOL     OW 2601   0.705   2.912   2.230
  862SOL    HW1 2602   0.691   2.919   2.329
  862SOL    HW2 2603   0.789   2.861   2.212
  863SOL     OW 2604   0.410   2.675   3.113
  863SOL    HW1 2605   0.496   2.687   3.163
  863SOL    HW2 2606   0.368   2.588   3.140
  864SOL     OW 2607   1.274   2.248   3.124
  864SOL    HW1 2608   1.295   2.322   3.188
  864SOL    HW2 2609   1.185   2.265   3.081
  865SOL     OW 2610   0.064   3.426   3.193
  865SOL    HW1 2611   0.018   3.508   3.159
  865SOL    HW2 2612   0.162   3.445   3.202
  866SOL     OW 2613   0.367   2.962   2.363
  866SOL    HW1 2614   0.360   3.045   2.307
  866SOL    HW2 2615   0.371   2.882   2.303
  867SOL     OW 2616   0.566   2.399   2.727
  867SOL    HW1 2617   0.578   2.465   2.653
  867SOL    HW2 2618   0.612   2.433   2.810
  868SOL     OW 2619   1.252   3.210   2.250
  868SOL    HW1 2620   1.302   3.287   2.290
  868SOL    HW2 2621   1.157   3.212   2.282
  869SOL     OW 2622   1.272   3.307   3.004
  869SOL    HW1 2623   1.319   3.320   3.091
  869SOL    HW2 2624   1.206   3.233   3.013
  870SOL     OW 2625   1.582   2.501   2.334
  870SOL    HW1 2626   1.551   2.562   2.407
  870SOL    HW2 2627   1.632   2.553   2.265
  871SOL     OW 2628   0.354   3.372   3.191
  871SOL    HW1 2629   0.333   3.328   3.104
  871SOL    HW2 2630   0.451   3.398   3.194
  872SOL     OW 2631   0.402   2.613   3.460
  872SOL    HW1 2632   0.470   2.668   3.413
  872SOL    HW2 2633   0.442   2.525   3.487
  873SOL     OW 2634   1.587   2.641   3.532
  873SOL    HW1 2635   1.495   2.679   3.527
  873SOL    HW2 2636   1.647   2.688   3.467
  874SOL     OW 2637   1.013   1.967   3.632
  874SOL    HW1 2638   1.019   2.052   3.580
  874SOL    HW2 2639   1.045   1.891   3.575
  875SOL     OW 2640   0.504   1.912   3.602
  875SOL    HW1 2641   0.462   1.855   3.532
  875SOL    HW2 2642   0.438   1.981   3.634
  876SOL     OW 2643   0.573   2.732   2.891
  876SOL    HW1 2644   0.617   2.821   2.882
  876SOL    HW2 2645   0.510   2.732   2.968
  877SOL     OW 2646   1.360   2.724   2.907
  877SOL    HW1 2647   1.285   2.724   2.841
  877SOL    HW2 2648   1.397   2.632   2.916
  878SOL     OW 2649   1.209   2.387   2.137
  878SOL    HW1 2650   1.222   2.303   2.191
  878SOL    HW2 2651   1.180   2.461   2.197
  879SOL     OW 2652   0.307   2.075   3.093
  879SOL    HW1 2653   0.284   2.112   3.183
  879SOL    HW2 2654   0.277   1.980   3.087
  880SOL     OW 2655   0.037   3.172   3.144
  880SOL    HW1 2656   0.090   3.123   3.212
  880SOL    HW2 2657   0.059   3.270   3.149
  881SOL     OW 2658   0.732   2.496   2.926
  881SOL    HW1 2659   0.791   2.470   2.850
  881SOL    HW2 2660   0.704   2.592   2.915
  882SOL     OW 2661   1.728   2.797   3.716
  882SOL    HW1 2662   1.682   2.790   3.627
  882SOL    HW2 2663   1.666   2.841   3.782
  883SOL     OW 2664   0.307   1.925   2.480
  883SOL    HW1 2665   0.296   2.019   2.513
  883SOL    HW2 2666   0.302   1.862   2.557
  884SOL     OW 2667   1.622   2.229   2.236
  884SOL    HW1 2668   1.624   2.153   2.300
  884SOL    HW2 2669   1.574   2.306   2.276
  885SOL     OW 2670   1.023   2.628   2.828
  885SOL    HW1 2671   1.038   2.649   2.924
  885SOL    HW2 2672   0.993   2.533   2.819
  886SOL     OW 2673   0.980   3.435   3.562
  886SOL    HW1 2674   0.960   3.479   3.474
  886SOL    HW2 2675   1.019   3.344   3.546
  887SOL     OW 2676   1.859   3.380   3.467
  887SOL    HW1 2677   1.873   3.407   3.372
  887SOL    HW2 2678   1.942   3.402   3.520
  888SOL     OW 2679   0.350   2.760   3.666
  888SOL    HW1 2680   0.426   2.804   3.714
  888SOL    HW2 2681   0.385   2.713   3.584
  889SOL     OW 2682   1.540   2.136   1.987
  889SOL    HW1 2683   1.479   2.061   2.010
  889SOL    HW2 2684   1.562   2.188   2.070
  890SOL     OW 2685   1.303   2.700   1.904
  890SOL    HW1 2686   1.337   2.607   1.919
  890SOL    HW2 2687   1.321   2.727   1.809
  891SOL     OW 2688   1.068   3.195   2.711
  891SOL    HW1 2689   1.075   3.111   2.656
  891SOL    HW2 2690   1.130   3.264   2.675
  892SOL     OW 2691   0.319   2.672   2.811
  892SOL    HW1 2692   0.412   2.708   2.816
  892SOL    HW2 2693   0.313   2.587   2.863
  893SOL     OW 2694   0.339   2.371   2.868
  893SOL    HW1 2695   0.287   2.288   2.851
  893SOL    HW2 2696   0.416   2.376   2.804
  894SOL     OW 2697   1.138   2.242   3.540
  894SOL    HW1 2698   1.093   2.305   3.604
  894SOL    HW2 2699   1.231   2.273   3.523
  895SOL     OW 2700   1.160   2.069   3.339
  895SOL    HW1 2701   1.160   2.133   3.416
  895SOL    HW2 2702   1.188   2.117   3.256
  896SOL     OW 2703   0.008   3.188   2.062
  896SOL    HW1 2704  -0.085   3.209   2.031
  896SOL    HW2 2705   0.018   3.089   2.075
  897SOL     OW 2706   0.088   3.663   2.789
  897SOL    HW1 2707   0.046   3.577   2.762
  897SOL    HW2 2708   0.182   3.666   2.755
  898SOL     OW 2709   0.504   3.430   2.772
  898SOL    HW1 2710   0.570   3.504   2.781
  898SOL    HW2 2711   0.548   3.351   2.730
  899SOL     OW 2712   1.002   2.658   3.100
  899SOL    HW1 2713   1.043   2.626   3.186
  899SOL    HW2 2714   0.906   2.631   3.097
  900SOL     OW 2715   0.040   2.406   2.976
  900SOL    HW1 2716   0.125   2.373   2.935
  900SOL    HW2 2717   0.053   2.421   3.074
  901SOL     OW 2718   0.189   2.382   3.584
  901SOL    HW1 2719   0.248   2.342   3.514
  901SOL    HW2 2720   0.131   2.453   3.543
  902SOL     OW 2721   1.369   2.812   3.522
  902SOL    HW1 2722   1.408   2.901   3.542
  902SOL    HW2 2723   1.379   2.792   3.425
  903SOL     OW 2724   0.815   2.434   2.187
  903SOL    HW1 2725   0.822   2.345   2.141
  903SOL    HW2 2726   0.721   2.468   2.179
  904SOL     OW 2727   1.657   2.466   3.068
  904SOL    HW1 2728   1.619   2.397   3.130
  904SOL    HW2 2729   1.739   2.430   3.024
  905SOL     OW 2730   0.252   3.426   3.606
  905SOL    HW1 2731   0.222   3.483   3.682
  905SOL    HW2 2732   0.245   3.329   3.632
  906SOL     OW 2733   0.671   2.326   3.131
  906SOL    HW1 2734   0.637   2.237   3.101
  906SOL    HW2 2735   0.697   2.380   3.051
  907SOL     OW 2736   0.930   3.540   3.327
  907SOL    HW1 2737   0.906   3.522   3.232
  907SOL    HW2 2738   0.960   3.634   3.337
  908SOL     OW 2739   0.473   2.362   2.053
  908SOL    HW1 2740   0.534   2.442   2.057
  908SOL    HW2 2741   0.378   2.393   2.060
  909SOL     OW 2742   0.159   2.999   3.328
  909SOL    HW1 2743   0.181   2.938   3.404
  909SOL    HW2 2744   0.169   2.950   3.242
  910SOL     OW 2745   1.347   2.921   3.096
  910SOL    HW1 2746   1.371   2.858   3.022
  910SOL    HW2 2747   1.257   2.961   3.078
  911SOL     OW 2748   1.302   2.717   2.171
  911SOL    HW1 2749   1.216   2.686   2.213
  911SOL    HW2 2750   1.298   2.703   2.072
  912SOL     OW 2751   1.759   3.609   3.016
  912SOL    HW1 2752   1.820   3.639   2.943
  912SOL    HW2 2753   1.721   3.520   2.994
  913SOL     OW 2754   1.252   3.593   2.990
  913SOL    HW1 2755   1.336   3.598   2.936
  913SOL    HW2 2756   1.229   3.497   3.008
  914SOL     OW 2757   0.083   3.120   2.884
  914SOL    HW1 2758   0.078   3.119   2.984
  914SOL    HW2 2759   0.000   3.079   2.846
  915SOL     OW 2760   0.688   3.524   3.578
  915SOL    HW1 2761   0.632   3.605   3.587
  915SOL    HW2 2762   0.740   3.528   3.492
  916SOL     OW 2763   1.726   1.997   2.385
  916SOL    HW1 2764   1.799   1.980   2.318
  916SOL    HW2 2765   1.695   1.910   2.423
  917SOL     OW 2766   1.388   3.435   2.339
  917SOL    HW1 2767   1.455   3.447   2.265
  917SOL    HW2 2768   1.348   3.524   2.362
  918SOL     OW 2769   0.130   3.656   3.713
  918SOL    HW1 2770   0.089   3.582   3.766
  918SOL    HW2 2771   0.194   3.707   3.771
  919SOL     OW 2772   1.280   2.789   2.534
  919SOL    HW1 2773   1.340   2.708   2.536
  919SOL    HW2 2774   1.320   2.858   2.474
  920SOL     OW 2775   0.830   3.135   3.284
  920SOL    HW1 2776   0.825   3.168   3.379
  920SOL    HW2 2777   0.744   3.154   3.238
  921SOL     OW 2778   0.672   3.478   2.016
  921SOL    HW1 2779   0.681   3.488   1.917
  921SOL    HW2 2780   0.632   3.389   2.037
  922SOL     OW 2781   1.650   3.582   3.256
  922SOL    HW1 2782   1.703   3.592   3.172
  922SOL    HW2 2783   1.623   3.672   3.290
  923SOL     OW 2784   1.841   2.037   2.825
  923SOL    HW1 2785   1.880   1.952   2.789
  923SOL    HW2 2786   1.743   2.039   2.806
  924SOL     OW 2787   0.263   2.188   2.582
  924SOL    HW1 2788   0.184   2.239   2.548
  924SOL    HW2 2789   0.254   2.173   2.680
  925SOL     OW 2790   1.194   3.474   1.893
  925SOL    HW1 2791   1.200   3.381   1.930
  925SOL    HW2 2792   1.135   3.474   1.813
  926SOL     OW 2793   0.822   2.864   3.234
  926SOL    HW1 2794   0.862   2.863   3.142
  926SOL    HW2 2795   0.832   2.956   3.274
  927SOL     OW 2796   0.916   2.772   2.153
  927SOL    HW1 2797   0.979   2.810   2.085
  927SOL    HW2 2798   0.956   2.689   2.192
  928SOL     OW 2799   1.504   3.469   1.906
  928SOL    HW1 2800   1.412   3.506   1.913
  928SOL    HW2 2801   1.542   3.489   1.816
  929SOL     OW 2802   0.372   3.150   3.352
  929SOL    HW1 2803   0.359   3.243   3.318
  929SOL    HW2 2804   0.288   3.098   3.339
  930SOL     OW 2805   1.614   3.154   3.151
  930SOL    HW1 2806   1.674   3.157   3.231
  930SOL    HW2 2807   1.539   3.218   3.164
  931SOL     OW 2808   1.039   2.960   2.558
  931SOL    HW1 2809   0.969   2.913   2.612
  931SOL    HW2 2810   1.098   2.892   2.515
  932SOL     OW 2811   1.014   2.098   2.833
  932SOL    HW1 2812   1.006   2.062   2.740
  932SOL    HW2 2813   1.012   2.022   2.898
  933SOL     OW 2814   0.590   3.349   2.353
  933SOL    HW1 2815   0.632   3.291   2.283
  933SOL    HW2 2816   0.546   3.428   2.309
  934SOL     OW 2817   1.709   2.247   3.243
  934SOL    HW1 2818   1.782   2.316   3.247
  934SOL    HW2 2819   1.737   2.172   3.184
  935SOL     OW 2820   0.255   3.210   2.152
  935SOL    HW1 2821   0.159   3.211   2.125
  935SOL    HW2 2822   0.267   3.263   2.236
  936SOL     OW 2823   0.105   2.875   3.588
  936SOL    HW1 2824   0.028   2.842   3.642
  936SOL    HW2 2825   0.190   2.845   3.630
  937SOL     OW 2826   0.672   2.065   3.351
  937SOL    HW1 2827   0.762   2.049   3.311
  937SOL    HW2 2828   0.680   2.070   3.450
  938SOL     OW 2829   0.075   2.207   1.895
  938SOL    HW1 2830  -0.017   2.179   1.866
  938SOL    HW2 2831   0.106   2.284   1.839
  939SOL     OW 2832   1.440   2.718   3.260
  939SOL    HW1 2833   1.383   2.770   3.197
  939SOL    HW2 2834   1.536   2.730   3.236
  940SOL     OW 2835   0.072   2.028   2.180
  940SOL    HW1 2836   0.055   2.111   2.126
  940SOL    HW2 2837   0.162   1.991   2.158
  941SOL     OW 2838   1.183   3.197   1.981
  941SOL    HW1 2839   1.084   3.186   1.983
  941SOL    HW2 2840   1.217   3.212   2.074
  942SOL     OW 2841   0.613   2.704   3.293
  942SOL    HW1 2842   0.669   2.785   3.276
  942SOL    HW2 2843   0.672   2.624   3.296
  943SOL     OW 2844   1.493   3.629   2.821
  943SOL    HW1 2845   1.526   3.693   2.752
  943SOL    HW2 2846   1.559   3.623   2.896
  944SOL     OW 2847   0.716   2.427   3.570
  944SOL    HW1 2848   0.735   2.492   3.644
  944SOL    HW2 2849   0.776   2.347   3.579
  945SOL     OW 2850   1.450   3.082   3.495
  945SOL    HW1 2851   1.441   3.072   3.594
  945SOL    HW2 2852   1.546   3.075   3.469
  946SOL     OW 2853   0.390   3.603   3.422
  946SOL    HW1 2854   0.299   3.644   3.420
  946SOL    HW2 2855   0.383   3.509   3.454
  947SOL     OW 2856   1.674   2.745   3.116
  947SOL    HW1 2857   1.647   2.656   3.079
  947SOL    HW2 2858   1.675   2.813   3.043
  948SOL     OW 2859   1.225   2.187   2.311
  948SOL    HW1 2860   1.290   2.113   2.300
  948SOL    HW2 2861   1.245   2.237   2.395
  949SOL     OW 2862   0.594   2.607   2.514
  949SOL    HW1 2863   0.644   2.692   2.495
  949SOL    HW2 2864   0.506   2.609   2.466
  950SOL     OW 2865   1.777   2.204   3.504
  950SOL    HW1 2866   1.760   2.235   3.410
  950SOL    HW2 2867   1.693   2.167   3.542
  951SOL     OW 2868   1.730   2.796   3.379
  951SOL    HW1 2869   1.768   2.887   3.394
  951SOL    HW2 2870   1.722   2.779   3.280
  952SOL     OW 2871   0.859   3.236   1.878
  952SOL    HW1 2872   0.813   3.251   1.966
  952SOL    HW2 2873   0.903   3.321   1.848
  953SOL     OW 2874   0.661   3.652   2.815
  953SOL    HW1 2875   0.615   3.740   2.802
  953SOL    HW2 2876   0.760   3.664   2.808
  954SOL     OW 2877   0.859   2.818   2.723
  954SOL    HW1 2878   0.913   2.749   2.771
  954SOL    HW2 2879   0.827   2.887   2.789
  955SOL     OW 2880   1.083   2.846   1.949
  955SOL    HW1 2881   1.060   2.899   1.867
  955SOL    HW2 2882   1.164   2.790   1.930
  956SOL     OW 2883   1.861   3.431   2.713
  956SOL    HW1 2884   1.790   3.419   2.643
  956SOL    HW2 2885   1.862   3.352   2.773
  957SOL     OW 2886   0.221   3.176   3.706
  957SOL    HW1 2887   0.156   3.103   3.685
  957SOL    HW2 2888   0.225   3.190   3.804
  958SOL     OW 2889   0.079   3.102   2.515
  958SOL    HW1 2890   0.078   3.055   2.603
  958SOL    HW2 2891   0.161   3.074   2.464
  959SOL     OW 2892   0.672   3.253   3.486
  959SOL    HW1 2893   0.594   3.203   3.524
  959SOL    HW2 2894   0.669   3.348   3.517
  960SOL     OW 2895   1.824   2.054   3.089
  960SOL    HW1 2896   1.820   1.964   3.133
  960SOL    HW2 2897   1.827   2.043   2.990
  961SOL     OW 2898   0.428   2.286   2.382
  961SOL    HW1 2899   0.458   2.214   2.320
  961SOL    HW2 2900   0.389   2.246   2.465
  962SOL     OW 2901   1.705   3.349   2.966
  962SOL    HW1 2902   1.612   3.324   2.939
  962SOL    HW2 2903   1.731   3.299   3.048
  963SOL     OW 2904   0.317   2.409   3.142
  963SOL    HW1 2905   0.355   2.350   3.214
  963SOL    HW2 2906   0.357   2.383   3.054
  964SOL     OW 2907   0.812   3.448   2.549
  964SOL    HW1 2908   0.844   3.458   2.455
  964SOL    HW2 2909   0.733   3.386   2.551
  965SOL     OW 2910   1.424   2.076   2.974
  965SOL    HW1 2911   1.476   2.011   3.029
  965SOL    HW2 2912   1.375   2.139   3.035
  966SOL     OW 2913   1.001   1.896   3.016
  966SOL    HW1 2914   0.938   1.824   2.985
  966SOL    HW2 2915   1.094   1.860   3.016
  967SOL     OW 2916   0.770   3.192   2.163
  967SOL    HW1 2917   0.724   3.105   2.180
  967SOL    HW2 2918   0.861   3.189   2.204
  968SOL     OW 2919   0.618   3.429   3.146
  968SOL    HW1 2920   0.613   3.511   3.203
  968SOL    HW2 2921   0.707   3.426   3.101
  969SOL     OW 2922   1.352   1.914   2.030
  969SOL    HW1 2923   1.387   1.873   1.946
  969SOL    HW2 2924   1.262   1.876   2.050
  970SOL     OW 2925   1.300   2.315   2.553
  970SOL    HW1 2926   1.241   2.395   2.557
  970SOL    HW2 2927   1.315   2.280   2.646
  971SOL     OW 2928   1.593   2.083   2.744
  971SOL    HW1 2929   1.509   2.082   2.798
  971SOL    HW2 2930   1.595   2.166   2.688
  972SOL     OW 2931   0.039   2.939   2.162
  972SOL    HW1 2932   0.138   2.928   2.153
  972SOL    HW2 2933  -0.001   2.853   2.194
  973SOL     OW 2934   0.875   3.508   2.199
  973SOL    HW1 2935   0.798   3.473   2.145
  973SOL    HW2 2936   0.843   3.579   2.261
  974SOL     OW 2937   0.230   2.490   3.837
  974SOL    HW1 2938   0.137   2.488   3.874
  974SOL    HW2 2939   0.231   2.451   3.745
  975SOL     OW 2940   0.225   2.137   4.720
  975SOL    HW1 2941   0.260   2.120   4.812
  975SOL    HW2 2942   0.137   2.092   4.708
  976SOL     OW 2943   0.019   2.230   4.371
  976SOL    HW1 2944  -0.063   2.273   4.410
  976SOL    HW2 2945  -0.009   2.157   4.308
  977SOL     OW 2946   1.555   3.373   4.427
  977SOL    HW1 2947   1.498   3.357   4.508
  977SOL    HW2 2948   1.496   3.383   4.347
  978SOL     OW 2949   1.135   2.565   4.441
  978SOL    HW1 2950   1.192   2.643   4.416
  978SOL    HW2 2951   1.075   2.591   4.517
  979SOL     OW 2952   1.755   2.469   3.955
  979SOL    HW1 2953   1.743   2.456   3.856
  979SOL    HW2 2954   1.725   2.388   4.004
  980SOL     OW 2955   0.768   3.006   4.747
  980SOL    HW1 2956   0.690   3.023   4.807
  980SOL    HW2 2957   0.802   3.093   4.711
  981SOL     OW 2958   0.685   2.874   4.389
  981SOL    HW1 2959   0.754   2.858   4.459
  981SOL    HW2 2960   0.612   2.931   4.427
  982SOL     OW 2961   0.335   3.297   4.785
  982SOL    HW1 2962   0.257   3.266   4.732
  982SOL    HW2 2963   0.393   3.355   4.728
  983SOL     OW 2964   1.603   2.309   4.461
  983SOL    HW1 2965   1.529   2.355   4.411
  983SOL    HW2 2966   1.654   2.377   4.514
  984SOL     OW 2967   0.231   3.575   4.207
  984SOL    HW1 2968   0.265   3.652   4.261
  984SOL    HW2 2969   0.275   3.575   4.117
  985SOL     OW 2970   0.230   3.296   4.262
  985SOL    HW1 2971   0.204   3.392   4.262
  985SOL    HW2 2972   0.159   3.242   4.307
  986SOL     OW 2973   0.240   2.953   4.610
  986SOL    HW1 2974   0.254   2.869   4.662
  986SOL    HW2 2975   0.185   3.017   4.665
  987SOL     OW 2976   0.606   2.826   3.847
  987SOL    HW1 2977   0.613   2.910   3.793
  987SOL    HW2 2978   0.652   2.839   3.935
  988SOL     OW 2979   0.122   2.505   4.287
  988SOL    HW1 2980   0.077   2.417   4.304
  988SOL    HW2 2981   0.121   2.559   4.371
  989SOL     OW 2982   1.842   3.629   4.083
  989SOL    HW1 2983   1.896   3.600   4.163
  989SOL    HW2 2984   1.872   3.719   4.054
  990SOL     OW 2985   0.027   3.458   3.841
  990SOL    HW1 2986   0.008   3.362   3.862
  990SOL    HW2 2987  -0.006   3.516   3.916
  991SOL     OW 2988   1.689   2.784   4.336
  991SOL    HW1 2989   1.784   2.755   4.344
  991SOL    HW2 2990   1.681   2.849   4.261
  992SOL     OW 2991   1.641   2.970   4.156
  992SOL    HW1 2992   1.727   2.972   4.104
  992SOL    HW2 2993   1.655   3.017   4.244
  993SOL     OW 2994   0.613   3.227   4.450
  993SOL    HW1 2995   0.564   3.140   4.459
  993SOL    HW2 2996   0.590   3.270   4.363
  994SOL     OW 2997   0.809   1.866   4.226
  994SOL    HW1 2998   0.849   1.957   4.217
  994SOL    HW2 2999   0.709   1.874   4.232
  995SOL     OW 3000   1.525   2.861   3.914
  995SOL    HW1 3001   1.462   2.785   3.927
  995SOL    HW2 3002   1.573   2.879   4.000
  996SOL     OW 3003   1.466   3.279   4.677
  996SOL    HW1 3004   1.407   3.285   4.757
  996SOL    HW2 3005   1.451   3.191   4.631
  997SOL     OW 3006   1.667   3.576   4.296
  997SOL    HW1 3007   1.626   3.553   4.208
  997SOL    HW2 3008   1.649   3.502   4.361
  998SOL     OW 3009   0.598   2.591   3.994
  998SOL    HW1 3010   0.622   2.660   3.926
  998SOL    HW2 3011   0.520   2.624   4.048
  999SOL     OW 3012   1.281   2.207   4.668
  999SOL    HW1 3013   1.195   2.157   4.655
  999SOL    HW2 3014   1.343   2.153   4.724
 1000SOL     OW 3015   1.576   3.524   4.031
 1000SOL    HW1 3016   1.665   3.570   4.034
 1000SOL    HW2 3017   1.555   3.500   3.936
 1001SOL     OW 3018   1.041   2.563   4.153
 1001SOL    HW1 3019   1.067   2.559   4.249
 1001SOL    HW2 3020   0.956   2.512   4.139
 1002SOL     OW 3021   0.076   2.673   4.513
 1002SOL    HW1 3022   0.175   2.661   4.522
 1002SOL    HW2 3023   0.052   2.768   4.534
 1003SOL     OW 3024   0.865   2.210   3.919
 1003SOL    HW1 3025   0.924   2.273   3.870
 1003SOL    HW2 3026   0.884   2.116   3.890
 1004SOL     OW 3027   1.362   3.006   4.269
 1004SOL    HW1 3028   1.445   2.977   4.221
 1004SOL    HW2 3029   1.313   3.073   4.213
 1005SOL     OW 3030   0.550   2.058   4.609
 1005SOL    HW1 3031   0.545   2.053   4.709
 1005SOL    HW2 3032   0.552   2.154   4.580
 1006SOL     OW 3033   1.008   3.318   4.201
 1006SOL    HW1 3034   0.962   3.390   4.149
 1006SOL    HW2 3035   1.004   3.338   4.299
 1007SOL     OW 3036   0.351   3.663   4.577
 1007SOL    HW1 3037   0.401   3.577   4.583
 1007SOL    HW2 3038   0.416   3.740   4.574
 1008SOL     OW 3039   1.795   2.928   4.597
 1008SOL    HW1 3040   1.733   2.913   4.521
 1008SOL    HW2 3041   1.743   2.939   4.682
 1009SOL     OW 3042   0.321   2.805   3.966
 1009SOL    HW1 3043   0.403   2.844   3.924
 1009SOL    HW2 3044   0.294   2.723   3.917
 1010SOL     OW 3045   1.458   2.597   4.452
 1010SOL    HW1 3046   1.453   2.532   4.527
 1010SOL    HW2 3047   1.538   2.656   4.465
 1011SOL     OW 3048   1.111   3.638   3.961
 1011SOL    HW1 3049   1.051   3.576   4.011
 1011SOL    HW2 3050   1.142   3.594   3.876
 1012SOL     OW 3051   1.632   3.239   3.805
 1012SOL    HW1 3052   1.600   3.333   3.795
 1012SOL    HW2 3053   1.556   3.176   3.793
 1013SOL     OW 3054   0.464   3.605   4.047
 1013SOL    HW1 3055   0.497   3.644   4.133
 1013SOL    HW2 3056   0.540   3.598   3.982
 1014SOL     OW 3057   1.400   1.969   4.150
 1014SOL    HW1 3058   1.376   1.932   4.060
 1014SOL    HW2 3059   1.499   1.985   4.154
 1015SOL     OW 3060   0.249   3.647   4.965
 1015SOL    HW1 3061   0.306   3.582   5.015
 1015SOL    HW2 3062   0.233   3.614   4.872
 1016SOL     OW 3063   0.940   3.560   4.628
 1016SOL    HW1 3064   1.020   3.503   4.649
 1016SOL    HW2 3065   0.891   3.520   4.551
 1017SOL     OW 3066   0.382   2.562   4.204
 1017SOL    HW1 3067   0.427   2.472   4.201
 1017SOL    HW2 3068   0.288   2.551   4.237
 1018SOL     OW 3069   0.614   1.984   3.841
 1018SOL    HW1 3070   0.712   1.962   3.848
 1018SOL    HW2 3071   0.583   1.967   3.748
 1019SOL     OW 3072   0.803   3.264   4.648
 1019SOL    HW1 3073   0.893   3.278   4.606
 1019SOL    HW2 3074   0.732   3.266   4.577
 1020SOL     OW 3075   0.922   2.365   4.623
 1020SOL    HW1 3076   0.897   2.356   4.527
 1020SOL    HW2 3077   0.970   2.283   4.654
 1021SOL     OW 3078   0.539   1.926   4.236
 1021SOL    HW1 3079   0.458   1.927   4.294
 1021SOL    HW2 3080   0.542   2.009   4.181
 1022SOL     OW 3081   1.434   3.050   3.765
 1022SOL    HW1 3082   1.466   2.974   3.822
 1022SOL    HW2 3083   1.342   3.077   3.795
 1023SOL     OW 3084   0.297   1.897   3.895
 1023SOL    HW1 3085   0.346   1.981   3.874
 1023SOL    HW2 3086   0.359   1.832   3.940
 1024SOL     OW 3087   0.935   2.098   4.204
 1024SOL    HW1 3088   0.887   2.139   4.126
 1024SOL    HW2 3089   1.034   2.096   4.185
 1025SOL     OW 3090   1.227   3.432   4.517
 1025SOL    HW1 3091   1.248   3.506   4.452
 1025SOL    HW2 3092   1.295   3.432   4.590
 1026SOL     OW 3093   0.459   3.014   4.465
 1026SOL    HW1 3094   0.388   2.987   4.530
 1026SOL    HW2 3095   0.433   2.986   4.372
 1027SOL     OW 3096   1.271   3.659   4.315
 1027SOL    HW1 3097   1.315   3.723   4.251
 1027SOL    HW2 3098   1.221   3.711   4.385
 1028SOL     OW 3099   1.032   2.411   3.740
 1028SOL    HW1 3100   0.991   2.493   3.701
 1028SOL    HW2 3101   1.096   2.437   3.813
 1029SOL     OW 3102   0.866   2.316   4.366
 1029SOL    HW1 3103   0.834   2.388   4.304
 1029SOL    HW2 3104   0.890   2.235   4.313
 1030SOL     OW 3105   1.017   1.901   4.477
 1030SOL    HW1 3106   0.945   1.906   4.408
 1030SOL    HW2 3107   0.993   1.832   4.546
 1031SOL     OW 3108   1.429   3.035   4.591
 1031SOL    HW1 3109   1.374   2.951   4.584
 1031SOL    HW2 3110   1.455   3.064   4.499
 1032SOL     OW 3111   1.466   2.452   4.716
 1032SOL    HW1 3112   1.436   2.357   4.723
 1032SOL    HW2 3113   1.539   2.468   4.782
 1033SOL     OW 3114   1.857   2.695   4.101
 1033SOL    HW1 3115   1.899   2.631   4.165
 1033SOL    HW2 3116   1.819   2.644   4.023
 1034SOL     OW 3117   0.488   3.247   3.898
 1034SOL    HW1 3118   0.401   3.232   3.945
 1034SOL    HW2 3119   0.471   3.273   3.803
 1035SOL     OW 3120   1.664   3.142   4.381
 1035SOL    HW1 3121   1.763   3.150   4.395
 1035SOL    HW2 3122   1.619   3.226   4.412
 1036SOL     OW 3123   1.390   2.437   3.802
 1036SOL    HW1 3124   1.336   2.416   3.883
 1036SOL    HW2 3125   1.481   2.396   3.811
 1037SOL     OW 3126   0.527   2.118   4.052
 1037SOL    HW1 3127   0.554   2.059   3.977
 1037SOL    HW2 3128   0.527   2.213   4.021
 1038SOL     OW 3129   1.638   2.961   4.803
 1038SOL    HW1 3130   1.643   3.042   4.862
 1038SOL    HW2 3131   1.552   2.963   4.752
 1039SOL     OW 3132   0.705   2.912   4.092
 1039SOL    HW1 3133   0.691   2.919   4.191
 1039SOL    HW2 3134   0.789   2.861   4.074
 1040SOL     OW 3135   0.367   2.962   4.225
 1040SOL    HW1 3136   0.360   3.045   4.169
 1040SOL    HW2 3137   0.371   2.882   4.165
 1041SOL     OW 3138   0.566   2.399   4.589
 1041SOL    HW1 3139   0.578   2.465   4.515
 1041SOL    HW2 3140   0.612   2.433   4.672
 1042SOL     OW 3141   1.252   3.210   4.112
 1042SOL    HW1 3142   1.302   3.287   4.152
 1042SOL    HW2 3143   1.157   3.212   4.144
 1043SOL     OW 3144   1.582   2.501   4.196
 1043SOL    HW1 3145   1.551   2.562   4.269
 1043SOL    HW2 3146   1.632   2.553   4.127
 1044SOL     OW 3147   0.573   2.732   4.753
 1044SOL    HW1 3148   0.617   2.821   4.744
 1044SOL    HW2 3149   0.510   2.732   4.830
 1045SOL     OW 3150   1.209   2.387   3.999
 1045SOL    HW1 3151   1.222   2.303   4.053
 1045SOL    HW2 3152   1.180   2.461   4.059
 1046SOL     OW 3153   0.307   2.075   4.955
 1046SOL    HW1 3154   0.284   2.112   5.045
 1046SOL    HW2 3155   0.277   1.980   4.949
 1047SOL     OW 3156   0.732   2.496   4.788
 1047SOL    HW1 3157   0.791   2.470   4.712
 1047SOL    HW2 3158   0.704   2.592   4.777
 1048SOL     OW 3159   0.307   1.925   4.342
 1048SOL    HW1 3160   0.296   2.019   4.375
 1048SOL    HW2 3161   0.302   1.862   4.419
 1049SOL     OW 3162   1.622   2.229   4.098
 1049SOL    HW1 3163   1.624   2.153   4.162
 1049SOL    HW2 3164   1.574   2.306   4.138
 1050SOL     OW 3165   1.540   2.136   3.849
 1050SOL    HW1 3166   1.479   2.061   3.872
 1050SOL    HW2 3167   1.562   2.188   3.932
 1051SOL     OW 3168   1.303   2.700   3.766
 1051SOL    HW1 3169   1.337   2.607   3.781
 1051SOL    HW2 3170   1.321   2.727   3.671
 1052SOL     OW 3171   1.068   3.195   4.573
 1052SOL    HW1 3172   1.075   3.111   4.518
 1052SOL    HW2 3173   1.130   3.264   4.537
 1053SOL     OW 3174   0.319   2.672   4.673
 1053SOL    HW1 3175   0.412   2.708   4.678
 1053SOL    HW2 3176   0.313   2.587   4.725
 1054SOL     OW 3177   0.339   2.371   4.730
 1054SOL    HW1 3178   0.287   2.288   4.713
 1054SOL    HW2 3179   0.416   2.376   4.666
 1055SOL     OW 3180   0.008   3.188   3.924
 1055SOL    HW1 3181  -0.085   3.209   3.893
 1055SOL    HW2 3182   0.018   3.089   3.937
 1056SOL     OW 3183   0.088   3.663   4.651
 1056SOL    HW1 3184   0.046   3.577   4.624
 1056SOL    HW2 3185   0.182   3.666   4.617
 1057SOL     OW 3186   0.504   3.430   4.634
 1057SOL    HW1 3187   0.570   3.504   4.643
 1057SOL    HW2 3188   0.548   3.351   4.592
 1058SOL     OW 3189   1.002   2.658   4.962
 1058SOL    HW1 3190   1.043   2.626   5.048
 1058SOL    HW2 3191   0.906   2.631   4.959
 1059SOL     OW 3192   0.815   2.434   4.049
 1059SOL    HW1 3193   0.822   2.345   4.003
 1059SOL    HW2 3194   0.721   2.468   4.041
 1060SOL     OW 3195   0.671   2.326   4.993
 1060SOL    HW1 3196   0.637   2.237   4.963
 1060SOL    HW2 3197   0.697   2.380   4.913
 1061SOL     OW 3198   0.473   2.362   3.915
 1061SOL    HW1 3199   0.534   2.442   3.919
 1061SOL    HW2 3200   0.378   2.393   3.922
 1062SOL     OW 3201   1.302   2.717   4.033
 1062SOL    HW1 3202   1.216   2.686   4.075
 1062SOL    HW2 3203   1.298   2.703   3.934
 1063SOL     OW 3204   1.759   3.609   4.878
 1063SOL    HW1 3205   1.820   3.639   4.805
 1063SOL    HW2 3206   1.721   3.520   4.856
 1064SOL     OW 3207   0.083   3.120   4.746
 1064SOL    HW1 3208   0.078   3.119   4.846
 1064SOL    HW2 3209   0.000   3.079   4.708
 1065SOL     OW 3210   1.726   1.997   4.247
 1065SOL    HW1 3211   1.799   1.980   4.180
 1065SOL    HW2 3212   1.695   1.910   4.285
 1066SOL     OW 3213   1.388   3.435   4.201
 1066SOL    HW1 3214   1.455   3.447   4.127
 1066SOL    HW2 3215   1.348   3.524   4.224
 1067SOL     OW 3216   1.280   2.789   4.396
 1067SOL    HW1 3217   1.340   2.708   4.398
 1067SOL    HW2 3218   1.320   2.858   4.336
 1068SOL     OW 3219   0.672   3.478   3.878
 1068SOL    HW1 3220   0.681   3.488   3.779
 1068SOL    HW2 3221   0.632   3.389   3.899
 1069SOL     OW 3222   1.841   2.037   4.687
 1069SOL    HW1 3223   1.880   1.952   4.651
 1069SOL    HW2 3224   1.743   2.039   4.668
 1070SOL     OW 3225   0.263   2.188   4.444
 1070SOL    HW1 3226   0.184   2.239   4.410
 1070SOL    HW2 3227   0.254   2.173   4.542
 1071SOL     OW 3228   1.194   3.474   3.755
 1071SOL    HW1 3229   1.200   3.381   3.792
 1071SOL    HW2 3230   1.135   3.474   3.675
 1072SOL     OW 3231   0.916   2.772   4.015
 1072SOL    HW1 3232   0.979   2.810   3.947
 1072SOL    HW2 3233   0.956   2.689   4.054
 1073SOL     OW 3234   1.504   3.469   3.768
 1073SOL    HW1 3235   1.412   3.506   3.775
 1073SOL    HW2 3236   1.542   3.489   3.678
 1074SOL     OW 3237   1.039   2.960   4.420
 1074SOL    HW1 3238   0.969   2.913   4.474
 1074SOL    HW2 3239   1.098   2.892   4.377
 1075SOL     OW 3240   0.590   3.349   4.215
 1075SOL    HW1 3241   0.632   3.291   4.145
 1075SOL    HW2 3242   0.546   3.428   4.171
 1076SOL     OW 3243   0.255   3.210   4.014
 1076SOL    HW1 3244   0.159   3.211   3.987
 1076SOL    HW2 3245   0.267   3.263   4.098
 1077SOL     OW 3246   0.075   2.207   3.757
 1077SOL    HW1 3247  -0.017   2.179   3.728
 1077SOL    HW2 3248   0.106   2.284   3.701
 1078SOL     OW 3249   0.072   2.028   4.042
 1078SOL    HW1 3250   0.055   2.111   3.988
 1078SOL    HW2 3251   0.162   1.991   4.020
 1079SOL     OW 3252   1.183   3.197   3.843
 1079SOL    HW1 3253   1.084   3.186   3.845
 1079SOL    HW2 3254   1.217   3.212   3.936
 1080SOL     OW 3255   1.674   2.745   4.978
 1080SOL    HW1 3256   1.647   2.656   4.941
 1080SOL    HW2 3257   1.675   2.813   4.905
 1081SOL     OW 3258   1.225   2.187   4.173
 1081SOL    HW1 3259   1.290   2.113   4.162
 1081SOL    HW2 3260   1.245   2.237   4.257
 1082SOL     OW 3261   0.594   2.607   4.376
 1082SOL    HW1 3262   0.644   2.692   4.357
 1082SOL    HW2 3263   0.506   2.609   4.328
 1083SOL     OW 3264   0.859   3.236   3.740
 1083SOL    HW1 3265   0.813   3.251   3.828
 1083SOL    HW2 3266   0.903   3.321   3.710
 1084SOL     OW 3267   0.661   3.652   4.677
 1084SOL    HW1 3268   0.615   3.740   4.664
 1084SOL    HW2 3269   0.760   3.664   4.670
 1085SOL     OW 3270   0.859   2.818   4.585
 1085SOL    HW1 3271   0.913   2.749   4.633
 1085SOL    HW2 3272   0.827   2.887   4.651
 1086SOL     OW 3273   1.083   2.846   3.811
 1086SOL    HW1 3274   1.060   2.899   3.729
 1086SOL    HW2 3275   1.164   2.790   3.792
 1087SOL     OW 3276   1.861   3.431   4.575
 1087SOL    HW1 3277   1.790   3.419   4.505
 1087SOL    HW2 3278   1.862   3.352   4.635
 1088SOL     OW 3279   0.079   3.102   4.377
 1088SOL    HW1 3280   0.078   3.055   4.465
 1088SOL    HW2 3281   0.161   3.074   4.326
 1089SOL     OW 3282   1.824   2.054   4.951
 1089SOL    HW1 3283   1.820   1.964   4.995
 1089SOL    HW2 3284   1.827   2.043   4.852
 1090SOL     OW 3285   0.428   2.286   4.244
 1090SOL    HW1 3286   0.458   2.214   4.182
 1090SOL    HW2 3287   0.389   2.246   4.327
 1091SOL     OW 3288   0.812   3.448   4.411
 1091SOL    HW1 3289   0.844   3.458   4.317
 1091SOL    HW2 3290   0.733   3.386   4.413
 1092SOL     OW 3291   0.770   3.192   4.025
 1092SOL    HW1 3292   0.724   3.105   4.042
 1092SOL    HW2 3293   0.861   3.189   4.066
 1093SOL     OW 3294   1.352   1.914   3.892
 1093SOL    HW1 3295   1.387   1.873   3.808
 1093SOL    HW2 3296   1.262   1.876   3.912
 1094SOL     OW 3297   1.300   2.315   4.415
 1094SOL    HW1 3298   1.241   2.395   4.419
 1094SOL    HW2 3299   1.315   2.280   4.508
 1095SOL     OW 3300   1.593   2.083   4.606
 1095SOL    HW1 3301   1.509   2.082   4.660
 1095SOL    HW2 3302   1.595   2.166   4.550
 1096SOL     OW 3303   0.039   2.939   4.024
 1096SOL    HW1 3304   0.138   2.928   4.015
 1096SOL    HW2 3305  -0.001   2.853   4.056
 1097SOL     OW 3306   0.875   3.508   4.061
 1097SOL    HW1 3307   0.798   3.473   4.007
 1097SOL    HW2 3308   0.843   3.579   4.123
 1098SOL     OW 3309   0.230   4.352   0.113
 1098SOL    HW1 3310   0.137   4.350   0.150
 1098SOL    HW2 3311   0.231   4.313   0.021
 1099SOL     OW 3312   0.225   3.999   0.996
 1099SOL    HW1 3313   0.260   3.982   1.088
 1099SOL    HW2 3314   0.137   3.954   0.984
 1100SOL     OW 3315   0.019   4.092   0.647
 1100SOL    HW1 3316  -0.063   4.135   0.686
 1100SOL    HW2 3317  -0.009   4.019   0.584
 1101SOL     OW 3318   1.135   4.427   0.717
 1101SOL    HW1 3319   1.192   4.505   0.692
 1101SOL    HW2 3320   1.075   4.453   0.793
 1102SOL     OW 3321   1.755   4.331   0.231
 1102SOL    HW1 3322   1.743   4.318   0.132
 1102SOL    HW2 3323   1.725   4.250   0.280
 1103SOL     OW 3324   0.768   4.868   1.023
 1103SOL    HW1 3325   0.690   4.885   1.083
 1103SOL    HW2 3326   0.802   4.955   0.987
 1104SOL     OW 3327   0.850   4.522   1.823
 1104SOL    HW1 3328   0.846   4.598   1.888
 1104SOL    HW2 3329   0.872   4.558   1.732
 1105SOL     OW 3330   0.685   4.736   0.665
 1105SOL    HW1 3331   0.754   4.720   0.735
 1105SOL    HW2 3332   0.612   4.793   0.703
 1106SOL     OW 3333   0.438   4.116   1.499
 1106SOL    HW1 3334   0.520   4.060   1.508
 1106SOL    HW2 3335   0.357   4.058   1.503
 1107SOL     OW 3336   1.603   4.171   0.737
 1107SOL    HW1 3337   1.529   4.217   0.687
 1107SOL    HW2 3338   1.654   4.239   0.790
 1108SOL     OW 3339   0.240   4.815   0.886
 1108SOL    HW1 3340   0.254   4.731   0.938
 1108SOL    HW2 3341   0.185   4.879   0.941
 1109SOL     OW 3342   0.606   4.688   0.123
 1109SOL    HW1 3343   0.613   4.772   0.069
 1109SOL    HW2 3344   0.652   4.701   0.211
 1110SOL     OW 3345   1.594   3.838   1.480
 1110SOL    HW1 3346   1.576   3.905   1.408
 1110SOL    HW2 3347   1.591   3.884   1.569
 1111SOL     OW 3348   0.122   4.367   0.563
 1111SOL    HW1 3349   0.077   4.279   0.580
 1111SOL    HW2 3350   0.121   4.421   0.647
 1112SOL     OW 3351   1.689   4.646   0.612
 1112SOL    HW1 3352   1.784   4.617   0.620
 1112SOL    HW2 3353   1.681   4.711   0.537
 1113SOL     OW 3354   0.113   4.461   1.597
 1113SOL    HW1 3355   0.201   4.448   1.642
 1113SOL    HW2 3356   0.100   4.558   1.575
 1114SOL     OW 3357   0.809   3.728   0.502
 1114SOL    HW1 3358   0.849   3.819   0.493
 1114SOL    HW2 3359   0.709   3.736   0.508
 1115SOL     OW 3360   0.197   4.700   1.264
 1115SOL    HW1 3361   0.286   4.655   1.250
 1115SOL    HW2 3362   0.124   4.635   1.245
 1116SOL     OW 3363   1.525   4.723   0.190
 1116SOL    HW1 3364   1.462   4.647   0.203
 1116SOL    HW2 3365   1.573   4.741   0.276
 1117SOL     OW 3366   0.317   3.975   1.801
 1117SOL    HW1 3367   0.388   4.046   1.807
 1117SOL    HW2 3368   0.229   4.014   1.829
 1118SOL     OW 3369   0.598   4.453   0.270
 1118SOL    HW1 3370   0.622   4.522   0.202
 1118SOL    HW2 3371   0.520   4.486   0.324
 1119SOL     OW 3372   1.281   4.069   0.944
 1119SOL    HW1 3373   1.195   4.019   0.931
 1119SOL    HW2 3374   1.343   4.015   1.000
 1120SOL     OW 3375   0.807   4.329   1.465
 1120SOL    HW1 3376   0.760   4.326   1.554
 1120SOL    HW2 3377   0.756   4.274   1.399
 1121SOL     OW 3378   1.394   4.193   1.674
 1121SOL    HW1 3379   1.374   4.236   1.762
 1121SOL    HW2 3380   1.472   4.131   1.683
 1122SOL     OW 3381   0.973   4.614   1.572
 1122SOL    HW1 3382   1.019   4.530   1.543
 1122SOL    HW2 3383   0.917   4.648   1.497
 1123SOL     OW 3384   0.991   4.134   1.242
 1123SOL    HW1 3385   0.914   4.168   1.296
 1123SOL    HW2 3386   0.957   4.083   1.163
 1124SOL     OW 3387   1.041   4.425   0.429
 1124SOL    HW1 3388   1.067   4.421   0.525
 1124SOL    HW2 3389   0.956   4.374   0.415
 1125SOL     OW 3390   0.076   4.535   0.789
 1125SOL    HW1 3391   0.175   4.523   0.798
 1125SOL    HW2 3392   0.052   4.630   0.810
 1126SOL     OW 3393   0.865   4.072   0.195
 1126SOL    HW1 3394   0.924   4.135   0.146
 1126SOL    HW2 3395   0.884   3.978   0.166
 1127SOL     OW 3396   1.719   4.309   1.831
 1127SOL    HW1 3397   1.693   4.398   1.795
 1127SOL    HW2 3398   1.717   4.241   1.758
 1128SOL     OW 3399   0.550   3.920   0.885
 1128SOL    HW1 3400   0.545   3.915   0.985
 1128SOL    HW2 3401   0.552   4.016   0.856
 1129SOL     OW 3402   1.458   4.459   0.728
 1129SOL    HW1 3403   1.453   4.394   0.803
 1129SOL    HW2 3404   1.538   4.518   0.741
 1130SOL     OW 3405   0.202   4.009   1.498
 1130SOL    HW1 3406   0.122   4.069   1.485
 1130SOL    HW2 3407   0.192   3.960   1.584
 1131SOL     OW 3408   1.400   3.831   0.426
 1131SOL    HW1 3409   1.376   3.794   0.336
 1131SOL    HW2 3410   1.499   3.847   0.430
 1132SOL     OW 3411   0.382   4.424   0.480
 1132SOL    HW1 3412   0.427   4.334   0.477
 1132SOL    HW2 3413   0.288   4.413   0.513
 1133SOL     OW 3414   1.547   3.946   1.729
 1133SOL    HW1 3415   1.542   3.983   1.821
 1133SOL    HW2 3416   1.475   3.877   1.717
 1134SOL     OW 3417   0.614   3.846   0.117
 1134SOL    HW1 3418   0.712   3.824   0.124
 1134SOL    HW2 3419   0.583   3.829   0.024
 1135SOL     OW 3420   0.781   3.988   1.749
 1135SOL    HW1 3421   0.848   3.927   1.792
 1135SOL    HW2 3422   0.708   4.007   1.814
 1136SOL     OW 3423   1.351   4.314   1.433
 1136SOL    HW1 3424   1.379   4.271   1.518
 1136SOL    HW2 3425   1.376   4.410   1.434
 1137SOL     OW 3426   0.922   4.227   0.899
 1137SOL    HW1 3427   0.897   4.218   0.803
 1137SOL    HW2 3428   0.970   4.145   0.930
 1138SOL     OW 3429   0.539   3.788   0.512
 1138SOL    HW1 3430   0.458   3.789   0.570
 1138SOL    HW2 3431   0.542   3.871   0.457
 1139SOL     OW 3432   0.935   3.960   0.480
 1139SOL    HW1 3433   0.887   4.001   0.402
 1139SOL    HW2 3434   1.034   3.958   0.461
 1140SOL     OW 3435   1.076   4.407   1.464
 1140SOL    HW1 3436   0.996   4.346   1.467
 1140SOL    HW2 3437   1.157   4.354   1.440
 1141SOL     OW 3438   1.032   4.273   0.016
 1141SOL    HW1 3439   0.991   4.355  -0.023
 1141SOL    HW2 3440   1.096   4.299   0.089
 1142SOL     OW 3441   0.078   4.280   1.386
 1142SOL    HW1 3442   0.170   4.279   1.345
 1142SOL    HW2 3443   0.072   4.354   1.453
 1143SOL     OW 3444   0.561   3.946   1.147
 1143SOL    HW1 3445   0.599   3.862   1.184
 1143SOL    HW2 3446   0.473   3.965   1.191
 1144SOL     OW 3447   0.866   4.178   0.642
 1144SOL    HW1 3448   0.834   4.250   0.580
 1144SOL    HW2 3449   0.890   4.097   0.589
 1145SOL     OW 3450   1.017   3.763   0.753
 1145SOL    HW1 3451   0.945   3.768   0.684
 1145SOL    HW2 3452   0.993   3.694   0.822
 1146SOL     OW 3453   1.429   4.897   0.867
 1146SOL    HW1 3454   1.374   4.813   0.860
 1146SOL    HW2 3455   1.455   4.926   0.775
 1147SOL     OW 3456   1.466   4.314   0.992
 1147SOL    HW1 3457   1.436   4.219   0.999
 1147SOL    HW2 3458   1.539   4.330   1.058
 1148SOL     OW 3459   1.857   4.557   0.377
 1148SOL    HW1 3460   1.899   4.493   0.441
 1148SOL    HW2 3461   1.819   4.506   0.299
 1149SOL     OW 3462   1.390   4.299   0.078
 1149SOL    HW1 3463   1.336   4.278   0.159
 1149SOL    HW2 3464   1.481   4.258   0.087
 1150SOL     OW 3465   0.527   3.980   0.328
 1150SOL    HW1 3466   0.554   3.921   0.253
 1150SOL    HW2 3467   0.527   4.075   0.297
 1151SOL     OW 3468   1.638   4.823   1.079
 1151SOL    HW1 3469   1.643   4.904   1.138
 1151SOL    HW2 3470   1.552   4.825   1.028
 1152SOL     OW 3471   0.915   3.813   1.402
 1152SOL    HW1 3472   0.940   3.793   1.307
 1152SOL    HW2 3473   0.987   3.869   1.444
 1153SOL     OW 3474   0.410   4.537   1.251
 1153SOL    HW1 3475   0.496   4.549   1.301
 1153SOL    HW2 3476   0.368   4.450   1.278
 1154SOL     OW 3477   1.274   4.110   1.262
 1154SOL    HW1 3478   1.295   4.184   1.326
 1154SOL    HW2 3479   1.185   4.127   1.219
 1155SOL     OW 3480   0.566   4.261   0.865
 1155SOL    HW1 3481   0.578   4.327   0.791
 1155SOL    HW2 3482   0.612   4.295   0.948
 1156SOL     OW 3483   1.582   4.363   0.472
 1156SOL    HW1 3484   1.551   4.424   0.545
 1156SOL    HW2 3485   1.632   4.415   0.403
 1157SOL     OW 3486   0.402   4.475   1.598
 1157SOL    HW1 3487   0.470   4.530   1.551
 1157SOL    HW2 3488   0.442   4.387   1.625
 1158SOL     OW 3489   1.587   4.503   1.670
 1158SOL    HW1 3490   1.495   4.541   1.665
 1158SOL    HW2 3491   1.647   4.550   1.605
 1159SOL     OW 3492   1.013   3.829   1.770
 1159SOL    HW1 3493   1.019   3.914   1.718
 1159SOL    HW2 3494   1.045   3.753   1.713
 1160SOL     OW 3495   0.504   3.774   1.740
 1160SOL    HW1 3496   0.462   3.717   1.670
 1160SOL    HW2 3497   0.438   3.843   1.772
 1161SOL     OW 3498   0.573   4.594   1.029
 1161SOL    HW1 3499   0.617   4.683   1.020
 1161SOL    HW2 3500   0.510   4.594   1.106
 1162SOL     OW 3501   1.360   4.586   1.045
 1162SOL    HW1 3502   1.285   4.586   0.979
 1162SOL    HW2 3503   1.397   4.494   1.054
 1163SOL     OW 3504   1.209   4.249   0.275
 1163SOL    HW1 3505   1.222   4.165   0.329
 1163SOL    HW2 3506   1.180   4.323   0.335
 1164SOL     OW 3507   0.307   3.937   1.231
 1164SOL    HW1 3508   0.284   3.974   1.321
 1164SOL    HW2 3509   0.277   3.842   1.225
 1165SOL     OW 3510   0.037   5.034   1.282
 1165SOL    HW1 3511   0.090   4.985   1.350
 1165SOL    HW2 3512   0.059   5.132   1.287
 1166SOL     OW 3513   0.732   4.358   1.064
 1166SOL    HW1 3514   0.791   4.332   0.988
 1166SOL    HW2 3515   0.704   4.454   1.053
 1167SOL     OW 3516   1.728   4.659   1.854
 1167SOL    HW1 3517   1.682   4.652   1.765
 1167SOL    HW2 3518   1.666   4.703   1.920
 1168SOL     OW 3519   0.307   3.787   0.618
 1168SOL    HW1 3520   0.296   3.881   0.651
 1168SOL    HW2 3521   0.302   3.724   0.695
 1169SOL     OW 3522   1.622   4.091   0.374
 1169SOL    HW1 3523   1.624   4.015   0.438
 1169SOL    HW2 3524   1.574   4.168   0.414
 1170SOL     OW 3525   1.023   4.490   0.966
 1170SOL    HW1 3526   1.038   4.511   1.062
 1170SOL    HW2 3527   0.993   4.395   0.957
 1171SOL     OW 3528   0.350   4.622   1.804
 1171SOL    HW1 3529   0.426   4.666   1.852
 1171SOL    HW2 3530   0.385   4.575   1.722
 1172SOL     OW 3531   1.540   3.998   0.125
 1172SOL    HW1 3532   1.479   3.923   0.148
 1172SOL    HW2 3533   1.562   4.050   0.208
 1173SOL     OW 3534   1.303   4.562   0.042
 1173SOL    HW1 3535   1.337   4.469   0.057
 1173SOL    HW2 3536   1.321   4.589  -0.053
 1174SOL     OW 3537   0.319   4.534   0.949
 1174SOL    HW1 3538   0.412   4.570   0.954
 1174SOL    HW2 3539   0.313   4.449   1.001
 1175SOL     OW 3540   0.339   4.233   1.006
 1175SOL    HW1 3541   0.287   4.150   0.989
 1175SOL    HW2 3542   0.416   4.238   0.942
 1176SOL     OW 3543   1.138   4.104   1.678
 1176SOL    HW1 3544   1.093   4.167   1.742
 1176SOL    HW2 3545   1.231   4.135   1.661
 1177SOL     OW 3546   1.160   3.931   1.477
 1177SOL    HW1 3547   1.160   3.995   1.554
 1177SOL    HW2 3548   1.188   3.979   1.394
 1178SOL     OW 3549   1.002   4.520   1.238
 1178SOL    HW1 3550   1.043   4.488   1.324
 1178SOL    HW2 3551   0.906   4.493   1.235
 1179SOL     OW 3552   0.040   4.268   1.114
 1179SOL    HW1 3553   0.125   4.235   1.073
 1179SOL    HW2 3554   0.053   4.283   1.212
 1180SOL     OW 3555   0.189   4.244   1.722
 1180SOL    HW1 3556   0.248   4.204   1.652
 1180SOL    HW2 3557   0.131   4.315   1.681
 1181SOL     OW 3558   1.369   4.674   1.660
 1181SOL    HW1 3559   1.408   4.763   1.680
 1181SOL    HW2 3560   1.379   4.654   1.563
 1182SOL     OW 3561   0.815   4.296   0.325
 1182SOL    HW1 3562   0.822   4.207   0.279
 1182SOL    HW2 3563   0.721   4.330   0.317
 1183SOL     OW 3564   1.657   4.328   1.206
 1183SOL    HW1 3565   1.619   4.259   1.268
 1183SOL    HW2 3566   1.739   4.292   1.162
 1184SOL     OW 3567   0.671   4.188   1.269
 1184SOL    HW1 3568   0.637   4.099   1.239
 1184SOL    HW2 3569   0.697   4.242   1.189
 1185SOL     OW 3570   0.473   4.224   0.191
 1185SOL    HW1 3571   0.534   4.304   0.195
 1185SOL    HW2 3572   0.378   4.255   0.198
 1186SOL     OW 3573   0.159   4.861   1.466
 1186SOL    HW1 3574   0.181   4.800   1.542
 1186SOL    HW2 3575   0.169   4.812   1.380
 1187SOL     OW 3576   1.347   4.783   1.234
 1187SOL    HW1 3577   1.371   4.720   1.160
 1187SOL    HW2 3578   1.257   4.823   1.216
 1188SOL     OW 3579   1.302   4.579   0.309
 1188SOL    HW1 3580   1.216   4.548   0.351
 1188SOL    HW2 3581   1.298   4.565   0.210
 1189SOL     OW 3582   0.903   3.810   0.133
 1189SOL    HW1 3583   0.954   3.811   0.047
 1189SOL    HW2 3584   0.959   3.768   0.204
 1190SOL     OW 3585   1.726   3.859   0.523
 1190SOL    HW1 3586   1.799   3.842   0.456
 1190SOL    HW2 3587   1.695   3.772   0.561
 1191SOL     OW 3588   1.280   4.651   0.672
 1191SOL    HW1 3589   1.340   4.570   0.674
 1191SOL    HW2 3590   1.320   4.720   0.612
 1192SOL     OW 3591   1.841   3.899   0.963
 1192SOL    HW1 3592   1.880   3.814   0.927
 1192SOL    HW2 3593   1.743   3.901   0.944
 1193SOL     OW 3594   0.263   4.050   0.720
 1193SOL    HW1 3595   0.184   4.101   0.686
 1193SOL    HW2 3596   0.254   4.035   0.818
 1194SOL     OW 3597   0.916   4.634   0.291
 1194SOL    HW1 3598   0.979   4.672   0.223
 1194SOL    HW2 3599   0.956   4.551   0.330
 1195SOL     OW 3600   1.014   3.960   0.971
 1195SOL    HW1 3601   1.006   3.924   0.878
 1195SOL    HW2 3602   1.012   3.884   1.036
 1196SOL     OW 3603   1.709   4.109   1.381
 1196SOL    HW1 3604   1.782   4.178   1.385
 1196SOL    HW2 3605   1.737   4.034   1.322
 1197SOL     OW 3606   0.105   4.737   1.726
 1197SOL    HW1 3607   0.028   4.704   1.780
 1197SOL    HW2 3608   0.190   4.707   1.768
 1198SOL     OW 3609   0.672   3.927   1.489
 1198SOL    HW1 3610   0.762   3.911   1.449
 1198SOL    HW2 3611   0.680   3.932   1.588
 1199SOL     OW 3612   0.075   4.069   0.033
 1199SOL    HW1 3613  -0.017   4.041   0.004
 1199SOL    HW2 3614   0.106   4.146  -0.023
 1200SOL     OW 3615   1.440   4.580   1.398
 1200SOL    HW1 3616   1.383   4.632   1.335
 1200SOL    HW2 3617   1.536   4.592   1.374
 1201SOL     OW 3618   0.072   3.890   0.318
 1201SOL    HW1 3619   0.055   3.973   0.264
 1201SOL    HW2 3620   0.162   3.853   0.296
 1202SOL     OW 3621   1.183   5.059   0.119
 1202SOL    HW1 3622   1.084   5.048   0.121
 1202SOL    HW2 3623   1.217   5.074   0.212
 1203SOL     OW 3624   0.613   4.566   1.431
 1203SOL    HW1 3625   0.669   4.647   1.414
 1203SOL    HW2 3626   0.672   4.486   1.434
 1204SOL     OW 3627   0.716   4.289   1.708
 1204SOL    HW1 3628   0.735   4.354   1.782
 1204SOL    HW2 3629   0.776   4.209   1.717
 1205SOL     OW 3630   1.674   4.607   1.254
 1205SOL    HW1 3631   1.647   4.518   1.217
 1205SOL    HW2 3632   1.675   4.675   1.181
 1206SOL     OW 3633   1.225   4.049   0.449
 1206SOL    HW1 3634   1.290   3.975   0.438
 1206SOL    HW2 3635   1.245   4.099   0.533
 1207SOL     OW 3636   0.594   4.469   0.652
 1207SOL    HW1 3637   0.644   4.554   0.633
 1207SOL    HW2 3638   0.506   4.471   0.604
 1208SOL     OW 3639   1.777   4.066   1.642
 1208SOL    HW1 3640   1.760   4.097   1.548
 1208SOL    HW2 3641   1.693   4.029   1.680
 1209SOL     OW 3642   1.730   4.658   1.517
 1209SOL    HW1 3643   1.768   4.749   1.532
 1209SOL    HW2 3644   1.722   4.641   1.418
 1210SOL     OW 3645   0.859   4.680   0.861
 1210SOL    HW1 3646   0.913   4.611   0.909
 1210SOL    HW2 3647   0.827   4.749   0.927
 1211SOL     OW 3648   1.083   4.708   0.087
 1211SOL    HW1 3649   1.060   4.761   0.005
 1211SOL    HW2 3650   1.164   4.652   0.068
 1212SOL     OW 3651   0.079   4.964   0.653
 1212SOL    HW1 3652   0.078   4.917   0.741
 1212SOL    HW2 3653   0.161   4.936   0.602
 1213SOL     OW 3654   1.824   3.916   1.227
 1213SOL    HW1 3655   1.820   3.826   1.271
 1213SOL    HW2 3656   1.827   3.905   1.128
 1214SOL     OW 3657   0.428   4.148   0.520
 1214SOL    HW1 3658   0.458   4.076   0.458
 1214SOL    HW2 3659   0.389   4.108   0.603
 1215SOL     OW 3660   0.317   4.271   1.280
 1215SOL    HW1 3661   0.355   4.212   1.352
 1215SOL    HW2 3662   0.357   4.245   1.192
 1216SOL     OW 3663   1.424   3.938   1.112
 1216SOL    HW1 3664   1.476   3.873   1.167
 1216SOL    HW2 3665   1.375   4.001   1.173
 1217SOL     OW 3666   1.001   3.758   1.154
 1217SOL    HW1 3667   0.938   3.686   1.123
 1217SOL    HW2 3668   1.094   3.722   1.154
 1218SOL     OW 3669   1.352   3.776   0.168
 1218SOL    HW1 3670   1.387   3.735   0.084
 1218SOL    HW2 3671   1.262   3.738   0.188
 1219SOL     OW 3672   1.300   4.177   0.691
 1219SOL    HW1 3673   1.241   4.257   0.695
 1219SOL    HW2 3674   1.315   4.142   0.784
 1220SOL     OW 3675   1.593   3.945   0.882
 1220SOL    HW1 3676   1.509   3.944   0.936
 1220SOL    HW2 3677   1.595   4.028   0.826
 1221SOL     OW 3678   0.039   4.801   0.300
 1221SOL    HW1 3679   0.138   4.790   0.291
 1221SOL    HW2 3680  -0.001   4.715   0.332
 1222SOL     OW 3681   0.230   4.352   1.975
 1222SOL    HW1 3682   0.137   4.350   2.012
 1222SOL    HW2 3683   0.231   4.313   1.883
 1223SOL     OW 3684   0.225   3.999   2.858
 1223SOL    HW1 3685   0.260   3.982   2.950
 1223SOL    HW2 3686   0.137   3.954   2.846
 1224SOL     OW 3687   0.019   4.092   2.509
 1224SOL    HW1 3688  -0.063   4.135   2.548
 1224SOL    HW2 3689  -0.009   4.019   2.446
 1225SOL     OW 3690   1.135   4.427   2.579
 1225SOL    HW1 3691   1.192   4.505   2.554
 1225SOL    HW2 3692   1.075   4.453   2.655
 1226SOL     OW 3693   1.755   4.331   2.093
 1226SOL    HW1 3694   1.743   4.318   1.994
 1226SOL    HW2 3695   1.725   4.250   2.142
 1227SOL     OW 3696   0.768   4.868   2.885
 1227SOL    HW1 3697   0.690   4.885   2.945
 1227SOL    HW2 3698   0.802   4.955   2.849
 1228SOL     OW 3699   0.850   4.522   3.685
 1228SOL    HW1 3700   0.846   4.598   3.750
 1228SOL    HW2 3701   0.872   4.558   3.594
 1229SOL     OW 3702   0.685   4.736   2.527
 1229SOL    HW1 3703   0.754   4.720   2.597
 1229SOL    HW2 3704   0.612   4.793   2.565
 1230SOL     OW 3705   0.438   4.116   3.361
 1230SOL    HW1 3706   0.520   4.060   3.370
 1230SOL    HW2 3707   0.357   4.058   3.365
 1231SOL     OW 3708   1.603   4.171   2.599
 1231SOL    HW1 3709   1.529   4.217   2.549
 1231SOL    HW2 3710   1.654   4.239   2.652
 1232SOL     OW 3711   0.240   4.815   2.748
 1232SOL    HW1 3712   0.254   4.731   2.800
 1232SOL    HW2 3713   0.185   4.879   2.803
 1233SOL     OW 3714   0.606   4.688   1.985
 1233SOL    HW1 3715   0.613   4.772   1.931
 1233SOL    HW2 3716   0.652   4.701   2.073
 1234SOL     OW 3717   1.594   3.838   3.342
 1234SOL    HW1 3718   1.576   3.905   3.270
 1234SOL    HW2 3719   1.591   3.884   3.431
 1235SOL     OW 3720   0.122   4.367   2.425
 1235SOL    HW1 3721   0.077   4.279   2.442
 1235SOL    HW2 3722   0.121   4.421   2.509
 1236SOL     OW 3723   1.689   4.646   2.474
 1236SOL    HW1 3724   1.784   4.617   2.482
 1236SOL    HW2 3725   1.681   4.711   2.399
 1237SOL     OW 3726   0.113   4.461   3.459
 1237SOL    HW1 3727   0.201   4.448   3.504
 1237SOL    HW2 3728   0.100   4.558   3.437
 1238SOL     OW 3729   0.809   3.728   2.364
 1238SOL    HW1 3730   0.849   3.819   2.355
 1238SOL    HW2 3731   0.709   3.736   2.370
 1239SOL     OW 3732   0.197   4.700   3.126
 1239SOL    HW1 3733   0.286   4.655   3.112
 1239SOL    HW2 3734   0.124   4.635   3.107
 1240SOL     OW 3735   1.525   4.723   2.052
 1240SOL    HW1 3736   1.462   4.647   2.065
 1240SOL    HW2 3737   1.573   4.741   2.138
 1241SOL     OW 3738   0.317   3.975   3.663
 1241SOL    HW1 3739   0.388   4.046   3.669
 1241SOL    HW2 3740   0.229   4.014   3.691
 1242SOL     OW 3741   0.598   4.453   2.132
 1242SOL    HW1 3742   0.622   4.522   2.064
 1242SOL    HW2 3743   0.520   4.486   2.186
 1243SOL     OW 3744   1.281   4.069   2.806
 1243SOL    HW1 3745   1.195   4.019   2.793
 1243SOL    HW2 3746   1.343   4.015   2.862
 1244SOL     OW 3747   0.807   4.329   3.327
 1244SOL    HW1 3748   0.760   4.326   3.416
 1244SOL    HW2 3749   0.756   4.274   3.261
 1245SOL     OW 3750   1.394   4.193   3.536
 1245SOL    HW1 3751   1.374   4.236   3.624
 1245SOL    HW2 3752   1.472   4.131   3.545
 1246SOL     OW 3753   0.973   4.614   3.434
 1246SOL    HW1 3754   1.019   4.530   3.405
 1246SOL    HW2 3755   0.917   4.648   3.359
 1247SOL     OW 3756   0.991   4.134   3.104
 1247SOL    HW1 3757   0.914   4.168   3.158
 1247SOL    HW2 3758   0.957   4.083   3.025
 1248SOL     OW 3759   1.041   4.425   2.291
 1248SOL    HW1 3760   1.067   4.421   2.387
 1248SOL    HW2 3761   0.956   4.374   2.277
 1249SOL     OW 3762   0.076   4.535   2.651
 1249SOL    HW1 3763   0.175   4.523   2.660
 1249SOL    HW2 3764   0.052   4.630   2.672
 1250SOL     OW 3765   0.865   4.072   2.057
 1250SOL    HW1 3766   0.924   4.135   2.008
 1250SOL    HW2 3767   0.884   3.978   2.028
 1251SOL     OW 3768   1.719   4.309   3.693
 1251SOL    HW1 3769   1.693   4.398   3.657
 1251SOL    HW2 3770   1.717   4.241   3.620
 1252SOL     OW 3771   0.550   3.920   2.747
 1252SOL    HW1 3772   0.545   3.915   2.847
 1252SOL    HW2 3773   0.552   4.016   2.718
 1253SOL     OW 3774   1.458   4.459   2.590
 1253SOL    HW1 3775   1.453   4.394   2.665
 1253SOL    HW2 3776   1.538   4.518   2.603
 1254SOL     OW 3777   0.202   4.009   3.360
 1254SOL    HW1 3778   0.122   4.069   3.347
 1254SOL    HW2 3779   0.192   3.960   3.446
 1255SOL     OW 3780   1.400   3.831   2.288
 1255SOL    HW1 3781   1.376   3.794   2.198
 1255SOL    HW2 3782   1.499   3.847   2.292
 1256SOL     OW 3783   0.382   4.424   2.342
 1256SOL    HW1 3784   0.427   4.334   2.339
 1256SOL    HW2 3785   0.288   4.413   2.375
 1257SOL     OW 3786   1.547   3.946   3.591
 1257SOL    HW1 3787   1.542   3.983   3.683
 1257SOL    HW2 3788   1.475   3.877   3.579
 1258SOL     OW 3789   0.614   3.846   1.979
 1258SOL    HW1 3790   0.712   3.824   1.986
 1258SOL    HW2 3791   0.583   3.829   1.886
 1259SOL     OW 3792   0.781   3.988   3.611
 1259SOL    HW1 3793   0.848   3.927   3.654
 1259SOL    HW2 3794   0.708   4.007   3.676
 1260SOL     OW 3795   1.351   4.314   3.295
 1260SOL    HW1 3796   1.379   4.271   3.380
 1260SOL    HW2 3797   1.376   4.410   3.296
 1261SOL     OW 3798   0.922   4.227   2.761
 1261SOL    HW1 3799   0.897   4.218   2.665
 1261SOL    HW2 3800   0.970   4.145   2.792
 1262SOL     OW 3801   0.539   3.788   2.374
 1262SOL    HW1 3802   0.458   3.789   2.432
 1262SOL    HW2 3803   0.542   3.871   2.319
 1263SOL     OW 3804   0.297   3.759   2.033
 1263SOL    HW1 3805   0.346   3.843   2.012
 1263SOL    HW2 3806   0.359   3.694   2.078
 1264SOL     OW 3807   0.935   3.960   2.342
 1264SOL    HW1 3808   0.887   4.001   2.264
 1264SOL    HW2 3809   1.034   3.958   2.323
 1265SOL     OW 3810   1.076   4.407   3.326
 1265SOL    HW1 3811   0.996   4.346   3.329
 1265SOL    HW2 3812   1.157   4.354   3.302
 1266SOL     OW 3813   1.032   4.273   1.878
 1266SOL    HW1 3814   0.991   4.355   1.839
 1266SOL    HW2 3815   1.096   4.299   1.951
 1267SOL     OW 3816   0.078   4.280   3.248
 1267SOL    HW1 3817   0.170   4.279   3.207
 1267SOL    HW2 3818   0.072   4.354   3.315
 1268SOL     OW 3819   0.561   3.946   3.009
 1268SOL    HW1 3820   0.599   3.862   3.046
 1268SOL    HW2 3821   0.473   3.965   3.053
 1269SOL     OW 3822   0.866   4.178   2.504
 1269SOL    HW1 3823   0.834   4.250   2.442
 1269SOL    HW2 3824   0.890   4.097   2.451
 1270SOL     OW 3825   1.017   3.763   2.615
 1270SOL    HW1 3826   0.945   3.768   2.546
 1270SOL    HW2 3827   0.993   3.694   2.684
 1271SOL     OW 3828   1.429   4.897   2.729
 1271SOL    HW1 3829   1.374   4.813   2.722
 1271SOL    HW2 3830   1.455   4.926   2.637
 1272SOL     OW 3831   1.466   4.314   2.854
 1272SOL    HW1 3832   1.436   4.219   2.861
 1272SOL    HW2 3833   1.539   4.330   2.920
 1273SOL     OW 3834   1.857   4.557   2.239
 1273SOL    HW1 3835   1.899   4.493   2.303
 1273SOL    HW2 3836   1.819   4.506   2.161
 1274SOL     OW 3837   1.390   4.299   1.940
 1274SOL    HW1 3838   1.336   4.278   2.021
 1274SOL    HW2 3839   1.481   4.258   1.949
 1275SOL     OW 3840   0.527   3.980   2.190
 1275SOL    HW1 3841   0.554   3.921   2.115
 1275SOL    HW2 3842   0.527   4.075   2.159
 1276SOL     OW 3843   1.638   4.823   2.941
 1276SOL    HW1 3844   1.643   4.904   3.000
 1276SOL    HW2 3845   1.552   4.825   2.890
 1277SOL     OW 3846   0.915   3.813   3.264
 1277SOL    HW1 3847   0.940   3.793   3.169
 1277SOL    HW2 3848   0.987   3.869   3.306
 1278SOL     OW 3849   0.410   4.537   3.113
 1278SOL    HW1 3850   0.496   4.549   3.163
 1278SOL    HW2 3851   0.368   4.450   3.140
 1279SOL     OW 3852   1.274   4.110   3.124
 1279SOL    HW1 3853   1.295   4.184   3.188
 1279SOL    HW2 3854   1.185   4.127   3.081
 1280SOL     OW 3855   0.566   4.261   2.727
 1280SOL    HW1 3856   0.578   4.327   2.653
 1280SOL    HW2 3857   0.612   4.295   2.810
 1281SOL     OW 3858   1.582   4.363   2.334
 1281SOL    HW1 3859   1.551   4.424   2.407
 1281SOL    HW2 3860   1.632   4.415   2.265
 1282SOL     OW 3861   0.402   4.475   3.460
 1282SOL    HW1 3862   0.470   4.530   3.413
 1282SOL    HW2 3863   0.442   4.387   3.487
 1283SOL     OW 3864   1.587   4.503   3.532
 1283SOL    HW1 3865   1.495   4.541   3.527
 1283SOL    HW2 3866   1.647   4.550   3.467
 1284SOL     OW 3867   1.013   3.829   3.632
 1284SOL    HW1 3868   1.019   3.914   3.580
 1284SOL    HW2 3869   1.045   3.753   3.575
 1285SOL     OW 3870   0.504   3.774   3.602
 1285SOL    HW1 3871   0.462   3.717   3.532
 1285SOL    HW2 3872   0.438   3.843   3.634
 1286SOL     OW 3873   0.573   4.594   2.891
 1286SOL    HW1 3874   0.617   4.683   2.882
 1286SOL    HW2 3875   0.510   4.594   2.968
 1287SOL     OW 3876   1.360   4.586   2.907
 1287SOL    HW1 3877   1.285   4.586   2.841
 1287SOL    HW2 3878   1.397   4.494   2.916
 1288SOL     OW 3879   1.209   4.249   2.137
 1288SOL    HW1 3880   1.222   4.165   2.191
 1288SOL    HW2 3881   1.180   4.323   2.197
 1289SOL     OW 3882   0.307   3.937   3.093
 1289SOL    HW1 3883   0.284   3.974   3.183
 1289SOL    HW2 3884   0.277   3.842   3.087
 1290SOL     OW 3885   0.037   5.034   3.144
 1290SOL    HW1 3886   0.090   4.985   3.212
 1290SOL    HW2 3887   0.059   5.132   3.149
 1291SOL     OW 3888   0.732   4.358   2.926
 1291SOL    HW1 3889   0.791   4.332   2.850
 1291SOL    HW2 3890   0.704   4.454   2.915
 1292SOL     OW 3891   1.728   4.659   3.716
 1292SOL    HW1 3892   1.682   4.652   3.627
 1292SOL    HW2 3893   1.666   4.703   3.782
 1293SOL     OW 3894   0.307   3.787   2.480
 1293SOL    HW1 3895   0.296   3.881   2.513
 1293SOL    HW2 3896   0.302   3.724   2.557
 1294SOL     OW 3897   1.622   4.091   2.236
 1294SOL    HW1 3898   1.624   4.015   2.300
 1294SOL    HW2 3899   1.574   4.168   2.276
 1295SOL     OW 3900   1.023   4.490   2.828
 1295SOL    HW1 3901   1.038   4.511   2.924
 1295SOL    HW2 3902   0.993   4.395   2.819
 1296SOL     OW 3903   0.350   4.622   3.666
 1296SOL    HW1 3904   0.426   4.666   3.714
 1296SOL    HW2 3905   0.385   4.575   3.584
 1297SOL     OW 3906   1.540   3.998   1.987
 1297SOL    HW1 3907   1.479   3.923   2.010
 1297SOL    HW2 3908   1.562   4.050   2.070
 1298SOL     OW 3909   1.303   4.562   1.904
 1298SOL    HW1 3910   1.337   4.469   1.919
 1298SOL    HW2 3911   1.321   4.589   1.809
 1299SOL     OW 3912   0.319   4.534   2.811
 1299SOL    HW1 3913   0.412   4.570   2.816
 1299SOL    HW2 3914   0.313   4.449   2.863
 1300SOL     OW 3915   0.339   4.233   2.868
 1300SOL    HW1 3916   0.287   4.150   2.851
 1300SOL    HW2 3917   0.416   4.238   2.804
 1301SOL     OW 3918   1.138   4.104   3.540
 1301SOL    HW1 3919   1.093   4.167   3.604
 1301SOL    HW2 3920   1.231   4.135   3.523
 1302SOL     OW 3921   1.160   3.931   3.339
 1302SOL    HW1 3922   1.160   3.995   3.416
 1302SOL    HW2 3923   1.188   3.979   3.256
 1303SOL     OW 3924   1.002   4.520   3.100
 1303SOL    HW1 3925   1.043   4.488   3.186
 1303SOL    HW2 3926   0.906   4.493   3.097
 1304SOL     OW 3927   0.040   4.268   2.976
 1304SOL    HW1 3928   0.125   4.235   2.935
 1304SOL    HW2 3929   0.053   4.283   3.074
 1305SOL     OW 3930   0.189   4.244   3.584
 1305SOL    HW1 3931   0.248   4.204   3.514
 1305SOL    HW2 3932   0.131   4.315   3.543
 1306SOL     OW 3933   1.369   4.674   3.522
 1306SOL    HW1 3934   1.408   4.763   3.542
 1306SOL    HW2 3935   1.379   4.654   3.425
 1307SOL     OW 3936   0.815   4.296   2.187
 1307SOL    HW1 3937   0.822   4.207   2.141
 1307SOL    HW2 3938   0.721   4.330   2.179
 1308SOL     OW 3939   1.657   4.328   3.068
 1308SOL    HW1 3940   1.619   4.259   3.130
 1308SOL    HW2 3941   1.739   4.292   3.024
 1309SOL     OW 3942   0.671   4.188   3.131
 1309SOL    HW1 3943   0.637   4.099   3.101
 1309SOL    HW2 3944   0.697   4.242   3.051
 1310SOL     OW 3945   0.473   4.224   2.053
 1310SOL    HW1 3946   0.534   4.304   2.057
 1310SOL    HW2 3947   0.378   4.255   2.060
 1311SOL     OW 3948   0.159   4.861   3.328
 1311SOL    HW1 3949   0.181   4.800   3.404
 1311SOL    HW2 3950   0.169   4.812   3.242
 1312SOL     OW 3951   1.347   4.783   3.096
 1312SOL    HW1 3952   1.371   4.720   3.022
 1312SOL    HW2 3953   1.257   4.823   3.078
 1313SOL     OW 3954   1.302   4.579   2.171
 1313SOL    HW1 3955   1.216   4.548   2.213
 1313SOL    HW2 3956   1.298   4.565   2.072
 1314SOL     OW 3957   1.726   3.859   2.385
 1314SOL    HW1 3958   1.799   3.842   2.318
 1314SOL    HW2 3959   1.695   3.772   2.423
 1315SOL     OW 3960   1.280   4.651   2.534
 1315SOL    HW1 3961   1.340   4.570   2.536
 1315SOL    HW2 3962   1.320   4.720   2.474
 1316SOL     OW 3963   1.841   3.899   2.825
 1316SOL    HW1 3964   1.880   3.814   2.789
 1316SOL    HW2 3965   1.743   3.901   2.806
 1317SOL     OW 3966   0.263   4.050   2.582
 1317SOL    HW1 3967   0.184   4.101   2.548
 1317SOL    HW2 3968   0.254   4.035   2.680
 1318SOL     OW 3969   0.916   4.634   2.153
 1318SOL    HW1 3970   0.979   4.672   2.085
 1318SOL    HW2 3971   0.956   4.551   2.192
 1319SOL     OW 3972   1.014   3.960   2.833
 1319SOL    HW1 3973   1.006   3.924   2.740
 1319SOL    HW2 3974   1.012   3.884   2.898
 1320SOL     OW 3975   1.709   4.109   3.243
 1320SOL    HW1 3976   1.782   4.178   3.247
 1320SOL    HW2 3977   1.737   4.034   3.184
 1321SOL     OW 3978   0.105   4.737   3.588
 1321SOL    HW1 3979   0.028   4.704   3.642
 1321SOL    HW2 3980   0.190   4.707   3.630
 1322SOL     OW 3981   0.672   3.927   3.351
 1322SOL    HW1 3982   0.762   3.911   3.311
 1322SOL    HW2 3983   0.680   3.932   3.450
 1323SOL     OW 3984   0.075   4.069   1.895
 1323SOL    HW1 3985  -0.017   4.041   1.866
 1323SOL    HW2 3986   0.106   4.146   1.839
 1324SOL     OW 3987   1.440   4.580   3.260
 1324SOL    HW1 3988   1.383   4.632   3.197
 1324SOL    HW2 3989   1.536   4.592   3.236
 1325SOL     OW 3990   0.072   3.890   2.180
 1325SOL    HW1 3991   0.055   3.973   2.126
 1325SOL    HW2 3992   0.162   3.853   2.158
 1326SOL     OW 3993   1.183   5.059   1.981
 1326SOL    HW1 3994   1.084   5.048   1.983
 1326SOL    HW2 3995   1.217   5.074   2.074
 1327SOL     OW 3996   0.613   4.566   3.293
 1327SOL    HW1 3997   0.669   4.647   3.276
 1327SOL    HW2 3998   0.672   4.486   3.296
 1328SOL     OW 3999   0.716   4.289   3.570
 1328SOL    HW1 4000   0.735   4.354   3.644
 1328SOL    HW2 4001   0.776   4.209   3.579
 1329SOL     OW 4002   1.674   4.607   3.116
 1329SOL    HW1 4003   1.647   4.518   3.079
 1329SOL    HW2 4004   1.675   4.675   3.043
 1330SOL     OW 4005   1.225   4.049   2.311
 1330SOL    HW1 4006   1.290   3.975   2.300
 1330SOL    HW2 4007   1.245   4.099   2.395
 1331SOL     OW 4008   0.594   4.469   2.514
 1331SOL    HW1 4009   0.644   4.554   2.495
 1331SOL    HW2 4010   0.506   4.471   2.466
 1332SOL     OW 4011   1.777   4.066   3.504
 1332SOL    HW1 4012   1.760   4.097   3.410
 1332SOL    HW2 4013   1.693   4.029   3.542
 1333SOL     OW 4014   1.730   4.658   3.379
 1333SOL    HW1 4015   1.768   4.749   3.394
 1333SOL    HW2 4016   1.722   4.641   3.280
 1334SOL     OW 4017   0.859   4.680   2.723
 1334SOL    HW1 4018   0.913   4.611   2.771
 1334SOL    HW2 4019   0.827   4.749   2.789
 1335SOL     OW 4020   1.083   4.708   1.949
 1335SOL    HW1 4021   1.060   4.761   1.867
 1335SOL    HW2 4022   1.164   4.652   1.930
 1336SOL     OW 4023   0.079   4.964   2.515
 1336SOL    HW1 4024   0.078   4.917   2.603
 1336SOL    HW2 4025   0.161   4.936   2.464
 1337SOL     OW 4026   1.824   3.916   3.089
 1337SOL    HW1 4027   1.820   3.826   3.133
 1337SOL    HW2 4028   1.827   3.905   2.990
 1338SOL     OW 4029   0.428   4.148   2.382
 1338SOL    HW1 4030   0.458   4.076   2.320
 1338SOL    HW2 4031   0.389   4.108   2.465
 1339SOL     OW 4032   0.317   4.271   3.142
 1339SOL    HW1 4033   0.355   4.212   3.214
 1339SOL    HW2 4034   0.357   4.245   3.054
 1340SOL     OW 4035   1.424   3.938   2.974
 1340SOL    HW1 4036   1.476   3.873   3.029
 1340SOL    HW2 4037   1.375   4.001   3.035
 1341SOL     OW 4038   1.001   3.758   3.016
 1341SOL    HW1 4039   0.938   3.686   2.985
 1341SOL    HW2 4040   1.094   3.722   3.016
 1342SOL     OW 4041   1.352   3.776   2.030
 1342SOL    HW1 4042   1.387   3.735   1.946
 1342SOL    HW2 4043   1.262   3.738   2.050
 1343SOL     OW 4044   1.300   4.177   2.553
 1343SOL    HW1 4045   1.241   4.257   2.557
 1343SOL    HW2 4046   1.315   4.142   2.646
 1344SOL     OW 4047   1.593   3.945   2.744
 1344SOL    HW1 4048   1.509   3.944   2.798
 1344SOL    HW2 4049   1.595   4.028   2.688
 1345SOL     OW 4050   0.039   4.801   2.162
 1345SOL    HW1 4051   0.138   4.790   2.153
 1345SOL    HW2 4052  -0.001   4.715   2.194
 1346SOL     OW 4053   0.230   4.352   3.837
 1346SOL    HW1 4054   0.137   4.350   3.874
 1346SOL    HW2 4055   0.231   4.313   3.745
 1347SOL     OW 4056   0.225   3.999   4.720
 1347SOL    HW1 4057   0.260   3.982   4.812
 1347SOL    HW2 4058   0.137   3.954   4.708
 1348SOL     OW 4059   0.019   4.092   4.371
 1348SOL    HW1 4060  -0.063   4.135   4.410
 1348SOL    HW2 4061  -0.009   4.019   4.308
 1349SOL     OW 4062   1.135   4.427   4.441
 1349SOL    HW1 4063   1.192   4.505   4.416
 1349SOL    HW2 4064   1.075   4.453   4.517
 1350SOL     OW 4065   1.755   4.331   3.955
 1350SOL    HW1 4066   1.743   4.318   3.856
 1350SOL    HW2 4067   1.725   4.250   4.004
 1351SOL     OW 4068   0.685   4.736   4.389
 1351SOL    HW1 4069   0.754   4.720   4.459
 1351SOL    HW2 4070   0.612   4.793   4.427
 1352SOL     OW 4071   1.603   4.171   4.461
 1352SOL    HW1 4072   1.529   4.217   4.411
 1352SOL    HW2 4073   1.654   4.239   4.514
 1353SOL     OW 4074   0.240   4.815   4.610
 1353SOL    HW1 4075   0.254   4.731   4.662
 1353SOL    HW2 4076   0.185   4.879   4.665
 1354SOL     OW 4077   0.606   4.688   3.847
 1354SOL    HW1 4078   0.613   4.772   3.793
 1354SOL    HW2 4079   0.652   4.701   3.935
 1355SOL     OW 4080   0.122   4.367   4.287
 1355SOL    HW1 4081   0.077   4.279   4.304
 1355SOL    HW2 4082   0.121   4.421   4.371
 1356SOL     OW 4083   1.689   4.646   4.336
 1356SOL    HW1 4084   1.784   4.617   4.344
 1356SOL    HW2 4085   1.681   4.711   4.261
 1357SOL     OW 4086   0.809   3.728   4.226
 1357SOL    HW1 4087   0.849   3.819   4.217
 1357SOL    HW2 4088   0.709   3.736   4.232
 1358SOL     OW 4089   0.197   4.700   4.988
 1358SOL    HW1 4090   0.286   4.655   4.974
 1358SOL    HW2 4091   0.124   4.635   4.969
 1359SOL     OW 4092   1.525   4.723   3.914
 1359SOL    HW1 4093   1.462   4.647   3.927
 1359SOL    HW2 4094   1.573   4.741   4.000
 1360SOL     OW 4095   0.598   4.453   3.994
 1360SOL    HW1 4096   0.622   4.522   3.926
 1360SOL    HW2 4097   0.520   4.486   4.048
 1361SOL     OW 4098   1.281   4.069   4.668
 1361SOL    HW1 4099   1.195   4.019   4.655
 1361SOL    HW2 4100   1.343   4.015   4.724
 1362SOL     OW 4101   1.041   4.425   4.153
 1362SOL    HW1 4102   1.067   4.421   4.249
 1362SOL    HW2 4103   0.956   4.374   4.139
 1363SOL     OW 4104   0.076   4.535   4.513
 1363SOL    HW1 4105   0.175   4.523   4.522
 1363SOL    HW2 4106   0.052   4.630   4.534
 1364SOL     OW 4107   0.865   4.072   3.919
 1364SOL    HW1 4108   0.924   4.135   3.870
 1364SOL    HW2 4109   0.884   3.978   3.890
 1365SOL     OW 4110   0.550   3.920   4.609
 1365SOL    HW1 4111   0.545   3.915   4.709
 1365SOL    HW2 4112   0.552   4.016   4.580
 1366SOL     OW 4113   1.458   4.459   4.452
 1366SOL    HW1 4114   1.453   4.394   4.527
 1366SOL    HW2 4115   1.538   4.518   4.465
 1367SOL     OW 4116   1.400   3.831   4.150
 1367SOL    HW1 4117   1.376   3.794   4.060
 1367SOL    HW2 4118   1.499   3.847   4.154
 1368SOL     OW 4119   0.382   4.424   4.204
 1368SOL    HW1 4120   0.427   4.334   4.201
 1368SOL    HW2 4121   0.288   4.413   4.237
 1369SOL     OW 4122   0.614   3.846   3.841
 1369SOL    HW1 4123   0.712   3.824   3.848
 1369SOL    HW2 4124   0.583   3.829   3.748
 1370SOL     OW 4125   0.922   4.227   4.623
 1370SOL    HW1 4126   0.897   4.218   4.527
 1370SOL    HW2 4127   0.970   4.145   4.654
 1371SOL     OW 4128   0.539   3.788   4.236
 1371SOL    HW1 4129   0.458   3.789   4.294
 1371SOL    HW2 4130   0.542   3.871   4.181
 1372SOL     OW 4131   0.297   3.759   3.895
 1372SOL    HW1 4132   0.346   3.843   3.874
 1372SOL    HW2 4133   0.359   3.694   3.940
 1373SOL     OW 4134   0.935   3.960   4.204
 1373SOL    HW1 4135   0.887   4.001   4.126
 1373SOL    HW2 4136   1.034   3.958   4.185
 1374SOL     OW 4137   1.032   4.273   3.740
 1374SOL    HW1 4138   0.991   4.355   3.701
 1374SOL    HW2 4139   1.096   4.299   3.813
 1375SOL     OW 4140   0.866   4.178   4.366
 1375SOL    HW1 4141   0.834   4.250   4.304
 1375SOL    HW2 4142   0.890   4.097   4.313
 1376SOL     OW 4143   1.017   3.763   4.477
 1376SOL    HW1 4144   0.945   3.768   4.408
 1376SOL    HW2 4145   0.993   3.694   4.546
 1377SOL     OW 4146   1.429   4.897   4.591
 1377SOL    HW1 4147   1.374   4.813   4.584
 1377SOL    HW2 4148   1.455   4.926   4.499
 1378SOL     OW 4149   1.466   4.314   4.716
 1378SOL    HW1 4150   1.436   4.219   4.723
 1378SOL    HW2 4151   1.539   4.330   4.782
 1379SOL     OW 4152   1.857   4.557   4.101
 1379SOL    HW1 4153   1.899   4.493   4.165
 1379SOL    HW2 4154   1.819   4.506   4.023
 1380SOL     OW 4155   1.390   4.299   3.802
 1380SOL    HW1 4156   1.336   4.278   3.883
 1380SOL    HW2 4157   1.481   4.258   3.811
 1381SOL     OW 4158   0.527   3.980   4.052
 1381SOL    HW1 4159   0.554   3.921   3.977
 1381SOL    HW2 4160   0.527   4.075   4.021
 1382SOL     OW 4161   1.638   4.823   4.803
 1382SOL    HW1 4162   1.643   4.904   4.862
 1382SOL    HW2 4163   1.552   4.825   4.752
 1383SOL     OW 4164   0.566   4.261   4.589
 1383SOL    HW1 4165   0.578   4.327   4.515
 1383SOL    HW2 4166   0.612   4.295   4.672
 1384SOL     OW 4167   1.582   4.363   4.196
 1384SOL    HW1 4168   1.551   4.424   4.269
 1384SOL    HW2 4169   1.632   4.415   4.127
 1385SOL     OW 4170   0.573   4.594   4.753
 1385SOL    HW1 4171   0.617   4.683   4.744
 1385SOL    HW2 4172   0.510   4.594   4.830
 1386SOL     OW 4173   1.209   4.249   3.999
 1386SOL    HW1 4174   1.222   4.165   4.053
 1386SOL    HW2 4175   1.180   4.323   4.059
 1387SOL     OW 4176   0.307   3.937   4.955
 1387SOL    HW1 4177   0.284   3.974   5.045
 1387SOL    HW2 4178   0.277   3.842   4.949
 1388SOL     OW 4179   0.732   4.358   4.788
 1388SOL    HW1 4180   0.791   4.332   4.712
 1388SOL    HW2 4181   0.704   4.454   4.777
 1389SOL     OW 4182   0.307   3.787   4.342
 1389SOL    HW1 4183   0.296   3.881   4.375
 1389SOL    HW2 4184   0.302   3.724   4.419
 1390SOL     OW 4185   1.622   4.091   4.098
 1390SOL    HW1 4186   1.624   4.015   4.162
 1390SOL    HW2 4187   1.574   4.168   4.138
 1391SOL     OW 4188   1.540   3.998   3.849
 1391SOL    HW1 4189   1.479   3.923   3.872
 1391SOL    HW2 4190   1.562   4.050   3.932
 1392SOL     OW 4191   1.303   4.562   3.766
 1392SOL    HW1 4192   1.337   4.469   3.781
 1392SOL    HW2 4193   1.321   4.589   3.671
 1393SOL     OW 4194   0.319   4.534   4.673
 1393SOL    HW1 4195   0.412   4.570   4.678
 1393SOL    HW2 4196   0.313   4.449   4.725
 1394SOL     OW 4197   0.339   4.233   4.730
 1394SOL    HW1 4198   0.287   4.150   4.713
 1394SOL    HW2 4199   0.416   4.238   4.666
 1395SOL     OW 4200   1.002   4.520   4.962
 1395SOL    HW1 4201   1.043   4.488   5.048
 1395SOL    HW2 4202   0.906   4.493   4.959
 1396SOL     OW 4203   0.815   4.296   4.049
 1396SOL    HW1 4204   0.822   4.207   4.003
 1396SOL    HW2 4205   0.721   4.330   4.041
 1397SOL     OW 4206   0.671   4.188   4.993
 1397SOL    HW1 4207   0.637   4.099   4.963
 1397SOL    HW2 4208   0.697   4.242   4.913
 1398SOL     OW 4209   0.473   4.224   3.915
 1398SOL    HW1 4210   0.534   4.304   3.919
 1398SOL    HW2 4211   0.378   4.255   3.922
 1399SOL     OW 4212   1.302   4.579   4.033
 1399SOL    HW1 4213   1.216   4.548   4.075
 1399SOL    HW2 4214   1.298   4.565   3.934
 1400SOL     OW 4215   1.726   3.859   4.247
 1400SOL    HW1 4216   1.799   3.842   4.180
 1400SOL    HW2 4217   1.695   3.772   4.285
 1401SOL     OW 4218   1.280   4.651   4.396
 1401SOL    HW1 4219   1.340   4.570   4.398
 1401SOL    HW2 4220   1.320   4.720   4.336
 1402SOL     OW 4221   1.841   3.899   4.687
 1402SOL    HW1 4222   1.880   3.814   4.651
 1402SOL    HW2 4223   1.743   3.901   4.668
 1403SOL     OW 4224   0.263   4.050   4.444
 1403SOL    HW1 4225   0.184   4.101   4.410
 1403SOL    HW2 4226   0.254   4.035   4.542
 1404SOL     OW 4227   0.916   4.634   4.015
 1404SOL    HW1 4228   0.979   4.672   3.947
 1404SOL    HW2 4229   0.956   4.551   4.054
 1405SOL     OW 4230   0.075   4.069   3.757
 1405SOL    HW1 4231  -0.017   4.041   3.728
 1405SOL    HW2 4232   0.106   4.146   3.701
 1406SOL     OW 4233   0.072   3.890   4.042
 1406SOL    HW1 4234   0.055   3.973   3.988
 1406SOL    HW2 4235   0.162   3.853   4.020
 1407SOL     OW 4236   1.183   5.059   3.843
 1407SOL    HW1 4237   1.084   5.048   3.845
 1407SOL    HW2 4238   1.217   5.074   3.936
 1408SOL     OW 4239   1.674   4.607   4.978
 1408SOL    HW1 4240   1.647   4.518   4.941
 1408SOL    HW2 4241   1.675   4.675   4.905
 1409SOL     OW 4242   1.225   4.049   4.173
 1409SOL    HW1 4243   1.290   3.975   4.162
 1409SOL    HW2 4244   1.245   4.099   4.257
 1410SOL     OW 4245   0.594   4.469   4.376
 1410SOL    HW1 4246   0.644   4.554   4.357
 1410SOL    HW2 4247   0.506   4.471   4.328
 1411SOL     OW 4248   0.859   4.680   4.585
 1411SOL    HW1 4249   0.913   4.611   4.633
 1411SOL    HW2 4250   0.827   4.749   4.651
 1412SOL     OW 4251   1.083   4.708   3.811
 1412SOL    HW1 4252   1.060   4.761   3.729
 1412SOL    HW2 4253   1.164   4.652   3.792
 1413SOL     OW 4254   0.079   4.964   4.377
 1413SOL    HW1 4255   0.078   4.917   4.465
 1413SOL    HW2 4256   0.161   4.936   4.326
 1414SOL     OW 4257   1.824   3.916   4.951
 1414SOL    HW1 4258   1.820   3.826   4.995
 1414SOL    HW2 4259   1.827   3.905   4.852
 1415SOL     OW 4260   0.428   4.148   4.244
 1415SOL    HW1 4261   0.458   4.076   4.182
 1415SOL    HW2 4262   0.389   4.108   4.327
 1416SOL     OW 4263   1.352   3.776   3.892
 1416SOL    HW1 4264   1.387   3.735   3.808
 1416SOL    HW2 4265   1.262   3.738   3.912
 1417SOL     OW 4266   1.300   4.177   4.415
 1417SOL    HW1 4267   1.241   4.257   4.419
 1417SOL    HW2 4268   1.315   4.142   4.508
 1418SOL     OW 4269   1.593   3.945   4.606
 1418SOL    HW1 4270   1.509   3.944   4.660
 1418SOL    HW2 4271   1.595   4.028   4.550
 1419SOL     OW 4272   0.039   4.801   4.024
 1419SOL    HW1 4273   0.138   4.790   4.015
 1419SOL    HW2 4274  -0.001   4.715   4.056
 1420SOL     OW 4275   2.092   0.628   0.113
 1420SOL    HW1 4276   1.999   0.626   0.150
 1420SOL    HW2 4277   2.093   0.589   0.021
 1421SOL     OW 4278   2.087   0.275   0.996
 1421SOL    HW1 4279   2.122   0.258   1.088
 1421SOL    HW2 4280   1.999   0.230   0.984
 1422SOL     OW 4281   1.881   0.368   0.647
 1422SOL    HW1 4282   1.799   0.411   0.686
 1422SOL    HW2 4283   1.853   0.295   0.584
 1423SOL     OW 4284   2.431   1.275   1.165
 1423SOL    HW1 4285   2.338   1.268   1.128
 1423SOL    HW2 4286   2.442   1.364   1.209
 1424SOL     OW 4287   3.417   1.511   0.703
 1424SOL    HW1 4288   3.360   1.495   0.784
 1424SOL    HW2 4289   3.358   1.521   0.623
 1425SOL     OW 4290   2.997   0.703   0.717
 1425SOL    HW1 4291   3.054   0.781   0.692
 1425SOL    HW2 4292   2.937   0.729   0.793
 1426SOL     OW 4293   3.617   0.607   0.231
 1426SOL    HW1 4294   3.605   0.594   0.132
 1426SOL    HW2 4295   3.587   0.526   0.280
 1427SOL     OW 4296   2.630   1.144   1.023
 1427SOL    HW1 4297   2.552   1.161   1.083
 1427SOL    HW2 4298   2.664   1.231   0.987
 1428SOL     OW 4299   2.712   0.798   1.823
 1428SOL    HW1 4300   2.708   0.874   1.888
 1428SOL    HW2 4301   2.734   0.834   1.732
 1429SOL     OW 4302   2.547   1.012   0.665
 1429SOL    HW1 4303   2.616   0.996   0.735
 1429SOL    HW2 4304   2.474   1.069   0.703
 1430SOL     OW 4305   2.548   1.161   1.803
 1430SOL    HW1 4306   2.608   1.240   1.817
 1430SOL    HW2 4307   2.462   1.192   1.762
 1431SOL     OW 4308   2.197   1.435   1.061
 1431SOL    HW1 4309   2.119   1.404   1.008
 1431SOL    HW2 4310   2.255   1.493   1.004
 1432SOL     OW 4311   3.322   1.505   1.339
 1432SOL    HW1 4312   3.346   1.599   1.365
 1432SOL    HW2 4313   3.306   1.451   1.421
 1433SOL     OW 4314   2.300   0.392   1.499
 1433SOL    HW1 4315   2.382   0.336   1.508
 1433SOL    HW2 4316   2.219   0.334   1.503
 1434SOL     OW 4317   3.465   0.447   0.737
 1434SOL    HW1 4318   3.391   0.493   0.687
 1434SOL    HW2 4319   3.516   0.515   0.790
 1435SOL     OW 4320   2.093   1.713   0.483
 1435SOL    HW1 4321   2.127   1.790   0.537
 1435SOL    HW2 4322   2.137   1.713   0.393
 1436SOL     OW 4323   2.989   1.341   1.690
 1436SOL    HW1 4324   3.036   1.341   1.778
 1436SOL    HW2 4325   2.941   1.254   1.679
 1437SOL     OW 4326   2.092   1.434   0.538
 1437SOL    HW1 4327   2.066   1.530   0.538
 1437SOL    HW2 4328   2.021   1.380   0.583
 1438SOL     OW 4329   2.102   1.091   0.886
 1438SOL    HW1 4330   2.116   1.007   0.938
 1438SOL    HW2 4331   2.047   1.155   0.941
 1439SOL     OW 4332   2.482   1.786   1.439
 1439SOL    HW1 4333   2.390   1.769   1.474
 1439SOL    HW2 4334   2.510   1.878   1.465
 1440SOL     OW 4335   2.468   0.964   0.123
 1440SOL    HW1 4336   2.475   1.048   0.069
 1440SOL    HW2 4337   2.514   0.977   0.211
 1441SOL     OW 4338   3.456   0.114   1.480
 1441SOL    HW1 4339   3.438   0.181   1.408
 1441SOL    HW2 4340   3.453   0.160   1.569
 1442SOL     OW 4341   1.984   0.643   0.563
 1442SOL    HW1 4342   1.939   0.555   0.580
 1442SOL    HW2 4343   1.983   0.697   0.647
 1443SOL     OW 4344   3.704   1.767   0.359
 1443SOL    HW1 4345   3.758   1.738   0.439
 1443SOL    HW2 4346   3.734   1.857   0.330
 1444SOL     OW 4347   1.889   1.596   0.117
 1444SOL    HW1 4348   1.870   1.500   0.138
 1444SOL    HW2 4349   1.856   1.654   0.192
 1445SOL     OW 4350   3.551   0.922   0.612
 1445SOL    HW1 4351   3.646   0.893   0.620
 1445SOL    HW2 4352   3.543   0.987   0.537
 1446SOL     OW 4353   3.503   1.108   0.432
 1446SOL    HW1 4354   3.589   1.110   0.380
 1446SOL    HW2 4355   3.517   1.155   0.520
 1447SOL     OW 4356   1.975   0.737   1.597
 1447SOL    HW1 4357   2.063   0.724   1.642
 1447SOL    HW2 4358   1.962   0.834   1.575
 1448SOL     OW 4359   2.475   1.365   0.726
 1448SOL    HW1 4360   2.426   1.278   0.735
 1448SOL    HW2 4361   2.452   1.408   0.639
 1449SOL     OW 4362   3.155   1.228   1.423
 1449SOL    HW1 4363   3.192   1.155   1.365
 1449SOL    HW2 4364   3.207   1.233   1.508
 1450SOL     OW 4365   2.671   0.004   0.502
 1450SOL    HW1 4366   2.711   0.095   0.493
 1450SOL    HW2 4367   2.571   0.012   0.508
 1451SOL     OW 4368   2.059   0.976   1.264
 1451SOL    HW1 4369   2.148   0.931   1.250
 1451SOL    HW2 4370   1.986   0.911   1.245
 1452SOL     OW 4371   3.387   0.999   0.190
 1452SOL    HW1 4372   3.324   0.923   0.203
 1452SOL    HW2 4373   3.435   1.017   0.276
 1453SOL     OW 4374   3.049   1.792   1.616
 1453SOL    HW1 4375   3.073   1.852   1.540
 1453SOL    HW2 4376   3.056   1.697   1.586
 1454SOL     OW 4377   2.179   0.251   1.801
 1454SOL    HW1 4378   2.250   0.322   1.807
 1454SOL    HW2 4379   2.091   0.290   1.829
 1455SOL     OW 4380   3.328   1.417   0.953
 1455SOL    HW1 4381   3.269   1.423   1.033
 1455SOL    HW2 4382   3.313   1.329   0.907
 1456SOL     OW 4383   3.529   1.714   0.572
 1456SOL    HW1 4384   3.488   1.691   0.484
 1456SOL    HW2 4385   3.511   1.640   0.637
 1457SOL     OW 4386   2.460   0.729   0.270
 1457SOL    HW1 4387   2.484   0.798   0.202
 1457SOL    HW2 4388   2.382   0.762   0.324
 1458SOL     OW 4389   3.143   0.345   0.944
 1458SOL    HW1 4390   3.057   0.295   0.931
 1458SOL    HW2 4391   3.205   0.291   1.000
 1459SOL     OW 4392   3.438   1.662   0.307
 1459SOL    HW1 4393   3.527   1.708   0.310
 1459SOL    HW2 4394   3.417   1.638   0.212
 1460SOL     OW 4395   2.669   0.605   1.465
 1460SOL    HW1 4396   2.622   0.602   1.554
 1460SOL    HW2 4397   2.618   0.550   1.399
 1461SOL     OW 4398   3.256   0.469   1.674
 1461SOL    HW1 4399   3.236   0.512   1.762
 1461SOL    HW2 4400   3.334   0.407   1.683
 1462SOL     OW 4401   2.835   0.890   1.572
 1462SOL    HW1 4402   2.881   0.806   1.543
 1462SOL    HW2 4403   2.779   0.924   1.497
 1463SOL     OW 4404   2.853   0.410   1.242
 1463SOL    HW1 4405   2.776   0.444   1.296
 1463SOL    HW2 4406   2.819   0.359   1.163
 1464SOL     OW 4407   2.903   0.701   0.429
 1464SOL    HW1 4408   2.929   0.697   0.525
 1464SOL    HW2 4409   2.818   0.650   0.415
 1465SOL     OW 4410   1.938   0.811   0.789
 1465SOL    HW1 4411   2.037   0.799   0.798
 1465SOL    HW2 4412   1.914   0.906   0.810
 1466SOL     OW 4413   1.992   1.821   1.571
 1466SOL    HW1 4414   1.982   1.806   1.670
 1466SOL    HW2 4415   1.906   1.857   1.535
 1467SOL     OW 4416   2.727   0.348   0.195
 1467SOL    HW1 4417   2.786   0.411   0.146
 1467SOL    HW2 4418   2.746   0.254   0.166
 1468SOL     OW 4419   3.581   0.585   1.831
 1468SOL    HW1 4420   3.555   0.674   1.795
 1468SOL    HW2 4421   3.579   0.517   1.758
 1469SOL     OW 4422   3.224   1.144   0.545
 1469SOL    HW1 4423   3.307   1.115   0.497
 1469SOL    HW2 4424   3.175   1.211   0.489
 1470SOL     OW 4425   2.412   0.196   0.885
 1470SOL    HW1 4426   2.407   0.191   0.985
 1470SOL    HW2 4427   2.414   0.292   0.856
 1471SOL     OW 4428   2.870   1.456   0.477
 1471SOL    HW1 4429   2.824   1.528   0.425
 1471SOL    HW2 4430   2.866   1.476   0.575
 1472SOL     OW 4431   2.213   1.801   0.853
 1472SOL    HW1 4432   2.263   1.715   0.859
 1472SOL    HW2 4433   2.278   1.878   0.850
 1473SOL     OW 4434   3.657   1.066   0.873
 1473SOL    HW1 4435   3.595   1.051   0.797
 1473SOL    HW2 4436   3.605   1.077   0.958
 1474SOL     OW 4437   3.089   1.550   1.506
 1474SOL    HW1 4438   3.095   1.473   1.570
 1474SOL    HW2 4439   3.037   1.524   1.426
 1475SOL     OW 4440   2.183   0.943   0.242
 1475SOL    HW1 4441   2.265   0.982   0.200
 1475SOL    HW2 4442   2.156   0.861   0.193
 1476SOL     OW 4443   3.320   0.735   0.728
 1476SOL    HW1 4444   3.315   0.670   0.803
 1476SOL    HW2 4445   3.400   0.794   0.741
 1477SOL     OW 4446   2.323   1.266   1.727
 1477SOL    HW1 4447   2.273   1.267   1.641
 1477SOL    HW2 4448   2.260   1.248   1.803
 1478SOL     OW 4449   2.973   1.776   0.237
 1478SOL    HW1 4450   2.913   1.714   0.287
 1478SOL    HW2 4451   3.004   1.732   0.152
 1479SOL     OW 4452   2.064   0.285   1.498
 1479SOL    HW1 4453   1.984   0.345   1.485
 1479SOL    HW2 4454   2.054   0.236   1.584
 1480SOL     OW 4455   3.494   1.377   0.081
 1480SOL    HW1 4456   3.462   1.471   0.071
 1480SOL    HW2 4457   3.418   1.314   0.069
 1481SOL     OW 4458   2.326   1.743   0.323
 1481SOL    HW1 4459   2.359   1.782   0.409
 1481SOL    HW2 4460   2.402   1.736   0.258
 1482SOL     OW 4461   3.262   0.107   0.426
 1482SOL    HW1 4462   3.238   0.070   0.336
 1482SOL    HW2 4463   3.361   0.123   0.430
 1483SOL     OW 4464   2.111   1.785   1.241
 1483SOL    HW1 4465   2.168   1.720   1.291
 1483SOL    HW2 4466   2.095   1.752   1.148
 1484SOL     OW 4467   2.802   1.698   0.904
 1484SOL    HW1 4468   2.882   1.641   0.925
 1484SOL    HW2 4469   2.753   1.658   0.827
 1485SOL     OW 4470   2.244   0.700   0.480
 1485SOL    HW1 4471   2.289   0.610   0.477
 1485SOL    HW2 4472   2.150   0.689   0.513
 1486SOL     OW 4473   3.409   0.222   1.729
 1486SOL    HW1 4474   3.404   0.259   1.821
 1486SOL    HW2 4475   3.337   0.153   1.717
 1487SOL     OW 4476   2.476   0.122   0.117
 1487SOL    HW1 4477   2.574   0.100   0.124
 1487SOL    HW2 4478   2.445   0.105   0.024
 1488SOL     OW 4479   2.643   0.264   1.749
 1488SOL    HW1 4480   2.710   0.203   1.792
 1488SOL    HW2 4481   2.570   0.283   1.814
 1489SOL     OW 4482   2.750   1.514   1.195
 1489SOL    HW1 4483   2.727   1.489   1.101
 1489SOL    HW2 4484   2.811   1.445   1.234
 1490SOL     OW 4485   3.213   0.590   1.433
 1490SOL    HW1 4486   3.241   0.547   1.518
 1490SOL    HW2 4487   3.238   0.686   1.434
 1491SOL     OW 4488   2.665   1.402   0.924
 1491SOL    HW1 4489   2.755   1.416   0.882
 1491SOL    HW2 4490   2.594   1.404   0.853
 1492SOL     OW 4491   2.784   0.503   0.899
 1492SOL    HW1 4492   2.759   0.494   0.803
 1492SOL    HW2 4493   2.832   0.421   0.930
 1493SOL     OW 4494   2.401   0.064   0.512
 1493SOL    HW1 4495   2.320   0.065   0.570
 1493SOL    HW2 4496   2.404   0.147   0.457
 1494SOL     OW 4497   3.296   1.188   0.041
 1494SOL    HW1 4498   3.328   1.112   0.098
 1494SOL    HW2 4499   3.204   1.215   0.071
 1495SOL     OW 4500   2.159   0.035   0.171
 1495SOL    HW1 4501   2.208   0.119   0.150
 1495SOL    HW2 4502   2.221  -0.030   0.216
 1496SOL     OW 4503   2.797   0.236   0.480
 1496SOL    HW1 4504   2.749   0.277   0.402
 1496SOL    HW2 4505   2.896   0.234   0.461
 1497SOL     OW 4506   2.938   0.683   1.464
 1497SOL    HW1 4507   2.858   0.622   1.467
 1497SOL    HW2 4508   3.019   0.630   1.440
 1498SOL     OW 4509   3.089   1.570   0.793
 1498SOL    HW1 4510   3.110   1.644   0.728
 1498SOL    HW2 4511   3.157   1.570   0.866
 1499SOL     OW 4512   2.321   1.152   0.741
 1499SOL    HW1 4513   2.250   1.125   0.806
 1499SOL    HW2 4514   2.295   1.124   0.648
 1500SOL     OW 4515   3.133   1.797   0.591
 1500SOL    HW1 4516   3.177   1.861   0.527
 1500SOL    HW2 4517   3.083   1.849   0.661
 1501SOL     OW 4518   2.894   0.549   0.016
 1501SOL    HW1 4519   2.853   0.631  -0.023
 1501SOL    HW2 4520   2.958   0.575   0.089
 1502SOL     OW 4521   1.940   0.556   1.386
 1502SOL    HW1 4522   2.032   0.555   1.345
 1502SOL    HW2 4523   1.934   0.630   1.453
 1503SOL     OW 4524   2.423   0.222   1.147
 1503SOL    HW1 4525   2.461   0.138   1.184
 1503SOL    HW2 4526   2.335   0.241   1.191
 1504SOL     OW 4527   2.728   0.454   0.642
 1504SOL    HW1 4528   2.696   0.526   0.580
 1504SOL    HW2 4529   2.752   0.373   0.589
 1505SOL     OW 4530   2.879   0.039   0.753
 1505SOL    HW1 4531   2.807   0.044   0.684
 1505SOL    HW2 4532   2.855  -0.030   0.822
 1506SOL     OW 4533   3.291   1.173   0.867
 1506SOL    HW1 4534   3.236   1.089   0.860
 1506SOL    HW2 4535   3.317   1.202   0.775
 1507SOL     OW 4536   3.328   0.590   0.992
 1507SOL    HW1 4537   3.298   0.495   0.999
 1507SOL    HW2 4538   3.401   0.606   1.058
 1508SOL     OW 4539   3.719   0.833   0.377
 1508SOL    HW1 4540   3.761   0.769   0.441
 1508SOL    HW2 4541   3.681   0.782   0.299
 1509SOL     OW 4542   2.350   1.385   0.174
 1509SOL    HW1 4543   2.263   1.370   0.221
 1509SOL    HW2 4544   2.333   1.411   0.079
 1510SOL     OW 4545   3.526   1.280   0.657
 1510SOL    HW1 4546   3.625   1.288   0.671
 1510SOL    HW2 4547   3.481   1.364   0.688
 1511SOL     OW 4548   3.252   0.575   0.078
 1511SOL    HW1 4549   3.198   0.554   0.159
 1511SOL    HW2 4550   3.343   0.534   0.087
 1512SOL     OW 4551   2.389   0.256   0.328
 1512SOL    HW1 4552   2.416   0.197   0.253
 1512SOL    HW2 4553   2.389   0.351   0.297
 1513SOL     OW 4554   3.616   1.223   1.588
 1513SOL    HW1 4555   3.707   1.184   1.575
 1513SOL    HW2 4556   3.624   1.319   1.612
 1514SOL     OW 4557   2.926   1.347   1.340
 1514SOL    HW1 4558   2.846   1.324   1.395
 1514SOL    HW2 4559   3.009   1.321   1.389
 1515SOL     OW 4560   3.454   1.629   1.625
 1515SOL    HW1 4561   3.481   1.663   1.535
 1515SOL    HW2 4562   3.533   1.591   1.671
 1516SOL     OW 4563   2.973   1.195   1.100
 1516SOL    HW1 4564   2.933   1.239   1.181
 1516SOL    HW2 4565   2.932   1.232   1.017
 1517SOL     OW 4566   3.500   1.099   1.079
 1517SOL    HW1 4567   3.505   1.180   1.138
 1517SOL    HW2 4568   3.414   1.101   1.028
 1518SOL     OW 4569   2.777   0.089   1.402
 1518SOL    HW1 4570   2.802   0.069   1.307
 1518SOL    HW2 4571   2.849   0.145   1.444
 1519SOL     OW 4572   2.842   1.116   1.719
 1519SOL    HW1 4573   2.743   1.122   1.729
 1519SOL    HW2 4574   2.865   1.036   1.663
 1520SOL     OW 4575   2.567   1.050   0.368
 1520SOL    HW1 4576   2.553   1.057   0.467
 1520SOL    HW2 4577   2.651   0.999   0.350
 1521SOL     OW 4578   2.272   0.813   1.251
 1521SOL    HW1 4579   2.358   0.825   1.301
 1521SOL    HW2 4580   2.230   0.726   1.278
 1522SOL     OW 4581   3.136   0.386   1.262
 1522SOL    HW1 4582   3.157   0.460   1.326
 1522SOL    HW2 4583   3.047   0.403   1.219
 1523SOL     OW 4584   1.926   1.564   1.331
 1523SOL    HW1 4585   1.880   1.646   1.297
 1523SOL    HW2 4586   2.024   1.583   1.340
 1524SOL     OW 4587   2.229   1.100   0.501
 1524SOL    HW1 4588   2.222   1.183   0.445
 1524SOL    HW2 4589   2.233   1.020   0.441
 1525SOL     OW 4590   2.428   0.537   0.865
 1525SOL    HW1 4591   2.440   0.603   0.791
 1525SOL    HW2 4592   2.474   0.571   0.948
 1526SOL     OW 4593   3.114   1.348   0.388
 1526SOL    HW1 4594   3.164   1.425   0.428
 1526SOL    HW2 4595   3.019   1.350   0.420
 1527SOL     OW 4596   3.134   1.445   1.142
 1527SOL    HW1 4597   3.181   1.458   1.229
 1527SOL    HW2 4598   3.068   1.371   1.151
 1528SOL     OW 4599   3.444   0.639   0.472
 1528SOL    HW1 4600   3.413   0.700   0.545
 1528SOL    HW2 4601   3.494   0.691   0.403
 1529SOL     OW 4602   2.216   1.510   1.329
 1529SOL    HW1 4603   2.195   1.466   1.242
 1529SOL    HW2 4604   2.313   1.536   1.332
 1530SOL     OW 4605   2.264   0.751   1.598
 1530SOL    HW1 4606   2.332   0.806   1.551
 1530SOL    HW2 4607   2.304   0.663   1.625
 1531SOL     OW 4608   3.449   0.779   1.670
 1531SOL    HW1 4609   3.357   0.817   1.665
 1531SOL    HW2 4610   3.509   0.826   1.605
 1532SOL     OW 4611   2.875   0.105   1.770
 1532SOL    HW1 4612   2.881   0.190   1.718
 1532SOL    HW2 4613   2.907   0.029   1.713
 1533SOL     OW 4614   2.366   0.050   1.740
 1533SOL    HW1 4615   2.324  -0.007   1.670
 1533SOL    HW2 4616   2.300   0.119   1.772
 1534SOL     OW 4617   2.435   0.870   1.029
 1534SOL    HW1 4618   2.479   0.959   1.020
 1534SOL    HW2 4619   2.372   0.870   1.106
 1535SOL     OW 4620   3.222   0.862   1.045
 1535SOL    HW1 4621   3.147   0.862   0.979
 1535SOL    HW2 4622   3.259   0.770   1.054
 1536SOL     OW 4623   3.071   0.525   0.275
 1536SOL    HW1 4624   3.084   0.441   0.329
 1536SOL    HW2 4625   3.042   0.599   0.335
 1537SOL     OW 4626   2.169   0.213   1.231
 1537SOL    HW1 4627   2.146   0.250   1.321
 1537SOL    HW2 4628   2.139   0.118   1.225
 1538SOL     OW 4629   1.899   1.310   1.282
 1538SOL    HW1 4630   1.952   1.261   1.350
 1538SOL    HW2 4631   1.921   1.408   1.287
 1539SOL     OW 4632   2.594   0.634   1.064
 1539SOL    HW1 4633   2.653   0.608   0.988
 1539SOL    HW2 4634   2.566   0.730   1.053
 1540SOL     OW 4635   3.590   0.935   1.854
 1540SOL    HW1 4636   3.544   0.928   1.765
 1540SOL    HW2 4637   3.528   0.979   1.920
 1541SOL     OW 4638   2.169   0.063   0.618
 1541SOL    HW1 4639   2.158   0.157   0.651
 1541SOL    HW2 4640   2.164   0.000   0.695
 1542SOL     OW 4641   3.484   0.367   0.374
 1542SOL    HW1 4642   3.486   0.291   0.438
 1542SOL    HW2 4643   3.436   0.444   0.414
 1543SOL     OW 4644   2.885   0.766   0.966
 1543SOL    HW1 4645   2.900   0.787   1.062
 1543SOL    HW2 4646   2.855   0.671   0.957
 1544SOL     OW 4647   2.842   1.573   1.700
 1544SOL    HW1 4648   2.822   1.617   1.612
 1544SOL    HW2 4649   2.881   1.482   1.684
 1545SOL     OW 4650   3.721   1.518   1.605
 1545SOL    HW1 4651   3.735   1.545   1.510
 1545SOL    HW2 4652   3.804   1.540   1.658
 1546SOL     OW 4653   2.212   0.898   1.804
 1546SOL    HW1 4654   2.288   0.942   1.852
 1546SOL    HW2 4655   2.247   0.851   1.722
 1547SOL     OW 4656   3.402   0.274   0.125
 1547SOL    HW1 4657   3.341   0.199   0.148
 1547SOL    HW2 4658   3.424   0.326   0.208
 1548SOL     OW 4659   3.165   0.838   0.042
 1548SOL    HW1 4660   3.199   0.745   0.057
 1548SOL    HW2 4661   3.183   0.865  -0.053
 1549SOL     OW 4662   2.930   1.333   0.849
 1549SOL    HW1 4663   2.937   1.249   0.794
 1549SOL    HW2 4664   2.992   1.402   0.813
 1550SOL     OW 4665   2.181   0.810   0.949
 1550SOL    HW1 4666   2.274   0.846   0.954
 1550SOL    HW2 4667   2.175   0.725   1.001
 1551SOL     OW 4668   2.201   0.509   1.006
 1551SOL    HW1 4669   2.149   0.426   0.989
 1551SOL    HW2 4670   2.278   0.514   0.942
 1552SOL     OW 4671   3.000   0.380   1.678
 1552SOL    HW1 4672   2.955   0.443   1.742
 1552SOL    HW2 4673   3.093   0.411   1.661
 1553SOL     OW 4674   3.022   0.207   1.477
 1553SOL    HW1 4675   3.022   0.271   1.554
 1553SOL    HW2 4676   3.050   0.255   1.394
 1554SOL     OW 4677   1.870   1.326   0.200
 1554SOL    HW1 4678   1.777   1.347   0.169
 1554SOL    HW2 4679   1.880   1.227   0.213
 1555SOL     OW 4680   1.950   1.801   0.927
 1555SOL    HW1 4681   1.908   1.715   0.900
 1555SOL    HW2 4682   2.044   1.804   0.893
 1556SOL     OW 4683   2.366   1.568   0.910
 1556SOL    HW1 4684   2.432   1.642   0.919
 1556SOL    HW2 4685   2.410   1.489   0.868
 1557SOL     OW 4686   2.864   0.796   1.238
 1557SOL    HW1 4687   2.905   0.764   1.324
 1557SOL    HW2 4688   2.768   0.769   1.235
 1558SOL     OW 4689   1.902   0.544   1.114
 1558SOL    HW1 4690   1.987   0.511   1.073
 1558SOL    HW2 4691   1.915   0.559   1.212
 1559SOL     OW 4692   2.051   0.520   1.722
 1559SOL    HW1 4693   2.110   0.480   1.652
 1559SOL    HW2 4694   1.993   0.591   1.681
 1560SOL     OW 4695   3.231   0.950   1.660
 1560SOL    HW1 4696   3.270   1.039   1.680
 1560SOL    HW2 4697   3.241   0.930   1.563
 1561SOL     OW 4698   2.677   0.572   0.325
 1561SOL    HW1 4699   2.684   0.483   0.279
 1561SOL    HW2 4700   2.583   0.606   0.317
 1562SOL     OW 4701   3.519   0.604   1.206
 1562SOL    HW1 4702   3.481   0.535   1.268
 1562SOL    HW2 4703   3.601   0.568   1.162
 1563SOL     OW 4704   2.114   1.564   1.744
 1563SOL    HW1 4705   2.084   1.621   1.820
 1563SOL    HW2 4706   2.107   1.467   1.770
 1564SOL     OW 4707   2.533   0.464   1.269
 1564SOL    HW1 4708   2.499   0.375   1.239
 1564SOL    HW2 4709   2.559   0.518   1.189
 1565SOL     OW 4710   2.792   1.678   1.465
 1565SOL    HW1 4711   2.768   1.660   1.370
 1565SOL    HW2 4712   2.822   1.772   1.475
 1566SOL     OW 4713   2.335   0.500   0.191
 1566SOL    HW1 4714   2.396   0.580   0.195
 1566SOL    HW2 4715   2.240   0.531   0.198
 1567SOL     OW 4716   2.021   1.137   1.466
 1567SOL    HW1 4717   2.043   1.076   1.542
 1567SOL    HW2 4718   2.031   1.088   1.380
 1568SOL     OW 4719   3.209   1.059   1.234
 1568SOL    HW1 4720   3.233   0.996   1.160
 1568SOL    HW2 4721   3.119   1.099   1.216
 1569SOL     OW 4722   3.164   0.855   0.309
 1569SOL    HW1 4723   3.078   0.824   0.351
 1569SOL    HW2 4724   3.160   0.841   0.210
 1570SOL     OW 4725   3.621   1.747   1.154
 1570SOL    HW1 4726   3.682   1.777   1.081
 1570SOL    HW2 4727   3.583   1.658   1.132
 1571SOL     OW 4728   3.114   1.731   1.128
 1571SOL    HW1 4729   3.198   1.736   1.074
 1571SOL    HW2 4730   3.091   1.635   1.146
 1572SOL     OW 4731   1.945   1.258   1.022
 1572SOL    HW1 4732   1.940   1.257   1.122
 1572SOL    HW2 4733   1.862   1.217   0.984
 1573SOL     OW 4734   2.550   1.662   1.716
 1573SOL    HW1 4735   2.494   1.743   1.725
 1573SOL    HW2 4736   2.602   1.666   1.630
 1574SOL     OW 4737   2.765   0.086   0.133
 1574SOL    HW1 4738   2.816   0.087   0.047
 1574SOL    HW2 4739   2.821   0.044   0.204
 1575SOL     OW 4740   3.588   0.135   0.523
 1575SOL    HW1 4741   3.661   0.118   0.456
 1575SOL    HW2 4742   3.557   0.048   0.561
 1576SOL     OW 4743   3.250   1.573   0.477
 1576SOL    HW1 4744   3.317   1.585   0.403
 1576SOL    HW2 4745   3.210   1.662   0.500
 1577SOL     OW 4746   1.992   1.794   1.851
 1577SOL    HW1 4747   1.951   1.720   1.904
 1577SOL    HW2 4748   2.056   1.845   1.909
 1578SOL     OW 4749   3.142   0.927   0.672
 1578SOL    HW1 4750   3.202   0.846   0.674
 1578SOL    HW2 4751   3.182   0.996   0.612
 1579SOL     OW 4752   2.692   1.273   1.422
 1579SOL    HW1 4753   2.687   1.306   1.517
 1579SOL    HW2 4754   2.606   1.292   1.376
 1580SOL     OW 4755   2.534   1.616   0.154
 1580SOL    HW1 4756   2.543   1.626   0.055
 1580SOL    HW2 4757   2.494   1.527   0.175
 1581SOL     OW 4758   3.512   1.720   1.394
 1581SOL    HW1 4759   3.565   1.730   1.310
 1581SOL    HW2 4760   3.485   1.810   1.428
 1582SOL     OW 4761   3.703   0.175   0.963
 1582SOL    HW1 4762   3.742   0.090   0.927
 1582SOL    HW2 4763   3.605   0.177   0.944
 1583SOL     OW 4764   2.125   0.326   0.720
 1583SOL    HW1 4765   2.046   0.377   0.686
 1583SOL    HW2 4766   2.116   0.311   0.818
 1584SOL     OW 4767   3.056   1.612   0.031
 1584SOL    HW1 4768   3.062   1.519   0.068
 1584SOL    HW2 4769   2.997   1.612  -0.049
 1585SOL     OW 4770   2.684   1.002   1.372
 1585SOL    HW1 4771   2.724   1.001   1.280
 1585SOL    HW2 4772   2.694   1.094   1.412
 1586SOL     OW 4773   2.778   0.910   0.291
 1586SOL    HW1 4774   2.841   0.948   0.223
 1586SOL    HW2 4775   2.818   0.827   0.330
 1587SOL     OW 4776   3.366   1.607   0.044
 1587SOL    HW1 4777   3.274   1.644   0.051
 1587SOL    HW2 4778   3.404   1.627  -0.046
 1588SOL     OW 4779   2.234   1.288   1.490
 1588SOL    HW1 4780   2.221   1.381   1.456
 1588SOL    HW2 4781   2.150   1.236   1.477
 1589SOL     OW 4782   3.476   1.292   1.289
 1589SOL    HW1 4783   3.536   1.295   1.369
 1589SOL    HW2 4784   3.401   1.356   1.302
 1590SOL     OW 4785   2.901   1.098   0.696
 1590SOL    HW1 4786   2.831   1.051   0.750
 1590SOL    HW2 4787   2.960   1.030   0.653
 1591SOL     OW 4788   2.876   0.236   0.971
 1591SOL    HW1 4789   2.868   0.200   0.878
 1591SOL    HW2 4790   2.874   0.160   1.036
 1592SOL     OW 4791   2.452   1.487   0.491
 1592SOL    HW1 4792   2.494   1.429   0.421
 1592SOL    HW2 4793   2.408   1.566   0.447
 1593SOL     OW 4794   3.571   0.385   1.381
 1593SOL    HW1 4795   3.644   0.454   1.385
 1593SOL    HW2 4796   3.599   0.310   1.322
 1594SOL     OW 4797   2.117   1.348   0.290
 1594SOL    HW1 4798   2.021   1.349   0.263
 1594SOL    HW2 4799   2.129   1.401   0.374
 1595SOL     OW 4800   1.967   1.013   1.726
 1595SOL    HW1 4801   1.890   0.980   1.780
 1595SOL    HW2 4802   2.052   0.983   1.768
 1596SOL     OW 4803   2.534   0.203   1.489
 1596SOL    HW1 4804   2.624   0.187   1.449
 1596SOL    HW2 4805   2.542   0.208   1.588
 1597SOL     OW 4806   1.937   0.345   0.033
 1597SOL    HW1 4807   1.845   0.317   0.004
 1597SOL    HW2 4808   1.968   0.422  -0.023
 1598SOL     OW 4809   3.302   0.856   1.398
 1598SOL    HW1 4810   3.245   0.908   1.335
 1598SOL    HW2 4811   3.398   0.868   1.374
 1599SOL     OW 4812   1.934   0.166   0.318
 1599SOL    HW1 4813   1.917   0.249   0.264
 1599SOL    HW2 4814   2.024   0.129   0.296
 1600SOL     OW 4815   3.045   1.335   0.119
 1600SOL    HW1 4816   2.946   1.324   0.121
 1600SOL    HW2 4817   3.079   1.350   0.212
 1601SOL     OW 4818   2.475   0.842   1.431
 1601SOL    HW1 4819   2.531   0.923   1.414
 1601SOL    HW2 4820   2.534   0.762   1.434
 1602SOL     OW 4821   3.355   1.767   0.959
 1602SOL    HW1 4822   3.388   1.831   0.890
 1602SOL    HW2 4823   3.421   1.761   1.034
 1603SOL     OW 4824   2.578   0.565   1.708
 1603SOL    HW1 4825   2.597   0.630   1.782
 1603SOL    HW2 4826   2.638   0.485   1.717
 1604SOL     OW 4827   3.312   1.220   1.633
 1604SOL    HW1 4828   3.303   1.210   1.732
 1604SOL    HW2 4829   3.408   1.213   1.607
 1605SOL     OW 4830   2.252   1.741   1.560
 1605SOL    HW1 4831   2.161   1.782   1.558
 1605SOL    HW2 4832   2.245   1.647   1.592
 1606SOL     OW 4833   3.536   0.883   1.254
 1606SOL    HW1 4834   3.509   0.794   1.217
 1606SOL    HW2 4835   3.537   0.951   1.181
 1607SOL     OW 4836   3.087   0.325   0.449
 1607SOL    HW1 4837   3.152   0.251   0.438
 1607SOL    HW2 4838   3.107   0.375   0.533
 1608SOL     OW 4839   2.456   0.745   0.652
 1608SOL    HW1 4840   2.506   0.830   0.633
 1608SOL    HW2 4841   2.368   0.747   0.604
 1609SOL     OW 4842   3.639   0.342   1.642
 1609SOL    HW1 4843   3.622   0.373   1.548
 1609SOL    HW2 4844   3.555   0.305   1.680
 1610SOL     OW 4845   3.592   0.934   1.517
 1610SOL    HW1 4846   3.630   1.025   1.532
 1610SOL    HW2 4847   3.584   0.917   1.418
 1611SOL     OW 4848   2.721   1.374   0.016
 1611SOL    HW1 4849   2.675   1.389   0.104
 1611SOL    HW2 4850   2.765   1.459  -0.014
 1612SOL     OW 4851   2.523   1.790   0.953
 1612SOL    HW1 4852   2.477   1.878   0.940
 1612SOL    HW2 4853   2.622   1.802   0.946
 1613SOL     OW 4854   2.721   0.956   0.861
 1613SOL    HW1 4855   2.775   0.887   0.909
 1613SOL    HW2 4856   2.689   1.025   0.927
 1614SOL     OW 4857   2.945   0.984   0.087
 1614SOL    HW1 4858   2.922   1.037   0.005
 1614SOL    HW2 4859   3.026   0.928   0.068
 1615SOL     OW 4860   3.723   1.569   0.851
 1615SOL    HW1 4861   3.652   1.557   0.781
 1615SOL    HW2 4862   3.724   1.490   0.911
 1616SOL     OW 4863   2.083   1.314   1.844
 1616SOL    HW1 4864   2.018   1.241   1.823
 1616SOL    HW2 4865   2.087   1.328   1.942
 1617SOL     OW 4866   1.941   1.240   0.653
 1617SOL    HW1 4867   1.940   1.193   0.741
 1617SOL    HW2 4868   2.023   1.212   0.602
 1618SOL     OW 4869   2.534   1.391   1.624
 1618SOL    HW1 4870   2.456   1.341   1.662
 1618SOL    HW2 4871   2.531   1.486   1.655
 1619SOL     OW 4872   3.686   0.192   1.227
 1619SOL    HW1 4873   3.682   0.102   1.271
 1619SOL    HW2 4874   3.689   0.181   1.128
 1620SOL     OW 4875   2.290   0.424   0.520
 1620SOL    HW1 4876   2.320   0.352   0.458
 1620SOL    HW2 4877   2.251   0.384   0.603
 1621SOL     OW 4878   3.567   1.487   1.104
 1621SOL    HW1 4879   3.474   1.462   1.077
 1621SOL    HW2 4880   3.593   1.437   1.186
 1622SOL     OW 4881   2.179   0.547   1.280
 1622SOL    HW1 4882   2.217   0.488   1.352
 1622SOL    HW2 4883   2.219   0.521   1.192
 1623SOL     OW 4884   2.674   1.586   0.687
 1623SOL    HW1 4885   2.706   1.596   0.593
 1623SOL    HW2 4886   2.595   1.524   0.689
 1624SOL     OW 4887   3.286   0.214   1.112
 1624SOL    HW1 4888   3.338   0.149   1.167
 1624SOL    HW2 4889   3.237   0.277   1.173
 1625SOL     OW 4890   2.863   0.034   1.154
 1625SOL    HW1 4891   2.800  -0.038   1.123
 1625SOL    HW2 4892   2.956  -0.002   1.154
 1626SOL     OW 4893   2.632   1.330   0.301
 1626SOL    HW1 4894   2.586   1.243   0.318
 1626SOL    HW2 4895   2.723   1.327   0.342
 1627SOL     OW 4896   2.480   1.567   1.284
 1627SOL    HW1 4897   2.475   1.649   1.341
 1627SOL    HW2 4898   2.569   1.564   1.239
 1628SOL     OW 4899   3.214   0.052   0.168
 1628SOL    HW1 4900   3.249   0.011   0.084
 1628SOL    HW2 4901   3.124   0.014   0.188
 1629SOL     OW 4902   3.162   0.453   0.691
 1629SOL    HW1 4903   3.103   0.533   0.695
 1629SOL    HW2 4904   3.177   0.418   0.784
 1630SOL     OW 4905   3.455   0.221   0.882
 1630SOL    HW1 4906   3.371   0.220   0.936
 1630SOL    HW2 4907   3.457   0.304   0.826
 1631SOL     OW 4908   1.901   1.077   0.300
 1631SOL    HW1 4909   2.000   1.066   0.291
 1631SOL    HW2 4910   1.861   0.991   0.332
 1632SOL     OW 4911   2.737   1.646   0.337
 1632SOL    HW1 4912   2.660   1.611   0.283
 1632SOL    HW2 4913   2.705   1.717   0.399
 1633SOL     OW 4914   2.092   0.628   1.975
 1633SOL    HW1 4915   1.999   0.626   2.012
 1633SOL    HW2 4916   2.093   0.589   1.883
 1634SOL     OW 4917   2.087   0.275   2.858
 1634SOL    HW1 4918   2.122   0.258   2.950
 1634SOL    HW2 4919   1.999   0.230   2.846
 1635SOL     OW 4920   1.881   0.368   2.509
 1635SOL    HW1 4921   1.799   0.411   2.548
 1635SOL    HW2 4922   1.853   0.295   2.446
 1636SOL     OW 4923   2.431   1.275   3.027
 1636SOL    HW1 4924   2.338   1.268   2.990
 1636SOL    HW2 4925   2.442   1.364   3.071
 1637SOL     OW 4926   3.417   1.511   2.565
 1637SOL    HW1 4927   3.360   1.495   2.646
 1637SOL    HW2 4928   3.358   1.521   2.485
 1638SOL     OW 4929   2.997   0.703   2.579
 1638SOL    HW1 4930   3.054   0.781   2.554
 1638SOL    HW2 4931   2.937   0.729   2.655
 1639SOL     OW 4932   3.617   0.607   2.093
 1639SOL    HW1 4933   3.605   0.594   1.994
 1639SOL    HW2 4934   3.587   0.526   2.142
 1640SOL     OW 4935   2.630   1.144   2.885
 1640SOL    HW1 4936   2.552   1.161   2.945
 1640SOL    HW2 4937   2.664   1.231   2.849
 1641SOL     OW 4938   2.712   0.798   3.685
 1641SOL    HW1 4939   2.708   0.874   3.750
 1641SOL    HW2 4940   2.734   0.834   3.594
 1642SOL     OW 4941   2.547   1.012   2.527
 1642SOL    HW1 4942   2.616   0.996   2.597
 1642SOL    HW2 4943   2.474   1.069   2.565
 1643SOL     OW 4944   2.548   1.161   3.665
 1643SOL    HW1 4945   2.608   1.240   3.679
 1643SOL    HW2 4946   2.462   1.192   3.624
 1644SOL     OW 4947   2.197   1.435   2.923
 1644SOL    HW1 4948   2.119   1.404   2.870
 1644SOL    HW2 4949   2.255   1.493   2.866
 1645SOL     OW 4950   3.322   1.505   3.201
 1645SOL    HW1 4951   3.346   1.599   3.227
 1645SOL    HW2 4952   3.306   1.451   3.283
 1646SOL     OW 4953   2.300   0.392   3.361
 1646SOL    HW1 4954   2.382   0.336   3.370
 1646SOL    HW2 4955   2.219   0.334   3.365
 1647SOL     OW 4956   3.465   0.447   2.599
 1647SOL    HW1 4957   3.391   0.493   2.549
 1647SOL    HW2 4958   3.516   0.515   2.652
 1648SOL     OW 4959   2.093   1.713   2.345
 1648SOL    HW1 4960   2.127   1.790   2.399
 1648SOL    HW2 4961   2.137   1.713   2.255
 1649SOL     OW 4962   2.989   1.341   3.552
 1649SOL    HW1 4963   3.036   1.341   3.640
 1649SOL    HW2 4964   2.941   1.254   3.541
 1650SOL     OW 4965   2.092   1.434   2.400
 1650SOL    HW1 4966   2.066   1.530   2.400
 1650SOL    HW2 4967   2.021   1.380   2.445
 1651SOL     OW 4968   2.102   1.091   2.748
 1651SOL    HW1 4969   2.116   1.007   2.800
 1651SOL    HW2 4970   2.047   1.155   2.803
 1652SOL     OW 4971   2.482   1.786   3.301
 1652SOL    HW1 4972   2.390   1.769   3.336
 1652SOL    HW2 4973   2.510   1.878   3.327
 1653SOL     OW 4974   2.468   0.964   1.985
 1653SOL    HW1 4975   2.475   1.048   1.931
 1653SOL    HW2 4976   2.514   0.977   2.073
 1654SOL     OW 4977   3.456   0.114   3.342
 1654SOL    HW1 4978   3.438   0.181   3.270
 1654SOL    HW2 4979   3.453   0.160   3.431
 1655SOL     OW 4980   1.984   0.643   2.425
 1655SOL    HW1 4981   1.939   0.555   2.442
 1655SOL    HW2 4982   1.983   0.697   2.509
 1656SOL     OW 4983   3.704   1.767   2.221
 1656SOL    HW1 4984   3.758   1.738   2.301
 1656SOL    HW2 4985   3.734   1.857   2.192
 1657SOL     OW 4986   1.889   1.596   1.979
 1657SOL    HW1 4987   1.870   1.500   2.000
 1657SOL    HW2 4988   1.856   1.654   2.054
 1658SOL     OW 4989   3.551   0.922   2.474
 1658SOL    HW1 4990   3.646   0.893   2.482
 1658SOL    HW2 4991   3.543   0.987   2.399
 1659SOL     OW 4992   3.503   1.108   2.294
 1659SOL    HW1 4993   3.589   1.110   2.242
 1659SOL    HW2 4994   3.517   1.155   2.382
 1660SOL     OW 4995   1.975   0.737   3.459
 1660SOL    HW1 4996   2.063   0.724   3.504
 1660SOL    HW2 4997   1.962   0.834   3.437
 1661SOL     OW 4998   2.475   1.365   2.588
 1661SOL    HW1 4999   2.426   1.278   2.597
 1661SOL    HW2 5000   2.452   1.408   2.501
 1662SOL     OW 5001   3.155   1.228   3.285
 1662SOL    HW1 5002   3.192   1.155   3.227
 1662SOL    HW2 5003   3.207   1.233   3.370
 1663SOL     OW 5004   2.671   0.004   2.364
 1663SOL    HW1 5005   2.711   0.095   2.355
 1663SOL    HW2 5006   2.571   0.012   2.370
 1664SOL     OW 5007   2.059   0.976   3.126
 1664SOL    HW1 5008   2.148   0.931   3.112
 1664SOL    HW2 5009   1.986   0.911   3.107
 1665SOL     OW 5010   3.387   0.999   2.052
 1665SOL    HW1 5011   3.324   0.923   2.065
 1665SOL    HW2 5012   3.435   1.017   2.138
 1666SOL     OW 5013   3.049   1.792   3.478
 1666SOL    HW1 5014   3.073   1.852   3.402
 1666SOL    HW2 5015   3.056   1.697   3.448
 1667SOL     OW 5016   2.179   0.251   3.663
 1667SOL    HW1 5017   2.250   0.322   3.669
 1667SOL    HW2 5018   2.091   0.290   3.691
 1668SOL     OW 5019   3.328   1.417   2.815
 1668SOL    HW1 5020   3.269   1.423   2.895
 1668SOL    HW2 5021   3.313   1.329   2.769
 1669SOL     OW 5022   3.529   1.714   2.434
 1669SOL    HW1 5023   3.488   1.691   2.346
 1669SOL    HW2 5024   3.511   1.640   2.499
 1670SOL     OW 5025   2.460   0.729   2.132
 1670SOL    HW1 5026   2.484   0.798   2.064
 1670SOL    HW2 5027   2.382   0.762   2.186
 1671SOL     OW 5028   3.143   0.345   2.806
 1671SOL    HW1 5029   3.057   0.295   2.793
 1671SOL    HW2 5030   3.205   0.291   2.862
 1672SOL     OW 5031   3.438   1.662   2.169
 1672SOL    HW1 5032   3.527   1.708   2.172
 1672SOL    HW2 5033   3.417   1.638   2.074
 1673SOL     OW 5034   2.669   0.605   3.327
 1673SOL    HW1 5035   2.622   0.602   3.416
 1673SOL    HW2 5036   2.618   0.550   3.261
 1674SOL     OW 5037   3.256   0.469   3.536
 1674SOL    HW1 5038   3.236   0.512   3.624
 1674SOL    HW2 5039   3.334   0.407   3.545
 1675SOL     OW 5040   2.835   0.890   3.434
 1675SOL    HW1 5041   2.881   0.806   3.405
 1675SOL    HW2 5042   2.779   0.924   3.359
 1676SOL     OW 5043   2.853   0.410   3.104
 1676SOL    HW1 5044   2.776   0.444   3.158
 1676SOL    HW2 5045   2.819   0.359   3.025
 1677SOL     OW 5046   2.903   0.701   2.291
 1677SOL    HW1 5047   2.929   0.697   2.387
 1677SOL    HW2 5048   2.818   0.650   2.277
 1678SOL     OW 5049   1.938   0.811   2.651
 1678SOL    HW1 5050   2.037   0.799   2.660
 1678SOL    HW2 5051   1.914   0.906   2.672
 1679SOL     OW 5052   1.992   1.821   3.433
 1679SOL    HW1 5053   1.982   1.806   3.532
 1679SOL    HW2 5054   1.906   1.857   3.397
 1680SOL     OW 5055   2.727   0.348   2.057
 1680SOL    HW1 5056   2.786   0.411   2.008
 1680SOL    HW2 5057   2.746   0.254   2.028
 1681SOL     OW 5058   3.581   0.585   3.693
 1681SOL    HW1 5059   3.555   0.674   3.657
 1681SOL    HW2 5060   3.579   0.517   3.620
 1682SOL     OW 5061   3.224   1.144   2.407
 1682SOL    HW1 5062   3.307   1.115   2.359
 1682SOL    HW2 5063   3.175   1.211   2.351
 1683SOL     OW 5064   2.412   0.196   2.747
 1683SOL    HW1 5065   2.407   0.191   2.847
 1683SOL    HW2 5066   2.414   0.292   2.718
 1684SOL     OW 5067   2.870   1.456   2.339
 1684SOL    HW1 5068   2.824   1.528   2.287
 1684SOL    HW2 5069   2.866   1.476   2.437
 1685SOL     OW 5070   2.213   1.801   2.715
 1685SOL    HW1 5071   2.263   1.715   2.721
 1685SOL    HW2 5072   2.278   1.878   2.712
 1686SOL     OW 5073   3.657   1.066   2.735
 1686SOL    HW1 5074   3.595   1.051   2.659
 1686SOL    HW2 5075   3.605   1.077   2.820
 1687SOL     OW 5076   3.089   1.550   3.368
 1687SOL    HW1 5077   3.095   1.473   3.432
 1687SOL    HW2 5078   3.037   1.524   3.288
 1688SOL     OW 5079   2.183   0.943   2.104
 1688SOL    HW1 5080   2.265   0.982   2.062
 1688SOL    HW2 5081   2.156   0.861   2.055
 1689SOL     OW 5082   3.320   0.735   2.590
 1689SOL    HW1 5083   3.315   0.670   2.665
 1689SOL    HW2 5084   3.400   0.794   2.603
 1690SOL     OW 5085   2.323   1.266   3.589
 1690SOL    HW1 5086   2.273   1.267   3.503
 1690SOL    HW2 5087   2.260   1.248   3.665
 1691SOL     OW 5088   2.973   1.776   2.099
 1691SOL    HW1 5089   2.913   1.714   2.149
 1691SOL    HW2 5090   3.004   1.732   2.014
 1692SOL     OW 5091   2.064   0.285   3.360
 1692SOL    HW1 5092   1.984   0.345   3.347
 1692SOL    HW2 5093   2.054   0.236   3.446
 1693SOL     OW 5094   3.494   1.377   1.943
 1693SOL    HW1 5095   3.462   1.471   1.933
 1693SOL    HW2 5096   3.418   1.314   1.931
 1694SOL     OW 5097   2.326   1.743   2.185
 1694SOL    HW1 5098   2.359   1.782   2.271
 1694SOL    HW2 5099   2.402   1.736   2.120
 1695SOL     OW 5100   3.262   0.107   2.288
 1695SOL    HW1 5101   3.238   0.070   2.198
 1695SOL    HW2 5102   3.361   0.123   2.292
 1696SOL     OW 5103   2.111   1.785   3.103
 1696SOL    HW1 5104   2.168   1.720   3.153
 1696SOL    HW2 5105   2.095   1.752   3.010
 1697SOL     OW 5106   2.802   1.698   2.766
 1697SOL    HW1 5107   2.882   1.641   2.787
 1697SOL    HW2 5108   2.753   1.658   2.689
 1698SOL     OW 5109   2.244   0.700   2.342
 1698SOL    HW1 5110   2.289   0.610   2.339
 1698SOL    HW2 5111   2.150   0.689   2.375
 1699SOL     OW 5112   3.409   0.222   3.591
 1699SOL    HW1 5113   3.404   0.259   3.683
 1699SOL    HW2 5114   3.337   0.153   3.579
 1700SOL     OW 5115   2.476   0.122   1.979
 1700SOL    HW1 5116   2.574   0.100   1.986
 1700SOL    HW2 5117   2.445   0.105   1.886
 1701SOL     OW 5118   2.643   0.264   3.611
 1701SOL    HW1 5119   2.710   0.203   3.654
 1701SOL    HW2 5120   2.570   0.283   3.676
 1702SOL     OW 5121   2.750   1.514   3.057
 1702SOL    HW1 5122   2.727   1.489   2.963
 1702SOL    HW2 5123   2.811   1.445   3.096
 1703SOL     OW 5124   3.213   0.590   3.295
 1703SOL    HW1 5125   3.241   0.547   3.380
 1703SOL    HW2 5126   3.238   0.686   3.296
 1704SOL     OW 5127   2.665   1.402   2.786
 1704SOL    HW1 5128   2.755   1.416   2.744
 1704SOL    HW2 5129   2.594   1.404   2.715
 1705SOL     OW 5130   2.784   0.503   2.761
 1705SOL    HW1 5131   2.759   0.494   2.665
 1705SOL    HW2 5132   2.832   0.421   2.792
 1706SOL     OW 5133   2.401   0.064   2.374
 1706SOL    HW1 5134   2.320   0.065   2.432
 1706SOL    HW2 5135   2.404   0.147   2.319
 1707SOL     OW 5136   3.296   1.188   1.903
 1707SOL    HW1 5137   3.328   1.112   1.960
 1707SOL    HW2 5138   3.204   1.215   1.933
 1708SOL     OW 5139   2.159   0.035   2.033
 1708SOL    HW1 5140   2.208   0.119   2.012
 1708SOL    HW2 5141   2.221  -0.030   2.078
 1709SOL     OW 5142   2.797   0.236   2.342
 1709SOL    HW1 5143   2.749   0.277   2.264
 1709SOL    HW2 5144   2.896   0.234   2.323
 1710SOL     OW 5145   2.938   0.683   3.326
 1710SOL    HW1 5146   2.858   0.622   3.329
 1710SOL    HW2 5147   3.019   0.630   3.302
 1711SOL     OW 5148   3.089   1.570   2.655
 1711SOL    HW1 5149   3.110   1.644   2.590
 1711SOL    HW2 5150   3.157   1.570   2.728
 1712SOL     OW 5151   2.321   1.152   2.603
 1712SOL    HW1 5152   2.250   1.125   2.668
 1712SOL    HW2 5153   2.295   1.124   2.510
 1713SOL     OW 5154   3.133   1.797   2.453
 1713SOL    HW1 5155   3.177   1.861   2.389
 1713SOL    HW2 5156   3.083   1.849   2.523
 1714SOL     OW 5157   2.894   0.549   1.878
 1714SOL    HW1 5158   2.853   0.631   1.839
 1714SOL    HW2 5159   2.958   0.575   1.951
 1715SOL     OW 5160   1.940   0.556   3.248
 1715SOL    HW1 5161   2.032   0.555   3.207
 1715SOL    HW2 5162   1.934   0.630   3.315
 1716SOL     OW 5163   2.423   0.222   3.009
 1716SOL    HW1 5164   2.461   0.138   3.046
 1716SOL    HW2 5165   2.335   0.241   3.053
 1717SOL     OW 5166   2.728   0.454   2.504
 1717SOL    HW1 5167   2.696   0.526   2.442
 1717SOL    HW2 5168   2.752   0.373   2.451
 1718SOL     OW 5169   2.879   0.039   2.615
 1718SOL    HW1 5170   2.807   0.044   2.546
 1718SOL    HW2 5171   2.855  -0.030   2.684
 1719SOL     OW 5172   3.291   1.173   2.729
 1719SOL    HW1 5173   3.236   1.089   2.722
 1719SOL    HW2 5174   3.317   1.202   2.637
 1720SOL     OW 5175   3.328   0.590   2.854
 1720SOL    HW1 5176   3.298   0.495   2.861
 1720SOL    HW2 5177   3.401   0.606   2.920
 1721SOL     OW 5178   3.719   0.833   2.239
 1721SOL    HW1 5179   3.761   0.769   2.303
 1721SOL    HW2 5180   3.681   0.782   2.161
 1722SOL     OW 5181   2.350   1.385   2.036
 1722SOL    HW1 5182   2.263   1.370   2.083
 1722SOL    HW2 5183   2.333   1.411   1.941
 1723SOL     OW 5184   3.526   1.280   2.519
 1723SOL    HW1 5185   3.625   1.288   2.533
 1723SOL    HW2 5186   3.481   1.364   2.550
 1724SOL     OW 5187   3.252   0.575   1.940
 1724SOL    HW1 5188   3.198   0.554   2.021
 1724SOL    HW2 5189   3.343   0.534   1.949
 1725SOL     OW 5190   2.389   0.256   2.190
 1725SOL    HW1 5191   2.416   0.197   2.115
 1725SOL    HW2 5192   2.389   0.351   2.159
 1726SOL     OW 5193   3.616   1.223   3.450
 1726SOL    HW1 5194   3.707   1.184   3.437
 1726SOL    HW2 5195   3.624   1.319   3.474
 1727SOL     OW 5196   2.926   1.347   3.202
 1727SOL    HW1 5197   2.846   1.324   3.257
 1727SOL    HW2 5198   3.009   1.321   3.251
 1728SOL     OW 5199   3.454   1.629   3.487
 1728SOL    HW1 5200   3.481   1.663   3.397
 1728SOL    HW2 5201   3.533   1.591   3.533
 1729SOL     OW 5202   2.973   1.195   2.962
 1729SOL    HW1 5203   2.933   1.239   3.043
 1729SOL    HW2 5204   2.932   1.232   2.879
 1730SOL     OW 5205   3.500   1.099   2.941
 1730SOL    HW1 5206   3.505   1.180   3.000
 1730SOL    HW2 5207   3.414   1.101   2.890
 1731SOL     OW 5208   2.777   0.089   3.264
 1731SOL    HW1 5209   2.802   0.069   3.169
 1731SOL    HW2 5210   2.849   0.145   3.306
 1732SOL     OW 5211   2.842   1.116   3.581
 1732SOL    HW1 5212   2.743   1.122   3.591
 1732SOL    HW2 5213   2.865   1.036   3.525
 1733SOL     OW 5214   2.567   1.050   2.230
 1733SOL    HW1 5215   2.553   1.057   2.329
 1733SOL    HW2 5216   2.651   0.999   2.212
 1734SOL     OW 5217   2.272   0.813   3.113
 1734SOL    HW1 5218   2.358   0.825   3.163
 1734SOL    HW2 5219   2.230   0.726   3.140
 1735SOL     OW 5220   3.136   0.386   3.124
 1735SOL    HW1 5221   3.157   0.460   3.188
 1735SOL    HW2 5222   3.047   0.403   3.081
 1736SOL     OW 5223   1.926   1.564   3.193
 1736SOL    HW1 5224   1.880   1.646   3.159
 1736SOL    HW2 5225   2.024   1.583   3.202
 1737SOL     OW 5226   2.229   1.100   2.363
 1737SOL    HW1 5227   2.222   1.183   2.307
 1737SOL    HW2 5228   2.233   1.020   2.303
 1738SOL     OW 5229   2.428   0.537   2.727
 1738SOL    HW1 5230   2.440   0.603   2.653
 1738SOL    HW2 5231   2.474   0.571   2.810
 1739SOL     OW 5232   3.114   1.348   2.250
 1739SOL    HW1 5233   3.164   1.425   2.290
 1739SOL    HW2 5234   3.019   1.350   2.282
 1740SOL     OW 5235   3.134   1.445   3.004
 1740SOL    HW1 5236   3.181   1.458   3.091
 1740SOL    HW2 5237   3.068   1.371   3.013
 1741SOL     OW 5238   3.444   0.639   2.334
 1741SOL    HW1 5239   3.413   0.700   2.407
 1741SOL    HW2 5240   3.494   0.691   2.265
 1742SOL     OW 5241   2.216   1.510   3.191
 1742SOL    HW1 5242   2.195   1.466   3.104
 1742SOL    HW2 5243   2.313   1.536   3.194
 1743SOL     OW 5244   2.264   0.751   3.460
 1743SOL    HW1 5245   2.332   0.806   3.413
 1743SOL    HW2 5246   2.304   0.663   3.487
 1744SOL     OW 5247   3.449   0.779   3.532
 1744SOL    HW1 5248   3.357   0.817   3.527
 1744SOL    HW2 5249   3.509   0.826   3.467
 1745SOL     OW 5250   2.875   0.105   3.632
 1745SOL    HW1 5251   2.881   0.190   3.580
 1745SOL    HW2 5252   2.907   0.029   3.575
 1746SOL     OW 5253   2.366   0.050   3.602
 1746SOL    HW1 5254   2.324  -0.007   3.532
 1746SOL    HW2 5255   2.300   0.119   3.634
 1747SOL     OW 5256   2.435   0.870   2.891
 1747SOL    HW1 5257   2.479   0.959   2.882
 1747SOL    HW2 5258   2.372   0.870   2.968
 1748SOL     OW 5259   3.222   0.862   2.907
 1748SOL    HW1 5260   3.147   0.862   2.841
 1748SOL    HW2 5261   3.259   0.770   2.916
 1749SOL     OW 5262   3.071   0.525   2.137
 1749SOL    HW1 5263   3.084   0.441   2.191
 1749SOL    HW2 5264   3.042   0.599   2.197
 1750SOL     OW 5265   2.169   0.213   3.093
 1750SOL    HW1 5266   2.146   0.250   3.183
 1750SOL    HW2 5267   2.139   0.118   3.087
 1751SOL     OW 5268   1.899   1.310   3.144
 1751SOL    HW1 5269   1.952   1.261   3.212
 1751SOL    HW2 5270   1.921   1.408   3.149
 1752SOL     OW 5271   2.594   0.634   2.926
 1752SOL    HW1 5272   2.653   0.608   2.850
 1752SOL    HW2 5273   2.566   0.730   2.915
 1753SOL     OW 5274   3.590   0.935   3.716
 1753SOL    HW1 5275   3.544   0.928   3.627
 1753SOL    HW2 5276   3.528   0.979   3.782
 1754SOL     OW 5277   2.169   0.063   2.480
 1754SOL    HW1 5278   2.158   0.157   2.513
 1754SOL    HW2 5279   2.164   0.000   2.557
 1755SOL     OW 5280   3.484   0.367   2.236
 1755SOL    HW1 5281   3.486   0.291   2.300
 1755SOL    HW2 5282   3.436   0.444   2.276
 1756SOL     OW 5283   2.885   0.766   2.828
 1756SOL    HW1 5284   2.900   0.787   2.924
 1756SOL    HW2 5285   2.855   0.671   2.819
 1757SOL     OW 5286   2.842   1.573   3.562
 1757SOL    HW1 5287   2.822   1.617   3.474
 1757SOL    HW2 5288   2.881   1.482   3.546
 1758SOL     OW 5289   3.721   1.518   3.467
 1758SOL    HW1 5290   3.735   1.545   3.372
 1758SOL    HW2 5291   3.804   1.540   3.520
 1759SOL     OW 5292   2.212   0.898   3.666
 1759SOL    HW1 5293   2.288   0.942   3.714
 1759SOL    HW2 5294   2.247   0.851   3.584
 1760SOL     OW 5295   3.402   0.274   1.987
 1760SOL    HW1 5296   3.341   0.199   2.010
 1760SOL    HW2 5297   3.424   0.326   2.070
 1761SOL     OW 5298   3.165   0.838   1.904
 1761SOL    HW1 5299   3.199   0.745   1.919
 1761SOL    HW2 5300   3.183   0.865   1.809
 1762SOL     OW 5301   2.930   1.333   2.711
 1762SOL    HW1 5302   2.937   1.249   2.656
 1762SOL    HW2 5303   2.992   1.402   2.675
 1763SOL     OW 5304   2.181   0.810   2.811
 1763SOL    HW1 5305   2.274   0.846   2.816
 1763SOL    HW2 5306   2.175   0.725   2.863
 1764SOL     OW 5307   2.201   0.509   2.868
 1764SOL    HW1 5308   2.149   0.426   2.851
 1764SOL    HW2 5309   2.278   0.514   2.804
 1765SOL     OW 5310   3.000   0.380   3.540
 1765SOL    HW1 5311   2.955   0.443   3.604
 1765SOL    HW2 5312   3.093   0.411   3.523
 1766SOL     OW 5313   3.022   0.207   3.339
 1766SOL    HW1 5314   3.022   0.271   3.416
 1766SOL    HW2 5315   3.050   0.255   3.256
 1767SOL     OW 5316   1.870   1.326   2.062
 1767SOL    HW1 5317   1.777   1.347   2.031
 1767SOL    HW2 5318   1.880   1.227   2.075
 1768SOL     OW 5319   1.950   1.801   2.789
 1768SOL    HW1 5320   1.908   1.715   2.762
 1768SOL    HW2 5321   2.044   1.804   2.755
 1769SOL     OW 5322   2.366   1.568   2.772
 1769SOL    HW1 5323   2.432   1.642   2.781
 1769SOL    HW2 5324   2.410   1.489   2.730
 1770SOL     OW 5325   2.864   0.796   3.100
 1770SOL    HW1 5326   2.905   0.764   3.186
 1770SOL    HW2 5327   2.768   0.769   3.097
 1771SOL     OW 5328   1.902   0.544   2.976
 1771SOL    HW1 5329   1.987   0.511   2.935
 1771SOL    HW2 5330   1.915   0.559   3.074
 1772SOL     OW 5331   2.051   0.520   3.584
 1772SOL    HW1 5332   2.110   0.480   3.514
 1772SOL    HW2 5333   1.993   0.591   3.543
 1773SOL     OW 5334   3.231   0.950   3.522
 1773SOL    HW1 5335   3.270   1.039   3.542
 1773SOL    HW2 5336   3.241   0.930   3.425
 1774SOL     OW 5337   2.677   0.572   2.187
 1774SOL    HW1 5338   2.684   0.483   2.141
 1774SOL    HW2 5339   2.583   0.606   2.179
 1775SOL     OW 5340   3.519   0.604   3.068
 1775SOL    HW1 5341   3.481   0.535   3.130
 1775SOL    HW2 5342   3.601   0.568   3.024
 1776SOL     OW 5343   2.114   1.564   3.606
 1776SOL    HW1 5344   2.084   1.621   3.682
 1776SOL    HW2 5345   2.107   1.467   3.632
 1777SOL     OW 5346   2.533   0.464   3.131
 1777SOL    HW1 5347   2.499   0.375   3.101
 1777SOL    HW2 5348   2.559   0.518   3.051
 1778SOL     OW 5349   2.792   1.678   3.327
 1778SOL    HW1 5350   2.768   1.660   3.232
 1778SOL    HW2 5351   2.822   1.772   3.337
 1779SOL     OW 5352   2.335   0.500   2.053
 1779SOL    HW1 5353   2.396   0.580   2.057
 1779SOL    HW2 5354   2.240   0.531   2.060
 1780SOL     OW 5355   2.021   1.137   3.328
 1780SOL    HW1 5356   2.043   1.076   3.404
 1780SOL    HW2 5357   2.031   1.088   3.242
 1781SOL     OW 5358   3.209   1.059   3.096
 1781SOL    HW1 5359   3.233   0.996   3.022
 1781SOL    HW2 5360   3.119   1.099   3.078
 1782SOL     OW 5361   3.164   0.855   2.171
 1782SOL    HW1 5362   3.078   0.824   2.213
 1782SOL    HW2 5363   3.160   0.841   2.072
 1783SOL     OW 5364   3.621   1.747   3.016
 1783SOL    HW1 5365   3.682   1.777   2.943
 1783SOL    HW2 5366   3.583   1.658   2.994
 1784SOL     OW 5367   3.114   1.731   2.990
 1784SOL    HW1 5368   3.198   1.736   2.936
 1784SOL    HW2 5369   3.091   1.635   3.008
 1785SOL     OW 5370   1.945   1.258   2.884
 1785SOL    HW1 5371   1.940   1.257   2.984
 1785SOL    HW2 5372   1.862   1.217   2.846
 1786SOL     OW 5373   2.550   1.662   3.578
 1786SOL    HW1 5374   2.494   1.743   3.587
 1786SOL    HW2 5375   2.602   1.666   3.492
 1787SOL     OW 5376   3.588   0.135   2.385
 1787SOL    HW1 5377   3.661   0.118   2.318
 1787SOL    HW2 5378   3.557   0.048   2.423
 1788SOL     OW 5379   3.250   1.573   2.339
 1788SOL    HW1 5380   3.317   1.585   2.265
 1788SOL    HW2 5381   3.210   1.662   2.362
 1789SOL     OW 5382   1.992   1.794   3.713
 1789SOL    HW1 5383   1.951   1.720   3.766
 1789SOL    HW2 5384   2.056   1.845   3.771
 1790SOL     OW 5385   3.142   0.927   2.534
 1790SOL    HW1 5386   3.202   0.846   2.536
 1790SOL    HW2 5387   3.182   0.996   2.474
 1791SOL     OW 5388   2.692   1.273   3.284
 1791SOL    HW1 5389   2.687   1.306   3.379
 1791SOL    HW2 5390   2.606   1.292   3.238
 1792SOL     OW 5391   2.534   1.616   2.016
 1792SOL    HW1 5392   2.543   1.626   1.917
 1792SOL    HW2 5393   2.494   1.527   2.037
 1793SOL     OW 5394   3.512   1.720   3.256
 1793SOL    HW1 5395   3.565   1.730   3.172
 1793SOL    HW2 5396   3.485   1.810   3.290
 1794SOL     OW 5397   3.703   0.175   2.825
 1794SOL    HW1 5398   3.742   0.090   2.789
 1794SOL    HW2 5399   3.605   0.177   2.806
 1795SOL     OW 5400   2.125   0.326   2.582
 1795SOL    HW1 5401   2.046   0.377   2.548
 1795SOL    HW2 5402   2.116   0.311   2.680
 1796SOL     OW 5403   3.056   1.612   1.893
 1796SOL    HW1 5404   3.062   1.519   1.930
 1796SOL    HW2 5405   2.997   1.612   1.813
 1797SOL     OW 5406   2.684   1.002   3.234
 1797SOL    HW1 5407   2.724   1.001   3.142
 1797SOL    HW2 5408   2.694   1.094   3.274
 1798SOL     OW 5409   2.778   0.910   2.153
 1798SOL    HW1 5410   2.841   0.948   2.085
 1798SOL    HW2 5411   2.818   0.827   2.192
 1799SOL     OW 5412   3.366   1.607   1.906
 1799SOL    HW1 5413   3.274   1.644   1.913
 1799SOL    HW2 5414   3.404   1.627   1.816
 1800SOL     OW 5415   2.234   1.288   3.352
 1800SOL    HW1 5416   2.221   1.381   3.318
 1800SOL    HW2 5417   2.150   1.236   3.339
 1801SOL     OW 5418   3.476   1.292   3.151
 1801SOL    HW1 5419   3.536   1.295   3.231
 1801SOL    HW2 5420   3.401   1.356   3.164
 1802SOL     OW 5421   2.901   1.098   2.558
 1802SOL    HW1 5422   2.831   1.051   2.612
 1802SOL    HW2 5423   2.960   1.030   2.515
 1803SOL     OW 5424   2.876   0.236   2.833
 1803SOL    HW1 5425   2.868   0.200   2.740
 1803SOL    HW2 5426   2.874   0.160   2.898
 1804SOL     OW 5427   2.452   1.487   2.353
 1804SOL    HW1 5428   2.494   1.429   2.283
 1804SOL    HW2 5429   2.408   1.566   2.309
 1805SOL     OW 5430   3.571   0.385   3.243
 1805SOL    HW1 5431   3.644   0.454   3.247
 1805SOL    HW2 5432   3.599   0.310   3.184
 1806SOL     OW 5433   2.117   1.348   2.152
 1806SOL    HW1 5434   2.021   1.349   2.125
 1806SOL    HW2 5435   2.129   1.401   2.236
 1807SOL     OW 5436   1.967   1.013   3.588
 1807SOL    HW1 5437   1.890   0.980   3.642
 1807SOL    HW2 5438   2.052   0.983   3.630
 1808SOL     OW 5439   2.534   0.203   3.351
 1808SOL    HW1 5440   2.624   0.187   3.311
 1808SOL    HW2 5441   2.542   0.208   3.450
 1809SOL     OW 5442   1.937   0.345   1.895
 1809SOL    HW1 5443   1.845   0.317   1.866
 1809SOL    HW2 5444   1.968   0.422   1.839
 1810SOL     OW 5445   3.302   0.856   3.260
 1810SOL    HW1 5446   3.245   0.908   3.197
 1810SOL    HW2 5447   3.398   0.868   3.236
 1811SOL     OW 5448   1.934   0.166   2.180
 1811SOL    HW1 5449   1.917   0.249   2.126
 1811SOL    HW2 5450   2.024   0.129   2.158
 1812SOL     OW 5451   3.045   1.335   1.981
 1812SOL    HW1 5452   2.946   1.324   1.983
 1812SOL    HW2 5453   3.079   1.350   2.074
 1813SOL     OW 5454   2.475   0.842   3.293
 1813SOL    HW1 5455   2.531   0.923   3.276
 1813SOL    HW2 5456   2.534   0.762   3.296
 1814SOL     OW 5457   3.355   1.767   2.821
 1814SOL    HW1 5458   3.388   1.831   2.752
 1814SOL    HW2 5459   3.421   1.761   2.896
 1815SOL     OW 5460   2.578   0.565   3.570
 1815SOL    HW1 5461   2.597   0.630   3.644
 1815SOL    HW2 5462   2.638   0.485   3.579
 1816SOL     OW 5463   3.312   1.220   3.495
 1816SOL    HW1 5464   3.303   1.210   3.594
 1816SOL    HW2 5465   3.408   1.213   3.469
 1817SOL     OW 5466   2.252   1.741   3.422
 1817SOL    HW1 5467   2.161   1.782   3.420
 1817SOL    HW2 5468   2.245   1.647   3.454
 1818SOL     OW 5469   3.536   0.883   3.116
 1818SOL    HW1 5470   3.509   0.794   3.079
 1818SOL    HW2 5471   3.537   0.951   3.043
 1819SOL     OW 5472   3.087   0.325   2.311
 1819SOL    HW1 5473   3.152   0.251   2.300
 1819SOL    HW2 5474   3.107   0.375   2.395
 1820SOL     OW 5475   2.456   0.745   2.514
 1820SOL    HW1 5476   2.506   0.830   2.495
 1820SOL    HW2 5477   2.368   0.747   2.466
 1821SOL     OW 5478   3.639   0.342   3.504
 1821SOL    HW1 5479   3.622   0.373   3.410
 1821SOL    HW2 5480   3.555   0.305   3.542
 1822SOL     OW 5481   3.592   0.934   3.379
 1822SOL    HW1 5482   3.630   1.025   3.394
 1822SOL    HW2 5483   3.584   0.917   3.280
 1823SOL     OW 5484   2.721   1.374   1.878
 1823SOL    HW1 5485   2.675   1.389   1.966
 1823SOL    HW2 5486   2.765   1.459   1.848
 1824SOL     OW 5487   2.523   1.790   2.815
 1824SOL    HW1 5488   2.477   1.878   2.802
 1824SOL    HW2 5489   2.622   1.802   2.808
 1825SOL     OW 5490   2.721   0.956   2.723
 1825SOL    HW1 5491   2.775   0.887   2.771
 1825SOL    HW2 5492   2.689   1.025   2.789
 1826SOL     OW 5493   2.945   0.984   1.949
 1826SOL    HW1 5494   2.922   1.037   1.867
 1826SOL    HW2 5495   3.026   0.928   1.930
 1827SOL     OW 5496   3.723   1.569   2.713
 1827SOL    HW1 5497   3.652   1.557   2.643
 1827SOL    HW2 5498   3.724   1.490   2.773
 1828SOL     OW 5499   2.083   1.314   3.706
 1828SOL    HW1 5500   2.018   1.241   3.685
 1828SOL    HW2 5501   2.087   1.328   3.804
 1829SOL     OW 5502   1.941   1.240   2.515
 1829SOL    HW1 5503   1.940   1.193   2.603
 1829SOL    HW2 5504   2.023   1.212   2.464
 1830SOL     OW 5505   2.534   1.391   3.486
 1830SOL    HW1 5506   2.456   1.341   3.524
 1830SOL    HW2 5507   2.531   1.486   3.517
 1831SOL     OW 5508   3.686   0.192   3.089
 1831SOL    HW1 5509   3.682   0.102   3.133
 1831SOL    HW2 5510   3.689   0.181   2.990
 1832SOL     OW 5511   2.290   0.424   2.382
 1832SOL    HW1 5512   2.320   0.352   2.320
 1832SOL    HW2 5513   2.251   0.384   2.465
 1833SOL     OW 5514   3.567   1.487   2.966
 1833SOL    HW1 5515   3.474   1.462   2.939
 1833SOL    HW2 5516   3.593   1.437   3.048
 1834SOL     OW 5517   2.179   0.547   3.142
 1834SOL    HW1 5518   2.217   0.488   3.214
 1834SOL    HW2 5519   2.219   0.521   3.054
 1835SOL     OW 5520   2.674   1.586   2.549
 1835SOL    HW1 5521   2.706   1.596   2.455
 1835SOL    HW2 5522   2.595   1.524   2.551
 1836SOL     OW 5523   3.286   0.214   2.974
 1836SOL    HW1 5524   3.338   0.149   3.029
 1836SOL    HW2 5525   3.237   0.277   3.035
 1837SOL     OW 5526   2.863   0.034   3.016
 1837SOL    HW1 5527   2.800  -0.038   2.985
 1837SOL    HW2 5528   2.956  -0.002   3.016
 1838SOL     OW 5529   2.632   1.330   2.163
 1838SOL    HW1 5530   2.586   1.243   2.180
 1838SOL    HW2 5531   2.723   1.327   2.204
 1839SOL     OW 5532   2.480   1.567   3.146
 1839SOL    HW1 5533   2.475   1.649   3.203
 1839SOL    HW2 5534   2.569   1.564   3.101
 1840SOL     OW 5535   3.214   0.052   2.030
 1840SOL    HW1 5536   3.249   0.011   1.946
 1840SOL    HW2 5537   3.124   0.014   2.050
 1841SOL     OW 5538   3.162   0.453   2.553
 1841SOL    HW1 5539   3.103   0.533   2.557
 1841SOL    HW2 5540   3.177   0.418   2.646
 1842SOL     OW 5541   3.455   0.221   2.744
 1842SOL    HW1 5542   3.371   0.220   2.798
 1842SOL    HW2 5543   3.457   0.304   2.688
 1843SOL     OW 5544   1.901   1.077   2.162
 1843SOL    HW1 5545   2.000   1.066   2.153
 1843SOL    HW2 5546   1.861   0.991   2.194
 1844SOL     OW 5547   2.737   1.646   2.199
 1844SOL    HW1 5548   2.660   1.611   2.145
 1844SOL    HW2 5549   2.705   1.717   2.261
 1845SOL     OW 5550   2.092   0.628   3.837
 1845SOL    HW1 5551   1.999   0.626   3.874
 1845SOL    HW2 5552   2.093   0.589   3.745
 1846SOL     OW 5553   2.087   0.275   4.720
 1846SOL    HW1 5554   2.122   0.258   4.812
 1846SOL    HW2 5555   1.999   0.230   4.708
 1847SOL     OW 5556   1.881   0.368   4.371
 1847SOL    HW1 5557   1.799   0.411   4.410
 1847SOL    HW2 5558   1.853   0.295   4.308
 1848SOL     OW 5559   3.417   1.511   4.427
 1848SOL    HW1 5560   3.360   1.495   4.508
 1848SOL    HW2 5561   3.358   1.521   4.347
 1849SOL     OW 5562   2.997   0.703   4.441
 1849SOL    HW1 5563   3.054   0.781   4.416
 1849SOL    HW2 5564   2.937   0.729   4.517
 1850SOL     OW 5565   3.617   0.607   3.955
 1850SOL    HW1 5566   3.605   0.594   3.856
 1850SOL    HW2 5567   3.587   0.526   4.004
 1851SOL     OW 5568   2.630   1.144   4.747
 1851SOL    HW1 5569   2.552   1.161   4.807
 1851SOL    HW2 5570   2.664   1.231   4.711
 1852SOL     OW 5571   2.547   1.012   4.389
 1852SOL    HW1 5572   2.616   0.996   4.459
 1852SOL    HW2 5573   2.474   1.069   4.427
 1853SOL     OW 5574   2.197   1.435   4.785
 1853SOL    HW1 5575   2.119   1.404   4.732
 1853SOL    HW2 5576   2.255   1.493   4.728
 1854SOL     OW 5577   3.465   0.447   4.461
 1854SOL    HW1 5578   3.391   0.493   4.411
 1854SOL    HW2 5579   3.516   0.515   4.514
 1855SOL     OW 5580   2.093   1.713   4.207
 1855SOL    HW1 5581   2.127   1.790   4.261
 1855SOL    HW2 5582   2.137   1.713   4.117
 1856SOL     OW 5583   2.092   1.434   4.262
 1856SOL    HW1 5584   2.066   1.530   4.262
 1856SOL    HW2 5585   2.021   1.380   4.307
 1857SOL     OW 5586   2.102   1.091   4.610
 1857SOL    HW1 5587   2.116   1.007   4.662
 1857SOL    HW2 5588   2.047   1.155   4.665
 1858SOL     OW 5589   2.468   0.964   3.847
 1858SOL    HW1 5590   2.475   1.048   3.793
 1858SOL    HW2 5591   2.514   0.977   3.935
 1859SOL     OW 5592   1.984   0.643   4.287
 1859SOL    HW1 5593   1.939   0.555   4.304
 1859SOL    HW2 5594   1.983   0.697   4.371
 1860SOL     OW 5595   3.704   1.767   4.083
 1860SOL    HW1 5596   3.758   1.738   4.163
 1860SOL    HW2 5597   3.734   1.857   4.054
 1861SOL     OW 5598   1.889   1.596   3.841
 1861SOL    HW1 5599   1.870   1.500   3.862
 1861SOL    HW2 5600   1.856   1.654   3.916
 1862SOL     OW 5601   3.551   0.922   4.336
 1862SOL    HW1 5602   3.646   0.893   4.344
 1862SOL    HW2 5603   3.543   0.987   4.261
 1863SOL     OW 5604   3.503   1.108   4.156
 1863SOL    HW1 5605   3.589   1.110   4.104
 1863SOL    HW2 5606   3.517   1.155   4.244
 1864SOL     OW 5607   2.475   1.365   4.450
 1864SOL    HW1 5608   2.426   1.278   4.459
 1864SOL    HW2 5609   2.452   1.408   4.363
 1865SOL     OW 5610   2.671   0.004   4.226
 1865SOL    HW1 5611   2.711   0.095   4.217
 1865SOL    HW2 5612   2.571   0.012   4.232
 1866SOL     OW 5613   3.387   0.999   3.914
 1866SOL    HW1 5614   3.324   0.923   3.927
 1866SOL    HW2 5615   3.435   1.017   4.000
 1867SOL     OW 5616   3.328   1.417   4.677
 1867SOL    HW1 5617   3.269   1.423   4.757
 1867SOL    HW2 5618   3.313   1.329   4.631
 1868SOL     OW 5619   3.529   1.714   4.296
 1868SOL    HW1 5620   3.488   1.691   4.208
 1868SOL    HW2 5621   3.511   1.640   4.361
 1869SOL     OW 5622   2.460   0.729   3.994
 1869SOL    HW1 5623   2.484   0.798   3.926
 1869SOL    HW2 5624   2.382   0.762   4.048
 1870SOL     OW 5625   3.143   0.345   4.668
 1870SOL    HW1 5626   3.057   0.295   4.655
 1870SOL    HW2 5627   3.205   0.291   4.724
 1871SOL     OW 5628   3.438   1.662   4.031
 1871SOL    HW1 5629   3.527   1.708   4.034
 1871SOL    HW2 5630   3.417   1.638   3.936
 1872SOL     OW 5631   2.903   0.701   4.153
 1872SOL    HW1 5632   2.929   0.697   4.249
 1872SOL    HW2 5633   2.818   0.650   4.139
 1873SOL     OW 5634   1.938   0.811   4.513
 1873SOL    HW1 5635   2.037   0.799   4.522
 1873SOL    HW2 5636   1.914   0.906   4.534
 1874SOL     OW 5637   2.727   0.348   3.919
 1874SOL    HW1 5638   2.786   0.411   3.870
 1874SOL    HW2 5639   2.746   0.254   3.890
 1875SOL     OW 5640   3.224   1.144   4.269
 1875SOL    HW1 5641   3.307   1.115   4.221
 1875SOL    HW2 5642   3.175   1.211   4.213
 1876SOL     OW 5643   2.412   0.196   4.609
 1876SOL    HW1 5644   2.407   0.191   4.709
 1876SOL    HW2 5645   2.414   0.292   4.580
 1877SOL     OW 5646   2.870   1.456   4.201
 1877SOL    HW1 5647   2.824   1.528   4.149
 1877SOL    HW2 5648   2.866   1.476   4.299
 1878SOL     OW 5649   2.213   1.801   4.577
 1878SOL    HW1 5650   2.263   1.715   4.583
 1878SOL    HW2 5651   2.278   1.878   4.574
 1879SOL     OW 5652   3.657   1.066   4.597
 1879SOL    HW1 5653   3.595   1.051   4.521
 1879SOL    HW2 5654   3.605   1.077   4.682
 1880SOL     OW 5655   2.183   0.943   3.966
 1880SOL    HW1 5656   2.265   0.982   3.924
 1880SOL    HW2 5657   2.156   0.861   3.917
 1881SOL     OW 5658   3.320   0.735   4.452
 1881SOL    HW1 5659   3.315   0.670   4.527
 1881SOL    HW2 5660   3.400   0.794   4.465
 1882SOL     OW 5661   2.973   1.776   3.961
 1882SOL    HW1 5662   2.913   1.714   4.011
 1882SOL    HW2 5663   3.004   1.732   3.876
 1883SOL     OW 5664   3.494   1.377   3.805
 1883SOL    HW1 5665   3.462   1.471   3.795
 1883SOL    HW2 5666   3.418   1.314   3.793
 1884SOL     OW 5667   2.326   1.743   4.047
 1884SOL    HW1 5668   2.359   1.782   4.133
 1884SOL    HW2 5669   2.402   1.736   3.982
 1885SOL     OW 5670   3.262   0.107   4.150
 1885SOL    HW1 5671   3.238   0.070   4.060
 1885SOL    HW2 5672   3.361   0.123   4.154
 1886SOL     OW 5673   2.111   1.785   4.965
 1886SOL    HW1 5674   2.168   1.720   5.015
 1886SOL    HW2 5675   2.095   1.752   4.872
 1887SOL     OW 5676   2.802   1.698   4.628
 1887SOL    HW1 5677   2.882   1.641   4.649
 1887SOL    HW2 5678   2.753   1.658   4.551
 1888SOL     OW 5679   2.244   0.700   4.204
 1888SOL    HW1 5680   2.289   0.610   4.201
 1888SOL    HW2 5681   2.150   0.689   4.237
 1889SOL     OW 5682   2.476   0.122   3.841
 1889SOL    HW1 5683   2.574   0.100   3.848
 1889SOL    HW2 5684   2.445   0.105   3.748
 1890SOL     OW 5685   2.665   1.402   4.648
 1890SOL    HW1 5686   2.755   1.416   4.606
 1890SOL    HW2 5687   2.594   1.404   4.577
 1891SOL     OW 5688   2.784   0.503   4.623
 1891SOL    HW1 5689   2.759   0.494   4.527
 1891SOL    HW2 5690   2.832   0.421   4.654
 1892SOL     OW 5691   2.401   0.064   4.236
 1892SOL    HW1 5692   2.320   0.065   4.294
 1892SOL    HW2 5693   2.404   0.147   4.181
 1893SOL     OW 5694   3.296   1.188   3.765
 1893SOL    HW1 5695   3.328   1.112   3.822
 1893SOL    HW2 5696   3.204   1.215   3.795
 1894SOL     OW 5697   2.159   0.035   3.895
 1894SOL    HW1 5698   2.208   0.119   3.874
 1894SOL    HW2 5699   2.221  -0.030   3.940
 1895SOL     OW 5700   2.797   0.236   4.204
 1895SOL    HW1 5701   2.749   0.277   4.126
 1895SOL    HW2 5702   2.896   0.234   4.185
 1896SOL     OW 5703   3.089   1.570   4.517
 1896SOL    HW1 5704   3.110   1.644   4.452
 1896SOL    HW2 5705   3.157   1.570   4.590
 1897SOL     OW 5706   2.321   1.152   4.465
 1897SOL    HW1 5707   2.250   1.125   4.530
 1897SOL    HW2 5708   2.295   1.124   4.372
 1898SOL     OW 5709   3.133   1.797   4.315
 1898SOL    HW1 5710   3.177   1.861   4.251
 1898SOL    HW2 5711   3.083   1.849   4.385
 1899SOL     OW 5712   2.894   0.549   3.740
 1899SOL    HW1 5713   2.853   0.631   3.701
 1899SOL    HW2 5714   2.958   0.575   3.813
 1900SOL     OW 5715   2.728   0.454   4.366
 1900SOL    HW1 5716   2.696   0.526   4.304
 1900SOL    HW2 5717   2.752   0.373   4.313
 1901SOL     OW 5718   2.879   0.039   4.477
 1901SOL    HW1 5719   2.807   0.044   4.408
 1901SOL    HW2 5720   2.855  -0.030   4.546
 1902SOL     OW 5721   3.291   1.173   4.591
 1902SOL    HW1 5722   3.236   1.089   4.584
 1902SOL    HW2 5723   3.317   1.202   4.499
 1903SOL     OW 5724   3.328   0.590   4.716
 1903SOL    HW1 5725   3.298   0.495   4.723
 1903SOL    HW2 5726   3.401   0.606   4.782
 1904SOL     OW 5727   3.719   0.833   4.101
 1904SOL    HW1 5728   3.761   0.769   4.165
 1904SOL    HW2 5729   3.681   0.782   4.023
 1905SOL     OW 5730   2.350   1.385   3.898
 1905SOL    HW1 5731   2.263   1.370   3.945
 1905SOL    HW2 5732   2.333   1.411   3.803
 1906SOL     OW 5733   3.526   1.280   4.381
 1906SOL    HW1 5734   3.625   1.288   4.395
 1906SOL    HW2 5735   3.481   1.364   4.412
 1907SOL     OW 5736   3.252   0.575   3.802
 1907SOL    HW1 5737   3.198   0.554   3.883
 1907SOL    HW2 5738   3.343   0.534   3.811
 1908SOL     OW 5739   2.389   0.256   4.052
 1908SOL    HW1 5740   2.416   0.197   3.977
 1908SOL    HW2 5741   2.389   0.351   4.021
 1909SOL     OW 5742   3.500   1.099   4.803
 1909SOL    HW1 5743   3.505   1.180   4.862
 1909SOL    HW2 5744   3.414   1.101   4.752
 1910SOL     OW 5745   2.567   1.050   4.092
 1910SOL    HW1 5746   2.553   1.057   4.191
 1910SOL    HW2 5747   2.651   0.999   4.074
 1911SOL     OW 5748   2.229   1.100   4.225
 1911SOL    HW1 5749   2.222   1.183   4.169
 1911SOL    HW2 5750   2.233   1.020   4.165
 1912SOL     OW 5751   2.428   0.537   4.589
 1912SOL    HW1 5752   2.440   0.603   4.515
 1912SOL    HW2 5753   2.474   0.571   4.672
 1913SOL     OW 5754   3.114   1.348   4.112
 1913SOL    HW1 5755   3.164   1.425   4.152
 1913SOL    HW2 5756   3.019   1.350   4.144
 1914SOL     OW 5757   3.444   0.639   4.196
 1914SOL    HW1 5758   3.413   0.700   4.269
 1914SOL    HW2 5759   3.494   0.691   4.127
 1915SOL     OW 5760   2.435   0.870   4.753
 1915SOL    HW1 5761   2.479   0.959   4.744
 1915SOL    HW2 5762   2.372   0.870   4.830
 1916SOL     OW 5763   3.071   0.525   3.999
 1916SOL    HW1 5764   3.084   0.441   4.053
 1916SOL    HW2 5765   3.042   0.599   4.059
 1917SOL     OW 5766   2.594   0.634   4.788
 1917SOL    HW1 5767   2.653   0.608   4.712
 1917SOL    HW2 5768   2.566   0.730   4.777
 1918SOL     OW 5769   2.169   0.063   4.342
 1918SOL    HW1 5770   2.158   0.157   4.375
 1918SOL    HW2 5771   2.164   0.000   4.419
 1919SOL     OW 5772   3.484   0.367   4.098
 1919SOL    HW1 5773   3.486   0.291   4.162
 1919SOL    HW2 5774   3.436   0.444   4.138
 1920SOL     OW 5775   3.402   0.274   3.849
 1920SOL    HW1 5776   3.341   0.199   3.872
 1920SOL    HW2 5777   3.424   0.326   3.932
 1921SOL     OW 5778   3.165   0.838   3.766
 1921SOL    HW1 5779   3.199   0.745   3.781
 1921SOL    HW2 5780   3.183   0.865   3.671
 1922SOL     OW 5781   2.930   1.333   4.573
 1922SOL    HW1 5782   2.937   1.249   4.518
 1922SOL    HW2 5783   2.992   1.402   4.537
 1923SOL     OW 5784   2.181   0.810   4.673
 1923SOL    HW1 5785   2.274   0.846   4.678
 1923SOL    HW2 5786   2.175   0.725   4.725
 1924SOL     OW 5787   2.201   0.509   4.730
 1924SOL    HW1 5788   2.149   0.426   4.713
 1924SOL    HW2 5789   2.278   0.514   4.666
 1925SOL     OW 5790   1.870   1.326   3.924
 1925SOL    HW1 5791   1.777   1.347   3.893
 1925SOL    HW2 5792   1.880   1.227   3.937
 1926SOL     OW 5793   1.950   1.801   4.651
 1926SOL    HW1 5794   1.908   1.715   4.624
 1926SOL    HW2 5795   2.044   1.804   4.617
 1927SOL     OW 5796   2.366   1.568   4.634
 1927SOL    HW1 5797   2.432   1.642   4.643
 1927SOL    HW2 5798   2.410   1.489   4.592
 1928SOL     OW 5799   2.864   0.796   4.962
 1928SOL    HW1 5800   2.905   0.764   5.048
 1928SOL    HW2 5801   2.768   0.769   4.959
 1929SOL     OW 5802   2.677   0.572   4.049
 1929SOL    HW1 5803   2.684   0.483   4.003
 1929SOL    HW2 5804   2.583   0.606   4.041
 1930SOL     OW 5805   2.533   0.464   4.993
 1930SOL    HW1 5806   2.499   0.375   4.963
 1930SOL    HW2 5807   2.559   0.518   4.913
 1931SOL     OW 5808   2.335   0.500   3.915
 1931SOL    HW1 5809   2.396   0.580   3.919
 1931SOL    HW2 5810   2.240   0.531   3.922
 1932SOL     OW 5811   3.164   0.855   4.033
 1932SOL    HW1 5812   3.078   0.824   4.075
 1932SOL    HW2 5813   3.160   0.841   3.934
 1933SOL     OW 5814   3.621   1.747   4.878
 1933SOL    HW1 5815   3.682   1.777   4.805
 1933SOL    HW2 5816   3.583   1.658   4.856
 1934SOL     OW 5817   1.945   1.258   4.746
 1934SOL    HW1 5818   1.940   1.257   4.846
 1934SOL    HW2 5819   1.862   1.217   4.708
 1935SOL     OW 5820   3.588   0.135   4.247
 1935SOL    HW1 5821   3.661   0.118   4.180
 1935SOL    HW2 5822   3.557   0.048   4.285
 1936SOL     OW 5823   3.250   1.573   4.201
 1936SOL    HW1 5824   3.317   1.585   4.127
 1936SOL    HW2 5825   3.210   1.662   4.224
 1937SOL     OW 5826   3.142   0.927   4.396
 1937SOL    HW1 5827   3.202   0.846   4.398
 1937SOL    HW2 5828   3.182   0.996   4.336
 1938SOL     OW 5829   2.534   1.616   3.878
 1938SOL    HW1 5830   2.543   1.626   3.779
 1938SOL    HW2 5831   2.494   1.527   3.899
 1939SOL     OW 5832   3.703   0.175   4.687
 1939SOL    HW1 5833   3.742   0.090   4.651
 1939SOL    HW2 5834   3.605   0.177   4.668
 1940SOL     OW 5835   2.125   0.326   4.444
 1940SOL    HW1 5836   2.046   0.377   4.410
 1940SOL    HW2 5837   2.116   0.311   4.542
 1941SOL     OW 5838   3.056   1.612   3.755
 1941SOL    HW1 5839   3.062   1.519   3.792
 1941SOL    HW2 5840   2.997   1.612   3.675
 1942SOL     OW 5841   2.778   0.910   4.015
 1942SOL    HW1 5842   2.841   0.948   3.947
 1942SOL    HW2 5843   2.818   0.827   4.054
 1943SOL     OW 5844   3.366   1.607   3.768
 1943SOL    HW1 5845   3.274   1.644   3.775
 1943SOL    HW2 5846   3.404   1.627   3.678
 1944SOL     OW 5847   2.901   1.098   4.420
 1944SOL    HW1 5848   2.831   1.051   4.474
 1944SOL    HW2 5849   2.960   1.030   4.377
 1945SOL     OW 5850   2.452   1.487   4.215
 1945SOL    HW1 5851   2.494   1.429   4.145
 1945SOL    HW2 5852   2.408   1.566   4.171
 1946SOL     OW 5853   2.117   1.348   4.014
 1946SOL    HW1 5854   2.021   1.349   3.987
 1946SOL    HW2 5855   2.129   1.401   4.098
 1947SOL     OW 5856   1.937   0.345   3.757
 1947SOL    HW1 5857   1.845   0.317   3.728
 1947SOL    HW2 5858   1.968   0.422   3.701
 1948SOL     OW 5859   1.934   0.166   4.042
 1948SOL    HW1 5860   1.917   0.249   3.988
 1948SOL    HW2 5861   2.024   0.129   4.020
 1949SOL     OW 5862   3.045   1.335   3.843
 1949SOL    HW1 5863   2.946   1.324   3.845
 1949SOL    HW2 5864   3.079   1.350   3.936
 1950SOL     OW 5865   3.536   0.883   4.978
 1950SOL    HW1 5866   3.509   0.794   4.941
 1950SOL    HW2 5867   3.537   0.951   4.905
 1951SOL     OW 5868   3.087   0.325   4.173
 1951SOL    HW1 5869   3.152   0.251   4.162
 1951SOL    HW2 5870   3.107   0.375   4.257
 1952SOL     OW 5871   2.456   0.745   4.376
 1952SOL    HW1 5872   2.506   0.830   4.357
 1952SOL    HW2 5873   2.368   0.747   4.328
 1953SOL     OW 5874   2.721   1.374   3.740
 1953SOL    HW1 5875   2.675   1.389   3.828
 1953SOL    HW2 5876   2.765   1.459   3.710
 1954SOL     OW 5877   2.523   1.790   4.677
 1954SOL    HW1 5878   2.477   1.878   4.664
 1954SOL    HW2 5879   2.622   1.802   4.670
 1955SOL     OW 5880   2.721   0.956   4.585
 1955SOL    HW1 5881   2.775   0.887   4.633
 1955SOL    HW2 5882   2.689   1.025   4.651
 1956SOL     OW 5883   2.945   0.984   3.811
 1956SOL    HW1 5884   2.922   1.037   3.729
 1956SOL    HW2 5885   3.026   0.928   3.792
 1957SOL     OW 5886   3.723   1.569   4.575
 1957SOL    HW1 5887   3.652   1.557   4.505
 1957SOL    HW2 5888   3.724   1.490   4.635
 1958SOL     OW 5889   1.941   1.240   4.377
 1958SOL    HW1 5890   1.940   1.193   4.465
 1958SOL    HW2 5891   2.023   1.212   4.326
 1959SOL     OW 5892   3.686   0.192   4.951
 1959SOL    HW1 5893   3.682   0.102   4.995
 1959SOL    HW2 5894   3.689   0.181   4.852
 1960SOL     OW 5895   2.290   0.424   4.244
 1960SOL    HW1 5896   2.320   0.352   4.182
 1960SOL    HW2 5897   2.251   0.384   4.327
 1961SOL     OW 5898   2.674   1.586   4.411
 1961SOL    HW1 5899   2.706   1.596   4.317
 1961SOL    HW2 5900   2.595   1.524   4.413
 1962SOL     OW 5901   2.632   1.330   4.025
 1962SOL    HW1 5902   2.586   1.243   4.042
 1962SOL    HW2 5903   2.723   1.327   4.066
 1963SOL     OW 5904   3.214   0.052   3.892
 1963SOL    HW1 5905   3.249   0.011   3.808
 1963SOL    HW2 5906   3.124   0.014   3.912
 1964SOL     OW 5907   3.162   0.453   4.415
 1964SOL    HW1 5908   3.103   0.533   4.419
 1964SOL    HW2 5909   3.177   0.418   4.508
 1965SOL     OW 5910   3.455   0.221   4.606
 1965SOL    HW1 5911   3.371   0.220   4.660
 1965SOL    HW2 5912   3.457   0.304   4.550
 1966SOL     OW 5913   1.901   1.077   4.024
 1966SOL    HW1 5914   2.000   1.066   4.015
 1966SOL    HW2 5915   1.861   0.991   4.056
 1967SOL     OW 5916   2.737   1.646   4.061
 1967SOL    HW1 5917   2.660   1.611   4.007
 1967SOL    HW2 5918   2.705   1.717   4.123
 1968SOL     OW 5919   2.092   2.490   0.113
 1968SOL    HW1 5920   1.999   2.488   0.150
 1968SOL    HW2 5921   2.093   2.451   0.021
 1969SOL     OW 5922   2.087   2.137   0.996
 1969SOL    HW1 5923   2.122   2.120   1.088
 1969SOL    HW2 5924   1.999   2.092   0.984
 1970SOL     OW 5925   1.881   2.230   0.647
 1970SOL    HW1 5926   1.799   2.273   0.686
 1970SOL    HW2 5927   1.853   2.157   0.584
 1971SOL     OW 5928   2.431   3.137   1.165
 1971SOL    HW1 5929   2.338   3.130   1.128
 1971SOL    HW2 5930   2.442   3.226   1.209
 1972SOL     OW 5931   3.417   3.373   0.703
 1972SOL    HW1 5932   3.360   3.357   0.784
 1972SOL    HW2 5933   3.358   3.383   0.623
 1973SOL     OW 5934   2.997   2.565   0.717
 1973SOL    HW1 5935   3.054   2.643   0.692
 1973SOL    HW2 5936   2.937   2.591   0.793
 1974SOL     OW 5937   3.617   2.469   0.231
 1974SOL    HW1 5938   3.605   2.456   0.132
 1974SOL    HW2 5939   3.587   2.388   0.280
 1975SOL     OW 5940   2.630   3.006   1.023
 1975SOL    HW1 5941   2.552   3.023   1.083
 1975SOL    HW2 5942   2.664   3.093   0.987
 1976SOL     OW 5943   2.712   2.660   1.823
 1976SOL    HW1 5944   2.708   2.736   1.888
 1976SOL    HW2 5945   2.734   2.696   1.732
 1977SOL     OW 5946   2.547   2.874   0.665
 1977SOL    HW1 5947   2.616   2.858   0.735
 1977SOL    HW2 5948   2.474   2.931   0.703
 1978SOL     OW 5949   2.548   3.023   1.803
 1978SOL    HW1 5950   2.608   3.102   1.817
 1978SOL    HW2 5951   2.462   3.054   1.762
 1979SOL     OW 5952   2.197   3.297   1.061
 1979SOL    HW1 5953   2.119   3.266   1.008
 1979SOL    HW2 5954   2.255   3.355   1.004
 1980SOL     OW 5955   3.322   3.367   1.339
 1980SOL    HW1 5956   3.346   3.461   1.365
 1980SOL    HW2 5957   3.306   3.313   1.421
 1981SOL     OW 5958   2.300   2.254   1.499
 1981SOL    HW1 5959   2.382   2.198   1.508
 1981SOL    HW2 5960   2.219   2.196   1.503
 1982SOL     OW 5961   3.465   2.309   0.737
 1982SOL    HW1 5962   3.391   2.355   0.687
 1982SOL    HW2 5963   3.516   2.377   0.790
 1983SOL     OW 5964   2.093   3.575   0.483
 1983SOL    HW1 5965   2.127   3.652   0.537
 1983SOL    HW2 5966   2.137   3.575   0.393
 1984SOL     OW 5967   2.989   3.203   1.690
 1984SOL    HW1 5968   3.036   3.203   1.778
 1984SOL    HW2 5969   2.941   3.116   1.679
 1985SOL     OW 5970   2.092   3.296   0.538
 1985SOL    HW1 5971   2.066   3.392   0.538
 1985SOL    HW2 5972   2.021   3.242   0.583
 1986SOL     OW 5973   2.102   2.953   0.886
 1986SOL    HW1 5974   2.116   2.869   0.938
 1986SOL    HW2 5975   2.047   3.017   0.941
 1987SOL     OW 5976   2.482   3.648   1.439
 1987SOL    HW1 5977   2.390   3.631   1.474
 1987SOL    HW2 5978   2.510   3.740   1.465
 1988SOL     OW 5979   2.468   2.826   0.123
 1988SOL    HW1 5980   2.475   2.910   0.069
 1988SOL    HW2 5981   2.514   2.839   0.211
 1989SOL     OW 5982   3.456   1.976   1.480
 1989SOL    HW1 5983   3.438   2.043   1.408
 1989SOL    HW2 5984   3.453   2.022   1.569
 1990SOL     OW 5985   1.984   2.505   0.563
 1990SOL    HW1 5986   1.939   2.417   0.580
 1990SOL    HW2 5987   1.983   2.559   0.647
 1991SOL     OW 5988   3.704   3.629   0.359
 1991SOL    HW1 5989   3.758   3.600   0.439
 1991SOL    HW2 5990   3.734   3.719   0.330
 1992SOL     OW 5991   1.889   3.458   0.117
 1992SOL    HW1 5992   1.870   3.362   0.138
 1992SOL    HW2 5993   1.856   3.516   0.192
 1993SOL     OW 5994   3.551   2.784   0.612
 1993SOL    HW1 5995   3.646   2.755   0.620
 1993SOL    HW2 5996   3.543   2.849   0.537
 1994SOL     OW 5997   3.503   2.970   0.432
 1994SOL    HW1 5998   3.589   2.972   0.380
 1994SOL    HW2 5999   3.517   3.017   0.520
 1995SOL     OW 6000   1.975   2.599   1.597
 1995SOL    HW1 6001   2.063   2.586   1.642
 1995SOL    HW2 6002   1.962   2.696   1.575
 1996SOL     OW 6003   2.475   3.227   0.726
 1996SOL    HW1 6004   2.426   3.140   0.735
 1996SOL    HW2 6005   2.452   3.270   0.639
 1997SOL     OW 6006   3.155   3.090   1.423
 1997SOL    HW1 6007   3.192   3.017   1.365
 1997SOL    HW2 6008   3.207   3.095   1.508
 1998SOL     OW 6009   2.671   1.866   0.502
 1998SOL    HW1 6010   2.711   1.957   0.493
 1998SOL    HW2 6011   2.571   1.874   0.508
 1999SOL     OW 6012   2.059   2.838   1.264
 1999SOL    HW1 6013   2.148   2.793   1.250
 1999SOL    HW2 6014   1.986   2.773   1.245
 2000SOL     OW 6015   3.387   2.861   0.190
 2000SOL    HW1 6016   3.324   2.785   0.203
 2000SOL    HW2 6017   3.435   2.879   0.276
 2001SOL     OW 6018   3.049   3.654   1.616
 2001SOL    HW1 6019   3.073   3.714   1.540
 2001SOL    HW2 6020   3.056   3.559   1.586
 2002SOL     OW 6021   2.179   2.113   1.801
 2002SOL    HW1 6022   2.250   2.184   1.807
 2002SOL    HW2 6023   2.091   2.152   1.829
 2003SOL     OW 6024   3.328   3.279   0.953
 2003SOL    HW1 6025   3.269   3.285   1.033
 2003SOL    HW2 6026   3.313   3.191   0.907
 2004SOL     OW 6027   3.529   3.576   0.572
 2004SOL    HW1 6028   3.488   3.553   0.484
 2004SOL    HW2 6029   3.511   3.502   0.637
 2005SOL     OW 6030   2.460   2.591   0.270
 2005SOL    HW1 6031   2.484   2.660   0.202
 2005SOL    HW2 6032   2.382   2.624   0.324
 2006SOL     OW 6033   3.143   2.207   0.944
 2006SOL    HW1 6034   3.057   2.157   0.931
 2006SOL    HW2 6035   3.205   2.153   1.000
 2007SOL     OW 6036   3.438   3.524   0.307
 2007SOL    HW1 6037   3.527   3.570   0.310
 2007SOL    HW2 6038   3.417   3.500   0.212
 2008SOL     OW 6039   2.669   2.467   1.465
 2008SOL    HW1 6040   2.622   2.464   1.554
 2008SOL    HW2 6041   2.618   2.412   1.399
 2009SOL     OW 6042   3.256   2.331   1.674
 2009SOL    HW1 6043   3.236   2.374   1.762
 2009SOL    HW2 6044   3.334   2.269   1.683
 2010SOL     OW 6045   2.835   2.752   1.572
 2010SOL    HW1 6046   2.881   2.668   1.543
 2010SOL    HW2 6047   2.779   2.786   1.497
 2011SOL     OW 6048   2.853   2.272   1.242
 2011SOL    HW1 6049   2.776   2.306   1.296
 2011SOL    HW2 6050   2.819   2.221   1.163
 2012SOL     OW 6051   2.903   2.563   0.429
 2012SOL    HW1 6052   2.929   2.559   0.525
 2012SOL    HW2 6053   2.818   2.512   0.415
 2013SOL     OW 6054   1.938   2.673   0.789
 2013SOL    HW1 6055   2.037   2.661   0.798
 2013SOL    HW2 6056   1.914   2.768   0.810
 2014SOL     OW 6057   1.992   3.683   1.571
 2014SOL    HW1 6058   1.982   3.668   1.670
 2014SOL    HW2 6059   1.906   3.719   1.535
 2015SOL     OW 6060   2.727   2.210   0.195
 2015SOL    HW1 6061   2.786   2.273   0.146
 2015SOL    HW2 6062   2.746   2.116   0.166
 2016SOL     OW 6063   3.581   2.447   1.831
 2016SOL    HW1 6064   3.555   2.536   1.795
 2016SOL    HW2 6065   3.579   2.379   1.758
 2017SOL     OW 6066   3.224   3.006   0.545
 2017SOL    HW1 6067   3.307   2.977   0.497
 2017SOL    HW2 6068   3.175   3.073   0.489
 2018SOL     OW 6069   2.412   2.058   0.885
 2018SOL    HW1 6070   2.407   2.053   0.985
 2018SOL    HW2 6071   2.414   2.154   0.856
 2019SOL     OW 6072   2.870   3.318   0.477
 2019SOL    HW1 6073   2.824   3.390   0.425
 2019SOL    HW2 6074   2.866   3.338   0.575
 2020SOL     OW 6075   2.213   3.663   0.853
 2020SOL    HW1 6076   2.263   3.577   0.859
 2020SOL    HW2 6077   2.278   3.740   0.850
 2021SOL     OW 6078   3.657   2.928   0.873
 2021SOL    HW1 6079   3.595   2.913   0.797
 2021SOL    HW2 6080   3.605   2.939   0.958
 2022SOL     OW 6081   3.089   3.412   1.506
 2022SOL    HW1 6082   3.095   3.335   1.570
 2022SOL    HW2 6083   3.037   3.386   1.426
 2023SOL     OW 6084   2.183   2.805   0.242
 2023SOL    HW1 6085   2.265   2.844   0.200
 2023SOL    HW2 6086   2.156   2.723   0.193
 2024SOL     OW 6087   3.320   2.597   0.728
 2024SOL    HW1 6088   3.315   2.532   0.803
 2024SOL    HW2 6089   3.400   2.656   0.741
 2025SOL     OW 6090   2.323   3.128   1.727
 2025SOL    HW1 6091   2.273   3.129   1.641
 2025SOL    HW2 6092   2.260   3.110   1.803
 2026SOL     OW 6093   2.973   3.638   0.237
 2026SOL    HW1 6094   2.913   3.576   0.287
 2026SOL    HW2 6095   3.004   3.594   0.152
 2027SOL     OW 6096   2.064   2.147   1.498
 2027SOL    HW1 6097   1.984   2.207   1.485
 2027SOL    HW2 6098   2.054   2.098   1.584
 2028SOL     OW 6099   3.494   3.239   0.081
 2028SOL    HW1 6100   3.462   3.333   0.071
 2028SOL    HW2 6101   3.418   3.176   0.069
 2029SOL     OW 6102   2.326   3.605   0.323
 2029SOL    HW1 6103   2.359   3.644   0.409
 2029SOL    HW2 6104   2.402   3.598   0.258
 2030SOL     OW 6105   3.262   1.969   0.426
 2030SOL    HW1 6106   3.238   1.932   0.336
 2030SOL    HW2 6107   3.361   1.985   0.430
 2031SOL     OW 6108   2.111   3.647   1.241
 2031SOL    HW1 6109   2.168   3.582   1.291
 2031SOL    HW2 6110   2.095   3.614   1.148
 2032SOL     OW 6111   2.802   3.560   0.904
 2032SOL    HW1 6112   2.882   3.503   0.925
 2032SOL    HW2 6113   2.753   3.520   0.827
 2033SOL     OW 6114   2.244   2.562   0.480
 2033SOL    HW1 6115   2.289   2.472   0.477
 2033SOL    HW2 6116   2.150   2.551   0.513
 2034SOL     OW 6117   3.409   2.084   1.729
 2034SOL    HW1 6118   3.404   2.121   1.821
 2034SOL    HW2 6119   3.337   2.015   1.717
 2035SOL     OW 6120   2.476   1.984   0.117
 2035SOL    HW1 6121   2.574   1.962   0.124
 2035SOL    HW2 6122   2.445   1.967   0.024
 2036SOL     OW 6123   2.643   2.126   1.749
 2036SOL    HW1 6124   2.710   2.065   1.792
 2036SOL    HW2 6125   2.570   2.145   1.814
 2037SOL     OW 6126   2.750   3.376   1.195
 2037SOL    HW1 6127   2.727   3.351   1.101
 2037SOL    HW2 6128   2.811   3.307   1.234
 2038SOL     OW 6129   3.213   2.452   1.433
 2038SOL    HW1 6130   3.241   2.409   1.518
 2038SOL    HW2 6131   3.238   2.548   1.434
 2039SOL     OW 6132   2.665   3.264   0.924
 2039SOL    HW1 6133   2.755   3.278   0.882
 2039SOL    HW2 6134   2.594   3.266   0.853
 2040SOL     OW 6135   2.784   2.365   0.899
 2040SOL    HW1 6136   2.759   2.356   0.803
 2040SOL    HW2 6137   2.832   2.283   0.930
 2041SOL     OW 6138   2.401   1.926   0.512
 2041SOL    HW1 6139   2.320   1.927   0.570
 2041SOL    HW2 6140   2.404   2.009   0.457
 2042SOL     OW 6141   3.296   3.050   0.041
 2042SOL    HW1 6142   3.328   2.974   0.098
 2042SOL    HW2 6143   3.204   3.077   0.071
 2043SOL     OW 6144   2.797   2.098   0.480
 2043SOL    HW1 6145   2.749   2.139   0.402
 2043SOL    HW2 6146   2.896   2.096   0.461
 2044SOL     OW 6147   2.938   2.545   1.464
 2044SOL    HW1 6148   2.858   2.484   1.467
 2044SOL    HW2 6149   3.019   2.492   1.440
 2045SOL     OW 6150   3.089   3.432   0.793
 2045SOL    HW1 6151   3.110   3.506   0.728
 2045SOL    HW2 6152   3.157   3.432   0.866
 2046SOL     OW 6153   2.321   3.014   0.741
 2046SOL    HW1 6154   2.250   2.987   0.806
 2046SOL    HW2 6155   2.295   2.986   0.648
 2047SOL     OW 6156   3.133   3.659   0.591
 2047SOL    HW1 6157   3.177   3.723   0.527
 2047SOL    HW2 6158   3.083   3.711   0.661
 2048SOL     OW 6159   2.894   2.411   0.016
 2048SOL    HW1 6160   2.853   2.493  -0.023
 2048SOL    HW2 6161   2.958   2.437   0.089
 2049SOL     OW 6162   1.940   2.418   1.386
 2049SOL    HW1 6163   2.032   2.417   1.345
 2049SOL    HW2 6164   1.934   2.492   1.453
 2050SOL     OW 6165   2.423   2.084   1.147
 2050SOL    HW1 6166   2.461   2.000   1.184
 2050SOL    HW2 6167   2.335   2.103   1.191
 2051SOL     OW 6168   2.728   2.316   0.642
 2051SOL    HW1 6169   2.696   2.388   0.580
 2051SOL    HW2 6170   2.752   2.235   0.589
 2052SOL     OW 6171   2.879   1.901   0.753
 2052SOL    HW1 6172   2.807   1.906   0.684
 2052SOL    HW2 6173   2.855   1.832   0.822
 2053SOL     OW 6174   3.291   3.035   0.867
 2053SOL    HW1 6175   3.236   2.951   0.860
 2053SOL    HW2 6176   3.317   3.064   0.775
 2054SOL     OW 6177   3.328   2.452   0.992
 2054SOL    HW1 6178   3.298   2.357   0.999
 2054SOL    HW2 6179   3.401   2.468   1.058
 2055SOL     OW 6180   3.719   2.695   0.377
 2055SOL    HW1 6181   3.761   2.631   0.441
 2055SOL    HW2 6182   3.681   2.644   0.299
 2056SOL     OW 6183   2.350   3.247   0.174
 2056SOL    HW1 6184   2.263   3.232   0.221
 2056SOL    HW2 6185   2.333   3.273   0.079
 2057SOL     OW 6186   3.526   3.142   0.657
 2057SOL    HW1 6187   3.625   3.150   0.671
 2057SOL    HW2 6188   3.481   3.226   0.688
 2058SOL     OW 6189   3.252   2.437   0.078
 2058SOL    HW1 6190   3.198   2.416   0.159
 2058SOL    HW2 6191   3.343   2.396   0.087
 2059SOL     OW 6192   2.389   2.118   0.328
 2059SOL    HW1 6193   2.416   2.059   0.253
 2059SOL    HW2 6194   2.389   2.213   0.297
 2060SOL     OW 6195   3.616   3.085   1.588
 2060SOL    HW1 6196   3.707   3.046   1.575
 2060SOL    HW2 6197   3.624   3.181   1.612
 2061SOL     OW 6198   2.926   3.209   1.340
 2061SOL    HW1 6199   2.846   3.186   1.395
 2061SOL    HW2 6200   3.009   3.183   1.389
 2062SOL     OW 6201   3.454   3.491   1.625
 2062SOL    HW1 6202   3.481   3.525   1.535
 2062SOL    HW2 6203   3.533   3.453   1.671
 2063SOL     OW 6204   2.973   3.057   1.100
 2063SOL    HW1 6205   2.933   3.101   1.181
 2063SOL    HW2 6206   2.932   3.094   1.017
 2064SOL     OW 6207   3.500   2.961   1.079
 2064SOL    HW1 6208   3.505   3.042   1.138
 2064SOL    HW2 6209   3.414   2.963   1.028
 2065SOL     OW 6210   2.777   1.951   1.402
 2065SOL    HW1 6211   2.802   1.931   1.307
 2065SOL    HW2 6212   2.849   2.007   1.444
 2066SOL     OW 6213   2.842   2.978   1.719
 2066SOL    HW1 6214   2.743   2.984   1.729
 2066SOL    HW2 6215   2.865   2.898   1.663
 2067SOL     OW 6216   2.567   2.912   0.368
 2067SOL    HW1 6217   2.553   2.919   0.467
 2067SOL    HW2 6218   2.651   2.861   0.350
 2068SOL     OW 6219   2.272   2.675   1.251
 2068SOL    HW1 6220   2.358   2.687   1.301
 2068SOL    HW2 6221   2.230   2.588   1.278
 2069SOL     OW 6222   3.136   2.248   1.262
 2069SOL    HW1 6223   3.157   2.322   1.326
 2069SOL    HW2 6224   3.047   2.265   1.219
 2070SOL     OW 6225   1.926   3.426   1.331
 2070SOL    HW1 6226   1.880   3.508   1.297
 2070SOL    HW2 6227   2.024   3.445   1.340
 2071SOL     OW 6228   2.229   2.962   0.501
 2071SOL    HW1 6229   2.222   3.045   0.445
 2071SOL    HW2 6230   2.233   2.882   0.441
 2072SOL     OW 6231   2.428   2.399   0.865
 2072SOL    HW1 6232   2.440   2.465   0.791
 2072SOL    HW2 6233   2.474   2.433   0.948
 2073SOL     OW 6234   3.114   3.210   0.388
 2073SOL    HW1 6235   3.164   3.287   0.428
 2073SOL    HW2 6236   3.019   3.212   0.420
 2074SOL     OW 6237   3.134   3.307   1.142
 2074SOL    HW1 6238   3.181   3.320   1.229
 2074SOL    HW2 6239   3.068   3.233   1.151
 2075SOL     OW 6240   3.444   2.501   0.472
 2075SOL    HW1 6241   3.413   2.562   0.545
 2075SOL    HW2 6242   3.494   2.553   0.403
 2076SOL     OW 6243   2.216   3.372   1.329
 2076SOL    HW1 6244   2.195   3.328   1.242
 2076SOL    HW2 6245   2.313   3.398   1.332
 2077SOL     OW 6246   2.264   2.613   1.598
 2077SOL    HW1 6247   2.332   2.668   1.551
 2077SOL    HW2 6248   2.304   2.525   1.625
 2078SOL     OW 6249   3.449   2.641   1.670
 2078SOL    HW1 6250   3.357   2.679   1.665
 2078SOL    HW2 6251   3.509   2.688   1.605
 2079SOL     OW 6252   2.875   1.967   1.770
 2079SOL    HW1 6253   2.881   2.052   1.718
 2079SOL    HW2 6254   2.907   1.891   1.713
 2080SOL     OW 6255   2.366   1.912   1.740
 2080SOL    HW1 6256   2.324   1.855   1.670
 2080SOL    HW2 6257   2.300   1.981   1.772
 2081SOL     OW 6258   2.435   2.732   1.029
 2081SOL    HW1 6259   2.479   2.821   1.020
 2081SOL    HW2 6260   2.372   2.732   1.106
 2082SOL     OW 6261   3.222   2.724   1.045
 2082SOL    HW1 6262   3.147   2.724   0.979
 2082SOL    HW2 6263   3.259   2.632   1.054
 2083SOL     OW 6264   3.071   2.387   0.275
 2083SOL    HW1 6265   3.084   2.303   0.329
 2083SOL    HW2 6266   3.042   2.461   0.335
 2084SOL     OW 6267   2.169   2.075   1.231
 2084SOL    HW1 6268   2.146   2.112   1.321
 2084SOL    HW2 6269   2.139   1.980   1.225
 2085SOL     OW 6270   1.899   3.172   1.282
 2085SOL    HW1 6271   1.952   3.123   1.350
 2085SOL    HW2 6272   1.921   3.270   1.287
 2086SOL     OW 6273   2.594   2.496   1.064
 2086SOL    HW1 6274   2.653   2.470   0.988
 2086SOL    HW2 6275   2.566   2.592   1.053
 2087SOL     OW 6276   3.590   2.797   1.854
 2087SOL    HW1 6277   3.544   2.790   1.765
 2087SOL    HW2 6278   3.528   2.841   1.920
 2088SOL     OW 6279   2.169   1.925   0.618
 2088SOL    HW1 6280   2.158   2.019   0.651
 2088SOL    HW2 6281   2.164   1.862   0.695
 2089SOL     OW 6282   3.484   2.229   0.374
 2089SOL    HW1 6283   3.486   2.153   0.438
 2089SOL    HW2 6284   3.436   2.306   0.414
 2090SOL     OW 6285   2.885   2.628   0.966
 2090SOL    HW1 6286   2.900   2.649   1.062
 2090SOL    HW2 6287   2.855   2.533   0.957
 2091SOL     OW 6288   2.842   3.435   1.700
 2091SOL    HW1 6289   2.822   3.479   1.612
 2091SOL    HW2 6290   2.881   3.344   1.684
 2092SOL     OW 6291   3.721   3.380   1.605
 2092SOL    HW1 6292   3.735   3.407   1.510
 2092SOL    HW2 6293   3.804   3.402   1.658
 2093SOL     OW 6294   2.212   2.760   1.804
 2093SOL    HW1 6295   2.288   2.804   1.852
 2093SOL    HW2 6296   2.247   2.713   1.722
 2094SOL     OW 6297   3.402   2.136   0.125
 2094SOL    HW1 6298   3.341   2.061   0.148
 2094SOL    HW2 6299   3.424   2.188   0.208
 2095SOL     OW 6300   3.165   2.700   0.042
 2095SOL    HW1 6301   3.199   2.607   0.057
 2095SOL    HW2 6302   3.183   2.727  -0.053
 2096SOL     OW 6303   2.930   3.195   0.849
 2096SOL    HW1 6304   2.937   3.111   0.794
 2096SOL    HW2 6305   2.992   3.264   0.813
 2097SOL     OW 6306   2.181   2.672   0.949
 2097SOL    HW1 6307   2.274   2.708   0.954
 2097SOL    HW2 6308   2.175   2.587   1.001
 2098SOL     OW 6309   2.201   2.371   1.006
 2098SOL    HW1 6310   2.149   2.288   0.989
 2098SOL    HW2 6311   2.278   2.376   0.942
 2099SOL     OW 6312   3.000   2.242   1.678
 2099SOL    HW1 6313   2.955   2.305   1.742
 2099SOL    HW2 6314   3.093   2.273   1.661
 2100SOL     OW 6315   3.022   2.069   1.477
 2100SOL    HW1 6316   3.022   2.133   1.554
 2100SOL    HW2 6317   3.050   2.117   1.394
 2101SOL     OW 6318   1.870   3.188   0.200
 2101SOL    HW1 6319   1.777   3.209   0.169
 2101SOL    HW2 6320   1.880   3.089   0.213
 2102SOL     OW 6321   1.950   3.663   0.927
 2102SOL    HW1 6322   1.908   3.577   0.900
 2102SOL    HW2 6323   2.044   3.666   0.893
 2103SOL     OW 6324   2.366   3.430   0.910
 2103SOL    HW1 6325   2.432   3.504   0.919
 2103SOL    HW2 6326   2.410   3.351   0.868
 2104SOL     OW 6327   2.864   2.658   1.238
 2104SOL    HW1 6328   2.905   2.626   1.324
 2104SOL    HW2 6329   2.768   2.631   1.235
 2105SOL     OW 6330   1.902   2.406   1.114
 2105SOL    HW1 6331   1.987   2.373   1.073
 2105SOL    HW2 6332   1.915   2.421   1.212
 2106SOL     OW 6333   2.051   2.382   1.722
 2106SOL    HW1 6334   2.110   2.342   1.652
 2106SOL    HW2 6335   1.993   2.453   1.681
 2107SOL     OW 6336   3.231   2.812   1.660
 2107SOL    HW1 6337   3.270   2.901   1.680
 2107SOL    HW2 6338   3.241   2.792   1.563
 2108SOL     OW 6339   2.677   2.434   0.325
 2108SOL    HW1 6340   2.684   2.345   0.279
 2108SOL    HW2 6341   2.583   2.468   0.317
 2109SOL     OW 6342   3.519   2.466   1.206
 2109SOL    HW1 6343   3.481   2.397   1.268
 2109SOL    HW2 6344   3.601   2.430   1.162
 2110SOL     OW 6345   2.114   3.426   1.744
 2110SOL    HW1 6346   2.084   3.483   1.820
 2110SOL    HW2 6347   2.107   3.329   1.770
 2111SOL     OW 6348   2.533   2.326   1.269
 2111SOL    HW1 6349   2.499   2.237   1.239
 2111SOL    HW2 6350   2.559   2.380   1.189
 2112SOL     OW 6351   2.792   3.540   1.465
 2112SOL    HW1 6352   2.768   3.522   1.370
 2112SOL    HW2 6353   2.822   3.634   1.475
 2113SOL     OW 6354   2.335   2.362   0.191
 2113SOL    HW1 6355   2.396   2.442   0.195
 2113SOL    HW2 6356   2.240   2.393   0.198
 2114SOL     OW 6357   2.021   2.999   1.466
 2114SOL    HW1 6358   2.043   2.938   1.542
 2114SOL    HW2 6359   2.031   2.950   1.380
 2115SOL     OW 6360   3.209   2.921   1.234
 2115SOL    HW1 6361   3.233   2.858   1.160
 2115SOL    HW2 6362   3.119   2.961   1.216
 2116SOL     OW 6363   3.164   2.717   0.309
 2116SOL    HW1 6364   3.078   2.686   0.351
 2116SOL    HW2 6365   3.160   2.703   0.210
 2117SOL     OW 6366   3.621   3.609   1.154
 2117SOL    HW1 6367   3.682   3.639   1.081
 2117SOL    HW2 6368   3.583   3.520   1.132
 2118SOL     OW 6369   3.114   3.593   1.128
 2118SOL    HW1 6370   3.198   3.598   1.074
 2118SOL    HW2 6371   3.091   3.497   1.146
 2119SOL     OW 6372   1.945   3.120   1.022
 2119SOL    HW1 6373   1.940   3.119   1.122
 2119SOL    HW2 6374   1.862   3.079   0.984
 2120SOL     OW 6375   2.550   3.524   1.716
 2120SOL    HW1 6376   2.494   3.605   1.725
 2120SOL    HW2 6377   2.602   3.528   1.630
 2121SOL     OW 6378   2.765   1.948   0.133
 2121SOL    HW1 6379   2.816   1.949   0.047
 2121SOL    HW2 6380   2.821   1.906   0.204
 2122SOL     OW 6381   3.588   1.997   0.523
 2122SOL    HW1 6382   3.661   1.980   0.456
 2122SOL    HW2 6383   3.557   1.910   0.561
 2123SOL     OW 6384   3.250   3.435   0.477
 2123SOL    HW1 6385   3.317   3.447   0.403
 2123SOL    HW2 6386   3.210   3.524   0.500
 2124SOL     OW 6387   1.992   3.656   1.851
 2124SOL    HW1 6388   1.951   3.582   1.904
 2124SOL    HW2 6389   2.056   3.707   1.909
 2125SOL     OW 6390   3.142   2.789   0.672
 2125SOL    HW1 6391   3.202   2.708   0.674
 2125SOL    HW2 6392   3.182   2.858   0.612
 2126SOL     OW 6393   2.692   3.135   1.422
 2126SOL    HW1 6394   2.687   3.168   1.517
 2126SOL    HW2 6395   2.606   3.154   1.376
 2127SOL     OW 6396   2.534   3.478   0.154
 2127SOL    HW1 6397   2.543   3.488   0.055
 2127SOL    HW2 6398   2.494   3.389   0.175
 2128SOL     OW 6399   3.512   3.582   1.394
 2128SOL    HW1 6400   3.565   3.592   1.310
 2128SOL    HW2 6401   3.485   3.672   1.428
 2129SOL     OW 6402   3.703   2.037   0.963
 2129SOL    HW1 6403   3.742   1.952   0.927
 2129SOL    HW2 6404   3.605   2.039   0.944
 2130SOL     OW 6405   2.125   2.188   0.720
 2130SOL    HW1 6406   2.046   2.239   0.686
 2130SOL    HW2 6407   2.116   2.173   0.818
 2131SOL     OW 6408   3.056   3.474   0.031
 2131SOL    HW1 6409   3.062   3.381   0.068
 2131SOL    HW2 6410   2.997   3.474  -0.049
 2132SOL     OW 6411   2.684   2.864   1.372
 2132SOL    HW1 6412   2.724   2.863   1.280
 2132SOL    HW2 6413   2.694   2.956   1.412
 2133SOL     OW 6414   2.778   2.772   0.291
 2133SOL    HW1 6415   2.841   2.810   0.223
 2133SOL    HW2 6416   2.818   2.689   0.330
 2134SOL     OW 6417   3.366   3.469   0.044
 2134SOL    HW1 6418   3.274   3.506   0.051
 2134SOL    HW2 6419   3.404   3.489  -0.046
 2135SOL     OW 6420   2.234   3.150   1.490
 2135SOL    HW1 6421   2.221   3.243   1.456
 2135SOL    HW2 6422   2.150   3.098   1.477
 2136SOL     OW 6423   3.476   3.154   1.289
 2136SOL    HW1 6424   3.536   3.157   1.369
 2136SOL    HW2 6425   3.401   3.218   1.302
 2137SOL     OW 6426   2.901   2.960   0.696
 2137SOL    HW1 6427   2.831   2.913   0.750
 2137SOL    HW2 6428   2.960   2.892   0.653
 2138SOL     OW 6429   2.876   2.098   0.971
 2138SOL    HW1 6430   2.868   2.062   0.878
 2138SOL    HW2 6431   2.874   2.022   1.036
 2139SOL     OW 6432   2.452   3.349   0.491
 2139SOL    HW1 6433   2.494   3.291   0.421
 2139SOL    HW2 6434   2.408   3.428   0.447
 2140SOL     OW 6435   3.571   2.247   1.381
 2140SOL    HW1 6436   3.644   2.316   1.385
 2140SOL    HW2 6437   3.599   2.172   1.322
 2141SOL     OW 6438   2.117   3.210   0.290
 2141SOL    HW1 6439   2.021   3.211   0.263
 2141SOL    HW2 6440   2.129   3.263   0.374
 2142SOL     OW 6441   1.967   2.875   1.726
 2142SOL    HW1 6442   1.890   2.842   1.780
 2142SOL    HW2 6443   2.052   2.845   1.768
 2143SOL     OW 6444   2.534   2.065   1.489
 2143SOL    HW1 6445   2.624   2.049   1.449
 2143SOL    HW2 6446   2.542   2.070   1.588
 2144SOL     OW 6447   1.937   2.207   0.033
 2144SOL    HW1 6448   1.845   2.179   0.004
 2144SOL    HW2 6449   1.968   2.284  -0.023
 2145SOL     OW 6450   3.302   2.718   1.398
 2145SOL    HW1 6451   3.245   2.770   1.335
 2145SOL    HW2 6452   3.398   2.730   1.374
 2146SOL     OW 6453   1.934   2.028   0.318
 2146SOL    HW1 6454   1.917   2.111   0.264
 2146SOL    HW2 6455   2.024   1.991   0.296
 2147SOL     OW 6456   3.045   3.197   0.119
 2147SOL    HW1 6457   2.946   3.186   0.121
 2147SOL    HW2 6458   3.079   3.212   0.212
 2148SOL     OW 6459   2.475   2.704   1.431
 2148SOL    HW1 6460   2.531   2.785   1.414
 2148SOL    HW2 6461   2.534   2.624   1.434
 2149SOL     OW 6462   3.355   3.629   0.959
 2149SOL    HW1 6463   3.388   3.693   0.890
 2149SOL    HW2 6464   3.421   3.623   1.034
 2150SOL     OW 6465   2.578   2.427   1.708
 2150SOL    HW1 6466   2.597   2.492   1.782
 2150SOL    HW2 6467   2.638   2.347   1.717
 2151SOL     OW 6468   3.312   3.082   1.633
 2151SOL    HW1 6469   3.303   3.072   1.732
 2151SOL    HW2 6470   3.408   3.075   1.607
 2152SOL     OW 6471   2.252   3.603   1.560
 2152SOL    HW1 6472   2.161   3.644   1.558
 2152SOL    HW2 6473   2.245   3.509   1.592
 2153SOL     OW 6474   3.536   2.745   1.254
 2153SOL    HW1 6475   3.509   2.656   1.217
 2153SOL    HW2 6476   3.537   2.813   1.181
 2154SOL     OW 6477   3.087   2.187   0.449
 2154SOL    HW1 6478   3.152   2.113   0.438
 2154SOL    HW2 6479   3.107   2.237   0.533
 2155SOL     OW 6480   2.456   2.607   0.652
 2155SOL    HW1 6481   2.506   2.692   0.633
 2155SOL    HW2 6482   2.368   2.609   0.604
 2156SOL     OW 6483   3.639   2.204   1.642
 2156SOL    HW1 6484   3.622   2.235   1.548
 2156SOL    HW2 6485   3.555   2.167   1.680
 2157SOL     OW 6486   3.592   2.796   1.517
 2157SOL    HW1 6487   3.630   2.887   1.532
 2157SOL    HW2 6488   3.584   2.779   1.418
 2158SOL     OW 6489   2.721   3.236   0.016
 2158SOL    HW1 6490   2.675   3.251   0.104
 2158SOL    HW2 6491   2.765   3.321  -0.014
 2159SOL     OW 6492   2.523   3.652   0.953
 2159SOL    HW1 6493   2.477   3.740   0.940
 2159SOL    HW2 6494   2.622   3.664   0.946
 2160SOL     OW 6495   2.721   2.818   0.861
 2160SOL    HW1 6496   2.775   2.749   0.909
 2160SOL    HW2 6497   2.689   2.887   0.927
 2161SOL     OW 6498   2.945   2.846   0.087
 2161SOL    HW1 6499   2.922   2.899   0.005
 2161SOL    HW2 6500   3.026   2.790   0.068
 2162SOL     OW 6501   3.723   3.431   0.851
 2162SOL    HW1 6502   3.652   3.419   0.781
 2162SOL    HW2 6503   3.724   3.352   0.911
 2163SOL     OW 6504   2.083   3.176   1.844
 2163SOL    HW1 6505   2.018   3.103   1.823
 2163SOL    HW2 6506   2.087   3.190   1.942
 2164SOL     OW 6507   1.941   3.102   0.653
 2164SOL    HW1 6508   1.940   3.055   0.741
 2164SOL    HW2 6509   2.023   3.074   0.602
 2165SOL     OW 6510   2.534   3.253   1.624
 2165SOL    HW1 6511   2.456   3.203   1.662
 2165SOL    HW2 6512   2.531   3.348   1.655
 2166SOL     OW 6513   3.686   2.054   1.227
 2166SOL    HW1 6514   3.682   1.964   1.271
 2166SOL    HW2 6515   3.689   2.043   1.128
 2167SOL     OW 6516   2.290   2.286   0.520
 2167SOL    HW1 6517   2.320   2.214   0.458
 2167SOL    HW2 6518   2.251   2.246   0.603
 2168SOL     OW 6519   3.567   3.349   1.104
 2168SOL    HW1 6520   3.474   3.324   1.077
 2168SOL    HW2 6521   3.593   3.299   1.186
 2169SOL     OW 6522   2.179   2.409   1.280
 2169SOL    HW1 6523   2.217   2.350   1.352
 2169SOL    HW2 6524   2.219   2.383   1.192
 2170SOL     OW 6525   2.674   3.448   0.687
 2170SOL    HW1 6526   2.706   3.458   0.593
 2170SOL    HW2 6527   2.595   3.386   0.689
 2171SOL     OW 6528   3.286   2.076   1.112
 2171SOL    HW1 6529   3.338   2.011   1.167
 2171SOL    HW2 6530   3.237   2.139   1.173
 2172SOL     OW 6531   2.863   1.896   1.154
 2172SOL    HW1 6532   2.800   1.824   1.123
 2172SOL    HW2 6533   2.956   1.860   1.154
 2173SOL     OW 6534   2.632   3.192   0.301
 2173SOL    HW1 6535   2.586   3.105   0.318
 2173SOL    HW2 6536   2.723   3.189   0.342
 2174SOL     OW 6537   2.480   3.429   1.284
 2174SOL    HW1 6538   2.475   3.511   1.341
 2174SOL    HW2 6539   2.569   3.426   1.239
 2175SOL     OW 6540   3.214   1.914   0.168
 2175SOL    HW1 6541   3.249   1.873   0.084
 2175SOL    HW2 6542   3.124   1.876   0.188
 2176SOL     OW 6543   3.162   2.315   0.691
 2176SOL    HW1 6544   3.103   2.395   0.695
 2176SOL    HW2 6545   3.177   2.280   0.784
 2177SOL     OW 6546   3.455   2.083   0.882
 2177SOL    HW1 6547   3.371   2.082   0.936
 2177SOL    HW2 6548   3.457   2.166   0.826
 2178SOL     OW 6549   1.901   2.939   0.300
 2178SOL    HW1 6550   2.000   2.928   0.291
 2178SOL    HW2 6551   1.861   2.853   0.332
 2179SOL     OW 6552   2.737   3.508   0.337
 2179SOL    HW1 6553   2.660   3.473   0.283
 2179SOL    HW2 6554   2.705   3.579   0.399
 2180SOL     OW 6555   2.092   2.490   1.975
 2180SOL    HW1 6556   1.999   2.488   2.012
 2180SOL    HW2 6557   2.093   2.451   1.883
 2181SOL     OW 6558   2.087   2.137   2.858
 2181SOL    HW1 6559   2.122   2.120   2.950
 2181SOL    HW2 6560   1.999   2.092   2.846
 2182SOL     OW 6561   1.881   2.230   2.509
 2182SOL    HW1 6562   1.799   2.273   2.548
 2182SOL    HW2 6563   1.853   2.157   2.446
 2183SOL     OW 6564   2.431   3.137   3.027
 2183SOL    HW1 6565   2.338   3.130   2.990
 2183SOL    HW2 6566   2.442   3.226   3.071
 2184SOL     OW 6567   3.417   3.373   2.565
 2184SOL    HW1 6568   3.360   3.357   2.646
 2184SOL    HW2 6569   3.358   3.383   2.485
 2185SOL     OW 6570   2.997   2.565   2.579
 2185SOL    HW1 6571   3.054   2.643   2.554
 2185SOL    HW2 6572   2.937   2.591   2.655
 2186SOL     OW 6573   3.617   2.469   2.093
 2186SOL    HW1 6574   3.605   2.456   1.994
 2186SOL    HW2 6575   3.587   2.388   2.142
 2187SOL     OW 6576   2.630   3.006   2.885
 2187SOL    HW1 6577   2.552   3.023   2.945
 2187SOL    HW2 6578   2.664   3.093   2.849
 2188SOL     OW 6579   2.712   2.660   3.685
 2188SOL    HW1 6580   2.708   2.736   3.750
 2188SOL    HW2 6581   2.734   2.696   3.594
 2189SOL     OW 6582   2.547   2.874   2.527
 2189SOL    HW1 6583   2.616   2.858   2.597
 2189SOL    HW2 6584   2.474   2.931   2.565
 2190SOL     OW 6585   2.548   3.023   3.665
 2190SOL    HW1 6586   2.608   3.102   3.679
 2190SOL    HW2 6587   2.462   3.054   3.624
 2191SOL     OW 6588   2.197   3.297   2.923
 2191SOL    HW1 6589   2.119   3.266   2.870
 2191SOL    HW2 6590   2.255   3.355   2.866
 2192SOL     OW 6591   3.322   3.367   3.201
 2192SOL    HW1 6592   3.346   3.461   3.227
 2192SOL    HW2 6593   3.306   3.313   3.283
 2193SOL     OW 6594   2.300   2.254   3.361
 2193SOL    HW1 6595   2.382   2.198   3.370
 2193SOL    HW2 6596   2.219   2.196   3.365
 2194SOL     OW 6597   3.465   2.309   2.599
 2194SOL    HW1 6598   3.391   2.355   2.549
 2194SOL    HW2 6599   3.516   2.377   2.652
 2195SOL     OW 6600   2.093   3.575   2.345
 2195SOL    HW1 6601   2.127   3.652   2.399
 2195SOL    HW2 6602   2.137   3.575   2.255
 2196SOL     OW 6603   2.989   3.203   3.552
 2196SOL    HW1 6604   3.036   3.203   3.640
 2196SOL    HW2 6605   2.941   3.116   3.541
 2197SOL     OW 6606   2.092   3.296   2.400
 2197SOL    HW1 6607   2.066   3.392   2.400
 2197SOL    HW2 6608   2.021   3.242   2.445
 2198SOL     OW 6609   2.102   2.953   2.748
 2198SOL    HW1 6610   2.116   2.869   2.800
 2198SOL    HW2 6611   2.047   3.017   2.803
 2199SOL     OW 6612   2.482   3.648   3.301
 2199SOL    HW1 6613   2.390   3.631   3.336
 2199SOL    HW2 6614   2.510   3.740   3.327
 2200SOL     OW 6615   2.468   2.826   1.985
 2200SOL    HW1 6616   2.475   2.910   1.931
 2200SOL    HW2 6617   2.514   2.839   2.073
 2201SOL     OW 6618   3.456   1.976   3.342
 2201SOL    HW1 6619   3.438   2.043   3.270
 2201SOL    HW2 6620   3.453   2.022   3.431
 2202SOL     OW 6621   1.984   2.505   2.425
 2202SOL    HW1 6622   1.939   2.417   2.442
 2202SOL    HW2 6623   1.983   2.559   2.509
 2203SOL     OW 6624   3.704   3.629   2.221
 2203SOL    HW1 6625   3.758   3.600   2.301
 2203SOL    HW2 6626   3.734   3.719   2.192
 2204SOL     OW 6627   1.889   3.458   1.979
 2204SOL    HW1 6628   1.870   3.362   2.000
 2204SOL    HW2 6629   1.856   3.516   2.054
 2205SOL     OW 6630   3.551   2.784   2.474
 2205SOL    HW1 6631   3.646   2.755   2.482
 2205SOL    HW2 6632   3.543   2.849   2.399
 2206SOL     OW 6633   3.503   2.970   2.294
 2206SOL    HW1 6634   3.589   2.972   2.242
 2206SOL    HW2 6635   3.517   3.017   2.382
 2207SOL     OW 6636   1.975   2.599   3.459
 2207SOL    HW1 6637   2.063   2.586   3.504
 2207SOL    HW2 6638   1.962   2.696   3.437
 2208SOL     OW 6639   2.475   3.227   2.588
 2208SOL    HW1 6640   2.426   3.140   2.597
 2208SOL    HW2 6641   2.452   3.270   2.501
 2209SOL     OW 6642   3.155   3.090   3.285
 2209SOL    HW1 6643   3.192   3.017   3.227
 2209SOL    HW2 6644   3.207   3.095   3.370
 2210SOL     OW 6645   2.671   1.866   2.364
 2210SOL    HW1 6646   2.711   1.957   2.355
 2210SOL    HW2 6647   2.571   1.874   2.370
 2211SOL     OW 6648   2.059   2.838   3.126
 2211SOL    HW1 6649   2.148   2.793   3.112
 2211SOL    HW2 6650   1.986   2.773   3.107
 2212SOL     OW 6651   3.387   2.861   2.052
 2212SOL    HW1 6652   3.324   2.785   2.065
 2212SOL    HW2 6653   3.435   2.879   2.138
 2213SOL     OW 6654   3.049   3.654   3.478
 2213SOL    HW1 6655   3.073   3.714   3.402
 2213SOL    HW2 6656   3.056   3.559   3.448
 2214SOL     OW 6657   2.179   2.113   3.663
 2214SOL    HW1 6658   2.250   2.184   3.669
 2214SOL    HW2 6659   2.091   2.152   3.691
 2215SOL     OW 6660   3.328   3.279   2.815
 2215SOL    HW1 6661   3.269   3.285   2.895
 2215SOL    HW2 6662   3.313   3.191   2.769
 2216SOL     OW 6663   3.529   3.576   2.434
 2216SOL    HW1 6664   3.488   3.553   2.346
 2216SOL    HW2 6665   3.511   3.502   2.499
 2217SOL     OW 6666   3.143   2.207   2.806
 2217SOL    HW1 6667   3.057   2.157   2.793
 2217SOL    HW2 6668   3.205   2.153   2.862
 2218SOL     OW 6669   3.438   3.524   2.169
 2218SOL    HW1 6670   3.527   3.570   2.172
 2218SOL    HW2 6671   3.417   3.500   2.074
 2219SOL     OW 6672   2.669   2.467   3.327
 2219SOL    HW1 6673   2.622   2.464   3.416
 2219SOL    HW2 6674   2.618   2.412   3.261
 2220SOL     OW 6675   3.256   2.331   3.536
 2220SOL    HW1 6676   3.236   2.374   3.624
 2220SOL    HW2 6677   3.334   2.269   3.545
 2221SOL     OW 6678   2.835   2.752   3.434
 2221SOL    HW1 6679   2.881   2.668   3.405
 2221SOL    HW2 6680   2.779   2.786   3.359
 2222SOL     OW 6681   2.853   2.272   3.104
 2222SOL    HW1 6682   2.776   2.306   3.158
 2222SOL    HW2 6683   2.819   2.221   3.025
 2223SOL     OW 6684   2.903   2.563   2.291
 2223SOL    HW1 6685   2.929   2.559   2.387
 2223SOL    HW2 6686   2.818   2.512   2.277
 2224SOL     OW 6687   1.938   2.673   2.651
 2224SOL    HW1 6688   2.037   2.661   2.660
 2224SOL    HW2 6689   1.914   2.768   2.672
 2225SOL     OW 6690   1.992   3.683   3.433
 2225SOL    HW1 6691   1.982   3.668   3.532
 2225SOL    HW2 6692   1.906   3.719   3.397
 2226SOL     OW 6693   2.727   2.210   2.057
 2226SOL    HW1 6694   2.786   2.273   2.008
 2226SOL    HW2 6695   2.746   2.116   2.028
 2227SOL     OW 6696   3.581   2.447   3.693
 2227SOL    HW1 6697   3.555   2.536   3.657
 2227SOL    HW2 6698   3.579   2.379   3.620
 2228SOL     OW 6699   3.224   3.006   2.407
 2228SOL    HW1 6700   3.307   2.977   2.359
 2228SOL    HW2 6701   3.175   3.073   2.351
 2229SOL     OW 6702   2.870   3.318   2.339
 2229SOL    HW1 6703   2.824   3.390   2.287
 2229SOL    HW2 6704   2.866   3.338   2.437
 2230SOL     OW 6705   2.213   3.663   2.715
 2230SOL    HW1 6706   2.263   3.577   2.721
 2230SOL    HW2 6707   2.278   3.740   2.712
 2231SOL     OW 6708   3.657   2.928   2.735
 2231SOL    HW1 6709   3.595   2.913   2.659
 2231SOL    HW2 6710   3.605   2.939   2.820
 2232SOL     OW 6711   3.089   3.412   3.368
 2232SOL    HW1 6712   3.095   3.335   3.432
 2232SOL    HW2 6713   3.037   3.386   3.288
 2233SOL     OW 6714   2.183   2.805   2.104
 2233SOL    HW1 6715   2.265   2.844   2.062
 2233SOL    HW2 6716   2.156   2.723   2.055
 2234SOL     OW 6717   3.320   2.597   2.590
 2234SOL    HW1 6718   3.315   2.532   2.665
 2234SOL    HW2 6719   3.400   2.656   2.603
 2235SOL     OW 6720   2.323   3.128   3.589
 2235SOL    HW1 6721   2.273   3.129   3.503
 2235SOL    HW2 6722   2.260   3.110   3.665
 2236SOL     OW 6723   2.973   3.638   2.099
 2236SOL    HW1 6724   2.913   3.576   2.149
 2236SOL    HW2 6725   3.004   3.594   2.014
 2237SOL     OW 6726   2.064   2.147   3.360
 2237SOL    HW1 6727   1.984   2.207   3.347
 2237SOL    HW2 6728   2.054   2.098   3.446
 2238SOL     OW 6729   3.494   3.239   1.943
 2238SOL    HW1 6730   3.462   3.333   1.933
 2238SOL    HW2 6731   3.418   3.176   1.931
 2239SOL     OW 6732   2.326   3.605   2.185
 2239SOL    HW1 6733   2.359   3.644   2.271
 2239SOL    HW2 6734   2.402   3.598   2.120
 2240SOL     OW 6735   3.262   1.969   2.288
 2240SOL    HW1 6736   3.238   1.932   2.198
 2240SOL    HW2 6737   3.361   1.985   2.292
 2241SOL     OW 6738   2.111   3.647   3.103
 2241SOL    HW1 6739   2.168   3.582   3.153
 2241SOL    HW2 6740   2.095   3.614   3.010
 2242SOL     OW 6741   2.802   3.560   2.766
 2242SOL    HW1 6742   2.882   3.503   2.787
 2242SOL    HW2 6743   2.753   3.520   2.689
 2243SOL     OW 6744   3.409   2.084   3.591
 2243SOL    HW1 6745   3.404   2.121   3.683
 2243SOL    HW2 6746   3.337   2.015   3.579
 2244SOL     OW 6747   2.476   1.984   1.979
 2244SOL    HW1 6748   2.574   1.962   1.986
 2244SOL    HW2 6749   2.445   1.967   1.886
 2245SOL     OW 6750   2.643   2.126   3.611
 2245SOL    HW1 6751   2.710   2.065   3.654
 2245SOL    HW2 6752   2.570   2.145   3.676
 2246SOL     OW 6753   2.750   3.376   3.057
 2246SOL    HW1 6754   2.727   3.351   2.963
 2246SOL    HW2 6755   2.811   3.307   3.096
 2247SOL     OW 6756   3.213   2.452   3.295
 2247SOL    HW1 6757   3.241   2.409   3.380
 2247SOL    HW2 6758   3.238   2.548   3.296
 2248SOL     OW 6759   2.665   3.264   2.786
 2248SOL    HW1 6760   2.755   3.278   2.744
 2248SOL    HW2 6761   2.594   3.266   2.715
 2249SOL     OW 6762   2.784   2.365   2.761
 2249SOL    HW1 6763   2.759   2.356   2.665
 2249SOL    HW2 6764   2.832   2.283   2.792
 2250SOL     OW 6765   2.401   1.926   2.374
 2250SOL    HW1 6766   2.320   1.927   2.432
 2250SOL    HW2 6767   2.404   2.009   2.319
 2251SOL     OW 6768   3.296   3.050   1.903
 2251SOL    HW1 6769   3.328   2.974   1.960
 2251SOL    HW2 6770   3.204   3.077   1.933
 2252SOL     OW 6771   2.159   1.897   2.033
 2252SOL    HW1 6772   2.208   1.981   2.012
 2252SOL    HW2 6773   2.221   1.832   2.078
 2253SOL     OW 6774   2.797   2.098   2.342
 2253SOL    HW1 6775   2.749   2.139   2.264
 2253SOL    HW2 6776   2.896   2.096   2.323
 2254SOL     OW 6777   2.938   2.545   3.326
 2254SOL    HW1 6778   2.858   2.484   3.329
 2254SOL    HW2 6779   3.019   2.492   3.302
 2255SOL     OW 6780   3.089   3.432   2.655
 2255SOL    HW1 6781   3.110   3.506   2.590
 2255SOL    HW2 6782   3.157   3.432   2.728
 2256SOL     OW 6783   2.321   3.014   2.603
 2256SOL    HW1 6784   2.250   2.987   2.668
 2256SOL    HW2 6785   2.295   2.986   2.510
 2257SOL     OW 6786   3.133   3.659   2.453
 2257SOL    HW1 6787   3.177   3.723   2.389
 2257SOL    HW2 6788   3.083   3.711   2.523
 2258SOL     OW 6789   2.894   2.411   1.878
 2258SOL    HW1 6790   2.853   2.493   1.839
 2258SOL    HW2 6791   2.958   2.437   1.951
 2259SOL     OW 6792   1.940   2.418   3.248
 2259SOL    HW1 6793   2.032   2.417   3.207
 2259SOL    HW2 6794   1.934   2.492   3.315
 2260SOL     OW 6795   2.423   2.084   3.009
 2260SOL    HW1 6796   2.461   2.000   3.046
 2260SOL    HW2 6797   2.335   2.103   3.053
 2261SOL     OW 6798   2.728   2.316   2.504
 2261SOL    HW1 6799   2.696   2.388   2.442
 2261SOL    HW2 6800   2.752   2.235   2.451
 2262SOL     OW 6801   2.879   1.901   2.615
 2262SOL    HW1 6802   2.807   1.906   2.546
 2262SOL    HW2 6803   2.855   1.832   2.684
 2263SOL     OW 6804   3.291   3.035   2.729
 2263SOL    HW1 6805   3.236   2.951   2.722
 2263SOL    HW2 6806   3.317   3.064   2.637
 2264SOL     OW 6807   3.328   2.452   2.854
 2264SOL    HW1 6808   3.298   2.357   2.861
 2264SOL    HW2 6809   3.401   2.468   2.920
 2265SOL     OW 6810   3.719   2.695   2.239
 2265SOL    HW1 6811   3.761   2.631   2.303
 2265SOL    HW2 6812   3.681   2.644   2.161
 2266SOL     OW 6813   2.350   3.247   2.036
 2266SOL    HW1 6814   2.263   3.232   2.083
 2266SOL    HW2 6815   2.333   3.273   1.941
 2267SOL     OW 6816   3.526   3.142   2.519
 2267SOL    HW1 6817   3.625   3.150   2.533
 2267SOL    HW2 6818   3.481   3.226   2.550
 2268SOL     OW 6819   3.252   2.437   1.940
 2268SOL    HW1 6820   3.198   2.416   2.021
 2268SOL    HW2 6821   3.343   2.396   1.949
 2269SOL     OW 6822   2.389   2.118   2.190
 2269SOL    HW1 6823   2.416   2.059   2.115
 2269SOL    HW2 6824   2.389   2.213   2.159
 2270SOL     OW 6825   3.616   3.085   3.450
 2270SOL    HW1 6826   3.707   3.046   3.437
 2270SOL    HW2 6827   3.624   3.181   3.474
 2271SOL     OW 6828   2.926   3.209   3.202
 2271SOL    HW1 6829   2.846   3.186   3.257
 2271SOL    HW2 6830   3.009   3.183   3.251
 2272SOL     OW 6831   3.454   3.491   3.487
 2272SOL    HW1 6832   3.481   3.525   3.397
 2272SOL    HW2 6833   3.533   3.453   3.533
 2273SOL     OW 6834   2.973   3.057   2.962
 2273SOL    HW1 6835   2.933   3.101   3.043
 2273SOL    HW2 6836   2.932   3.094   2.879
 2274SOL     OW 6837   3.500   2.961   2.941
 2274SOL    HW1 6838   3.505   3.042   3.000
 2274SOL    HW2 6839   3.414   2.963   2.890
 2275SOL     OW 6840   2.777   1.951   3.264
 2275SOL    HW1 6841   2.802   1.931   3.169
 2275SOL    HW2 6842   2.849   2.007   3.306
 2276SOL     OW 6843   2.842   2.978   3.581
 2276SOL    HW1 6844   2.743   2.984   3.591
 2276SOL    HW2 6845   2.865   2.898   3.525
 2277SOL     OW 6846   2.567   2.912   2.230
 2277SOL    HW1 6847   2.553   2.919   2.329
 2277SOL    HW2 6848   2.651   2.861   2.212
 2278SOL     OW 6849   2.272   2.675   3.113
 2278SOL    HW1 6850   2.358   2.687   3.163
 2278SOL    HW2 6851   2.230   2.588   3.140
 2279SOL     OW 6852   3.136   2.248   3.124
 2279SOL    HW1 6853   3.157   2.322   3.188
 2279SOL    HW2 6854   3.047   2.265   3.081
 2280SOL     OW 6855   1.926   3.426   3.193
 2280SOL    HW1 6856   1.880   3.508   3.159
 2280SOL    HW2 6857   2.024   3.445   3.202
 2281SOL     OW 6858   2.229   2.962   2.363
 2281SOL    HW1 6859   2.222   3.045   2.307
 2281SOL    HW2 6860   2.233   2.882   2.303
 2282SOL     OW 6861   3.114   3.210   2.250
 2282SOL    HW1 6862   3.164   3.287   2.290
 2282SOL    HW2 6863   3.019   3.212   2.282
 2283SOL     OW 6864   3.134   3.307   3.004
 2283SOL    HW1 6865   3.181   3.320   3.091
 2283SOL    HW2 6866   3.068   3.233   3.013
 2284SOL     OW 6867   3.444   2.501   2.334
 2284SOL    HW1 6868   3.413   2.562   2.407
 2284SOL    HW2 6869   3.494   2.553   2.265
 2285SOL     OW 6870   2.216   3.372   3.191
 2285SOL    HW1 6871   2.195   3.328   3.104
 2285SOL    HW2 6872   2.313   3.398   3.194
 2286SOL     OW 6873   2.264   2.613   3.460
 2286SOL    HW1 6874   2.332   2.668   3.413
 2286SOL    HW2 6875   2.304   2.525   3.487
 2287SOL     OW 6876   3.449   2.641   3.532
 2287SOL    HW1 6877   3.357   2.679   3.527
 2287SOL    HW2 6878   3.509   2.688   3.467
 2288SOL     OW 6879   2.875   1.967   3.632
 2288SOL    HW1 6880   2.881   2.052   3.580
 2288SOL    HW2 6881   2.907   1.891   3.575
 2289SOL     OW 6882   2.366   1.912   3.602
 2289SOL    HW1 6883   2.324   1.855   3.532
 2289SOL    HW2 6884   2.300   1.981   3.634
 2290SOL     OW 6885   2.435   2.732   2.891
 2290SOL    HW1 6886   2.479   2.821   2.882
 2290SOL    HW2 6887   2.372   2.732   2.968
 2291SOL     OW 6888   3.222   2.724   2.907
 2291SOL    HW1 6889   3.147   2.724   2.841
 2291SOL    HW2 6890   3.259   2.632   2.916
 2292SOL     OW 6891   3.071   2.387   2.137
 2292SOL    HW1 6892   3.084   2.303   2.191
 2292SOL    HW2 6893   3.042   2.461   2.197
 2293SOL     OW 6894   2.169   2.075   3.093
 2293SOL    HW1 6895   2.146   2.112   3.183
 2293SOL    HW2 6896   2.139   1.980   3.087
 2294SOL     OW 6897   1.899   3.172   3.144
 2294SOL    HW1 6898   1.952   3.123   3.212
 2294SOL    HW2 6899   1.921   3.270   3.149
 2295SOL     OW 6900   2.594   2.496   2.926
 2295SOL    HW1 6901   2.653   2.470   2.850
 2295SOL    HW2 6902   2.566   2.592   2.915
 2296SOL     OW 6903   3.590   2.797   3.716
 2296SOL    HW1 6904   3.544   2.790   3.627
 2296SOL    HW2 6905   3.528   2.841   3.782
 2297SOL     OW 6906   2.169   1.925   2.480
 2297SOL    HW1 6907   2.158   2.019   2.513
 2297SOL    HW2 6908   2.164   1.862   2.557
 2298SOL     OW 6909   3.484   2.229   2.236
 2298SOL    HW1 6910   3.486   2.153   2.300
 2298SOL    HW2 6911   3.436   2.306   2.276
 2299SOL     OW 6912   2.885   2.628   2.828
 2299SOL    HW1 6913   2.900   2.649   2.924
 2299SOL    HW2 6914   2.855   2.533   2.819
 2300SOL     OW 6915   2.842   3.435   3.562
 2300SOL    HW1 6916   2.822   3.479   3.474
 2300SOL    HW2 6917   2.881   3.344   3.546
 2301SOL     OW 6918   3.721   3.380   3.467
 2301SOL    HW1 6919   3.735   3.407   3.372
 2301SOL    HW2 6920   3.804   3.402   3.520
 2302SOL     OW 6921   2.212   2.760   3.666
 2302SOL    HW1 6922   2.288   2.804   3.714
 2302SOL    HW2 6923   2.247   2.713   3.584
 2303SOL     OW 6924   3.402   2.136   1.987
 2303SOL    HW1 6925   3.341   2.061   2.010
 2303SOL    HW2 6926   3.424   2.188   2.070
 2304SOL     OW 6927   3.165   2.700   1.904
 2304SOL    HW1 6928   3.199   2.607   1.919
 2304SOL    HW2 6929   3.183   2.727   1.809
 2305SOL     OW 6930   2.930   3.195   2.711
 2305SOL    HW1 6931   2.937   3.111   2.656
 2305SOL    HW2 6932   2.992   3.264   2.675
 2306SOL     OW 6933   2.181   2.672   2.811
 2306SOL    HW1 6934   2.274   2.708   2.816
 2306SOL    HW2 6935   2.175   2.587   2.863
 2307SOL     OW 6936   3.000   2.242   3.540
 2307SOL    HW1 6937   2.955   2.305   3.604
 2307SOL    HW2 6938   3.093   2.273   3.523
 2308SOL     OW 6939   3.022   2.069   3.339
 2308SOL    HW1 6940   3.022   2.133   3.416
 2308SOL    HW2 6941   3.050   2.117   3.256
 2309SOL     OW 6942   1.870   3.188   2.062
 2309SOL    HW1 6943   1.777   3.209   2.031
 2309SOL    HW2 6944   1.880   3.089   2.075
 2310SOL     OW 6945   1.950   3.663   2.789
 2310SOL    HW1 6946   1.908   3.577   2.762
 2310SOL    HW2 6947   2.044   3.666   2.755
 2311SOL     OW 6948   2.366   3.430   2.772
 2311SOL    HW1 6949   2.432   3.504   2.781
 2311SOL    HW2 6950   2.410   3.351   2.730
 2312SOL     OW 6951   2.864   2.658   3.100
 2312SOL    HW1 6952   2.905   2.626   3.186
 2312SOL    HW2 6953   2.768   2.631   3.097
 2313SOL     OW 6954   1.902   2.406   2.976
 2313SOL    HW1 6955   1.987   2.373   2.935
 2313SOL    HW2 6956   1.915   2.421   3.074
 2314SOL     OW 6957   2.051   2.382   3.584
 2314SOL    HW1 6958   2.110   2.342   3.514
 2314SOL    HW2 6959   1.993   2.453   3.543
 2315SOL     OW 6960   3.231   2.812   3.522
 2315SOL    HW1 6961   3.270   2.901   3.542
 2315SOL    HW2 6962   3.241   2.792   3.425
 2316SOL     OW 6963   2.677   2.434   2.187
 2316SOL    HW1 6964   2.684   2.345   2.141
 2316SOL    HW2 6965   2.583   2.468   2.179
 2317SOL     OW 6966   3.519   2.466   3.068
 2317SOL    HW1 6967   3.481   2.397   3.130
 2317SOL    HW2 6968   3.601   2.430   3.024
 2318SOL     OW 6969   2.114   3.426   3.606
 2318SOL    HW1 6970   2.084   3.483   3.682
 2318SOL    HW2 6971   2.107   3.329   3.632
 2319SOL     OW 6972   2.533   2.326   3.131
 2319SOL    HW1 6973   2.499   2.237   3.101
 2319SOL    HW2 6974   2.559   2.380   3.051
 2320SOL     OW 6975   2.792   3.540   3.327
 2320SOL    HW1 6976   2.768   3.522   3.232
 2320SOL    HW2 6977   2.822   3.634   3.337
 2321SOL     OW 6978   2.021   2.999   3.328
 2321SOL    HW1 6979   2.043   2.938   3.404
 2321SOL    HW2 6980   2.031   2.950   3.242
 2322SOL     OW 6981   3.209   2.921   3.096
 2322SOL    HW1 6982   3.233   2.858   3.022
 2322SOL    HW2 6983   3.119   2.961   3.078
 2323SOL     OW 6984   3.164   2.717   2.171
 2323SOL    HW1 6985   3.078   2.686   2.213
 2323SOL    HW2 6986   3.160   2.703   2.072
 2324SOL     OW 6987   3.621   3.609   3.016
 2324SOL    HW1 6988   3.682   3.639   2.943
 2324SOL    HW2 6989   3.583   3.520   2.994
 2325SOL     OW 6990   3.114   3.593   2.990
 2325SOL    HW1 6991   3.198   3.598   2.936
 2325SOL    HW2 6992   3.091   3.497   3.008
 2326SOL     OW 6993   1.945   3.120   2.884
 2326SOL    HW1 6994   1.940   3.119   2.984
 2326SOL    HW2 6995   1.862   3.079   2.846
 2327SOL     OW 6996   2.550   3.524   3.578
 2327SOL    HW1 6997   2.494   3.605   3.587
 2327SOL    HW2 6998   2.602   3.528   3.492
 2328SOL     OW 6999   3.588   1.997   2.385
 2328SOL    HW1 7000   3.661   1.980   2.318
 2328SOL    HW2 7001   3.557   1.910   2.423
 2329SOL     OW 7002   3.250   3.435   2.339
 2329SOL    HW1 7003   3.317   3.447   2.265
 2329SOL    HW2 7004   3.210   3.524   2.362
 2330SOL     OW 7005   1.992   3.656   3.713
 2330SOL    HW1 7006   1.951   3.582   3.766
 2330SOL    HW2 7007   2.056   3.707   3.771
 2331SOL     OW 7008   3.142   2.789   2.534
 2331SOL    HW1 7009   3.202   2.708   2.536
 2331SOL    HW2 7010   3.182   2.858   2.474
 2332SOL     OW 7011   2.692   3.135   3.284
 2332SOL    HW1 7012   2.687   3.168   3.379
 2332SOL    HW2 7013   2.606   3.154   3.238
 2333SOL     OW 7014   2.534   3.478   2.016
 2333SOL    HW1 7015   2.543   3.488   1.917
 2333SOL    HW2 7016   2.494   3.389   2.037
 2334SOL     OW 7017   3.512   3.582   3.256
 2334SOL    HW1 7018   3.565   3.592   3.172
 2334SOL    HW2 7019   3.485   3.672   3.290
 2335SOL     OW 7020   3.703   2.037   2.825
 2335SOL    HW1 7021   3.742   1.952   2.789
 2335SOL    HW2 7022   3.605   2.039   2.806
 2336SOL     OW 7023   2.125   2.188   2.582
 2336SOL    HW1 7024   2.046   2.239   2.548
 2336SOL    HW2 7025   2.116   2.173   2.680
 2337SOL     OW 7026   3.056   3.474   1.893
 2337SOL    HW1 7027   3.062   3.381   1.930
 2337SOL    HW2 7028   2.997   3.474   1.813
 2338SOL     OW 7029   2.684   2.864   3.234
 2338SOL    HW1 7030   2.724   2.863   3.142
 2338SOL    HW2 7031   2.694   2.956   3.274
 2339SOL     OW 7032   2.778   2.772   2.153
 2339SOL    HW1 7033   2.841   2.810   2.085
 2339SOL    HW2 7034   2.818   2.689   2.192
 2340SOL     OW 7035   3.366   3.469   1.906
 2340SOL    HW1 7036   3.274   3.506   1.913
 2340SOL    HW2 7037   3.404   3.489   1.816
 2341SOL     OW 7038   2.234   3.150   3.352
 2341SOL    HW1 7039   2.221   3.243   3.318
 2341SOL    HW2 7040   2.150   3.098   3.339
 2342SOL     OW 7041   3.476   3.154   3.151
 2342SOL    HW1 7042   3.536   3.157   3.231
 2342SOL    HW2 7043   3.401   3.218   3.164
 2343SOL     OW 7044   2.901   2.960   2.558
 2343SOL    HW1 7045   2.831   2.913   2.612
 2343SOL    HW2 7046   2.960   2.892   2.515
 2344SOL     OW 7047   2.876   2.098   2.833
 2344SOL    HW1 7048   2.868   2.062   2.740
 2344SOL    HW2 7049   2.874   2.022   2.898
 2345SOL     OW 7050   2.452   3.349   2.353
 2345SOL    HW1 7051   2.494   3.291   2.283
 2345SOL    HW2 7052   2.408   3.428   2.309
 2346SOL     OW 7053   3.571   2.247   3.243
 2346SOL    HW1 7054   3.644   2.316   3.247
 2346SOL    HW2 7055   3.599   2.172   3.184
 2347SOL     OW 7056   2.117   3.210   2.152
 2347SOL    HW1 7057   2.021   3.211   2.125
 2347SOL    HW2 7058   2.129   3.263   2.236
 2348SOL     OW 7059   1.967   2.875   3.588
 2348SOL    HW1 7060   1.890   2.842   3.642
 2348SOL    HW2 7061   2.052   2.845   3.630
 2349SOL     OW 7062   2.534   2.065   3.351
 2349SOL    HW1 7063   2.624   2.049   3.311
 2349SOL    HW2 7064   2.542   2.070   3.450
 2350SOL     OW 7065   1.937   2.207   1.895
 2350SOL    HW1 7066   1.845   2.179   1.866
 2350SOL    HW2 7067   1.968   2.284   1.839
 2351SOL     OW 7068   3.302   2.718   3.260
 2351SOL    HW1 7069   3.245   2.770   3.197
 2351SOL    HW2 7070   3.398   2.730   3.236
 2352SOL     OW 7071   1.934   2.028   2.180
 2352SOL    HW1 7072   1.917   2.111   2.126
 2352SOL    HW2 7073   2.024   1.991   2.158
 2353SOL     OW 7074   3.045   3.197   1.981
 2353SOL    HW1 7075   2.946   3.186   1.983
 2353SOL    HW2 7076   3.079   3.212   2.074
 2354SOL     OW 7077   2.475   2.704   3.293
 2354SOL    HW1 7078   2.531   2.785   3.276
 2354SOL    HW2 7079   2.534   2.624   3.296
 2355SOL     OW 7080   3.355   3.629   2.821
 2355SOL    HW1 7081   3.388   3.693   2.752
 2355SOL    HW2 7082   3.421   3.623   2.896
 2356SOL     OW 7083   2.578   2.427   3.570
 2356SOL    HW1 7084   2.597   2.492   3.644
 2356SOL    HW2 7085   2.638   2.347   3.579
 2357SOL     OW 7086   3.312   3.082   3.495
 2357SOL    HW1 7087   3.303   3.072   3.594
 2357SOL    HW2 7088   3.408   3.075   3.469
 2358SOL     OW 7089   2.252   3.603   3.422
 2358SOL    HW1 7090   2.161   3.644   3.420
 2358SOL    HW2 7091   2.245   3.509   3.454
 2359SOL     OW 7092   3.536   2.745   3.116
 2359SOL    HW1 7093   3.509   2.656   3.079
 2359SOL    HW2 7094   3.537   2.813   3.043
 2360SOL     OW 7095   3.087   2.187   2.311
 2360SOL    HW1 7096   3.152   2.113   2.300
 2360SOL    HW2 7097   3.107   2.237   2.395
 2361SOL     OW 7098   2.456   2.607   2.514
 2361SOL    HW1 7099   2.506   2.692   2.495
 2361SOL    HW2 7100   2.368   2.609   2.466
 2362SOL     OW 7101   3.639   2.204   3.504
 2362SOL    HW1 7102   3.622   2.235   3.410
 2362SOL    HW2 7103   3.555   2.167   3.542
 2363SOL     OW 7104   3.592   2.796   3.379
 2363SOL    HW1 7105   3.630   2.887   3.394
 2363SOL    HW2 7106   3.584   2.779   3.280
 2364SOL     OW 7107   2.721   3.236   1.878
 2364SOL    HW1 7108   2.675   3.251   1.966
 2364SOL    HW2 7109   2.765   3.321   1.848
 2365SOL     OW 7110   2.523   3.652   2.815
 2365SOL    HW1 7111   2.477   3.740   2.802
 2365SOL    HW2 7112   2.622   3.664   2.808
 2366SOL     OW 7113   2.721   2.818   2.723
 2366SOL    HW1 7114   2.775   2.749   2.771
 2366SOL    HW2 7115   2.689   2.887   2.789
 2367SOL     OW 7116   2.945   2.846   1.949
 2367SOL    HW1 7117   2.922   2.899   1.867
 2367SOL    HW2 7118   3.026   2.790   1.930
 2368SOL     OW 7119   3.723   3.431   2.713
 2368SOL    HW1 7120   3.652   3.419   2.643
 2368SOL    HW2 7121   3.724   3.352   2.773
 2369SOL     OW 7122   2.083   3.176   3.706
 2369SOL    HW1 7123   2.018   3.103   3.685
 2369SOL    HW2 7124   2.087   3.190   3.804
 2370SOL     OW 7125   1.941   3.102   2.515
 2370SOL    HW1 7126   1.940   3.055   2.603
 2370SOL    HW2 7127   2.023   3.074   2.464
 2371SOL     OW 7128   2.534   3.253   3.486
 2371SOL    HW1 7129   2.456   3.203   3.524
 2371SOL    HW2 7130   2.531   3.348   3.517
 2372SOL     OW 7131   3.686   2.054   3.089
 2372SOL    HW1 7132   3.682   1.964   3.133
 2372SOL    HW2 7133   3.689   2.043   2.990
 2373SOL     OW 7134   3.567   3.349   2.966
 2373SOL    HW1 7135   3.474   3.324   2.939
 2373SOL    HW2 7136   3.593   3.299   3.048
 2374SOL     OW 7137   2.179   2.409   3.142
 2374SOL    HW1 7138   2.217   2.350   3.214
 2374SOL    HW2 7139   2.219   2.383   3.054
 2375SOL     OW 7140   2.674   3.448   2.549
 2375SOL    HW1 7141   2.706   3.458   2.455
 2375SOL    HW2 7142   2.595   3.386   2.551
 2376SOL     OW 7143   3.286   2.076   2.974
 2376SOL    HW1 7144   3.338   2.011   3.029
 2376SOL    HW2 7145   3.237   2.139   3.035
 2377SOL     OW 7146   2.863   1.896   3.016
 2377SOL    HW1 7147   2.800   1.824   2.985
 2377SOL    HW2 7148   2.956   1.860   3.016
 2378SOL     OW 7149   2.632   3.192   2.163
 2378SOL    HW1 7150   2.586   3.105   2.180
 2378SOL    HW2 7151   2.723   3.189   2.204
 2379SOL     OW 7152   2.480   3.429   3.146
 2379SOL    HW1 7153   2.475   3.511   3.203
 2379SOL    HW2 7154   2.569   3.426   3.101
 2380SOL     OW 7155   3.214   1.914   2.030
 2380SOL    HW1 7156   3.249   1.873   1.946
 2380SOL    HW2 7157   3.124   1.876   2.050
 2381SOL     OW 7158   3.162   2.315   2.553
 2381SOL    HW1 7159   3.103   2.395   2.557
 2381SOL    HW2 7160   3.177   2.280   2.646
 2382SOL     OW 7161   3.455   2.083   2.744
 2382SOL    HW1 7162   3.371   2.082   2.798
 2382SOL    HW2 7163   3.457   2.166   2.688
 2383SOL     OW 7164   1.901   2.939   2.162
 2383SOL    HW1 7165   2.000   2.928   2.153
 2383SOL    HW2 7166   1.861   2.853   2.194
 2384SOL     OW 7167   2.737   3.508   2.199
 2384SOL    HW1 7168   2.660   3.473   2.145
 2384SOL    HW2 7169   2.705   3.579   2.261
 2385SOL     OW 7170   2.092   2.490   3.837
 2385SOL    HW1 7171   1.999   2.488   3.874
 2385SOL    HW2 7172   2.093   2.451   3.745
 2386SOL     OW 7173   2.087   2.137   4.720
 2386SOL    HW1 7174   2.122   2.120   4.812
 2386SOL    HW2 7175   1.999   2.092   4.708
 2387SOL     OW 7176   1.881   2.230   4.371
 2387SOL    HW1 7177   1.799   2.273   4.410
 2387SOL    HW2 7178   1.853   2.157   4.308
 2388SOL     OW 7179   3.417   3.373   4.427
 2388SOL    HW1 7180   3.360   3.357   4.508
 2388SOL    HW2 7181   3.358   3.383   4.347
 2389SOL     OW 7182   2.997   2.565   4.441
 2389SOL    HW1 7183   3.054   2.643   4.416
 2389SOL    HW2 7184   2.937   2.591   4.517
 2390SOL     OW 7185   3.617   2.469   3.955
 2390SOL    HW1 7186   3.605   2.456   3.856
 2390SOL    HW2 7187   3.587   2.388   4.004
 2391SOL     OW 7188   2.630   3.006   4.747
 2391SOL    HW1 7189   2.552   3.023   4.807
 2391SOL    HW2 7190   2.664   3.093   4.711
 2392SOL     OW 7191   2.547   2.874   4.389
 2392SOL    HW1 7192   2.616   2.858   4.459
 2392SOL    HW2 7193   2.474   2.931   4.427
 2393SOL     OW 7194   2.197   3.297   4.785
 2393SOL    HW1 7195   2.119   3.266   4.732
 2393SOL    HW2 7196   2.255   3.355   4.728
 2394SOL     OW 7197   3.465   2.309   4.461
 2394SOL    HW1 7198   3.391   2.355   4.411
 2394SOL    HW2 7199   3.516   2.377   4.514
 2395SOL     OW 7200   2.093   3.575   4.207
 2395SOL    HW1 7201   2.127   3.652   4.261
 2395SOL    HW2 7202   2.137   3.575   4.117
 2396SOL     OW 7203   2.092   3.296   4.262
 2396SOL    HW1 7204   2.066   3.392   4.262
 2396SOL    HW2 7205   2.021   3.242   4.307
 2397SOL     OW 7206   2.102   2.953   4.610
 2397SOL    HW1 7207   2.116   2.869   4.662
 2397SOL    HW2 7208   2.047   3.017   4.665
 2398SOL     OW 7209   2.468   2.826   3.847
 2398SOL    HW1 7210   2.475   2.910   3.793
 2398SOL    HW2 7211   2.514   2.839   3.935
 2399SOL     OW 7212   1.984   2.505   4.287
 2399SOL    HW1 7213   1.939   2.417   4.304
 2399SOL    HW2 7214   1.983   2.559   4.371
 2400SOL     OW 7215   3.704   3.629   4.083
 2400SOL    HW1 7216   3.758   3.600   4.163
 2400SOL    HW2 7217   3.734   3.719   4.054
 2401SOL     OW 7218   1.889   3.458   3.841
 2401SOL    HW1 7219   1.870   3.362   3.862
 2401SOL    HW2 7220   1.856   3.516   3.916
 2402SOL     OW 7221   3.551   2.784   4.336
 2402SOL    HW1 7222   3.646   2.755   4.344
 2402SOL    HW2 7223   3.543   2.849   4.261
 2403SOL     OW 7224   3.503   2.970   4.156
 2403SOL    HW1 7225   3.589   2.972   4.104
 2403SOL    HW2 7226   3.517   3.017   4.244
 2404SOL     OW 7227   2.475   3.227   4.450
 2404SOL    HW1 7228   2.426   3.140   4.459
 2404SOL    HW2 7229   2.452   3.270   4.363
 2405SOL     OW 7230   2.671   1.866   4.226
 2405SOL    HW1 7231   2.711   1.957   4.217
 2405SOL    HW2 7232   2.571   1.874   4.232
 2406SOL     OW 7233   3.387   2.861   3.914
 2406SOL    HW1 7234   3.324   2.785   3.927
 2406SOL    HW2 7235   3.435   2.879   4.000
 2407SOL     OW 7236   3.328   3.279   4.677
 2407SOL    HW1 7237   3.269   3.285   4.757
 2407SOL    HW2 7238   3.313   3.191   4.631
 2408SOL     OW 7239   3.529   3.576   4.296
 2408SOL    HW1 7240   3.488   3.553   4.208
 2408SOL    HW2 7241   3.511   3.502   4.361
 2409SOL     OW 7242   2.460   2.591   3.994
 2409SOL    HW1 7243   2.484   2.660   3.926
 2409SOL    HW2 7244   2.382   2.624   4.048
 2410SOL     OW 7245   3.143   2.207   4.668
 2410SOL    HW1 7246   3.057   2.157   4.655
 2410SOL    HW2 7247   3.205   2.153   4.724
 2411SOL     OW 7248   3.438   3.524   4.031
 2411SOL    HW1 7249   3.527   3.570   4.034
 2411SOL    HW2 7250   3.417   3.500   3.936
 2412SOL     OW 7251   2.903   2.563   4.153
 2412SOL    HW1 7252   2.929   2.559   4.249
 2412SOL    HW2 7253   2.818   2.512   4.139
 2413SOL     OW 7254   1.938   2.673   4.513
 2413SOL    HW1 7255   2.037   2.661   4.522
 2413SOL    HW2 7256   1.914   2.768   4.534
 2414SOL     OW 7257   2.727   2.210   3.919
 2414SOL    HW1 7258   2.786   2.273   3.870
 2414SOL    HW2 7259   2.746   2.116   3.890
 2415SOL     OW 7260   3.224   3.006   4.269
 2415SOL    HW1 7261   3.307   2.977   4.221
 2415SOL    HW2 7262   3.175   3.073   4.213
 2416SOL     OW 7263   2.412   2.058   4.609
 2416SOL    HW1 7264   2.407   2.053   4.709
 2416SOL    HW2 7265   2.414   2.154   4.580
 2417SOL     OW 7266   2.870   3.318   4.201
 2417SOL    HW1 7267   2.824   3.390   4.149
 2417SOL    HW2 7268   2.866   3.338   4.299
 2418SOL     OW 7269   2.213   3.663   4.577
 2418SOL    HW1 7270   2.263   3.577   4.583
 2418SOL    HW2 7271   2.278   3.740   4.574
 2419SOL     OW 7272   3.657   2.928   4.597
 2419SOL    HW1 7273   3.595   2.913   4.521
 2419SOL    HW2 7274   3.605   2.939   4.682
 2420SOL     OW 7275   2.183   2.805   3.966
 2420SOL    HW1 7276   2.265   2.844   3.924
 2420SOL    HW2 7277   2.156   2.723   3.917
 2421SOL     OW 7278   3.320   2.597   4.452
 2421SOL    HW1 7279   3.315   2.532   4.527
 2421SOL    HW2 7280   3.400   2.656   4.465
 2422SOL     OW 7281   2.973   3.638   3.961
 2422SOL    HW1 7282   2.913   3.576   4.011
 2422SOL    HW2 7283   3.004   3.594   3.876
 2423SOL     OW 7284   3.494   3.239   3.805
 2423SOL    HW1 7285   3.462   3.333   3.795
 2423SOL    HW2 7286   3.418   3.176   3.793
 2424SOL     OW 7287   2.326   3.605   4.047
 2424SOL    HW1 7288   2.359   3.644   4.133
 2424SOL    HW2 7289   2.402   3.598   3.982
 2425SOL     OW 7290   3.262   1.969   4.150
 2425SOL    HW1 7291   3.238   1.932   4.060
 2425SOL    HW2 7292   3.361   1.985   4.154
 2426SOL     OW 7293   2.111   3.647   4.965
 2426SOL    HW1 7294   2.168   3.582   5.015
 2426SOL    HW2 7295   2.095   3.614   4.872
 2427SOL     OW 7296   2.802   3.560   4.628
 2427SOL    HW1 7297   2.882   3.503   4.649
 2427SOL    HW2 7298   2.753   3.520   4.551
 2428SOL     OW 7299   2.244   2.562   4.204
 2428SOL    HW1 7300   2.289   2.472   4.201
 2428SOL    HW2 7301   2.150   2.551   4.237
 2429SOL     OW 7302   2.476   1.984   3.841
 2429SOL    HW1 7303   2.574   1.962   3.848
 2429SOL    HW2 7304   2.445   1.967   3.748
 2430SOL     OW 7305   2.665   3.264   4.648
 2430SOL    HW1 7306   2.755   3.278   4.606
 2430SOL    HW2 7307   2.594   3.266   4.577
 2431SOL     OW 7308   2.784   2.365   4.623
 2431SOL    HW1 7309   2.759   2.356   4.527
 2431SOL    HW2 7310   2.832   2.283   4.654
 2432SOL     OW 7311   2.401   1.926   4.236
 2432SOL    HW1 7312   2.320   1.927   4.294
 2432SOL    HW2 7313   2.404   2.009   4.181
 2433SOL     OW 7314   3.296   3.050   3.765
 2433SOL    HW1 7315   3.328   2.974   3.822
 2433SOL    HW2 7316   3.204   3.077   3.795
 2434SOL     OW 7317   2.159   1.897   3.895
 2434SOL    HW1 7318   2.208   1.981   3.874
 2434SOL    HW2 7319   2.221   1.832   3.940
 2435SOL     OW 7320   2.797   2.098   4.204
 2435SOL    HW1 7321   2.749   2.139   4.126
 2435SOL    HW2 7322   2.896   2.096   4.185
 2436SOL     OW 7323   3.089   3.432   4.517
 2436SOL    HW1 7324   3.110   3.506   4.452
 2436SOL    HW2 7325   3.157   3.432   4.590
 2437SOL     OW 7326   2.321   3.014   4.465
 2437SOL    HW1 7327   2.250   2.987   4.530
 2437SOL    HW2 7328   2.295   2.986   4.372
 2438SOL     OW 7329   3.133   3.659   4.315
 2438SOL    HW1 7330   3.177   3.723   4.251
 2438SOL    HW2 7331   3.083   3.711   4.385
 2439SOL     OW 7332   2.894   2.411   3.740
 2439SOL    HW1 7333   2.853   2.493   3.701
 2439SOL    HW2 7334   2.958   2.437   3.813
 2440SOL     OW 7335   2.728   2.316   4.366
 2440SOL    HW1 7336   2.696   2.388   4.304
 2440SOL    HW2 7337   2.752   2.235   4.313
 2441SOL     OW 7338   2.879   1.901   4.477
 2441SOL    HW1 7339   2.807   1.906   4.408
 2441SOL    HW2 7340   2.855   1.832   4.546
 2442SOL     OW 7341   3.291   3.035   4.591
 2442SOL    HW1 7342   3.236   2.951   4.584
 2442SOL    HW2 7343   3.317   3.064   4.499
 2443SOL     OW 7344   3.328   2.452   4.716
 2443SOL    HW1 7345   3.298   2.357   4.723
 2443SOL    HW2 7346   3.401   2.468   4.782
 2444SOL     OW 7347   3.719   2.695   4.101
 2444SOL    HW1 7348   3.761   2.631   4.165
 2444SOL    HW2 7349   3.681   2.644   4.023
 2445SOL     OW 7350   2.350   3.247   3.898
 2445SOL    HW1 7351   2.263   3.232   3.945
 2445SOL    HW2 7352   2.333   3.273   3.803
 2446SOL     OW 7353   3.526   3.142   4.381
 2446SOL    HW1 7354   3.625   3.150   4.395
 2446SOL    HW2 7355   3.481   3.226   4.412
 2447SOL     OW 7356   3.252   2.437   3.802
 2447SOL    HW1 7357   3.198   2.416   3.883
 2447SOL    HW2 7358   3.343   2.396   3.811
 2448SOL     OW 7359   2.389   2.118   4.052
 2448SOL    HW1 7360   2.416   2.059   3.977
 2448SOL    HW2 7361   2.389   2.213   4.021
 2449SOL     OW 7362   3.500   2.961   4.803
 2449SOL    HW1 7363   3.505   3.042   4.862
 2449SOL    HW2 7364   3.414   2.963   4.752
 2450SOL     OW 7365   2.567   2.912   4.092
 2450SOL    HW1 7366   2.553   2.919   4.191
 2450SOL    HW2 7367   2.651   2.861   4.074
 2451SOL     OW 7368   2.229   2.962   4.225
 2451SOL    HW1 7369   2.222   3.045   4.169
 2451SOL    HW2 7370   2.233   2.882   4.165
 2452SOL     OW 7371   2.428   2.399   4.589
 2452SOL    HW1 7372   2.440   2.465   4.515
 2452SOL    HW2 7373   2.474   2.433   4.672
 2453SOL     OW 7374   3.114   3.210   4.112
 2453SOL    HW1 7375   3.164   3.287   4.152
 2453SOL    HW2 7376   3.019   3.212   4.144
 2454SOL     OW 7377   3.444   2.501   4.196
 2454SOL    HW1 7378   3.413   2.562   4.269
 2454SOL    HW2 7379   3.494   2.553   4.127
 2455SOL     OW 7380   2.435   2.732   4.753
 2455SOL    HW1 7381   2.479   2.821   4.744
 2455SOL    HW2 7382   2.372   2.732   4.830
 2456SOL     OW 7383   3.071   2.387   3.999
 2456SOL    HW1 7384   3.084   2.303   4.053
 2456SOL    HW2 7385   3.042   2.461   4.059
 2457SOL     OW 7386   2.169   2.075   4.955
 2457SOL    HW1 7387   2.146   2.112   5.045
 2457SOL    HW2 7388   2.139   1.980   4.949
 2458SOL     OW 7389   2.594   2.496   4.788
 2458SOL    HW1 7390   2.653   2.470   4.712
 2458SOL    HW2 7391   2.566   2.592   4.777
 2459SOL     OW 7392   2.169   1.925   4.342
 2459SOL    HW1 7393   2.158   2.019   4.375
 2459SOL    HW2 7394   2.164   1.862   4.419
 2460SOL     OW 7395   3.484   2.229   4.098
 2460SOL    HW1 7396   3.486   2.153   4.162
 2460SOL    HW2 7397   3.436   2.306   4.138
 2461SOL     OW 7398   3.402   2.136   3.849
 2461SOL    HW1 7399   3.341   2.061   3.872
 2461SOL    HW2 7400   3.424   2.188   3.932
 2462SOL     OW 7401   3.165   2.700   3.766
 2462SOL    HW1 7402   3.199   2.607   3.781
 2462SOL    HW2 7403   3.183   2.727   3.671
 2463SOL     OW 7404   2.930   3.195   4.573
 2463SOL    HW1 7405   2.937   3.111   4.518
 2463SOL    HW2 7406   2.992   3.264   4.537
 2464SOL     OW 7407   2.181   2.672   4.673
 2464SOL    HW1 7408   2.274   2.708   4.678
 2464SOL    HW2 7409   2.175   2.587   4.725
 2465SOL     OW 7410   2.201   2.371   4.730
 2465SOL    HW1 7411   2.149   2.288   4.713
 2465SOL    HW2 7412   2.278   2.376   4.666
 2466SOL     OW 7413   1.870   3.188   3.924
 2466SOL    HW1 7414   1.777   3.209   3.893
 2466SOL    HW2 7415   1.880   3.089   3.937
 2467SOL     OW 7416   1.950   3.663   4.651
 2467SOL    HW1 7417   1.908   3.577   4.624
 2467SOL    HW2 7418   2.044   3.666   4.617
 2468SOL     OW 7419   2.366   3.430   4.634
 2468SOL    HW1 7420   2.432   3.504   4.643
 2468SOL    HW2 7421   2.410   3.351   4.592
 2469SOL     OW 7422   2.864   2.658   4.962
 2469SOL    HW1 7423   2.905   2.626   5.048
 2469SOL    HW2 7424   2.768   2.631   4.959
 2470SOL     OW 7425   2.677   2.434   4.049
 2470SOL    HW1 7426   2.684   2.345   4.003
 2470SOL    HW2 7427   2.583   2.468   4.041
 2471SOL     OW 7428   2.533   2.326   4.993
 2471SOL    HW1 7429   2.499   2.237   4.963
 2471SOL    HW2 7430   2.559   2.380   4.913
 2472SOL     OW 7431   2.335   2.362   3.915
 2472SOL    HW1 7432   2.396   2.442   3.919
 2472SOL    HW2 7433   2.240   2.393   3.922
 2473SOL     OW 7434   3.164   2.717   4.033
 2473SOL    HW1 7435   3.078   2.686   4.075
 2473SOL    HW2 7436   3.160   2.703   3.934
 2474SOL     OW 7437   3.621   3.609   4.878
 2474SOL    HW1 7438   3.682   3.639   4.805
 2474SOL    HW2 7439   3.583   3.520   4.856
 2475SOL     OW 7440   1.945   3.120   4.746
 2475SOL    HW1 7441   1.940   3.119   4.846
 2475SOL    HW2 7442   1.862   3.079   4.708
 2476SOL     OW 7443   3.588   1.997   4.247
 2476SOL    HW1 7444   3.661   1.980   4.180
 2476SOL    HW2 7445   3.557   1.910   4.285
 2477SOL     OW 7446   3.250   3.435   4.201
 2477SOL    HW1 7447   3.317   3.447   4.127
 2477SOL    HW2 7448   3.210   3.524   4.224
 2478SOL     OW 7449   3.142   2.789   4.396
 2478SOL    HW1 7450   3.202   2.708   4.398
 2478SOL    HW2 7451   3.182   2.858   4.336
 2479SOL     OW 7452   2.534   3.478   3.878
 2479SOL    HW1 7453   2.543   3.488   3.779
 2479SOL    HW2 7454   2.494   3.389   3.899
 2480SOL     OW 7455   3.703   2.037   4.687
 2480SOL    HW1 7456   3.742   1.952   4.651
 2480SOL    HW2 7457   3.605   2.039   4.668
 2481SOL     OW 7458   2.125   2.188   4.444
 2481SOL    HW1 7459   2.046   2.239   4.410
 2481SOL    HW2 7460   2.116   2.173   4.542
 2482SOL     OW 7461   3.056   3.474   3.755
 2482SOL    HW1 7462   3.062   3.381   3.792
 2482SOL    HW2 7463   2.997   3.474   3.675
 2483SOL     OW 7464   2.778   2.772   4.015
 2483SOL    HW1 7465   2.841   2.810   3.947
 2483SOL    HW2 7466   2.818   2.689   4.054
 2484SOL     OW 7467   3.366   3.469   3.768
 2484SOL    HW1 7468   3.274   3.506   3.775
 2484SOL    HW2 7469   3.404   3.489   3.678
 2485SOL     OW 7470   2.901   2.960   4.420
 2485SOL    HW1 7471   2.831   2.913   4.474
 2485SOL    HW2 7472   2.960   2.892   4.377
 2486SOL     OW 7473   2.452   3.349   4.215
 2486SOL    HW1 7474   2.494   3.291   4.145
 2486SOL    HW2 7475   2.408   3.428   4.171
 2487SOL     OW 7476   2.117   3.210   4.014
 2487SOL    HW1 7477   2.021   3.211   3.987
 2487SOL    HW2 7478   2.129   3.263   4.098
 2488SOL     OW 7479   1.937   2.207   3.757
 2488SOL    HW1 7480   1.845   2.179   3.728
 2488SOL    HW2 7481   1.968   2.284   3.701
 2489SOL     OW 7482   1.934   2.028   4.042
 2489SOL    HW1 7483   1.917   2.111   3.988
 2489SOL    HW2 7484   2.024   1.991   4.020
 2490SOL     OW 7485   3.045   3.197   3.843
 2490SOL    HW1 7486   2.946   3.186   3.845
 2490SOL    HW2 7487   3.079   3.212   3.936
 2491SOL     OW 7488   3.536   2.745   4.978
 2491SOL    HW1 7489   3.509   2.656   4.941
 2491SOL    HW2 7490   3.537   2.813   4.905
 2492SOL     OW 7491   3.087   2.187   4.173
 2492SOL    HW1 7492   3.152   2.113   4.162
 2492SOL    HW2 7493   3.107   2.237   4.257
 2493SOL     OW 7494   2.456   2.607   4.376
 2493SOL    HW1 7495   2.506   2.692   4.357
 2493SOL    HW2 7496   2.368   2.609   4.328
 2494SOL     OW 7497   2.721   3.236   3.740
 2494SOL    HW1 7498   2.675   3.251   3.828
 2494SOL    HW2 7499   2.765   3.321   3.710
 2495SOL     OW 7500   2.523   3.652   4.677
 2495SOL    HW1 7501   2.477   3.740   4.664
 2495SOL    HW2 7502   2.622   3.664   4.670
 2496SOL     OW 7503   2.721   2.818   4.585
 2496SOL    HW1 7504   2.775   2.749   4.633
 2496SOL    HW2 7505   2.689   2.887   4.651
 2497SOL     OW 7506   2.945   2.846   3.811
 2497SOL    HW1 7507   2.922   2.899   3.729
 2497SOL    HW2 7508   3.026   2.790   3.792
 2498SOL     OW 7509   3.723   3.431   4.575
 2498SOL    HW1 7510   3.652   3.419   4.505
 2498SOL    HW2 7511   3.724   3.352   4.635
 2499SOL     OW 7512   1.941   3.102   4.377
 2499SOL    HW1 7513   1.940   3.055   4.465
 2499SOL    HW2 7514   2.023   3.074   4.326
 2500SOL     OW 7515   3.686   2.054   4.951
 2500SOL    HW1 7516   3.682   1.964   4.995
 2500SOL    HW2 7517   3.689   2.043   4.852
 2501SOL     OW 7518   2.290   2.286   4.244
 2501SOL    HW1 7519   2.320   2.214   4.182
 2501SOL    HW2 7520   2.251   2.246   4.327
 2502SOL     OW 7521   2.674   3.448   4.411
 2502SOL    HW1 7522   2.706   3.458   4.317
 2502SOL    HW2 7523   2.595   3.386   4.413
 2503SOL     OW 7524   2.632   3.192   4.025
 2503SOL    HW1 7525   2.586   3.105   4.042
 2503SOL    HW2 7526   2.723   3.189   4.066
 2504SOL     OW 7527   3.214   1.914   3.892
 2504SOL    HW1 7528   3.249   1.873   3.808
 2504SOL    HW2 7529   3.124   1.876   3.912
 2505SOL     OW 7530   3.162   2.315   4.415
 2505SOL    HW1 7531   3.103   2.395   4.419
 2505SOL    HW2 7532   3.177   2.280   4.508
 2506SOL     OW 7533   3.455   2.083   4.606
 2506SOL    HW1 7534   3.371   2.082   4.660
 2506SOL    HW2 7535   3.457   2.166   4.550
 2507SOL     OW 7536   1.901   2.939   4.024
 2507SOL    HW1 7537   2.000   2.928   4.015
 2507SOL    HW2 7538   1.861   2.853   4.056
 2508SOL     OW 7539   2.737   3.508   4.061
 2508SOL    HW1 7540   2.660   3.473   4.007
 2508SOL    HW2 7541   2.705   3.579   4.123
 2509SOL     OW 7542   2.092   4.352   0.113
 2509SOL    HW1 7543   1.999   4.350   0.150
 2509SOL    HW2 7544   2.093   4.313   0.021
 2510SOL     OW 7545   2.087   3.999   0.996
 2510SOL    HW1 7546   2.122   3.982   1.088
 2510SOL    HW2 7547   1.999   3.954   0.984
 2511SOL     OW 7548   1.881   4.092   0.647
 2511SOL    HW1 7549   1.799   4.135   0.686
 2511SOL    HW2 7550   1.853   4.019   0.584
 2512SOL     OW 7551   2.997   4.427   0.717
 2512SOL    HW1 7552   3.054   4.505   0.692
 2512SOL    HW2 7553   2.937   4.453   0.793
 2513SOL     OW 7554   3.617   4.331   0.231
 2513SOL    HW1 7555   3.605   4.318   0.132
 2513SOL    HW2 7556   3.587   4.250   0.280
 2514SOL     OW 7557   2.630   4.868   1.023
 2514SOL    HW1 7558   2.552   4.885   1.083
 2514SOL    HW2 7559   2.664   4.955   0.987
 2515SOL     OW 7560   2.712   4.522   1.823
 2515SOL    HW1 7561   2.708   4.598   1.888
 2515SOL    HW2 7562   2.734   4.558   1.732
 2516SOL     OW 7563   2.547   4.736   0.665
 2516SOL    HW1 7564   2.616   4.720   0.735
 2516SOL    HW2 7565   2.474   4.793   0.703
 2517SOL     OW 7566   2.300   4.116   1.499
 2517SOL    HW1 7567   2.382   4.060   1.508
 2517SOL    HW2 7568   2.219   4.058   1.503
 2518SOL     OW 7569   3.465   4.171   0.737
 2518SOL    HW1 7570   3.391   4.217   0.687
 2518SOL    HW2 7571   3.516   4.239   0.790
 2519SOL     OW 7572   2.102   4.815   0.886
 2519SOL    HW1 7573   2.116   4.731   0.938
 2519SOL    HW2 7574   2.047   4.879   0.941
 2520SOL     OW 7575   2.468   4.688   0.123
 2520SOL    HW1 7576   2.475   4.772   0.069
 2520SOL    HW2 7577   2.514   4.701   0.211
 2521SOL     OW 7578   3.456   3.838   1.480
 2521SOL    HW1 7579   3.438   3.905   1.408
 2521SOL    HW2 7580   3.453   3.884   1.569
 2522SOL     OW 7581   1.984   4.367   0.563
 2522SOL    HW1 7582   1.939   4.279   0.580
 2522SOL    HW2 7583   1.983   4.421   0.647
 2523SOL     OW 7584   3.551   4.646   0.612
 2523SOL    HW1 7585   3.646   4.617   0.620
 2523SOL    HW2 7586   3.543   4.711   0.537
 2524SOL     OW 7587   1.975   4.461   1.597
 2524SOL    HW1 7588   2.063   4.448   1.642
 2524SOL    HW2 7589   1.962   4.558   1.575
 2525SOL     OW 7590   2.671   3.728   0.502
 2525SOL    HW1 7591   2.711   3.819   0.493
 2525SOL    HW2 7592   2.571   3.736   0.508
 2526SOL     OW 7593   2.059   4.700   1.264
 2526SOL    HW1 7594   2.148   4.655   1.250
 2526SOL    HW2 7595   1.986   4.635   1.245
 2527SOL     OW 7596   3.387   4.723   0.190
 2527SOL    HW1 7597   3.324   4.647   0.203
 2527SOL    HW2 7598   3.435   4.741   0.276
 2528SOL     OW 7599   2.179   3.975   1.801
 2528SOL    HW1 7600   2.250   4.046   1.807
 2528SOL    HW2 7601   2.091   4.014   1.829
 2529SOL     OW 7602   2.460   4.453   0.270
 2529SOL    HW1 7603   2.484   4.522   0.202
 2529SOL    HW2 7604   2.382   4.486   0.324
 2530SOL     OW 7605   3.143   4.069   0.944
 2530SOL    HW1 7606   3.057   4.019   0.931
 2530SOL    HW2 7607   3.205   4.015   1.000
 2531SOL     OW 7608   2.669   4.329   1.465
 2531SOL    HW1 7609   2.622   4.326   1.554
 2531SOL    HW2 7610   2.618   4.274   1.399
 2532SOL     OW 7611   3.256   4.193   1.674
 2532SOL    HW1 7612   3.236   4.236   1.762
 2532SOL    HW2 7613   3.334   4.131   1.683
 2533SOL     OW 7614   2.835   4.614   1.572
 2533SOL    HW1 7615   2.881   4.530   1.543
 2533SOL    HW2 7616   2.779   4.648   1.497
 2534SOL     OW 7617   2.853   4.134   1.242
 2534SOL    HW1 7618   2.776   4.168   1.296
 2534SOL    HW2 7619   2.819   4.083   1.163
 2535SOL     OW 7620   2.903   4.425   0.429
 2535SOL    HW1 7621   2.929   4.421   0.525
 2535SOL    HW2 7622   2.818   4.374   0.415
 2536SOL     OW 7623   1.938   4.535   0.789
 2536SOL    HW1 7624   2.037   4.523   0.798
 2536SOL    HW2 7625   1.914   4.630   0.810
 2537SOL     OW 7626   2.727   4.072   0.195
 2537SOL    HW1 7627   2.786   4.135   0.146
 2537SOL    HW2 7628   2.746   3.978   0.166
 2538SOL     OW 7629   3.581   4.309   1.831
 2538SOL    HW1 7630   3.555   4.398   1.795
 2538SOL    HW2 7631   3.579   4.241   1.758
 2539SOL     OW 7632   2.412   3.920   0.885
 2539SOL    HW1 7633   2.407   3.915   0.985
 2539SOL    HW2 7634   2.414   4.016   0.856
 2540SOL     OW 7635   3.320   4.459   0.728
 2540SOL    HW1 7636   3.315   4.394   0.803
 2540SOL    HW2 7637   3.400   4.518   0.741
 2541SOL     OW 7638   2.064   4.009   1.498
 2541SOL    HW1 7639   1.984   4.069   1.485
 2541SOL    HW2 7640   2.054   3.960   1.584
 2542SOL     OW 7641   3.262   3.831   0.426
 2542SOL    HW1 7642   3.238   3.794   0.336
 2542SOL    HW2 7643   3.361   3.847   0.430
 2543SOL     OW 7644   2.244   4.424   0.480
 2543SOL    HW1 7645   2.289   4.334   0.477
 2543SOL    HW2 7646   2.150   4.413   0.513
 2544SOL     OW 7647   3.409   3.946   1.729
 2544SOL    HW1 7648   3.404   3.983   1.821
 2544SOL    HW2 7649   3.337   3.877   1.717
 2545SOL     OW 7650   2.476   3.846   0.117
 2545SOL    HW1 7651   2.574   3.824   0.124
 2545SOL    HW2 7652   2.445   3.829   0.024
 2546SOL     OW 7653   2.643   3.988   1.749
 2546SOL    HW1 7654   2.710   3.927   1.792
 2546SOL    HW2 7655   2.570   4.007   1.814
 2547SOL     OW 7656   3.213   4.314   1.433
 2547SOL    HW1 7657   3.241   4.271   1.518
 2547SOL    HW2 7658   3.238   4.410   1.434
 2548SOL     OW 7659   2.784   4.227   0.899
 2548SOL    HW1 7660   2.759   4.218   0.803
 2548SOL    HW2 7661   2.832   4.145   0.930
 2549SOL     OW 7662   2.401   3.788   0.512
 2549SOL    HW1 7663   2.320   3.789   0.570
 2549SOL    HW2 7664   2.404   3.871   0.457
 2550SOL     OW 7665   2.797   3.960   0.480
 2550SOL    HW1 7666   2.749   4.001   0.402
 2550SOL    HW2 7667   2.896   3.958   0.461
 2551SOL     OW 7668   2.938   4.407   1.464
 2551SOL    HW1 7669   2.858   4.346   1.467
 2551SOL    HW2 7670   3.019   4.354   1.440
 2552SOL     OW 7671   2.894   4.273   0.016
 2552SOL    HW1 7672   2.853   4.355  -0.023
 2552SOL    HW2 7673   2.958   4.299   0.089
 2553SOL     OW 7674   1.940   4.280   1.386
 2553SOL    HW1 7675   2.032   4.279   1.345
 2553SOL    HW2 7676   1.934   4.354   1.453
 2554SOL     OW 7677   2.423   3.946   1.147
 2554SOL    HW1 7678   2.461   3.862   1.184
 2554SOL    HW2 7679   2.335   3.965   1.191
 2555SOL     OW 7680   2.728   4.178   0.642
 2555SOL    HW1 7681   2.696   4.250   0.580
 2555SOL    HW2 7682   2.752   4.097   0.589
 2556SOL     OW 7683   2.879   3.763   0.753
 2556SOL    HW1 7684   2.807   3.768   0.684
 2556SOL    HW2 7685   2.855   3.694   0.822
 2557SOL     OW 7686   3.291   4.897   0.867
 2557SOL    HW1 7687   3.236   4.813   0.860
 2557SOL    HW2 7688   3.317   4.926   0.775
 2558SOL     OW 7689   3.328   4.314   0.992
 2558SOL    HW1 7690   3.298   4.219   0.999
 2558SOL    HW2 7691   3.401   4.330   1.058
 2559SOL     OW 7692   3.719   4.557   0.377
 2559SOL    HW1 7693   3.761   4.493   0.441
 2559SOL    HW2 7694   3.681   4.506   0.299
 2560SOL     OW 7695   3.252   4.299   0.078
 2560SOL    HW1 7696   3.198   4.278   0.159
 2560SOL    HW2 7697   3.343   4.258   0.087
 2561SOL     OW 7698   2.389   3.980   0.328
 2561SOL    HW1 7699   2.416   3.921   0.253
 2561SOL    HW2 7700   2.389   4.075   0.297
 2562SOL     OW 7701   3.500   4.823   1.079
 2562SOL    HW1 7702   3.505   4.904   1.138
 2562SOL    HW2 7703   3.414   4.825   1.028
 2563SOL     OW 7704   2.777   3.813   1.402
 2563SOL    HW1 7705   2.802   3.793   1.307
 2563SOL    HW2 7706   2.849   3.869   1.444
 2564SOL     OW 7707   2.272   4.537   1.251
 2564SOL    HW1 7708   2.358   4.549   1.301
 2564SOL    HW2 7709   2.230   4.450   1.278
 2565SOL     OW 7710   3.136   4.110   1.262
 2565SOL    HW1 7711   3.157   4.184   1.326
 2565SOL    HW2 7712   3.047   4.127   1.219
 2566SOL     OW 7713   2.428   4.261   0.865
 2566SOL    HW1 7714   2.440   4.327   0.791
 2566SOL    HW2 7715   2.474   4.295   0.948
 2567SOL     OW 7716   3.444   4.363   0.472
 2567SOL    HW1 7717   3.413   4.424   0.545
 2567SOL    HW2 7718   3.494   4.415   0.403
 2568SOL     OW 7719   2.264   4.475   1.598
 2568SOL    HW1 7720   2.332   4.530   1.551
 2568SOL    HW2 7721   2.304   4.387   1.625
 2569SOL     OW 7722   3.449   4.503   1.670
 2569SOL    HW1 7723   3.357   4.541   1.665
 2569SOL    HW2 7724   3.509   4.550   1.605
 2570SOL     OW 7725   2.875   3.829   1.770
 2570SOL    HW1 7726   2.881   3.914   1.718
 2570SOL    HW2 7727   2.907   3.753   1.713
 2571SOL     OW 7728   2.366   3.774   1.740
 2571SOL    HW1 7729   2.324   3.717   1.670
 2571SOL    HW2 7730   2.300   3.843   1.772
 2572SOL     OW 7731   2.435   4.594   1.029
 2572SOL    HW1 7732   2.479   4.683   1.020
 2572SOL    HW2 7733   2.372   4.594   1.106
 2573SOL     OW 7734   3.222   4.586   1.045
 2573SOL    HW1 7735   3.147   4.586   0.979
 2573SOL    HW2 7736   3.259   4.494   1.054
 2574SOL     OW 7737   3.071   4.249   0.275
 2574SOL    HW1 7738   3.084   4.165   0.329
 2574SOL    HW2 7739   3.042   4.323   0.335
 2575SOL     OW 7740   2.169   3.937   1.231
 2575SOL    HW1 7741   2.146   3.974   1.321
 2575SOL    HW2 7742   2.139   3.842   1.225
 2576SOL     OW 7743   2.594   4.358   1.064
 2576SOL    HW1 7744   2.653   4.332   0.988
 2576SOL    HW2 7745   2.566   4.454   1.053
 2577SOL     OW 7746   3.590   4.659   1.854
 2577SOL    HW1 7747   3.544   4.652   1.765
 2577SOL    HW2 7748   3.528   4.703   1.920
 2578SOL     OW 7749   2.169   3.787   0.618
 2578SOL    HW1 7750   2.158   3.881   0.651
 2578SOL    HW2 7751   2.164   3.724   0.695
 2579SOL     OW 7752   3.484   4.091   0.374
 2579SOL    HW1 7753   3.486   4.015   0.438
 2579SOL    HW2 7754   3.436   4.168   0.414
 2580SOL     OW 7755   2.885   4.490   0.966
 2580SOL    HW1 7756   2.900   4.511   1.062
 2580SOL    HW2 7757   2.855   4.395   0.957
 2581SOL     OW 7758   2.212   4.622   1.804
 2581SOL    HW1 7759   2.288   4.666   1.852
 2581SOL    HW2 7760   2.247   4.575   1.722
 2582SOL     OW 7761   3.402   3.998   0.125
 2582SOL    HW1 7762   3.341   3.923   0.148
 2582SOL    HW2 7763   3.424   4.050   0.208
 2583SOL     OW 7764   3.165   4.562   0.042
 2583SOL    HW1 7765   3.199   4.469   0.057
 2583SOL    HW2 7766   3.183   4.589  -0.053
 2584SOL     OW 7767   2.181   4.534   0.949
 2584SOL    HW1 7768   2.274   4.570   0.954
 2584SOL    HW2 7769   2.175   4.449   1.001
 2585SOL     OW 7770   2.201   4.233   1.006
 2585SOL    HW1 7771   2.149   4.150   0.989
 2585SOL    HW2 7772   2.278   4.238   0.942
 2586SOL     OW 7773   3.000   4.104   1.678
 2586SOL    HW1 7774   2.955   4.167   1.742
 2586SOL    HW2 7775   3.093   4.135   1.661
 2587SOL     OW 7776   3.022   3.931   1.477
 2587SOL    HW1 7777   3.022   3.995   1.554
 2587SOL    HW2 7778   3.050   3.979   1.394
 2588SOL     OW 7779   2.864   4.520   1.238
 2588SOL    HW1 7780   2.905   4.488   1.324
 2588SOL    HW2 7781   2.768   4.493   1.235
 2589SOL     OW 7782   1.902   4.268   1.114
 2589SOL    HW1 7783   1.987   4.235   1.073
 2589SOL    HW2 7784   1.915   4.283   1.212
 2590SOL     OW 7785   2.051   4.244   1.722
 2590SOL    HW1 7786   2.110   4.204   1.652
 2590SOL    HW2 7787   1.993   4.315   1.681
 2591SOL     OW 7788   3.231   4.674   1.660
 2591SOL    HW1 7789   3.270   4.763   1.680
 2591SOL    HW2 7790   3.241   4.654   1.563
 2592SOL     OW 7791   2.677   4.296   0.325
 2592SOL    HW1 7792   2.684   4.207   0.279
 2592SOL    HW2 7793   2.583   4.330   0.317
 2593SOL     OW 7794   3.519   4.328   1.206
 2593SOL    HW1 7795   3.481   4.259   1.268
 2593SOL    HW2 7796   3.601   4.292   1.162
 2594SOL     OW 7797   2.533   4.188   1.269
 2594SOL    HW1 7798   2.499   4.099   1.239
 2594SOL    HW2 7799   2.559   4.242   1.189
 2595SOL     OW 7800   2.335   4.224   0.191
 2595SOL    HW1 7801   2.396   4.304   0.195
 2595SOL    HW2 7802   2.240   4.255   0.198
 2596SOL     OW 7803   2.021   4.861   1.466
 2596SOL    HW1 7804   2.043   4.800   1.542
 2596SOL    HW2 7805   2.031   4.812   1.380
 2597SOL     OW 7806   3.209   4.783   1.234
 2597SOL    HW1 7807   3.233   4.720   1.160
 2597SOL    HW2 7808   3.119   4.823   1.216
 2598SOL     OW 7809   3.164   4.579   0.309
 2598SOL    HW1 7810   3.078   4.548   0.351
 2598SOL    HW2 7811   3.160   4.565   0.210
 2599SOL     OW 7812   2.765   3.810   0.133
 2599SOL    HW1 7813   2.816   3.811   0.047
 2599SOL    HW2 7814   2.821   3.768   0.204
 2600SOL     OW 7815   3.588   3.859   0.523
 2600SOL    HW1 7816   3.661   3.842   0.456
 2600SOL    HW2 7817   3.557   3.772   0.561
 2601SOL     OW 7818   3.142   4.651   0.672
 2601SOL    HW1 7819   3.202   4.570   0.674
 2601SOL    HW2 7820   3.182   4.720   0.612
 2602SOL     OW 7821   3.703   3.899   0.963
 2602SOL    HW1 7822   3.742   3.814   0.927
 2602SOL    HW2 7823   3.605   3.901   0.944
 2603SOL     OW 7824   2.125   4.050   0.720
 2603SOL    HW1 7825   2.046   4.101   0.686
 2603SOL    HW2 7826   2.116   4.035   0.818
 2604SOL     OW 7827   2.778   4.634   0.291
 2604SOL    HW1 7828   2.841   4.672   0.223
 2604SOL    HW2 7829   2.818   4.551   0.330
 2605SOL     OW 7830   2.876   3.960   0.971
 2605SOL    HW1 7831   2.868   3.924   0.878
 2605SOL    HW2 7832   2.874   3.884   1.036
 2606SOL     OW 7833   3.571   4.109   1.381
 2606SOL    HW1 7834   3.644   4.178   1.385
 2606SOL    HW2 7835   3.599   4.034   1.322
 2607SOL     OW 7836   1.967   4.737   1.726
 2607SOL    HW1 7837   1.890   4.704   1.780
 2607SOL    HW2 7838   2.052   4.707   1.768
 2608SOL     OW 7839   2.534   3.927   1.489
 2608SOL    HW1 7840   2.624   3.911   1.449
 2608SOL    HW2 7841   2.542   3.932   1.588
 2609SOL     OW 7842   1.937   4.069   0.033
 2609SOL    HW1 7843   1.845   4.041   0.004
 2609SOL    HW2 7844   1.968   4.146  -0.023
 2610SOL     OW 7845   3.302   4.580   1.398
 2610SOL    HW1 7846   3.245   4.632   1.335
 2610SOL    HW2 7847   3.398   4.592   1.374
 2611SOL     OW 7848   1.934   3.890   0.318
 2611SOL    HW1 7849   1.917   3.973   0.264
 2611SOL    HW2 7850   2.024   3.853   0.296
 2612SOL     OW 7851   3.045   5.059   0.119
 2612SOL    HW1 7852   2.946   5.048   0.121
 2612SOL    HW2 7853   3.079   5.074   0.212
 2613SOL     OW 7854   2.475   4.566   1.431
 2613SOL    HW1 7855   2.531   4.647   1.414
 2613SOL    HW2 7856   2.534   4.486   1.434
 2614SOL     OW 7857   2.578   4.289   1.708
 2614SOL    HW1 7858   2.597   4.354   1.782
 2614SOL    HW2 7859   2.638   4.209   1.717
 2615SOL     OW 7860   3.536   4.607   1.254
 2615SOL    HW1 7861   3.509   4.518   1.217
 2615SOL    HW2 7862   3.537   4.675   1.181
 2616SOL     OW 7863   3.087   4.049   0.449
 2616SOL    HW1 7864   3.152   3.975   0.438
 2616SOL    HW2 7865   3.107   4.099   0.533
 2617SOL     OW 7866   2.456   4.469   0.652
 2617SOL    HW1 7867   2.506   4.554   0.633
 2617SOL    HW2 7868   2.368   4.471   0.604
 2618SOL     OW 7869   3.639   4.066   1.642
 2618SOL    HW1 7870   3.622   4.097   1.548
 2618SOL    HW2 7871   3.555   4.029   1.680
 2619SOL     OW 7872   3.592   4.658   1.517
 2619SOL    HW1 7873   3.630   4.749   1.532
 2619SOL    HW2 7874   3.584   4.641   1.418
 2620SOL     OW 7875   2.721   4.680   0.861
 2620SOL    HW1 7876   2.775   4.611   0.909
 2620SOL    HW2 7877   2.689   4.749   0.927
 2621SOL     OW 7878   2.945   4.708   0.087
 2621SOL    HW1 7879   2.922   4.761   0.005
 2621SOL    HW2 7880   3.026   4.652   0.068
 2622SOL     OW 7881   1.941   4.964   0.653
 2622SOL    HW1 7882   1.940   4.917   0.741
 2622SOL    HW2 7883   2.023   4.936   0.602
 2623SOL     OW 7884   3.686   3.916   1.227
 2623SOL    HW1 7885   3.682   3.826   1.271
 2623SOL    HW2 7886   3.689   3.905   1.128
 2624SOL     OW 7887   2.290   4.148   0.520
 2624SOL    HW1 7888   2.320   4.076   0.458
 2624SOL    HW2 7889   2.251   4.108   0.603
 2625SOL     OW 7890   2.179   4.271   1.280
 2625SOL    HW1 7891   2.217   4.212   1.352
 2625SOL    HW2 7892   2.219   4.245   1.192
 2626SOL     OW 7893   3.286   3.938   1.112
 2626SOL    HW1 7894   3.338   3.873   1.167
 2626SOL    HW2 7895   3.237   4.001   1.173
 2627SOL     OW 7896   2.863   3.758   1.154
 2627SOL    HW1 7897   2.800   3.686   1.123
 2627SOL    HW2 7898   2.956   3.722   1.154
 2628SOL     OW 7899   3.214   3.776   0.168
 2628SOL    HW1 7900   3.249   3.735   0.084
 2628SOL    HW2 7901   3.124   3.738   0.188
 2629SOL     OW 7902   3.162   4.177   0.691
 2629SOL    HW1 7903   3.103   4.257   0.695
 2629SOL    HW2 7904   3.177   4.142   0.784
 2630SOL     OW 7905   3.455   3.945   0.882
 2630SOL    HW1 7906   3.371   3.944   0.936
 2630SOL    HW2 7907   3.457   4.028   0.826
 2631SOL     OW 7908   1.901   4.801   0.300
 2631SOL    HW1 7909   2.000   4.790   0.291
 2631SOL    HW2 7910   1.861   4.715   0.332
 2632SOL     OW 7911   2.092   4.352   1.975
 2632SOL    HW1 7912   1.999   4.350   2.012
 2632SOL    HW2 7913   2.093   4.313   1.883
 2633SOL     OW 7914   2.087   3.999   2.858
 2633SOL    HW1 7915   2.122   3.982   2.950
 2633SOL    HW2 7916   1.999   3.954   2.846
 2634SOL     OW 7917   1.881   4.092   2.509
 2634SOL    HW1 7918   1.799   4.135   2.548
 2634SOL    HW2 7919   1.853   4.019   2.446
 2635SOL     OW 7920   2.997   4.427   2.579
 2635SOL    HW1 7921   3.054   4.505   2.554
 2635SOL    HW2 7922   2.937   4.453   2.655
 2636SOL     OW 7923   3.617   4.331   2.093
 2636SOL    HW1 7924   3.605   4.318   1.994
 2636SOL    HW2 7925   3.587   4.250   2.142
 2637SOL     OW 7926   2.630   4.868   2.885
 2637SOL    HW1 7927   2.552   4.885   2.945
 2637SOL    HW2 7928   2.664   4.955   2.849
 2638SOL     OW 7929   2.712   4.522   3.685
 2638SOL    HW1 7930   2.708   4.598   3.750
 2638SOL    HW2 7931   2.734   4.558   3.594
 2639SOL     OW 7932   2.547   4.736   2.527
 2639SOL    HW1 7933   2.616   4.720   2.597
 2639SOL    HW2 7934   2.474   4.793   2.565
 2640SOL     OW 7935   2.300   4.116   3.361
 2640SOL    HW1 7936   2.382   4.060   3.370
 2640SOL    HW2 7937   2.219   4.058   3.365
 2641SOL     OW 7938   3.465   4.171   2.599
 2641SOL    HW1 7939   3.391   4.217   2.549
 2641SOL    HW2 7940   3.516   4.239   2.652
 2642SOL     OW 7941   2.102   4.815   2.748
 2642SOL    HW1 7942   2.116   4.731   2.800
 2642SOL    HW2 7943   2.047   4.879   2.803
 2643SOL     OW 7944   2.468   4.688   1.985
 2643SOL    HW1 7945   2.475   4.772   1.931
 2643SOL    HW2 7946   2.514   4.701   2.073
 2644SOL     OW 7947   3.456   3.838   3.342
 2644SOL    HW1 7948   3.438   3.905   3.270
 2644SOL    HW2 7949   3.453   3.884   3.431
 2645SOL     OW 7950   1.984   4.367   2.425
 2645SOL    HW1 7951   1.939   4.279   2.442
 2645SOL    HW2 7952   1.983   4.421   2.509
 2646SOL     OW 7953   3.551   4.646   2.474
 2646SOL    HW1 7954   3.646   4.617   2.482
 2646SOL    HW2 7955   3.543   4.711   2.399
 2647SOL     OW 7956   1.975   4.461   3.459
 2647SOL    HW1 7957   2.063   4.448   3.504
 2647SOL    HW2 7958   1.962   4.558   3.437
 2648SOL     OW 7959   2.671   3.728   2.364
 2648SOL    HW1 7960   2.711   3.819   2.355
 2648SOL    HW2 7961   2.571   3.736   2.370
 2649SOL     OW 7962   2.059   4.700   3.126
 2649SOL    HW1 7963   2.148   4.655   3.112
 2649SOL    HW2 7964   1.986   4.635   3.107
 2650SOL     OW 7965   3.387   4.723   2.052
 2650SOL    HW1 7966   3.324   4.647   2.065
 2650SOL    HW2 7967   3.435   4.741   2.138
 2651SOL     OW 7968   2.179   3.975   3.663
 2651SOL    HW1 7969   2.250   4.046   3.669
 2651SOL    HW2 7970   2.091   4.014   3.691
 2652SOL     OW 7971   2.460   4.453   2.132
 2652SOL    HW1 7972   2.484   4.522   2.064
 2652SOL    HW2 7973   2.382   4.486   2.186
 2653SOL     OW 7974   3.143   4.069   2.806
 2653SOL    HW1 7975   3.057   4.019   2.793
 2653SOL    HW2 7976   3.205   4.015   2.862
 2654SOL     OW 7977   2.669   4.329   3.327
 2654SOL    HW1 7978   2.622   4.326   3.416
 2654SOL    HW2 7979   2.618   4.274   3.261
 2655SOL     OW 7980   3.256   4.193   3.536
 2655SOL    HW1 7981   3.236   4.236   3.624
 2655SOL    HW2 7982   3.334   4.131   3.545
 2656SOL     OW 7983   2.835   4.614   3.434
 2656SOL    HW1 7984   2.881   4.530   3.405
 2656SOL    HW2 7985   2.779   4.648   3.359
 2657SOL     OW 7986   2.853   4.134   3.104
 2657SOL    HW1 7987   2.776   4.168   3.158
 2657SOL    HW2 7988   2.819   4.083   3.025
 2658SOL     OW 7989   2.903   4.425   2.291
 2658SOL    HW1 7990   2.929   4.421   2.387
 2658SOL    HW2 7991   2.818   4.374   2.277
 2659SOL     OW 7992   1.938   4.535   2.651
 2659SOL    HW1 7993   2.037   4.523   2.660
 2659SOL    HW2 7994   1.914   4.630   2.672
 2660SOL     OW 7995   2.727   4.072   2.057
 2660SOL    HW1 7996   2.786   4.135   2.008
 2660SOL    HW2 7997   2.746   3.978   2.028
 2661SOL     OW 7998   3.581   4.309   3.693
 2661SOL    HW1 7999   3.555   4.398   3.657
 2661SOL    HW2 8000   3.579   4.241   3.620
 2662SOL     OW 8001   2.412   3.920   2.747
 2662SOL    HW1 8002   2.407   3.915   2.847
 2662SOL    HW2 8003   2.414   4.016   2.718
 2663SOL     OW 8004   3.320   4.459   2.590
 2663SOL    HW1 8005   3.315   4.394   2.665
 2663SOL    HW2 8006   3.400   4.518   2.603
 2664SOL     OW 8007   2.064   4.009   3.360
 2664SOL    HW1 8008   1.984   4.069   3.347
 2664SOL    HW2 8009   2.054   3.960   3.446
 2665SOL     OW 8010   3.262   3.831   2.288
 2665SOL    HW1 8011   3.238   3.794   2.198
 2665SOL    HW2 8012   3.361   3.847   2.292
 2666SOL     OW 8013   2.244   4.424   2.342
 2666SOL    HW1 8014   2.289   4.334   2.339
 2666SOL    HW2 8015   2.150   4.413   2.375
 2667SOL     OW 8016   3.409   3.946   3.591
 2667SOL    HW1 8017   3.404   3.983   3.683
 2667SOL    HW2 8018   3.337   3.877   3.579
 2668SOL     OW 8019   2.476   3.846   1.979
 2668SOL    HW1 8020   2.574   3.824   1.986
 2668SOL    HW2 8021   2.445   3.829   1.886
 2669SOL     OW 8022   2.643   3.988   3.611
 2669SOL    HW1 8023   2.710   3.927   3.654
 2669SOL    HW2 8024   2.570   4.007   3.676
 2670SOL     OW 8025   3.213   4.314   3.295
 2670SOL    HW1 8026   3.241   4.271   3.380
 2670SOL    HW2 8027   3.238   4.410   3.296
 2671SOL     OW 8028   2.784   4.227   2.761
 2671SOL    HW1 8029   2.759   4.218   2.665
 2671SOL    HW2 8030   2.832   4.145   2.792
 2672SOL     OW 8031   2.401   3.788   2.374
 2672SOL    HW1 8032   2.320   3.789   2.432
 2672SOL    HW2 8033   2.404   3.871   2.319
 2673SOL     OW 8034   2.159   3.759   2.033
 2673SOL    HW1 8035   2.208   3.843   2.012
 2673SOL    HW2 8036   2.221   3.694   2.078
 2674SOL     OW 8037   2.797   3.960   2.342
 2674SOL    HW1 8038   2.749   4.001   2.264
 2674SOL    HW2 8039   2.896   3.958   2.323
 2675SOL     OW 8040   2.938   4.407   3.326
 2675SOL    HW1 8041   2.858   4.346   3.329
 2675SOL    HW2 8042   3.019   4.354   3.302
 2676SOL     OW 8043   2.894   4.273   1.878
 2676SOL    HW1 8044   2.853   4.355   1.839
 2676SOL    HW2 8045   2.958   4.299   1.951
 2677SOL     OW 8046   1.940   4.280   3.248
 2677SOL    HW1 8047   2.032   4.279   3.207
 2677SOL    HW2 8048   1.934   4.354   3.315
 2678SOL     OW 8049   2.423   3.946   3.009
 2678SOL    HW1 8050   2.461   3.862   3.046
 2678SOL    HW2 8051   2.335   3.965   3.053
 2679SOL     OW 8052   2.728   4.178   2.504
 2679SOL    HW1 8053   2.696   4.250   2.442
 2679SOL    HW2 8054   2.752   4.097   2.451
 2680SOL     OW 8055   2.879   3.763   2.615
 2680SOL    HW1 8056   2.807   3.768   2.546
 2680SOL    HW2 8057   2.855   3.694   2.684
 2681SOL     OW 8058   3.291   4.897   2.729
 2681SOL    HW1 8059   3.236   4.813   2.722
 2681SOL    HW2 8060   3.317   4.926   2.637
 2682SOL     OW 8061   3.328   4.314   2.854
 2682SOL    HW1 8062   3.298   4.219   2.861
 2682SOL    HW2 8063   3.401   4.330   2.920
 2683SOL     OW 8064   3.719   4.557   2.239
 2683SOL    HW1 8065   3.761   4.493   2.303
 2683SOL    HW2 8066   3.681   4.506   2.161
 2684SOL     OW 8067   3.252   4.299   1.940
 2684SOL    HW1 8068   3.198   4.278   2.021
 2684SOL    HW2 8069   3.343   4.258   1.949
 2685SOL     OW 8070   2.389   3.980   2.190
 2685SOL    HW1 8071   2.416   3.921   2.115
 2685SOL    HW2 8072   2.389   4.075   2.159
 2686SOL     OW 8073   3.500   4.823   2.941
 2686SOL    HW1 8074   3.505   4.904   3.000
 2686SOL    HW2 8075   3.414   4.825   2.890
 2687SOL     OW 8076   2.777   3.813   3.264
 2687SOL    HW1 8077   2.802   3.793   3.169
 2687SOL    HW2 8078   2.849   3.869   3.306
 2688SOL     OW 8079   2.272   4.537   3.113
 2688SOL    HW1 8080   2.358   4.549   3.163
 2688SOL    HW2 8081   2.230   4.450   3.140
 2689SOL     OW 8082   3.136   4.110   3.124
 2689SOL    HW1 8083   3.157   4.184   3.188
 2689SOL    HW2 8084   3.047   4.127   3.081
 2690SOL     OW 8085   2.428   4.261   2.727
 2690SOL    HW1 8086   2.440   4.327   2.653
 2690SOL    HW2 8087   2.474   4.295   2.810
 2691SOL     OW 8088   3.444   4.363   2.334
 2691SOL    HW1 8089   3.413   4.424   2.407
 2691SOL    HW2 8090   3.494   4.415   2.265
 2692SOL     OW 8091   2.264   4.475   3.460
 2692SOL    HW1 8092   2.332   4.530   3.413
 2692SOL    HW2 8093   2.304   4.387   3.487
 2693SOL     OW 8094   3.449   4.503   3.532
 2693SOL    HW1 8095   3.357   4.541   3.527
 2693SOL    HW2 8096   3.509   4.550   3.467
 2694SOL     OW 8097   2.875   3.829   3.632
 2694SOL    HW1 8098   2.881   3.914   3.580
 2694SOL    HW2 8099   2.907   3.753   3.575
 2695SOL     OW 8100   2.366   3.774   3.602
 2695SOL    HW1 8101   2.324   3.717   3.532
 2695SOL    HW2 8102   2.300   3.843   3.634
 2696SOL     OW 8103   2.435   4.594   2.891
 2696SOL    HW1 8104   2.479   4.683   2.882
 2696SOL    HW2 8105   2.372   4.594   2.968
 2697SOL     OW 8106   3.222   4.586   2.907
 2697SOL    HW1 8107   3.147   4.586   2.841
 2697SOL    HW2 8108   3.259   4.494   2.916
 2698SOL     OW 8109   3.071   4.249   2.137
 2698SOL    HW1 8110   3.084   4.165   2.191
 2698SOL    HW2 8111   3.042   4.323   2.197
 2699SOL     OW 8112   2.169   3.937   3.093
 2699SOL    HW1 8113   2.146   3.974   3.183
 2699SOL    HW2 8114   2.139   3.842   3.087
 2700SOL     OW 8115   2.594   4.358   2.926
 2700SOL    HW1 8116   2.653   4.332   2.850
 2700SOL    HW2 8117   2.566   4.454   2.915
 2701SOL     OW 8118   3.590   4.659   3.716
 2701SOL    HW1 8119   3.544   4.652   3.627
 2701SOL    HW2 8120   3.528   4.703   3.782
 2702SOL     OW 8121   2.169   3.787   2.480
 2702SOL    HW1 8122   2.158   3.881   2.513
 2702SOL    HW2 8123   2.164   3.724   2.557
 2703SOL     OW 8124   3.484   4.091   2.236
 2703SOL    HW1 8125   3.486   4.015   2.300
 2703SOL    HW2 8126   3.436   4.168   2.276
 2704SOL     OW 8127   2.885   4.490   2.828
 2704SOL    HW1 8128   2.900   4.511   2.924
 2704SOL    HW2 8129   2.855   4.395   2.819
 2705SOL     OW 8130   2.212   4.622   3.666
 2705SOL    HW1 8131   2.288   4.666   3.714
 2705SOL    HW2 8132   2.247   4.575   3.584
 2706SOL     OW 8133   3.402   3.998   1.987
 2706SOL    HW1 8134   3.341   3.923   2.010
 2706SOL    HW2 8135   3.424   4.050   2.070
 2707SOL     OW 8136   3.165   4.562   1.904
 2707SOL    HW1 8137   3.199   4.469   1.919
 2707SOL    HW2 8138   3.183   4.589   1.809
 2708SOL     OW 8139   2.181   4.534   2.811
 2708SOL    HW1 8140   2.274   4.570   2.816
 2708SOL    HW2 8141   2.175   4.449   2.863
 2709SOL     OW 8142   2.201   4.233   2.868
 2709SOL    HW1 8143   2.149   4.150   2.851
 2709SOL    HW2 8144   2.278   4.238   2.804
 2710SOL     OW 8145   3.000   4.104   3.540
 2710SOL    HW1 8146   2.955   4.167   3.604
 2710SOL    HW2 8147   3.093   4.135   3.523
 2711SOL     OW 8148   3.022   3.931   3.339
 2711SOL    HW1 8149   3.022   3.995   3.416
 2711SOL    HW2 8150   3.050   3.979   3.256
 2712SOL     OW 8151   2.864   4.520   3.100
 2712SOL    HW1 8152   2.905   4.488   3.186
 2712SOL    HW2 8153   2.768   4.493   3.097
 2713SOL     OW 8154   1.902   4.268   2.976
 2713SOL    HW1 8155   1.987   4.235   2.935
 2713SOL    HW2 8156   1.915   4.283   3.074
 2714SOL     OW 8157   2.051   4.244   3.584
 2714SOL    HW1 8158   2.110   4.204   3.514
 2714SOL    HW2 8159   1.993   4.315   3.543
 2715SOL     OW 8160   3.231   4.674   3.522
 2715SOL    HW1 8161   3.270   4.763   3.542
 2715SOL    HW2 8162   3.241   4.654   3.425
 2716SOL     OW 8163   2.677   4.296   2.187
 2716SOL    HW1 8164   2.684   4.207   2.141
 2716SOL    HW2 8165   2.583   4.330   2.179
 2717SOL     OW 8166   3.519   4.328   3.068
 2717SOL    HW1 8167   3.481   4.259   3.130
 2717SOL    HW2 8168   3.601   4.292   3.024
 2718SOL     OW 8169   2.533   4.188   3.131
 2718SOL    HW1 8170   2.499   4.099   3.101
 2718SOL    HW2 8171   2.559   4.242   3.051
 2719SOL     OW 8172   2.335   4.224   2.053
 2719SOL    HW1 8173   2.396   4.304   2.057
 2719SOL    HW2 8174   2.240   4.255   2.060
 2720SOL     OW 8175   2.021   4.861   3.328
 2720SOL    HW1 8176   2.043   4.800   3.404
 2720SOL    HW2 8177   2.031   4.812   3.242
 2721SOL     OW 8178   3.209   4.783   3.096
 2721SOL    HW1 8179   3.233   4.720   3.022
 2721SOL    HW2 8180   3.119   4.823   3.078
 2722SOL     OW 8181   3.164   4.579   2.171
 2722SOL    HW1 8182   3.078   4.548   2.213
 2722SOL    HW2 8183   3.160   4.565   2.072
 2723SOL     OW 8184   3.588   3.859   2.385
 2723SOL    HW1 8185   3.661   3.842   2.318
 2723SOL    HW2 8186   3.557   3.772   2.423
 2724SOL     OW 8187   3.142   4.651   2.534
 2724SOL    HW1 8188   3.202   4.570   2.536
 2724SOL    HW2 8189   3.182   4.720   2.474
 2725SOL     OW 8190   3.703   3.899   2.825
 2725SOL    HW1 8191   3.742   3.814   2.789
 2725SOL    HW2 8192   3.605   3.901   2.806
 2726SOL     OW 8193   2.125   4.050   2.582
 2726SOL    HW1 8194   2.046   4.101   2.548
 2726SOL    HW2 8195   2.116   4.035   2.680
 2727SOL     OW 8196   2.778   4.634   2.153
 2727SOL    HW1 8197   2.841   4.672   2.085
 2727SOL    HW2 8198   2.818   4.551   2.192
 2728SOL     OW 8199   2.876   3.960   2.833
 2728SOL    HW1 8200   2.868   3.924   2.740
 2728SOL    HW2 8201   2.874   3.884   2.898
 2729SOL     OW 8202   3.571   4.109   3.243
 2729SOL    HW1 8203   3.644   4.178   3.247
 2729SOL    HW2 8204   3.599   4.034   3.184
 2730SOL     OW 8205   1.967   4.737   3.588
 2730SOL    HW1 8206   1.890   4.704   3.642
 2730SOL    HW2 8207   2.052   4.707   3.630
 2731SOL     OW 8208   2.534   3.927   3.351
 2731SOL    HW1 8209   2.624   3.911   3.311
 2731SOL    HW2 8210   2.542   3.932   3.450
 2732SOL     OW 8211   1.937   4.069   1.895
 2732SOL    HW1 8212   1.845   4.041   1.866
 2732SOL    HW2 8213   1.968   4.146   1.839
 2733SOL     OW 8214   3.302   4.580   3.260
 2733SOL    HW1 8215   3.245   4.632   3.197
 2733SOL    HW2 8216   3.398   4.592   3.236
 2734SOL     OW 8217   1.934   3.890   2.180
 2734SOL    HW1 8218   1.917   3.973   2.126
 2734SOL    HW2 8219   2.024   3.853   2.158
 2735SOL     OW 8220   3.045   5.059   1.981
 2735SOL    HW1 8221   2.946   5.048   1.983
 2735SOL    HW2 8222   3.079   5.074   2.074
 2736SOL     OW 8223   2.475   4.566   3.293
 2736SOL    HW1 8224   2.531   4.647   3.276
 2736SOL    HW2 8225   2.534   4.486   3.296
 2737SOL     OW 8226   2.578   4.289   3.570
 2737SOL    HW1 8227   2.597   4.354   3.644
 2737SOL    HW2 8228   2.638   4.209   3.579
 2738SOL     OW 8229   3.536   4.607   3.116
 2738SOL    HW1 8230   3.509   4.518   3.079
 2738SOL    HW2 8231   3.537   4.675   3.043
 2739SOL     OW 8232   3.087   4.049   2.311
 2739SOL    HW1 8233   3.152   3.975   2.300
 2739SOL    HW2 8234   3.107   4.099   2.395
 2740SOL     OW 8235   2.456   4.469   2.514
 2740SOL    HW1 8236   2.506   4.554   2.495
 2740SOL    HW2 8237   2.368   4.471   2.466
 2741SOL     OW 8238   3.639   4.066   3.504
 2741SOL    HW1 8239   3.622   4.097   3.410
 2741SOL    HW2 8240   3.555   4.029   3.542
 2742SOL     OW 8241   3.592   4.658   3.379
 2742SOL    HW1 8242   3.630   4.749   3.394
 2742SOL    HW2 8243   3.584   4.641   3.280
 2743SOL     OW 8244   2.721   4.680   2.723
 2743SOL    HW1 8245   2.775   4.611   2.771
 2743SOL    HW2 8246   2.689   4.749   2.789
 2744SOL     OW 8247   2.945   4.708   1.949
 2744SOL    HW1 8248   2.922   4.761   1.867
 2744SOL    HW2 8249   3.026   4.652   1.930
 2745SOL     OW 8250   1.941   4.964   2.515
 2745SOL    HW1 8251   1.940   4.917   2.603
 2745SOL    HW2 8252   2.023   4.936   2.464
 2746SOL     OW 8253   3.686   3.916   3.089
 2746SOL    HW1 8254   3.682   3.826   3.133
 2746SOL    HW2 8255   3.689   3.905   2.990
 2747SOL     OW 8256   2.290   4.148   2.382
 2747SOL    HW1 8257   2.320   4.076   2.320
 2747SOL    HW2 8258   2.251   4.108   2.465
 2748SOL     OW 8259   2.179   4.271   3.142
 2748SOL    HW1 8260   2.217   4.212   3.214
 2748SOL    HW2 8261   2.219   4.245   3.054
 2749SOL     OW 8262   3.286   3.938   2.974
 2749SOL    HW1 8263   3.338   3.873   3.029
 2749SOL    HW2 8264   3.237   4.001   3.035
 2750SOL     OW 8265   2.863   3.758   3.016
 2750SOL    HW1 8266   2.800   3.686   2.985
 2750SOL    HW2 8267   2.956   3.722   3.016
 2751SOL     OW 8268   3.214   3.776   2.030
 2751SOL    HW1 8269   3.249   3.735   1.946
 2751SOL    HW2 8270   3.124   3.738   2.050
 2752SOL     OW 8271   3.162   4.177   2.553
 2752SOL    HW1 8272   3.103   4.257   2.557
 2752SOL    HW2 8273   3.177   4.142   2.646
 2753SOL     OW 8274   3.455   3.945   2.744
 2753SOL    HW1 8275   3.371   3.944   2.798
 2753SOL    HW2 8276   3.457   4.028   2.688
 2754SOL     OW 8277   1.901   4.801   2.162
 2754SOL    HW1 8278   2.000   4.790   2.153
 2754SOL    HW2 8279   1.861   4.715   2.194
 2755SOL     OW 8280   2.092   4.352   3.837
 2755SOL    HW1 8281   1.999   4.350   3.874
 2755SOL    HW2 8282   2.093   4.313   3.745
 2756SOL     OW 8283   2.087   3.999   4.720
 2756SOL    HW1 8284   2.122   3.982   4.812
 2756SOL    HW2 8285   1.999   3.954   4.708
 2757SOL     OW 8286   1.881   4.092   4.371
 2757SOL    HW1 8287   1.799   4.135   4.410
 2757SOL    HW2 8288   1.853   4.019   4.308
 2758SOL     OW 8289   2.997   4.427   4.441
 2758SOL    HW1 8290   3.054   4.505   4.416
 2758SOL    HW2 8291   2.937   4.453   4.517
 2759SOL     OW 8292   3.617   4.331   3.955
 2759SOL    HW1 8293   3.605   4.318   3.856
 2759SOL    HW2 8294   3.587   4.250   4.004
 2760SOL     OW 8295   2.547   4.736   4.389
 2760SOL    HW1 8296   2.616   4.720   4.459
 2760SOL    HW2 8297   2.474   4.793   4.427
 2761SOL     OW 8298   3.465   4.171   4.461
 2761SOL    HW1 8299   3.391   4.217   4.411
 2761SOL    HW2 8300   3.516   4.239   4.514
 2762SOL     OW 8301   2.102   4.815   4.610
 2762SOL    HW1 8302   2.116   4.731   4.662
 2762SOL    HW2 8303   2.047   4.879   4.665
 2763SOL     OW 8304   2.468   4.688   3.847
 2763SOL    HW1 8305   2.475   4.772   3.793
 2763SOL    HW2 8306   2.514   4.701   3.935
 2764SOL     OW 8307   1.984   4.367   4.287
 2764SOL    HW1 8308   1.939   4.279   4.304
 2764SOL    HW2 8309   1.983   4.421   4.371
 2765SOL     OW 8310   3.551   4.646   4.336
 2765SOL    HW1 8311   3.646   4.617   4.344
 2765SOL    HW2 8312   3.543   4.711   4.261
 2766SOL     OW 8313   2.671   3.728   4.226
 2766SOL    HW1 8314   2.711   3.819   4.217
 2766SOL    HW2 8315   2.571   3.736   4.232
 2767SOL     OW 8316   2.059   4.700   4.988
 2767SOL    HW1 8317   2.148   4.655   4.974
 2767SOL    HW2 8318   1.986   4.635   4.969
 2768SOL     OW 8319   3.387   4.723   3.914
 2768SOL    HW1 8320   3.324   4.647   3.927
 2768SOL    HW2 8321   3.435   4.741   4.000
 2769SOL     OW 8322   2.460   4.453   3.994
 2769SOL    HW1 8323   2.484   4.522   3.926
 2769SOL    HW2 8324   2.382   4.486   4.048
 2770SOL     OW 8325   3.143   4.069   4.668
 2770SOL    HW1 8326   3.057   4.019   4.655
 2770SOL    HW2 8327   3.205   4.015   4.724
 2771SOL     OW 8328   2.903   4.425   4.153
 2771SOL    HW1 8329   2.929   4.421   4.249
 2771SOL    HW2 8330   2.818   4.374   4.139
 2772SOL     OW 8331   1.938   4.535   4.513
 2772SOL    HW1 8332   2.037   4.523   4.522
 2772SOL    HW2 8333   1.914   4.630   4.534
 2773SOL     OW 8334   2.727   4.072   3.919
 2773SOL    HW1 8335   2.786   4.135   3.870
 2773SOL    HW2 8336   2.746   3.978   3.890
 2774SOL     OW 8337   2.412   3.920   4.609
 2774SOL    HW1 8338   2.407   3.915   4.709
 2774SOL    HW2 8339   2.414   4.016   4.580
 2775SOL     OW 8340   3.320   4.459   4.452
 2775SOL    HW1 8341   3.315   4.394   4.527
 2775SOL    HW2 8342   3.400   4.518   4.465
 2776SOL     OW 8343   3.262   3.831   4.150
 2776SOL    HW1 8344   3.238   3.794   4.060
 2776SOL    HW2 8345   3.361   3.847   4.154
 2777SOL     OW 8346   2.244   4.424   4.204
 2777SOL    HW1 8347   2.289   4.334   4.201
 2777SOL    HW2 8348   2.150   4.413   4.237
 2778SOL     OW 8349   2.476   3.846   3.841
 2778SOL    HW1 8350   2.574   3.824   3.848
 2778SOL    HW2 8351   2.445   3.829   3.748
 2779SOL     OW 8352   2.784   4.227   4.623
 2779SOL    HW1 8353   2.759   4.218   4.527
 2779SOL    HW2 8354   2.832   4.145   4.654
 2780SOL     OW 8355   2.401   3.788   4.236
 2780SOL    HW1 8356   2.320   3.789   4.294
 2780SOL    HW2 8357   2.404   3.871   4.181
 2781SOL     OW 8358   2.159   3.759   3.895
 2781SOL    HW1 8359   2.208   3.843   3.874
 2781SOL    HW2 8360   2.221   3.694   3.940
 2782SOL     OW 8361   2.797   3.960   4.204
 2782SOL    HW1 8362   2.749   4.001   4.126
 2782SOL    HW2 8363   2.896   3.958   4.185
 2783SOL     OW 8364   2.894   4.273   3.740
 2783SOL    HW1 8365   2.853   4.355   3.701
 2783SOL    HW2 8366   2.958   4.299   3.813
 2784SOL     OW 8367   2.728   4.178   4.366
 2784SOL    HW1 8368   2.696   4.250   4.304
 2784SOL    HW2 8369   2.752   4.097   4.313
 2785SOL     OW 8370   2.879   3.763   4.477
 2785SOL    HW1 8371   2.807   3.768   4.408
 2785SOL    HW2 8372   2.855   3.694   4.546
 2786SOL     OW 8373   3.291   4.897   4.591
 2786SOL    HW1 8374   3.236   4.813   4.584
 2786SOL    HW2 8375   3.317   4.926   4.499
 2787SOL     OW 8376   3.328   4.314   4.716
 2787SOL    HW1 8377   3.298   4.219   4.723
 2787SOL    HW2 8378   3.401   4.330   4.782
 2788SOL     OW 8379   3.719   4.557   4.101
 2788SOL    HW1 8380   3.761   4.493   4.165
 2788SOL    HW2 8381   3.681   4.506   4.023
 2789SOL     OW 8382   3.252   4.299   3.802
 2789SOL    HW1 8383   3.198   4.278   3.883
 2789SOL    HW2 8384   3.343   4.258   3.811
 2790SOL     OW 8385   2.389   3.980   4.052
 2790SOL    HW1 8386   2.416   3.921   3.977
 2790SOL    HW2 8387   2.389   4.075   4.021
 2791SOL     OW 8388   3.500   4.823   4.803
 2791SOL    HW1 8389   3.505   4.904   4.862
 2791SOL    HW2 8390   3.414   4.825   4.752
 2792SOL     OW 8391   2.428   4.261   4.589
 2792SOL    HW1 8392   2.440   4.327   4.515
 2792SOL    HW2 8393   2.474   4.295   4.672
 2793SOL     OW 8394   3.444   4.363   4.196
 2793SOL    HW1 8395   3.413   4.424   4.269
 2793SOL    HW2 8396   3.494   4.415   4.127
 2794SOL     OW 8397   2.435   4.594   4.753
 2794SOL    HW1 8398   2.479   4.683   4.744
 2794SOL    HW2 8399   2.372   4.594   4.830
 2795SOL     OW 8400   3.071   4.249   3.999
 2795SOL    HW1 8401   3.084   4.165   4.053
 2795SOL    HW2 8402   3.042   4.323   4.059
 2796SOL     OW 8403   2.169   3.937   4.955
 2796SOL    HW1 8404   2.146   3.974   5.045
 2796SOL    HW2 8405   2.139   3.842   4.949
 2797SOL     OW 8406   2.594   4.358   4.788
 2797SOL    HW1 8407   2.653   4.332   4.712
 2797SOL    HW2 8408   2.566   4.454   4.777
 2798SOL     OW 8409   2.169   3.787   4.342
 2798SOL    HW1 8410   2.158   3.881   4.375
 2798SOL    HW2 8411   2.164   3.724   4.419
 2799SOL     OW 8412   3.484   4.091   4.098
 2799SOL    HW1 8413   3.486   4.015   4.162
 2799SOL    HW2 8414   3.436   4.168   4.138
 2800SOL     OW 8415   3.402   3.998   3.849
 2800SOL    HW1 8416   3.341   3.923   3.872
 2800SOL    HW2 8417   3.424   4.050   3.932
 2801SOL     OW 8418   3.165   4.562   3.766
 2801SOL    HW1 8419   3.199   4.469   3.781
 2801SOL    HW2 8420   3.183   4.589   3.671
 2802SOL     OW 8421   2.181   4.534   4.673
 2802SOL    HW1 8422   2.274   4.570   4.678
 2802SOL    HW2 8423   2.175   4.449   4.725
 2803SOL     OW 8424   2.201   4.233   4.730
 2803SOL    HW1 8425   2.149   4.150   4.713
 2803SOL    HW2 8426   2.278   4.238   4.666
 2804SOL     OW 8427   2.864   4.520   4.962
 2804SOL    HW1 8428   2.905   4.488   5.048
 2804SOL    HW2 8429   2.768   4.493   4.959
 2805SOL     OW 8430   2.677   4.296   4.049
 2805SOL    HW1 8431   2.684   4.207   4.003
 2805SOL    HW2 8432   2.583   4.330   4.041
 2806SOL     OW 8433   2.533   4.188   4.993
 2806SOL    HW1 8434   2.499   4.099   4.963
 2806SOL    HW2 8435   2.559   4.242   4.913
 2807SOL     OW 8436   2.335   4.224   3.915
 2807SOL    HW1 8437   2.396   4.304   3.919
 2807SOL    HW2 8438   2.240   4.255   3.922
 2808SOL     OW 8439   3.164   4.579   4.033
 2808SOL    HW1 8440   3.078   4.548   4.075
 2808SOL    HW2 8441   3.160   4.565   3.934
 2809SOL     OW 8442   3.588   3.859   4.247
 2809SOL    HW1 8443   3.661   3.842   4.180
 2809SOL    HW2 8444   3.557   3.772   4.285
 2810SOL     OW 8445   3.142   4.651   4.396
 2810SOL    HW1 8446   3.202   4.570   4.398
 2810SOL    HW2 8447   3.182   4.720   4.336
 2811SOL     OW 8448   3.703   3.899   4.687
 2811SOL    HW1 8449   3.742   3.814   4.651
 2811SOL    HW2 8450   3.605   3.901   4.668
 2812SOL     OW 8451   2.125   4.050   4.444
 2812SOL    HW1 8452   2.046   4.101   4.410
 2812SOL    HW2 8453   2.116   4.035   4.542
 2813SOL     OW 8454   2.778   4.634   4.015
 2813SOL    HW1 8455   2.841   4.672   3.947
 2813SOL    HW2 8456   2.818   4.551   4.054
 2814SOL     OW 8457   1.937   4.069   3.757
 2814SOL    HW1 8458   1.845   4.041   3.728
 2814SOL    HW2 8459   1.968   4.146   3.701
 2815SOL     OW 8460   1.934   3.890   4.042
 2815SOL    HW1 8461   1.917   3.973   3.988
 2815SOL    HW2 8462   2.024   3.853   4.020
 2816SOL     OW 8463   3.045   5.059   3.843
 2816SOL    HW1 8464   2.946   5.048   3.845
 2816SOL    HW2 8465   3.079   5.074   3.936
 2817SOL     OW 8466   3.536   4.607   4.978
 2817SOL    HW1 8467   3.509   4.518   4.941
 2817SOL    HW2 8468   3.537   4.675   4.905
 2818SOL     OW 8469   3.087   4.049   4.173
 2818SOL    HW1 8470   3.152   3.975   4.162
 2818SOL    HW2 8471   3.107   4.099   4.257
 2819SOL     OW 8472   2.456   4.469   4.376
 2819SOL    HW1 8473   2.506   4.554   4.357
 2819SOL    HW2 8474   2.368   4.471   4.328
 2820SOL     OW 8475   2.721   4.680   4.585
 2820SOL    HW1 8476   2.775   4.611   4.633
 2820SOL    HW2 8477   2.689   4.749   4.651
 2821SOL     OW 8478   2.945   4.708   3.811
 2821SOL    HW1 8479   2.922   4.761   3.729
 2821SOL    HW2 8480   3.026   4.652   3.792
 2822SOL     OW 8481   1.941   4.964   4.377
 2822SOL    HW1 8482   1.940   4.917   4.465
 2822SOL    HW2 8483   2.023   4.936   4.326
 2823SOL     OW 8484   3.686   3.916   4.951
 2823SOL    HW1 8485   3.682   3.826   4.995
 2823SOL    HW2 8486   3.689   3.905   4.852
 2824SOL     OW 8487   2.290   4.148   4.244
 2824SOL    HW1 8488   2.320   4.076   4.182
 2824SOL    HW2 8489   2.251   4.108   4.327
 2825SOL     OW 8490   3.214   3.776   3.892
 2825SOL    HW1 8491   3.249   3.735   3.808
 2825SOL    HW2 8492   3.124   3.738   3.912
 2826SOL     OW 8493   3.162   4.177   4.415
 2826SOL    HW1 8494   3.103   4.257   4.419
 2826SOL    HW2 8495   3.177   4.142   4.508
 2827SOL     OW 8496   3.455   3.945   4.606
 2827SOL    HW1 8497   3.371   3.944   4.660
 2827SOL    HW2 8498   3.457   4.028   4.550
 2828SOL     OW 8499   1.901   4.801   4.024
 2828SOL    HW1 8500   2.000   4.790   4.015
 2828SOL    HW2 8501   1.861   4.715   4.056
 2829SOL     OW 8502   3.954   0.628   0.113
 2829SOL    HW1 8503   3.861   0.626   0.150
 2829SOL    HW2 8504   3.955   0.589   0.021
 2830SOL     OW 8505   3.949   0.275   0.996
 2830SOL    HW1 8506   3.984   0.258   1.088
 2830SOL    HW2 8507   3.861   0.230   0.984
 2831SOL     OW 8508   3.743   0.368   0.647
 2831SOL    HW1 8509   3.661   0.411   0.686
 2831SOL    HW2 8510   3.715   0.295   0.584
 2832SOL     OW 8511   4.293   1.275   1.165
 2832SOL    HW1 8512   4.200   1.268   1.128
 2832SOL    HW2 8513   4.304   1.364   1.209
 2833SOL     OW 8514   4.492   1.144   1.023
 2833SOL    HW1 8515   4.414   1.161   1.083
 2833SOL    HW2 8516   4.526   1.231   0.987
 2834SOL     OW 8517   4.574   0.798   1.823
 2834SOL    HW1 8518   4.570   0.874   1.888
 2834SOL    HW2 8519   4.596   0.834   1.732
 2835SOL     OW 8520   4.409   1.012   0.665
 2835SOL    HW1 8521   4.478   0.996   0.735
 2835SOL    HW2 8522   4.336   1.069   0.703
 2836SOL     OW 8523   4.410   1.161   1.803
 2836SOL    HW1 8524   4.470   1.240   1.817
 2836SOL    HW2 8525   4.324   1.192   1.762
 2837SOL     OW 8526   4.059   1.435   1.061
 2837SOL    HW1 8527   3.981   1.404   1.008
 2837SOL    HW2 8528   4.117   1.493   1.004
 2838SOL     OW 8529   4.162   0.392   1.499
 2838SOL    HW1 8530   4.244   0.336   1.508
 2838SOL    HW2 8531   4.081   0.334   1.503
 2839SOL     OW 8532   3.955   1.713   0.483
 2839SOL    HW1 8533   3.989   1.790   0.537
 2839SOL    HW2 8534   3.999   1.713   0.393
 2840SOL     OW 8535   3.954   1.434   0.538
 2840SOL    HW1 8536   3.928   1.530   0.538
 2840SOL    HW2 8537   3.883   1.380   0.583
 2841SOL     OW 8538   3.964   1.091   0.886
 2841SOL    HW1 8539   3.978   1.007   0.938
 2841SOL    HW2 8540   3.909   1.155   0.941
 2842SOL     OW 8541   4.344   1.786   1.439
 2842SOL    HW1 8542   4.252   1.769   1.474
 2842SOL    HW2 8543   4.372   1.878   1.465
 2843SOL     OW 8544   4.330   0.964   0.123
 2843SOL    HW1 8545   4.337   1.048   0.069
 2843SOL    HW2 8546   4.376   0.977   0.211
 2844SOL     OW 8547   3.846   0.643   0.563
 2844SOL    HW1 8548   3.801   0.555   0.580
 2844SOL    HW2 8549   3.845   0.697   0.647
 2845SOL     OW 8550   3.751   1.596   0.117
 2845SOL    HW1 8551   3.732   1.500   0.138
 2845SOL    HW2 8552   3.718   1.654   0.192
 2846SOL     OW 8553   3.837   0.737   1.597
 2846SOL    HW1 8554   3.925   0.724   1.642
 2846SOL    HW2 8555   3.824   0.834   1.575
 2847SOL     OW 8556   4.337   1.365   0.726
 2847SOL    HW1 8557   4.288   1.278   0.735
 2847SOL    HW2 8558   4.314   1.408   0.639
 2848SOL     OW 8559   4.533   0.004   0.502
 2848SOL    HW1 8560   4.573   0.095   0.493
 2848SOL    HW2 8561   4.433   0.012   0.508
 2849SOL     OW 8562   3.921   0.976   1.264
 2849SOL    HW1 8563   4.010   0.931   1.250
 2849SOL    HW2 8564   3.848   0.911   1.245
 2850SOL     OW 8565   4.041   0.251   1.801
 2850SOL    HW1 8566   4.112   0.322   1.807
 2850SOL    HW2 8567   3.953   0.290   1.829
 2851SOL     OW 8568   4.322   0.729   0.270
 2851SOL    HW1 8569   4.346   0.798   0.202
 2851SOL    HW2 8570   4.244   0.762   0.324
 2852SOL     OW 8571   4.531   0.605   1.465
 2852SOL    HW1 8572   4.484   0.602   1.554
 2852SOL    HW2 8573   4.480   0.550   1.399
 2853SOL     OW 8574   4.697   0.890   1.572
 2853SOL    HW1 8575   4.743   0.806   1.543
 2853SOL    HW2 8576   4.641   0.924   1.497
 2854SOL     OW 8577   4.715   0.410   1.242
 2854SOL    HW1 8578   4.638   0.444   1.296
 2854SOL    HW2 8579   4.681   0.359   1.163
 2855SOL     OW 8580   4.765   0.701   0.429
 2855SOL    HW1 8581   4.791   0.697   0.525
 2855SOL    HW2 8582   4.680   0.650   0.415
 2856SOL     OW 8583   3.800   0.811   0.789
 2856SOL    HW1 8584   3.899   0.799   0.798
 2856SOL    HW2 8585   3.776   0.906   0.810
 2857SOL     OW 8586   3.854   1.821   1.571
 2857SOL    HW1 8587   3.844   1.806   1.670
 2857SOL    HW2 8588   3.768   1.857   1.535
 2858SOL     OW 8589   4.589   0.348   0.195
 2858SOL    HW1 8590   4.648   0.411   0.146
 2858SOL    HW2 8591   4.608   0.254   0.166
 2859SOL     OW 8592   4.274   0.196   0.885
 2859SOL    HW1 8593   4.269   0.191   0.985
 2859SOL    HW2 8594   4.276   0.292   0.856
 2860SOL     OW 8595   4.732   1.456   0.477
 2860SOL    HW1 8596   4.686   1.528   0.425
 2860SOL    HW2 8597   4.728   1.476   0.575
 2861SOL     OW 8598   4.075   1.801   0.853
 2861SOL    HW1 8599   4.125   1.715   0.859
 2861SOL    HW2 8600   4.140   1.878   0.850
 2862SOL     OW 8601   4.045   0.943   0.242
 2862SOL    HW1 8602   4.127   0.982   0.200
 2862SOL    HW2 8603   4.018   0.861   0.193
 2863SOL     OW 8604   4.185   1.266   1.727
 2863SOL    HW1 8605   4.135   1.267   1.641
 2863SOL    HW2 8606   4.122   1.248   1.803
 2864SOL     OW 8607   3.926   0.285   1.498
 2864SOL    HW1 8608   3.846   0.345   1.485
 2864SOL    HW2 8609   3.916   0.236   1.584
 2865SOL     OW 8610   4.188   1.743   0.323
 2865SOL    HW1 8611   4.221   1.782   0.409
 2865SOL    HW2 8612   4.264   1.736   0.258
 2866SOL     OW 8613   3.973   1.785   1.241
 2866SOL    HW1 8614   4.030   1.720   1.291
 2866SOL    HW2 8615   3.957   1.752   1.148
 2867SOL     OW 8616   4.106   0.700   0.480
 2867SOL    HW1 8617   4.151   0.610   0.477
 2867SOL    HW2 8618   4.012   0.689   0.513
 2868SOL     OW 8619   4.338   0.122   0.117
 2868SOL    HW1 8620   4.436   0.100   0.124
 2868SOL    HW2 8621   4.307   0.105   0.024
 2869SOL     OW 8622   4.505   0.264   1.749
 2869SOL    HW1 8623   4.572   0.203   1.792
 2869SOL    HW2 8624   4.432   0.283   1.814
 2870SOL     OW 8625   4.612   1.514   1.195
 2870SOL    HW1 8626   4.589   1.489   1.101
 2870SOL    HW2 8627   4.673   1.445   1.234
 2871SOL     OW 8628   4.527   1.402   0.924
 2871SOL    HW1 8629   4.617   1.416   0.882
 2871SOL    HW2 8630   4.456   1.404   0.853
 2872SOL     OW 8631   4.646   0.503   0.899
 2872SOL    HW1 8632   4.621   0.494   0.803
 2872SOL    HW2 8633   4.694   0.421   0.930
 2873SOL     OW 8634   4.263   0.064   0.512
 2873SOL    HW1 8635   4.182   0.065   0.570
 2873SOL    HW2 8636   4.266   0.147   0.457
 2874SOL     OW 8637   5.158   1.188   0.041
 2874SOL    HW1 8638   5.190   1.112   0.098
 2874SOL    HW2 8639   5.066   1.215   0.071
 2875SOL     OW 8640   4.021   0.035   0.171
 2875SOL    HW1 8641   4.070   0.119   0.150
 2875SOL    HW2 8642   4.083  -0.030   0.216
 2876SOL     OW 8643   4.659   0.236   0.480
 2876SOL    HW1 8644   4.611   0.277   0.402
 2876SOL    HW2 8645   4.758   0.234   0.461
 2877SOL     OW 8646   4.951   1.570   0.793
 2877SOL    HW1 8647   4.972   1.644   0.728
 2877SOL    HW2 8648   5.019   1.570   0.866
 2878SOL     OW 8649   4.183   1.152   0.741
 2878SOL    HW1 8650   4.112   1.125   0.806
 2878SOL    HW2 8651   4.157   1.124   0.648
 2879SOL     OW 8652   4.756   0.549   0.016
 2879SOL    HW1 8653   4.715   0.631  -0.023
 2879SOL    HW2 8654   4.820   0.575   0.089
 2880SOL     OW 8655   3.802   0.556   1.386
 2880SOL    HW1 8656   3.894   0.555   1.345
 2880SOL    HW2 8657   3.796   0.630   1.453
 2881SOL     OW 8658   4.285   0.222   1.147
 2881SOL    HW1 8659   4.323   0.138   1.184
 2881SOL    HW2 8660   4.197   0.241   1.191
 2882SOL     OW 8661   4.590   0.454   0.642
 2882SOL    HW1 8662   4.558   0.526   0.580
 2882SOL    HW2 8663   4.614   0.373   0.589
 2883SOL     OW 8664   4.741   0.039   0.753
 2883SOL    HW1 8665   4.669   0.044   0.684
 2883SOL    HW2 8666   4.717  -0.030   0.822
 2884SOL     OW 8667   4.212   1.385   0.174
 2884SOL    HW1 8668   4.125   1.370   0.221
 2884SOL    HW2 8669   4.195   1.411   0.079
 2885SOL     OW 8670   4.251   0.256   0.328
 2885SOL    HW1 8671   4.278   0.197   0.253
 2885SOL    HW2 8672   4.251   0.351   0.297
 2886SOL     OW 8673   4.639   0.089   1.402
 2886SOL    HW1 8674   4.664   0.069   1.307
 2886SOL    HW2 8675   4.711   0.145   1.444
 2887SOL     OW 8676   4.704   1.116   1.719
 2887SOL    HW1 8677   4.605   1.122   1.729
 2887SOL    HW2 8678   4.727   1.036   1.663
 2888SOL     OW 8679   4.429   1.050   0.368
 2888SOL    HW1 8680   4.415   1.057   0.467
 2888SOL    HW2 8681   4.513   0.999   0.350
 2889SOL     OW 8682   4.134   0.813   1.251
 2889SOL    HW1 8683   4.220   0.825   1.301
 2889SOL    HW2 8684   4.092   0.726   1.278
 2890SOL     OW 8685   3.788   1.564   1.331
 2890SOL    HW1 8686   3.742   1.646   1.297
 2890SOL    HW2 8687   3.886   1.583   1.340
 2891SOL     OW 8688   4.091   1.100   0.501
 2891SOL    HW1 8689   4.084   1.183   0.445
 2891SOL    HW2 8690   4.095   1.020   0.441
 2892SOL     OW 8691   4.290   0.537   0.865
 2892SOL    HW1 8692   4.302   0.603   0.791
 2892SOL    HW2 8693   4.336   0.571   0.948
 2893SOL     OW 8694   4.078   1.510   1.329
 2893SOL    HW1 8695   4.057   1.466   1.242
 2893SOL    HW2 8696   4.175   1.536   1.332
 2894SOL     OW 8697   4.126   0.751   1.598
 2894SOL    HW1 8698   4.194   0.806   1.551
 2894SOL    HW2 8699   4.166   0.663   1.625
 2895SOL     OW 8700   4.737   0.105   1.770
 2895SOL    HW1 8701   4.743   0.190   1.718
 2895SOL    HW2 8702   4.769   0.029   1.713
 2896SOL     OW 8703   4.228   0.050   1.740
 2896SOL    HW1 8704   4.186  -0.007   1.670
 2896SOL    HW2 8705   4.162   0.119   1.772
 2897SOL     OW 8706   4.297   0.870   1.029
 2897SOL    HW1 8707   4.341   0.959   1.020
 2897SOL    HW2 8708   4.234   0.870   1.106
 2898SOL     OW 8709   4.933   0.525   0.275
 2898SOL    HW1 8710   4.946   0.441   0.329
 2898SOL    HW2 8711   4.904   0.599   0.335
 2899SOL     OW 8712   4.031   0.213   1.231
 2899SOL    HW1 8713   4.008   0.250   1.321
 2899SOL    HW2 8714   4.001   0.118   1.225
 2900SOL     OW 8715   3.761   1.310   1.282
 2900SOL    HW1 8716   3.814   1.261   1.350
 2900SOL    HW2 8717   3.783   1.408   1.287
 2901SOL     OW 8718   4.456   0.634   1.064
 2901SOL    HW1 8719   4.515   0.608   0.988
 2901SOL    HW2 8720   4.428   0.730   1.053
 2902SOL     OW 8721   4.031   0.063   0.618
 2902SOL    HW1 8722   4.020   0.157   0.651
 2902SOL    HW2 8723   4.026   0.000   0.695
 2903SOL     OW 8724   4.747   0.766   0.966
 2903SOL    HW1 8725   4.762   0.787   1.062
 2903SOL    HW2 8726   4.717   0.671   0.957
 2904SOL     OW 8727   4.704   1.573   1.700
 2904SOL    HW1 8728   4.684   1.617   1.612
 2904SOL    HW2 8729   4.743   1.482   1.684
 2905SOL     OW 8730   4.074   0.898   1.804
 2905SOL    HW1 8731   4.150   0.942   1.852
 2905SOL    HW2 8732   4.109   0.851   1.722
 2906SOL     OW 8733   4.043   0.810   0.949
 2906SOL    HW1 8734   4.136   0.846   0.954
 2906SOL    HW2 8735   4.037   0.725   1.001
 2907SOL     OW 8736   4.063   0.509   1.006
 2907SOL    HW1 8737   4.011   0.426   0.989
 2907SOL    HW2 8738   4.140   0.514   0.942
 2908SOL     OW 8739   3.732   1.326   0.200
 2908SOL    HW1 8740   3.639   1.347   0.169
 2908SOL    HW2 8741   3.742   1.227   0.213
 2909SOL     OW 8742   3.812   1.801   0.927
 2909SOL    HW1 8743   3.770   1.715   0.900
 2909SOL    HW2 8744   3.906   1.804   0.893
 2910SOL     OW 8745   4.228   1.568   0.910
 2910SOL    HW1 8746   4.294   1.642   0.919
 2910SOL    HW2 8747   4.272   1.489   0.868
 2911SOL     OW 8748   4.726   0.796   1.238
 2911SOL    HW1 8749   4.767   0.764   1.324
 2911SOL    HW2 8750   4.630   0.769   1.235
 2912SOL     OW 8751   3.764   0.544   1.114
 2912SOL    HW1 8752   3.849   0.511   1.073
 2912SOL    HW2 8753   3.777   0.559   1.212
 2913SOL     OW 8754   3.913   0.520   1.722
 2913SOL    HW1 8755   3.972   0.480   1.652
 2913SOL    HW2 8756   3.855   0.591   1.681
 2914SOL     OW 8757   4.539   0.572   0.325
 2914SOL    HW1 8758   4.546   0.483   0.279
 2914SOL    HW2 8759   4.445   0.606   0.317
 2915SOL     OW 8760   3.976   1.564   1.744
 2915SOL    HW1 8761   3.946   1.621   1.820
 2915SOL    HW2 8762   3.969   1.467   1.770
 2916SOL     OW 8763   4.395   0.464   1.269
 2916SOL    HW1 8764   4.361   0.375   1.239
 2916SOL    HW2 8765   4.421   0.518   1.189
 2917SOL     OW 8766   4.654   1.678   1.465
 2917SOL    HW1 8767   4.630   1.660   1.370
 2917SOL    HW2 8768   4.684   1.772   1.475
 2918SOL     OW 8769   4.197   0.500   0.191
 2918SOL    HW1 8770   4.258   0.580   0.195
 2918SOL    HW2 8771   4.102   0.531   0.198
 2919SOL     OW 8772   3.883   1.137   1.466
 2919SOL    HW1 8773   3.905   1.076   1.542
 2919SOL    HW2 8774   3.893   1.088   1.380
 2920SOL     OW 8775   3.807   1.258   1.022
 2920SOL    HW1 8776   3.802   1.257   1.122
 2920SOL    HW2 8777   3.724   1.217   0.984
 2921SOL     OW 8778   4.412   1.662   1.716
 2921SOL    HW1 8779   4.356   1.743   1.725
 2921SOL    HW2 8780   4.464   1.666   1.630
 2922SOL     OW 8781   4.627   0.086   0.133
 2922SOL    HW1 8782   4.678   0.087   0.047
 2922SOL    HW2 8783   4.683   0.044   0.204
 2923SOL     OW 8784   3.854   1.794   1.851
 2923SOL    HW1 8785   3.813   1.720   1.904
 2923SOL    HW2 8786   3.918   1.845   1.909
 2924SOL     OW 8787   5.004   0.927   0.672
 2924SOL    HW1 8788   5.064   0.846   0.674
 2924SOL    HW2 8789   5.044   0.996   0.612
 2925SOL     OW 8790   4.554   1.273   1.422
 2925SOL    HW1 8791   4.549   1.306   1.517
 2925SOL    HW2 8792   4.468   1.292   1.376
 2926SOL     OW 8793   4.396   1.616   0.154
 2926SOL    HW1 8794   4.405   1.626   0.055
 2926SOL    HW2 8795   4.356   1.527   0.175
 2927SOL     OW 8796   3.987   0.326   0.720
 2927SOL    HW1 8797   3.908   0.377   0.686
 2927SOL    HW2 8798   3.978   0.311   0.818
 2928SOL     OW 8799   4.546   1.002   1.372
 2928SOL    HW1 8800   4.586   1.001   1.280
 2928SOL    HW2 8801   4.556   1.094   1.412
 2929SOL     OW 8802   4.640   0.910   0.291
 2929SOL    HW1 8803   4.703   0.948   0.223
 2929SOL    HW2 8804   4.680   0.827   0.330
 2930SOL     OW 8805   4.096   1.288   1.490
 2930SOL    HW1 8806   4.083   1.381   1.456
 2930SOL    HW2 8807   4.012   1.236   1.477
 2931SOL     OW 8808   4.763   1.098   0.696
 2931SOL    HW1 8809   4.693   1.051   0.750
 2931SOL    HW2 8810   4.822   1.030   0.653
 2932SOL     OW 8811   4.738   0.236   0.971
 2932SOL    HW1 8812   4.730   0.200   0.878
 2932SOL    HW2 8813   4.736   0.160   1.036
 2933SOL     OW 8814   4.314   1.487   0.491
 2933SOL    HW1 8815   4.356   1.429   0.421
 2933SOL    HW2 8816   4.270   1.566   0.447
 2934SOL     OW 8817   3.979   1.348   0.290
 2934SOL    HW1 8818   3.883   1.349   0.263
 2934SOL    HW2 8819   3.991   1.401   0.374
 2935SOL     OW 8820   3.829   1.013   1.726
 2935SOL    HW1 8821   3.752   0.980   1.780
 2935SOL    HW2 8822   3.914   0.983   1.768
 2936SOL     OW 8823   4.396   0.203   1.489
 2936SOL    HW1 8824   4.486   0.187   1.449
 2936SOL    HW2 8825   4.404   0.208   1.588
 2937SOL     OW 8826   3.799   0.345   0.033
 2937SOL    HW1 8827   3.707   0.317   0.004
 2937SOL    HW2 8828   3.830   0.422  -0.023
 2938SOL     OW 8829   3.796   0.166   0.318
 2938SOL    HW1 8830   3.779   0.249   0.264
 2938SOL    HW2 8831   3.886   0.129   0.296
 2939SOL     OW 8832   4.337   0.842   1.431
 2939SOL    HW1 8833   4.393   0.923   1.414
 2939SOL    HW2 8834   4.396   0.762   1.434
 2940SOL     OW 8835   4.440   0.565   1.708
 2940SOL    HW1 8836   4.459   0.630   1.782
 2940SOL    HW2 8837   4.500   0.485   1.717
 2941SOL     OW 8838   4.114   1.741   1.560
 2941SOL    HW1 8839   4.023   1.782   1.558
 2941SOL    HW2 8840   4.107   1.647   1.592
 2942SOL     OW 8841   4.949   0.325   0.449
 2942SOL    HW1 8842   5.014   0.251   0.438
 2942SOL    HW2 8843   4.969   0.375   0.533
 2943SOL     OW 8844   4.318   0.745   0.652
 2943SOL    HW1 8845   4.368   0.830   0.633
 2943SOL    HW2 8846   4.230   0.747   0.604
 2944SOL     OW 8847   4.583   1.374   0.016
 2944SOL    HW1 8848   4.537   1.389   0.104
 2944SOL    HW2 8849   4.627   1.459  -0.014
 2945SOL     OW 8850   4.385   1.790   0.953
 2945SOL    HW1 8851   4.339   1.878   0.940
 2945SOL    HW2 8852   4.484   1.802   0.946
 2946SOL     OW 8853   4.583   0.956   0.861
 2946SOL    HW1 8854   4.637   0.887   0.909
 2946SOL    HW2 8855   4.551   1.025   0.927
 2947SOL     OW 8856   4.807   0.984   0.087
 2947SOL    HW1 8857   4.784   1.037   0.005
 2947SOL    HW2 8858   4.888   0.928   0.068
 2948SOL     OW 8859   3.945   1.314   1.844
 2948SOL    HW1 8860   3.880   1.241   1.823
 2948SOL    HW2 8861   3.949   1.328   1.942
 2949SOL     OW 8862   3.803   1.240   0.653
 2949SOL    HW1 8863   3.802   1.193   0.741
 2949SOL    HW2 8864   3.885   1.212   0.602
 2950SOL     OW 8865   4.396   1.391   1.624
 2950SOL    HW1 8866   4.318   1.341   1.662
 2950SOL    HW2 8867   4.393   1.486   1.655
 2951SOL     OW 8868   4.152   0.424   0.520
 2951SOL    HW1 8869   4.182   0.352   0.458
 2951SOL    HW2 8870   4.113   0.384   0.603
 2952SOL     OW 8871   4.041   0.547   1.280
 2952SOL    HW1 8872   4.079   0.488   1.352
 2952SOL    HW2 8873   4.081   0.521   1.192
 2953SOL     OW 8874   4.536   1.586   0.687
 2953SOL    HW1 8875   4.568   1.596   0.593
 2953SOL    HW2 8876   4.457   1.524   0.689
 2954SOL     OW 8877   4.725   0.034   1.154
 2954SOL    HW1 8878   4.662  -0.038   1.123
 2954SOL    HW2 8879   4.818  -0.002   1.154
 2955SOL     OW 8880   4.494   1.330   0.301
 2955SOL    HW1 8881   4.448   1.243   0.318
 2955SOL    HW2 8882   4.585   1.327   0.342
 2956SOL     OW 8883   4.342   1.567   1.284
 2956SOL    HW1 8884   4.337   1.649   1.341
 2956SOL    HW2 8885   4.431   1.564   1.239
 2957SOL     OW 8886   3.763   1.077   0.300
 2957SOL    HW1 8887   3.862   1.066   0.291
 2957SOL    HW2 8888   3.723   0.991   0.332
 2958SOL     OW 8889   4.599   1.646   0.337
 2958SOL    HW1 8890   4.522   1.611   0.283
 2958SOL    HW2 8891   4.567   1.717   0.399
 2959SOL     OW 8892   3.954   0.628   1.975
 2959SOL    HW1 8893   3.861   0.626   2.012
 2959SOL    HW2 8894   3.955   0.589   1.883
 2960SOL     OW 8895   3.949   0.275   2.858
 2960SOL    HW1 8896   3.984   0.258   2.950
 2960SOL    HW2 8897   3.861   0.230   2.846
 2961SOL     OW 8898   3.743   0.368   2.509
 2961SOL    HW1 8899   3.661   0.411   2.548
 2961SOL    HW2 8900   3.715   0.295   2.446
 2962SOL     OW 8901   4.293   1.275   3.027
 2962SOL    HW1 8902   4.200   1.268   2.990
 2962SOL    HW2 8903   4.304   1.364   3.071
 2963SOL     OW 8904   4.492   1.144   2.885
 2963SOL    HW1 8905   4.414   1.161   2.945
 2963SOL    HW2 8906   4.526   1.231   2.849
 2964SOL     OW 8907   4.574   0.798   3.685
 2964SOL    HW1 8908   4.570   0.874   3.750
 2964SOL    HW2 8909   4.596   0.834   3.594
 2965SOL     OW 8910   4.409   1.012   2.527
 2965SOL    HW1 8911   4.478   0.996   2.597
 2965SOL    HW2 8912   4.336   1.069   2.565
 2966SOL     OW 8913   4.410   1.161   3.665
 2966SOL    HW1 8914   4.470   1.240   3.679
 2966SOL    HW2 8915   4.324   1.192   3.624
 2967SOL     OW 8916   4.059   1.435   2.923
 2967SOL    HW1 8917   3.981   1.404   2.870
 2967SOL    HW2 8918   4.117   1.493   2.866
 2968SOL     OW 8919   4.162   0.392   3.361
 2968SOL    HW1 8920   4.244   0.336   3.370
 2968SOL    HW2 8921   4.081   0.334   3.365
 2969SOL     OW 8922   3.955   1.713   2.345
 2969SOL    HW1 8923   3.989   1.790   2.399
 2969SOL    HW2 8924   3.999   1.713   2.255
 2970SOL     OW 8925   3.954   1.434   2.400
 2970SOL    HW1 8926   3.928   1.530   2.400
 2970SOL    HW2 8927   3.883   1.380   2.445
 2971SOL     OW 8928   3.964   1.091   2.748
 2971SOL    HW1 8929   3.978   1.007   2.800
 2971SOL    HW2 8930   3.909   1.155   2.803
 2972SOL     OW 8931   4.344   1.786   3.301
 2972SOL    HW1 8932   4.252   1.769   3.336
 2972SOL    HW2 8933   4.372   1.878   3.327
 2973SOL     OW 8934   4.330   0.964   1.985
 2973SOL    HW1 8935   4.337   1.048   1.931
 2973SOL    HW2 8936   4.376   0.977   2.073
 2974SOL     OW 8937   3.846   0.643   2.425
 2974SOL    HW1 8938   3.801   0.555   2.442
 2974SOL    HW2 8939   3.845   0.697   2.509
 2975SOL     OW 8940   3.751   1.596   1.979
 2975SOL    HW1 8941   3.732   1.500   2.000
 2975SOL    HW2 8942   3.718   1.654   2.054
 2976SOL     OW 8943   3.837   0.737   3.459
 2976SOL    HW1 8944   3.925   0.724   3.504
 2976SOL    HW2 8945   3.824   0.834   3.437
 2977SOL     OW 8946   4.337   1.365   2.588
 2977SOL    HW1 8947   4.288   1.278   2.597
 2977SOL    HW2 8948   4.314   1.408   2.501
 2978SOL     OW 8949   4.533   0.004   2.364
 2978SOL    HW1 8950   4.573   0.095   2.355
 2978SOL    HW2 8951   4.433   0.012   2.370
 2979SOL     OW 8952   3.921   0.976   3.126
 2979SOL    HW1 8953   4.010   0.931   3.112
 2979SOL    HW2 8954   3.848   0.911   3.107
 2980SOL     OW 8955   4.041   0.251   3.663
 2980SOL    HW1 8956   4.112   0.322   3.669
 2980SOL    HW2 8957   3.953   0.290   3.691
 2981SOL     OW 8958   4.322   0.729   2.132
 2981SOL    HW1 8959   4.346   0.798   2.064
 2981SOL    HW2 8960   4.244   0.762   2.186
 2982SOL     OW 8961   4.531   0.605   3.327
 2982SOL    HW1 8962   4.484   0.602   3.416
 2982SOL    HW2 8963   4.480   0.550   3.261
 2983SOL     OW 8964   4.697   0.890   3.434
 2983SOL    HW1 8965   4.743   0.806   3.405
 2983SOL    HW2 8966   4.641   0.924   3.359
 2984SOL     OW 8967   4.715   0.410   3.104
 2984SOL    HW1 8968   4.638   0.444   3.158
 2984SOL    HW2 8969   4.681   0.359   3.025
 2985SOL     OW 8970   4.765   0.701   2.291
 2985SOL    HW1 8971   4.791   0.697   2.387
 2985SOL    HW2 8972   4.680   0.650   2.277
 2986SOL     OW 8973   3.800   0.811   2.651
 2986SOL    HW1 8974   3.899   0.799   2.660
 2986SOL    HW2 8975   3.776   0.906   2.672
 2987SOL     OW 8976   3.854   1.821   3.433
 2987SOL    HW1 8977   3.844   1.806   3.532
 2987SOL    HW2 8978   3.768   1.857   3.397
 2988SOL     OW 8979   4.589   0.348   2.057
 2988SOL    HW1 8980   4.648   0.411   2.008
 2988SOL    HW2 8981   4.608   0.254   2.028
 2989SOL     OW 8982   4.274   0.196   2.747
 2989SOL    HW1 8983   4.269   0.191   2.847
 2989SOL    HW2 8984   4.276   0.292   2.718
 2990SOL     OW 8985   4.732   1.456   2.339
 2990SOL    HW1 8986   4.686   1.528   2.287
 2990SOL    HW2 8987   4.728   1.476   2.437
 2991SOL     OW 8988   4.075   1.801   2.715
 2991SOL    HW1 8989   4.125   1.715   2.721
 2991SOL    HW2 8990   4.140   1.878   2.712
 2992SOL     OW 8991   4.045   0.943   2.104
 2992SOL    HW1 8992   4.127   0.982   2.062
 2992SOL    HW2 8993   4.018   0.861   2.055
 2993SOL     OW 8994   4.185   1.266   3.589
 2993SOL    HW1 8995   4.135   1.267   3.503
 2993SOL    HW2 8996   4.122   1.248   3.665
 2994SOL     OW 8997   3.926   0.285   3.360
 2994SOL    HW1 8998   3.846   0.345   3.347
 2994SOL    HW2 8999   3.916   0.236   3.446
 2995SOL     OW 9000   4.188   1.743   2.185
 2995SOL    HW1 9001   4.221   1.782   2.271
 2995SOL    HW2 9002   4.264   1.736   2.120
 2996SOL     OW 9003   3.973   1.785   3.103
 2996SOL    HW1 9004   4.030   1.720   3.153
 2996SOL    HW2 9005   3.957   1.752   3.010
 2997SOL     OW 9006   4.106   0.700   2.342
 2997SOL    HW1 9007   4.151   0.610   2.339
 2997SOL    HW2 9008   4.012   0.689   2.375
 2998SOL     OW 9009   4.338   0.122   1.979
 2998SOL    HW1 9010   4.436   0.100   1.986
 2998SOL    HW2 9011   4.307   0.105   1.886
 2999SOL     OW 9012   4.505   0.264   3.611
 2999SOL    HW1 9013   4.572   0.203   3.654
 2999SOL    HW2 9014   4.432   0.283   3.676
 3000SOL     OW 9015   4.612   1.514   3.057
 3000SOL    HW1 9016   4.589   1.489   2.963
 3000SOL    HW2 9017   4.673   1.445   3.096
 3001SOL     OW 9018   4.527   1.402   2.786
 3001SOL    HW1 9019   4.617   1.416   2.744
 3001SOL    HW2 9020   4.456   1.404   2.715
 3002SOL     OW 9021   4.646   0.503   2.761
 3002SOL    HW1 9022   4.621   0.494   2.665
 3002SOL    HW2 9023   4.694   0.421   2.792
 3003SOL     OW 9024   4.263   0.064   2.374
 3003SOL    HW1 9025   4.182   0.065   2.432
 3003SOL    HW2 9026   4.266   0.147   2.319
 3004SOL     OW 9027   4.021   0.035   2.033
 3004SOL    HW1 9028   4.070   0.119   2.012
 3004SOL    HW2 9029   4.083  -0.030   2.078
 3005SOL     OW 9030   4.659   0.236   2.342
 3005SOL    HW1 9031   4.611   0.277   2.264
 3005SOL    HW2 9032   4.758   0.234   2.323
 3006SOL     OW 9033   4.951   1.570   2.655
 3006SOL    HW1 9034   4.972   1.644   2.590
 3006SOL    HW2 9035   5.019   1.570   2.728
 3007SOL     OW 9036   4.183   1.152   2.603
 3007SOL    HW1 9037   4.112   1.125   2.668
 3007SOL    HW2 9038   4.157   1.124   2.510
 3008SOL     OW 9039   4.756   0.549   1.878
 3008SOL    HW1 9040   4.715   0.631   1.839
 3008SOL    HW2 9041   4.820   0.575   1.951
 3009SOL     OW 9042   3.802   0.556   3.248
 3009SOL    HW1 9043   3.894   0.555   3.207
 3009SOL    HW2 9044   3.796   0.630   3.315
 3010SOL     OW 9045   4.285   0.222   3.009
 3010SOL    HW1 9046   4.323   0.138   3.046
 3010SOL    HW2 9047   4.197   0.241   3.053
 3011SOL     OW 9048   4.590   0.454   2.504
 3011SOL    HW1 9049   4.558   0.526   2.442
 3011SOL    HW2 9050   4.614   0.373   2.451
 3012SOL     OW 9051   4.741   0.039   2.615
 3012SOL    HW1 9052   4.669   0.044   2.546
 3012SOL    HW2 9053   4.717  -0.030   2.684
 3013SOL     OW 9054   4.212   1.385   2.036
 3013SOL    HW1 9055   4.125   1.370   2.083
 3013SOL    HW2 9056   4.195   1.411   1.941
 3014SOL     OW 9057   4.251   0.256   2.190
 3014SOL    HW1 9058   4.278   0.197   2.115
 3014SOL    HW2 9059   4.251   0.351   2.159
 3015SOL     OW 9060   4.639   0.089   3.264
 3015SOL    HW1 9061   4.664   0.069   3.169
 3015SOL    HW2 9062   4.711   0.145   3.306
 3016SOL     OW 9063   4.704   1.116   3.581
 3016SOL    HW1 9064   4.605   1.122   3.591
 3016SOL    HW2 9065   4.727   1.036   3.525
 3017SOL     OW 9066   4.429   1.050   2.230
 3017SOL    HW1 9067   4.415   1.057   2.329
 3017SOL    HW2 9068   4.513   0.999   2.212
 3018SOL     OW 9069   4.134   0.813   3.113
 3018SOL    HW1 9070   4.220   0.825   3.163
 3018SOL    HW2 9071   4.092   0.726   3.140
 3019SOL     OW 9072   3.788   1.564   3.193
 3019SOL    HW1 9073   3.742   1.646   3.159
 3019SOL    HW2 9074   3.886   1.583   3.202
 3020SOL     OW 9075   4.091   1.100   2.363
 3020SOL    HW1 9076   4.084   1.183   2.307
 3020SOL    HW2 9077   4.095   1.020   2.303
 3021SOL     OW 9078   4.290   0.537   2.727
 3021SOL    HW1 9079   4.302   0.603   2.653
 3021SOL    HW2 9080   4.336   0.571   2.810
 3022SOL     OW 9081   4.078   1.510   3.191
 3022SOL    HW1 9082   4.057   1.466   3.104
 3022SOL    HW2 9083   4.175   1.536   3.194
 3023SOL     OW 9084   4.126   0.751   3.460
 3023SOL    HW1 9085   4.194   0.806   3.413
 3023SOL    HW2 9086   4.166   0.663   3.487
 3024SOL     OW 9087   4.737   0.105   3.632
 3024SOL    HW1 9088   4.743   0.190   3.580
 3024SOL    HW2 9089   4.769   0.029   3.575
 3025SOL     OW 9090   4.228   0.050   3.602
 3025SOL    HW1 9091   4.186  -0.007   3.532
 3025SOL    HW2 9092   4.162   0.119   3.634
 3026SOL     OW 9093   4.297   0.870   2.891
 3026SOL    HW1 9094   4.341   0.959   2.882
 3026SOL    HW2 9095   4.234   0.870   2.968
 3027SOL     OW 9096   4.933   0.525   2.137
 3027SOL    HW1 9097   4.946   0.441   2.191
 3027SOL    HW2 9098   4.904   0.599   2.197
 3028SOL     OW 9099   4.031   0.213   3.093
 3028SOL    HW1 9100   4.008   0.250   3.183
 3028SOL    HW2 9101   4.001   0.118   3.087
 3029SOL     OW 9102   3.761   1.310   3.144
 3029SOL    HW1 9103   3.814   1.261   3.212
 3029SOL    HW2 9104   3.783   1.408   3.149
 3030SOL     OW 9105   4.456   0.634   2.926
 3030SOL    HW1 9106   4.515   0.608   2.850
 3030SOL    HW2 9107   4.428   0.730   2.915
 3031SOL     OW 9108   4.031   0.063   2.480
 3031SOL    HW1 9109   4.020   0.157   2.513
 3031SOL    HW2 9110   4.026   0.000   2.557
 3032SOL     OW 9111   4.747   0.766   2.828
 3032SOL    HW1 9112   4.762   0.787   2.924
 3032SOL    HW2 9113   4.717   0.671   2.819
 3033SOL     OW 9114   4.704   1.573   3.562
 3033SOL    HW1 9115   4.684   1.617   3.474
 3033SOL    HW2 9116   4.743   1.482   3.546
 3034SOL     OW 9117   4.074   0.898   3.666
 3034SOL    HW1 9118   4.150   0.942   3.714
 3034SOL    HW2 9119   4.109   0.851   3.584
 3035SOL     OW 9120   4.043   0.810   2.811
 3035SOL    HW1 9121   4.136   0.846   2.816
 3035SOL    HW2 9122   4.037   0.725   2.863
 3036SOL     OW 9123   4.063   0.509   2.868
 3036SOL    HW1 9124   4.011   0.426   2.851
 3036SOL    HW2 9125   4.140   0.514   2.804
 3037SOL     OW 9126   3.732   1.326   2.062
 3037SOL    HW1 9127   3.639   1.347   2.031
 3037SOL    HW2 9128   3.742   1.227   2.075
 3038SOL     OW 9129   3.812   1.801   2.789
 3038SOL    HW1 9130   3.770   1.715   2.762
 3038SOL    HW2 9131   3.906   1.804   2.755
 3039SOL     OW 9132   4.228   1.568   2.772
 3039SOL    HW1 9133   4.294   1.642   2.781
 3039SOL    HW2 9134   4.272   1.489   2.730
 3040SOL     OW 9135   4.726   0.796   3.100
 3040SOL    HW1 9136   4.767   0.764   3.186
 3040SOL    HW2 9137   4.630   0.769   3.097
 3041SOL     OW 9138   3.764   0.544   2.976
 3041SOL    HW1 9139   3.849   0.511   2.935
 3041SOL    HW2 9140   3.777   0.559   3.074
 3042SOL     OW 9141   3.913   0.520   3.584
 3042SOL    HW1 9142   3.972   0.480   3.514
 3042SOL    HW2 9143   3.855   0.591   3.543
 3043SOL     OW 9144   4.539   0.572   2.187
 3043SOL    HW1 9145   4.546   0.483   2.141
 3043SOL    HW2 9146   4.445   0.606   2.179
 3044SOL     OW 9147   3.976   1.564   3.606
 3044SOL    HW1 9148   3.946   1.621   3.682
 3044SOL    HW2 9149   3.969   1.467   3.632
 3045SOL     OW 9150   4.395   0.464   3.131
 3045SOL    HW1 9151   4.361   0.375   3.101
 3045SOL    HW2 9152   4.421   0.518   3.051
 3046SOL     OW 9153   4.654   1.678   3.327
 3046SOL    HW1 9154   4.630   1.660   3.232
 3046SOL    HW2 9155   4.684   1.772   3.337
 3047SOL     OW 9156   4.197   0.500   2.053
 3047SOL    HW1 9157   4.258   0.580   2.057
 3047SOL    HW2 9158   4.102   0.531   2.060
 3048SOL     OW 9159   3.883   1.137   3.328
 3048SOL    HW1 9160   3.905   1.076   3.404
 3048SOL    HW2 9161   3.893   1.088   3.242
 3049SOL     OW 9162   3.807   1.258   2.884
 3049SOL    HW1 9163   3.802   1.257   2.984
 3049SOL    HW2 9164   3.724   1.217   2.846
 3050SOL     OW 9165   4.412   1.662   3.578
 3050SOL    HW1 9166   4.356   1.743   3.587
 3050SOL    HW2 9167   4.464   1.666   3.492
 3051SOL     OW 9168   3.854   1.794   3.713
 3051SOL    HW1 9169   3.813   1.720   3.766
 3051SOL    HW2 9170   3.918   1.845   3.771
 3052SOL     OW 9171   5.004   0.927   2.534
 3052SOL    HW1 9172   5.064   0.846   2.536
 3052SOL    HW2 9173   5.044   0.996   2.474
 3053SOL     OW 9174   4.554   1.273   3.284
 3053SOL    HW1 9175   4.549   1.306   3.379
 3053SOL    HW2 9176   4.468   1.292   3.238
 3054SOL     OW 9177   4.396   1.616   2.016
 3054SOL    HW1 9178   4.405   1.626   1.917
 3054SOL    HW2 9179   4.356   1.527   2.037
 3055SOL     OW 9180   3.987   0.326   2.582
 3055SOL    HW1 9181   3.908   0.377   2.548
 3055SOL    HW2 9182   3.978   0.311   2.680
 3056SOL     OW 9183   4.546   1.002   3.234
 3056SOL    HW1 9184   4.586   1.001   3.142
 3056SOL    HW2 9185   4.556   1.094   3.274
 3057SOL     OW 9186   4.640   0.910   2.153
 3057SOL    HW1 9187   4.703   0.948   2.085
 3057SOL    HW2 9188   4.680   0.827   2.192
 3058SOL     OW 9189   4.096   1.288   3.352
 3058SOL    HW1 9190   4.083   1.381   3.318
 3058SOL    HW2 9191   4.012   1.236   3.339
 3059SOL     OW 9192   4.763   1.098   2.558
 3059SOL    HW1 9193   4.693   1.051   2.612
 3059SOL    HW2 9194   4.822   1.030   2.515
 3060SOL     OW 9195   4.738   0.236   2.833
 3060SOL    HW1 9196   4.730   0.200   2.740
 3060SOL    HW2 9197   4.736   0.160   2.898
 3061SOL     OW 9198   4.314   1.487   2.353
 3061SOL    HW1 9199   4.356   1.429   2.283
 3061SOL    HW2 9200   4.270   1.566   2.309
 3062SOL     OW 9201   3.979   1.348   2.152
 3062SOL    HW1 9202   3.883   1.349   2.125
 3062SOL    HW2 9203   3.991   1.401   2.236
 3063SOL     OW 9204   3.829   1.013   3.588
 3063SOL    HW1 9205   3.752   0.980   3.642
 3063SOL    HW2 9206   3.914   0.983   3.630
 3064SOL     OW 9207   4.396   0.203   3.351
 3064SOL    HW1 9208   4.486   0.187   3.311
 3064SOL    HW2 9209   4.404   0.208   3.450
 3065SOL     OW 9210   3.799   0.345   1.895
 3065SOL    HW1 9211   3.707   0.317   1.866
 3065SOL    HW2 9212   3.830   0.422   1.839
 3066SOL     OW 9213   3.796   0.166   2.180
 3066SOL    HW1 9214   3.779   0.249   2.126
 3066SOL    HW2 9215   3.886   0.129   2.158
 3067SOL     OW 9216   4.337   0.842   3.293
 3067SOL    HW1 9217   4.393   0.923   3.276
 3067SOL    HW2 9218   4.396   0.762   3.296
 3068SOL     OW 9219   4.440   0.565   3.570
 3068SOL    HW1 9220   4.459   0.630   3.644
 3068SOL    HW2 9221   4.500   0.485   3.579
 3069SOL     OW 9222   4.114   1.741   3.422
 3069SOL    HW1 9223   4.023   1.782   3.420
 3069SOL    HW2 9224   4.107   1.647   3.454
 3070SOL     OW 9225   4.949   0.325   2.311
 3070SOL    HW1 9226   5.014   0.251   2.300
 3070SOL    HW2 9227   4.969   0.375   2.395
 3071SOL     OW 9228   4.318   0.745   2.514
 3071SOL    HW1 9229   4.368   0.830   2.495
 3071SOL    HW2 9230   4.230   0.747   2.466
 3072SOL     OW 9231   4.583   1.374   1.878
 3072SOL    HW1 9232   4.537   1.389   1.966
 3072SOL    HW2 9233   4.627   1.459   1.848
 3073SOL     OW 9234   4.385   1.790   2.815
 3073SOL    HW1 9235   4.339   1.878   2.802
 3073SOL    HW2 9236   4.484   1.802   2.808
 3074SOL     OW 9237   4.583   0.956   2.723
 3074SOL    HW1 9238   4.637   0.887   2.771
 3074SOL    HW2 9239   4.551   1.025   2.789
 3075SOL     OW 9240   3.945   1.314   3.706
 3075SOL    HW1 9241   3.880   1.241   3.685
 3075SOL    HW2 9242   3.949   1.328   3.804
 3076SOL     OW 9243   3.803   1.240   2.515
 3076SOL    HW1 9244   3.802   1.193   2.603
 3076SOL    HW2 9245   3.885   1.212   2.464
 3077SOL     OW 9246   4.396   1.391   3.486
 3077SOL    HW1 9247   4.318   1.341   3.524
 3077SOL    HW2 9248   4.393   1.486   3.517
 3078SOL     OW 9249   4.152   0.424   2.382
 3078SOL    HW1 9250   4.182   0.352   2.320
 3078SOL    HW2 9251   4.113   0.384   2.465
 3079SOL     OW 9252   4.041   0.547   3.142
 3079SOL    HW1 9253   4.079   0.488   3.214
 3079SOL    HW2 9254   4.081   0.521   3.054
 3080SOL     OW 9255   4.536   1.586   2.549
 3080SOL    HW1 9256   4.568   1.596   2.455
 3080SOL    HW2 9257   4.457   1.524   2.551
 3081SOL     OW 9258   4.725   0.034   3.016
 3081SOL    HW1 9259   4.662  -0.038   2.985
 3081SOL    HW2 9260   4.818  -0.002   3.016
 3082SOL     OW 9261   4.494   1.330   2.163
 3082SOL    HW1 9262   4.448   1.243   2.180
 3082SOL    HW2 9263   4.585   1.327   2.204
 3083SOL     OW 9264   4.342   1.567   3.146
 3083SOL    HW1 9265   4.337   1.649   3.203
 3083SOL    HW2 9266   4.431   1.564   3.101
 3084SOL     OW 9267   3.763   1.077   2.162
 3084SOL    HW1 9268   3.862   1.066   2.153
 3084SOL    HW2 9269   3.723   0.991   2.194
 3085SOL     OW 9270   4.599   1.646   2.199
 3085SOL    HW1 9271   4.522   1.611   2.145
 3085SOL    HW2 9272   4.567   1.717   2.261
 3086SOL     OW 9273   3.954   0.628   3.837
 3086SOL    HW1 9274   3.861   0.626   3.874
 3086SOL    HW2 9275   3.955   0.589   3.745
 3087SOL     OW 9276   3.949   0.275   4.720
 3087SOL    HW1 9277   3.984   0.258   4.812
 3087SOL    HW2 9278   3.861   0.230   4.708
 3088SOL     OW 9279   3.743   0.368   4.371
 3088SOL    HW1 9280   3.661   0.411   4.410
 3088SOL    HW2 9281   3.715   0.295   4.308
 3089SOL     OW 9282   4.492   1.144   4.747
 3089SOL    HW1 9283   4.414   1.161   4.807
 3089SOL    HW2 9284   4.526   1.231   4.711
 3090SOL     OW 9285   4.409   1.012   4.389
 3090SOL    HW1 9286   4.478   0.996   4.459
 3090SOL    HW2 9287   4.336   1.069   4.427
 3091SOL     OW 9288   4.059   1.435   4.785
 3091SOL    HW1 9289   3.981   1.404   4.732
 3091SOL    HW2 9290   4.117   1.493   4.728
 3092SOL     OW 9291   3.955   1.713   4.207
 3092SOL    HW1 9292   3.989   1.790   4.261
 3092SOL    HW2 9293   3.999   1.713   4.117
 3093SOL     OW 9294   3.954   1.434   4.262
 3093SOL    HW1 9295   3.928   1.530   4.262
 3093SOL    HW2 9296   3.883   1.380   4.307
 3094SOL     OW 9297   3.964   1.091   4.610
 3094SOL    HW1 9298   3.978   1.007   4.662
 3094SOL    HW2 9299   3.909   1.155   4.665
 3095SOL     OW 9300   4.330   0.964   3.847
 3095SOL    HW1 9301   4.337   1.048   3.793
 3095SOL    HW2 9302   4.376   0.977   3.935
 3096SOL     OW 9303   3.846   0.643   4.287
 3096SOL    HW1 9304   3.801   0.555   4.304
 3096SOL    HW2 9305   3.845   0.697   4.371
 3097SOL     OW 9306   3.751   1.596   3.841
 3097SOL    HW1 9307   3.732   1.500   3.862
 3097SOL    HW2 9308   3.718   1.654   3.916
 3098SOL     OW 9309   4.337   1.365   4.450
 3098SOL    HW1 9310   4.288   1.278   4.459
 3098SOL    HW2 9311   4.314   1.408   4.363
 3099SOL     OW 9312   4.533   0.004   4.226
 3099SOL    HW1 9313   4.573   0.095   4.217
 3099SOL    HW2 9314   4.433   0.012   4.232
 3100SOL     OW 9315   4.322   0.729   3.994
 3100SOL    HW1 9316   4.346   0.798   3.926
 3100SOL    HW2 9317   4.244   0.762   4.048
 3101SOL     OW 9318   4.765   0.701   4.153
 3101SOL    HW1 9319   4.791   0.697   4.249
 3101SOL    HW2 9320   4.680   0.650   4.139
 3102SOL     OW 9321   3.800   0.811   4.513
 3102SOL    HW1 9322   3.899   0.799   4.522
 3102SOL    HW2 9323   3.776   0.906   4.534
 3103SOL     OW 9324   4.589   0.348   3.919
 3103SOL    HW1 9325   4.648   0.411   3.870
 3103SOL    HW2 9326   4.608   0.254   3.890
 3104SOL     OW 9327   4.274   0.196   4.609
 3104SOL    HW1 9328   4.269   0.191   4.709
 3104SOL    HW2 9329   4.276   0.292   4.580
 3105SOL     OW 9330   4.732   1.456   4.201
 3105SOL    HW1 9331   4.686   1.528   4.149
 3105SOL    HW2 9332   4.728   1.476   4.299
 3106SOL     OW 9333   4.075   1.801   4.577
 3106SOL    HW1 9334   4.125   1.715   4.583
 3106SOL    HW2 9335   4.140   1.878   4.574
 3107SOL     OW 9336   4.045   0.943   3.966
 3107SOL    HW1 9337   4.127   0.982   3.924
 3107SOL    HW2 9338   4.018   0.861   3.917
 3108SOL     OW 9339   4.188   1.743   4.047
 3108SOL    HW1 9340   4.221   1.782   4.133
 3108SOL    HW2 9341   4.264   1.736   3.982
 3109SOL     OW 9342   3.973   1.785   4.965
 3109SOL    HW1 9343   4.030   1.720   5.015
 3109SOL    HW2 9344   3.957   1.752   4.872
 3110SOL     OW 9345   4.106   0.700   4.204
 3110SOL    HW1 9346   4.151   0.610   4.201
 3110SOL    HW2 9347   4.012   0.689   4.237
 3111SOL     OW 9348   4.338   0.122   3.841
 3111SOL    HW1 9349   4.436   0.100   3.848
 3111SOL    HW2 9350   4.307   0.105   3.748
 3112SOL     OW 9351   4.527   1.402   4.648
 3112SOL    HW1 9352   4.617   1.416   4.606
 3112SOL    HW2 9353   4.456   1.404   4.577
 3113SOL     OW 9354   4.646   0.503   4.623
 3113SOL    HW1 9355   4.621   0.494   4.527
 3113SOL    HW2 9356   4.694   0.421   4.654
 3114SOL     OW 9357   4.263   0.064   4.236
 3114SOL    HW1 9358   4.182   0.065   4.294
 3114SOL    HW2 9359   4.266   0.147   4.181
 3115SOL     OW 9360   4.021   0.035   3.895
 3115SOL    HW1 9361   4.070   0.119   3.874
 3115SOL    HW2 9362   4.083  -0.030   3.940
 3116SOL     OW 9363   4.659   0.236   4.204
 3116SOL    HW1 9364   4.611   0.277   4.126
 3116SOL    HW2 9365   4.758   0.234   4.185
 3117SOL     OW 9366   4.951   1.570   4.517
 3117SOL    HW1 9367   4.972   1.644   4.452
 3117SOL    HW2 9368   5.019   1.570   4.590
 3118SOL     OW 9369   4.183   1.152   4.465
 3118SOL    HW1 9370   4.112   1.125   4.530
 3118SOL    HW2 9371   4.157   1.124   4.372
 3119SOL     OW 9372   4.756   0.549   3.740
 3119SOL    HW1 9373   4.715   0.631   3.701
 3119SOL    HW2 9374   4.820   0.575   3.813
 3120SOL     OW 9375   4.590   0.454   4.366
 3120SOL    HW1 9376   4.558   0.526   4.304
 3120SOL    HW2 9377   4.614   0.373   4.313
 3121SOL     OW 9378   4.741   0.039   4.477
 3121SOL    HW1 9379   4.669   0.044   4.408
 3121SOL    HW2 9380   4.717  -0.030   4.546
 3122SOL     OW 9381   4.212   1.385   3.898
 3122SOL    HW1 9382   4.125   1.370   3.945
 3122SOL    HW2 9383   4.195   1.411   3.803
 3123SOL     OW 9384   4.251   0.256   4.052
 3123SOL    HW1 9385   4.278   0.197   3.977
 3123SOL    HW2 9386   4.251   0.351   4.021
 3124SOL     OW 9387   4.429   1.050   4.092
 3124SOL    HW1 9388   4.415   1.057   4.191
 3124SOL    HW2 9389   4.513   0.999   4.074
 3125SOL     OW 9390   4.091   1.100   4.225
 3125SOL    HW1 9391   4.084   1.183   4.169
 3125SOL    HW2 9392   4.095   1.020   4.165
 3126SOL     OW 9393   4.290   0.537   4.589
 3126SOL    HW1 9394   4.302   0.603   4.515
 3126SOL    HW2 9395   4.336   0.571   4.672
 3127SOL     OW 9396   4.297   0.870   4.753
 3127SOL    HW1 9397   4.341   0.959   4.744
 3127SOL    HW2 9398   4.234   0.870   4.830
 3128SOL     OW 9399   4.933   0.525   3.999
 3128SOL    HW1 9400   4.946   0.441   4.053
 3128SOL    HW2 9401   4.904   0.599   4.059
 3129SOL     OW 9402   4.456   0.634   4.788
 3129SOL    HW1 9403   4.515   0.608   4.712
 3129SOL    HW2 9404   4.428   0.730   4.777
 3130SOL     OW 9405   4.031   0.063   4.342
 3130SOL    HW1 9406   4.020   0.157   4.375
 3130SOL    HW2 9407   4.026   0.000   4.419
 3131SOL     OW 9408   4.043   0.810   4.673
 3131SOL    HW1 9409   4.136   0.846   4.678
 3131SOL    HW2 9410   4.037   0.725   4.725
 3132SOL     OW 9411   4.063   0.509   4.730
 3132SOL    HW1 9412   4.011   0.426   4.713
 3132SOL    HW2 9413   4.140   0.514   4.666
 3133SOL     OW 9414   3.732   1.326   3.924
 3133SOL    HW1 9415   3.639   1.347   3.893
 3133SOL    HW2 9416   3.742   1.227   3.937
 3134SOL     OW 9417   3.812   1.801   4.651
 3134SOL    HW1 9418   3.770   1.715   4.624
 3134SOL    HW2 9419   3.906   1.804   4.617
 3135SOL     OW 9420   4.228   1.568   4.634
 3135SOL    HW1 9421   4.294   1.642   4.643
 3135SOL    HW2 9422   4.272   1.489   4.592
 3136SOL     OW 9423   4.726   0.796   4.962
 3136SOL    HW1 9424   4.767   0.764   5.048
 3136SOL    HW2 9425   4.630   0.769   4.959
 3137SOL     OW 9426   4.539   0.572   4.049
 3137SOL    HW1 9427   4.546   0.483   4.003
 3137SOL    HW2 9428   4.445   0.606   4.041
 3138SOL     OW 9429   4.395   0.464   4.993
 3138SOL    HW1 9430   4.361   0.375   4.963
 3138SOL    HW2 9431   4.421   0.518   4.913
 3139SOL     OW 9432   4.197   0.500   3.915
 3139SOL    HW1 9433   4.258   0.580   3.919
 3139SOL    HW2 9434   4.102   0.531   3.922
 3140SOL     OW 9435   3.807   1.258   4.746
 3140SOL    HW1 9436   3.802   1.257   4.846
 3140SOL    HW2 9437   3.724   1.217   4.708
 3141SOL     OW 9438   5.004   0.927   4.396
 3141SOL    HW1 9439   5.064   0.846   4.398
 3141SOL    HW2 9440   5.044   0.996   4.336
 3142SOL     OW 9441   4.396   1.616   3.878
 3142SOL    HW1 9442   4.405   1.626   3.779
 3142SOL    HW2 9443   4.356   1.527   3.899
 3143SOL     OW 9444   3.987   0.326   4.444
 3143SOL    HW1 9445   3.908   0.377   4.410
 3143SOL    HW2 9446   3.978   0.311   4.542
 3144SOL     OW 9447   4.640   0.910   4.015
 3144SOL    HW1 9448   4.703   0.948   3.947
 3144SOL    HW2 9449   4.680   0.827   4.054
 3145SOL     OW 9450   4.763   1.098   4.420
 3145SOL    HW1 9451   4.693   1.051   4.474
 3145SOL    HW2 9452   4.822   1.030   4.377
 3146SOL     OW 9453   4.314   1.487   4.215
 3146SOL    HW1 9454   4.356   1.429   4.145
 3146SOL    HW2 9455   4.270   1.566   4.171
 3147SOL     OW 9456   3.979   1.348   4.014
 3147SOL    HW1 9457   3.883   1.349   3.987
 3147SOL    HW2 9458   3.991   1.401   4.098
 3148SOL     OW 9459   3.799   0.345   3.757
 3148SOL    HW1 9460   3.707   0.317   3.728
 3148SOL    HW2 9461   3.830   0.422   3.701
 3149SOL     OW 9462   3.796   0.166   4.042
 3149SOL    HW1 9463   3.779   0.249   3.988
 3149SOL    HW2 9464   3.886   0.129   4.020
 3150SOL     OW 9465   4.949   0.325   4.173
 3150SOL    HW1 9466   5.014   0.251   4.162
 3150SOL    HW2 9467   4.969   0.375   4.257
 3151SOL     OW 9468   4.318   0.745   4.376
 3151SOL    HW1 9469   4.368   0.830   4.357
 3151SOL    HW2 9470   4.230   0.747   4.328
 3152SOL     OW 9471   4.583   1.374   3.740
 3152SOL    HW1 9472   4.537   1.389   3.828
 3152SOL    HW2 9473   4.627   1.459   3.710
 3153SOL     OW 9474   4.385   1.790   4.677
 3153SOL    HW1 9475   4.339   1.878   4.664
 3153SOL    HW2 9476   4.484   1.802   4.670
 3154SOL     OW 9477   4.583   0.956   4.585
 3154SOL    HW1 9478   4.637   0.887   4.633
 3154SOL    HW2 9479   4.551   1.025   4.651
 3155SOL     OW 9480   3.803   1.240   4.377
 3155SOL    HW1 9481   3.802   1.193   4.465
 3155SOL    HW2 9482   3.885   1.212   4.326
 3156SOL     OW 9483   4.152   0.424   4.244
 3156SOL    HW1 9484   4.182   0.352   4.182
 3156SOL    HW2 9485   4.113   0.384   4.327
 3157SOL     OW 9486   4.536   1.586   4.411
 3157SOL    HW1 9487   4.568   1.596   4.317
 3157SOL    HW2 9488   4.457   1.524   4.413
 3158SOL     OW 9489   4.494   1.330   4.025
 3158SOL    HW1 9490   4.448   1.243   4.042
 3158SOL    HW2 9491   4.585   1.327   4.066
 3159SOL     OW 9492   3.763   1.077   4.024
 3159SOL    HW1 9493   3.862   1.066   4.015
 3159SOL    HW2 9494   3.723   0.991   4.056
 3160SOL     OW 9495   4.599   1.646   4.061
 3160SOL    HW1 9496   4.522   1.611   4.007
 3160SOL    HW2 9497   4.567   1.717   4.123
 3161SOL     OW 9498   3.954   2.490   0.113
 3161SOL    HW1 9499   3.861   2.488   0.150
 3161SOL    HW2 9500   3.955   2.451   0.021
 3162SOL     OW 9501   3.949   2.137   0.996
 3162SOL    HW1 9502   3.984   2.120   1.088
 3162SOL    HW2 9503   3.861   2.092   0.984
 3163SOL     OW 9504   3.743   2.230   0.647
 3163SOL    HW1 9505   3.661   2.273   0.686
 3163SOL    HW2 9506   3.715   2.157   0.584
 3164SOL     OW 9507   4.293   3.137   1.165
 3164SOL    HW1 9508   4.200   3.130   1.128
 3164SOL    HW2 9509   4.304   3.226   1.209
 3165SOL     OW 9510   4.492   3.006   1.023
 3165SOL    HW1 9511   4.414   3.023   1.083
 3165SOL    HW2 9512   4.526   3.093   0.987
 3166SOL     OW 9513   4.574   2.660   1.823
 3166SOL    HW1 9514   4.570   2.736   1.888
 3166SOL    HW2 9515   4.596   2.696   1.732
 3167SOL     OW 9516   4.409   2.874   0.665
 3167SOL    HW1 9517   4.478   2.858   0.735
 3167SOL    HW2 9518   4.336   2.931   0.703
 3168SOL     OW 9519   4.410   3.023   1.803
 3168SOL    HW1 9520   4.470   3.102   1.817
 3168SOL    HW2 9521   4.324   3.054   1.762
 3169SOL     OW 9522   4.059   3.297   1.061
 3169SOL    HW1 9523   3.981   3.266   1.008
 3169SOL    HW2 9524   4.117   3.355   1.004
 3170SOL     OW 9525   4.162   2.254   1.499
 3170SOL    HW1 9526   4.244   2.198   1.508
 3170SOL    HW2 9527   4.081   2.196   1.503
 3171SOL     OW 9528   3.955   3.575   0.483
 3171SOL    HW1 9529   3.989   3.652   0.537
 3171SOL    HW2 9530   3.999   3.575   0.393
 3172SOL     OW 9531   3.954   3.296   0.538
 3172SOL    HW1 9532   3.928   3.392   0.538
 3172SOL    HW2 9533   3.883   3.242   0.583
 3173SOL     OW 9534   3.964   2.953   0.886
 3173SOL    HW1 9535   3.978   2.869   0.938
 3173SOL    HW2 9536   3.909   3.017   0.941
 3174SOL     OW 9537   4.344   3.648   1.439
 3174SOL    HW1 9538   4.252   3.631   1.474
 3174SOL    HW2 9539   4.372   3.740   1.465
 3175SOL     OW 9540   4.330   2.826   0.123
 3175SOL    HW1 9541   4.337   2.910   0.069
 3175SOL    HW2 9542   4.376   2.839   0.211
 3176SOL     OW 9543   3.846   2.505   0.563
 3176SOL    HW1 9544   3.801   2.417   0.580
 3176SOL    HW2 9545   3.845   2.559   0.647
 3177SOL     OW 9546   3.751   3.458   0.117
 3177SOL    HW1 9547   3.732   3.362   0.138
 3177SOL    HW2 9548   3.718   3.516   0.192
 3178SOL     OW 9549   3.837   2.599   1.597
 3178SOL    HW1 9550   3.925   2.586   1.642
 3178SOL    HW2 9551   3.824   2.696   1.575
 3179SOL     OW 9552   4.337   3.227   0.726
 3179SOL    HW1 9553   4.288   3.140   0.735
 3179SOL    HW2 9554   4.314   3.270   0.639
 3180SOL     OW 9555   4.533   1.866   0.502
 3180SOL    HW1 9556   4.573   1.957   0.493
 3180SOL    HW2 9557   4.433   1.874   0.508
 3181SOL     OW 9558   3.921   2.838   1.264
 3181SOL    HW1 9559   4.010   2.793   1.250
 3181SOL    HW2 9560   3.848   2.773   1.245
 3182SOL     OW 9561   4.041   2.113   1.801
 3182SOL    HW1 9562   4.112   2.184   1.807
 3182SOL    HW2 9563   3.953   2.152   1.829
 3183SOL     OW 9564   4.322   2.591   0.270
 3183SOL    HW1 9565   4.346   2.660   0.202
 3183SOL    HW2 9566   4.244   2.624   0.324
 3184SOL     OW 9567   4.531   2.467   1.465
 3184SOL    HW1 9568   4.484   2.464   1.554
 3184SOL    HW2 9569   4.480   2.412   1.399
 3185SOL     OW 9570   4.697   2.752   1.572
 3185SOL    HW1 9571   4.743   2.668   1.543
 3185SOL    HW2 9572   4.641   2.786   1.497
 3186SOL     OW 9573   4.715   2.272   1.242
 3186SOL    HW1 9574   4.638   2.306   1.296
 3186SOL    HW2 9575   4.681   2.221   1.163
 3187SOL     OW 9576   4.765   2.563   0.429
 3187SOL    HW1 9577   4.791   2.559   0.525
 3187SOL    HW2 9578   4.680   2.512   0.415
 3188SOL     OW 9579   3.800   2.673   0.789
 3188SOL    HW1 9580   3.899   2.661   0.798
 3188SOL    HW2 9581   3.776   2.768   0.810
 3189SOL     OW 9582   3.854   3.683   1.571
 3189SOL    HW1 9583   3.844   3.668   1.670
 3189SOL    HW2 9584   3.768   3.719   1.535
 3190SOL     OW 9585   4.589   2.210   0.195
 3190SOL    HW1 9586   4.648   2.273   0.146
 3190SOL    HW2 9587   4.608   2.116   0.166
 3191SOL     OW 9588   4.274   2.058   0.885
 3191SOL    HW1 9589   4.269   2.053   0.985
 3191SOL    HW2 9590   4.276   2.154   0.856
 3192SOL     OW 9591   4.732   3.318   0.477
 3192SOL    HW1 9592   4.686   3.390   0.425
 3192SOL    HW2 9593   4.728   3.338   0.575
 3193SOL     OW 9594   4.075   3.663   0.853
 3193SOL    HW1 9595   4.125   3.577   0.859
 3193SOL    HW2 9596   4.140   3.740   0.850
 3194SOL     OW 9597   4.045   2.805   0.242
 3194SOL    HW1 9598   4.127   2.844   0.200
 3194SOL    HW2 9599   4.018   2.723   0.193
 3195SOL     OW 9600   4.185   3.128   1.727
 3195SOL    HW1 9601   4.135   3.129   1.641
 3195SOL    HW2 9602   4.122   3.110   1.803
 3196SOL     OW 9603   3.926   2.147   1.498
 3196SOL    HW1 9604   3.846   2.207   1.485
 3196SOL    HW2 9605   3.916   2.098   1.584
 3197SOL     OW 9606   4.188   3.605   0.323
 3197SOL    HW1 9607   4.221   3.644   0.409
 3197SOL    HW2 9608   4.264   3.598   0.258
 3198SOL     OW 9609   3.973   3.647   1.241
 3198SOL    HW1 9610   4.030   3.582   1.291
 3198SOL    HW2 9611   3.957   3.614   1.148
 3199SOL     OW 9612   4.106   2.562   0.480
 3199SOL    HW1 9613   4.151   2.472   0.477
 3199SOL    HW2 9614   4.012   2.551   0.513
 3200SOL     OW 9615   4.338   1.984   0.117
 3200SOL    HW1 9616   4.436   1.962   0.124
 3200SOL    HW2 9617   4.307   1.967   0.024
 3201SOL     OW 9618   4.505   2.126   1.749
 3201SOL    HW1 9619   4.572   2.065   1.792
 3201SOL    HW2 9620   4.432   2.145   1.814
 3202SOL     OW 9621   4.612   3.376   1.195
 3202SOL    HW1 9622   4.589   3.351   1.101
 3202SOL    HW2 9623   4.673   3.307   1.234
 3203SOL     OW 9624   4.527   3.264   0.924
 3203SOL    HW1 9625   4.617   3.278   0.882
 3203SOL    HW2 9626   4.456   3.266   0.853
 3204SOL     OW 9627   4.646   2.365   0.899
 3204SOL    HW1 9628   4.621   2.356   0.803
 3204SOL    HW2 9629   4.694   2.283   0.930
 3205SOL     OW 9630   4.263   1.926   0.512
 3205SOL    HW1 9631   4.182   1.927   0.570
 3205SOL    HW2 9632   4.266   2.009   0.457
 3206SOL     OW 9633   5.158   3.050   0.041
 3206SOL    HW1 9634   5.190   2.974   0.098
 3206SOL    HW2 9635   5.066   3.077   0.071
 3207SOL     OW 9636   4.659   2.098   0.480
 3207SOL    HW1 9637   4.611   2.139   0.402
 3207SOL    HW2 9638   4.758   2.096   0.461
 3208SOL     OW 9639   4.951   3.432   0.793
 3208SOL    HW1 9640   4.972   3.506   0.728
 3208SOL    HW2 9641   5.019   3.432   0.866
 3209SOL     OW 9642   4.183   3.014   0.741
 3209SOL    HW1 9643   4.112   2.987   0.806
 3209SOL    HW2 9644   4.157   2.986   0.648
 3210SOL     OW 9645   4.756   2.411   0.016
 3210SOL    HW1 9646   4.715   2.493  -0.023
 3210SOL    HW2 9647   4.820   2.437   0.089
 3211SOL     OW 9648   3.802   2.418   1.386
 3211SOL    HW1 9649   3.894   2.417   1.345
 3211SOL    HW2 9650   3.796   2.492   1.453
 3212SOL     OW 9651   4.285   2.084   1.147
 3212SOL    HW1 9652   4.323   2.000   1.184
 3212SOL    HW2 9653   4.197   2.103   1.191
 3213SOL     OW 9654   4.590   2.316   0.642
 3213SOL    HW1 9655   4.558   2.388   0.580
 3213SOL    HW2 9656   4.614   2.235   0.589
 3214SOL     OW 9657   4.741   1.901   0.753
 3214SOL    HW1 9658   4.669   1.906   0.684
 3214SOL    HW2 9659   4.717   1.832   0.822
 3215SOL     OW 9660   4.212   3.247   0.174
 3215SOL    HW1 9661   4.125   3.232   0.221
 3215SOL    HW2 9662   4.195   3.273   0.079
 3216SOL     OW 9663   4.251   2.118   0.328
 3216SOL    HW1 9664   4.278   2.059   0.253
 3216SOL    HW2 9665   4.251   2.213   0.297
 3217SOL     OW 9666   4.639   1.951   1.402
 3217SOL    HW1 9667   4.664   1.931   1.307
 3217SOL    HW2 9668   4.711   2.007   1.444
 3218SOL     OW 9669   4.704   2.978   1.719
 3218SOL    HW1 9670   4.605   2.984   1.729
 3218SOL    HW2 9671   4.727   2.898   1.663
 3219SOL     OW 9672   4.429   2.912   0.368
 3219SOL    HW1 9673   4.415   2.919   0.467
 3219SOL    HW2 9674   4.513   2.861   0.350
 3220SOL     OW 9675   4.134   2.675   1.251
 3220SOL    HW1 9676   4.220   2.687   1.301
 3220SOL    HW2 9677   4.092   2.588   1.278
 3221SOL     OW 9678   3.788   3.426   1.331
 3221SOL    HW1 9679   3.742   3.508   1.297
 3221SOL    HW2 9680   3.886   3.445   1.340
 3222SOL     OW 9681   4.091   2.962   0.501
 3222SOL    HW1 9682   4.084   3.045   0.445
 3222SOL    HW2 9683   4.095   2.882   0.441
 3223SOL     OW 9684   4.290   2.399   0.865
 3223SOL    HW1 9685   4.302   2.465   0.791
 3223SOL    HW2 9686   4.336   2.433   0.948
 3224SOL     OW 9687   4.078   3.372   1.329
 3224SOL    HW1 9688   4.057   3.328   1.242
 3224SOL    HW2 9689   4.175   3.398   1.332
 3225SOL     OW 9690   4.126   2.613   1.598
 3225SOL    HW1 9691   4.194   2.668   1.551
 3225SOL    HW2 9692   4.166   2.525   1.625
 3226SOL     OW 9693   4.737   1.967   1.770
 3226SOL    HW1 9694   4.743   2.052   1.718
 3226SOL    HW2 9695   4.769   1.891   1.713
 3227SOL     OW 9696   4.228   1.912   1.740
 3227SOL    HW1 9697   4.186   1.855   1.670
 3227SOL    HW2 9698   4.162   1.981   1.772
 3228SOL     OW 9699   4.297   2.732   1.029
 3228SOL    HW1 9700   4.341   2.821   1.020
 3228SOL    HW2 9701   4.234   2.732   1.106
 3229SOL     OW 9702   4.933   2.387   0.275
 3229SOL    HW1 9703   4.946   2.303   0.329
 3229SOL    HW2 9704   4.904   2.461   0.335
 3230SOL     OW 9705   4.031   2.075   1.231
 3230SOL    HW1 9706   4.008   2.112   1.321
 3230SOL    HW2 9707   4.001   1.980   1.225
 3231SOL     OW 9708   3.761   3.172   1.282
 3231SOL    HW1 9709   3.814   3.123   1.350
 3231SOL    HW2 9710   3.783   3.270   1.287
 3232SOL     OW 9711   4.456   2.496   1.064
 3232SOL    HW1 9712   4.515   2.470   0.988
 3232SOL    HW2 9713   4.428   2.592   1.053
 3233SOL     OW 9714   4.031   1.925   0.618
 3233SOL    HW1 9715   4.020   2.019   0.651
 3233SOL    HW2 9716   4.026   1.862   0.695
 3234SOL     OW 9717   4.747   2.628   0.966
 3234SOL    HW1 9718   4.762   2.649   1.062
 3234SOL    HW2 9719   4.717   2.533   0.957
 3235SOL     OW 9720   4.704   3.435   1.700
 3235SOL    HW1 9721   4.684   3.479   1.612
 3235SOL    HW2 9722   4.743   3.344   1.684
 3236SOL     OW 9723   4.074   2.760   1.804
 3236SOL    HW1 9724   4.150   2.804   1.852
 3236SOL    HW2 9725   4.109   2.713   1.722
 3237SOL     OW 9726   4.043   2.672   0.949
 3237SOL    HW1 9727   4.136   2.708   0.954
 3237SOL    HW2 9728   4.037   2.587   1.001
 3238SOL     OW 9729   4.063   2.371   1.006
 3238SOL    HW1 9730   4.011   2.288   0.989
 3238SOL    HW2 9731   4.140   2.376   0.942
 3239SOL     OW 9732   3.732   3.188   0.200
 3239SOL    HW1 9733   3.639   3.209   0.169
 3239SOL    HW2 9734   3.742   3.089   0.213
 3240SOL     OW 9735   3.812   3.663   0.927
 3240SOL    HW1 9736   3.770   3.577   0.900
 3240SOL    HW2 9737   3.906   3.666   0.893
 3241SOL     OW 9738   4.228   3.430   0.910
 3241SOL    HW1 9739   4.294   3.504   0.919
 3241SOL    HW2 9740   4.272   3.351   0.868
 3242SOL     OW 9741   4.726   2.658   1.238
 3242SOL    HW1 9742   4.767   2.626   1.324
 3242SOL    HW2 9743   4.630   2.631   1.235
 3243SOL     OW 9744   3.764   2.406   1.114
 3243SOL    HW1 9745   3.849   2.373   1.073
 3243SOL    HW2 9746   3.777   2.421   1.212
 3244SOL     OW 9747   3.913   2.382   1.722
 3244SOL    HW1 9748   3.972   2.342   1.652
 3244SOL    HW2 9749   3.855   2.453   1.681
 3245SOL     OW 9750   4.539   2.434   0.325
 3245SOL    HW1 9751   4.546   2.345   0.279
 3245SOL    HW2 9752   4.445   2.468   0.317
 3246SOL     OW 9753   3.976   3.426   1.744
 3246SOL    HW1 9754   3.946   3.483   1.820
 3246SOL    HW2 9755   3.969   3.329   1.770
 3247SOL     OW 9756   4.395   2.326   1.269
 3247SOL    HW1 9757   4.361   2.237   1.239
 3247SOL    HW2 9758   4.421   2.380   1.189
 3248SOL     OW 9759   4.654   3.540   1.465
 3248SOL    HW1 9760   4.630   3.522   1.370
 3248SOL    HW2 9761   4.684   3.634   1.475
 3249SOL     OW 9762   4.197   2.362   0.191
 3249SOL    HW1 9763   4.258   2.442   0.195
 3249SOL    HW2 9764   4.102   2.393   0.198
 3250SOL     OW 9765   3.883   2.999   1.466
 3250SOL    HW1 9766   3.905   2.938   1.542
 3250SOL    HW2 9767   3.893   2.950   1.380
 3251SOL     OW 9768   3.807   3.120   1.022
 3251SOL    HW1 9769   3.802   3.119   1.122
 3251SOL    HW2 9770   3.724   3.079   0.984
 3252SOL     OW 9771   4.412   3.524   1.716
 3252SOL    HW1 9772   4.356   3.605   1.725
 3252SOL    HW2 9773   4.464   3.528   1.630
 3253SOL     OW 9774   4.627   1.948   0.133
 3253SOL    HW1 9775   4.678   1.949   0.047
 3253SOL    HW2 9776   4.683   1.906   0.204
 3254SOL     OW 9777   3.854   3.656   1.851
 3254SOL    HW1 9778   3.813   3.582   1.904
 3254SOL    HW2 9779   3.918   3.707   1.909
 3255SOL     OW 9780   5.004   2.789   0.672
 3255SOL    HW1 9781   5.064   2.708   0.674
 3255SOL    HW2 9782   5.044   2.858   0.612
 3256SOL     OW 9783   4.554   3.135   1.422
 3256SOL    HW1 9784   4.549   3.168   1.517
 3256SOL    HW2 9785   4.468   3.154   1.376
 3257SOL     OW 9786   4.396   3.478   0.154
 3257SOL    HW1 9787   4.405   3.488   0.055
 3257SOL    HW2 9788   4.356   3.389   0.175
 3258SOL     OW 9789   3.987   2.188   0.720
 3258SOL    HW1 9790   3.908   2.239   0.686
 3258SOL    HW2 9791   3.978   2.173   0.818
 3259SOL     OW 9792   4.546   2.864   1.372
 3259SOL    HW1 9793   4.586   2.863   1.280
 3259SOL    HW2 9794   4.556   2.956   1.412
 3260SOL     OW 9795   4.640   2.772   0.291
 3260SOL    HW1 9796   4.703   2.810   0.223
 3260SOL    HW2 9797   4.680   2.689   0.330
 3261SOL     OW 9798   4.096   3.150   1.490
 3261SOL    HW1 9799   4.083   3.243   1.456
 3261SOL    HW2 9800   4.012   3.098   1.477
 3262SOL     OW 9801   4.763   2.960   0.696
 3262SOL    HW1 9802   4.693   2.913   0.750
 3262SOL    HW2 9803   4.822   2.892   0.653
 3263SOL     OW 9804   4.738   2.098   0.971
 3263SOL    HW1 9805   4.730   2.062   0.878
 3263SOL    HW2 9806   4.736   2.022   1.036
 3264SOL     OW 9807   4.314   3.349   0.491
 3264SOL    HW1 9808   4.356   3.291   0.421
 3264SOL    HW2 9809   4.270   3.428   0.447
 3265SOL     OW 9810   3.979   3.210   0.290
 3265SOL    HW1 9811   3.883   3.211   0.263
 3265SOL    HW2 9812   3.991   3.263   0.374
 3266SOL     OW 9813   3.829   2.875   1.726
 3266SOL    HW1 9814   3.752   2.842   1.780
 3266SOL    HW2 9815   3.914   2.845   1.768
 3267SOL     OW 9816   4.396   2.065   1.489
 3267SOL    HW1 9817   4.486   2.049   1.449
 3267SOL    HW2 9818   4.404   2.070   1.588
 3268SOL     OW 9819   3.799   2.207   0.033
 3268SOL    HW1 9820   3.707   2.179   0.004
 3268SOL    HW2 9821   3.830   2.284  -0.023
 3269SOL     OW 9822   3.796   2.028   0.318
 3269SOL    HW1 9823   3.779   2.111   0.264
 3269SOL    HW2 9824   3.886   1.991   0.296
 3270SOL     OW 9825   4.337   2.704   1.431
 3270SOL    HW1 9826   4.393   2.785   1.414
 3270SOL    HW2 9827   4.396   2.624   1.434
 3271SOL     OW 9828   4.440   2.427   1.708
 3271SOL    HW1 9829   4.459   2.492   1.782
 3271SOL    HW2 9830   4.500   2.347   1.717
 3272SOL     OW 9831   4.114   3.603   1.560
 3272SOL    HW1 9832   4.023   3.644   1.558
 3272SOL    HW2 9833   4.107   3.509   1.592
 3273SOL     OW 9834   4.949   2.187   0.449
 3273SOL    HW1 9835   5.014   2.113   0.438
 3273SOL    HW2 9836   4.969   2.237   0.533
 3274SOL     OW 9837   4.318   2.607   0.652
 3274SOL    HW1 9838   4.368   2.692   0.633
 3274SOL    HW2 9839   4.230   2.609   0.604
 3275SOL     OW 9840   4.583   3.236   0.016
 3275SOL    HW1 9841   4.537   3.251   0.104
 3275SOL    HW2 9842   4.627   3.321  -0.014
 3276SOL     OW 9843   4.385   3.652   0.953
 3276SOL    HW1 9844   4.339   3.740   0.940
 3276SOL    HW2 9845   4.484   3.664   0.946
 3277SOL     OW 9846   4.583   2.818   0.861
 3277SOL    HW1 9847   4.637   2.749   0.909
 3277SOL    HW2 9848   4.551   2.887   0.927
 3278SOL     OW 9849   4.807   2.846   0.087
 3278SOL    HW1 9850   4.784   2.899   0.005
 3278SOL    HW2 9851   4.888   2.790   0.068
 3279SOL     OW 9852   3.945   3.176   1.844
 3279SOL    HW1 9853   3.880   3.103   1.823
 3279SOL    HW2 9854   3.949   3.190   1.942
 3280SOL     OW 9855   3.803   3.102   0.653
 3280SOL    HW1 9856   3.802   3.055   0.741
 3280SOL    HW2 9857   3.885   3.074   0.602
 3281SOL     OW 9858   4.396   3.253   1.624
 3281SOL    HW1 9859   4.318   3.203   1.662
 3281SOL    HW2 9860   4.393   3.348   1.655
 3282SOL     OW 9861   4.152   2.286   0.520
 3282SOL    HW1 9862   4.182   2.214   0.458
 3282SOL    HW2 9863   4.113   2.246   0.603
 3283SOL     OW 9864   4.041   2.409   1.280
 3283SOL    HW1 9865   4.079   2.350   1.352
 3283SOL    HW2 9866   4.081   2.383   1.192
 3284SOL     OW 9867   4.536   3.448   0.687
 3284SOL    HW1 9868   4.568   3.458   0.593
 3284SOL    HW2 9869   4.457   3.386   0.689
 3285SOL     OW 9870   4.725   1.896   1.154
 3285SOL    HW1 9871   4.662   1.824   1.123
 3285SOL    HW2 9872   4.818   1.860   1.154
 3286SOL     OW 9873   4.494   3.192   0.301
 3286SOL    HW1 9874   4.448   3.105   0.318
 3286SOL    HW2 9875   4.585   3.189   0.342
 3287SOL     OW 9876   4.342   3.429   1.284
 3287SOL    HW1 9877   4.337   3.511   1.341
 3287SOL    HW2 9878   4.431   3.426   1.239
 3288SOL     OW 9879   3.763   2.939   0.300
 3288SOL    HW1 9880   3.862   2.928   0.291
 3288SOL    HW2 9881   3.723   2.853   0.332
 3289SOL     OW 9882   4.599   3.508   0.337
 3289SOL    HW1 9883   4.522   3.473   0.283
 3289SOL    HW2 9884   4.567   3.579   0.399
 3290SOL     OW 9885   3.954   2.490   1.975
 3290SOL    HW1 9886   3.861   2.488   2.012
 3290SOL    HW2 9887   3.955   2.451   1.883
 3291SOL     OW 9888   3.949   2.137   2.858
 3291SOL    HW1 9889   3.984   2.120   2.950
 3291SOL    HW2 9890   3.861   2.092   2.846
 3292SOL     OW 9891   3.743   2.230   2.509
 3292SOL    HW1 9892   3.661   2.273   2.548
 3292SOL    HW2 9893   3.715   2.157   2.446
 3293SOL     OW 9894   4.293   3.137   3.027
 3293SOL    HW1 9895   4.200   3.130   2.990
 3293SOL    HW2 9896   4.304   3.226   3.071
 3294SOL     OW 9897   4.492   3.006   2.885
 3294SOL    HW1 9898   4.414   3.023   2.945
 3294SOL    HW2 9899   4.526   3.093   2.849
 3295SOL     OW 9900   4.574   2.660   3.685
 3295SOL    HW1 9901   4.570   2.736   3.750
 3295SOL    HW2 9902   4.596   2.696   3.594
 3296SOL     OW 9903   4.409   2.874   2.527
 3296SOL    HW1 9904   4.478   2.858   2.597
 3296SOL    HW2 9905   4.336   2.931   2.565
 3297SOL     OW 9906   4.410   3.023   3.665
 3297SOL    HW1 9907   4.470   3.102   3.679
 3297SOL    HW2 9908   4.324   3.054   3.624
 3298SOL     OW 9909   4.059   3.297   2.923
 3298SOL    HW1 9910   3.981   3.266   2.870
 3298SOL    HW2 9911   4.117   3.355   2.866
 3299SOL     OW 9912   4.162   2.254   3.361
 3299SOL    HW1 9913   4.244   2.198   3.370
 3299SOL    HW2 9914   4.081   2.196   3.365
 3300SOL     OW 9915   3.955   3.575   2.345
 3300SOL    HW1 9916   3.989   3.652   2.399
 3300SOL    HW2 9917   3.999   3.575   2.255
 3301SOL     OW 9918   3.954   3.296   2.400
 3301SOL    HW1 9919   3.928   3.392   2.400
 3301SOL    HW2 9920   3.883   3.242   2.445
 3302SOL     OW 9921   3.964   2.953   2.748
 3302SOL    HW1 9922   3.978   2.869   2.800
 3302SOL    HW2 9923   3.909   3.017   2.803
 3303SOL     OW 9924   4.344   3.648   3.301
 3303SOL    HW1 9925   4.252   3.631   3.336
 3303SOL    HW2 9926   4.372   3.740   3.327
 3304SOL     OW 9927   4.330   2.826   1.985
 3304SOL    HW1 9928   4.337   2.910   1.931
 3304SOL    HW2 9929   4.376   2.839   2.073
 3305SOL     OW 9930   3.846   2.505   2.425
 3305SOL    HW1 9931   3.801   2.417   2.442
 3305SOL    HW2 9932   3.845   2.559   2.509
 3306SOL     OW 9933   3.751   3.458   1.979
 3306SOL    HW1 9934   3.732   3.362   2.000
 3306SOL    HW2 9935   3.718   3.516   2.054
 3307SOL     OW 9936   3.837   2.599   3.459
 3307SOL    HW1 9937   3.925   2.586   3.504
 3307SOL    HW2 9938   3.824   2.696   3.437
 3308SOL     OW 9939   4.337   3.227   2.588
 3308SOL    HW1 9940   4.288   3.140   2.597
 3308SOL    HW2 9941   4.314   3.270   2.501
 3309SOL     OW 9942   4.533   1.866   2.364
 3309SOL    HW1 9943   4.573   1.957   2.355
 3309SOL    HW2 9944   4.433   1.874   2.370
 3310SOL     OW 9945   3.921   2.838   3.126
 3310SOL    HW1 9946   4.010   2.793   3.112
 3310SOL    HW2 9947   3.848   2.773   3.107
 3311SOL     OW 9948   4.041   2.113   3.663
 3311SOL    HW1 9949   4.112   2.184   3.669
 3311SOL    HW2 9950   3.953   2.152   3.691
 3312SOL     OW 9951   4.322   2.591   2.132
 3312SOL    HW1 9952   4.346   2.660   2.064
 3312SOL    HW2 9953   4.244   2.624   2.186
 3313SOL     OW 9954   4.531   2.467   3.327
 3313SOL    HW1 9955   4.484   2.464   3.416
 3313SOL    HW2 9956   4.480   2.412   3.261
 3314SOL     OW 9957   4.697   2.752   3.434
 3314SOL    HW1 9958   4.743   2.668   3.405
 3314SOL    HW2 9959   4.641   2.786   3.359
 3315SOL     OW 9960   4.715   2.272   3.104
 3315SOL    HW1 9961   4.638   2.306   3.158
 3315SOL    HW2 9962   4.681   2.221   3.025
 3316SOL     OW 9963   4.765   2.563   2.291
 3316SOL    HW1 9964   4.791   2.559   2.387
 3316SOL    HW2 9965   4.680   2.512   2.277
 3317SOL     OW 9966   3.800   2.673   2.651
 3317SOL    HW1 9967   3.899   2.661   2.660
 3317SOL    HW2 9968   3.776   2.768   2.672
 3318SOL     OW 9969   3.854   3.683   3.433
 3318SOL    HW1 9970   3.844   3.668   3.532
 3318SOL    HW2 9971   3.768   3.719   3.397
 3319SOL     OW 9972   4.589   2.210   2.057
 3319SOL    HW1 9973   4.648   2.273   2.008
 3319SOL    HW2 9974   4.608   2.116   2.028
 3320SOL     OW 9975   4.274   2.058   2.747
 3320SOL    HW1 9976   4.269   2.053   2.847
 3320SOL    HW2 9977   4.276   2.154   2.718
 3321SOL     OW 9978   4.732   3.318   2.339
 3321SOL    HW1 9979   4.686   3.390   2.287
 3321SOL    HW2 9980   4.728   3.338   2.437
 3322SOL     OW 9981   4.075   3.663   2.715
 3322SOL    HW1 9982   4.125   3.577   2.721
 3322SOL    HW2 9983   4.140   3.740   2.712
 3323SOL     OW 9984   4.045   2.805   2.104
 3323SOL    HW1 9985   4.127   2.844   2.062
 3323SOL    HW2 9986   4.018   2.723   2.055
 3324SOL     OW 9987   4.185   3.128   3.589
 3324SOL    HW1 9988   4.135   3.129   3.503
 3324SOL    HW2 9989   4.122   3.110   3.665
 3325SOL     OW 9990   3.926   2.147   3.360
 3325SOL    HW1 9991   3.846   2.207   3.347
 3325SOL    HW2 9992   3.916   2.098   3.446
 3326SOL     OW 9993   4.188   3.605   2.185
 3326SOL    HW1 9994   4.221   3.644   2.271
 3326SOL    HW2 9995   4.264   3.598   2.120
 3327SOL     OW 9996   3.973   3.647   3.103
 3327SOL    HW1 9997   4.030   3.582   3.153
 3327SOL    HW2 9998   3.957   3.614   3.010
 3328SOL     OW 9999   4.106   2.562   2.342
 3328SOL    HW110000   4.151   2.472   2.339
 3328SOL    HW210001   4.012   2.551   2.375
 3329SOL     OW10002   4.338   1.984   1.979
 3329SOL    HW110003   4.436   1.962   1.986
 3329SOL    HW210004   4.307   1.967   1.886
 3330SOL     OW10005   4.505   2.126   3.611
 3330SOL    HW110006   4.572   2.065   3.654
 3330SOL    HW210007   4.432   2.145   3.676
 3331SOL     OW10008   4.612   3.376   3.057
 3331SOL    HW110009   4.589   3.351   2.963
 3331SOL    HW210010   4.673   3.307   3.096
 3332SOL     OW10011   4.527   3.264   2.786
 3332SOL    HW110012   4.617   3.278   2.744
 3332SOL    HW210013   4.456   3.266   2.715
 3333SOL     OW10014   4.646   2.365   2.761
 3333SOL    HW110015   4.621   2.356   2.665
 3333SOL    HW210016   4.694   2.283   2.792
 3334SOL     OW10017   4.263   1.926   2.374
 3334SOL    HW110018   4.182   1.927   2.432
 3334SOL    HW210019   4.266   2.009   2.319
 3335SOL     OW10020   4.021   1.897   2.033
 3335SOL    HW110021   4.070   1.981   2.012
 3335SOL    HW210022   4.083   1.832   2.078
 3336SOL     OW10023   4.659   2.098   2.342
 3336SOL    HW110024   4.611   2.139   2.264
 3336SOL    HW210025   4.758   2.096   2.323
 3337SOL     OW10026   4.951   3.432   2.655
 3337SOL    HW110027   4.972   3.506   2.590
 3337SOL    HW210028   5.019   3.432   2.728
 3338SOL     OW10029   4.183   3.014   2.603
 3338SOL    HW110030   4.112   2.987   2.668
 3338SOL    HW210031   4.157   2.986   2.510
 3339SOL     OW10032   4.756   2.411   1.878
 3339SOL    HW110033   4.715   2.493   1.839
 3339SOL    HW210034   4.820   2.437   1.951
 3340SOL     OW10035   3.802   2.418   3.248
 3340SOL    HW110036   3.894   2.417   3.207
 3340SOL    HW210037   3.796   2.492   3.315
 3341SOL     OW10038   4.285   2.084   3.009
 3341SOL    HW110039   4.323   2.000   3.046
 3341SOL    HW210040   4.197   2.103   3.053
 3342SOL     OW10041   4.590   2.316   2.504
 3342SOL    HW110042   4.558   2.388   2.442
 3342SOL    HW210043   4.614   2.235   2.451
 3343SOL     OW10044   4.741   1.901   2.615
 3343SOL    HW110045   4.669   1.906   2.546
 3343SOL    HW210046   4.717   1.832   2.684
 3344SOL     OW10047   4.212   3.247   2.036
 3344SOL    HW110048   4.125   3.232   2.083
 3344SOL    HW210049   4.195   3.273   1.941
 3345SOL     OW10050   4.251   2.118   2.190
 3345SOL    HW110051   4.278   2.059   2.115
 3345SOL    HW210052   4.251   2.213   2.159
 3346SOL     OW10053   4.639   1.951   3.264
 3346SOL    HW110054   4.664   1.931   3.169
 3346SOL    HW210055   4.711   2.007   3.306
 3347SOL     OW10056   4.704   2.978   3.581
 3347SOL    HW110057   4.605   2.984   3.591
 3347SOL    HW210058   4.727   2.898   3.525
 3348SOL     OW10059   4.429   2.912   2.230
 3348SOL    HW110060   4.415   2.919   2.329
 3348SOL    HW210061   4.513   2.861   2.212
 3349SOL     OW10062   4.134   2.675   3.113
 3349SOL    HW110063   4.220   2.687   3.163
 3349SOL    HW210064   4.092   2.588   3.140
 3350SOL     OW10065   3.788   3.426   3.193
 3350SOL    HW110066   3.742   3.508   3.159
 3350SOL    HW210067   3.886   3.445   3.202
 3351SOL     OW10068   4.091   2.962   2.363
 3351SOL    HW110069   4.084   3.045   2.307
 3351SOL    HW210070   4.095   2.882   2.303
 3352SOL     OW10071   4.290   2.399   2.727
 3352SOL    HW110072   4.302   2.465   2.653
 3352SOL    HW210073   4.336   2.433   2.810
 3353SOL     OW10074   4.078   3.372   3.191
 3353SOL    HW110075   4.057   3.328   3.104
 3353SOL    HW210076   4.175   3.398   3.194
 3354SOL     OW10077   4.126   2.613   3.460
 3354SOL    HW110078   4.194   2.668   3.413
 3354SOL    HW210079   4.166   2.525   3.487
 3355SOL     OW10080   4.737   1.967   3.632
 3355SOL    HW110081   4.743   2.052   3.580
 3355SOL    HW210082   4.769   1.891   3.575
 3356SOL     OW10083   4.228   1.912   3.602
 3356SOL    HW110084   4.186   1.855   3.532
 3356SOL    HW210085   4.162   1.981   3.634
 3357SOL     OW10086   4.297   2.732   2.891
 3357SOL    HW110087   4.341   2.821   2.882
 3357SOL    HW210088   4.234   2.732   2.968
 3358SOL     OW10089   4.933   2.387   2.137
 3358SOL    HW110090   4.946   2.303   2.191
 3358SOL    HW210091   4.904   2.461   2.197
 3359SOL     OW10092   4.031   2.075   3.093
 3359SOL    HW110093   4.008   2.112   3.183
 3359SOL    HW210094   4.001   1.980   3.087
 3360SOL     OW10095   3.761   3.172   3.144
 3360SOL    HW110096   3.814   3.123   3.212
 3360SOL    HW210097   3.783   3.270   3.149
 3361SOL     OW10098   4.456   2.496   2.926
 3361SOL    HW110099   4.515   2.470   2.850
 3361SOL    HW210100   4.428   2.592   2.915
 3362SOL     OW10101   4.031   1.925   2.480
 3362SOL    HW110102   4.020   2.019   2.513
 3362SOL    HW210103   4.026   1.862   2.557
 3363SOL     OW10104   4.747   2.628   2.828
 3363SOL    HW110105   4.762   2.649   2.924
 3363SOL    HW210106   4.717   2.533   2.819
 3364SOL     OW10107   4.704   3.435   3.562
 3364SOL    HW110108   4.684   3.479   3.474
 3364SOL    HW210109   4.743   3.344   3.546
 3365SOL     OW10110   4.074   2.760   3.666
 3365SOL    HW110111   4.150   2.804   3.714
 3365SOL    HW210112   4.109   2.713   3.584
 3366SOL     OW10113   4.043   2.672   2.811
 3366SOL    HW110114   4.136   2.708   2.816
 3366SOL    HW210115   4.037   2.587   2.863
 3367SOL     OW10116   4.063   2.371   2.868
 3367SOL    HW110117   4.011   2.288   2.851
 3367SOL    HW210118   4.140   2.376   2.804
 3368SOL     OW10119   3.732   3.188   2.062
 3368SOL    HW110120   3.639   3.209   2.031
 3368SOL    HW210121   3.742   3.089   2.075
 3369SOL     OW10122   3.812   3.663   2.789
 3369SOL    HW110123   3.770   3.577   2.762
 3369SOL    HW210124   3.906   3.666   2.755
 3370SOL     OW10125   4.228   3.430   2.772
 3370SOL    HW110126   4.294   3.504   2.781
 3370SOL    HW210127   4.272   3.351   2.730
 3371SOL     OW10128   4.726   2.658   3.100
 3371SOL    HW110129   4.767   2.626   3.186
 3371SOL    HW210130   4.630   2.631   3.097
 3372SOL     OW10131   3.764   2.406   2.976
 3372SOL    HW110132   3.849   2.373   2.935
 3372SOL    HW210133   3.777   2.421   3.074
 3373SOL     OW10134   3.913   2.382   3.584
 3373SOL    HW110135   3.972   2.342   3.514
 3373SOL    HW210136   3.855   2.453   3.543
 3374SOL     OW10137   4.539   2.434   2.187
 3374SOL    HW110138   4.546   2.345   2.141
 3374SOL    HW210139   4.445   2.468   2.179
 3375SOL     OW10140   3.976   3.426   3.606
 3375SOL    HW110141   3.946   3.483   3.682
 3375SOL    HW210142   3.969   3.329   3.632
 3376SOL     OW10143   4.395   2.326   3.131
 3376SOL    HW110144   4.361   2.237   3.101
 3376SOL    HW210145   4.421   2.380   3.051
 3377SOL     OW10146   4.654   3.540   3.327
 3377SOL    HW110147   4.630   3.522   3.232
 3377SOL    HW210148   4.684   3.634   3.337
 3378SOL     OW10149   4.197   2.362   2.053
 3378SOL    HW110150   4.258   2.442   2.057
 3378SOL    HW210151   4.102   2.393   2.060
 3379SOL     OW10152   3.883   2.999   3.328
 3379SOL    HW110153   3.905   2.938   3.404
 3379SOL    HW210154   3.893   2.950   3.242
 3380SOL     OW10155   3.807   3.120   2.884
 3380SOL    HW110156   3.802   3.119   2.984
 3380SOL    HW210157   3.724   3.079   2.846
 3381SOL     OW10158   4.412   3.524   3.578
 3381SOL    HW110159   4.356   3.605   3.587
 3381SOL    HW210160   4.464   3.528   3.492
 3382SOL     OW10161   3.854   3.656   3.713
 3382SOL    HW110162   3.813   3.582   3.766
 3382SOL    HW210163   3.918   3.707   3.771
 3383SOL     OW10164   5.004   2.789   2.534
 3383SOL    HW110165   5.064   2.708   2.536
 3383SOL    HW210166   5.044   2.858   2.474
 3384SOL     OW10167   4.554   3.135   3.284
 3384SOL    HW110168   4.549   3.168   3.379
 3384SOL    HW210169   4.468   3.154   3.238
 3385SOL     OW10170   4.396   3.478   2.016
 3385SOL    HW110171   4.405   3.488   1.917
 3385SOL    HW210172   4.356   3.389   2.037
 3386SOL     OW10173   3.987   2.188   2.582
 3386SOL    HW110174   3.908   2.239   2.548
 3386SOL    HW210175   3.978   2.173   2.680
 3387SOL     OW10176   4.546   2.864   3.234
 3387SOL    HW110177   4.586   2.863   3.142
 3387SOL    HW210178   4.556   2.956   3.274
 3388SOL     OW10179   4.640   2.772   2.153
 3388SOL    HW110180   4.703   2.810   2.085
 3388SOL    HW210181   4.680   2.689   2.192
 3389SOL     OW10182   4.096   3.150   3.352
 3389SOL    HW110183   4.083   3.243   3.318
 3389SOL    HW210184   4.012   3.098   3.339
 3390SOL     OW10185   4.763   2.960   2.558
 3390SOL    HW110186   4.693   2.913   2.612
 3390SOL    HW210187   4.822   2.892   2.515
 3391SOL     OW10188   4.738   2.098   2.833
 3391SOL    HW110189   4.730   2.062   2.740
 3391SOL    HW210190   4.736   2.022   2.898
 3392SOL     OW10191   4.314   3.349   2.353
 3392SOL    HW110192   4.356   3.291   2.283
 3392SOL    HW210193   4.270   3.428   2.309
 3393SOL     OW10194   3.979   3.210   2.152
 3393SOL    HW110195   3.883   3.211   2.125
 3393SOL    HW210196   3.991   3.263   2.236
 3394SOL     OW10197   3.829   2.875   3.588
 3394SOL    HW110198   3.752   2.842   3.642
 3394SOL    HW210199   3.914   2.845   3.630
 3395SOL     OW10200   4.396   2.065   3.351
 3395SOL    HW110201   4.486   2.049   3.311
 3395SOL    HW210202   4.404   2.070   3.450
 3396SOL     OW10203   3.799   2.207   1.895
 3396SOL    HW110204   3.707   2.179   1.866
 3396SOL    HW210205   3.830   2.284   1.839
 3397SOL     OW10206   3.796   2.028   2.180
 3397SOL    HW110207   3.779   2.111   2.126
 3397SOL    HW210208   3.886   1.991   2.158
 3398SOL     OW10209   4.337   2.704   3.293
 3398SOL    HW110210   4.393   2.785   3.276
 3398SOL    HW210211   4.396   2.624   3.296
 3399SOL     OW10212   4.440   2.427   3.570
 3399SOL    HW110213   4.459   2.492   3.644
 3399SOL    HW210214   4.500   2.347   3.579
 3400SOL     OW10215   4.114   3.603   3.422
 3400SOL    HW110216   4.023   3.644   3.420
 3400SOL    HW210217   4.107   3.509   3.454
 3401SOL     OW10218   4.949   2.187   2.311
 3401SOL    HW110219   5.014   2.113   2.300
 3401SOL    HW210220   4.969   2.237   2.395
 3402SOL     OW10221   4.318   2.607   2.514
 3402SOL    HW110222   4.368   2.692   2.495
 3402SOL    HW210223   4.230   2.609   2.466
 3403SOL     OW10224   4.583   3.236   1.878
 3403SOL    HW110225   4.537   3.251   1.966
 3403SOL    HW210226   4.627   3.321   1.848
 3404SOL     OW10227   4.385   3.652   2.815
 3404SOL    HW110228   4.339   3.740   2.802
 3404SOL    HW210229   4.484   3.664   2.808
 3405SOL     OW10230   4.583   2.818   2.723
 3405SOL    HW110231   4.637   2.749   2.771
 3405SOL    HW210232   4.551   2.887   2.789
 3406SOL     OW10233   3.945   3.176   3.706
 3406SOL    HW110234   3.880   3.103   3.685
 3406SOL    HW210235   3.949   3.190   3.804
 3407SOL     OW10236   3.803   3.102   2.515
 3407SOL    HW110237   3.802   3.055   2.603
 3407SOL    HW210238   3.885   3.074   2.464
 3408SOL     OW10239   4.396   3.253   3.486
 3408SOL    HW110240   4.318   3.203   3.524
 3408SOL    HW210241   4.393   3.348   3.517
 3409SOL     OW10242   4.152   2.286   2.382
 3409SOL    HW110243   4.182   2.214   2.320
 3409SOL    HW210244   4.113   2.246   2.465
 3410SOL     OW10245   4.041   2.409   3.142
 3410SOL    HW110246   4.079   2.350   3.214
 3410SOL    HW210247   4.081   2.383   3.054
 3411SOL     OW10248   4.536   3.448   2.549
 3411SOL    HW110249   4.568   3.458   2.455
 3411SOL    HW210250   4.457   3.386   2.551
 3412SOL     OW10251   4.725   1.896   3.016
 3412SOL    HW110252   4.662   1.824   2.985
 3412SOL    HW210253   4.818   1.860   3.016
 3413SOL     OW10254   4.494   3.192   2.163
 3413SOL    HW110255   4.448   3.105   2.180
 3413SOL    HW210256   4.585   3.189   2.204
 3414SOL     OW10257   4.342   3.429   3.146
 3414SOL    HW110258   4.337   3.511   3.203
 3414SOL    HW210259   4.431   3.426   3.101
 3415SOL     OW10260   3.763   2.939   2.162
 3415SOL    HW110261   3.862   2.928   2.153
 3415SOL    HW210262   3.723   2.853   2.194
 3416SOL     OW10263   4.599   3.508   2.199
 3416SOL    HW110264   4.522   3.473   2.145
 3416SOL    HW210265   4.567   3.579   2.261
 3417SOL     OW10266   3.954   2.490   3.837
 3417SOL    HW110267   3.861   2.488   3.874
 3417SOL    HW210268   3.955   2.451   3.745
 3418SOL     OW10269   3.949   2.137   4.720
 3418SOL    HW110270   3.984   2.120   4.812
 3418SOL    HW210271   3.861   2.092   4.708
 3419SOL     OW10272   3.743   2.230   4.371
 3419SOL    HW110273   3.661   2.273   4.410
 3419SOL    HW210274   3.715   2.157   4.308
 3420SOL     OW10275   4.492   3.006   4.747
 3420SOL    HW110276   4.414   3.023   4.807
 3420SOL    HW210277   4.526   3.093   4.711
 3421SOL     OW10278   4.409   2.874   4.389
 3421SOL    HW110279   4.478   2.858   4.459
 3421SOL    HW210280   4.336   2.931   4.427
 3422SOL     OW10281   4.059   3.297   4.785
 3422SOL    HW110282   3.981   3.266   4.732
 3422SOL    HW210283   4.117   3.355   4.728
 3423SOL     OW10284   3.955   3.575   4.207
 3423SOL    HW110285   3.989   3.652   4.261
 3423SOL    HW210286   3.999   3.575   4.117
 3424SOL     OW10287   3.954   3.296   4.262
 3424SOL    HW110288   3.928   3.392   4.262
 3424SOL    HW210289   3.883   3.242   4.307
 3425SOL     OW10290   3.964   2.953   4.610
 3425SOL    HW110291   3.978   2.869   4.662
 3425SOL    HW210292   3.909   3.017   4.665
 3426SOL     OW10293   4.330   2.826   3.847
 3426SOL    HW110294   4.337   2.910   3.793
 3426SOL    HW210295   4.376   2.839   3.935
 3427SOL     OW10296   3.846   2.505   4.287
 3427SOL    HW110297   3.801   2.417   4.304
 3427SOL    HW210298   3.845   2.559   4.371
 3428SOL     OW10299   3.751   3.458   3.841
 3428SOL    HW110300   3.732   3.362   3.862
 3428SOL    HW210301   3.718   3.516   3.916
 3429SOL     OW10302   4.337   3.227   4.450
 3429SOL    HW110303   4.288   3.140   4.459
 3429SOL    HW210304   4.314   3.270   4.363
 3430SOL     OW10305   4.533   1.866   4.226
 3430SOL    HW110306   4.573   1.957   4.217
 3430SOL    HW210307   4.433   1.874   4.232
 3431SOL     OW10308   4.322   2.591   3.994
 3431SOL    HW110309   4.346   2.660   3.926
 3431SOL    HW210310   4.244   2.624   4.048
 3432SOL     OW10311   4.765   2.563   4.153
 3432SOL    HW110312   4.791   2.559   4.249
 3432SOL    HW210313   4.680   2.512   4.139
 3433SOL     OW10314   3.800   2.673   4.513
 3433SOL    HW110315   3.899   2.661   4.522
 3433SOL    HW210316   3.776   2.768   4.534
 3434SOL     OW10317   4.589   2.210   3.919
 3434SOL    HW110318   4.648   2.273   3.870
 3434SOL    HW210319   4.608   2.116   3.890
 3435SOL     OW10320   4.274   2.058   4.609
 3435SOL    HW110321   4.269   2.053   4.709
 3435SOL    HW210322   4.276   2.154   4.580
 3436SOL     OW10323   4.732   3.318   4.201
 3436SOL    HW110324   4.686   3.390   4.149
 3436SOL    HW210325   4.728   3.338   4.299
 3437SOL     OW10326   4.075   3.663   4.577
 3437SOL    HW110327   4.125   3.577   4.583
 3437SOL    HW210328   4.140   3.740   4.574
 3438SOL     OW10329   4.045   2.805   3.966
 3438SOL    HW110330   4.127   2.844   3.924
 3438SOL    HW210331   4.018   2.723   3.917
 3439SOL     OW10332   4.188   3.605   4.047
 3439SOL    HW110333   4.221   3.644   4.133
 3439SOL    HW210334   4.264   3.598   3.982
 3440SOL     OW10335   3.973   3.647   4.965
 3440SOL    HW110336   4.030   3.582   5.015
 3440SOL    HW210337   3.957   3.614   4.872
 3441SOL     OW10338   4.106   2.562   4.204
 3441SOL    HW110339   4.151   2.472   4.201
 3441SOL    HW210340   4.012   2.551   4.237
 3442SOL     OW10341   4.338   1.984   3.841
 3442SOL    HW110342   4.436   1.962   3.848
 3442SOL    HW210343   4.307   1.967   3.748
 3443SOL     OW10344   4.527   3.264   4.648
 3443SOL    HW110345   4.617   3.278   4.606
 3443SOL    HW210346   4.456   3.266   4.577
 3444SOL     OW10347   4.646   2.365   4.623
 3444SOL    HW110348   4.621   2.356   4.527
 3444SOL    HW210349   4.694   2.283   4.654
 3445SOL     OW10350   4.263   1.926   4.236
 3445SOL    HW110351   4.182   1.927   4.294
 3445SOL    HW210352   4.266   2.009   4.181
 3446SOL     OW10353   4.021   1.897   3.895
 3446SOL    HW110354   4.070   1.981   3.874
 3446SOL    HW210355   4.083   1.832   3.940
 3447SOL     OW10356   4.659   2.098   4.204
 3447SOL    HW110357   4.611   2.139   4.126
 3447SOL    HW210358   4.758   2.096   4.185
 3448SOL     OW10359   4.951   3.432   4.517
 3448SOL    HW110360   4.972   3.506   4.452
 3448SOL    HW210361   5.019   3.432   4.590
 3449SOL     OW10362   4.183   3.014   4.465
 3449SOL    HW110363   4.112   2.987   4.530
 3449SOL    HW210364   4.157   2.986   4.372
 3450SOL     OW10365   4.756   2.411   3.740
 3450SOL    HW110366   4.715   2.493   3.701
 3450SOL    HW210367   4.820   2.437   3.813
 3451SOL     OW10368   4.590   2.316   4.366
 3451SOL    HW110369   4.558   2.388   4.304
 3451SOL    HW210370   4.614   2.235   4.313
 3452SOL     OW10371   4.741   1.901   4.477
 3452SOL    HW110372   4.669   1.906   4.408
 3452SOL    HW210373   4.717   1.832   4.546
 3453SOL     OW10374   4.212   3.247   3.898
 3453SOL    HW110375   4.125   3.232   3.945
 3453SOL    HW210376   4.195   3.273   3.803
 3454SOL     OW10377   4.251   2.118   4.052
 3454SOL    HW110378   4.278   2.059   3.977
 3454SOL    HW210379   4.251   2.213   4.021
 3455SOL     OW10380   4.429   2.912   4.092
 3455SOL    HW110381   4.415   2.919   4.191
 3455SOL    HW210382   4.513   2.861   4.074
 3456SOL     OW10383   4.091   2.962   4.225
 3456SOL    HW110384   4.084   3.045   4.169
 3456SOL    HW210385   4.095   2.882   4.165
 3457SOL     OW10386   4.290   2.399   4.589
 3457SOL    HW110387   4.302   2.465   4.515
 3457SOL    HW210388   4.336   2.433   4.672
 3458SOL     OW10389   4.297   2.732   4.753
 3458SOL    HW110390   4.341   2.821   4.744
 3458SOL    HW210391   4.234   2.732   4.830
 3459SOL     OW10392   4.933   2.387   3.999
 3459SOL    HW110393   4.946   2.303   4.053
 3459SOL    HW210394   4.904   2.461   4.059
 3460SOL     OW10395   4.031   2.075   4.955
 3460SOL    HW110396   4.008   2.112   5.045
 3460SOL    HW210397   4.001   1.980   4.949
 3461SOL     OW10398   4.456   2.496   4.788
 3461SOL    HW110399   4.515   2.470   4.712
 3461SOL    HW210400   4.428   2.592   4.777
 3462SOL     OW10401   4.031   1.925   4.342
 3462SOL    HW110402   4.020   2.019   4.375
 3462SOL    HW210403   4.026   1.862   4.419
 3463SOL     OW10404   4.043   2.672   4.673
 3463SOL    HW110405   4.136   2.708   4.678
 3463SOL    HW210406   4.037   2.587   4.725
 3464SOL     OW10407   4.063   2.371   4.730
 3464SOL    HW110408   4.011   2.288   4.713
 3464SOL    HW210409   4.140   2.376   4.666
 3465SOL     OW10410   3.732   3.188   3.924
 3465SOL    HW110411   3.639   3.209   3.893
 3465SOL    HW210412   3.742   3.089   3.937
 3466SOL     OW10413   3.812   3.663   4.651
 3466SOL    HW110414   3.770   3.577   4.624
 3466SOL    HW210415   3.906   3.666   4.617
 3467SOL     OW10416   4.228   3.430   4.634
 3467SOL    HW110417   4.294   3.504   4.643
 3467SOL    HW210418   4.272   3.351   4.592
 3468SOL     OW10419   4.726   2.658   4.962
 3468SOL    HW110420   4.767   2.626   5.048
 3468SOL    HW210421   4.630   2.631   4.959
 3469SOL     OW10422   4.539   2.434   4.049
 3469SOL    HW110423   4.546   2.345   4.003
 3469SOL    HW210424   4.445   2.468   4.041
 3470SOL     OW10425   4.395   2.326   4.993
 3470SOL    HW110426   4.361   2.237   4.963
 3470SOL    HW210427   4.421   2.380   4.913
 3471SOL     OW10428   4.197   2.362   3.915
 3471SOL    HW110429   4.258   2.442   3.919
 3471SOL    HW210430   4.102   2.393   3.922
 3472SOL     OW10431   3.807   3.120   4.746
 3472SOL    HW110432   3.802   3.119   4.846
 3472SOL    HW210433   3.724   3.079   4.708
 3473SOL     OW10434   5.004   2.789   4.396
 3473SOL    HW110435   5.064   2.708   4.398
 3473SOL    HW210436   5.044   2.858   4.336
 3474SOL     OW10437   4.396   3.478   3.878
 3474SOL    HW110438   4.405   3.488   3.779
 3474SOL    HW210439   4.356   3.389   3.899
 3475SOL     OW10440   3.987   2.188   4.444
 3475SOL    HW110441   3.908   2.239   4.410
 3475SOL    HW210442   3.978   2.173   4.542
 3476SOL     OW10443   4.640   2.772   4.015
 3476SOL    HW110444   4.703   2.810   3.947
 3476SOL    HW210445   4.680   2.689   4.054
 3477SOL     OW10446   4.763   2.960   4.420
 3477SOL    HW110447   4.693   2.913   4.474
 3477SOL    HW210448   4.822   2.892   4.377
 3478SOL     OW10449   4.314   3.349   4.215
 3478SOL    HW110450   4.356   3.291   4.145
 3478SOL    HW210451   4.270   3.428   4.171
 3479SOL     OW10452   3.979   3.210   4.014
 3479SOL    HW110453   3.883   3.211   3.987
 3479SOL    HW210454   3.991   3.263   4.098
 3480SOL     OW10455   3.799   2.207   3.757
 3480SOL    HW110456   3.707   2.179   3.728
 3480SOL    HW210457   3.830   2.284   3.701
 3481SOL     OW10458   3.796   2.028   4.042
 3481SOL    HW110459   3.779   2.111   3.988
 3481SOL    HW210460   3.886   1.991   4.020
 3482SOL     OW10461   4.949   2.187   4.173
 3482SOL    HW110462   5.014   2.113   4.162
 3482SOL    HW210463   4.969   2.237   4.257
 3483SOL     OW10464   4.318   2.607   4.376
 3483SOL    HW110465   4.368   2.692   4.357
 3483SOL    HW210466   4.230   2.609   4.328
 3484SOL     OW10467   4.583   3.236   3.740
 3484SOL    HW110468   4.537   3.251   3.828
 3484SOL    HW210469   4.627   3.321   3.710
 3485SOL     OW10470   4.385   3.652   4.677
 3485SOL    HW110471   4.339   3.740   4.664
 3485SOL    HW210472   4.484   3.664   4.670
 3486SOL     OW10473   4.583   2.818   4.585
 3486SOL    HW110474   4.637   2.749   4.633
 3486SOL    HW210475   4.551   2.887   4.651
 3487SOL     OW10476   3.803   3.102   4.377
 3487SOL    HW110477   3.802   3.055   4.465
 3487SOL    HW210478   3.885   3.074   4.326
 3488SOL     OW10479   4.152   2.286   4.244
 3488SOL    HW110480   4.182   2.214   4.182
 3488SOL    HW210481   4.113   2.246   4.327
 3489SOL     OW10482   4.536   3.448   4.411
 3489SOL    HW110483   4.568   3.458   4.317
 3489SOL    HW210484   4.457   3.386   4.413
 3490SOL     OW10485   4.494   3.192   4.025
 3490SOL    HW110486   4.448   3.105   4.042
 3490SOL    HW210487   4.585   3.189   4.066
 3491SOL     OW10488   3.763   2.939   4.024
 3491SOL    HW110489   3.862   2.928   4.015
 3491SOL    HW210490   3.723   2.853   4.056
 3492SOL     OW10491   4.599   3.508   4.061
 3492SOL    HW110492   4.522   3.473   4.007
 3492SOL    HW210493   4.567   3.579   4.123
 3493SOL     OW10494   3.954   4.352   0.113
 3493SOL    HW110495   3.861   4.350   0.150
 3493SOL    HW210496   3.955   4.313   0.021
 3494SOL     OW10497   3.949   3.999   0.996
 3494SOL    HW110498   3.984   3.982   1.088
 3494SOL    HW210499   3.861   3.954   0.984
 3495SOL     OW10500   3.743   4.092   0.647
 3495SOL    HW110501   3.661   4.135   0.686
 3495SOL    HW210502   3.715   4.019   0.584
 3496SOL     OW10503   4.492   4.868   1.023
 3496SOL    HW110504   4.414   4.885   1.083
 3496SOL    HW210505   4.526   4.955   0.987
 3497SOL     OW10506   4.574   4.522   1.823
 3497SOL    HW110507   4.570   4.598   1.888
 3497SOL    HW210508   4.596   4.558   1.732
 3498SOL     OW10509   4.409   4.736   0.665
 3498SOL    HW110510   4.478   4.720   0.735
 3498SOL    HW210511   4.336   4.793   0.703
 3499SOL     OW10512   4.162   4.116   1.499
 3499SOL    HW110513   4.244   4.060   1.508
 3499SOL    HW210514   4.081   4.058   1.503
 3500SOL     OW10515   3.964   4.815   0.886
 3500SOL    HW110516   3.978   4.731   0.938
 3500SOL    HW210517   3.909   4.879   0.941
 3501SOL     OW10518   4.330   4.688   0.123
 3501SOL    HW110519   4.337   4.772   0.069
 3501SOL    HW210520   4.376   4.701   0.211
 3502SOL     OW10521   3.846   4.367   0.563
 3502SOL    HW110522   3.801   4.279   0.580
 3502SOL    HW210523   3.845   4.421   0.647
 3503SOL     OW10524   3.837   4.461   1.597
 3503SOL    HW110525   3.925   4.448   1.642
 3503SOL    HW210526   3.824   4.558   1.575
 3504SOL     OW10527   4.533   3.728   0.502
 3504SOL    HW110528   4.573   3.819   0.493
 3504SOL    HW210529   4.433   3.736   0.508
 3505SOL     OW10530   3.921   4.700   1.264
 3505SOL    HW110531   4.010   4.655   1.250
 3505SOL    HW210532   3.848   4.635   1.245
 3506SOL     OW10533   4.041   3.975   1.801
 3506SOL    HW110534   4.112   4.046   1.807
 3506SOL    HW210535   3.953   4.014   1.829
 3507SOL     OW10536   4.322   4.453   0.270
 3507SOL    HW110537   4.346   4.522   0.202
 3507SOL    HW210538   4.244   4.486   0.324
 3508SOL     OW10539   4.531   4.329   1.465
 3508SOL    HW110540   4.484   4.326   1.554
 3508SOL    HW210541   4.480   4.274   1.399
 3509SOL     OW10542   4.697   4.614   1.572
 3509SOL    HW110543   4.743   4.530   1.543
 3509SOL    HW210544   4.641   4.648   1.497
 3510SOL     OW10545   4.715   4.134   1.242
 3510SOL    HW110546   4.638   4.168   1.296
 3510SOL    HW210547   4.681   4.083   1.163
 3511SOL     OW10548   4.765   4.425   0.429
 3511SOL    HW110549   4.791   4.421   0.525
 3511SOL    HW210550   4.680   4.374   0.415
 3512SOL     OW10551   3.800   4.535   0.789
 3512SOL    HW110552   3.899   4.523   0.798
 3512SOL    HW210553   3.776   4.630   0.810
 3513SOL     OW10554   4.589   4.072   0.195
 3513SOL    HW110555   4.648   4.135   0.146
 3513SOL    HW210556   4.608   3.978   0.166
 3514SOL     OW10557   4.274   3.920   0.885
 3514SOL    HW110558   4.269   3.915   0.985
 3514SOL    HW210559   4.276   4.016   0.856
 3515SOL     OW10560   3.926   4.009   1.498
 3515SOL    HW110561   3.846   4.069   1.485
 3515SOL    HW210562   3.916   3.960   1.584
 3516SOL     OW10563   4.106   4.424   0.480
 3516SOL    HW110564   4.151   4.334   0.477
 3516SOL    HW210565   4.012   4.413   0.513
 3517SOL     OW10566   4.338   3.846   0.117
 3517SOL    HW110567   4.436   3.824   0.124
 3517SOL    HW210568   4.307   3.829   0.024
 3518SOL     OW10569   4.505   3.988   1.749
 3518SOL    HW110570   4.572   3.927   1.792
 3518SOL    HW210571   4.432   4.007   1.814
 3519SOL     OW10572   4.646   4.227   0.899
 3519SOL    HW110573   4.621   4.218   0.803
 3519SOL    HW210574   4.694   4.145   0.930
 3520SOL     OW10575   4.263   3.788   0.512
 3520SOL    HW110576   4.182   3.789   0.570
 3520SOL    HW210577   4.266   3.871   0.457
 3521SOL     OW10578   4.659   3.960   0.480
 3521SOL    HW110579   4.611   4.001   0.402
 3521SOL    HW210580   4.758   3.958   0.461
 3522SOL     OW10581   4.756   4.273   0.016
 3522SOL    HW110582   4.715   4.355  -0.023
 3522SOL    HW210583   4.820   4.299   0.089
 3523SOL     OW10584   3.802   4.280   1.386
 3523SOL    HW110585   3.894   4.279   1.345
 3523SOL    HW210586   3.796   4.354   1.453
 3524SOL     OW10587   4.285   3.946   1.147
 3524SOL    HW110588   4.323   3.862   1.184
 3524SOL    HW210589   4.197   3.965   1.191
 3525SOL     OW10590   4.590   4.178   0.642
 3525SOL    HW110591   4.558   4.250   0.580
 3525SOL    HW210592   4.614   4.097   0.589
 3526SOL     OW10593   4.741   3.763   0.753
 3526SOL    HW110594   4.669   3.768   0.684
 3526SOL    HW210595   4.717   3.694   0.822
 3527SOL     OW10596   4.251   3.980   0.328
 3527SOL    HW110597   4.278   3.921   0.253
 3527SOL    HW210598   4.251   4.075   0.297
 3528SOL     OW10599   4.639   3.813   1.402
 3528SOL    HW110600   4.664   3.793   1.307
 3528SOL    HW210601   4.711   3.869   1.444
 3529SOL     OW10602   4.134   4.537   1.251
 3529SOL    HW110603   4.220   4.549   1.301
 3529SOL    HW210604   4.092   4.450   1.278
 3530SOL     OW10605   4.290   4.261   0.865
 3530SOL    HW110606   4.302   4.327   0.791
 3530SOL    HW210607   4.336   4.295   0.948
 3531SOL     OW10608   4.126   4.475   1.598
 3531SOL    HW110609   4.194   4.530   1.551
 3531SOL    HW210610   4.166   4.387   1.625
 3532SOL     OW10611   4.737   3.829   1.770
 3532SOL    HW110612   4.743   3.914   1.718
 3532SOL    HW210613   4.769   3.753   1.713
 3533SOL     OW10614   4.228   3.774   1.740
 3533SOL    HW110615   4.186   3.717   1.670
 3533SOL    HW210616   4.162   3.843   1.772
 3534SOL     OW10617   4.297   4.594   1.029
 3534SOL    HW110618   4.341   4.683   1.020
 3534SOL    HW210619   4.234   4.594   1.106
 3535SOL     OW10620   4.933   4.249   0.275
 3535SOL    HW110621   4.946   4.165   0.329
 3535SOL    HW210622   4.904   4.323   0.335
 3536SOL     OW10623   4.031   3.937   1.231
 3536SOL    HW110624   4.008   3.974   1.321
 3536SOL    HW210625   4.001   3.842   1.225
 3537SOL     OW10626   4.456   4.358   1.064
 3537SOL    HW110627   4.515   4.332   0.988
 3537SOL    HW210628   4.428   4.454   1.053
 3538SOL     OW10629   4.031   3.787   0.618
 3538SOL    HW110630   4.020   3.881   0.651
 3538SOL    HW210631   4.026   3.724   0.695
 3539SOL     OW10632   4.747   4.490   0.966
 3539SOL    HW110633   4.762   4.511   1.062
 3539SOL    HW210634   4.717   4.395   0.957
 3540SOL     OW10635   4.074   4.622   1.804
 3540SOL    HW110636   4.150   4.666   1.852
 3540SOL    HW210637   4.109   4.575   1.722
 3541SOL     OW10638   4.043   4.534   0.949
 3541SOL    HW110639   4.136   4.570   0.954
 3541SOL    HW210640   4.037   4.449   1.001
 3542SOL     OW10641   4.063   4.233   1.006
 3542SOL    HW110642   4.011   4.150   0.989
 3542SOL    HW210643   4.140   4.238   0.942
 3543SOL     OW10644   4.726   4.520   1.238
 3543SOL    HW110645   4.767   4.488   1.324
 3543SOL    HW210646   4.630   4.493   1.235
 3544SOL     OW10647   3.764   4.268   1.114
 3544SOL    HW110648   3.849   4.235   1.073
 3544SOL    HW210649   3.777   4.283   1.212
 3545SOL     OW10650   3.913   4.244   1.722
 3545SOL    HW110651   3.972   4.204   1.652
 3545SOL    HW210652   3.855   4.315   1.681
 3546SOL     OW10653   4.539   4.296   0.325
 3546SOL    HW110654   4.546   4.207   0.279
 3546SOL    HW210655   4.445   4.330   0.317
 3547SOL     OW10656   4.395   4.188   1.269
 3547SOL    HW110657   4.361   4.099   1.239
 3547SOL    HW210658   4.421   4.242   1.189
 3548SOL     OW10659   4.197   4.224   0.191
 3548SOL    HW110660   4.258   4.304   0.195
 3548SOL    HW210661   4.102   4.255   0.198
 3549SOL     OW10662   3.883   4.861   1.466
 3549SOL    HW110663   3.905   4.800   1.542
 3549SOL    HW210664   3.893   4.812   1.380
 3550SOL     OW10665   4.627   3.810   0.133
 3550SOL    HW110666   4.678   3.811   0.047
 3550SOL    HW210667   4.683   3.768   0.204
 3551SOL     OW10668   5.004   4.651   0.672
 3551SOL    HW110669   5.064   4.570   0.674
 3551SOL    HW210670   5.044   4.720   0.612
 3552SOL     OW10671   3.987   4.050   0.720
 3552SOL    HW110672   3.908   4.101   0.686
 3552SOL    HW210673   3.978   4.035   0.818
 3553SOL     OW10674   4.640   4.634   0.291
 3553SOL    HW110675   4.703   4.672   0.223
 3553SOL    HW210676   4.680   4.551   0.330
 3554SOL     OW10677   4.738   3.960   0.971
 3554SOL    HW110678   4.730   3.924   0.878
 3554SOL    HW210679   4.736   3.884   1.036
 3555SOL     OW10680   3.829   4.737   1.726
 3555SOL    HW110681   3.752   4.704   1.780
 3555SOL    HW210682   3.914   4.707   1.768
 3556SOL     OW10683   4.396   3.927   1.489
 3556SOL    HW110684   4.486   3.911   1.449
 3556SOL    HW210685   4.404   3.932   1.588
 3557SOL     OW10686   3.799   4.069   0.033
 3557SOL    HW110687   3.707   4.041   0.004
 3557SOL    HW210688   3.830   4.146  -0.023
 3558SOL     OW10689   3.796   3.890   0.318
 3558SOL    HW110690   3.779   3.973   0.264
 3558SOL    HW210691   3.886   3.853   0.296
 3559SOL     OW10692   4.337   4.566   1.431
 3559SOL    HW110693   4.393   4.647   1.414
 3559SOL    HW210694   4.396   4.486   1.434
 3560SOL     OW10695   4.440   4.289   1.708
 3560SOL    HW110696   4.459   4.354   1.782
 3560SOL    HW210697   4.500   4.209   1.717
 3561SOL     OW10698   4.949   4.049   0.449
 3561SOL    HW110699   5.014   3.975   0.438
 3561SOL    HW210700   4.969   4.099   0.533
 3562SOL     OW10701   4.318   4.469   0.652
 3562SOL    HW110702   4.368   4.554   0.633
 3562SOL    HW210703   4.230   4.471   0.604
 3563SOL     OW10704   4.583   4.680   0.861
 3563SOL    HW110705   4.637   4.611   0.909
 3563SOL    HW210706   4.551   4.749   0.927
 3564SOL     OW10707   3.803   4.964   0.653
 3564SOL    HW110708   3.802   4.917   0.741
 3564SOL    HW210709   3.885   4.936   0.602
 3565SOL     OW10710   4.152   4.148   0.520
 3565SOL    HW110711   4.182   4.076   0.458
 3565SOL    HW210712   4.113   4.108   0.603
 3566SOL     OW10713   4.041   4.271   1.280
 3566SOL    HW110714   4.079   4.212   1.352
 3566SOL    HW210715   4.081   4.245   1.192
 3567SOL     OW10716   4.725   3.758   1.154
 3567SOL    HW110717   4.662   3.686   1.123
 3567SOL    HW210718   4.818   3.722   1.154
 3568SOL     OW10719   3.763   4.801   0.300
 3568SOL    HW110720   3.862   4.790   0.291
 3568SOL    HW210721   3.723   4.715   0.332
 3569SOL     OW10722   3.954   4.352   1.975
 3569SOL    HW110723   3.861   4.350   2.012
 3569SOL    HW210724   3.955   4.313   1.883
 3570SOL     OW10725   3.949   3.999   2.858
 3570SOL    HW110726   3.984   3.982   2.950
 3570SOL    HW210727   3.861   3.954   2.846
 3571SOL     OW10728   3.743   4.092   2.509
 3571SOL    HW110729   3.661   4.135   2.548
 3571SOL    HW210730   3.715   4.019   2.446
 3572SOL     OW10731   4.492   4.868   2.885
 3572SOL    HW110732   4.414   4.885   2.945
 3572SOL    HW210733   4.526   4.955   2.849
 3573SOL     OW10734   4.574   4.522   3.685
 3573SOL    HW110735   4.570   4.598   3.750
 3573SOL    HW210736   4.596   4.558   3.594
 3574SOL     OW10737   4.409   4.736   2.527
 3574SOL    HW110738   4.478   4.720   2.597
 3574SOL    HW210739   4.336   4.793   2.565
 3575SOL     OW10740   4.162   4.116   3.361
 3575SOL    HW110741   4.244   4.060   3.370
 3575SOL    HW210742   4.081   4.058   3.365
 3576SOL     OW10743   3.964   4.815   2.748
 3576SOL    HW110744   3.978   4.731   2.800
 3576SOL    HW210745   3.909   4.879   2.803
 3577SOL     OW10746   4.330   4.688   1.985
 3577SOL    HW110747   4.337   4.772   1.931
 3577SOL    HW210748   4.376   4.701   2.073
 3578SOL     OW10749   3.846   4.367   2.425
 3578SOL    HW110750   3.801   4.279   2.442
 3578SOL    HW210751   3.845   4.421   2.509
 3579SOL     OW10752   3.837   4.461   3.459
 3579SOL    HW110753   3.925   4.448   3.504
 3579SOL    HW210754   3.824   4.558   3.437
 3580SOL     OW10755   4.533   3.728   2.364
 3580SOL    HW110756   4.573   3.819   2.355
 3580SOL    HW210757   4.433   3.736   2.370
 3581SOL     OW10758   3.921   4.700   3.126
 3581SOL    HW110759   4.010   4.655   3.112
 3581SOL    HW210760   3.848   4.635   3.107
 3582SOL     OW10761   4.041   3.975   3.663
 3582SOL    HW110762   4.112   4.046   3.669
 3582SOL    HW210763   3.953   4.014   3.691
 3583SOL     OW10764   4.322   4.453   2.132
 3583SOL    HW110765   4.346   4.522   2.064
 3583SOL    HW210766   4.244   4.486   2.186
 3584SOL     OW10767   4.531   4.329   3.327
 3584SOL    HW110768   4.484   4.326   3.416
 3584SOL    HW210769   4.480   4.274   3.261
 3585SOL     OW10770   4.697   4.614   3.434
 3585SOL    HW110771   4.743   4.530   3.405
 3585SOL    HW210772   4.641   4.648   3.359
 3586SOL     OW10773   4.715   4.134   3.104
 3586SOL    HW110774   4.638   4.168   3.158
 3586SOL    HW210775   4.681   4.083   3.025
 3587SOL     OW10776   4.765   4.425   2.291
 3587SOL    HW110777   4.791   4.421   2.387
 3587SOL    HW210778   4.680   4.374   2.277
 3588SOL     OW10779   3.800   4.535   2.651
 3588SOL    HW110780   3.899   4.523   2.660
 3588SOL    HW210781   3.776   4.630   2.672
 3589SOL     OW10782   4.589   4.072   2.057
 3589SOL    HW110783   4.648   4.135   2.008
 3589SOL    HW210784   4.608   3.978   2.028
 3590SOL     OW10785   4.274   3.920   2.747
 3590SOL    HW110786   4.269   3.915   2.847
 3590SOL    HW210787   4.276   4.016   2.718
 3591SOL     OW10788   3.926   4.009   3.360
 3591SOL    HW110789   3.846   4.069   3.347
 3591SOL    HW210790   3.916   3.960   3.446
 3592SOL     OW10791   4.106   4.424   2.342
 3592SOL    HW110792   4.151   4.334   2.339
 3592SOL    HW210793   4.012   4.413   2.375
 3593SOL     OW10794   4.338   3.846   1.979
 3593SOL    HW110795   4.436   3.824   1.986
 3593SOL    HW210796   4.307   3.829   1.886
 3594SOL     OW10797   4.505   3.988   3.611
 3594SOL    HW110798   4.572   3.927   3.654
 3594SOL    HW210799   4.432   4.007   3.676
 3595SOL     OW10800   4.646   4.227   2.761
 3595SOL    HW110801   4.621   4.218   2.665
 3595SOL    HW210802   4.694   4.145   2.792
 3596SOL     OW10803   4.263   3.788   2.374
 3596SOL    HW110804   4.182   3.789   2.432
 3596SOL    HW210805   4.266   3.871   2.319
 3597SOL     OW10806   4.021   3.759   2.033
 3597SOL    HW110807   4.070   3.843   2.012
 3597SOL    HW210808   4.083   3.694   2.078
 3598SOL     OW10809   4.659   3.960   2.342
 3598SOL    HW110810   4.611   4.001   2.264
 3598SOL    HW210811   4.758   3.958   2.323
 3599SOL     OW10812   4.756   4.273   1.878
 3599SOL    HW110813   4.715   4.355   1.839
 3599SOL    HW210814   4.820   4.299   1.951
 3600SOL     OW10815   3.802   4.280   3.248
 3600SOL    HW110816   3.894   4.279   3.207
 3600SOL    HW210817   3.796   4.354   3.315
 3601SOL     OW10818   4.285   3.946   3.009
 3601SOL    HW110819   4.323   3.862   3.046
 3601SOL    HW210820   4.197   3.965   3.053
 3602SOL     OW10821   4.590   4.178   2.504
 3602SOL    HW110822   4.558   4.250   2.442
 3602SOL    HW210823   4.614   4.097   2.451
 3603SOL     OW10824   4.741   3.763   2.615
 3603SOL    HW110825   4.669   3.768   2.546
 3603SOL    HW210826   4.717   3.694   2.684
 3604SOL     OW10827   4.251   3.980   2.190
 3604SOL    HW110828   4.278   3.921   2.115
 3604SOL    HW210829   4.251   4.075   2.159
 3605SOL     OW10830   4.639   3.813   3.264
 3605SOL    HW110831   4.664   3.793   3.169
 3605SOL    HW210832   4.711   3.869   3.306
 3606SOL     OW10833   4.134   4.537   3.113
 3606SOL    HW110834   4.220   4.549   3.163
 3606SOL    HW210835   4.092   4.450   3.140
 3607SOL     OW10836   4.290   4.261   2.727
 3607SOL    HW110837   4.302   4.327   2.653
 3607SOL    HW210838   4.336   4.295   2.810
 3608SOL     OW10839   4.126   4.475   3.460
 3608SOL    HW110840   4.194   4.530   3.413
 3608SOL    HW210841   4.166   4.387   3.487
 3609SOL     OW10842   4.737   3.829   3.632
 3609SOL    HW110843   4.743   3.914   3.580
 3609SOL    HW210844   4.769   3.753   3.575
 3610SOL     OW10845   4.228   3.774   3.602
 3610SOL    HW110846   4.186   3.717   3.532
 3610SOL    HW210847   4.162   3.843   3.634
 3611SOL     OW10848   4.297   4.594   2.891
 3611SOL    HW110849   4.341   4.683   2.882
 3611SOL    HW210850   4.234   4.594   2.968
 3612SOL     OW10851   4.933   4.249   2.137
 3612SOL    HW110852   4.946   4.165   2.191
 3612SOL    HW210853   4.904   4.323   2.197
 3613SOL     OW10854   4.031   3.937   3.093
 3613SOL    HW110855   4.008   3.974   3.183
 3613SOL    HW210856   4.001   3.842   3.087
 3614SOL     OW10857   4.456   4.358   2.926
 3614SOL    HW110858   4.515   4.332   2.850
 3614SOL    HW210859   4.428   4.454   2.915
 3615SOL     OW10860   4.031   3.787   2.480
 3615SOL    HW110861   4.020   3.881   2.513
 3615SOL    HW210862   4.026   3.724   2.557
 3616SOL     OW10863   4.747   4.490   2.828
 3616SOL    HW110864   4.762   4.511   2.924
 3616SOL    HW210865   4.717   4.395   2.819
 3617SOL     OW10866   4.074   4.622   3.666
 3617SOL    HW110867   4.150   4.666   3.714
 3617SOL    HW210868   4.109   4.575   3.584
 3618SOL     OW10869   4.043   4.534   2.811
 3618SOL    HW110870   4.136   4.570   2.816
 3618SOL    HW210871   4.037   4.449   2.863
 3619SOL     OW10872   4.063   4.233   2.868
 3619SOL    HW110873   4.011   4.150   2.851
 3619SOL    HW210874   4.140   4.238   2.804
 3620SOL     OW10875   4.726   4.520   3.100
 3620SOL    HW110876   4.767   4.488   3.186
 3620SOL    HW210877   4.630   4.493   3.097
 3621SOL     OW10878   3.764   4.268   2.976
 3621SOL    HW110879   3.849   4.235   2.935
 3621SOL    HW210880   3.777   4.283   3.074
 3622SOL     OW10881   3.913   4.244   3.584
 3622SOL    HW110882   3.972   4.204   3.514
 3622SOL    HW210883   3.855   4.315   3.543
 3623SOL     OW10884   4.539   4.296   2.187
 3623SOL    HW110885   4.546   4.207   2.141
 3623SOL    HW210886   4.445   4.330   2.179
 3624SOL     OW10887   4.395   4.188   3.131
 3624SOL    HW110888   4.361   4.099   3.101
 3624SOL    HW210889   4.421   4.242   3.051
 3625SOL     OW10890   4.197   4.224   2.053
 3625SOL    HW110891   4.258   4.304   2.057
 3625SOL    HW210892   4.102   4.255   2.060
 3626SOL     OW10893   3.883   4.861   3.328
 3626SOL    HW110894   3.905   4.800   3.404
 3626SOL    HW210895   3.893   4.812   3.242
 3627SOL     OW10896   5.026   4.579   2.171
 3627SOL    HW110897   4.940   4.548   2.213
 3627SOL    HW210898   5.022   4.565   2.072
 3628SOL     OW10899   5.004   4.651   2.534
 3628SOL    HW110900   5.064   4.570   2.536
 3628SOL    HW210901   5.044   4.720   2.474
 3629SOL     OW10902   3.987   4.050   2.582
 3629SOL    HW110903   3.908   4.101   2.548
 3629SOL    HW210904   3.978   4.035   2.680
 3630SOL     OW10905   4.640   4.634   2.153
 3630SOL    HW110906   4.703   4.672   2.085
 3630SOL    HW210907   4.680   4.551   2.192
 3631SOL     OW10908   4.738   3.960   2.833
 3631SOL    HW110909   4.730   3.924   2.740
 3631SOL    HW210910   4.736   3.884   2.898
 3632SOL     OW10911   3.829   4.737   3.588
 3632SOL    HW110912   3.752   4.704   3.642
 3632SOL    HW210913   3.914   4.707   3.630
 3633SOL     OW10914   4.396   3.927   3.351
 3633SOL    HW110915   4.486   3.911   3.311
 3633SOL    HW210916   4.404   3.932   3.450
 3634SOL     OW10917   3.799   4.069   1.895
 3634SOL    HW110918   3.707   4.041   1.866
 3634SOL    HW210919   3.830   4.146   1.839
 3635SOL     OW10920   3.796   3.890   2.180
 3635SOL    HW110921   3.779   3.973   2.126
 3635SOL    HW210922   3.886   3.853   2.158
 3636SOL     OW10923   4.337   4.566   3.293
 3636SOL    HW110924   4.393   4.647   3.276
 3636SOL    HW210925   4.396   4.486   3.296
 3637SOL     OW10926   4.440   4.289   3.570
 3637SOL    HW110927   4.459   4.354   3.644
 3637SOL    HW210928   4.500   4.209   3.579
 3638SOL     OW10929   4.949   4.049   2.311
 3638SOL    HW110930   5.014   3.975   2.300
 3638SOL    HW210931   4.969   4.099   2.395
 3639SOL     OW10932   4.318   4.469   2.514
 3639SOL    HW110933   4.368   4.554   2.495
 3639SOL    HW210934   4.230   4.471   2.466
 3640SOL     OW10935   4.583   4.680   2.723
 3640SOL    HW110936   4.637   4.611   2.771
 3640SOL    HW210937   4.551   4.749   2.789
 3641SOL     OW10938   3.803   4.964   2.515
 3641SOL    HW110939   3.802   4.917   2.603
 3641SOL    HW210940   3.885   4.936   2.464
 3642SOL     OW10941   4.152   4.148   2.382
 3642SOL    HW110942   4.182   4.076   2.320
 3642SOL    HW210943   4.113   4.108   2.465
 3643SOL     OW10944   4.041   4.271   3.142
 3643SOL    HW110945   4.079   4.212   3.214
 3643SOL    HW210946   4.081   4.245   3.054
 3644SOL     OW10947   4.725   3.758   3.016
 3644SOL    HW110948   4.662   3.686   2.985
 3644SOL    HW210949   4.818   3.722   3.016
 3645SOL     OW10950   3.763   4.801   2.162
 3645SOL    HW110951   3.862   4.790   2.153
 3645SOL    HW210952   3.723   4.715   2.194
 3646SOL     OW10953   3.954   4.352   3.837
 3646SOL    HW110954   3.861   4.350   3.874
 3646SOL    HW210955   3.955   4.313   3.745
 3647SOL     OW10956   3.949   3.999   4.720
 3647SOL    HW110957   3.984   3.982   4.812
 3647SOL    HW210958   3.861   3.954   4.708
 3648SOL     OW10959   3.743   4.092   4.371
 3648SOL    HW110960   3.661   4.135   4.410
 3648SOL    HW210961   3.715   4.019   4.308
 3649SOL     OW10962   4.409   4.736   4.389
 3649SOL    HW110963   4.478   4.720   4.459
 3649SOL    HW210964   4.336   4.793   4.427
 3650SOL     OW10965   3.964   4.815   4.610
 3650SOL    HW110966   3.978   4.731   4.662
 3650SOL    HW210967   3.909   4.879   4.665
 3651SOL     OW10968   4.330   4.688   3.847
 3651SOL    HW110969   4.337   4.772   3.793
 3651SOL    HW210970   4.376   4.701   3.935
 3652SOL     OW10971   3.846   4.367   4.287
 3652SOL    HW110972   3.801   4.279   4.304
 3652SOL    HW210973   3.845   4.421   4.371
 3653SOL     OW10974   4.533   3.728   4.226
 3653SOL    HW110975   4.573   3.819   4.217
 3653SOL    HW210976   4.433   3.736   4.232
 3654SOL     OW10977   3.921   4.700   4.988
 3654SOL    HW110978   4.010   4.655   4.974
 3654SOL    HW210979   3.848   4.635   4.969
 3655SOL     OW10980   4.322   4.453   3.994
 3655SOL    HW110981   4.346   4.522   3.926
 3655SOL    HW210982   4.244   4.486   4.048
 3656SOL     OW10983   4.765   4.425   4.153
 3656SOL    HW110984   4.791   4.421   4.249
 3656SOL    HW210985   4.680   4.374   4.139
 3657SOL     OW10986   3.800   4.535   4.513
 3657SOL    HW110987   3.899   4.523   4.522
 3657SOL    HW210988   3.776   4.630   4.534
 3658SOL     OW10989   4.589   4.072   3.919
 3658SOL    HW110990   4.648   4.135   3.870
 3658SOL    HW210991   4.608   3.978   3.890
 3659SOL     OW10992   4.274   3.920   4.609
 3659SOL    HW110993   4.269   3.915   4.709
 3659SOL    HW210994   4.276   4.016   4.580
 3660SOL     OW10995   4.106   4.424   4.204
 3660SOL    HW110996   4.151   4.334   4.201
 3660SOL    HW210997   4.012   4.413   4.237
 3661SOL     OW10998   4.338   3.846   3.841
 3661SOL    HW110999   4.436   3.824   3.848
 3661SOL    HW211000   4.307   3.829   3.748
 3662SOL     OW11001   4.646   4.227   4.623
 3662SOL    HW111002   4.621   4.218   4.527
 3662SOL    HW211003   4.694   4.145   4.654
 3663SOL     OW11004   4.263   3.788   4.236
 3663SOL    HW111005   4.182   3.789   4.294
 3663SOL    HW211006   4.266   3.871   4.181
 3664SOL     OW11007   4.021   3.759   3.895
 3664SOL    HW111008   4.070   3.843   3.874
 3664SOL    HW211009   4.083   3.694   3.940
 3665SOL     OW11010   4.659   3.960   4.204
 3665SOL    HW111011   4.611   4.001   4.126
 3665SOL    HW211012   4.758   3.958   4.185
 3666SOL     OW11013   4.756   4.273   3.740
 3666SOL    HW111014   4.715   4.355   3.701
 3666SOL    HW211015   4.820   4.299   3.813
 3667SOL     OW11016   4.590   4.178   4.366
 3667SOL    HW111017   4.558   4.250   4.304
 3667SOL    HW211018   4.614   4.097   4.313
 3668SOL     OW11019   4.741   3.763   4.477
 3668SOL    HW111020   4.669   3.768   4.408
 3668SOL    HW211021   4.717   3.694   4.546
 3669SOL     OW11022   4.251   3.980   4.052
 3669SOL    HW111023   4.278   3.921   3.977
 3669SOL    HW211024   4.251   4.075   4.021
 3670SOL     OW11025   4.835   4.919   4.824
 3670SOL    HW111026   4.795   4.963   4.905
 3670SOL    HW211027   4.794   4.956   4.741
 3671SOL     OW11028   4.290   4.261   4.589
 3671SOL    HW111029   4.302   4.327   4.515
 3671SOL    HW211030   4.336   4.295   4.672
 3672SOL     OW11031   4.297   4.594   4.753
 3672SOL    HW111032   4.341   4.683   4.744
 3672SOL    HW211033   4.234   4.594   4.830
 3673SOL     OW11034   4.933   4.249   3.999
 3673SOL    HW111035   4.946   4.165   4.053
 3673SOL    HW211036   4.904   4.323   4.059
 3674SOL     OW11037   4.031   3.937   4.955
 3674SOL    HW111038   4.008   3.974   5.045
 3674SOL    HW211039   4.001   3.842   4.949
 3675SOL     OW11040   4.456   4.358   4.788
 3675SOL    HW111041   4.515   4.332   4.712
 3675SOL    HW211042   4.428   4.454   4.777
 3676SOL     OW11043   4.031   3.787   4.342
 3676SOL    HW111044   4.020   3.881   4.375
 3676SOL    HW211045   4.026   3.724   4.419
 3677SOL     OW11046   4.043   4.534   4.673
 3677SOL    HW111047   4.136   4.570   4.678
 3677SOL    HW211048   4.037   4.449   4.725
 3678SOL     OW11049   4.063   4.233   4.730
 3678SOL    HW111050   4.011   4.150   4.713
 3678SOL    HW211051   4.140   4.238   4.666
 3679SOL     OW11052   4.726   4.520   4.962
 3679SOL    HW111053   4.767   4.488   5.048
 3679SOL    HW211054   4.630   4.493   4.959
 3680SOL     OW11055   4.539   4.296   4.049
 3680SOL    HW111056   4.546   4.207   4.003
 3680SOL    HW211057   4.445   4.330   4.041
 3681SOL     OW11058   4.395   4.188   4.993
 3681SOL    HW111059   4.361   4.099   4.963
 3681SOL    HW211060   4.421   4.242   4.913
 3682SOL     OW11061   4.197   4.224   3.915
 3682SOL    HW111062   4.258   4.304   3.919
 3682SOL    HW211063   4.102   4.255   3.922
 3683SOL     OW11064   5.026   4.579   4.033
 3683SOL    HW111065   4.940   4.548   4.075
 3683SOL    HW211066   5.022   4.565   3.934
 3684SOL     OW11067   5.004   4.651   4.396
 3684SOL    HW111068   5.064   4.570   4.398
 3684SOL    HW211069   5.044   4.720   4.336
 3685SOL     OW11070   3.987   4.050   4.444
 3685SOL    HW111071   3.908   4.101   4.410
 3685SOL    HW211072   3.978   4.035   4.542
 3686SOL     OW11073   4.640   4.634   4.015
 3686SOL    HW111074   4.703   4.672   3.947
 3686SOL    HW211075   4.680   4.551   4.054
 3687SOL     OW11076   3.799   4.069   3.757
 3687SOL    HW111077   3.707   4.041   3.728
 3687SOL    HW211078   3.830   4.146   3.701
 3688SOL     OW11079   3.796   3.890   4.042
 3688SOL    HW111080   3.779   3.973   3.988
 3688SOL    HW211081   3.886   3.853   4.020
 3689SOL     OW11082   4.949   4.049   4.173
 3689SOL    HW111083   5.014   3.975   4.162
 3689SOL    HW211084   4.969   4.099   4.257
 3690SOL     OW11085   4.318   4.469   4.376
 3690SOL    HW111086   4.368   4.554   4.357
 3690SOL    HW211087   4.230   4.471   4.328
 3691SOL     OW11088   4.583   4.680   4.585
 3691SOL    HW111089   4.637   4.611   4.633
 3691SOL    HW211090   4.551   4.749   4.651
 3692SOL     OW11091   3.803   4.964   4.377
 3692SOL    HW111092   3.802   4.917   4.465
 3692SOL    HW211093   3.885   4.936   4.326
 3693SOL     OW11094   4.152   4.148   4.244
 3693SOL    HW111095   4.182   4.076   4.182
 3693SOL    HW211096   4.113   4.108   4.327
 3694SOL     OW11097   3.763   4.801   4.024
 3694SOL    HW111098   3.862   4.790   4.015
 3694SOL    HW211099   3.723   4.715   4.056
   4.80985   4.80985   4.80985
