mobley_7360181_GMX.gro created by acpype (v: 2023.10.27) on Thu May 21 00:04:33 2026
   20
    1MOL     C1    1   2.420   2.349   2.131
    1MOL     C2    2   2.153   2.484   2.296
    1MOL     C3    3   2.170   2.078   2.312
    1MOL     C4    4   2.289   2.288   2.326
    1MOL     C5    5   2.412   2.246   2.409
    1MOL     O1    6   2.313   2.273   2.185
    1MOL     O2    7   2.265   2.426   2.363
    1MOL     O3    8   2.176   2.209   2.367
    1MOL     F1    9   2.520   2.322   2.377
    1MOL     F2   10   2.446   2.118   2.386
    1MOL     F3   11   2.390   2.259   2.541
    1MOL     H1   12   2.428   2.330   2.024
    1MOL     H2   13   2.513   2.322   2.182
    1MOL     H3   14   2.400   2.456   2.148
    1MOL     H4   15   2.141   2.588   2.329
    1MOL     H5   16   2.063   2.426   2.319
    1MOL     H6   17   2.171   2.482   2.188
    1MOL     H7   18   2.080   2.027   2.350
    1MOL     H8   19   2.259   2.022   2.340
    1MOL     H9   20   2.164   2.085   2.204
   4.57827   4.57827   4.57827
