; mobley_7415647_GMX_OPLS.top created by acpype (v: 2023.10.27) on Wed May 20 23:50:55 2026

; Include forcefield parameters
#include "ffoplsaa.itp"

; Include mobley_7415647_GMX.itp topology
#include "mobley_7415647_GMX.itp"

; Ligand position restraints
#ifdef POSRES_LIG
#include "posre_mobley_7415647.itp"
#endif

[ system ]
 mobley_7415647

[ molecules ]
; Compound        nmols
 mobley_7415647   1     
