mobley_7415647_GMX.gro created by acpype (v: 2023.10.27) on Wed May 20 23:50:55 2026
 24
    1  MOL   C1    1   0.085  -0.033   0.060
    1  MOL   C2    2   0.296  -0.150   0.067
    1  MOL   C3    3   0.084  -0.024   0.199
    1  MOL   C4    4   0.295  -0.141   0.207
    1  MOL   C5    5   0.190  -0.095  -0.006
    1  MOL   C6    6   0.190  -0.079   0.272
    1  MOL   C7    7   0.191  -0.104  -0.151
    1  MOL   C8    8   0.257  -0.002  -0.371
    1  MOL   C9    9   0.311   0.116  -0.161
    1  MOL   N1   10   0.189  -0.070   0.414
    1  MOL   N2   11   0.251  -0.000  -0.226
    1  MOL   O1   12   0.139  -0.204  -0.202
    1  MOL   O2   13   0.093  -0.013   0.471
    1  MOL   O3   14   0.285  -0.119   0.478
    1  MOL   H1   15   0.002   0.010   0.003
    1  MOL   H2   16   0.379  -0.199   0.017
    1  MOL   H3   17   0.001   0.025   0.249
    1  MOL   H4   18   0.378  -0.184   0.263
    1  MOL   H5   19   0.359   0.017  -0.402
    1  MOL   H6   20   0.190   0.075  -0.410
    1  MOL   H7   21   0.225  -0.101  -0.406
    1  MOL   H8   22   0.235   0.168  -0.103
    1  MOL   H9   23   0.351   0.182  -0.239
    1  MOL  H10   24   0.392   0.083  -0.096
    7.81600     7.72600    17.76400
