; mobley_7415647_GMX_OPLS.itp created by acpype (v: 2023.10.27) on Wed May 20 23:50:55 2026

; For OPLS atomtypes manual fine tuning
; AC_at:OPLS_at:OPLScode: Possible_Alternatives (see ffoplsaa.atp and ffoplsaanb.itp)
; ca:CA:opls_145: ['166', '501', '502']
; c:C:opls_235: ['271']
; c3:CT:opls_135: ['136', '137', '149', '157', '158', '206', '209', '210', '223B', '224B', '245', '246', '274', '283', '284', '285', '292', '292B', '293B', '296', '307', '308', '505']
; no:x:opls_x: []
; n:N:opls_237: ['238', '239']
; o:O:opls_236: ['272']
; ha:HA:opls_146: []
; h1:HC:opls_140: []

[ moleculetype ]
;name            nrexcl
 mobley_7415647   3

[ atoms ]
;   nr  type  resi  res  atom  cgnr     charge      mass       ; qtot   bond_type
     1 opls_145     1   MOL    C1    1    -0.110500     12.01100 ; qtot -0.111  CA  
     2 opls_145     1   MOL    C2    2    -0.110500     12.01100 ; qtot -0.221  CA  
     3 opls_145     1   MOL    C3    3    -0.072000     12.01100 ; qtot -0.293  CA  
     4 opls_145     1   MOL    C4    4    -0.072000     12.01100 ; qtot -0.365  CA  
     5 opls_145     1   MOL    C5    5    -0.085600     12.01100 ; qtot -0.451  CA  
     6 opls_145     1   MOL    C6    6    -0.166200     12.01100 ; qtot -0.617  CA  
     7 opls_235     1   MOL    C7    7     0.662702     12.01100 ; qtot  0.046  C   
     8 opls_135     1   MOL    C8    8     0.073300     12.01100 ; qtot  0.119  CT  
     9 opls_135     1   MOL    C9    9     0.073300     12.01100 ; qtot  0.193  CT  
    10 opls_x     1   MOL    N1   10     0.312200      0.00000 ; qtot  0.505  x   
    11 opls_237     1   MOL    N2   11    -0.468800     14.00670 ; qtot  0.036  N   
    12 opls_236     1   MOL    O1   12    -0.581100     15.99940 ; qtot -0.545  O   
    13 opls_236     1   MOL    O2   13    -0.203500     15.99940 ; qtot -0.749  O   
    14 opls_236     1   MOL    O3   14    -0.203500     15.99940 ; qtot -0.952  O   
    15 opls_146     1   MOL    H1   15     0.159500      1.00800 ; qtot -0.793  HA  
    16 opls_146     1   MOL    H2   16     0.159500      1.00800 ; qtot -0.633  HA  
    17 opls_146     1   MOL    H3   17     0.175500      1.00800 ; qtot -0.458  HA  
    18 opls_146     1   MOL    H4   18     0.175500      1.00800 ; qtot -0.282  HA  
    19 opls_140     1   MOL    H5   19     0.047033      1.00800 ; qtot -0.235  HC  
    20 opls_140     1   MOL    H6   20     0.047033      1.00800 ; qtot -0.188  HC  
    21 opls_140     1   MOL    H7   21     0.047033      1.00800 ; qtot -0.141  HC  
    22 opls_140     1   MOL    H8   22     0.047033      1.00800 ; qtot -0.094  HC  
    23 opls_140     1   MOL    H9   23     0.047033      1.00800 ; qtot -0.047  HC  
    24 opls_140     1   MOL   H10   24     0.047033      1.00800 ; qtot -0.000  HC  

[ bonds ]
;   ai     aj funct   r             k
     1      3   1 ;    1.3986e-01    2.9644e+05 ;     C1 - C3         CA - CA    
     1      5   1 ;    1.3986e-01    2.9644e+05 ;     C1 - C5         CA - CA    
     1     15   1 ;    1.0860e-01    3.0183e+05 ;     C1 - H1         CA - HA    
     2      4   1 ;    1.3986e-01    2.9644e+05 ;     C2 - C4         CA - CA    
     2      5   1 ;    1.3986e-01    2.9644e+05 ;     C2 - C5         CA - CA    
     2     16   1 ;    1.0860e-01    3.0183e+05 ;     C2 - H2         CA - HA    
     3      6   1 ;    1.3986e-01    2.9644e+05 ;     C3 - C6         CA - CA    
     3     17   1 ;    1.0860e-01    3.0183e+05 ;     C3 - H3         CA - HA    
     4      6   1 ;    1.3986e-01    2.9644e+05 ;     C4 - C6         CA - CA    
     4     18   1 ;    1.0860e-01    3.0183e+05 ;     C4 - H4         CA - HA    
     5      7   1 ;    1.4907e-01    2.1994e+05 ;     C5 - C7         CA - C     
     6     10   1 ;    1.4696e-01    2.0937e+05 ;     C6 - N1         CA - x     
     7     11   1 ;    1.3967e-01    2.6565e+05 ;     C7 - N2          C - N     
     7     12   1 ;    1.2190e-01    4.9421e+05 ;     C7 - O1          C - O     
     8     11   1 ;    1.4643e-01    2.1293e+05 ;     C8 - N2         CT - N     
     8     19   1 ;    1.0969e-01    2.8804e+05 ;     C8 - H5         CT - HC    
     8     20   1 ;    1.0969e-01    2.8804e+05 ;     C8 - H6         CT - HC    
     8     21   1 ;    1.0969e-01    2.8804e+05 ;     C8 - H7         CT - HC    
     9     11   1 ;    1.4643e-01    2.1293e+05 ;     C9 - N2         CT - N     
     9     22   1 ;    1.0969e-01    2.8804e+05 ;     C9 - H8         CT - HC    
     9     23   1 ;    1.0969e-01    2.8804e+05 ;     C9 - H9         CT - HC    
     9     24   1 ;    1.0969e-01    2.8804e+05 ;     C9 - H10        CT - HC    
    10     13   1 ;    1.2311e-01    3.0270e+05 ;     N1 - O2          x - O     
    10     14   1 ;    1.2311e-01    3.0270e+05 ;     N1 - O3          x - O     

[ pairs ]
;   ai     aj    funct
     1      4      1 ;     C1 - C4    
     1     10      1 ;     C1 - N1    
     1     11      1 ;     C1 - N2    
     1     12      1 ;     C1 - O1    
     1     16      1 ;     C1 - H2    
     2      3      1 ;     C2 - C3    
     2     10      1 ;     C2 - N1    
     2     11      1 ;     C2 - N2    
     2     12      1 ;     C2 - O1    
     3      7      1 ;     C3 - C7    
     3     13      1 ;     C3 - O2    
     3     14      1 ;     C3 - O3    
     3     18      1 ;     C3 - H4    
     4      7      1 ;     C4 - C7    
     4     13      1 ;     C4 - O2    
     4     14      1 ;     C4 - O3    
     4     17      1 ;     C4 - H3    
     5      6      1 ;     C5 - C6    
     5      8      1 ;     C5 - C8    
     5      9      1 ;     C5 - C9    
     5     17      1 ;     C5 - H3    
     5     18      1 ;     C5 - H4    
     6     16      1 ;     C6 - H2    
     7     16      1 ;     C7 - H2    
     7     19      1 ;     C7 - H5    
     7     20      1 ;     C7 - H6    
     7     21      1 ;     C7 - H7    
     7     22      1 ;     C7 - H8    
     7     23      1 ;     C7 - H9    
     7     24      1 ;     C7 - H10   
     8     12      1 ;     C8 - O1    
     8     22      1 ;     C8 - H8    
     8     23      1 ;     C8 - H9    
     8     24      1 ;     C8 - H10   
     9     12      1 ;     C9 - O1    
     9     19      1 ;     C9 - H5    
     9     20      1 ;     C9 - H6    
     9     21      1 ;     C9 - H7    
    10     17      1 ;     N1 - H3    
    10     18      1 ;     N1 - H4    
    15      2      1 ;     H1 - C2    
    15      6      1 ;     H1 - C6    
    15      7      1 ;     H1 - C7    
    15     17      1 ;     H1 - H3    
    16     18      1 ;     H2 - H4    

[ angles ]
;   ai     aj     ak    funct   theta         cth
     1      3      6      1 ;    1.2002e+02    5.3279e+02 ;     C1 - C3   - C6       CA -   CA - CA  
     1      3     17      1 ;    1.1988e+02    3.7572e+02 ;     C1 - C3   - H3       CA -   CA - HA  
     1      5      2      1 ;    1.2002e+02    5.3279e+02 ;     C1 - C5   - C2       CA -   CA - CA  
     1      5      7      1 ;    1.2033e+02    5.1413e+02 ;     C1 - C5   - C7       CA -   CA - C   
     2      4      6      1 ;    1.2002e+02    5.3279e+02 ;     C2 - C4   - C6       CA -   CA - CA  
     2      4     18      1 ;    1.1988e+02    3.7572e+02 ;     C2 - C4   - H4       CA -   CA - HA  
     2      5      7      1 ;    1.2033e+02    5.1413e+02 ;     C2 - C5   - C7       CA -   CA - C   
     3      1      5      1 ;    1.2002e+02    5.3279e+02 ;     C3 - C1   - C5       CA -   CA - CA  
     3      1     15      1 ;    1.1988e+02    3.7572e+02 ;     C3 - C1   - H1       CA -   CA - HA  
     3      6      4      1 ;    1.2002e+02    5.3279e+02 ;     C3 - C6   - C4       CA -   CA - CA  
     3      6     10      1 ;    1.1900e+02    5.5329e+02 ;     C3 - C6   - N1       CA -   CA - x   
     4      2      5      1 ;    1.2002e+02    5.3279e+02 ;     C4 - C2   - C5       CA -   CA - CA  
     4      2     16      1 ;    1.1988e+02    3.7572e+02 ;     C4 - C2   - H2       CA -   CA - HA  
     4      6     10      1 ;    1.1900e+02    5.5329e+02 ;     C4 - C6   - N1       CA -   CA - x   
     5      1     15      1 ;    1.1988e+02    3.7572e+02 ;     C5 - C1   - H1       CA -   CA - HA  
     5      2     16      1 ;    1.1988e+02    3.7572e+02 ;     C5 - C2   - H2       CA -   CA - HA  
     5      7     11      1 ;    1.1588e+02    5.5647e+02 ;     C5 - C7   - N2       CA -    C - N   
     5      7     12      1 ;    1.2260e+02    6.5237e+02 ;     C5 - C7   - O1       CA -    C - O   
     6      3     17      1 ;    1.1988e+02    3.7572e+02 ;     C6 - C3   - H3       CA -   CA - HA  
     6      4     18      1 ;    1.1988e+02    3.7572e+02 ;     C6 - C4   - H4       CA -   CA - HA  
     6     10     13      1 ;    1.1776e+02    8.2910e+02 ;     C6 - N1   - O2       CA -    x - O   
     6     10     14      1 ;    1.1776e+02    8.2910e+02 ;     C6 - N1   - O3       CA -    x - O   
     7     11      8      1 ;    1.1883e+02    6.4634e+02 ;     C7 - N2   - C8        C -    N - CT  
     7     11      9      1 ;    1.1883e+02    6.4634e+02 ;     C7 - N2   - C9        C -    N - CT  
     8     11      9      1 ;    1.1675e+02    6.3773e+02 ;     C8 - N2   - C9       CT -    N - CT  
    11      7     12      1 ;    1.2257e+02    7.2534e+02 ;     N2 - C7   - O1        N -    C - O   
    11      8     19      1 ;    1.0876e+02    4.0242e+02 ;     N2 - C8   - H5        N -   CT - HC  
    11      8     20      1 ;    1.0876e+02    4.0242e+02 ;     N2 - C8   - H6        N -   CT - HC  
    11      8     21      1 ;    1.0876e+02    4.0242e+02 ;     N2 - C8   - H7        N -   CT - HC  
    11      9     22      1 ;    1.0876e+02    4.0242e+02 ;     N2 - C9   - H8        N -   CT - HC  
    11      9     23      1 ;    1.0876e+02    4.0242e+02 ;     N2 - C9   - H9        N -   CT - HC  
    11      9     24      1 ;    1.0876e+02    4.0242e+02 ;     N2 - C9   - H10       N -   CT - HC  
    13     10     14      1 ;    1.2505e+02    1.0964e+03 ;     O2 - N1   - O3        O -    x - O   
    19      8     20      1 ;    1.0855e+02    2.9824e+02 ;     H5 - C8   - H6       HC -   CT - HC  
    19      8     21      1 ;    1.0855e+02    2.9824e+02 ;     H5 - C8   - H7       HC -   CT - HC  
    20      8     21      1 ;    1.0855e+02    2.9824e+02 ;     H6 - C8   - H7       HC -   CT - HC  
    22      9     23      1 ;    1.0855e+02    2.9824e+02 ;     H8 - C9   - H9       HC -   CT - HC  
    22      9     24      1 ;    1.0855e+02    2.9824e+02 ;     H8 - C9   - H10      HC -   CT - HC  
    23      9     24      1 ;    1.0855e+02    2.9824e+02 ;     H9 - C9   - H10      HC -   CT - HC  

[ dihedrals ] ; propers
; for gromacs 4.5 or higher, using funct 9
;    i      j      k      l   func   phase     kd      pn
     1      3      6      4      9 ;   180.00  15.16700   2 ;     C1-    C3-    C6-    C4
     1      3      6     10      9 ;   180.00  15.16700   2 ;     C1-    C3-    C6-    N1
     1      5      2      4      9 ;   180.00  15.16700   2 ;     C1-    C5-    C2-    C4
     1      5      2     16      9 ;   180.00  15.16700   2 ;     C1-    C5-    C2-    H2
     1      5      7     11      9 ;   180.00   8.88054   2 ;     C1-    C5-    C7-    N2
     1      5      7     12      9 ;   180.00   2.42672   2 ;     C1-    C5-    C7-    O1
     2      4      6      3      9 ;   180.00  15.16700   2 ;     C2-    C4-    C6-    C3
     2      4      6     10      9 ;   180.00  15.16700   2 ;     C2-    C4-    C6-    N1
     2      5      7     11      9 ;   180.00   8.88054   2 ;     C2-    C5-    C7-    N2
     2      5      7     12      9 ;   180.00   2.42672   2 ;     C2-    C5-    C7-    O1
     3      1      5      2      9 ;   180.00  15.16700   2 ;     C3-    C1-    C5-    C2
     3      1      5      7      9 ;   180.00  15.16700   2 ;     C3-    C1-    C5-    C7
     3      6      4     18      9 ;   180.00  15.16700   2 ;     C3-    C6-    C4-    H4
     3      6     10     13      9 ;   180.00   3.01248   2 ;     C3-    C6-    N1-    O2
     3      6     10     14      9 ;   180.00   3.01248   2 ;     C3-    C6-    N1-    O3
     4      2      5      7      9 ;   180.00  15.16700   2 ;     C4-    C2-    C5-    C7
     4      6      3     17      9 ;   180.00  15.16700   2 ;     C4-    C6-    C3-    H3
     4      6     10     13      9 ;   180.00   3.01248   2 ;     C4-    C6-    N1-    O2
     4      6     10     14      9 ;   180.00   3.01248   2 ;     C4-    C6-    N1-    O3
     5      1      3      6      9 ;   180.00  15.16700   2 ;     C5-    C1-    C3-    C6
     5      1      3     17      9 ;   180.00  15.16700   2 ;     C5-    C1-    C3-    H3
     5      2      4      6      9 ;   180.00  15.16700   2 ;     C5-    C2-    C4-    C6
     5      2      4     18      9 ;   180.00  15.16700   2 ;     C5-    C2-    C4-    H4
     5      7     11      8      9 ;     0.00   1.71544   3 ;     C5-    C7-    N2-    C8
     5      7     11      8      9 ;     0.00  20.16688   1 ;     C5-    C7-    N2-    C8
     5      7     11      8      9 ;   180.00   9.12112   2 ;     C5-    C7-    N2-    C8
     5      7     11      9      9 ;     0.00   1.71544   3 ;     C5-    C7-    N2-    C9
     5      7     11      9      9 ;     0.00  20.16688   1 ;     C5-    C7-    N2-    C9
     5      7     11      9      9 ;   180.00   9.12112   2 ;     C5-    C7-    N2-    C9
     6      4      2     16      9 ;   180.00  15.16700   2 ;     C6-    C4-    C2-    H2
     7      5      2     16      9 ;   180.00  15.16700   2 ;     C7-    C5-    C2-    H2
     7     11      8     19      9 ;   180.00   0.00000   2 ;     C7-    N2-    C8-    H5
     7     11      8     20      9 ;   180.00   0.00000   2 ;     C7-    N2-    C8-    H6
     7     11      8     21      9 ;   180.00   0.00000   2 ;     C7-    N2-    C8-    H7
     7     11      9     22      9 ;   180.00   0.00000   2 ;     C7-    N2-    C9-    H8
     7     11      9     23      9 ;   180.00   0.00000   2 ;     C7-    N2-    C9-    H9
     7     11      9     24      9 ;   180.00   0.00000   2 ;     C7-    N2-    C9-   H10
     8     11      7     12      9 ;   180.00  10.46000   2 ;     C8-    N2-    C7-    O1
     8     11      9     22      9 ;     0.00   0.00000   0 ;     C8-    N2-    C9-    H8
     8     11      9     23      9 ;     0.00   0.00000   0 ;     C8-    N2-    C9-    H9
     8     11      9     24      9 ;     0.00   0.00000   0 ;     C8-    N2-    C9-   H10
     9     11      7     12      9 ;   180.00  10.46000   2 ;     C9-    N2-    C7-    O1
     9     11      8     19      9 ;     0.00   0.00000   0 ;     C9-    N2-    C8-    H5
     9     11      8     20      9 ;     0.00   0.00000   0 ;     C9-    N2-    C8-    H6
     9     11      8     21      9 ;     0.00   0.00000   0 ;     C9-    N2-    C8-    H7
    10      6      3     17      9 ;   180.00  15.16700   2 ;     N1-    C6-    C3-    H3
    10      6      4     18      9 ;   180.00  15.16700   2 ;     N1-    C6-    C4-    H4
    15      1      3      6      9 ;   180.00  15.16700   2 ;     H1-    C1-    C3-    C6
    15      1      3     17      9 ;   180.00  15.16700   2 ;     H1-    C1-    C3-    H3
    15      1      5      2      9 ;   180.00  15.16700   2 ;     H1-    C1-    C5-    C2
    15      1      5      7      9 ;   180.00  15.16700   2 ;     H1-    C1-    C5-    C7
    16      2      4     18      9 ;   180.00  15.16700   2 ;     H2-    C2-    C4-    H4

[ dihedrals ] ; impropers
; treated as propers in GROMACS to use correct AMBER analytical function
;    i      j      k      l   func   phase     kd      pn
     1      6      3     17      4 ;   180.00   4.60240   2 ;     C1-    C6-    C3-    H3
     2      6      4     18      4 ;   180.00   4.60240   2 ;     C2-    C6-    C4-    H4
     3      4      6     10      4 ;   180.00   4.60240   2 ;     C3-    C4-    C6-    N1
     4      5      2     16      4 ;   180.00   4.60240   2 ;     C4-    C5-    C2-    H2
     5     11      7     12      4 ;   180.00  43.93200   2 ;     C5-    N2-    C7-    O1
     6     13     10     14      4 ;   180.00   4.60240   2 ;     C6-    O2-    N1-    O3
     7      1      5      2      4 ;   180.00   4.60240   2 ;     C7-    C1-    C5-    C2
     7      8     11      9      4 ;   180.00   4.60240   2 ;     C7-    C8-    N2-    C9
    15      1      5      3      4 ;   180.00   4.60240   2 ;     H1-    C1-    C5-    C3
