NN_dimethyl_p_nitrobenzamide
    24
   0.8450000  -0.3260000   0.5970000   2.9580000  -1.4950000   0.6720000
   0.8410000  -0.2430000   1.9890000   2.9540000  -1.4110000   2.0650000
   1.9030000  -0.9520000  -0.0620000   1.8950000  -0.7850000   2.7230000
   1.9070000  -1.0380000  -1.5130000   2.5650000  -0.0240000  -3.7090000
   3.1110000   1.1630000  -1.6140000   1.8920000  -0.6990000   4.1400000
   2.5070000  -0.0030000  -2.2550000   1.3850000  -2.0400000  -2.0190000
   0.9310000  -0.1300000   4.7130000   2.8500000  -1.1940000   4.7820000
   0.0180000   0.1010000   0.0340000   3.7870000  -1.9860000   0.1690000
   0.0090000   0.2470000   2.4890000   3.7830000  -1.8370000   2.6250000
   3.5920000   0.1730000  -4.0220000   1.8970000   0.7470000  -4.1000000
   2.2460000  -1.0080000  -4.0600000   2.3450000   1.6820000  -1.0350000
   3.5090000   1.8230000  -2.3890000   3.9170000   0.8270000  -0.9580000
