quinoline
    17
   0.2060000   2.0680000  -0.5490000  -0.5110000   0.8980000  -0.3360000
  -3.9130000   4.2700000  -1.8370000  -0.4590000   3.2130000  -0.9790000
  -2.5420000   4.3260000  -1.6300000  -1.8910000   0.8740000  -0.5530000
  -4.5450000   3.0660000  -1.6000000  -1.8470000   3.1880000  -1.1970000
  -2.5820000   2.0030000  -0.9830000  -3.9120000   1.9460000  -1.1820000
   1.2790000   2.0900000  -0.3830000   0.0000000   0.0000000  -0.0000000
  -4.4660000   5.1400000  -2.1690000   0.1120000   4.1240000  -1.1430000
  -2.0180000   5.2620000  -1.8090000  -2.4300000  -0.0560000  -0.3780000
  -5.6150000   2.9620000  -1.7440000
