; mobley_5857_GMX_OPLS.top created by acpype (v: 2023.10.27) on Tue Apr 28 17:51:21 2026

; Include forcefield parameters
#include "ffoplsaa.itp"

; Include mobley_5857_GMX.itp topology
#include "mobley_5857_GMX.itp"

; Ligand position restraints
#ifdef POSRES_LIG
#include "posre_mobley_5857.itp"
#endif

[ system ]
 mobley_5857

[ molecules ]
; Compound        nmols
 mobley_5857      1     
