%VERSION  VERSION_STAMP = V0001.000  DATE = 04/28/26  17:51:22                  
%FLAG TITLE                                                                     
%FORMAT(20a4)                                                                   
quinoline                                                                       
%FLAG POINTERS                                                                  
%FORMAT(10I8)                                                                   
      17       4       7      11      14      14      29      20       0       0
      84       1      11      14      20       4       6       3       4       0
       0       0       0       0       0       0       0       0      17       0
       0
%FLAG ATOM_NAME                                                                 
%FORMAT(20a4)                                                                   
C1  C2  C3  C4  C5  C6  C7  C8  C9  N1  H1  H2  H3  H4  H5  H6  H7  
%FLAG CHARGE                                                                    
%FORMAT(5E16.8)                                                                 
 -2.31423210E+00 -2.25956520E+00 -4.56104169E+00 -2.04089760E+00 -1.45778400E+00
 -2.99392389E+00  7.49300976E+00 -2.70236709E+00  7.17229728E+00 -1.19538288E+01
  2.46001050E+00  2.46001050E+00  2.62401120E+00  2.44178820E+00  2.51467740E+00
  2.73334500E+00  4.02712830E-01
%FLAG ATOMIC_NUMBER                                                             
%FORMAT(10I8)                                                                   
       6       6       6       6       6       6       6       6       6       7
       1       1       1       1       1       1       1
%FLAG MASS                                                                      
%FORMAT(5E16.8)                                                                 
  1.20100000E+01  1.20100000E+01  1.20100000E+01  1.20100000E+01  1.20100000E+01
  1.20100000E+01  1.20100000E+01  1.20100000E+01  1.20100000E+01  1.40100000E+01
  1.00800000E+00  1.00800000E+00  1.00800000E+00  1.00800000E+00  1.00800000E+00
  1.00800000E+00  1.00800000E+00
%FLAG ATOM_TYPE_INDEX                                                           
%FORMAT(10I8)                                                                   
       1       1       1       1       1       1       1       1       1       2
       3       3       3       3       3       3       4
%FLAG NUMBER_EXCLUDED_ATOMS                                                     
%FORMAT(10I8)                                                                   
      10       9       9       9       9       7       6       7       6       3
       2       1       2       1       1       1       1
%FLAG NONBONDED_PARM_INDEX                                                      
%FORMAT(10I8)                                                                   
       1       2       4       7       2       3       5       8       4       5
       6       9       7       8       9      10
%FLAG RESIDUE_LABEL                                                             
%FORMAT(20a4)                                                                   
MOL 
%FLAG RESIDUE_POINTER                                                           
%FORMAT(10I8)                                                                   
       1
%FLAG BOND_FORCE_CONSTANT                                                       
%FORMAT(5E16.8)                                                                 
  3.54250000E+02  3.60690000E+02  3.86490000E+02  3.56820000E+02
%FLAG BOND_EQUIL_VALUE                                                          
%FORMAT(5E16.8)                                                                 
  1.39860000E+00  1.08600000E+00  1.33920000E+00  1.08850000E+00
%FLAG ANGLE_FORCE_CONSTANT                                                      
%FORMAT(5E16.8)                                                                 
  6.36700000E+01  4.49000000E+01  6.81700000E+01  4.48000000E+01  8.31500000E+01
  5.01000000E+01
%FLAG ANGLE_EQUIL_VALUE                                                         
%FORMAT(5E16.8)                                                                 
  2.09474507E+00  2.09230160E+00  2.14570870E+00  2.09998106E+00  2.04622489E+00
  2.02493187E+00
%FLAG DIHEDRAL_FORCE_CONSTANT                                                   
%FORMAT(5E16.8)                                                                 
  3.62500000E+00  4.80000000E+00  1.10000000E+00
%FLAG DIHEDRAL_PERIODICITY                                                      
%FORMAT(5E16.8)                                                                 
  2.00000000E+00  2.00000000E+00  2.00000000E+00
%FLAG DIHEDRAL_PHASE                                                            
%FORMAT(5E16.8)                                                                 
  3.14159400E+00  3.14159400E+00  3.14159400E+00
%FLAG SCEE_SCALE_FACTOR                                                         
%FORMAT(5E16.8)                                                                 
  1.20000000E+00  1.20000000E+00  0.00000000E+00
%FLAG SCNB_SCALE_FACTOR                                                         
%FORMAT(5E16.8)                                                                 
  2.00000000E+00  2.00000000E+00  0.00000000E+00
%FLAG SOLTY                                                                     
%FORMAT(5E16.8)                                                                 
  0.00000000E+00  0.00000000E+00  0.00000000E+00  0.00000000E+00
%FLAG LENNARD_JONES_ACOEF                                                       
%FORMAT(5E16.8)                                                                 
  6.96551276E+05  7.69642101E+05  8.49322032E+05  7.52549148E+04  8.43518904E+04
  6.90855956E+03  6.27751680E+04  7.05112106E+04  5.62610481E+03  4.56536476E+03
%FLAG LENNARD_JONES_BCOEF                                                       
%FORMAT(5E16.8)                                                                 
  5.24668528E+02  5.44830041E+02  5.65406768E+02  1.09570372E+02  1.14599119E+02
  2.10929191E+01  1.00073628E+02  1.04776275E+02  1.90347353E+01  1.71467049E+01
%FLAG BONDS_INC_HYDROGEN                                                        
%FORMAT(10I8)                                                                   
       0      30       2       3      33       2       6      36       2       9
      39       2      12      42       2      15      45       2      18      48
       4
%FLAG BONDS_WITHOUT_HYDROGEN                                                    
%FORMAT(10I8)                                                                   
       0       3       1       0       9       1       3      15       1       6
      12       1       6      18       1       9      21       1      12      21
       1      15      24       1      18      27       3      21      24       1
      24      27       3
%FLAG ANGLES_INC_HYDROGEN                                                       
%FORMAT(10I8)                                                                   
       0       3      33       2       0       9      39       2       3       0
      30       2       3      15      45       2       6      12      42       2
       6      18      48       4       9       0      30       2      12       6
      36       2      15       3      33       2      18       6      36       2
      21       9      39       2      21      12      42       2      24      15
      45       2      27      18      48       6
%FLAG ANGLES_WITHOUT_HYDROGEN                                                   
%FORMAT(10I8)                                                                   
       0       3      15       1       0       9      21       1       3       0
       9       1       3      15      24       1       6      12      21       1
       6      18      27       3       9      21      12       1       9      21
      24       1      12       6      18       1      12      21      24       1
      15      24      21       1      15      24      27       3      18      27
      24       5      21      24      27       3
%FLAG DIHEDRALS_INC_HYDROGEN                                                    
%FORMAT(10I8)                                                                   
       0       3      15      45       1       3       0       9      39       1
       9       0       3      33       1       9      21      12      42       1
      12       6      18      48       1      12      21       9      39       1
      30       0       3      15       1      18       6      12      42       1
      30       0       9      21       1      21      12       6      36       1
      21      24      15      45       1      24      15       3      33       1
      24      21       9      39       1      24      21      12      42       1
      24      27      18      48       2      27      18       6      36       1
      27      24      15      45       1      30       0       3      33       1
      30       0       9      39       1      33       3      15      45       1
      36       6      12      42       1      36       6      18      48       1
      30       0      -9      -3       3       0      15      -3     -33       3
      12      18      -6     -36       3       0      21      -9     -39       3
       6      21     -12     -42       3       3      24     -15     -45       3
       6      48     -18     -27       3
%FLAG DIHEDRALS_WITHOUT_HYDROGEN                                                
%FORMAT(10I8)                                                                   
       0       3      15      24       1       0       9      21      12       1
       0       9     -21      24       1       3       0       9      21       1
       3      15     -24      21       1       3      15      24      27       1
       6      12      21       9       1       6      12      21      24       1
       6      18     -27      24       2       9       0       3      15       1
       9      21     -24      15       1       9      21      24      27       1
      12       6      18      27       1      12      21      24      15       1
      12      21     -24      27       1      15      24      27      18       2
      18       6      12      21       1      18      27     -24      21       2
       9      12     -21     -24       3      15      21     -24     -27       3
%FLAG EXCLUDED_ATOMS_LIST                                                       
%FORMAT(10I8)                                                                   
       2       4       5       6       8       9      11      12      14      16
       4       6       8       9      10      11      12      14      16       4
       5       7       8       9      10      13      15      17       5       6
       8       9      10      11      12      14      15       6       7       8
       9      10      13      14      15      17       7       8       9      10
      11      12      16       8       9      10      13      15      17       9
      10      11      13      14      15      16      10      12      14      15
      16      17      13      16      17      12      14      16      15      17
       0       0       0       0
%FLAG HBOND_ACOEF                                                               
%FORMAT(5E16.8)                                                                 

%FLAG HBOND_BCOEF                                                               
%FORMAT(5E16.8)                                                                 

%FLAG HBCUT                                                                     
%FORMAT(5E16.8)                                                                 

%FLAG AMBER_ATOM_TYPE                                                           
%FORMAT(20a4)                                                                   
ca  ca  ca  ca  ca  ca  ca  ca  ca  nb  ha  ha  ha  ha  ha  ha  h4  
%FLAG TREE_CHAIN_CLASSIFICATION                                                 
%FORMAT(20a4)                                                                   
BLA BLA BLA BLA BLA BLA BLA BLA BLA BLA BLA BLA BLA BLA BLA BLA BLA 
%FLAG JOIN_ARRAY                                                                
%FORMAT(10I8)                                                                   
       0       0       0       0       0       0       0       0       0       0
       0       0       0       0       0       0       0
%FLAG IROTAT                                                                    
%FORMAT(10I8)                                                                   
       0       0       0       0       0       0       0       0       0       0
       0       0       0       0       0       0       0
%FLAG RADIUS_SET                                                                
%FORMAT(1a80)                                                                   
modified Bondi radii (mbondi)                                                   
%FLAG RADII                                                                     
%FORMAT(5E16.8)                                                                 
  1.70000000E+00  1.70000000E+00  1.70000000E+00  1.70000000E+00  1.70000000E+00
  1.70000000E+00  1.70000000E+00  1.70000000E+00  1.70000000E+00  1.55000000E+00
  1.30000000E+00  1.30000000E+00  1.30000000E+00  1.30000000E+00  1.30000000E+00
  1.30000000E+00  1.30000000E+00
%FLAG SCREEN                                                                    
%FORMAT(5E16.8)                                                                 
  7.20000000E-01  7.20000000E-01  7.20000000E-01  7.20000000E-01  7.20000000E-01
  7.20000000E-01  7.20000000E-01  7.20000000E-01  7.20000000E-01  7.90000000E-01
  8.50000000E-01  8.50000000E-01  8.50000000E-01  8.50000000E-01  8.50000000E-01
  8.50000000E-01  8.50000000E-01
%FLAG IPOL                                                                      
%FORMAT(1I8)                                                                    
       0
