mobley_3053621_GMX.gro created by acpype (v: 2023.10.27) on Wed May 20 23:44:45 2026
 8838
    1MOL     C1    1   2.158   2.143   2.212
    1MOL     C2    2   2.247   2.193   2.116
    1MOL     C3    3   2.157   2.196   2.341
    1MOL     C4    4   2.336   2.296   2.150
    1MOL     C5    5   2.246   2.299   2.376
    1MOL     C6    6   2.335   2.349   2.280
    1MOL     H7    7   2.091   2.065   2.186
    1MOL     H8    8   2.248   2.153   2.018
    1MOL     H9    9   2.090   2.158   2.414
    1MOL    H10   10   2.404   2.334   2.078
    1MOL    H11   11   2.245   2.339   2.474
    1MOL    H12   12   2.402   2.427   2.306
    2SOL     OW   13   0.230   0.628   0.113
    2SOL    HW1   14   0.137   0.626   0.150
    2SOL    HW2   15   0.231   0.589   0.021
    3SOL     OW   16   0.225   0.275   0.996
    3SOL    HW1   17   0.260   0.258   1.088
    3SOL    HW2   18   0.137   0.230   0.984
    4SOL     OW   19   0.019   0.368   0.647
    4SOL    HW1   20  -0.063   0.411   0.686
    4SOL    HW2   21  -0.009   0.295   0.584
    5SOL     OW   22   0.569   1.275   1.165
    5SOL    HW1   23   0.476   1.268   1.128
    5SOL    HW2   24   0.580   1.364   1.209
    6SOL     OW   25   1.555   1.511   0.703
    6SOL    HW1   26   1.498   1.495   0.784
    6SOL    HW2   27   1.496   1.521   0.623
    7SOL     OW   28   1.135   0.703   0.717
    7SOL    HW1   29   1.192   0.781   0.692
    7SOL    HW2   30   1.075   0.729   0.793
    8SOL     OW   31   1.755   0.607   0.231
    8SOL    HW1   32   1.743   0.594   0.132
    8SOL    HW2   33   1.725   0.526   0.280
    9SOL     OW   34   0.768   1.144   1.023
    9SOL    HW1   35   0.690   1.161   1.083
    9SOL    HW2   36   0.802   1.231   0.987
   10SOL     OW   37   0.850   0.798   1.823
   10SOL    HW1   38   0.846   0.874   1.888
   10SOL    HW2   39   0.872   0.834   1.732
   11SOL     OW   40   0.685   1.012   0.665
   11SOL    HW1   41   0.754   0.996   0.735
   11SOL    HW2   42   0.612   1.069   0.703
   12SOL     OW   43   0.686   1.161   1.803
   12SOL    HW1   44   0.746   1.240   1.817
   12SOL    HW2   45   0.600   1.192   1.762
   13SOL     OW   46   0.335   1.435   1.061
   13SOL    HW1   47   0.257   1.404   1.008
   13SOL    HW2   48   0.393   1.493   1.004
   14SOL     OW   49   1.460   1.505   1.339
   14SOL    HW1   50   1.484   1.599   1.365
   14SOL    HW2   51   1.444   1.451   1.421
   15SOL     OW   52   0.438   0.392   1.499
   15SOL    HW1   53   0.520   0.336   1.508
   15SOL    HW2   54   0.357   0.334   1.503
   16SOL     OW   55   1.603   0.447   0.737
   16SOL    HW1   56   1.529   0.493   0.687
   16SOL    HW2   57   1.654   0.515   0.790
   17SOL     OW   58   0.231   1.713   0.483
   17SOL    HW1   59   0.265   1.790   0.537
   17SOL    HW2   60   0.275   1.713   0.393
   18SOL     OW   61   1.127   1.341   1.690
   18SOL    HW1   62   1.174   1.341   1.778
   18SOL    HW2   63   1.079   1.254   1.679
   19SOL     OW   64   0.230   1.434   0.538
   19SOL    HW1   65   0.204   1.530   0.538
   19SOL    HW2   66   0.159   1.380   0.583
   20SOL     OW   67   0.240   1.091   0.886
   20SOL    HW1   68   0.254   1.007   0.938
   20SOL    HW2   69   0.185   1.155   0.941
   21SOL     OW   70   0.620   1.786   1.439
   21SOL    HW1   71   0.528   1.769   1.474
   21SOL    HW2   72   0.648   1.878   1.465
   22SOL     OW   73   0.606   0.964   0.123
   22SOL    HW1   74   0.613   1.048   0.069
   22SOL    HW2   75   0.652   0.977   0.211
   23SOL     OW   76   1.594   0.114   1.480
   23SOL    HW1   77   1.576   0.181   1.408
   23SOL    HW2   78   1.591   0.160   1.569
   24SOL     OW   79   0.122   0.643   0.563
   24SOL    HW1   80   0.077   0.555   0.580
   24SOL    HW2   81   0.121   0.697   0.647
   25SOL     OW   82   1.842   1.767   0.359
   25SOL    HW1   83   1.896   1.738   0.439
   25SOL    HW2   84   1.872   1.857   0.330
   26SOL     OW   85   0.027   1.596   0.117
   26SOL    HW1   86   0.008   1.500   0.138
   26SOL    HW2   87  -0.006   1.654   0.192
   27SOL     OW   88   1.689   0.922   0.612
   27SOL    HW1   89   1.784   0.893   0.620
   27SOL    HW2   90   1.681   0.987   0.537
   28SOL     OW   91   1.641   1.108   0.432
   28SOL    HW1   92   1.727   1.110   0.380
   28SOL    HW2   93   1.655   1.155   0.520
   29SOL     OW   94   0.113   0.737   1.597
   29SOL    HW1   95   0.201   0.724   1.642
   29SOL    HW2   96   0.100   0.834   1.575
   30SOL     OW   97   0.613   1.365   0.726
   30SOL    HW1   98   0.564   1.278   0.735
   30SOL    HW2   99   0.590   1.408   0.639
   31SOL     OW  100   1.293   1.228   1.423
   31SOL    HW1  101   1.330   1.155   1.365
   31SOL    HW2  102   1.345   1.233   1.508
   32SOL     OW  103   0.809   0.004   0.502
   32SOL    HW1  104   0.849   0.095   0.493
   32SOL    HW2  105   0.709   0.012   0.508
   33SOL     OW  106   0.197   0.976   1.264
   33SOL    HW1  107   0.286   0.931   1.250
   33SOL    HW2  108   0.124   0.911   1.245
   34SOL     OW  109   1.525   0.999   0.190
   34SOL    HW1  110   1.462   0.923   0.203
   34SOL    HW2  111   1.573   1.017   0.276
   35SOL     OW  112   1.187   1.792   1.616
   35SOL    HW1  113   1.211   1.852   1.540
   35SOL    HW2  114   1.194   1.697   1.586
   36SOL     OW  115   0.317   0.251   1.801
   36SOL    HW1  116   0.388   0.322   1.807
   36SOL    HW2  117   0.229   0.290   1.829
   37SOL     OW  118   1.466   1.417   0.953
   37SOL    HW1  119   1.407   1.423   1.033
   37SOL    HW2  120   1.451   1.329   0.907
   38SOL     OW  121   1.667   1.714   0.572
   38SOL    HW1  122   1.626   1.691   0.484
   38SOL    HW2  123   1.649   1.640   0.637
   39SOL     OW  124   0.598   0.729   0.270
   39SOL    HW1  125   0.622   0.798   0.202
   39SOL    HW2  126   0.520   0.762   0.324
   40SOL     OW  127   1.281   0.345   0.944
   40SOL    HW1  128   1.195   0.295   0.931
   40SOL    HW2  129   1.343   0.291   1.000
   41SOL     OW  130   1.576   1.662   0.307
   41SOL    HW1  131   1.665   1.708   0.310
   41SOL    HW2  132   1.555   1.638   0.212
   42SOL     OW  133   0.807   0.605   1.465
   42SOL    HW1  134   0.760   0.602   1.554
   42SOL    HW2  135   0.756   0.550   1.399
   43SOL     OW  136   1.394   0.469   1.674
   43SOL    HW1  137   1.374   0.512   1.762
   43SOL    HW2  138   1.472   0.407   1.683
   44SOL     OW  139   0.973   0.890   1.572
   44SOL    HW1  140   1.019   0.806   1.543
   44SOL    HW2  141   0.917   0.924   1.497
   45SOL     OW  142   0.991   0.410   1.242
   45SOL    HW1  143   0.914   0.444   1.296
   45SOL    HW2  144   0.957   0.359   1.163
   46SOL     OW  145   1.041   0.701   0.429
   46SOL    HW1  146   1.067   0.697   0.525
   46SOL    HW2  147   0.956   0.650   0.415
   47SOL     OW  148   0.076   0.811   0.789
   47SOL    HW1  149   0.175   0.799   0.798
   47SOL    HW2  150   0.052   0.906   0.810
   48SOL     OW  151   0.130   1.821   1.571
   48SOL    HW1  152   0.120   1.806   1.670
   48SOL    HW2  153   0.044   1.857   1.535
   49SOL     OW  154   0.865   0.348   0.195
   49SOL    HW1  155   0.924   0.411   0.146
   49SOL    HW2  156   0.884   0.254   0.166
   50SOL     OW  157   1.719   0.585   1.831
   50SOL    HW1  158   1.693   0.674   1.795
   50SOL    HW2  159   1.717   0.517   1.758
   51SOL     OW  160   1.362   1.144   0.545
   51SOL    HW1  161   1.445   1.115   0.497
   51SOL    HW2  162   1.313   1.211   0.489
   52SOL     OW  163   0.550   0.196   0.885
   52SOL    HW1  164   0.545   0.191   0.985
   52SOL    HW2  165   0.552   0.292   0.856
   53SOL     OW  166   1.008   1.456   0.477
   53SOL    HW1  167   0.962   1.528   0.425
   53SOL    HW2  168   1.004   1.476   0.575
   54SOL     OW  169   0.351   1.801   0.853
   54SOL    HW1  170   0.401   1.715   0.859
   54SOL    HW2  171   0.416   1.878   0.850
   55SOL     OW  172   1.795   1.066   0.873
   55SOL    HW1  173   1.733   1.051   0.797
   55SOL    HW2  174   1.743   1.077   0.958
   56SOL     OW  175   1.227   1.550   1.506
   56SOL    HW1  176   1.233   1.473   1.570
   56SOL    HW2  177   1.175   1.524   1.426
   57SOL     OW  178   0.321   0.943   0.242
   57SOL    HW1  179   0.403   0.982   0.200
   57SOL    HW2  180   0.294   0.861   0.193
   58SOL     OW  181   1.458   0.735   0.728
   58SOL    HW1  182   1.453   0.670   0.803
   58SOL    HW2  183   1.538   0.794   0.741
   59SOL     OW  184   0.461   1.266   1.727
   59SOL    HW1  185   0.411   1.267   1.641
   59SOL    HW2  186   0.398   1.248   1.803
   60SOL     OW  187   1.111   1.776   0.237
   60SOL    HW1  188   1.051   1.714   0.287
   60SOL    HW2  189   1.142   1.732   0.152
   61SOL     OW  190   0.202   0.285   1.498
   61SOL    HW1  191   0.122   0.345   1.485
   61SOL    HW2  192   0.192   0.236   1.584
   62SOL     OW  193   1.632   1.377   0.081
   62SOL    HW1  194   1.600   1.471   0.071
   62SOL    HW2  195   1.556   1.314   0.069
   63SOL     OW  196   0.464   1.743   0.323
   63SOL    HW1  197   0.497   1.782   0.409
   63SOL    HW2  198   0.540   1.736   0.258
   64SOL     OW  199   1.400   0.107   0.426
   64SOL    HW1  200   1.376   0.070   0.336
   64SOL    HW2  201   1.499   0.123   0.430
   65SOL     OW  202   0.249   1.785   1.241
   65SOL    HW1  203   0.306   1.720   1.291
   65SOL    HW2  204   0.233   1.752   1.148
   66SOL     OW  205   0.940   1.698   0.904
   66SOL    HW1  206   1.020   1.641   0.925
   66SOL    HW2  207   0.891   1.658   0.827
   67SOL     OW  208   0.382   0.700   0.480
   67SOL    HW1  209   0.427   0.610   0.477
   67SOL    HW2  210   0.288   0.689   0.513
   68SOL     OW  211   1.547   0.222   1.729
   68SOL    HW1  212   1.542   0.259   1.821
   68SOL    HW2  213   1.475   0.153   1.717
   69SOL     OW  214   0.614   0.122   0.117
   69SOL    HW1  215   0.712   0.100   0.124
   69SOL    HW2  216   0.583   0.105   0.024
   70SOL     OW  217   0.781   0.264   1.749
   70SOL    HW1  218   0.848   0.203   1.792
   70SOL    HW2  219   0.708   0.283   1.814
   71SOL     OW  220   0.888   1.514   1.195
   71SOL    HW1  221   0.865   1.489   1.101
   71SOL    HW2  222   0.949   1.445   1.234
   72SOL     OW  223   1.351   0.590   1.433
   72SOL    HW1  224   1.379   0.547   1.518
   72SOL    HW2  225   1.376   0.686   1.434
   73SOL     OW  226   0.803   1.402   0.924
   73SOL    HW1  227   0.893   1.416   0.882
   73SOL    HW2  228   0.732   1.404   0.853
   74SOL     OW  229   0.922   0.503   0.899
   74SOL    HW1  230   0.897   0.494   0.803
   74SOL    HW2  231   0.970   0.421   0.930
   75SOL     OW  232   0.539   0.064   0.512
   75SOL    HW1  233   0.458   0.065   0.570
   75SOL    HW2  234   0.542   0.147   0.457
   76SOL     OW  235   1.434   1.188   0.041
   76SOL    HW1  236   1.466   1.112   0.098
   76SOL    HW2  237   1.342   1.215   0.071
   77SOL     OW  238   0.297   0.035   0.171
   77SOL    HW1  239   0.346   0.119   0.150
   77SOL    HW2  240   0.359  -0.030   0.216
   78SOL     OW  241   0.935   0.236   0.480
   78SOL    HW1  242   0.887   0.277   0.402
   78SOL    HW2  243   1.034   0.234   0.461
   79SOL     OW  244   1.076   0.683   1.464
   79SOL    HW1  245   0.996   0.622   1.467
   79SOL    HW2  246   1.157   0.630   1.440
   80SOL     OW  247   1.227   1.570   0.793
   80SOL    HW1  248   1.248   1.644   0.728
   80SOL    HW2  249   1.295   1.570   0.866
   81SOL     OW  250   0.459   1.152   0.741
   81SOL    HW1  251   0.388   1.125   0.806
   81SOL    HW2  252   0.433   1.124   0.648
   82SOL     OW  253   1.271   1.797   0.591
   82SOL    HW1  254   1.315   1.861   0.527
   82SOL    HW2  255   1.221   1.849   0.661
   83SOL     OW  256   1.032   0.549   0.016
   83SOL    HW1  257   0.991   0.631  -0.023
   83SOL    HW2  258   1.096   0.575   0.089
   84SOL     OW  259   0.078   0.556   1.386
   84SOL    HW1  260   0.170   0.555   1.345
   84SOL    HW2  261   0.072   0.630   1.453
   85SOL     OW  262   0.561   0.222   1.147
   85SOL    HW1  263   0.599   0.138   1.184
   85SOL    HW2  264   0.473   0.241   1.191
   86SOL     OW  265   0.866   0.454   0.642
   86SOL    HW1  266   0.834   0.526   0.580
   86SOL    HW2  267   0.890   0.373   0.589
   87SOL     OW  268   1.017   0.039   0.753
   87SOL    HW1  269   0.945   0.044   0.684
   87SOL    HW2  270   0.993  -0.030   0.822
   88SOL     OW  271   1.429   1.173   0.867
   88SOL    HW1  272   1.374   1.089   0.860
   88SOL    HW2  273   1.455   1.202   0.775
   89SOL     OW  274   1.466   0.590   0.992
   89SOL    HW1  275   1.436   0.495   0.999
   89SOL    HW2  276   1.539   0.606   1.058
   90SOL     OW  277   1.857   0.833   0.377
   90SOL    HW1  278   1.899   0.769   0.441
   90SOL    HW2  279   1.819   0.782   0.299
   91SOL     OW  280   0.488   1.385   0.174
   91SOL    HW1  281   0.401   1.370   0.221
   91SOL    HW2  282   0.471   1.411   0.079
   92SOL     OW  283   1.664   1.280   0.657
   92SOL    HW1  284   1.763   1.288   0.671
   92SOL    HW2  285   1.619   1.364   0.688
   93SOL     OW  286   1.390   0.575   0.078
   93SOL    HW1  287   1.336   0.554   0.159
   93SOL    HW2  288   1.481   0.534   0.087
   94SOL     OW  289   0.527   0.256   0.328
   94SOL    HW1  290   0.554   0.197   0.253
   94SOL    HW2  291   0.527   0.351   0.297
   95SOL     OW  292   1.754   1.223   1.588
   95SOL    HW1  293   1.845   1.184   1.575
   95SOL    HW2  294   1.762   1.319   1.612
   96SOL     OW  295   1.064   1.347   1.340
   96SOL    HW1  296   0.984   1.324   1.395
   96SOL    HW2  297   1.147   1.321   1.389
   97SOL     OW  298   1.592   1.629   1.625
   97SOL    HW1  299   1.619   1.663   1.535
   97SOL    HW2  300   1.671   1.591   1.671
   98SOL     OW  301   1.111   1.195   1.100
   98SOL    HW1  302   1.071   1.239   1.181
   98SOL    HW2  303   1.070   1.232   1.017
   99SOL     OW  304   1.638   1.099   1.079
   99SOL    HW1  305   1.643   1.180   1.138
   99SOL    HW2  306   1.552   1.101   1.028
  100SOL     OW  307   0.915   0.089   1.402
  100SOL    HW1  308   0.940   0.069   1.307
  100SOL    HW2  309   0.987   0.145   1.444
  101SOL     OW  310   0.980   1.116   1.719
  101SOL    HW1  311   0.881   1.122   1.729
  101SOL    HW2  312   1.003   1.036   1.663
  102SOL     OW  313   0.705   1.050   0.368
  102SOL    HW1  314   0.691   1.057   0.467
  102SOL    HW2  315   0.789   0.999   0.350
  103SOL     OW  316   0.410   0.813   1.251
  103SOL    HW1  317   0.496   0.825   1.301
  103SOL    HW2  318   0.368   0.726   1.278
  104SOL     OW  319   1.274   0.386   1.262
  104SOL    HW1  320   1.295   0.460   1.326
  104SOL    HW2  321   1.185   0.403   1.219
  105SOL     OW  322   0.064   1.564   1.331
  105SOL    HW1  323   0.018   1.646   1.297
  105SOL    HW2  324   0.162   1.583   1.340
  106SOL     OW  325   0.367   1.100   0.501
  106SOL    HW1  326   0.360   1.183   0.445
  106SOL    HW2  327   0.371   1.020   0.441
  107SOL     OW  328   0.566   0.537   0.865
  107SOL    HW1  329   0.578   0.603   0.791
  107SOL    HW2  330   0.612   0.571   0.948
  108SOL     OW  331   1.252   1.348   0.388
  108SOL    HW1  332   1.302   1.425   0.428
  108SOL    HW2  333   1.157   1.350   0.420
  109SOL     OW  334   1.272   1.445   1.142
  109SOL    HW1  335   1.319   1.458   1.229
  109SOL    HW2  336   1.206   1.371   1.151
  110SOL     OW  337   1.582   0.639   0.472
  110SOL    HW1  338   1.551   0.700   0.545
  110SOL    HW2  339   1.632   0.691   0.403
  111SOL     OW  340   0.354   1.510   1.329
  111SOL    HW1  341   0.333   1.466   1.242
  111SOL    HW2  342   0.451   1.536   1.332
  112SOL     OW  343   0.402   0.751   1.598
  112SOL    HW1  344   0.470   0.806   1.551
  112SOL    HW2  345   0.442   0.663   1.625
  113SOL     OW  346   1.587   0.779   1.670
  113SOL    HW1  347   1.495   0.817   1.665
  113SOL    HW2  348   1.647   0.826   1.605
  114SOL     OW  349   1.013   0.105   1.770
  114SOL    HW1  350   1.019   0.190   1.718
  114SOL    HW2  351   1.045   0.029   1.713
  115SOL     OW  352   0.504   0.050   1.740
  115SOL    HW1  353   0.462  -0.007   1.670
  115SOL    HW2  354   0.438   0.119   1.772
  116SOL     OW  355   0.573   0.870   1.029
  116SOL    HW1  356   0.617   0.959   1.020
  116SOL    HW2  357   0.510   0.870   1.106
  117SOL     OW  358   1.360   0.862   1.045
  117SOL    HW1  359   1.285   0.862   0.979
  117SOL    HW2  360   1.397   0.770   1.054
  118SOL     OW  361   1.209   0.525   0.275
  118SOL    HW1  362   1.222   0.441   0.329
  118SOL    HW2  363   1.180   0.599   0.335
  119SOL     OW  364   0.307   0.213   1.231
  119SOL    HW1  365   0.284   0.250   1.321
  119SOL    HW2  366   0.277   0.118   1.225
  120SOL     OW  367   0.037   1.310   1.282
  120SOL    HW1  368   0.090   1.261   1.350
  120SOL    HW2  369   0.059   1.408   1.287
  121SOL     OW  370   0.732   0.634   1.064
  121SOL    HW1  371   0.791   0.608   0.988
  121SOL    HW2  372   0.704   0.730   1.053
  122SOL     OW  373   1.728   0.935   1.854
  122SOL    HW1  374   1.682   0.928   1.765
  122SOL    HW2  375   1.666   0.979   1.920
  123SOL     OW  376   0.307   0.063   0.618
  123SOL    HW1  377   0.296   0.157   0.651
  123SOL    HW2  378   0.302   0.000   0.695
  124SOL     OW  379   1.622   0.367   0.374
  124SOL    HW1  380   1.624   0.291   0.438
  124SOL    HW2  381   1.574   0.444   0.414
  125SOL     OW  382   1.023   0.766   0.966
  125SOL    HW1  383   1.038   0.787   1.062
  125SOL    HW2  384   0.993   0.671   0.957
  126SOL     OW  385   0.980   1.573   1.700
  126SOL    HW1  386   0.960   1.617   1.612
  126SOL    HW2  387   1.019   1.482   1.684
  127SOL     OW  388   1.859   1.518   1.605
  127SOL    HW1  389   1.873   1.545   1.510
  127SOL    HW2  390   1.942   1.540   1.658
  128SOL     OW  391   0.350   0.898   1.804
  128SOL    HW1  392   0.426   0.942   1.852
  128SOL    HW2  393   0.385   0.851   1.722
  129SOL     OW  394   1.540   0.274   0.125
  129SOL    HW1  395   1.479   0.199   0.148
  129SOL    HW2  396   1.562   0.326   0.208
  130SOL     OW  397   1.303   0.838   0.042
  130SOL    HW1  398   1.337   0.745   0.057
  130SOL    HW2  399   1.321   0.865  -0.053
  131SOL     OW  400   1.068   1.333   0.849
  131SOL    HW1  401   1.075   1.249   0.794
  131SOL    HW2  402   1.130   1.402   0.813
  132SOL     OW  403   0.319   0.810   0.949
  132SOL    HW1  404   0.412   0.846   0.954
  132SOL    HW2  405   0.313   0.725   1.001
  133SOL     OW  406   0.339   0.509   1.006
  133SOL    HW1  407   0.287   0.426   0.989
  133SOL    HW2  408   0.416   0.514   0.942
  134SOL     OW  409   1.138   0.380   1.678
  134SOL    HW1  410   1.093   0.443   1.742
  134SOL    HW2  411   1.231   0.411   1.661
  135SOL     OW  412   1.160   0.207   1.477
  135SOL    HW1  413   1.160   0.271   1.554
  135SOL    HW2  414   1.188   0.255   1.394
  136SOL     OW  415   0.008   1.326   0.200
  136SOL    HW1  416  -0.085   1.347   0.169
  136SOL    HW2  417   0.018   1.227   0.213
  137SOL     OW  418   0.088   1.801   0.927
  137SOL    HW1  419   0.046   1.715   0.900
  137SOL    HW2  420   0.182   1.804   0.893
  138SOL     OW  421   0.504   1.568   0.910
  138SOL    HW1  422   0.570   1.642   0.919
  138SOL    HW2  423   0.548   1.489   0.868
  139SOL     OW  424   1.002   0.796   1.238
  139SOL    HW1  425   1.043   0.764   1.324
  139SOL    HW2  426   0.906   0.769   1.235
  140SOL     OW  427   0.040   0.544   1.114
  140SOL    HW1  428   0.125   0.511   1.073
  140SOL    HW2  429   0.053   0.559   1.212
  141SOL     OW  430   0.189   0.520   1.722
  141SOL    HW1  431   0.248   0.480   1.652
  141SOL    HW2  432   0.131   0.591   1.681
  142SOL     OW  433   1.369   0.950   1.660
  142SOL    HW1  434   1.408   1.039   1.680
  142SOL    HW2  435   1.379   0.930   1.563
  143SOL     OW  436   0.815   0.572   0.325
  143SOL    HW1  437   0.822   0.483   0.279
  143SOL    HW2  438   0.721   0.606   0.317
  144SOL     OW  439   1.657   0.604   1.206
  144SOL    HW1  440   1.619   0.535   1.268
  144SOL    HW2  441   1.739   0.568   1.162
  145SOL     OW  442   0.252   1.564   1.744
  145SOL    HW1  443   0.222   1.621   1.820
  145SOL    HW2  444   0.245   1.467   1.770
  146SOL     OW  445   0.671   0.464   1.269
  146SOL    HW1  446   0.637   0.375   1.239
  146SOL    HW2  447   0.697   0.518   1.189
  147SOL     OW  448   0.930   1.678   1.465
  147SOL    HW1  449   0.906   1.660   1.370
  147SOL    HW2  450   0.960   1.772   1.475
  148SOL     OW  451   0.473   0.500   0.191
  148SOL    HW1  452   0.534   0.580   0.195
  148SOL    HW2  453   0.378   0.531   0.198
  149SOL     OW  454   0.159   1.137   1.466
  149SOL    HW1  455   0.181   1.076   1.542
  149SOL    HW2  456   0.169   1.088   1.380
  150SOL     OW  457   1.347   1.059   1.234
  150SOL    HW1  458   1.371   0.996   1.160
  150SOL    HW2  459   1.257   1.099   1.216
  151SOL     OW  460   1.302   0.855   0.309
  151SOL    HW1  461   1.216   0.824   0.351
  151SOL    HW2  462   1.298   0.841   0.210
  152SOL     OW  463   1.759   1.747   1.154
  152SOL    HW1  464   1.820   1.777   1.081
  152SOL    HW2  465   1.721   1.658   1.132
  153SOL     OW  466   1.252   1.731   1.128
  153SOL    HW1  467   1.336   1.736   1.074
  153SOL    HW2  468   1.229   1.635   1.146
  154SOL     OW  469   0.083   1.258   1.022
  154SOL    HW1  470   0.078   1.257   1.122
  154SOL    HW2  471   0.000   1.217   0.984
  155SOL     OW  472   0.688   1.662   1.716
  155SOL    HW1  473   0.632   1.743   1.725
  155SOL    HW2  474   0.740   1.666   1.630
  156SOL     OW  475   0.903   0.086   0.133
  156SOL    HW1  476   0.954   0.087   0.047
  156SOL    HW2  477   0.959   0.044   0.204
  157SOL     OW  478   1.726   0.135   0.523
  157SOL    HW1  479   1.799   0.118   0.456
  157SOL    HW2  480   1.695   0.048   0.561
  158SOL     OW  481   1.388   1.573   0.477
  158SOL    HW1  482   1.455   1.585   0.403
  158SOL    HW2  483   1.348   1.662   0.500
  159SOL     OW  484   0.130   1.794   1.851
  159SOL    HW1  485   0.089   1.720   1.904
  159SOL    HW2  486   0.194   1.845   1.909
  160SOL     OW  487   1.280   0.927   0.672
  160SOL    HW1  488   1.340   0.846   0.674
  160SOL    HW2  489   1.320   0.996   0.612
  161SOL     OW  490   0.830   1.273   1.422
  161SOL    HW1  491   0.825   1.306   1.517
  161SOL    HW2  492   0.744   1.292   1.376
  162SOL     OW  493   0.672   1.616   0.154
  162SOL    HW1  494   0.681   1.626   0.055
  162SOL    HW2  495   0.632   1.527   0.175
  163SOL     OW  496   1.650   1.720   1.394
  163SOL    HW1  497   1.703   1.730   1.310
  163SOL    HW2  498   1.623   1.810   1.428
  164SOL     OW  499   1.841   0.175   0.963
  164SOL    HW1  500   1.880   0.090   0.927
  164SOL    HW2  501   1.743   0.177   0.944
  165SOL     OW  502   0.263   0.326   0.720
  165SOL    HW1  503   0.184   0.377   0.686
  165SOL    HW2  504   0.254   0.311   0.818
  166SOL     OW  505   1.194   1.612   0.031
  166SOL    HW1  506   1.200   1.519   0.068
  166SOL    HW2  507   1.135   1.612  -0.049
  167SOL     OW  508   0.822   1.002   1.372
  167SOL    HW1  509   0.862   1.001   1.280
  167SOL    HW2  510   0.832   1.094   1.412
  168SOL     OW  511   0.916   0.910   0.291
  168SOL    HW1  512   0.979   0.948   0.223
  168SOL    HW2  513   0.956   0.827   0.330
  169SOL     OW  514   1.504   1.607   0.044
  169SOL    HW1  515   1.412   1.644   0.051
  169SOL    HW2  516   1.542   1.627  -0.046
  170SOL     OW  517   0.372   1.288   1.490
  170SOL    HW1  518   0.359   1.381   1.456
  170SOL    HW2  519   0.288   1.236   1.477
  171SOL     OW  520   1.614   1.292   1.289
  171SOL    HW1  521   1.674   1.295   1.369
  171SOL    HW2  522   1.539   1.356   1.302
  172SOL     OW  523   1.039   1.098   0.696
  172SOL    HW1  524   0.969   1.051   0.750
  172SOL    HW2  525   1.098   1.030   0.653
  173SOL     OW  526   1.014   0.236   0.971
  173SOL    HW1  527   1.006   0.200   0.878
  173SOL    HW2  528   1.012   0.160   1.036
  174SOL     OW  529   0.590   1.487   0.491
  174SOL    HW1  530   0.632   1.429   0.421
  174SOL    HW2  531   0.546   1.566   0.447
  175SOL     OW  532   1.709   0.385   1.381
  175SOL    HW1  533   1.782   0.454   1.385
  175SOL    HW2  534   1.737   0.310   1.322
  176SOL     OW  535   0.255   1.348   0.290
  176SOL    HW1  536   0.159   1.349   0.263
  176SOL    HW2  537   0.267   1.401   0.374
  177SOL     OW  538   0.105   1.013   1.726
  177SOL    HW1  539   0.028   0.980   1.780
  177SOL    HW2  540   0.190   0.983   1.768
  178SOL     OW  541   0.672   0.203   1.489
  178SOL    HW1  542   0.762   0.187   1.449
  178SOL    HW2  543   0.680   0.208   1.588
  179SOL     OW  544   0.075   0.345   0.033
  179SOL    HW1  545  -0.017   0.317   0.004
  179SOL    HW2  546   0.106   0.422  -0.023
  180SOL     OW  547   1.440   0.856   1.398
  180SOL    HW1  548   1.383   0.908   1.335
  180SOL    HW2  549   1.536   0.868   1.374
  181SOL     OW  550   0.072   0.166   0.318
  181SOL    HW1  551   0.055   0.249   0.264
  181SOL    HW2  552   0.162   0.129   0.296
  182SOL     OW  553   1.183   1.335   0.119
  182SOL    HW1  554   1.084   1.324   0.121
  182SOL    HW2  555   1.217   1.350   0.212
  183SOL     OW  556   0.613   0.842   1.431
  183SOL    HW1  557   0.669   0.923   1.414
  183SOL    HW2  558   0.672   0.762   1.434
  184SOL     OW  559   1.493   1.767   0.959
  184SOL    HW1  560   1.526   1.831   0.890
  184SOL    HW2  561   1.559   1.761   1.034
  185SOL     OW  562   0.716   0.565   1.708
  185SOL    HW1  563   0.735   0.630   1.782
  185SOL    HW2  564   0.776   0.485   1.717
  186SOL     OW  565   1.450   1.220   1.633
  186SOL    HW1  566   1.441   1.210   1.732
  186SOL    HW2  567   1.546   1.213   1.607
  187SOL     OW  568   0.390   1.741   1.560
  187SOL    HW1  569   0.299   1.782   1.558
  187SOL    HW2  570   0.383   1.647   1.592
  188SOL     OW  571   1.674   0.883   1.254
  188SOL    HW1  572   1.647   0.794   1.217
  188SOL    HW2  573   1.675   0.951   1.181
  189SOL     OW  574   1.225   0.325   0.449
  189SOL    HW1  575   1.290   0.251   0.438
  189SOL    HW2  576   1.245   0.375   0.533
  190SOL     OW  577   0.594   0.745   0.652
  190SOL    HW1  578   0.644   0.830   0.633
  190SOL    HW2  579   0.506   0.747   0.604
  191SOL     OW  580   1.777   0.342   1.642
  191SOL    HW1  581   1.760   0.373   1.548
  191SOL    HW2  582   1.693   0.305   1.680
  192SOL     OW  583   1.730   0.934   1.517
  192SOL    HW1  584   1.768   1.025   1.532
  192SOL    HW2  585   1.722   0.917   1.418
  193SOL     OW  586   0.859   1.374   0.016
  193SOL    HW1  587   0.813   1.389   0.104
  193SOL    HW2  588   0.903   1.459  -0.014
  194SOL     OW  589   0.661   1.790   0.953
  194SOL    HW1  590   0.615   1.878   0.940
  194SOL    HW2  591   0.760   1.802   0.946
  195SOL     OW  592   0.859   0.956   0.861
  195SOL    HW1  593   0.913   0.887   0.909
  195SOL    HW2  594   0.827   1.025   0.927
  196SOL     OW  595   1.083   0.984   0.087
  196SOL    HW1  596   1.060   1.037   0.005
  196SOL    HW2  597   1.164   0.928   0.068
  197SOL     OW  598   1.861   1.569   0.851
  197SOL    HW1  599   1.790   1.557   0.781
  197SOL    HW2  600   1.862   1.490   0.911
  198SOL     OW  601   0.221   1.314   1.844
  198SOL    HW1  602   0.156   1.241   1.823
  198SOL    HW2  603   0.225   1.328   1.942
  199SOL     OW  604   0.079   1.240   0.653
  199SOL    HW1  605   0.078   1.193   0.741
  199SOL    HW2  606   0.161   1.212   0.602
  200SOL     OW  607   0.672   1.391   1.624
  200SOL    HW1  608   0.594   1.341   1.662
  200SOL    HW2  609   0.669   1.486   1.655
  201SOL     OW  610   1.824   0.192   1.227
  201SOL    HW1  611   1.820   0.102   1.271
  201SOL    HW2  612   1.827   0.181   1.128
  202SOL     OW  613   0.428   0.424   0.520
  202SOL    HW1  614   0.458   0.352   0.458
  202SOL    HW2  615   0.389   0.384   0.603
  203SOL     OW  616   1.705   1.487   1.104
  203SOL    HW1  617   1.612   1.462   1.077
  203SOL    HW2  618   1.731   1.437   1.186
  204SOL     OW  619   0.317   0.547   1.280
  204SOL    HW1  620   0.355   0.488   1.352
  204SOL    HW2  621   0.357   0.521   1.192
  205SOL     OW  622   0.812   1.586   0.687
  205SOL    HW1  623   0.844   1.596   0.593
  205SOL    HW2  624   0.733   1.524   0.689
  206SOL     OW  625   1.424   0.214   1.112
  206SOL    HW1  626   1.476   0.149   1.167
  206SOL    HW2  627   1.375   0.277   1.173
  207SOL     OW  628   1.001   0.034   1.154
  207SOL    HW1  629   0.938  -0.038   1.123
  207SOL    HW2  630   1.094  -0.002   1.154
  208SOL     OW  631   0.770   1.330   0.301
  208SOL    HW1  632   0.724   1.243   0.318
  208SOL    HW2  633   0.861   1.327   0.342
  209SOL     OW  634   0.618   1.567   1.284
  209SOL    HW1  635   0.613   1.649   1.341
  209SOL    HW2  636   0.707   1.564   1.239
  210SOL     OW  637   1.352   0.052   0.168
  210SOL    HW1  638   1.387   0.011   0.084
  210SOL    HW2  639   1.262   0.014   0.188
  211SOL     OW  640   1.300   0.453   0.691
  211SOL    HW1  641   1.241   0.533   0.695
  211SOL    HW2  642   1.315   0.418   0.784
  212SOL     OW  643   1.593   0.221   0.882
  212SOL    HW1  644   1.509   0.220   0.936
  212SOL    HW2  645   1.595   0.304   0.826
  213SOL     OW  646   0.039   1.077   0.300
  213SOL    HW1  647   0.138   1.066   0.291
  213SOL    HW2  648  -0.001   0.991   0.332
  214SOL     OW  649   0.875   1.646   0.337
  214SOL    HW1  650   0.798   1.611   0.283
  214SOL    HW2  651   0.843   1.717   0.399
  215SOL     OW  652   0.230   0.628   1.975
  215SOL    HW1  653   0.137   0.626   2.012
  215SOL    HW2  654   0.231   0.589   1.883
  216SOL     OW  655   0.225   0.275   2.858
  216SOL    HW1  656   0.260   0.258   2.950
  216SOL    HW2  657   0.137   0.230   2.846
  217SOL     OW  658   0.019   0.368   2.509
  217SOL    HW1  659  -0.063   0.411   2.548
  217SOL    HW2  660  -0.009   0.295   2.446
  218SOL     OW  661   0.569   1.275   3.027
  218SOL    HW1  662   0.476   1.268   2.990
  218SOL    HW2  663   0.580   1.364   3.071
  219SOL     OW  664   1.555   1.511   2.565
  219SOL    HW1  665   1.498   1.495   2.646
  219SOL    HW2  666   1.496   1.521   2.485
  220SOL     OW  667   1.135   0.703   2.579
  220SOL    HW1  668   1.192   0.781   2.554
  220SOL    HW2  669   1.075   0.729   2.655
  221SOL     OW  670   1.755   0.607   2.093
  221SOL    HW1  671   1.743   0.594   1.994
  221SOL    HW2  672   1.725   0.526   2.142
  222SOL     OW  673   0.768   1.144   2.885
  222SOL    HW1  674   0.690   1.161   2.945
  222SOL    HW2  675   0.802   1.231   2.849
  223SOL     OW  676   0.850   0.798   3.685
  223SOL    HW1  677   0.846   0.874   3.750
  223SOL    HW2  678   0.872   0.834   3.594
  224SOL     OW  679   0.685   1.012   2.527
  224SOL    HW1  680   0.754   0.996   2.597
  224SOL    HW2  681   0.612   1.069   2.565
  225SOL     OW  682   0.686   1.161   3.665
  225SOL    HW1  683   0.746   1.240   3.679
  225SOL    HW2  684   0.600   1.192   3.624
  226SOL     OW  685   0.335   1.435   2.923
  226SOL    HW1  686   0.257   1.404   2.870
  226SOL    HW2  687   0.393   1.493   2.866
  227SOL     OW  688   1.460   1.505   3.201
  227SOL    HW1  689   1.484   1.599   3.227
  227SOL    HW2  690   1.444   1.451   3.283
  228SOL     OW  691   0.438   0.392   3.361
  228SOL    HW1  692   0.520   0.336   3.370
  228SOL    HW2  693   0.357   0.334   3.365
  229SOL     OW  694   1.603   0.447   2.599
  229SOL    HW1  695   1.529   0.493   2.549
  229SOL    HW2  696   1.654   0.515   2.652
  230SOL     OW  697   0.231   1.713   2.345
  230SOL    HW1  698   0.265   1.790   2.399
  230SOL    HW2  699   0.275   1.713   2.255
  231SOL     OW  700   1.127   1.341   3.552
  231SOL    HW1  701   1.174   1.341   3.640
  231SOL    HW2  702   1.079   1.254   3.541
  232SOL     OW  703   0.230   1.434   2.400
  232SOL    HW1  704   0.204   1.530   2.400
  232SOL    HW2  705   0.159   1.380   2.445
  233SOL     OW  706   0.240   1.091   2.748
  233SOL    HW1  707   0.254   1.007   2.800
  233SOL    HW2  708   0.185   1.155   2.803
  234SOL     OW  709   0.620   1.786   3.301
  234SOL    HW1  710   0.528   1.769   3.336
  234SOL    HW2  711   0.648   1.878   3.327
  235SOL     OW  712   0.606   0.964   1.985
  235SOL    HW1  713   0.613   1.048   1.931
  235SOL    HW2  714   0.652   0.977   2.073
  236SOL     OW  715   1.594   0.114   3.342
  236SOL    HW1  716   1.576   0.181   3.270
  236SOL    HW2  717   1.591   0.160   3.431
  237SOL     OW  718   0.122   0.643   2.425
  237SOL    HW1  719   0.077   0.555   2.442
  237SOL    HW2  720   0.121   0.697   2.509
  238SOL     OW  721   1.842   1.767   2.221
  238SOL    HW1  722   1.896   1.738   2.301
  238SOL    HW2  723   1.872   1.857   2.192
  239SOL     OW  724   0.027   1.596   1.979
  239SOL    HW1  725   0.008   1.500   2.000
  239SOL    HW2  726  -0.006   1.654   2.054
  240SOL     OW  727   1.689   0.922   2.474
  240SOL    HW1  728   1.784   0.893   2.482
  240SOL    HW2  729   1.681   0.987   2.399
  241SOL     OW  730   1.641   1.108   2.294
  241SOL    HW1  731   1.727   1.110   2.242
  241SOL    HW2  732   1.655   1.155   2.382
  242SOL     OW  733   0.113   0.737   3.459
  242SOL    HW1  734   0.201   0.724   3.504
  242SOL    HW2  735   0.100   0.834   3.437
  243SOL     OW  736   0.613   1.365   2.588
  243SOL    HW1  737   0.564   1.278   2.597
  243SOL    HW2  738   0.590   1.408   2.501
  244SOL     OW  739   1.293   1.228   3.285
  244SOL    HW1  740   1.330   1.155   3.227
  244SOL    HW2  741   1.345   1.233   3.370
  245SOL     OW  742   0.809   0.004   2.364
  245SOL    HW1  743   0.849   0.095   2.355
  245SOL    HW2  744   0.709   0.012   2.370
  246SOL     OW  745   0.197   0.976   3.126
  246SOL    HW1  746   0.286   0.931   3.112
  246SOL    HW2  747   0.124   0.911   3.107
  247SOL     OW  748   1.525   0.999   2.052
  247SOL    HW1  749   1.462   0.923   2.065
  247SOL    HW2  750   1.573   1.017   2.138
  248SOL     OW  751   1.187   1.792   3.478
  248SOL    HW1  752   1.211   1.852   3.402
  248SOL    HW2  753   1.194   1.697   3.448
  249SOL     OW  754   0.317   0.251   3.663
  249SOL    HW1  755   0.388   0.322   3.669
  249SOL    HW2  756   0.229   0.290   3.691
  250SOL     OW  757   1.466   1.417   2.815
  250SOL    HW1  758   1.407   1.423   2.895
  250SOL    HW2  759   1.451   1.329   2.769
  251SOL     OW  760   1.667   1.714   2.434
  251SOL    HW1  761   1.626   1.691   2.346
  251SOL    HW2  762   1.649   1.640   2.499
  252SOL     OW  763   0.598   0.729   2.132
  252SOL    HW1  764   0.622   0.798   2.064
  252SOL    HW2  765   0.520   0.762   2.186
  253SOL     OW  766   1.281   0.345   2.806
  253SOL    HW1  767   1.195   0.295   2.793
  253SOL    HW2  768   1.343   0.291   2.862
  254SOL     OW  769   1.576   1.662   2.169
  254SOL    HW1  770   1.665   1.708   2.172
  254SOL    HW2  771   1.555   1.638   2.074
  255SOL     OW  772   0.807   0.605   3.327
  255SOL    HW1  773   0.760   0.602   3.416
  255SOL    HW2  774   0.756   0.550   3.261
  256SOL     OW  775   1.394   0.469   3.536
  256SOL    HW1  776   1.374   0.512   3.624
  256SOL    HW2  777   1.472   0.407   3.545
  257SOL     OW  778   0.973   0.890   3.434
  257SOL    HW1  779   1.019   0.806   3.405
  257SOL    HW2  780   0.917   0.924   3.359
  258SOL     OW  781   0.991   0.410   3.104
  258SOL    HW1  782   0.914   0.444   3.158
  258SOL    HW2  783   0.957   0.359   3.025
  259SOL     OW  784   1.041   0.701   2.291
  259SOL    HW1  785   1.067   0.697   2.387
  259SOL    HW2  786   0.956   0.650   2.277
  260SOL     OW  787   0.076   0.811   2.651
  260SOL    HW1  788   0.175   0.799   2.660
  260SOL    HW2  789   0.052   0.906   2.672
  261SOL     OW  790   0.130   1.821   3.433
  261SOL    HW1  791   0.120   1.806   3.532
  261SOL    HW2  792   0.044   1.857   3.397
  262SOL     OW  793   0.865   0.348   2.057
  262SOL    HW1  794   0.924   0.411   2.008
  262SOL    HW2  795   0.884   0.254   2.028
  263SOL     OW  796   1.719   0.585   3.693
  263SOL    HW1  797   1.693   0.674   3.657
  263SOL    HW2  798   1.717   0.517   3.620
  264SOL     OW  799   1.362   1.144   2.407
  264SOL    HW1  800   1.445   1.115   2.359
  264SOL    HW2  801   1.313   1.211   2.351
  265SOL     OW  802   0.550   0.196   2.747
  265SOL    HW1  803   0.545   0.191   2.847
  265SOL    HW2  804   0.552   0.292   2.718
  266SOL     OW  805   1.008   1.456   2.339
  266SOL    HW1  806   0.962   1.528   2.287
  266SOL    HW2  807   1.004   1.476   2.437
  267SOL     OW  808   0.351   1.801   2.715
  267SOL    HW1  809   0.401   1.715   2.721
  267SOL    HW2  810   0.416   1.878   2.712
  268SOL     OW  811   1.795   1.066   2.735
  268SOL    HW1  812   1.733   1.051   2.659
  268SOL    HW2  813   1.743   1.077   2.820
  269SOL     OW  814   1.227   1.550   3.368
  269SOL    HW1  815   1.233   1.473   3.432
  269SOL    HW2  816   1.175   1.524   3.288
  270SOL     OW  817   0.321   0.943   2.104
  270SOL    HW1  818   0.403   0.982   2.062
  270SOL    HW2  819   0.294   0.861   2.055
  271SOL     OW  820   1.458   0.735   2.590
  271SOL    HW1  821   1.453   0.670   2.665
  271SOL    HW2  822   1.538   0.794   2.603
  272SOL     OW  823   0.461   1.266   3.589
  272SOL    HW1  824   0.411   1.267   3.503
  272SOL    HW2  825   0.398   1.248   3.665
  273SOL     OW  826   1.111   1.776   2.099
  273SOL    HW1  827   1.051   1.714   2.149
  273SOL    HW2  828   1.142   1.732   2.014
  274SOL     OW  829   0.202   0.285   3.360
  274SOL    HW1  830   0.122   0.345   3.347
  274SOL    HW2  831   0.192   0.236   3.446
  275SOL     OW  832   1.632   1.377   1.943
  275SOL    HW1  833   1.600   1.471   1.933
  275SOL    HW2  834   1.556   1.314   1.931
  276SOL     OW  835   0.464   1.743   2.185
  276SOL    HW1  836   0.497   1.782   2.271
  276SOL    HW2  837   0.540   1.736   2.120
  277SOL     OW  838   1.400   0.107   2.288
  277SOL    HW1  839   1.376   0.070   2.198
  277SOL    HW2  840   1.499   0.123   2.292
  278SOL     OW  841   0.249   1.785   3.103
  278SOL    HW1  842   0.306   1.720   3.153
  278SOL    HW2  843   0.233   1.752   3.010
  279SOL     OW  844   0.940   1.698   2.766
  279SOL    HW1  845   1.020   1.641   2.787
  279SOL    HW2  846   0.891   1.658   2.689
  280SOL     OW  847   0.382   0.700   2.342
  280SOL    HW1  848   0.427   0.610   2.339
  280SOL    HW2  849   0.288   0.689   2.375
  281SOL     OW  850   1.547   0.222   3.591
  281SOL    HW1  851   1.542   0.259   3.683
  281SOL    HW2  852   1.475   0.153   3.579
  282SOL     OW  853   0.614   0.122   1.979
  282SOL    HW1  854   0.712   0.100   1.986
  282SOL    HW2  855   0.583   0.105   1.886
  283SOL     OW  856   0.781   0.264   3.611
  283SOL    HW1  857   0.848   0.203   3.654
  283SOL    HW2  858   0.708   0.283   3.676
  284SOL     OW  859   0.888   1.514   3.057
  284SOL    HW1  860   0.865   1.489   2.963
  284SOL    HW2  861   0.949   1.445   3.096
  285SOL     OW  862   1.351   0.590   3.295
  285SOL    HW1  863   1.379   0.547   3.380
  285SOL    HW2  864   1.376   0.686   3.296
  286SOL     OW  865   0.803   1.402   2.786
  286SOL    HW1  866   0.893   1.416   2.744
  286SOL    HW2  867   0.732   1.404   2.715
  287SOL     OW  868   0.922   0.503   2.761
  287SOL    HW1  869   0.897   0.494   2.665
  287SOL    HW2  870   0.970   0.421   2.792
  288SOL     OW  871   0.539   0.064   2.374
  288SOL    HW1  872   0.458   0.065   2.432
  288SOL    HW2  873   0.542   0.147   2.319
  289SOL     OW  874   1.434   1.188   1.903
  289SOL    HW1  875   1.466   1.112   1.960
  289SOL    HW2  876   1.342   1.215   1.933
  290SOL     OW  877   0.297   0.035   2.033
  290SOL    HW1  878   0.346   0.119   2.012
  290SOL    HW2  879   0.359  -0.030   2.078
  291SOL     OW  880   0.935   0.236   2.342
  291SOL    HW1  881   0.887   0.277   2.264
  291SOL    HW2  882   1.034   0.234   2.323
  292SOL     OW  883   1.076   0.683   3.326
  292SOL    HW1  884   0.996   0.622   3.329
  292SOL    HW2  885   1.157   0.630   3.302
  293SOL     OW  886   1.227   1.570   2.655
  293SOL    HW1  887   1.248   1.644   2.590
  293SOL    HW2  888   1.295   1.570   2.728
  294SOL     OW  889   0.459   1.152   2.603
  294SOL    HW1  890   0.388   1.125   2.668
  294SOL    HW2  891   0.433   1.124   2.510
  295SOL     OW  892   1.271   1.797   2.453
  295SOL    HW1  893   1.315   1.861   2.389
  295SOL    HW2  894   1.221   1.849   2.523
  296SOL     OW  895   1.032   0.549   1.878
  296SOL    HW1  896   0.991   0.631   1.839
  296SOL    HW2  897   1.096   0.575   1.951
  297SOL     OW  898   0.078   0.556   3.248
  297SOL    HW1  899   0.170   0.555   3.207
  297SOL    HW2  900   0.072   0.630   3.315
  298SOL     OW  901   0.561   0.222   3.009
  298SOL    HW1  902   0.599   0.138   3.046
  298SOL    HW2  903   0.473   0.241   3.053
  299SOL     OW  904   0.866   0.454   2.504
  299SOL    HW1  905   0.834   0.526   2.442
  299SOL    HW2  906   0.890   0.373   2.451
  300SOL     OW  907   1.017   0.039   2.615
  300SOL    HW1  908   0.945   0.044   2.546
  300SOL    HW2  909   0.993  -0.030   2.684
  301SOL     OW  910   1.429   1.173   2.729
  301SOL    HW1  911   1.374   1.089   2.722
  301SOL    HW2  912   1.455   1.202   2.637
  302SOL     OW  913   1.466   0.590   2.854
  302SOL    HW1  914   1.436   0.495   2.861
  302SOL    HW2  915   1.539   0.606   2.920
  303SOL     OW  916   1.857   0.833   2.239
  303SOL    HW1  917   1.899   0.769   2.303
  303SOL    HW2  918   1.819   0.782   2.161
  304SOL     OW  919   0.488   1.385   2.036
  304SOL    HW1  920   0.401   1.370   2.083
  304SOL    HW2  921   0.471   1.411   1.941
  305SOL     OW  922   1.664   1.280   2.519
  305SOL    HW1  923   1.763   1.288   2.533
  305SOL    HW2  924   1.619   1.364   2.550
  306SOL     OW  925   1.390   0.575   1.940
  306SOL    HW1  926   1.336   0.554   2.021
  306SOL    HW2  927   1.481   0.534   1.949
  307SOL     OW  928   0.527   0.256   2.190
  307SOL    HW1  929   0.554   0.197   2.115
  307SOL    HW2  930   0.527   0.351   2.159
  308SOL     OW  931   1.754   1.223   3.450
  308SOL    HW1  932   1.845   1.184   3.437
  308SOL    HW2  933   1.762   1.319   3.474
  309SOL     OW  934   1.064   1.347   3.202
  309SOL    HW1  935   0.984   1.324   3.257
  309SOL    HW2  936   1.147   1.321   3.251
  310SOL     OW  937   1.592   1.629   3.487
  310SOL    HW1  938   1.619   1.663   3.397
  310SOL    HW2  939   1.671   1.591   3.533
  311SOL     OW  940   1.111   1.195   2.962
  311SOL    HW1  941   1.071   1.239   3.043
  311SOL    HW2  942   1.070   1.232   2.879
  312SOL     OW  943   1.638   1.099   2.941
  312SOL    HW1  944   1.643   1.180   3.000
  312SOL    HW2  945   1.552   1.101   2.890
  313SOL     OW  946   0.915   0.089   3.264
  313SOL    HW1  947   0.940   0.069   3.169
  313SOL    HW2  948   0.987   0.145   3.306
  314SOL     OW  949   0.980   1.116   3.581
  314SOL    HW1  950   0.881   1.122   3.591
  314SOL    HW2  951   1.003   1.036   3.525
  315SOL     OW  952   0.705   1.050   2.230
  315SOL    HW1  953   0.691   1.057   2.329
  315SOL    HW2  954   0.789   0.999   2.212
  316SOL     OW  955   0.410   0.813   3.113
  316SOL    HW1  956   0.496   0.825   3.163
  316SOL    HW2  957   0.368   0.726   3.140
  317SOL     OW  958   1.274   0.386   3.124
  317SOL    HW1  959   1.295   0.460   3.188
  317SOL    HW2  960   1.185   0.403   3.081
  318SOL     OW  961   0.064   1.564   3.193
  318SOL    HW1  962   0.018   1.646   3.159
  318SOL    HW2  963   0.162   1.583   3.202
  319SOL     OW  964   0.367   1.100   2.363
  319SOL    HW1  965   0.360   1.183   2.307
  319SOL    HW2  966   0.371   1.020   2.303
  320SOL     OW  967   0.566   0.537   2.727
  320SOL    HW1  968   0.578   0.603   2.653
  320SOL    HW2  969   0.612   0.571   2.810
  321SOL     OW  970   1.252   1.348   2.250
  321SOL    HW1  971   1.302   1.425   2.290
  321SOL    HW2  972   1.157   1.350   2.282
  322SOL     OW  973   1.272   1.445   3.004
  322SOL    HW1  974   1.319   1.458   3.091
  322SOL    HW2  975   1.206   1.371   3.013
  323SOL     OW  976   1.582   0.639   2.334
  323SOL    HW1  977   1.551   0.700   2.407
  323SOL    HW2  978   1.632   0.691   2.265
  324SOL     OW  979   0.354   1.510   3.191
  324SOL    HW1  980   0.333   1.466   3.104
  324SOL    HW2  981   0.451   1.536   3.194
  325SOL     OW  982   0.402   0.751   3.460
  325SOL    HW1  983   0.470   0.806   3.413
  325SOL    HW2  984   0.442   0.663   3.487
  326SOL     OW  985   1.587   0.779   3.532
  326SOL    HW1  986   1.495   0.817   3.527
  326SOL    HW2  987   1.647   0.826   3.467
  327SOL     OW  988   1.013   0.105   3.632
  327SOL    HW1  989   1.019   0.190   3.580
  327SOL    HW2  990   1.045   0.029   3.575
  328SOL     OW  991   0.504   0.050   3.602
  328SOL    HW1  992   0.462  -0.007   3.532
  328SOL    HW2  993   0.438   0.119   3.634
  329SOL     OW  994   0.573   0.870   2.891
  329SOL    HW1  995   0.617   0.959   2.882
  329SOL    HW2  996   0.510   0.870   2.968
  330SOL     OW  997   1.360   0.862   2.907
  330SOL    HW1  998   1.285   0.862   2.841
  330SOL    HW2  999   1.397   0.770   2.916
  331SOL     OW 1000   1.209   0.525   2.137
  331SOL    HW1 1001   1.222   0.441   2.191
  331SOL    HW2 1002   1.180   0.599   2.197
  332SOL     OW 1003   0.307   0.213   3.093
  332SOL    HW1 1004   0.284   0.250   3.183
  332SOL    HW2 1005   0.277   0.118   3.087
  333SOL     OW 1006   0.037   1.310   3.144
  333SOL    HW1 1007   0.090   1.261   3.212
  333SOL    HW2 1008   0.059   1.408   3.149
  334SOL     OW 1009   0.732   0.634   2.926
  334SOL    HW1 1010   0.791   0.608   2.850
  334SOL    HW2 1011   0.704   0.730   2.915
  335SOL     OW 1012   1.728   0.935   3.716
  335SOL    HW1 1013   1.682   0.928   3.627
  335SOL    HW2 1014   1.666   0.979   3.782
  336SOL     OW 1015   0.307   0.063   2.480
  336SOL    HW1 1016   0.296   0.157   2.513
  336SOL    HW2 1017   0.302   0.000   2.557
  337SOL     OW 1018   1.622   0.367   2.236
  337SOL    HW1 1019   1.624   0.291   2.300
  337SOL    HW2 1020   1.574   0.444   2.276
  338SOL     OW 1021   1.023   0.766   2.828
  338SOL    HW1 1022   1.038   0.787   2.924
  338SOL    HW2 1023   0.993   0.671   2.819
  339SOL     OW 1024   0.980   1.573   3.562
  339SOL    HW1 1025   0.960   1.617   3.474
  339SOL    HW2 1026   1.019   1.482   3.546
  340SOL     OW 1027   1.859   1.518   3.467
  340SOL    HW1 1028   1.873   1.545   3.372
  340SOL    HW2 1029   1.942   1.540   3.520
  341SOL     OW 1030   0.350   0.898   3.666
  341SOL    HW1 1031   0.426   0.942   3.714
  341SOL    HW2 1032   0.385   0.851   3.584
  342SOL     OW 1033   1.540   0.274   1.987
  342SOL    HW1 1034   1.479   0.199   2.010
  342SOL    HW2 1035   1.562   0.326   2.070
  343SOL     OW 1036   1.303   0.838   1.904
  343SOL    HW1 1037   1.337   0.745   1.919
  343SOL    HW2 1038   1.321   0.865   1.809
  344SOL     OW 1039   1.068   1.333   2.711
  344SOL    HW1 1040   1.075   1.249   2.656
  344SOL    HW2 1041   1.130   1.402   2.675
  345SOL     OW 1042   0.319   0.810   2.811
  345SOL    HW1 1043   0.412   0.846   2.816
  345SOL    HW2 1044   0.313   0.725   2.863
  346SOL     OW 1045   0.339   0.509   2.868
  346SOL    HW1 1046   0.287   0.426   2.851
  346SOL    HW2 1047   0.416   0.514   2.804
  347SOL     OW 1048   1.138   0.380   3.540
  347SOL    HW1 1049   1.093   0.443   3.604
  347SOL    HW2 1050   1.231   0.411   3.523
  348SOL     OW 1051   1.160   0.207   3.339
  348SOL    HW1 1052   1.160   0.271   3.416
  348SOL    HW2 1053   1.188   0.255   3.256
  349SOL     OW 1054   0.008   1.326   2.062
  349SOL    HW1 1055  -0.085   1.347   2.031
  349SOL    HW2 1056   0.018   1.227   2.075
  350SOL     OW 1057   0.088   1.801   2.789
  350SOL    HW1 1058   0.046   1.715   2.762
  350SOL    HW2 1059   0.182   1.804   2.755
  351SOL     OW 1060   0.504   1.568   2.772
  351SOL    HW1 1061   0.570   1.642   2.781
  351SOL    HW2 1062   0.548   1.489   2.730
  352SOL     OW 1063   1.002   0.796   3.100
  352SOL    HW1 1064   1.043   0.764   3.186
  352SOL    HW2 1065   0.906   0.769   3.097
  353SOL     OW 1066   0.040   0.544   2.976
  353SOL    HW1 1067   0.125   0.511   2.935
  353SOL    HW2 1068   0.053   0.559   3.074
  354SOL     OW 1069   0.189   0.520   3.584
  354SOL    HW1 1070   0.248   0.480   3.514
  354SOL    HW2 1071   0.131   0.591   3.543
  355SOL     OW 1072   1.369   0.950   3.522
  355SOL    HW1 1073   1.408   1.039   3.542
  355SOL    HW2 1074   1.379   0.930   3.425
  356SOL     OW 1075   0.815   0.572   2.187
  356SOL    HW1 1076   0.822   0.483   2.141
  356SOL    HW2 1077   0.721   0.606   2.179
  357SOL     OW 1078   1.657   0.604   3.068
  357SOL    HW1 1079   1.619   0.535   3.130
  357SOL    HW2 1080   1.739   0.568   3.024
  358SOL     OW 1081   0.252   1.564   3.606
  358SOL    HW1 1082   0.222   1.621   3.682
  358SOL    HW2 1083   0.245   1.467   3.632
  359SOL     OW 1084   0.671   0.464   3.131
  359SOL    HW1 1085   0.637   0.375   3.101
  359SOL    HW2 1086   0.697   0.518   3.051
  360SOL     OW 1087   0.930   1.678   3.327
  360SOL    HW1 1088   0.906   1.660   3.232
  360SOL    HW2 1089   0.960   1.772   3.337
  361SOL     OW 1090   0.473   0.500   2.053
  361SOL    HW1 1091   0.534   0.580   2.057
  361SOL    HW2 1092   0.378   0.531   2.060
  362SOL     OW 1093   0.159   1.137   3.328
  362SOL    HW1 1094   0.181   1.076   3.404
  362SOL    HW2 1095   0.169   1.088   3.242
  363SOL     OW 1096   1.347   1.059   3.096
  363SOL    HW1 1097   1.371   0.996   3.022
  363SOL    HW2 1098   1.257   1.099   3.078
  364SOL     OW 1099   1.302   0.855   2.171
  364SOL    HW1 1100   1.216   0.824   2.213
  364SOL    HW2 1101   1.298   0.841   2.072
  365SOL     OW 1102   1.759   1.747   3.016
  365SOL    HW1 1103   1.820   1.777   2.943
  365SOL    HW2 1104   1.721   1.658   2.994
  366SOL     OW 1105   1.252   1.731   2.990
  366SOL    HW1 1106   1.336   1.736   2.936
  366SOL    HW2 1107   1.229   1.635   3.008
  367SOL     OW 1108   0.083   1.258   2.884
  367SOL    HW1 1109   0.078   1.257   2.984
  367SOL    HW2 1110   0.000   1.217   2.846
  368SOL     OW 1111   0.688   1.662   3.578
  368SOL    HW1 1112   0.632   1.743   3.587
  368SOL    HW2 1113   0.740   1.666   3.492
  369SOL     OW 1114   1.726   0.135   2.385
  369SOL    HW1 1115   1.799   0.118   2.318
  369SOL    HW2 1116   1.695   0.048   2.423
  370SOL     OW 1117   1.388   1.573   2.339
  370SOL    HW1 1118   1.455   1.585   2.265
  370SOL    HW2 1119   1.348   1.662   2.362
  371SOL     OW 1120   0.130   1.794   3.713
  371SOL    HW1 1121   0.089   1.720   3.766
  371SOL    HW2 1122   0.194   1.845   3.771
  372SOL     OW 1123   1.280   0.927   2.534
  372SOL    HW1 1124   1.340   0.846   2.536
  372SOL    HW2 1125   1.320   0.996   2.474
  373SOL     OW 1126   0.830   1.273   3.284
  373SOL    HW1 1127   0.825   1.306   3.379
  373SOL    HW2 1128   0.744   1.292   3.238
  374SOL     OW 1129   0.672   1.616   2.016
  374SOL    HW1 1130   0.681   1.626   1.917
  374SOL    HW2 1131   0.632   1.527   2.037
  375SOL     OW 1132   1.650   1.720   3.256
  375SOL    HW1 1133   1.703   1.730   3.172
  375SOL    HW2 1134   1.623   1.810   3.290
  376SOL     OW 1135   1.841   0.175   2.825
  376SOL    HW1 1136   1.880   0.090   2.789
  376SOL    HW2 1137   1.743   0.177   2.806
  377SOL     OW 1138   0.263   0.326   2.582
  377SOL    HW1 1139   0.184   0.377   2.548
  377SOL    HW2 1140   0.254   0.311   2.680
  378SOL     OW 1141   1.194   1.612   1.893
  378SOL    HW1 1142   1.200   1.519   1.930
  378SOL    HW2 1143   1.135   1.612   1.813
  379SOL     OW 1144   0.822   1.002   3.234
  379SOL    HW1 1145   0.862   1.001   3.142
  379SOL    HW2 1146   0.832   1.094   3.274
  380SOL     OW 1147   0.916   0.910   2.153
  380SOL    HW1 1148   0.979   0.948   2.085
  380SOL    HW2 1149   0.956   0.827   2.192
  381SOL     OW 1150   1.504   1.607   1.906
  381SOL    HW1 1151   1.412   1.644   1.913
  381SOL    HW2 1152   1.542   1.627   1.816
  382SOL     OW 1153   0.372   1.288   3.352
  382SOL    HW1 1154   0.359   1.381   3.318
  382SOL    HW2 1155   0.288   1.236   3.339
  383SOL     OW 1156   1.614   1.292   3.151
  383SOL    HW1 1157   1.674   1.295   3.231
  383SOL    HW2 1158   1.539   1.356   3.164
  384SOL     OW 1159   1.039   1.098   2.558
  384SOL    HW1 1160   0.969   1.051   2.612
  384SOL    HW2 1161   1.098   1.030   2.515
  385SOL     OW 1162   1.014   0.236   2.833
  385SOL    HW1 1163   1.006   0.200   2.740
  385SOL    HW2 1164   1.012   0.160   2.898
  386SOL     OW 1165   0.590   1.487   2.353
  386SOL    HW1 1166   0.632   1.429   2.283
  386SOL    HW2 1167   0.546   1.566   2.309
  387SOL     OW 1168   1.709   0.385   3.243
  387SOL    HW1 1169   1.782   0.454   3.247
  387SOL    HW2 1170   1.737   0.310   3.184
  388SOL     OW 1171   0.255   1.348   2.152
  388SOL    HW1 1172   0.159   1.349   2.125
  388SOL    HW2 1173   0.267   1.401   2.236
  389SOL     OW 1174   0.105   1.013   3.588
  389SOL    HW1 1175   0.028   0.980   3.642
  389SOL    HW2 1176   0.190   0.983   3.630
  390SOL     OW 1177   0.672   0.203   3.351
  390SOL    HW1 1178   0.762   0.187   3.311
  390SOL    HW2 1179   0.680   0.208   3.450
  391SOL     OW 1180   0.075   0.345   1.895
  391SOL    HW1 1181  -0.017   0.317   1.866
  391SOL    HW2 1182   0.106   0.422   1.839
  392SOL     OW 1183   1.440   0.856   3.260
  392SOL    HW1 1184   1.383   0.908   3.197
  392SOL    HW2 1185   1.536   0.868   3.236
  393SOL     OW 1186   0.072   0.166   2.180
  393SOL    HW1 1187   0.055   0.249   2.126
  393SOL    HW2 1188   0.162   0.129   2.158
  394SOL     OW 1189   1.183   1.335   1.981
  394SOL    HW1 1190   1.084   1.324   1.983
  394SOL    HW2 1191   1.217   1.350   2.074
  395SOL     OW 1192   0.613   0.842   3.293
  395SOL    HW1 1193   0.669   0.923   3.276
  395SOL    HW2 1194   0.672   0.762   3.296
  396SOL     OW 1195   1.493   1.767   2.821
  396SOL    HW1 1196   1.526   1.831   2.752
  396SOL    HW2 1197   1.559   1.761   2.896
  397SOL     OW 1198   0.716   0.565   3.570
  397SOL    HW1 1199   0.735   0.630   3.644
  397SOL    HW2 1200   0.776   0.485   3.579
  398SOL     OW 1201   1.450   1.220   3.495
  398SOL    HW1 1202   1.441   1.210   3.594
  398SOL    HW2 1203   1.546   1.213   3.469
  399SOL     OW 1204   0.390   1.741   3.422
  399SOL    HW1 1205   0.299   1.782   3.420
  399SOL    HW2 1206   0.383   1.647   3.454
  400SOL     OW 1207   1.674   0.883   3.116
  400SOL    HW1 1208   1.647   0.794   3.079
  400SOL    HW2 1209   1.675   0.951   3.043
  401SOL     OW 1210   1.225   0.325   2.311
  401SOL    HW1 1211   1.290   0.251   2.300
  401SOL    HW2 1212   1.245   0.375   2.395
  402SOL     OW 1213   0.594   0.745   2.514
  402SOL    HW1 1214   0.644   0.830   2.495
  402SOL    HW2 1215   0.506   0.747   2.466
  403SOL     OW 1216   1.777   0.342   3.504
  403SOL    HW1 1217   1.760   0.373   3.410
  403SOL    HW2 1218   1.693   0.305   3.542
  404SOL     OW 1219   1.730   0.934   3.379
  404SOL    HW1 1220   1.768   1.025   3.394
  404SOL    HW2 1221   1.722   0.917   3.280
  405SOL     OW 1222   0.859   1.374   1.878
  405SOL    HW1 1223   0.813   1.389   1.966
  405SOL    HW2 1224   0.903   1.459   1.848
  406SOL     OW 1225   0.661   1.790   2.815
  406SOL    HW1 1226   0.615   1.878   2.802
  406SOL    HW2 1227   0.760   1.802   2.808
  407SOL     OW 1228   0.859   0.956   2.723
  407SOL    HW1 1229   0.913   0.887   2.771
  407SOL    HW2 1230   0.827   1.025   2.789
  408SOL     OW 1231   1.083   0.984   1.949
  408SOL    HW1 1232   1.060   1.037   1.867
  408SOL    HW2 1233   1.164   0.928   1.930
  409SOL     OW 1234   1.861   1.569   2.713
  409SOL    HW1 1235   1.790   1.557   2.643
  409SOL    HW2 1236   1.862   1.490   2.773
  410SOL     OW 1237   0.221   1.314   3.706
  410SOL    HW1 1238   0.156   1.241   3.685
  410SOL    HW2 1239   0.225   1.328   3.804
  411SOL     OW 1240   0.079   1.240   2.515
  411SOL    HW1 1241   0.078   1.193   2.603
  411SOL    HW2 1242   0.161   1.212   2.464
  412SOL     OW 1243   0.672   1.391   3.486
  412SOL    HW1 1244   0.594   1.341   3.524
  412SOL    HW2 1245   0.669   1.486   3.517
  413SOL     OW 1246   1.824   0.192   3.089
  413SOL    HW1 1247   1.820   0.102   3.133
  413SOL    HW2 1248   1.827   0.181   2.990
  414SOL     OW 1249   0.428   0.424   2.382
  414SOL    HW1 1250   0.458   0.352   2.320
  414SOL    HW2 1251   0.389   0.384   2.465
  415SOL     OW 1252   1.705   1.487   2.966
  415SOL    HW1 1253   1.612   1.462   2.939
  415SOL    HW2 1254   1.731   1.437   3.048
  416SOL     OW 1255   0.317   0.547   3.142
  416SOL    HW1 1256   0.355   0.488   3.214
  416SOL    HW2 1257   0.357   0.521   3.054
  417SOL     OW 1258   0.812   1.586   2.549
  417SOL    HW1 1259   0.844   1.596   2.455
  417SOL    HW2 1260   0.733   1.524   2.551
  418SOL     OW 1261   1.424   0.214   2.974
  418SOL    HW1 1262   1.476   0.149   3.029
  418SOL    HW2 1263   1.375   0.277   3.035
  419SOL     OW 1264   1.001   0.034   3.016
  419SOL    HW1 1265   0.938  -0.038   2.985
  419SOL    HW2 1266   1.094  -0.002   3.016
  420SOL     OW 1267   0.770   1.330   2.163
  420SOL    HW1 1268   0.724   1.243   2.180
  420SOL    HW2 1269   0.861   1.327   2.204
  421SOL     OW 1270   0.618   1.567   3.146
  421SOL    HW1 1271   0.613   1.649   3.203
  421SOL    HW2 1272   0.707   1.564   3.101
  422SOL     OW 1273   1.352   0.052   2.030
  422SOL    HW1 1274   1.387   0.011   1.946
  422SOL    HW2 1275   1.262   0.014   2.050
  423SOL     OW 1276   1.300   0.453   2.553
  423SOL    HW1 1277   1.241   0.533   2.557
  423SOL    HW2 1278   1.315   0.418   2.646
  424SOL     OW 1279   1.593   0.221   2.744
  424SOL    HW1 1280   1.509   0.220   2.798
  424SOL    HW2 1281   1.595   0.304   2.688
  425SOL     OW 1282   0.039   1.077   2.162
  425SOL    HW1 1283   0.138   1.066   2.153
  425SOL    HW2 1284  -0.001   0.991   2.194
  426SOL     OW 1285   0.875   1.646   2.199
  426SOL    HW1 1286   0.798   1.611   2.145
  426SOL    HW2 1287   0.843   1.717   2.261
  427SOL     OW 1288   0.230   0.628   3.837
  427SOL    HW1 1289   0.137   0.626   3.874
  427SOL    HW2 1290   0.231   0.589   3.745
  428SOL     OW 1291   1.135   0.703   4.441
  428SOL    HW1 1292   1.192   0.781   4.416
  428SOL    HW2 1293   1.075   0.729   4.517
  429SOL     OW 1294   1.755   0.607   3.955
  429SOL    HW1 1295   1.743   0.594   3.856
  429SOL    HW2 1296   1.725   0.526   4.004
  430SOL     OW 1297   1.603   0.447   4.461
  430SOL    HW1 1298   1.529   0.493   4.411
  430SOL    HW2 1299   1.654   0.515   4.514
  431SOL     OW 1300   0.231   1.713   4.207
  431SOL    HW1 1301   0.265   1.790   4.261
  431SOL    HW2 1302   0.275   1.713   4.117
  432SOL     OW 1303   0.230   1.434   4.262
  432SOL    HW1 1304   0.204   1.530   4.262
  432SOL    HW2 1305   0.159   1.380   4.307
  433SOL     OW 1306   0.606   0.964   3.847
  433SOL    HW1 1307   0.613   1.048   3.793
  433SOL    HW2 1308   0.652   0.977   3.935
  434SOL     OW 1309   0.122   0.643   4.287
  434SOL    HW1 1310   0.077   0.555   4.304
  434SOL    HW2 1311   0.121   0.697   4.371
  435SOL     OW 1312   1.842   1.767   4.083
  435SOL    HW1 1313   1.896   1.738   4.163
  435SOL    HW2 1314   1.872   1.857   4.054
  436SOL     OW 1315   0.027   1.596   3.841
  436SOL    HW1 1316   0.008   1.500   3.862
  436SOL    HW2 1317  -0.006   1.654   3.916
  437SOL     OW 1318   1.689   0.922   4.336
  437SOL    HW1 1319   1.784   0.893   4.344
  437SOL    HW2 1320   1.681   0.987   4.261
  438SOL     OW 1321   1.641   1.108   4.156
  438SOL    HW1 1322   1.727   1.110   4.104
  438SOL    HW2 1323   1.655   1.155   4.244
  439SOL     OW 1324   0.613   1.365   4.450
  439SOL    HW1 1325   0.564   1.278   4.459
  439SOL    HW2 1326   0.590   1.408   4.363
  440SOL     OW 1327   0.809   0.004   4.226
  440SOL    HW1 1328   0.849   0.095   4.217
  440SOL    HW2 1329   0.709   0.012   4.232
  441SOL     OW 1330   1.525   0.999   3.914
  441SOL    HW1 1331   1.462   0.923   3.927
  441SOL    HW2 1332   1.573   1.017   4.000
  442SOL     OW 1333   1.667   1.714   4.296
  442SOL    HW1 1334   1.626   1.691   4.208
  442SOL    HW2 1335   1.649   1.640   4.361
  443SOL     OW 1336   0.598   0.729   3.994
  443SOL    HW1 1337   0.622   0.798   3.926
  443SOL    HW2 1338   0.520   0.762   4.048
  444SOL     OW 1339   1.281   0.345   4.668
  444SOL    HW1 1340   1.195   0.295   4.655
  444SOL    HW2 1341   1.343   0.291   4.724
  445SOL     OW 1342   1.576   1.662   4.031
  445SOL    HW1 1343   1.665   1.708   4.034
  445SOL    HW2 1344   1.555   1.638   3.936
  446SOL     OW 1345   1.041   0.701   4.153
  446SOL    HW1 1346   1.067   0.697   4.249
  446SOL    HW2 1347   0.956   0.650   4.139
  447SOL     OW 1348   0.076   0.811   4.513
  447SOL    HW1 1349   0.175   0.799   4.522
  447SOL    HW2 1350   0.052   0.906   4.534
  448SOL     OW 1351   0.865   0.348   3.919
  448SOL    HW1 1352   0.924   0.411   3.870
  448SOL    HW2 1353   0.884   0.254   3.890
  449SOL     OW 1354   1.362   1.144   4.269
  449SOL    HW1 1355   1.445   1.115   4.221
  449SOL    HW2 1356   1.313   1.211   4.213
  450SOL     OW 1357   1.008   1.456   4.201
  450SOL    HW1 1358   0.962   1.528   4.149
  450SOL    HW2 1359   1.004   1.476   4.299
  451SOL     OW 1360   0.351   1.801   4.577
  451SOL    HW1 1361   0.401   1.715   4.583
  451SOL    HW2 1362   0.416   1.878   4.574
  452SOL     OW 1363   1.795   1.066   4.597
  452SOL    HW1 1364   1.733   1.051   4.521
  452SOL    HW2 1365   1.743   1.077   4.682
  453SOL     OW 1366   0.321   0.943   3.966
  453SOL    HW1 1367   0.403   0.982   3.924
  453SOL    HW2 1368   0.294   0.861   3.917
  454SOL     OW 1369   1.111   1.776   3.961
  454SOL    HW1 1370   1.051   1.714   4.011
  454SOL    HW2 1371   1.142   1.732   3.876
  455SOL     OW 1372   1.632   1.377   3.805
  455SOL    HW1 1373   1.600   1.471   3.795
  455SOL    HW2 1374   1.556   1.314   3.793
  456SOL     OW 1375   0.464   1.743   4.047
  456SOL    HW1 1376   0.497   1.782   4.133
  456SOL    HW2 1377   0.540   1.736   3.982
  457SOL     OW 1378   1.400   0.107   4.150
  457SOL    HW1 1379   1.376   0.070   4.060
  457SOL    HW2 1380   1.499   0.123   4.154
  458SOL     OW 1381   0.940   1.698   4.628
  458SOL    HW1 1382   1.020   1.641   4.649
  458SOL    HW2 1383   0.891   1.658   4.551
  459SOL     OW 1384   0.382   0.700   4.204
  459SOL    HW1 1385   0.427   0.610   4.201
  459SOL    HW2 1386   0.288   0.689   4.237
  460SOL     OW 1387   0.614   0.122   3.841
  460SOL    HW1 1388   0.712   0.100   3.848
  460SOL    HW2 1389   0.583   0.105   3.748
  461SOL     OW 1390   0.539   0.064   4.236
  461SOL    HW1 1391   0.458   0.065   4.294
  461SOL    HW2 1392   0.542   0.147   4.181
  462SOL     OW 1393   1.434   1.188   3.765
  462SOL    HW1 1394   1.466   1.112   3.822
  462SOL    HW2 1395   1.342   1.215   3.795
  463SOL     OW 1396   0.297   0.035   3.895
  463SOL    HW1 1397   0.346   0.119   3.874
  463SOL    HW2 1398   0.359  -0.030   3.940
  464SOL     OW 1399   0.935   0.236   4.204
  464SOL    HW1 1400   0.887   0.277   4.126
  464SOL    HW2 1401   1.034   0.234   4.185
  465SOL     OW 1402   0.459   1.152   4.465
  465SOL    HW1 1403   0.388   1.125   4.530
  465SOL    HW2 1404   0.433   1.124   4.372
  466SOL     OW 1405   1.271   1.797   4.315
  466SOL    HW1 1406   1.315   1.861   4.251
  466SOL    HW2 1407   1.221   1.849   4.385
  467SOL     OW 1408   1.032   0.549   3.740
  467SOL    HW1 1409   0.991   0.631   3.701
  467SOL    HW2 1410   1.096   0.575   3.813
  468SOL     OW 1411   0.866   0.454   4.366
  468SOL    HW1 1412   0.834   0.526   4.304
  468SOL    HW2 1413   0.890   0.373   4.313
  469SOL     OW 1414   1.857   0.833   4.101
  469SOL    HW1 1415   1.899   0.769   4.165
  469SOL    HW2 1416   1.819   0.782   4.023
  470SOL     OW 1417   0.488   1.385   3.898
  470SOL    HW1 1418   0.401   1.370   3.945
  470SOL    HW2 1419   0.471   1.411   3.803
  471SOL     OW 1420   1.664   1.280   4.381
  471SOL    HW1 1421   1.763   1.288   4.395
  471SOL    HW2 1422   1.619   1.364   4.412
  472SOL     OW 1423   1.390   0.575   3.802
  472SOL    HW1 1424   1.336   0.554   3.883
  472SOL    HW2 1425   1.481   0.534   3.811
  473SOL     OW 1426   0.527   0.256   4.052
  473SOL    HW1 1427   0.554   0.197   3.977
  473SOL    HW2 1428   0.527   0.351   4.021
  474SOL     OW 1429   1.111   1.195   4.824
  474SOL    HW1 1430   1.071   1.239   4.905
  474SOL    HW2 1431   1.070   1.232   4.741
  475SOL     OW 1432   0.705   1.050   4.092
  475SOL    HW1 1433   0.691   1.057   4.191
  475SOL    HW2 1434   0.789   0.999   4.074
  476SOL     OW 1435   0.367   1.100   4.225
  476SOL    HW1 1436   0.360   1.183   4.169
  476SOL    HW2 1437   0.371   1.020   4.165
  477SOL     OW 1438   1.252   1.348   4.112
  477SOL    HW1 1439   1.302   1.425   4.152
  477SOL    HW2 1440   1.157   1.350   4.144
  478SOL     OW 1441   1.582   0.639   4.196
  478SOL    HW1 1442   1.551   0.700   4.269
  478SOL    HW2 1443   1.632   0.691   4.127
  479SOL     OW 1444   1.209   0.525   3.999
  479SOL    HW1 1445   1.222   0.441   4.053
  479SOL    HW2 1446   1.180   0.599   4.059
  480SOL     OW 1447   0.307   0.063   4.342
  480SOL    HW1 1448   0.296   0.157   4.375
  480SOL    HW2 1449   0.302   0.000   4.419
  481SOL     OW 1450   1.622   0.367   4.098
  481SOL    HW1 1451   1.624   0.291   4.162
  481SOL    HW2 1452   1.574   0.444   4.138
  482SOL     OW 1453   1.540   0.274   3.849
  482SOL    HW1 1454   1.479   0.199   3.872
  482SOL    HW2 1455   1.562   0.326   3.932
  483SOL     OW 1456   1.303   0.838   3.766
  483SOL    HW1 1457   1.337   0.745   3.781
  483SOL    HW2 1458   1.321   0.865   3.671
  484SOL     OW 1459   0.008   1.326   3.924
  484SOL    HW1 1460  -0.085   1.347   3.893
  484SOL    HW2 1461   0.018   1.227   3.937
  485SOL     OW 1462   0.815   0.572   4.049
  485SOL    HW1 1463   0.822   0.483   4.003
  485SOL    HW2 1464   0.721   0.606   4.041
  486SOL     OW 1465   0.473   0.500   3.915
  486SOL    HW1 1466   0.534   0.580   3.919
  486SOL    HW2 1467   0.378   0.531   3.922
  487SOL     OW 1468   1.302   0.855   4.033
  487SOL    HW1 1469   1.216   0.824   4.075
  487SOL    HW2 1470   1.298   0.841   3.934
  488SOL     OW 1471   1.726   0.135   4.247
  488SOL    HW1 1472   1.799   0.118   4.180
  488SOL    HW2 1473   1.695   0.048   4.285
  489SOL     OW 1474   1.388   1.573   4.201
  489SOL    HW1 1475   1.455   1.585   4.127
  489SOL    HW2 1476   1.348   1.662   4.224
  490SOL     OW 1477   0.672   1.616   3.878
  490SOL    HW1 1478   0.681   1.626   3.779
  490SOL    HW2 1479   0.632   1.527   3.899
  491SOL     OW 1480   1.841   0.175   4.687
  491SOL    HW1 1481   1.880   0.090   4.651
  491SOL    HW2 1482   1.743   0.177   4.668
  492SOL     OW 1483   1.194   1.612   3.755
  492SOL    HW1 1484   1.200   1.519   3.792
  492SOL    HW2 1485   1.135   1.612   3.675
  493SOL     OW 1486   0.916   0.910   4.015
  493SOL    HW1 1487   0.979   0.948   3.947
  493SOL    HW2 1488   0.956   0.827   4.054
  494SOL     OW 1489   1.504   1.607   3.768
  494SOL    HW1 1490   1.412   1.644   3.775
  494SOL    HW2 1491   1.542   1.627   3.678
  495SOL     OW 1492   0.590   1.487   4.215
  495SOL    HW1 1493   0.632   1.429   4.145
  495SOL    HW2 1494   0.546   1.566   4.171
  496SOL     OW 1495   0.255   1.348   4.014
  496SOL    HW1 1496   0.159   1.349   3.987
  496SOL    HW2 1497   0.267   1.401   4.098
  497SOL     OW 1498   0.075   0.345   3.757
  497SOL    HW1 1499  -0.017   0.317   3.728
  497SOL    HW2 1500   0.106   0.422   3.701
  498SOL     OW 1501   0.072   0.166   4.042
  498SOL    HW1 1502   0.055   0.249   3.988
  498SOL    HW2 1503   0.162   0.129   4.020
  499SOL     OW 1504   1.183   1.335   3.843
  499SOL    HW1 1505   1.084   1.324   3.845
  499SOL    HW2 1506   1.217   1.350   3.936
  500SOL     OW 1507   1.225   0.325   4.173
  500SOL    HW1 1508   1.290   0.251   4.162
  500SOL    HW2 1509   1.245   0.375   4.257
  501SOL     OW 1510   0.594   0.745   4.376
  501SOL    HW1 1511   0.644   0.830   4.357
  501SOL    HW2 1512   0.506   0.747   4.328
  502SOL     OW 1513   0.859   1.374   3.740
  502SOL    HW1 1514   0.813   1.389   3.828
  502SOL    HW2 1515   0.903   1.459   3.710
  503SOL     OW 1516   1.083   0.984   3.811
  503SOL    HW1 1517   1.060   1.037   3.729
  503SOL    HW2 1518   1.164   0.928   3.792
  504SOL     OW 1519   0.079   1.240   4.377
  504SOL    HW1 1520   0.078   1.193   4.465
  504SOL    HW2 1521   0.161   1.212   4.326
  505SOL     OW 1522   0.428   0.424   4.244
  505SOL    HW1 1523   0.458   0.352   4.182
  505SOL    HW2 1524   0.389   0.384   4.327
  506SOL     OW 1525   0.812   1.586   4.411
  506SOL    HW1 1526   0.844   1.596   4.317
  506SOL    HW2 1527   0.733   1.524   4.413
  507SOL     OW 1528   0.770   1.330   4.025
  507SOL    HW1 1529   0.724   1.243   4.042
  507SOL    HW2 1530   0.861   1.327   4.066
  508SOL     OW 1531   1.352   0.052   3.892
  508SOL    HW1 1532   1.387   0.011   3.808
  508SOL    HW2 1533   1.262   0.014   3.912
  509SOL     OW 1534   1.300   0.453   4.415
  509SOL    HW1 1535   1.241   0.533   4.419
  509SOL    HW2 1536   1.315   0.418   4.508
  510SOL     OW 1537   0.039   1.077   4.024
  510SOL    HW1 1538   0.138   1.066   4.015
  510SOL    HW2 1539  -0.001   0.991   4.056
  511SOL     OW 1540   0.875   1.646   4.061
  511SOL    HW1 1541   0.798   1.611   4.007
  511SOL    HW2 1542   0.843   1.717   4.123
  512SOL     OW 1543   0.230   2.490   0.113
  512SOL    HW1 1544   0.137   2.488   0.150
  512SOL    HW2 1545   0.231   2.451   0.021
  513SOL     OW 1546   0.225   2.137   0.996
  513SOL    HW1 1547   0.260   2.120   1.088
  513SOL    HW2 1548   0.137   2.092   0.984
  514SOL     OW 1549   0.019   2.230   0.647
  514SOL    HW1 1550  -0.063   2.273   0.686
  514SOL    HW2 1551  -0.009   2.157   0.584
  515SOL     OW 1552   0.569   3.137   1.165
  515SOL    HW1 1553   0.476   3.130   1.128
  515SOL    HW2 1554   0.580   3.226   1.209
  516SOL     OW 1555   1.555   3.373   0.703
  516SOL    HW1 1556   1.498   3.357   0.784
  516SOL    HW2 1557   1.496   3.383   0.623
  517SOL     OW 1558   1.135   2.565   0.717
  517SOL    HW1 1559   1.192   2.643   0.692
  517SOL    HW2 1560   1.075   2.591   0.793
  518SOL     OW 1561   1.755   2.469   0.231
  518SOL    HW1 1562   1.743   2.456   0.132
  518SOL    HW2 1563   1.725   2.388   0.280
  519SOL     OW 1564   0.768   3.006   1.023
  519SOL    HW1 1565   0.690   3.023   1.083
  519SOL    HW2 1566   0.802   3.093   0.987
  520SOL     OW 1567   0.850   2.660   1.823
  520SOL    HW1 1568   0.846   2.736   1.888
  520SOL    HW2 1569   0.872   2.696   1.732
  521SOL     OW 1570   0.685   2.874   0.665
  521SOL    HW1 1571   0.754   2.858   0.735
  521SOL    HW2 1572   0.612   2.931   0.703
  522SOL     OW 1573   0.686   3.023   1.803
  522SOL    HW1 1574   0.746   3.102   1.817
  522SOL    HW2 1575   0.600   3.054   1.762
  523SOL     OW 1576   0.335   3.297   1.061
  523SOL    HW1 1577   0.257   3.266   1.008
  523SOL    HW2 1578   0.393   3.355   1.004
  524SOL     OW 1579   1.460   3.367   1.339
  524SOL    HW1 1580   1.484   3.461   1.365
  524SOL    HW2 1581   1.444   3.313   1.421
  525SOL     OW 1582   0.438   2.254   1.499
  525SOL    HW1 1583   0.520   2.198   1.508
  525SOL    HW2 1584   0.357   2.196   1.503
  526SOL     OW 1585   1.603   2.309   0.737
  526SOL    HW1 1586   1.529   2.355   0.687
  526SOL    HW2 1587   1.654   2.377   0.790
  527SOL     OW 1588   0.231   3.575   0.483
  527SOL    HW1 1589   0.265   3.652   0.537
  527SOL    HW2 1590   0.275   3.575   0.393
  528SOL     OW 1591   1.127   3.203   1.690
  528SOL    HW1 1592   1.174   3.203   1.778
  528SOL    HW2 1593   1.079   3.116   1.679
  529SOL     OW 1594   0.230   3.296   0.538
  529SOL    HW1 1595   0.204   3.392   0.538
  529SOL    HW2 1596   0.159   3.242   0.583
  530SOL     OW 1597   0.240   2.953   0.886
  530SOL    HW1 1598   0.254   2.869   0.938
  530SOL    HW2 1599   0.185   3.017   0.941
  531SOL     OW 1600   0.620   3.648   1.439
  531SOL    HW1 1601   0.528   3.631   1.474
  531SOL    HW2 1602   0.648   3.740   1.465
  532SOL     OW 1603   0.606   2.826   0.123
  532SOL    HW1 1604   0.613   2.910   0.069
  532SOL    HW2 1605   0.652   2.839   0.211
  533SOL     OW 1606   1.594   1.976   1.480
  533SOL    HW1 1607   1.576   2.043   1.408
  533SOL    HW2 1608   1.591   2.022   1.569
  534SOL     OW 1609   0.122   2.505   0.563
  534SOL    HW1 1610   0.077   2.417   0.580
  534SOL    HW2 1611   0.121   2.559   0.647
  535SOL     OW 1612   1.842   3.629   0.359
  535SOL    HW1 1613   1.896   3.600   0.439
  535SOL    HW2 1614   1.872   3.719   0.330
  536SOL     OW 1615   0.027   3.458   0.117
  536SOL    HW1 1616   0.008   3.362   0.138
  536SOL    HW2 1617  -0.006   3.516   0.192
  537SOL     OW 1618   1.689   2.784   0.612
  537SOL    HW1 1619   1.784   2.755   0.620
  537SOL    HW2 1620   1.681   2.849   0.537
  538SOL     OW 1621   1.641   2.970   0.432
  538SOL    HW1 1622   1.727   2.972   0.380
  538SOL    HW2 1623   1.655   3.017   0.520
  539SOL     OW 1624   0.113   2.599   1.597
  539SOL    HW1 1625   0.201   2.586   1.642
  539SOL    HW2 1626   0.100   2.696   1.575
  540SOL     OW 1627   0.613   3.227   0.726
  540SOL    HW1 1628   0.564   3.140   0.735
  540SOL    HW2 1629   0.590   3.270   0.639
  541SOL     OW 1630   1.293   3.090   1.423
  541SOL    HW1 1631   1.330   3.017   1.365
  541SOL    HW2 1632   1.345   3.095   1.508
  542SOL     OW 1633   0.809   1.866   0.502
  542SOL    HW1 1634   0.849   1.957   0.493
  542SOL    HW2 1635   0.709   1.874   0.508
  543SOL     OW 1636   0.197   2.838   1.264
  543SOL    HW1 1637   0.286   2.793   1.250
  543SOL    HW2 1638   0.124   2.773   1.245
  544SOL     OW 1639   1.525   2.861   0.190
  544SOL    HW1 1640   1.462   2.785   0.203
  544SOL    HW2 1641   1.573   2.879   0.276
  545SOL     OW 1642   1.187   3.654   1.616
  545SOL    HW1 1643   1.211   3.714   1.540
  545SOL    HW2 1644   1.194   3.559   1.586
  546SOL     OW 1645   0.317   2.113   1.801
  546SOL    HW1 1646   0.388   2.184   1.807
  546SOL    HW2 1647   0.229   2.152   1.829
  547SOL     OW 1648   1.466   3.279   0.953
  547SOL    HW1 1649   1.407   3.285   1.033
  547SOL    HW2 1650   1.451   3.191   0.907
  548SOL     OW 1651   1.667   3.576   0.572
  548SOL    HW1 1652   1.626   3.553   0.484
  548SOL    HW2 1653   1.649   3.502   0.637
  549SOL     OW 1654   0.598   2.591   0.270
  549SOL    HW1 1655   0.622   2.660   0.202
  549SOL    HW2 1656   0.520   2.624   0.324
  550SOL     OW 1657   1.281   2.207   0.944
  550SOL    HW1 1658   1.195   2.157   0.931
  550SOL    HW2 1659   1.343   2.153   1.000
  551SOL     OW 1660   1.576   3.524   0.307
  551SOL    HW1 1661   1.665   3.570   0.310
  551SOL    HW2 1662   1.555   3.500   0.212
  552SOL     OW 1663   0.807   2.467   1.465
  552SOL    HW1 1664   0.760   2.464   1.554
  552SOL    HW2 1665   0.756   2.412   1.399
  553SOL     OW 1666   1.394   2.331   1.674
  553SOL    HW1 1667   1.374   2.374   1.762
  553SOL    HW2 1668   1.472   2.269   1.683
  554SOL     OW 1669   0.973   2.752   1.572
  554SOL    HW1 1670   1.019   2.668   1.543
  554SOL    HW2 1671   0.917   2.786   1.497
  555SOL     OW 1672   0.991   2.272   1.242
  555SOL    HW1 1673   0.914   2.306   1.296
  555SOL    HW2 1674   0.957   2.221   1.163
  556SOL     OW 1675   1.041   2.563   0.429
  556SOL    HW1 1676   1.067   2.559   0.525
  556SOL    HW2 1677   0.956   2.512   0.415
  557SOL     OW 1678   0.076   2.673   0.789
  557SOL    HW1 1679   0.175   2.661   0.798
  557SOL    HW2 1680   0.052   2.768   0.810
  558SOL     OW 1681   0.130   3.683   1.571
  558SOL    HW1 1682   0.120   3.668   1.670
  558SOL    HW2 1683   0.044   3.719   1.535
  559SOL     OW 1684   0.865   2.210   0.195
  559SOL    HW1 1685   0.924   2.273   0.146
  559SOL    HW2 1686   0.884   2.116   0.166
  560SOL     OW 1687   1.719   2.447   1.831
  560SOL    HW1 1688   1.693   2.536   1.795
  560SOL    HW2 1689   1.717   2.379   1.758
  561SOL     OW 1690   1.362   3.006   0.545
  561SOL    HW1 1691   1.445   2.977   0.497
  561SOL    HW2 1692   1.313   3.073   0.489
  562SOL     OW 1693   0.550   2.058   0.885
  562SOL    HW1 1694   0.545   2.053   0.985
  562SOL    HW2 1695   0.552   2.154   0.856
  563SOL     OW 1696   1.008   3.318   0.477
  563SOL    HW1 1697   0.962   3.390   0.425
  563SOL    HW2 1698   1.004   3.338   0.575
  564SOL     OW 1699   0.351   3.663   0.853
  564SOL    HW1 1700   0.401   3.577   0.859
  564SOL    HW2 1701   0.416   3.740   0.850
  565SOL     OW 1702   1.795   2.928   0.873
  565SOL    HW1 1703   1.733   2.913   0.797
  565SOL    HW2 1704   1.743   2.939   0.958
  566SOL     OW 1705   1.227   3.412   1.506
  566SOL    HW1 1706   1.233   3.335   1.570
  566SOL    HW2 1707   1.175   3.386   1.426
  567SOL     OW 1708   0.321   2.805   0.242
  567SOL    HW1 1709   0.403   2.844   0.200
  567SOL    HW2 1710   0.294   2.723   0.193
  568SOL     OW 1711   1.458   2.597   0.728
  568SOL    HW1 1712   1.453   2.532   0.803
  568SOL    HW2 1713   1.538   2.656   0.741
  569SOL     OW 1714   0.461   3.128   1.727
  569SOL    HW1 1715   0.411   3.129   1.641
  569SOL    HW2 1716   0.398   3.110   1.803
  570SOL     OW 1717   1.111   3.638   0.237
  570SOL    HW1 1718   1.051   3.576   0.287
  570SOL    HW2 1719   1.142   3.594   0.152
  571SOL     OW 1720   0.202   2.147   1.498
  571SOL    HW1 1721   0.122   2.207   1.485
  571SOL    HW2 1722   0.192   2.098   1.584
  572SOL     OW 1723   1.632   3.239   0.081
  572SOL    HW1 1724   1.600   3.333   0.071
  572SOL    HW2 1725   1.556   3.176   0.069
  573SOL     OW 1726   0.464   3.605   0.323
  573SOL    HW1 1727   0.497   3.644   0.409
  573SOL    HW2 1728   0.540   3.598   0.258
  574SOL     OW 1729   1.400   1.969   0.426
  574SOL    HW1 1730   1.376   1.932   0.336
  574SOL    HW2 1731   1.499   1.985   0.430
  575SOL     OW 1732   0.249   3.647   1.241
  575SOL    HW1 1733   0.306   3.582   1.291
  575SOL    HW2 1734   0.233   3.614   1.148
  576SOL     OW 1735   0.940   3.560   0.904
  576SOL    HW1 1736   1.020   3.503   0.925
  576SOL    HW2 1737   0.891   3.520   0.827
  577SOL     OW 1738   0.382   2.562   0.480
  577SOL    HW1 1739   0.427   2.472   0.477
  577SOL    HW2 1740   0.288   2.551   0.513
  578SOL     OW 1741   1.547   2.084   1.729
  578SOL    HW1 1742   1.542   2.121   1.821
  578SOL    HW2 1743   1.475   2.015   1.717
  579SOL     OW 1744   0.614   1.984   0.117
  579SOL    HW1 1745   0.712   1.962   0.124
  579SOL    HW2 1746   0.583   1.967   0.024
  580SOL     OW 1747   0.781   2.126   1.749
  580SOL    HW1 1748   0.848   2.065   1.792
  580SOL    HW2 1749   0.708   2.145   1.814
  581SOL     OW 1750   0.888   3.376   1.195
  581SOL    HW1 1751   0.865   3.351   1.101
  581SOL    HW2 1752   0.949   3.307   1.234
  582SOL     OW 1753   1.351   2.452   1.433
  582SOL    HW1 1754   1.379   2.409   1.518
  582SOL    HW2 1755   1.376   2.548   1.434
  583SOL     OW 1756   0.803   3.264   0.924
  583SOL    HW1 1757   0.893   3.278   0.882
  583SOL    HW2 1758   0.732   3.266   0.853
  584SOL     OW 1759   0.922   2.365   0.899
  584SOL    HW1 1760   0.897   2.356   0.803
  584SOL    HW2 1761   0.970   2.283   0.930
  585SOL     OW 1762   0.539   1.926   0.512
  585SOL    HW1 1763   0.458   1.927   0.570
  585SOL    HW2 1764   0.542   2.009   0.457
  586SOL     OW 1765   1.434   3.050   0.041
  586SOL    HW1 1766   1.466   2.974   0.098
  586SOL    HW2 1767   1.342   3.077   0.071
  587SOL     OW 1768   0.935   2.098   0.480
  587SOL    HW1 1769   0.887   2.139   0.402
  587SOL    HW2 1770   1.034   2.096   0.461
  588SOL     OW 1771   1.076   2.545   1.464
  588SOL    HW1 1772   0.996   2.484   1.467
  588SOL    HW2 1773   1.157   2.492   1.440
  589SOL     OW 1774   1.227   3.432   0.793
  589SOL    HW1 1775   1.248   3.506   0.728
  589SOL    HW2 1776   1.295   3.432   0.866
  590SOL     OW 1777   0.459   3.014   0.741
  590SOL    HW1 1778   0.388   2.987   0.806
  590SOL    HW2 1779   0.433   2.986   0.648
  591SOL     OW 1780   1.271   3.659   0.591
  591SOL    HW1 1781   1.315   3.723   0.527
  591SOL    HW2 1782   1.221   3.711   0.661
  592SOL     OW 1783   1.032   2.411   0.016
  592SOL    HW1 1784   0.991   2.493  -0.023
  592SOL    HW2 1785   1.096   2.437   0.089
  593SOL     OW 1786   0.078   2.418   1.386
  593SOL    HW1 1787   0.170   2.417   1.345
  593SOL    HW2 1788   0.072   2.492   1.453
  594SOL     OW 1789   0.561   2.084   1.147
  594SOL    HW1 1790   0.599   2.000   1.184
  594SOL    HW2 1791   0.473   2.103   1.191
  595SOL     OW 1792   0.866   2.316   0.642
  595SOL    HW1 1793   0.834   2.388   0.580
  595SOL    HW2 1794   0.890   2.235   0.589
  596SOL     OW 1795   1.017   1.901   0.753
  596SOL    HW1 1796   0.945   1.906   0.684
  596SOL    HW2 1797   0.993   1.832   0.822
  597SOL     OW 1798   1.429   3.035   0.867
  597SOL    HW1 1799   1.374   2.951   0.860
  597SOL    HW2 1800   1.455   3.064   0.775
  598SOL     OW 1801   1.466   2.452   0.992
  598SOL    HW1 1802   1.436   2.357   0.999
  598SOL    HW2 1803   1.539   2.468   1.058
  599SOL     OW 1804   1.857   2.695   0.377
  599SOL    HW1 1805   1.899   2.631   0.441
  599SOL    HW2 1806   1.819   2.644   0.299
  600SOL     OW 1807   0.488   3.247   0.174
  600SOL    HW1 1808   0.401   3.232   0.221
  600SOL    HW2 1809   0.471   3.273   0.079
  601SOL     OW 1810   1.664   3.142   0.657
  601SOL    HW1 1811   1.763   3.150   0.671
  601SOL    HW2 1812   1.619   3.226   0.688
  602SOL     OW 1813   1.390   2.437   0.078
  602SOL    HW1 1814   1.336   2.416   0.159
  602SOL    HW2 1815   1.481   2.396   0.087
  603SOL     OW 1816   0.527   2.118   0.328
  603SOL    HW1 1817   0.554   2.059   0.253
  603SOL    HW2 1818   0.527   2.213   0.297
  604SOL     OW 1819   1.754   3.085   1.588
  604SOL    HW1 1820   1.845   3.046   1.575
  604SOL    HW2 1821   1.762   3.181   1.612
  605SOL     OW 1822   1.064   3.209   1.340
  605SOL    HW1 1823   0.984   3.186   1.395
  605SOL    HW2 1824   1.147   3.183   1.389
  606SOL     OW 1825   1.592   3.491   1.625
  606SOL    HW1 1826   1.619   3.525   1.535
  606SOL    HW2 1827   1.671   3.453   1.671
  607SOL     OW 1828   1.111   3.057   1.100
  607SOL    HW1 1829   1.071   3.101   1.181
  607SOL    HW2 1830   1.070   3.094   1.017
  608SOL     OW 1831   1.638   2.961   1.079
  608SOL    HW1 1832   1.643   3.042   1.138
  608SOL    HW2 1833   1.552   2.963   1.028
  609SOL     OW 1834   0.915   1.951   1.402
  609SOL    HW1 1835   0.940   1.931   1.307
  609SOL    HW2 1836   0.987   2.007   1.444
  610SOL     OW 1837   0.980   2.978   1.719
  610SOL    HW1 1838   0.881   2.984   1.729
  610SOL    HW2 1839   1.003   2.898   1.663
  611SOL     OW 1840   0.705   2.912   0.368
  611SOL    HW1 1841   0.691   2.919   0.467
  611SOL    HW2 1842   0.789   2.861   0.350
  612SOL     OW 1843   0.410   2.675   1.251
  612SOL    HW1 1844   0.496   2.687   1.301
  612SOL    HW2 1845   0.368   2.588   1.278
  613SOL     OW 1846   1.274   2.248   1.262
  613SOL    HW1 1847   1.295   2.322   1.326
  613SOL    HW2 1848   1.185   2.265   1.219
  614SOL     OW 1849   0.064   3.426   1.331
  614SOL    HW1 1850   0.018   3.508   1.297
  614SOL    HW2 1851   0.162   3.445   1.340
  615SOL     OW 1852   0.367   2.962   0.501
  615SOL    HW1 1853   0.360   3.045   0.445
  615SOL    HW2 1854   0.371   2.882   0.441
  616SOL     OW 1855   0.566   2.399   0.865
  616SOL    HW1 1856   0.578   2.465   0.791
  616SOL    HW2 1857   0.612   2.433   0.948
  617SOL     OW 1858   1.252   3.210   0.388
  617SOL    HW1 1859   1.302   3.287   0.428
  617SOL    HW2 1860   1.157   3.212   0.420
  618SOL     OW 1861   1.272   3.307   1.142
  618SOL    HW1 1862   1.319   3.320   1.229
  618SOL    HW2 1863   1.206   3.233   1.151
  619SOL     OW 1864   1.582   2.501   0.472
  619SOL    HW1 1865   1.551   2.562   0.545
  619SOL    HW2 1866   1.632   2.553   0.403
  620SOL     OW 1867   0.354   3.372   1.329
  620SOL    HW1 1868   0.333   3.328   1.242
  620SOL    HW2 1869   0.451   3.398   1.332
  621SOL     OW 1870   0.402   2.613   1.598
  621SOL    HW1 1871   0.470   2.668   1.551
  621SOL    HW2 1872   0.442   2.525   1.625
  622SOL     OW 1873   1.587   2.641   1.670
  622SOL    HW1 1874   1.495   2.679   1.665
  622SOL    HW2 1875   1.647   2.688   1.605
  623SOL     OW 1876   1.013   1.967   1.770
  623SOL    HW1 1877   1.019   2.052   1.718
  623SOL    HW2 1878   1.045   1.891   1.713
  624SOL     OW 1879   0.504   1.912   1.740
  624SOL    HW1 1880   0.462   1.855   1.670
  624SOL    HW2 1881   0.438   1.981   1.772
  625SOL     OW 1882   0.573   2.732   1.029
  625SOL    HW1 1883   0.617   2.821   1.020
  625SOL    HW2 1884   0.510   2.732   1.106
  626SOL     OW 1885   1.360   2.724   1.045
  626SOL    HW1 1886   1.285   2.724   0.979
  626SOL    HW2 1887   1.397   2.632   1.054
  627SOL     OW 1888   1.209   2.387   0.275
  627SOL    HW1 1889   1.222   2.303   0.329
  627SOL    HW2 1890   1.180   2.461   0.335
  628SOL     OW 1891   0.307   2.075   1.231
  628SOL    HW1 1892   0.284   2.112   1.321
  628SOL    HW2 1893   0.277   1.980   1.225
  629SOL     OW 1894   0.037   3.172   1.282
  629SOL    HW1 1895   0.090   3.123   1.350
  629SOL    HW2 1896   0.059   3.270   1.287
  630SOL     OW 1897   0.732   2.496   1.064
  630SOL    HW1 1898   0.791   2.470   0.988
  630SOL    HW2 1899   0.704   2.592   1.053
  631SOL     OW 1900   1.728   2.797   1.854
  631SOL    HW1 1901   1.682   2.790   1.765
  631SOL    HW2 1902   1.666   2.841   1.920
  632SOL     OW 1903   0.307   1.925   0.618
  632SOL    HW1 1904   0.296   2.019   0.651
  632SOL    HW2 1905   0.302   1.862   0.695
  633SOL     OW 1906   1.622   2.229   0.374
  633SOL    HW1 1907   1.624   2.153   0.438
  633SOL    HW2 1908   1.574   2.306   0.414
  634SOL     OW 1909   1.023   2.628   0.966
  634SOL    HW1 1910   1.038   2.649   1.062
  634SOL    HW2 1911   0.993   2.533   0.957
  635SOL     OW 1912   0.980   3.435   1.700
  635SOL    HW1 1913   0.960   3.479   1.612
  635SOL    HW2 1914   1.019   3.344   1.684
  636SOL     OW 1915   1.859   3.380   1.605
  636SOL    HW1 1916   1.873   3.407   1.510
  636SOL    HW2 1917   1.942   3.402   1.658
  637SOL     OW 1918   0.350   2.760   1.804
  637SOL    HW1 1919   0.426   2.804   1.852
  637SOL    HW2 1920   0.385   2.713   1.722
  638SOL     OW 1921   1.540   2.136   0.125
  638SOL    HW1 1922   1.479   2.061   0.148
  638SOL    HW2 1923   1.562   2.188   0.208
  639SOL     OW 1924   1.303   2.700   0.042
  639SOL    HW1 1925   1.337   2.607   0.057
  639SOL    HW2 1926   1.321   2.727  -0.053
  640SOL     OW 1927   1.068   3.195   0.849
  640SOL    HW1 1928   1.075   3.111   0.794
  640SOL    HW2 1929   1.130   3.264   0.813
  641SOL     OW 1930   0.319   2.672   0.949
  641SOL    HW1 1931   0.412   2.708   0.954
  641SOL    HW2 1932   0.313   2.587   1.001
  642SOL     OW 1933   0.339   2.371   1.006
  642SOL    HW1 1934   0.287   2.288   0.989
  642SOL    HW2 1935   0.416   2.376   0.942
  643SOL     OW 1936   1.138   2.242   1.678
  643SOL    HW1 1937   1.093   2.305   1.742
  643SOL    HW2 1938   1.231   2.273   1.661
  644SOL     OW 1939   1.160   2.069   1.477
  644SOL    HW1 1940   1.160   2.133   1.554
  644SOL    HW2 1941   1.188   2.117   1.394
  645SOL     OW 1942   0.008   3.188   0.200
  645SOL    HW1 1943  -0.085   3.209   0.169
  645SOL    HW2 1944   0.018   3.089   0.213
  646SOL     OW 1945   0.088   3.663   0.927
  646SOL    HW1 1946   0.046   3.577   0.900
  646SOL    HW2 1947   0.182   3.666   0.893
  647SOL     OW 1948   0.504   3.430   0.910
  647SOL    HW1 1949   0.570   3.504   0.919
  647SOL    HW2 1950   0.548   3.351   0.868
  648SOL     OW 1951   1.002   2.658   1.238
  648SOL    HW1 1952   1.043   2.626   1.324
  648SOL    HW2 1953   0.906   2.631   1.235
  649SOL     OW 1954   0.040   2.406   1.114
  649SOL    HW1 1955   0.125   2.373   1.073
  649SOL    HW2 1956   0.053   2.421   1.212
  650SOL     OW 1957   0.189   2.382   1.722
  650SOL    HW1 1958   0.248   2.342   1.652
  650SOL    HW2 1959   0.131   2.453   1.681
  651SOL     OW 1960   1.369   2.812   1.660
  651SOL    HW1 1961   1.408   2.901   1.680
  651SOL    HW2 1962   1.379   2.792   1.563
  652SOL     OW 1963   0.815   2.434   0.325
  652SOL    HW1 1964   0.822   2.345   0.279
  652SOL    HW2 1965   0.721   2.468   0.317
  653SOL     OW 1966   1.657   2.466   1.206
  653SOL    HW1 1967   1.619   2.397   1.268
  653SOL    HW2 1968   1.739   2.430   1.162
  654SOL     OW 1969   0.252   3.426   1.744
  654SOL    HW1 1970   0.222   3.483   1.820
  654SOL    HW2 1971   0.245   3.329   1.770
  655SOL     OW 1972   0.671   2.326   1.269
  655SOL    HW1 1973   0.637   2.237   1.239
  655SOL    HW2 1974   0.697   2.380   1.189
  656SOL     OW 1975   0.930   3.540   1.465
  656SOL    HW1 1976   0.906   3.522   1.370
  656SOL    HW2 1977   0.960   3.634   1.475
  657SOL     OW 1978   0.473   2.362   0.191
  657SOL    HW1 1979   0.534   2.442   0.195
  657SOL    HW2 1980   0.378   2.393   0.198
  658SOL     OW 1981   0.159   2.999   1.466
  658SOL    HW1 1982   0.181   2.938   1.542
  658SOL    HW2 1983   0.169   2.950   1.380
  659SOL     OW 1984   1.347   2.921   1.234
  659SOL    HW1 1985   1.371   2.858   1.160
  659SOL    HW2 1986   1.257   2.961   1.216
  660SOL     OW 1987   1.302   2.717   0.309
  660SOL    HW1 1988   1.216   2.686   0.351
  660SOL    HW2 1989   1.298   2.703   0.210
  661SOL     OW 1990   1.759   3.609   1.154
  661SOL    HW1 1991   1.820   3.639   1.081
  661SOL    HW2 1992   1.721   3.520   1.132
  662SOL     OW 1993   1.252   3.593   1.128
  662SOL    HW1 1994   1.336   3.598   1.074
  662SOL    HW2 1995   1.229   3.497   1.146
  663SOL     OW 1996   0.083   3.120   1.022
  663SOL    HW1 1997   0.078   3.119   1.122
  663SOL    HW2 1998   0.000   3.079   0.984
  664SOL     OW 1999   0.688   3.524   1.716
  664SOL    HW1 2000   0.632   3.605   1.725
  664SOL    HW2 2001   0.740   3.528   1.630
  665SOL     OW 2002   0.903   1.948   0.133
  665SOL    HW1 2003   0.954   1.949   0.047
  665SOL    HW2 2004   0.959   1.906   0.204
  666SOL     OW 2005   1.726   1.997   0.523
  666SOL    HW1 2006   1.799   1.980   0.456
  666SOL    HW2 2007   1.695   1.910   0.561
  667SOL     OW 2008   1.388   3.435   0.477
  667SOL    HW1 2009   1.455   3.447   0.403
  667SOL    HW2 2010   1.348   3.524   0.500
  668SOL     OW 2011   0.130   3.656   1.851
  668SOL    HW1 2012   0.089   3.582   1.904
  668SOL    HW2 2013   0.194   3.707   1.909
  669SOL     OW 2014   1.280   2.789   0.672
  669SOL    HW1 2015   1.340   2.708   0.674
  669SOL    HW2 2016   1.320   2.858   0.612
  670SOL     OW 2017   0.830   3.135   1.422
  670SOL    HW1 2018   0.825   3.168   1.517
  670SOL    HW2 2019   0.744   3.154   1.376
  671SOL     OW 2020   0.672   3.478   0.154
  671SOL    HW1 2021   0.681   3.488   0.055
  671SOL    HW2 2022   0.632   3.389   0.175
  672SOL     OW 2023   1.650   3.582   1.394
  672SOL    HW1 2024   1.703   3.592   1.310
  672SOL    HW2 2025   1.623   3.672   1.428
  673SOL     OW 2026   1.841   2.037   0.963
  673SOL    HW1 2027   1.880   1.952   0.927
  673SOL    HW2 2028   1.743   2.039   0.944
  674SOL     OW 2029   0.263   2.188   0.720
  674SOL    HW1 2030   0.184   2.239   0.686
  674SOL    HW2 2031   0.254   2.173   0.818
  675SOL     OW 2032   1.194   3.474   0.031
  675SOL    HW1 2033   1.200   3.381   0.068
  675SOL    HW2 2034   1.135   3.474  -0.049
  676SOL     OW 2035   0.822   2.864   1.372
  676SOL    HW1 2036   0.862   2.863   1.280
  676SOL    HW2 2037   0.832   2.956   1.412
  677SOL     OW 2038   0.916   2.772   0.291
  677SOL    HW1 2039   0.979   2.810   0.223
  677SOL    HW2 2040   0.956   2.689   0.330
  678SOL     OW 2041   1.504   3.469   0.044
  678SOL    HW1 2042   1.412   3.506   0.051
  678SOL    HW2 2043   1.542   3.489  -0.046
  679SOL     OW 2044   0.372   3.150   1.490
  679SOL    HW1 2045   0.359   3.243   1.456
  679SOL    HW2 2046   0.288   3.098   1.477
  680SOL     OW 2047   1.614   3.154   1.289
  680SOL    HW1 2048   1.674   3.157   1.369
  680SOL    HW2 2049   1.539   3.218   1.302
  681SOL     OW 2050   1.039   2.960   0.696
  681SOL    HW1 2051   0.969   2.913   0.750
  681SOL    HW2 2052   1.098   2.892   0.653
  682SOL     OW 2053   1.014   2.098   0.971
  682SOL    HW1 2054   1.006   2.062   0.878
  682SOL    HW2 2055   1.012   2.022   1.036
  683SOL     OW 2056   0.590   3.349   0.491
  683SOL    HW1 2057   0.632   3.291   0.421
  683SOL    HW2 2058   0.546   3.428   0.447
  684SOL     OW 2059   1.709   2.247   1.381
  684SOL    HW1 2060   1.782   2.316   1.385
  684SOL    HW2 2061   1.737   2.172   1.322
  685SOL     OW 2062   0.255   3.210   0.290
  685SOL    HW1 2063   0.159   3.211   0.263
  685SOL    HW2 2064   0.267   3.263   0.374
  686SOL     OW 2065   0.105   2.875   1.726
  686SOL    HW1 2066   0.028   2.842   1.780
  686SOL    HW2 2067   0.190   2.845   1.768
  687SOL     OW 2068   0.672   2.065   1.489
  687SOL    HW1 2069   0.762   2.049   1.449
  687SOL    HW2 2070   0.680   2.070   1.588
  688SOL     OW 2071   0.075   2.207   0.033
  688SOL    HW1 2072  -0.017   2.179   0.004
  688SOL    HW2 2073   0.106   2.284  -0.023
  689SOL     OW 2074   1.440   2.718   1.398
  689SOL    HW1 2075   1.383   2.770   1.335
  689SOL    HW2 2076   1.536   2.730   1.374
  690SOL     OW 2077   0.072   2.028   0.318
  690SOL    HW1 2078   0.055   2.111   0.264
  690SOL    HW2 2079   0.162   1.991   0.296
  691SOL     OW 2080   1.183   3.197   0.119
  691SOL    HW1 2081   1.084   3.186   0.121
  691SOL    HW2 2082   1.217   3.212   0.212
  692SOL     OW 2083   0.613   2.704   1.431
  692SOL    HW1 2084   0.669   2.785   1.414
  692SOL    HW2 2085   0.672   2.624   1.434
  693SOL     OW 2086   1.493   3.629   0.959
  693SOL    HW1 2087   1.526   3.693   0.890
  693SOL    HW2 2088   1.559   3.623   1.034
  694SOL     OW 2089   0.716   2.427   1.708
  694SOL    HW1 2090   0.735   2.492   1.782
  694SOL    HW2 2091   0.776   2.347   1.717
  695SOL     OW 2092   1.450   3.082   1.633
  695SOL    HW1 2093   1.441   3.072   1.732
  695SOL    HW2 2094   1.546   3.075   1.607
  696SOL     OW 2095   0.390   3.603   1.560
  696SOL    HW1 2096   0.299   3.644   1.558
  696SOL    HW2 2097   0.383   3.509   1.592
  697SOL     OW 2098   1.674   2.745   1.254
  697SOL    HW1 2099   1.647   2.656   1.217
  697SOL    HW2 2100   1.675   2.813   1.181
  698SOL     OW 2101   1.225   2.187   0.449
  698SOL    HW1 2102   1.290   2.113   0.438
  698SOL    HW2 2103   1.245   2.237   0.533
  699SOL     OW 2104   0.594   2.607   0.652
  699SOL    HW1 2105   0.644   2.692   0.633
  699SOL    HW2 2106   0.506   2.609   0.604
  700SOL     OW 2107   1.777   2.204   1.642
  700SOL    HW1 2108   1.760   2.235   1.548
  700SOL    HW2 2109   1.693   2.167   1.680
  701SOL     OW 2110   1.730   2.796   1.517
  701SOL    HW1 2111   1.768   2.887   1.532
  701SOL    HW2 2112   1.722   2.779   1.418
  702SOL     OW 2113   0.859   3.236   0.016
  702SOL    HW1 2114   0.813   3.251   0.104
  702SOL    HW2 2115   0.903   3.321  -0.014
  703SOL     OW 2116   0.661   3.652   0.953
  703SOL    HW1 2117   0.615   3.740   0.940
  703SOL    HW2 2118   0.760   3.664   0.946
  704SOL     OW 2119   0.859   2.818   0.861
  704SOL    HW1 2120   0.913   2.749   0.909
  704SOL    HW2 2121   0.827   2.887   0.927
  705SOL     OW 2122   1.083   2.846   0.087
  705SOL    HW1 2123   1.060   2.899   0.005
  705SOL    HW2 2124   1.164   2.790   0.068
  706SOL     OW 2125   1.861   3.431   0.851
  706SOL    HW1 2126   1.790   3.419   0.781
  706SOL    HW2 2127   1.862   3.352   0.911
  707SOL     OW 2128   0.221   3.176   1.844
  707SOL    HW1 2129   0.156   3.103   1.823
  707SOL    HW2 2130   0.225   3.190   1.942
  708SOL     OW 2131   0.079   3.102   0.653
  708SOL    HW1 2132   0.078   3.055   0.741
  708SOL    HW2 2133   0.161   3.074   0.602
  709SOL     OW 2134   0.672   3.253   1.624
  709SOL    HW1 2135   0.594   3.203   1.662
  709SOL    HW2 2136   0.669   3.348   1.655
  710SOL     OW 2137   1.824   2.054   1.227
  710SOL    HW1 2138   1.820   1.964   1.271
  710SOL    HW2 2139   1.827   2.043   1.128
  711SOL     OW 2140   0.428   2.286   0.520
  711SOL    HW1 2141   0.458   2.214   0.458
  711SOL    HW2 2142   0.389   2.246   0.603
  712SOL     OW 2143   1.705   3.349   1.104
  712SOL    HW1 2144   1.612   3.324   1.077
  712SOL    HW2 2145   1.731   3.299   1.186
  713SOL     OW 2146   0.317   2.409   1.280
  713SOL    HW1 2147   0.355   2.350   1.352
  713SOL    HW2 2148   0.357   2.383   1.192
  714SOL     OW 2149   0.812   3.448   0.687
  714SOL    HW1 2150   0.844   3.458   0.593
  714SOL    HW2 2151   0.733   3.386   0.689
  715SOL     OW 2152   1.424   2.076   1.112
  715SOL    HW1 2153   1.476   2.011   1.167
  715SOL    HW2 2154   1.375   2.139   1.173
  716SOL     OW 2155   1.001   1.896   1.154
  716SOL    HW1 2156   0.938   1.824   1.123
  716SOL    HW2 2157   1.094   1.860   1.154
  717SOL     OW 2158   0.770   3.192   0.301
  717SOL    HW1 2159   0.724   3.105   0.318
  717SOL    HW2 2160   0.861   3.189   0.342
  718SOL     OW 2161   0.618   3.429   1.284
  718SOL    HW1 2162   0.613   3.511   1.341
  718SOL    HW2 2163   0.707   3.426   1.239
  719SOL     OW 2164   1.352   1.914   0.168
  719SOL    HW1 2165   1.387   1.873   0.084
  719SOL    HW2 2166   1.262   1.876   0.188
  720SOL     OW 2167   1.300   2.315   0.691
  720SOL    HW1 2168   1.241   2.395   0.695
  720SOL    HW2 2169   1.315   2.280   0.784
  721SOL     OW 2170   1.593   2.083   0.882
  721SOL    HW1 2171   1.509   2.082   0.936
  721SOL    HW2 2172   1.595   2.166   0.826
  722SOL     OW 2173   0.039   2.939   0.300
  722SOL    HW1 2174   0.138   2.928   0.291
  722SOL    HW2 2175  -0.001   2.853   0.332
  723SOL     OW 2176   0.875   3.508   0.337
  723SOL    HW1 2177   0.798   3.473   0.283
  723SOL    HW2 2178   0.843   3.579   0.399
  724SOL     OW 2179   0.230   2.490   1.975
  724SOL    HW1 2180   0.137   2.488   2.012
  724SOL    HW2 2181   0.231   2.451   1.883
  725SOL     OW 2182   0.225   2.137   2.858
  725SOL    HW1 2183   0.260   2.120   2.950
  725SOL    HW2 2184   0.137   2.092   2.846
  726SOL     OW 2185   0.019   2.230   2.509
  726SOL    HW1 2186  -0.063   2.273   2.548
  726SOL    HW2 2187  -0.009   2.157   2.446
  727SOL     OW 2188   0.569   3.137   3.027
  727SOL    HW1 2189   0.476   3.130   2.990
  727SOL    HW2 2190   0.580   3.226   3.071
  728SOL     OW 2191   1.555   3.373   2.565
  728SOL    HW1 2192   1.498   3.357   2.646
  728SOL    HW2 2193   1.496   3.383   2.485
  729SOL     OW 2194   1.135   2.565   2.579
  729SOL    HW1 2195   1.192   2.643   2.554
  729SOL    HW2 2196   1.075   2.591   2.655
  730SOL     OW 2197   1.755   2.469   2.093
  730SOL    HW1 2198   1.743   2.456   1.994
  730SOL    HW2 2199   1.725   2.388   2.142
  731SOL     OW 2200   0.768   3.006   2.885
  731SOL    HW1 2201   0.690   3.023   2.945
  731SOL    HW2 2202   0.802   3.093   2.849
  732SOL     OW 2203   0.850   2.660   3.685
  732SOL    HW1 2204   0.846   2.736   3.750
  732SOL    HW2 2205   0.872   2.696   3.594
  733SOL     OW 2206   0.685   2.874   2.527
  733SOL    HW1 2207   0.754   2.858   2.597
  733SOL    HW2 2208   0.612   2.931   2.565
  734SOL     OW 2209   0.686   3.023   3.665
  734SOL    HW1 2210   0.746   3.102   3.679
  734SOL    HW2 2211   0.600   3.054   3.624
  735SOL     OW 2212   0.335   3.297   2.923
  735SOL    HW1 2213   0.257   3.266   2.870
  735SOL    HW2 2214   0.393   3.355   2.866
  736SOL     OW 2215   1.460   3.367   3.201
  736SOL    HW1 2216   1.484   3.461   3.227
  736SOL    HW2 2217   1.444   3.313   3.283
  737SOL     OW 2218   0.438   2.254   3.361
  737SOL    HW1 2219   0.520   2.198   3.370
  737SOL    HW2 2220   0.357   2.196   3.365
  738SOL     OW 2221   1.603   2.309   2.599
  738SOL    HW1 2222   1.529   2.355   2.549
  738SOL    HW2 2223   1.654   2.377   2.652
  739SOL     OW 2224   0.231   3.575   2.345
  739SOL    HW1 2225   0.265   3.652   2.399
  739SOL    HW2 2226   0.275   3.575   2.255
  740SOL     OW 2227   1.127   3.203   3.552
  740SOL    HW1 2228   1.174   3.203   3.640
  740SOL    HW2 2229   1.079   3.116   3.541
  741SOL     OW 2230   0.230   3.296   2.400
  741SOL    HW1 2231   0.204   3.392   2.400
  741SOL    HW2 2232   0.159   3.242   2.445
  742SOL     OW 2233   0.240   2.953   2.748
  742SOL    HW1 2234   0.254   2.869   2.800
  742SOL    HW2 2235   0.185   3.017   2.803
  743SOL     OW 2236   0.620   3.648   3.301
  743SOL    HW1 2237   0.528   3.631   3.336
  743SOL    HW2 2238   0.648   3.740   3.327
  744SOL     OW 2239   0.606   2.826   1.985
  744SOL    HW1 2240   0.613   2.910   1.931
  744SOL    HW2 2241   0.652   2.839   2.073
  745SOL     OW 2242   1.594   1.976   3.342
  745SOL    HW1 2243   1.576   2.043   3.270
  745SOL    HW2 2244   1.591   2.022   3.431
  746SOL     OW 2245   0.122   2.505   2.425
  746SOL    HW1 2246   0.077   2.417   2.442
  746SOL    HW2 2247   0.121   2.559   2.509
  747SOL     OW 2248   1.842   3.629   2.221
  747SOL    HW1 2249   1.896   3.600   2.301
  747SOL    HW2 2250   1.872   3.719   2.192
  748SOL     OW 2251   0.027   3.458   1.979
  748SOL    HW1 2252   0.008   3.362   2.000
  748SOL    HW2 2253  -0.006   3.516   2.054
  749SOL     OW 2254   1.689   2.784   2.474
  749SOL    HW1 2255   1.784   2.755   2.482
  749SOL    HW2 2256   1.681   2.849   2.399
  750SOL     OW 2257   1.641   2.970   2.294
  750SOL    HW1 2258   1.727   2.972   2.242
  750SOL    HW2 2259   1.655   3.017   2.382
  751SOL     OW 2260   0.113   2.599   3.459
  751SOL    HW1 2261   0.201   2.586   3.504
  751SOL    HW2 2262   0.100   2.696   3.437
  752SOL     OW 2263   0.613   3.227   2.588
  752SOL    HW1 2264   0.564   3.140   2.597
  752SOL    HW2 2265   0.590   3.270   2.501
  753SOL     OW 2266   1.293   3.090   3.285
  753SOL    HW1 2267   1.330   3.017   3.227
  753SOL    HW2 2268   1.345   3.095   3.370
  754SOL     OW 2269   0.809   1.866   2.364
  754SOL    HW1 2270   0.849   1.957   2.355
  754SOL    HW2 2271   0.709   1.874   2.370
  755SOL     OW 2272   0.197   2.838   3.126
  755SOL    HW1 2273   0.286   2.793   3.112
  755SOL    HW2 2274   0.124   2.773   3.107
  756SOL     OW 2275   1.525   2.861   2.052
  756SOL    HW1 2276   1.462   2.785   2.065
  756SOL    HW2 2277   1.573   2.879   2.138
  757SOL     OW 2278   1.187   3.654   3.478
  757SOL    HW1 2279   1.211   3.714   3.402
  757SOL    HW2 2280   1.194   3.559   3.448
  758SOL     OW 2281   0.317   2.113   3.663
  758SOL    HW1 2282   0.388   2.184   3.669
  758SOL    HW2 2283   0.229   2.152   3.691
  759SOL     OW 2284   1.466   3.279   2.815
  759SOL    HW1 2285   1.407   3.285   2.895
  759SOL    HW2 2286   1.451   3.191   2.769
  760SOL     OW 2287   1.667   3.576   2.434
  760SOL    HW1 2288   1.626   3.553   2.346
  760SOL    HW2 2289   1.649   3.502   2.499
  761SOL     OW 2290   0.598   2.591   2.132
  761SOL    HW1 2291   0.622   2.660   2.064
  761SOL    HW2 2292   0.520   2.624   2.186
  762SOL     OW 2293   1.281   2.207   2.806
  762SOL    HW1 2294   1.195   2.157   2.793
  762SOL    HW2 2295   1.343   2.153   2.862
  763SOL     OW 2296   1.576   3.524   2.169
  763SOL    HW1 2297   1.665   3.570   2.172
  763SOL    HW2 2298   1.555   3.500   2.074
  764SOL     OW 2299   0.807   2.467   3.327
  764SOL    HW1 2300   0.760   2.464   3.416
  764SOL    HW2 2301   0.756   2.412   3.261
  765SOL     OW 2302   1.394   2.331   3.536
  765SOL    HW1 2303   1.374   2.374   3.624
  765SOL    HW2 2304   1.472   2.269   3.545
  766SOL     OW 2305   0.973   2.752   3.434
  766SOL    HW1 2306   1.019   2.668   3.405
  766SOL    HW2 2307   0.917   2.786   3.359
  767SOL     OW 2308   0.991   2.272   3.104
  767SOL    HW1 2309   0.914   2.306   3.158
  767SOL    HW2 2310   0.957   2.221   3.025
  768SOL     OW 2311   1.041   2.563   2.291
  768SOL    HW1 2312   1.067   2.559   2.387
  768SOL    HW2 2313   0.956   2.512   2.277
  769SOL     OW 2314   0.076   2.673   2.651
  769SOL    HW1 2315   0.175   2.661   2.660
  769SOL    HW2 2316   0.052   2.768   2.672
  770SOL     OW 2317   0.130   3.683   3.433
  770SOL    HW1 2318   0.120   3.668   3.532
  770SOL    HW2 2319   0.044   3.719   3.397
  771SOL     OW 2320   0.865   2.210   2.057
  771SOL    HW1 2321   0.924   2.273   2.008
  771SOL    HW2 2322   0.884   2.116   2.028
  772SOL     OW 2323   1.719   2.447   3.693
  772SOL    HW1 2324   1.693   2.536   3.657
  772SOL    HW2 2325   1.717   2.379   3.620
  773SOL     OW 2326   1.362   3.006   2.407
  773SOL    HW1 2327   1.445   2.977   2.359
  773SOL    HW2 2328   1.313   3.073   2.351
  774SOL     OW 2329   0.550   2.058   2.747
  774SOL    HW1 2330   0.545   2.053   2.847
  774SOL    HW2 2331   0.552   2.154   2.718
  775SOL     OW 2332   1.008   3.318   2.339
  775SOL    HW1 2333   0.962   3.390   2.287
  775SOL    HW2 2334   1.004   3.338   2.437
  776SOL     OW 2335   0.351   3.663   2.715
  776SOL    HW1 2336   0.401   3.577   2.721
  776SOL    HW2 2337   0.416   3.740   2.712
  777SOL     OW 2338   1.795   2.928   2.735
  777SOL    HW1 2339   1.733   2.913   2.659
  777SOL    HW2 2340   1.743   2.939   2.820
  778SOL     OW 2341   1.227   3.412   3.368
  778SOL    HW1 2342   1.233   3.335   3.432
  778SOL    HW2 2343   1.175   3.386   3.288
  779SOL     OW 2344   0.321   2.805   2.104
  779SOL    HW1 2345   0.403   2.844   2.062
  779SOL    HW2 2346   0.294   2.723   2.055
  780SOL     OW 2347   1.458   2.597   2.590
  780SOL    HW1 2348   1.453   2.532   2.665
  780SOL    HW2 2349   1.538   2.656   2.603
  781SOL     OW 2350   0.461   3.128   3.589
  781SOL    HW1 2351   0.411   3.129   3.503
  781SOL    HW2 2352   0.398   3.110   3.665
  782SOL     OW 2353   1.111   3.638   2.099
  782SOL    HW1 2354   1.051   3.576   2.149
  782SOL    HW2 2355   1.142   3.594   2.014
  783SOL     OW 2356   0.202   2.147   3.360
  783SOL    HW1 2357   0.122   2.207   3.347
  783SOL    HW2 2358   0.192   2.098   3.446
  784SOL     OW 2359   1.632   3.239   1.943
  784SOL    HW1 2360   1.600   3.333   1.933
  784SOL    HW2 2361   1.556   3.176   1.931
  785SOL     OW 2362   0.464   3.605   2.185
  785SOL    HW1 2363   0.497   3.644   2.271
  785SOL    HW2 2364   0.540   3.598   2.120
  786SOL     OW 2365   1.400   1.969   2.288
  786SOL    HW1 2366   1.376   1.932   2.198
  786SOL    HW2 2367   1.499   1.985   2.292
  787SOL     OW 2368   0.249   3.647   3.103
  787SOL    HW1 2369   0.306   3.582   3.153
  787SOL    HW2 2370   0.233   3.614   3.010
  788SOL     OW 2371   0.940   3.560   2.766
  788SOL    HW1 2372   1.020   3.503   2.787
  788SOL    HW2 2373   0.891   3.520   2.689
  789SOL     OW 2374   0.382   2.562   2.342
  789SOL    HW1 2375   0.427   2.472   2.339
  789SOL    HW2 2376   0.288   2.551   2.375
  790SOL     OW 2377   1.547   2.084   3.591
  790SOL    HW1 2378   1.542   2.121   3.683
  790SOL    HW2 2379   1.475   2.015   3.579
  791SOL     OW 2380   0.614   1.984   1.979
  791SOL    HW1 2381   0.712   1.962   1.986
  791SOL    HW2 2382   0.583   1.967   1.886
  792SOL     OW 2383   0.781   2.126   3.611
  792SOL    HW1 2384   0.848   2.065   3.654
  792SOL    HW2 2385   0.708   2.145   3.676
  793SOL     OW 2386   0.888   3.376   3.057
  793SOL    HW1 2387   0.865   3.351   2.963
  793SOL    HW2 2388   0.949   3.307   3.096
  794SOL     OW 2389   1.351   2.452   3.295
  794SOL    HW1 2390   1.379   2.409   3.380
  794SOL    HW2 2391   1.376   2.548   3.296
  795SOL     OW 2392   0.803   3.264   2.786
  795SOL    HW1 2393   0.893   3.278   2.744
  795SOL    HW2 2394   0.732   3.266   2.715
  796SOL     OW 2395   0.922   2.365   2.761
  796SOL    HW1 2396   0.897   2.356   2.665
  796SOL    HW2 2397   0.970   2.283   2.792
  797SOL     OW 2398   0.539   1.926   2.374
  797SOL    HW1 2399   0.458   1.927   2.432
  797SOL    HW2 2400   0.542   2.009   2.319
  798SOL     OW 2401   1.434   3.050   1.903
  798SOL    HW1 2402   1.466   2.974   1.960
  798SOL    HW2 2403   1.342   3.077   1.933
  799SOL     OW 2404   0.297   1.897   2.033
  799SOL    HW1 2405   0.346   1.981   2.012
  799SOL    HW2 2406   0.359   1.832   2.078
  800SOL     OW 2407   0.935   2.098   2.342
  800SOL    HW1 2408   0.887   2.139   2.264
  800SOL    HW2 2409   1.034   2.096   2.323
  801SOL     OW 2410   1.076   2.545   3.326
  801SOL    HW1 2411   0.996   2.484   3.329
  801SOL    HW2 2412   1.157   2.492   3.302
  802SOL     OW 2413   1.227   3.432   2.655
  802SOL    HW1 2414   1.248   3.506   2.590
  802SOL    HW2 2415   1.295   3.432   2.728
  803SOL     OW 2416   0.459   3.014   2.603
  803SOL    HW1 2417   0.388   2.987   2.668
  803SOL    HW2 2418   0.433   2.986   2.510
  804SOL     OW 2419   1.271   3.659   2.453
  804SOL    HW1 2420   1.315   3.723   2.389
  804SOL    HW2 2421   1.221   3.711   2.523
  805SOL     OW 2422   1.032   2.411   1.878
  805SOL    HW1 2423   0.991   2.493   1.839
  805SOL    HW2 2424   1.096   2.437   1.951
  806SOL     OW 2425   0.078   2.418   3.248
  806SOL    HW1 2426   0.170   2.417   3.207
  806SOL    HW2 2427   0.072   2.492   3.315
  807SOL     OW 2428   0.561   2.084   3.009
  807SOL    HW1 2429   0.599   2.000   3.046
  807SOL    HW2 2430   0.473   2.103   3.053
  808SOL     OW 2431   0.866   2.316   2.504
  808SOL    HW1 2432   0.834   2.388   2.442
  808SOL    HW2 2433   0.890   2.235   2.451
  809SOL     OW 2434   1.017   1.901   2.615
  809SOL    HW1 2435   0.945   1.906   2.546
  809SOL    HW2 2436   0.993   1.832   2.684
  810SOL     OW 2437   1.429   3.035   2.729
  810SOL    HW1 2438   1.374   2.951   2.722
  810SOL    HW2 2439   1.455   3.064   2.637
  811SOL     OW 2440   1.466   2.452   2.854
  811SOL    HW1 2441   1.436   2.357   2.861
  811SOL    HW2 2442   1.539   2.468   2.920
  812SOL     OW 2443   1.857   2.695   2.239
  812SOL    HW1 2444   1.899   2.631   2.303
  812SOL    HW2 2445   1.819   2.644   2.161
  813SOL     OW 2446   0.488   3.247   2.036
  813SOL    HW1 2447   0.401   3.232   2.083
  813SOL    HW2 2448   0.471   3.273   1.941
  814SOL     OW 2449   1.664   3.142   2.519
  814SOL    HW1 2450   1.763   3.150   2.533
  814SOL    HW2 2451   1.619   3.226   2.550
  815SOL     OW 2452   1.390   2.437   1.940
  815SOL    HW1 2453   1.336   2.416   2.021
  815SOL    HW2 2454   1.481   2.396   1.949
  816SOL     OW 2455   0.527   2.118   2.190
  816SOL    HW1 2456   0.554   2.059   2.115
  816SOL    HW2 2457   0.527   2.213   2.159
  817SOL     OW 2458   1.754   3.085   3.450
  817SOL    HW1 2459   1.845   3.046   3.437
  817SOL    HW2 2460   1.762   3.181   3.474
  818SOL     OW 2461   1.064   3.209   3.202
  818SOL    HW1 2462   0.984   3.186   3.257
  818SOL    HW2 2463   1.147   3.183   3.251
  819SOL     OW 2464   1.592   3.491   3.487
  819SOL    HW1 2465   1.619   3.525   3.397
  819SOL    HW2 2466   1.671   3.453   3.533
  820SOL     OW 2467   1.111   3.057   2.962
  820SOL    HW1 2468   1.071   3.101   3.043
  820SOL    HW2 2469   1.070   3.094   2.879
  821SOL     OW 2470   1.638   2.961   2.941
  821SOL    HW1 2471   1.643   3.042   3.000
  821SOL    HW2 2472   1.552   2.963   2.890
  822SOL     OW 2473   0.915   1.951   3.264
  822SOL    HW1 2474   0.940   1.931   3.169
  822SOL    HW2 2475   0.987   2.007   3.306
  823SOL     OW 2476   0.980   2.978   3.581
  823SOL    HW1 2477   0.881   2.984   3.591
  823SOL    HW2 2478   1.003   2.898   3.525
  824SOL     OW 2479   0.705   2.912   2.230
  824SOL    HW1 2480   0.691   2.919   2.329
  824SOL    HW2 2481   0.789   2.861   2.212
  825SOL     OW 2482   0.410   2.675   3.113
  825SOL    HW1 2483   0.496   2.687   3.163
  825SOL    HW2 2484   0.368   2.588   3.140
  826SOL     OW 2485   1.274   2.248   3.124
  826SOL    HW1 2486   1.295   2.322   3.188
  826SOL    HW2 2487   1.185   2.265   3.081
  827SOL     OW 2488   0.064   3.426   3.193
  827SOL    HW1 2489   0.018   3.508   3.159
  827SOL    HW2 2490   0.162   3.445   3.202
  828SOL     OW 2491   0.367   2.962   2.363
  828SOL    HW1 2492   0.360   3.045   2.307
  828SOL    HW2 2493   0.371   2.882   2.303
  829SOL     OW 2494   0.566   2.399   2.727
  829SOL    HW1 2495   0.578   2.465   2.653
  829SOL    HW2 2496   0.612   2.433   2.810
  830SOL     OW 2497   1.252   3.210   2.250
  830SOL    HW1 2498   1.302   3.287   2.290
  830SOL    HW2 2499   1.157   3.212   2.282
  831SOL     OW 2500   1.272   3.307   3.004
  831SOL    HW1 2501   1.319   3.320   3.091
  831SOL    HW2 2502   1.206   3.233   3.013
  832SOL     OW 2503   1.582   2.501   2.334
  832SOL    HW1 2504   1.551   2.562   2.407
  832SOL    HW2 2505   1.632   2.553   2.265
  833SOL     OW 2506   0.354   3.372   3.191
  833SOL    HW1 2507   0.333   3.328   3.104
  833SOL    HW2 2508   0.451   3.398   3.194
  834SOL     OW 2509   0.402   2.613   3.460
  834SOL    HW1 2510   0.470   2.668   3.413
  834SOL    HW2 2511   0.442   2.525   3.487
  835SOL     OW 2512   1.587   2.641   3.532
  835SOL    HW1 2513   1.495   2.679   3.527
  835SOL    HW2 2514   1.647   2.688   3.467
  836SOL     OW 2515   1.013   1.967   3.632
  836SOL    HW1 2516   1.019   2.052   3.580
  836SOL    HW2 2517   1.045   1.891   3.575
  837SOL     OW 2518   0.504   1.912   3.602
  837SOL    HW1 2519   0.462   1.855   3.532
  837SOL    HW2 2520   0.438   1.981   3.634
  838SOL     OW 2521   0.573   2.732   2.891
  838SOL    HW1 2522   0.617   2.821   2.882
  838SOL    HW2 2523   0.510   2.732   2.968
  839SOL     OW 2524   1.360   2.724   2.907
  839SOL    HW1 2525   1.285   2.724   2.841
  839SOL    HW2 2526   1.397   2.632   2.916
  840SOL     OW 2527   1.209   2.387   2.137
  840SOL    HW1 2528   1.222   2.303   2.191
  840SOL    HW2 2529   1.180   2.461   2.197
  841SOL     OW 2530   0.307   2.075   3.093
  841SOL    HW1 2531   0.284   2.112   3.183
  841SOL    HW2 2532   0.277   1.980   3.087
  842SOL     OW 2533   0.037   3.172   3.144
  842SOL    HW1 2534   0.090   3.123   3.212
  842SOL    HW2 2535   0.059   3.270   3.149
  843SOL     OW 2536   0.732   2.496   2.926
  843SOL    HW1 2537   0.791   2.470   2.850
  843SOL    HW2 2538   0.704   2.592   2.915
  844SOL     OW 2539   1.728   2.797   3.716
  844SOL    HW1 2540   1.682   2.790   3.627
  844SOL    HW2 2541   1.666   2.841   3.782
  845SOL     OW 2542   0.307   1.925   2.480
  845SOL    HW1 2543   0.296   2.019   2.513
  845SOL    HW2 2544   0.302   1.862   2.557
  846SOL     OW 2545   1.622   2.229   2.236
  846SOL    HW1 2546   1.624   2.153   2.300
  846SOL    HW2 2547   1.574   2.306   2.276
  847SOL     OW 2548   1.023   2.628   2.828
  847SOL    HW1 2549   1.038   2.649   2.924
  847SOL    HW2 2550   0.993   2.533   2.819
  848SOL     OW 2551   0.980   3.435   3.562
  848SOL    HW1 2552   0.960   3.479   3.474
  848SOL    HW2 2553   1.019   3.344   3.546
  849SOL     OW 2554   1.859   3.380   3.467
  849SOL    HW1 2555   1.873   3.407   3.372
  849SOL    HW2 2556   1.942   3.402   3.520
  850SOL     OW 2557   0.350   2.760   3.666
  850SOL    HW1 2558   0.426   2.804   3.714
  850SOL    HW2 2559   0.385   2.713   3.584
  851SOL     OW 2560   1.540   2.136   1.987
  851SOL    HW1 2561   1.479   2.061   2.010
  851SOL    HW2 2562   1.562   2.188   2.070
  852SOL     OW 2563   1.303   2.700   1.904
  852SOL    HW1 2564   1.337   2.607   1.919
  852SOL    HW2 2565   1.321   2.727   1.809
  853SOL     OW 2566   1.068   3.195   2.711
  853SOL    HW1 2567   1.075   3.111   2.656
  853SOL    HW2 2568   1.130   3.264   2.675
  854SOL     OW 2569   0.319   2.672   2.811
  854SOL    HW1 2570   0.412   2.708   2.816
  854SOL    HW2 2571   0.313   2.587   2.863
  855SOL     OW 2572   0.339   2.371   2.868
  855SOL    HW1 2573   0.287   2.288   2.851
  855SOL    HW2 2574   0.416   2.376   2.804
  856SOL     OW 2575   1.138   2.242   3.540
  856SOL    HW1 2576   1.093   2.305   3.604
  856SOL    HW2 2577   1.231   2.273   3.523
  857SOL     OW 2578   1.160   2.069   3.339
  857SOL    HW1 2579   1.160   2.133   3.416
  857SOL    HW2 2580   1.188   2.117   3.256
  858SOL     OW 2581   0.008   3.188   2.062
  858SOL    HW1 2582  -0.085   3.209   2.031
  858SOL    HW2 2583   0.018   3.089   2.075
  859SOL     OW 2584   0.088   3.663   2.789
  859SOL    HW1 2585   0.046   3.577   2.762
  859SOL    HW2 2586   0.182   3.666   2.755
  860SOL     OW 2587   0.504   3.430   2.772
  860SOL    HW1 2588   0.570   3.504   2.781
  860SOL    HW2 2589   0.548   3.351   2.730
  861SOL     OW 2590   1.002   2.658   3.100
  861SOL    HW1 2591   1.043   2.626   3.186
  861SOL    HW2 2592   0.906   2.631   3.097
  862SOL     OW 2593   0.040   2.406   2.976
  862SOL    HW1 2594   0.125   2.373   2.935
  862SOL    HW2 2595   0.053   2.421   3.074
  863SOL     OW 2596   0.189   2.382   3.584
  863SOL    HW1 2597   0.248   2.342   3.514
  863SOL    HW2 2598   0.131   2.453   3.543
  864SOL     OW 2599   1.369   2.812   3.522
  864SOL    HW1 2600   1.408   2.901   3.542
  864SOL    HW2 2601   1.379   2.792   3.425
  865SOL     OW 2602   0.815   2.434   2.187
  865SOL    HW1 2603   0.822   2.345   2.141
  865SOL    HW2 2604   0.721   2.468   2.179
  866SOL     OW 2605   1.657   2.466   3.068
  866SOL    HW1 2606   1.619   2.397   3.130
  866SOL    HW2 2607   1.739   2.430   3.024
  867SOL     OW 2608   0.252   3.426   3.606
  867SOL    HW1 2609   0.222   3.483   3.682
  867SOL    HW2 2610   0.245   3.329   3.632
  868SOL     OW 2611   0.671   2.326   3.131
  868SOL    HW1 2612   0.637   2.237   3.101
  868SOL    HW2 2613   0.697   2.380   3.051
  869SOL     OW 2614   0.930   3.540   3.327
  869SOL    HW1 2615   0.906   3.522   3.232
  869SOL    HW2 2616   0.960   3.634   3.337
  870SOL     OW 2617   0.473   2.362   2.053
  870SOL    HW1 2618   0.534   2.442   2.057
  870SOL    HW2 2619   0.378   2.393   2.060
  871SOL     OW 2620   0.159   2.999   3.328
  871SOL    HW1 2621   0.181   2.938   3.404
  871SOL    HW2 2622   0.169   2.950   3.242
  872SOL     OW 2623   1.347   2.921   3.096
  872SOL    HW1 2624   1.371   2.858   3.022
  872SOL    HW2 2625   1.257   2.961   3.078
  873SOL     OW 2626   1.302   2.717   2.171
  873SOL    HW1 2627   1.216   2.686   2.213
  873SOL    HW2 2628   1.298   2.703   2.072
  874SOL     OW 2629   1.759   3.609   3.016
  874SOL    HW1 2630   1.820   3.639   2.943
  874SOL    HW2 2631   1.721   3.520   2.994
  875SOL     OW 2632   1.252   3.593   2.990
  875SOL    HW1 2633   1.336   3.598   2.936
  875SOL    HW2 2634   1.229   3.497   3.008
  876SOL     OW 2635   0.083   3.120   2.884
  876SOL    HW1 2636   0.078   3.119   2.984
  876SOL    HW2 2637   0.000   3.079   2.846
  877SOL     OW 2638   0.688   3.524   3.578
  877SOL    HW1 2639   0.632   3.605   3.587
  877SOL    HW2 2640   0.740   3.528   3.492
  878SOL     OW 2641   1.726   1.997   2.385
  878SOL    HW1 2642   1.799   1.980   2.318
  878SOL    HW2 2643   1.695   1.910   2.423
  879SOL     OW 2644   1.388   3.435   2.339
  879SOL    HW1 2645   1.455   3.447   2.265
  879SOL    HW2 2646   1.348   3.524   2.362
  880SOL     OW 2647   0.130   3.656   3.713
  880SOL    HW1 2648   0.089   3.582   3.766
  880SOL    HW2 2649   0.194   3.707   3.771
  881SOL     OW 2650   1.280   2.789   2.534
  881SOL    HW1 2651   1.340   2.708   2.536
  881SOL    HW2 2652   1.320   2.858   2.474
  882SOL     OW 2653   0.830   3.135   3.284
  882SOL    HW1 2654   0.825   3.168   3.379
  882SOL    HW2 2655   0.744   3.154   3.238
  883SOL     OW 2656   0.672   3.478   2.016
  883SOL    HW1 2657   0.681   3.488   1.917
  883SOL    HW2 2658   0.632   3.389   2.037
  884SOL     OW 2659   1.650   3.582   3.256
  884SOL    HW1 2660   1.703   3.592   3.172
  884SOL    HW2 2661   1.623   3.672   3.290
  885SOL     OW 2662   1.841   2.037   2.825
  885SOL    HW1 2663   1.880   1.952   2.789
  885SOL    HW2 2664   1.743   2.039   2.806
  886SOL     OW 2665   0.263   2.188   2.582
  886SOL    HW1 2666   0.184   2.239   2.548
  886SOL    HW2 2667   0.254   2.173   2.680
  887SOL     OW 2668   1.194   3.474   1.893
  887SOL    HW1 2669   1.200   3.381   1.930
  887SOL    HW2 2670   1.135   3.474   1.813
  888SOL     OW 2671   0.822   2.864   3.234
  888SOL    HW1 2672   0.862   2.863   3.142
  888SOL    HW2 2673   0.832   2.956   3.274
  889SOL     OW 2674   0.916   2.772   2.153
  889SOL    HW1 2675   0.979   2.810   2.085
  889SOL    HW2 2676   0.956   2.689   2.192
  890SOL     OW 2677   1.504   3.469   1.906
  890SOL    HW1 2678   1.412   3.506   1.913
  890SOL    HW2 2679   1.542   3.489   1.816
  891SOL     OW 2680   0.372   3.150   3.352
  891SOL    HW1 2681   0.359   3.243   3.318
  891SOL    HW2 2682   0.288   3.098   3.339
  892SOL     OW 2683   1.614   3.154   3.151
  892SOL    HW1 2684   1.674   3.157   3.231
  892SOL    HW2 2685   1.539   3.218   3.164
  893SOL     OW 2686   1.039   2.960   2.558
  893SOL    HW1 2687   0.969   2.913   2.612
  893SOL    HW2 2688   1.098   2.892   2.515
  894SOL     OW 2689   1.014   2.098   2.833
  894SOL    HW1 2690   1.006   2.062   2.740
  894SOL    HW2 2691   1.012   2.022   2.898
  895SOL     OW 2692   0.590   3.349   2.353
  895SOL    HW1 2693   0.632   3.291   2.283
  895SOL    HW2 2694   0.546   3.428   2.309
  896SOL     OW 2695   1.709   2.247   3.243
  896SOL    HW1 2696   1.782   2.316   3.247
  896SOL    HW2 2697   1.737   2.172   3.184
  897SOL     OW 2698   0.255   3.210   2.152
  897SOL    HW1 2699   0.159   3.211   2.125
  897SOL    HW2 2700   0.267   3.263   2.236
  898SOL     OW 2701   0.105   2.875   3.588
  898SOL    HW1 2702   0.028   2.842   3.642
  898SOL    HW2 2703   0.190   2.845   3.630
  899SOL     OW 2704   0.672   2.065   3.351
  899SOL    HW1 2705   0.762   2.049   3.311
  899SOL    HW2 2706   0.680   2.070   3.450
  900SOL     OW 2707   0.075   2.207   1.895
  900SOL    HW1 2708  -0.017   2.179   1.866
  900SOL    HW2 2709   0.106   2.284   1.839
  901SOL     OW 2710   1.440   2.718   3.260
  901SOL    HW1 2711   1.383   2.770   3.197
  901SOL    HW2 2712   1.536   2.730   3.236
  902SOL     OW 2713   0.072   2.028   2.180
  902SOL    HW1 2714   0.055   2.111   2.126
  902SOL    HW2 2715   0.162   1.991   2.158
  903SOL     OW 2716   1.183   3.197   1.981
  903SOL    HW1 2717   1.084   3.186   1.983
  903SOL    HW2 2718   1.217   3.212   2.074
  904SOL     OW 2719   0.613   2.704   3.293
  904SOL    HW1 2720   0.669   2.785   3.276
  904SOL    HW2 2721   0.672   2.624   3.296
  905SOL     OW 2722   1.493   3.629   2.821
  905SOL    HW1 2723   1.526   3.693   2.752
  905SOL    HW2 2724   1.559   3.623   2.896
  906SOL     OW 2725   0.716   2.427   3.570
  906SOL    HW1 2726   0.735   2.492   3.644
  906SOL    HW2 2727   0.776   2.347   3.579
  907SOL     OW 2728   1.450   3.082   3.495
  907SOL    HW1 2729   1.441   3.072   3.594
  907SOL    HW2 2730   1.546   3.075   3.469
  908SOL     OW 2731   0.390   3.603   3.422
  908SOL    HW1 2732   0.299   3.644   3.420
  908SOL    HW2 2733   0.383   3.509   3.454
  909SOL     OW 2734   1.674   2.745   3.116
  909SOL    HW1 2735   1.647   2.656   3.079
  909SOL    HW2 2736   1.675   2.813   3.043
  910SOL     OW 2737   1.225   2.187   2.311
  910SOL    HW1 2738   1.290   2.113   2.300
  910SOL    HW2 2739   1.245   2.237   2.395
  911SOL     OW 2740   0.594   2.607   2.514
  911SOL    HW1 2741   0.644   2.692   2.495
  911SOL    HW2 2742   0.506   2.609   2.466
  912SOL     OW 2743   1.777   2.204   3.504
  912SOL    HW1 2744   1.760   2.235   3.410
  912SOL    HW2 2745   1.693   2.167   3.542
  913SOL     OW 2746   1.730   2.796   3.379
  913SOL    HW1 2747   1.768   2.887   3.394
  913SOL    HW2 2748   1.722   2.779   3.280
  914SOL     OW 2749   0.859   3.236   1.878
  914SOL    HW1 2750   0.813   3.251   1.966
  914SOL    HW2 2751   0.903   3.321   1.848
  915SOL     OW 2752   0.661   3.652   2.815
  915SOL    HW1 2753   0.615   3.740   2.802
  915SOL    HW2 2754   0.760   3.664   2.808
  916SOL     OW 2755   0.859   2.818   2.723
  916SOL    HW1 2756   0.913   2.749   2.771
  916SOL    HW2 2757   0.827   2.887   2.789
  917SOL     OW 2758   1.083   2.846   1.949
  917SOL    HW1 2759   1.060   2.899   1.867
  917SOL    HW2 2760   1.164   2.790   1.930
  918SOL     OW 2761   1.861   3.431   2.713
  918SOL    HW1 2762   1.790   3.419   2.643
  918SOL    HW2 2763   1.862   3.352   2.773
  919SOL     OW 2764   0.221   3.176   3.706
  919SOL    HW1 2765   0.156   3.103   3.685
  919SOL    HW2 2766   0.225   3.190   3.804
  920SOL     OW 2767   0.079   3.102   2.515
  920SOL    HW1 2768   0.078   3.055   2.603
  920SOL    HW2 2769   0.161   3.074   2.464
  921SOL     OW 2770   0.672   3.253   3.486
  921SOL    HW1 2771   0.594   3.203   3.524
  921SOL    HW2 2772   0.669   3.348   3.517
  922SOL     OW 2773   1.824   2.054   3.089
  922SOL    HW1 2774   1.820   1.964   3.133
  922SOL    HW2 2775   1.827   2.043   2.990
  923SOL     OW 2776   0.428   2.286   2.382
  923SOL    HW1 2777   0.458   2.214   2.320
  923SOL    HW2 2778   0.389   2.246   2.465
  924SOL     OW 2779   1.705   3.349   2.966
  924SOL    HW1 2780   1.612   3.324   2.939
  924SOL    HW2 2781   1.731   3.299   3.048
  925SOL     OW 2782   0.317   2.409   3.142
  925SOL    HW1 2783   0.355   2.350   3.214
  925SOL    HW2 2784   0.357   2.383   3.054
  926SOL     OW 2785   0.812   3.448   2.549
  926SOL    HW1 2786   0.844   3.458   2.455
  926SOL    HW2 2787   0.733   3.386   2.551
  927SOL     OW 2788   1.424   2.076   2.974
  927SOL    HW1 2789   1.476   2.011   3.029
  927SOL    HW2 2790   1.375   2.139   3.035
  928SOL     OW 2791   1.001   1.896   3.016
  928SOL    HW1 2792   0.938   1.824   2.985
  928SOL    HW2 2793   1.094   1.860   3.016
  929SOL     OW 2794   0.770   3.192   2.163
  929SOL    HW1 2795   0.724   3.105   2.180
  929SOL    HW2 2796   0.861   3.189   2.204
  930SOL     OW 2797   0.618   3.429   3.146
  930SOL    HW1 2798   0.613   3.511   3.203
  930SOL    HW2 2799   0.707   3.426   3.101
  931SOL     OW 2800   1.352   1.914   2.030
  931SOL    HW1 2801   1.387   1.873   1.946
  931SOL    HW2 2802   1.262   1.876   2.050
  932SOL     OW 2803   1.300   2.315   2.553
  932SOL    HW1 2804   1.241   2.395   2.557
  932SOL    HW2 2805   1.315   2.280   2.646
  933SOL     OW 2806   1.593   2.083   2.744
  933SOL    HW1 2807   1.509   2.082   2.798
  933SOL    HW2 2808   1.595   2.166   2.688
  934SOL     OW 2809   0.039   2.939   2.162
  934SOL    HW1 2810   0.138   2.928   2.153
  934SOL    HW2 2811  -0.001   2.853   2.194
  935SOL     OW 2812   0.875   3.508   2.199
  935SOL    HW1 2813   0.798   3.473   2.145
  935SOL    HW2 2814   0.843   3.579   2.261
  936SOL     OW 2815   0.230   2.490   3.837
  936SOL    HW1 2816   0.137   2.488   3.874
  936SOL    HW2 2817   0.231   2.451   3.745
  937SOL     OW 2818   1.135   2.565   4.441
  937SOL    HW1 2819   1.192   2.643   4.416
  937SOL    HW2 2820   1.075   2.591   4.517
  938SOL     OW 2821   1.755   2.469   3.955
  938SOL    HW1 2822   1.743   2.456   3.856
  938SOL    HW2 2823   1.725   2.388   4.004
  939SOL     OW 2824   1.603   2.309   4.461
  939SOL    HW1 2825   1.529   2.355   4.411
  939SOL    HW2 2826   1.654   2.377   4.514
  940SOL     OW 2827   0.231   3.575   4.207
  940SOL    HW1 2828   0.265   3.652   4.261
  940SOL    HW2 2829   0.275   3.575   4.117
  941SOL     OW 2830   0.230   3.296   4.262
  941SOL    HW1 2831   0.204   3.392   4.262
  941SOL    HW2 2832   0.159   3.242   4.307
  942SOL     OW 2833   0.606   2.826   3.847
  942SOL    HW1 2834   0.613   2.910   3.793
  942SOL    HW2 2835   0.652   2.839   3.935
  943SOL     OW 2836   0.122   2.505   4.287
  943SOL    HW1 2837   0.077   2.417   4.304
  943SOL    HW2 2838   0.121   2.559   4.371
  944SOL     OW 2839   1.842   3.629   4.083
  944SOL    HW1 2840   1.896   3.600   4.163
  944SOL    HW2 2841   1.872   3.719   4.054
  945SOL     OW 2842   0.027   3.458   3.841
  945SOL    HW1 2843   0.008   3.362   3.862
  945SOL    HW2 2844  -0.006   3.516   3.916
  946SOL     OW 2845   1.689   2.784   4.336
  946SOL    HW1 2846   1.784   2.755   4.344
  946SOL    HW2 2847   1.681   2.849   4.261
  947SOL     OW 2848   1.641   2.970   4.156
  947SOL    HW1 2849   1.727   2.972   4.104
  947SOL    HW2 2850   1.655   3.017   4.244
  948SOL     OW 2851   0.613   3.227   4.450
  948SOL    HW1 2852   0.564   3.140   4.459
  948SOL    HW2 2853   0.590   3.270   4.363
  949SOL     OW 2854   0.809   1.866   4.226
  949SOL    HW1 2855   0.849   1.957   4.217
  949SOL    HW2 2856   0.709   1.874   4.232
  950SOL     OW 2857   1.525   2.861   3.914
  950SOL    HW1 2858   1.462   2.785   3.927
  950SOL    HW2 2859   1.573   2.879   4.000
  951SOL     OW 2860   1.667   3.576   4.296
  951SOL    HW1 2861   1.626   3.553   4.208
  951SOL    HW2 2862   1.649   3.502   4.361
  952SOL     OW 2863   0.598   2.591   3.994
  952SOL    HW1 2864   0.622   2.660   3.926
  952SOL    HW2 2865   0.520   2.624   4.048
  953SOL     OW 2866   1.281   2.207   4.668
  953SOL    HW1 2867   1.195   2.157   4.655
  953SOL    HW2 2868   1.343   2.153   4.724
  954SOL     OW 2869   1.576   3.524   4.031
  954SOL    HW1 2870   1.665   3.570   4.034
  954SOL    HW2 2871   1.555   3.500   3.936
  955SOL     OW 2872   1.041   2.563   4.153
  955SOL    HW1 2873   1.067   2.559   4.249
  955SOL    HW2 2874   0.956   2.512   4.139
  956SOL     OW 2875   0.076   2.673   4.513
  956SOL    HW1 2876   0.175   2.661   4.522
  956SOL    HW2 2877   0.052   2.768   4.534
  957SOL     OW 2878   0.865   2.210   3.919
  957SOL    HW1 2879   0.924   2.273   3.870
  957SOL    HW2 2880   0.884   2.116   3.890
  958SOL     OW 2881   1.362   3.006   4.269
  958SOL    HW1 2882   1.445   2.977   4.221
  958SOL    HW2 2883   1.313   3.073   4.213
  959SOL     OW 2884   1.008   3.318   4.201
  959SOL    HW1 2885   0.962   3.390   4.149
  959SOL    HW2 2886   1.004   3.338   4.299
  960SOL     OW 2887   0.351   3.663   4.577
  960SOL    HW1 2888   0.401   3.577   4.583
  960SOL    HW2 2889   0.416   3.740   4.574
  961SOL     OW 2890   1.795   2.928   4.597
  961SOL    HW1 2891   1.733   2.913   4.521
  961SOL    HW2 2892   1.743   2.939   4.682
  962SOL     OW 2893   0.321   2.805   3.966
  962SOL    HW1 2894   0.403   2.844   3.924
  962SOL    HW2 2895   0.294   2.723   3.917
  963SOL     OW 2896   1.111   3.638   3.961
  963SOL    HW1 2897   1.051   3.576   4.011
  963SOL    HW2 2898   1.142   3.594   3.876
  964SOL     OW 2899   1.632   3.239   3.805
  964SOL    HW1 2900   1.600   3.333   3.795
  964SOL    HW2 2901   1.556   3.176   3.793
  965SOL     OW 2902   0.464   3.605   4.047
  965SOL    HW1 2903   0.497   3.644   4.133
  965SOL    HW2 2904   0.540   3.598   3.982
  966SOL     OW 2905   1.400   1.969   4.150
  966SOL    HW1 2906   1.376   1.932   4.060
  966SOL    HW2 2907   1.499   1.985   4.154
  967SOL     OW 2908   0.940   3.560   4.628
  967SOL    HW1 2909   1.020   3.503   4.649
  967SOL    HW2 2910   0.891   3.520   4.551
  968SOL     OW 2911   0.382   2.562   4.204
  968SOL    HW1 2912   0.427   2.472   4.201
  968SOL    HW2 2913   0.288   2.551   4.237
  969SOL     OW 2914   0.614   1.984   3.841
  969SOL    HW1 2915   0.712   1.962   3.848
  969SOL    HW2 2916   0.583   1.967   3.748
  970SOL     OW 2917   0.539   1.926   4.236
  970SOL    HW1 2918   0.458   1.927   4.294
  970SOL    HW2 2919   0.542   2.009   4.181
  971SOL     OW 2920   1.434   3.050   3.765
  971SOL    HW1 2921   1.466   2.974   3.822
  971SOL    HW2 2922   1.342   3.077   3.795
  972SOL     OW 2923   0.297   1.897   3.895
  972SOL    HW1 2924   0.346   1.981   3.874
  972SOL    HW2 2925   0.359   1.832   3.940
  973SOL     OW 2926   0.935   2.098   4.204
  973SOL    HW1 2927   0.887   2.139   4.126
  973SOL    HW2 2928   1.034   2.096   4.185
  974SOL     OW 2929   0.459   3.014   4.465
  974SOL    HW1 2930   0.388   2.987   4.530
  974SOL    HW2 2931   0.433   2.986   4.372
  975SOL     OW 2932   1.271   3.659   4.315
  975SOL    HW1 2933   1.315   3.723   4.251
  975SOL    HW2 2934   1.221   3.711   4.385
  976SOL     OW 2935   1.032   2.411   3.740
  976SOL    HW1 2936   0.991   2.493   3.701
  976SOL    HW2 2937   1.096   2.437   3.813
  977SOL     OW 2938   0.866   2.316   4.366
  977SOL    HW1 2939   0.834   2.388   4.304
  977SOL    HW2 2940   0.890   2.235   4.313
  978SOL     OW 2941   1.857   2.695   4.101
  978SOL    HW1 2942   1.899   2.631   4.165
  978SOL    HW2 2943   1.819   2.644   4.023
  979SOL     OW 2944   0.488   3.247   3.898
  979SOL    HW1 2945   0.401   3.232   3.945
  979SOL    HW2 2946   0.471   3.273   3.803
  980SOL     OW 2947   1.664   3.142   4.381
  980SOL    HW1 2948   1.763   3.150   4.395
  980SOL    HW2 2949   1.619   3.226   4.412
  981SOL     OW 2950   1.390   2.437   3.802
  981SOL    HW1 2951   1.336   2.416   3.883
  981SOL    HW2 2952   1.481   2.396   3.811
  982SOL     OW 2953   0.527   2.118   4.052
  982SOL    HW1 2954   0.554   2.059   3.977
  982SOL    HW2 2955   0.527   2.213   4.021
  983SOL     OW 2956   1.111   3.057   4.824
  983SOL    HW1 2957   1.071   3.101   4.905
  983SOL    HW2 2958   1.070   3.094   4.741
  984SOL     OW 2959   0.705   2.912   4.092
  984SOL    HW1 2960   0.691   2.919   4.191
  984SOL    HW2 2961   0.789   2.861   4.074
  985SOL     OW 2962   0.367   2.962   4.225
  985SOL    HW1 2963   0.360   3.045   4.169
  985SOL    HW2 2964   0.371   2.882   4.165
  986SOL     OW 2965   1.252   3.210   4.112
  986SOL    HW1 2966   1.302   3.287   4.152
  986SOL    HW2 2967   1.157   3.212   4.144
  987SOL     OW 2968   1.582   2.501   4.196
  987SOL    HW1 2969   1.551   2.562   4.269
  987SOL    HW2 2970   1.632   2.553   4.127
  988SOL     OW 2971   1.209   2.387   3.999
  988SOL    HW1 2972   1.222   2.303   4.053
  988SOL    HW2 2973   1.180   2.461   4.059
  989SOL     OW 2974   0.307   1.925   4.342
  989SOL    HW1 2975   0.296   2.019   4.375
  989SOL    HW2 2976   0.302   1.862   4.419
  990SOL     OW 2977   1.622   2.229   4.098
  990SOL    HW1 2978   1.624   2.153   4.162
  990SOL    HW2 2979   1.574   2.306   4.138
  991SOL     OW 2980   1.540   2.136   3.849
  991SOL    HW1 2981   1.479   2.061   3.872
  991SOL    HW2 2982   1.562   2.188   3.932
  992SOL     OW 2983   1.303   2.700   3.766
  992SOL    HW1 2984   1.337   2.607   3.781
  992SOL    HW2 2985   1.321   2.727   3.671
  993SOL     OW 2986   0.008   3.188   3.924
  993SOL    HW1 2987  -0.085   3.209   3.893
  993SOL    HW2 2988   0.018   3.089   3.937
  994SOL     OW 2989   0.815   2.434   4.049
  994SOL    HW1 2990   0.822   2.345   4.003
  994SOL    HW2 2991   0.721   2.468   4.041
  995SOL     OW 2992   0.473   2.362   3.915
  995SOL    HW1 2993   0.534   2.442   3.919
  995SOL    HW2 2994   0.378   2.393   3.922
  996SOL     OW 2995   1.302   2.717   4.033
  996SOL    HW1 2996   1.216   2.686   4.075
  996SOL    HW2 2997   1.298   2.703   3.934
  997SOL     OW 2998   1.726   1.997   4.247
  997SOL    HW1 2999   1.799   1.980   4.180
  997SOL    HW2 3000   1.695   1.910   4.285
  998SOL     OW 3001   1.388   3.435   4.201
  998SOL    HW1 3002   1.455   3.447   4.127
  998SOL    HW2 3003   1.348   3.524   4.224
  999SOL     OW 3004   0.672   3.478   3.878
  999SOL    HW1 3005   0.681   3.488   3.779
  999SOL    HW2 3006   0.632   3.389   3.899
 1000SOL     OW 3007   1.841   2.037   4.687
 1000SOL    HW1 3008   1.880   1.952   4.651
 1000SOL    HW2 3009   1.743   2.039   4.668
 1001SOL     OW 3010   1.194   3.474   3.755
 1001SOL    HW1 3011   1.200   3.381   3.792
 1001SOL    HW2 3012   1.135   3.474   3.675
 1002SOL     OW 3013   0.916   2.772   4.015
 1002SOL    HW1 3014   0.979   2.810   3.947
 1002SOL    HW2 3015   0.956   2.689   4.054
 1003SOL     OW 3016   1.504   3.469   3.768
 1003SOL    HW1 3017   1.412   3.506   3.775
 1003SOL    HW2 3018   1.542   3.489   3.678
 1004SOL     OW 3019   0.590   3.349   4.215
 1004SOL    HW1 3020   0.632   3.291   4.145
 1004SOL    HW2 3021   0.546   3.428   4.171
 1005SOL     OW 3022   0.255   3.210   4.014
 1005SOL    HW1 3023   0.159   3.211   3.987
 1005SOL    HW2 3024   0.267   3.263   4.098
 1006SOL     OW 3025   0.075   2.207   3.757
 1006SOL    HW1 3026  -0.017   2.179   3.728
 1006SOL    HW2 3027   0.106   2.284   3.701
 1007SOL     OW 3028   0.072   2.028   4.042
 1007SOL    HW1 3029   0.055   2.111   3.988
 1007SOL    HW2 3030   0.162   1.991   4.020
 1008SOL     OW 3031   1.183   3.197   3.843
 1008SOL    HW1 3032   1.084   3.186   3.845
 1008SOL    HW2 3033   1.217   3.212   3.936
 1009SOL     OW 3034   1.225   2.187   4.173
 1009SOL    HW1 3035   1.290   2.113   4.162
 1009SOL    HW2 3036   1.245   2.237   4.257
 1010SOL     OW 3037   0.594   2.607   4.376
 1010SOL    HW1 3038   0.644   2.692   4.357
 1010SOL    HW2 3039   0.506   2.609   4.328
 1011SOL     OW 3040   0.859   3.236   3.740
 1011SOL    HW1 3041   0.813   3.251   3.828
 1011SOL    HW2 3042   0.903   3.321   3.710
 1012SOL     OW 3043   1.083   2.846   3.811
 1012SOL    HW1 3044   1.060   2.899   3.729
 1012SOL    HW2 3045   1.164   2.790   3.792
 1013SOL     OW 3046   0.079   3.102   4.377
 1013SOL    HW1 3047   0.078   3.055   4.465
 1013SOL    HW2 3048   0.161   3.074   4.326
 1014SOL     OW 3049   0.428   2.286   4.244
 1014SOL    HW1 3050   0.458   2.214   4.182
 1014SOL    HW2 3051   0.389   2.246   4.327
 1015SOL     OW 3052   0.812   3.448   4.411
 1015SOL    HW1 3053   0.844   3.458   4.317
 1015SOL    HW2 3054   0.733   3.386   4.413
 1016SOL     OW 3055   0.770   3.192   4.025
 1016SOL    HW1 3056   0.724   3.105   4.042
 1016SOL    HW2 3057   0.861   3.189   4.066
 1017SOL     OW 3058   1.352   1.914   3.892
 1017SOL    HW1 3059   1.387   1.873   3.808
 1017SOL    HW2 3060   1.262   1.876   3.912
 1018SOL     OW 3061   1.300   2.315   4.415
 1018SOL    HW1 3062   1.241   2.395   4.419
 1018SOL    HW2 3063   1.315   2.280   4.508
 1019SOL     OW 3064   0.039   2.939   4.024
 1019SOL    HW1 3065   0.138   2.928   4.015
 1019SOL    HW2 3066  -0.001   2.853   4.056
 1020SOL     OW 3067   0.875   3.508   4.061
 1020SOL    HW1 3068   0.798   3.473   4.007
 1020SOL    HW2 3069   0.843   3.579   4.123
 1021SOL     OW 3070   0.230   4.352   0.113
 1021SOL    HW1 3071   0.137   4.350   0.150
 1021SOL    HW2 3072   0.231   4.313   0.021
 1022SOL     OW 3073   0.225   3.999   0.996
 1022SOL    HW1 3074   0.260   3.982   1.088
 1022SOL    HW2 3075   0.137   3.954   0.984
 1023SOL     OW 3076   0.019   4.092   0.647
 1023SOL    HW1 3077  -0.063   4.135   0.686
 1023SOL    HW2 3078  -0.009   4.019   0.584
 1024SOL     OW 3079   1.755   4.331   0.231
 1024SOL    HW1 3080   1.743   4.318   0.132
 1024SOL    HW2 3081   1.725   4.250   0.280
 1025SOL     OW 3082   0.685   4.736   0.665
 1025SOL    HW1 3083   0.754   4.720   0.735
 1025SOL    HW2 3084   0.612   4.793   0.703
 1026SOL     OW 3085   0.438   4.116   1.499
 1026SOL    HW1 3086   0.520   4.060   1.508
 1026SOL    HW2 3087   0.357   4.058   1.503
 1027SOL     OW 3088   1.603   4.171   0.737
 1027SOL    HW1 3089   1.529   4.217   0.687
 1027SOL    HW2 3090   1.654   4.239   0.790
 1028SOL     OW 3091   1.594   3.838   1.480
 1028SOL    HW1 3092   1.576   3.905   1.408
 1028SOL    HW2 3093   1.591   3.884   1.569
 1029SOL     OW 3094   0.122   4.367   0.563
 1029SOL    HW1 3095   0.077   4.279   0.580
 1029SOL    HW2 3096   0.121   4.421   0.647
 1030SOL     OW 3097   0.113   4.461   1.597
 1030SOL    HW1 3098   0.201   4.448   1.642
 1030SOL    HW2 3099   0.100   4.558   1.575
 1031SOL     OW 3100   0.809   3.728   0.502
 1031SOL    HW1 3101   0.849   3.819   0.493
 1031SOL    HW2 3102   0.709   3.736   0.508
 1032SOL     OW 3103   0.317   3.975   1.801
 1032SOL    HW1 3104   0.388   4.046   1.807
 1032SOL    HW2 3105   0.229   4.014   1.829
 1033SOL     OW 3106   1.281   4.069   0.944
 1033SOL    HW1 3107   1.195   4.019   0.931
 1033SOL    HW2 3108   1.343   4.015   1.000
 1034SOL     OW 3109   0.807   4.329   1.465
 1034SOL    HW1 3110   0.760   4.326   1.554
 1034SOL    HW2 3111   0.756   4.274   1.399
 1035SOL     OW 3112   1.394   4.193   1.674
 1035SOL    HW1 3113   1.374   4.236   1.762
 1035SOL    HW2 3114   1.472   4.131   1.683
 1036SOL     OW 3115   0.991   4.134   1.242
 1036SOL    HW1 3116   0.914   4.168   1.296
 1036SOL    HW2 3117   0.957   4.083   1.163
 1037SOL     OW 3118   1.041   4.425   0.429
 1037SOL    HW1 3119   1.067   4.421   0.525
 1037SOL    HW2 3120   0.956   4.374   0.415
 1038SOL     OW 3121   0.076   4.535   0.789
 1038SOL    HW1 3122   0.175   4.523   0.798
 1038SOL    HW2 3123   0.052   4.630   0.810
 1039SOL     OW 3124   0.865   4.072   0.195
 1039SOL    HW1 3125   0.924   4.135   0.146
 1039SOL    HW2 3126   0.884   3.978   0.166
 1040SOL     OW 3127   1.719   4.309   1.831
 1040SOL    HW1 3128   1.693   4.398   1.795
 1040SOL    HW2 3129   1.717   4.241   1.758
 1041SOL     OW 3130   0.550   3.920   0.885
 1041SOL    HW1 3131   0.545   3.915   0.985
 1041SOL    HW2 3132   0.552   4.016   0.856
 1042SOL     OW 3133   1.458   4.459   0.728
 1042SOL    HW1 3134   1.453   4.394   0.803
 1042SOL    HW2 3135   1.538   4.518   0.741
 1043SOL     OW 3136   0.202   4.009   1.498
 1043SOL    HW1 3137   0.122   4.069   1.485
 1043SOL    HW2 3138   0.192   3.960   1.584
 1044SOL     OW 3139   1.400   3.831   0.426
 1044SOL    HW1 3140   1.376   3.794   0.336
 1044SOL    HW2 3141   1.499   3.847   0.430
 1045SOL     OW 3142   0.382   4.424   0.480
 1045SOL    HW1 3143   0.427   4.334   0.477
 1045SOL    HW2 3144   0.288   4.413   0.513
 1046SOL     OW 3145   1.547   3.946   1.729
 1046SOL    HW1 3146   1.542   3.983   1.821
 1046SOL    HW2 3147   1.475   3.877   1.717
 1047SOL     OW 3148   0.614   3.846   0.117
 1047SOL    HW1 3149   0.712   3.824   0.124
 1047SOL    HW2 3150   0.583   3.829   0.024
 1048SOL     OW 3151   0.781   3.988   1.749
 1048SOL    HW1 3152   0.848   3.927   1.792
 1048SOL    HW2 3153   0.708   4.007   1.814
 1049SOL     OW 3154   1.351   4.314   1.433
 1049SOL    HW1 3155   1.379   4.271   1.518
 1049SOL    HW2 3156   1.376   4.410   1.434
 1050SOL     OW 3157   0.922   4.227   0.899
 1050SOL    HW1 3158   0.897   4.218   0.803
 1050SOL    HW2 3159   0.970   4.145   0.930
 1051SOL     OW 3160   0.539   3.788   0.512
 1051SOL    HW1 3161   0.458   3.789   0.570
 1051SOL    HW2 3162   0.542   3.871   0.457
 1052SOL     OW 3163   0.935   3.960   0.480
 1052SOL    HW1 3164   0.887   4.001   0.402
 1052SOL    HW2 3165   1.034   3.958   0.461
 1053SOL     OW 3166   1.076   4.407   1.464
 1053SOL    HW1 3167   0.996   4.346   1.467
 1053SOL    HW2 3168   1.157   4.354   1.440
 1054SOL     OW 3169   1.032   4.273   0.016
 1054SOL    HW1 3170   0.991   4.355  -0.023
 1054SOL    HW2 3171   1.096   4.299   0.089
 1055SOL     OW 3172   0.078   4.280   1.386
 1055SOL    HW1 3173   0.170   4.279   1.345
 1055SOL    HW2 3174   0.072   4.354   1.453
 1056SOL     OW 3175   0.561   3.946   1.147
 1056SOL    HW1 3176   0.599   3.862   1.184
 1056SOL    HW2 3177   0.473   3.965   1.191
 1057SOL     OW 3178   0.866   4.178   0.642
 1057SOL    HW1 3179   0.834   4.250   0.580
 1057SOL    HW2 3180   0.890   4.097   0.589
 1058SOL     OW 3181   1.017   3.763   0.753
 1058SOL    HW1 3182   0.945   3.768   0.684
 1058SOL    HW2 3183   0.993   3.694   0.822
 1059SOL     OW 3184   1.466   4.314   0.992
 1059SOL    HW1 3185   1.436   4.219   0.999
 1059SOL    HW2 3186   1.539   4.330   1.058
 1060SOL     OW 3187   1.390   4.299   0.078
 1060SOL    HW1 3188   1.336   4.278   0.159
 1060SOL    HW2 3189   1.481   4.258   0.087
 1061SOL     OW 3190   0.527   3.980   0.328
 1061SOL    HW1 3191   0.554   3.921   0.253
 1061SOL    HW2 3192   0.527   4.075   0.297
 1062SOL     OW 3193   0.915   3.813   1.402
 1062SOL    HW1 3194   0.940   3.793   1.307
 1062SOL    HW2 3195   0.987   3.869   1.444
 1063SOL     OW 3196   1.274   4.110   1.262
 1063SOL    HW1 3197   1.295   4.184   1.326
 1063SOL    HW2 3198   1.185   4.127   1.219
 1064SOL     OW 3199   0.566   4.261   0.865
 1064SOL    HW1 3200   0.578   4.327   0.791
 1064SOL    HW2 3201   0.612   4.295   0.948
 1065SOL     OW 3202   1.582   4.363   0.472
 1065SOL    HW1 3203   1.551   4.424   0.545
 1065SOL    HW2 3204   1.632   4.415   0.403
 1066SOL     OW 3205   1.013   3.829   1.770
 1066SOL    HW1 3206   1.019   3.914   1.718
 1066SOL    HW2 3207   1.045   3.753   1.713
 1067SOL     OW 3208   0.504   3.774   1.740
 1067SOL    HW1 3209   0.462   3.717   1.670
 1067SOL    HW2 3210   0.438   3.843   1.772
 1068SOL     OW 3211   1.209   4.249   0.275
 1068SOL    HW1 3212   1.222   4.165   0.329
 1068SOL    HW2 3213   1.180   4.323   0.335
 1069SOL     OW 3214   0.307   3.937   1.231
 1069SOL    HW1 3215   0.284   3.974   1.321
 1069SOL    HW2 3216   0.277   3.842   1.225
 1070SOL     OW 3217   0.732   4.358   1.064
 1070SOL    HW1 3218   0.791   4.332   0.988
 1070SOL    HW2 3219   0.704   4.454   1.053
 1071SOL     OW 3220   0.307   3.787   0.618
 1071SOL    HW1 3221   0.296   3.881   0.651
 1071SOL    HW2 3222   0.302   3.724   0.695
 1072SOL     OW 3223   1.622   4.091   0.374
 1072SOL    HW1 3224   1.624   4.015   0.438
 1072SOL    HW2 3225   1.574   4.168   0.414
 1073SOL     OW 3226   1.540   3.998   0.125
 1073SOL    HW1 3227   1.479   3.923   0.148
 1073SOL    HW2 3228   1.562   4.050   0.208
 1074SOL     OW 3229   0.319   4.534   0.949
 1074SOL    HW1 3230   0.412   4.570   0.954
 1074SOL    HW2 3231   0.313   4.449   1.001
 1075SOL     OW 3232   0.339   4.233   1.006
 1075SOL    HW1 3233   0.287   4.150   0.989
 1075SOL    HW2 3234   0.416   4.238   0.942
 1076SOL     OW 3235   1.138   4.104   1.678
 1076SOL    HW1 3236   1.093   4.167   1.742
 1076SOL    HW2 3237   1.231   4.135   1.661
 1077SOL     OW 3238   1.160   3.931   1.477
 1077SOL    HW1 3239   1.160   3.995   1.554
 1077SOL    HW2 3240   1.188   3.979   1.394
 1078SOL     OW 3241   0.040   4.268   1.114
 1078SOL    HW1 3242   0.125   4.235   1.073
 1078SOL    HW2 3243   0.053   4.283   1.212
 1079SOL     OW 3244   0.189   4.244   1.722
 1079SOL    HW1 3245   0.248   4.204   1.652
 1079SOL    HW2 3246   0.131   4.315   1.681
 1080SOL     OW 3247   0.815   4.296   0.325
 1080SOL    HW1 3248   0.822   4.207   0.279
 1080SOL    HW2 3249   0.721   4.330   0.317
 1081SOL     OW 3250   1.657   4.328   1.206
 1081SOL    HW1 3251   1.619   4.259   1.268
 1081SOL    HW2 3252   1.739   4.292   1.162
 1082SOL     OW 3253   0.671   4.188   1.269
 1082SOL    HW1 3254   0.637   4.099   1.239
 1082SOL    HW2 3255   0.697   4.242   1.189
 1083SOL     OW 3256   0.473   4.224   0.191
 1083SOL    HW1 3257   0.534   4.304   0.195
 1083SOL    HW2 3258   0.378   4.255   0.198
 1084SOL     OW 3259   0.903   3.810   0.133
 1084SOL    HW1 3260   0.954   3.811   0.047
 1084SOL    HW2 3261   0.959   3.768   0.204
 1085SOL     OW 3262   1.726   3.859   0.523
 1085SOL    HW1 3263   1.799   3.842   0.456
 1085SOL    HW2 3264   1.695   3.772   0.561
 1086SOL     OW 3265   1.280   4.651   0.672
 1086SOL    HW1 3266   1.340   4.570   0.674
 1086SOL    HW2 3267   1.320   4.720   0.612
 1087SOL     OW 3268   1.841   3.899   0.963
 1087SOL    HW1 3269   1.880   3.814   0.927
 1087SOL    HW2 3270   1.743   3.901   0.944
 1088SOL     OW 3271   0.263   4.050   0.720
 1088SOL    HW1 3272   0.184   4.101   0.686
 1088SOL    HW2 3273   0.254   4.035   0.818
 1089SOL     OW 3274   1.014   3.960   0.971
 1089SOL    HW1 3275   1.006   3.924   0.878
 1089SOL    HW2 3276   1.012   3.884   1.036
 1090SOL     OW 3277   1.709   4.109   1.381
 1090SOL    HW1 3278   1.782   4.178   1.385
 1090SOL    HW2 3279   1.737   4.034   1.322
 1091SOL     OW 3280   0.672   3.927   1.489
 1091SOL    HW1 3281   0.762   3.911   1.449
 1091SOL    HW2 3282   0.680   3.932   1.588
 1092SOL     OW 3283   0.075   4.069   0.033
 1092SOL    HW1 3284  -0.017   4.041   0.004
 1092SOL    HW2 3285   0.106   4.146  -0.023
 1093SOL     OW 3286   0.072   3.890   0.318
 1093SOL    HW1 3287   0.055   3.973   0.264
 1093SOL    HW2 3288   0.162   3.853   0.296
 1094SOL     OW 3289   0.716   4.289   1.708
 1094SOL    HW1 3290   0.735   4.354   1.782
 1094SOL    HW2 3291   0.776   4.209   1.717
 1095SOL     OW 3292   1.225   4.049   0.449
 1095SOL    HW1 3293   1.290   3.975   0.438
 1095SOL    HW2 3294   1.245   4.099   0.533
 1096SOL     OW 3295   1.777   4.066   1.642
 1096SOL    HW1 3296   1.760   4.097   1.548
 1096SOL    HW2 3297   1.693   4.029   1.680
 1097SOL     OW 3298   1.083   4.708   0.087
 1097SOL    HW1 3299   1.060   4.761   0.005
 1097SOL    HW2 3300   1.164   4.652   0.068
 1098SOL     OW 3301   1.824   3.916   1.227
 1098SOL    HW1 3302   1.820   3.826   1.271
 1098SOL    HW2 3303   1.827   3.905   1.128
 1099SOL     OW 3304   0.428   4.148   0.520
 1099SOL    HW1 3305   0.458   4.076   0.458
 1099SOL    HW2 3306   0.389   4.108   0.603
 1100SOL     OW 3307   0.317   4.271   1.280
 1100SOL    HW1 3308   0.355   4.212   1.352
 1100SOL    HW2 3309   0.357   4.245   1.192
 1101SOL     OW 3310   1.424   3.938   1.112
 1101SOL    HW1 3311   1.476   3.873   1.167
 1101SOL    HW2 3312   1.375   4.001   1.173
 1102SOL     OW 3313   1.001   3.758   1.154
 1102SOL    HW1 3314   0.938   3.686   1.123
 1102SOL    HW2 3315   1.094   3.722   1.154
 1103SOL     OW 3316   1.352   3.776   0.168
 1103SOL    HW1 3317   1.387   3.735   0.084
 1103SOL    HW2 3318   1.262   3.738   0.188
 1104SOL     OW 3319   1.300   4.177   0.691
 1104SOL    HW1 3320   1.241   4.257   0.695
 1104SOL    HW2 3321   1.315   4.142   0.784
 1105SOL     OW 3322   1.593   3.945   0.882
 1105SOL    HW1 3323   1.509   3.944   0.936
 1105SOL    HW2 3324   1.595   4.028   0.826
 1106SOL     OW 3325   0.230   4.352   1.975
 1106SOL    HW1 3326   0.137   4.350   2.012
 1106SOL    HW2 3327   0.231   4.313   1.883
 1107SOL     OW 3328   0.225   3.999   2.858
 1107SOL    HW1 3329   0.260   3.982   2.950
 1107SOL    HW2 3330   0.137   3.954   2.846
 1108SOL     OW 3331   0.019   4.092   2.509
 1108SOL    HW1 3332  -0.063   4.135   2.548
 1108SOL    HW2 3333  -0.009   4.019   2.446
 1109SOL     OW 3334   1.755   4.331   2.093
 1109SOL    HW1 3335   1.743   4.318   1.994
 1109SOL    HW2 3336   1.725   4.250   2.142
 1110SOL     OW 3337   0.685   4.736   2.527
 1110SOL    HW1 3338   0.754   4.720   2.597
 1110SOL    HW2 3339   0.612   4.793   2.565
 1111SOL     OW 3340   0.438   4.116   3.361
 1111SOL    HW1 3341   0.520   4.060   3.370
 1111SOL    HW2 3342   0.357   4.058   3.365
 1112SOL     OW 3343   1.603   4.171   2.599
 1112SOL    HW1 3344   1.529   4.217   2.549
 1112SOL    HW2 3345   1.654   4.239   2.652
 1113SOL     OW 3346   1.594   3.838   3.342
 1113SOL    HW1 3347   1.576   3.905   3.270
 1113SOL    HW2 3348   1.591   3.884   3.431
 1114SOL     OW 3349   0.122   4.367   2.425
 1114SOL    HW1 3350   0.077   4.279   2.442
 1114SOL    HW2 3351   0.121   4.421   2.509
 1115SOL     OW 3352   0.113   4.461   3.459
 1115SOL    HW1 3353   0.201   4.448   3.504
 1115SOL    HW2 3354   0.100   4.558   3.437
 1116SOL     OW 3355   0.809   3.728   2.364
 1116SOL    HW1 3356   0.849   3.819   2.355
 1116SOL    HW2 3357   0.709   3.736   2.370
 1117SOL     OW 3358   0.317   3.975   3.663
 1117SOL    HW1 3359   0.388   4.046   3.669
 1117SOL    HW2 3360   0.229   4.014   3.691
 1118SOL     OW 3361   1.281   4.069   2.806
 1118SOL    HW1 3362   1.195   4.019   2.793
 1118SOL    HW2 3363   1.343   4.015   2.862
 1119SOL     OW 3364   0.807   4.329   3.327
 1119SOL    HW1 3365   0.760   4.326   3.416
 1119SOL    HW2 3366   0.756   4.274   3.261
 1120SOL     OW 3367   1.394   4.193   3.536
 1120SOL    HW1 3368   1.374   4.236   3.624
 1120SOL    HW2 3369   1.472   4.131   3.545
 1121SOL     OW 3370   0.991   4.134   3.104
 1121SOL    HW1 3371   0.914   4.168   3.158
 1121SOL    HW2 3372   0.957   4.083   3.025
 1122SOL     OW 3373   1.041   4.425   2.291
 1122SOL    HW1 3374   1.067   4.421   2.387
 1122SOL    HW2 3375   0.956   4.374   2.277
 1123SOL     OW 3376   0.076   4.535   2.651
 1123SOL    HW1 3377   0.175   4.523   2.660
 1123SOL    HW2 3378   0.052   4.630   2.672
 1124SOL     OW 3379   0.865   4.072   2.057
 1124SOL    HW1 3380   0.924   4.135   2.008
 1124SOL    HW2 3381   0.884   3.978   2.028
 1125SOL     OW 3382   1.719   4.309   3.693
 1125SOL    HW1 3383   1.693   4.398   3.657
 1125SOL    HW2 3384   1.717   4.241   3.620
 1126SOL     OW 3385   0.550   3.920   2.747
 1126SOL    HW1 3386   0.545   3.915   2.847
 1126SOL    HW2 3387   0.552   4.016   2.718
 1127SOL     OW 3388   1.458   4.459   2.590
 1127SOL    HW1 3389   1.453   4.394   2.665
 1127SOL    HW2 3390   1.538   4.518   2.603
 1128SOL     OW 3391   0.202   4.009   3.360
 1128SOL    HW1 3392   0.122   4.069   3.347
 1128SOL    HW2 3393   0.192   3.960   3.446
 1129SOL     OW 3394   1.400   3.831   2.288
 1129SOL    HW1 3395   1.376   3.794   2.198
 1129SOL    HW2 3396   1.499   3.847   2.292
 1130SOL     OW 3397   0.382   4.424   2.342
 1130SOL    HW1 3398   0.427   4.334   2.339
 1130SOL    HW2 3399   0.288   4.413   2.375
 1131SOL     OW 3400   1.547   3.946   3.591
 1131SOL    HW1 3401   1.542   3.983   3.683
 1131SOL    HW2 3402   1.475   3.877   3.579
 1132SOL     OW 3403   0.614   3.846   1.979
 1132SOL    HW1 3404   0.712   3.824   1.986
 1132SOL    HW2 3405   0.583   3.829   1.886
 1133SOL     OW 3406   0.781   3.988   3.611
 1133SOL    HW1 3407   0.848   3.927   3.654
 1133SOL    HW2 3408   0.708   4.007   3.676
 1134SOL     OW 3409   1.351   4.314   3.295
 1134SOL    HW1 3410   1.379   4.271   3.380
 1134SOL    HW2 3411   1.376   4.410   3.296
 1135SOL     OW 3412   0.922   4.227   2.761
 1135SOL    HW1 3413   0.897   4.218   2.665
 1135SOL    HW2 3414   0.970   4.145   2.792
 1136SOL     OW 3415   0.539   3.788   2.374
 1136SOL    HW1 3416   0.458   3.789   2.432
 1136SOL    HW2 3417   0.542   3.871   2.319
 1137SOL     OW 3418   0.297   3.759   2.033
 1137SOL    HW1 3419   0.346   3.843   2.012
 1137SOL    HW2 3420   0.359   3.694   2.078
 1138SOL     OW 3421   0.935   3.960   2.342
 1138SOL    HW1 3422   0.887   4.001   2.264
 1138SOL    HW2 3423   1.034   3.958   2.323
 1139SOL     OW 3424   1.076   4.407   3.326
 1139SOL    HW1 3425   0.996   4.346   3.329
 1139SOL    HW2 3426   1.157   4.354   3.302
 1140SOL     OW 3427   1.032   4.273   1.878
 1140SOL    HW1 3428   0.991   4.355   1.839
 1140SOL    HW2 3429   1.096   4.299   1.951
 1141SOL     OW 3430   0.078   4.280   3.248
 1141SOL    HW1 3431   0.170   4.279   3.207
 1141SOL    HW2 3432   0.072   4.354   3.315
 1142SOL     OW 3433   0.561   3.946   3.009
 1142SOL    HW1 3434   0.599   3.862   3.046
 1142SOL    HW2 3435   0.473   3.965   3.053
 1143SOL     OW 3436   0.866   4.178   2.504
 1143SOL    HW1 3437   0.834   4.250   2.442
 1143SOL    HW2 3438   0.890   4.097   2.451
 1144SOL     OW 3439   1.017   3.763   2.615
 1144SOL    HW1 3440   0.945   3.768   2.546
 1144SOL    HW2 3441   0.993   3.694   2.684
 1145SOL     OW 3442   1.466   4.314   2.854
 1145SOL    HW1 3443   1.436   4.219   2.861
 1145SOL    HW2 3444   1.539   4.330   2.920
 1146SOL     OW 3445   1.390   4.299   1.940
 1146SOL    HW1 3446   1.336   4.278   2.021
 1146SOL    HW2 3447   1.481   4.258   1.949
 1147SOL     OW 3448   0.527   3.980   2.190
 1147SOL    HW1 3449   0.554   3.921   2.115
 1147SOL    HW2 3450   0.527   4.075   2.159
 1148SOL     OW 3451   0.915   3.813   3.264
 1148SOL    HW1 3452   0.940   3.793   3.169
 1148SOL    HW2 3453   0.987   3.869   3.306
 1149SOL     OW 3454   1.274   4.110   3.124
 1149SOL    HW1 3455   1.295   4.184   3.188
 1149SOL    HW2 3456   1.185   4.127   3.081
 1150SOL     OW 3457   0.566   4.261   2.727
 1150SOL    HW1 3458   0.578   4.327   2.653
 1150SOL    HW2 3459   0.612   4.295   2.810
 1151SOL     OW 3460   1.582   4.363   2.334
 1151SOL    HW1 3461   1.551   4.424   2.407
 1151SOL    HW2 3462   1.632   4.415   2.265
 1152SOL     OW 3463   1.013   3.829   3.632
 1152SOL    HW1 3464   1.019   3.914   3.580
 1152SOL    HW2 3465   1.045   3.753   3.575
 1153SOL     OW 3466   0.504   3.774   3.602
 1153SOL    HW1 3467   0.462   3.717   3.532
 1153SOL    HW2 3468   0.438   3.843   3.634
 1154SOL     OW 3469   1.209   4.249   2.137
 1154SOL    HW1 3470   1.222   4.165   2.191
 1154SOL    HW2 3471   1.180   4.323   2.197
 1155SOL     OW 3472   0.307   3.937   3.093
 1155SOL    HW1 3473   0.284   3.974   3.183
 1155SOL    HW2 3474   0.277   3.842   3.087
 1156SOL     OW 3475   0.732   4.358   2.926
 1156SOL    HW1 3476   0.791   4.332   2.850
 1156SOL    HW2 3477   0.704   4.454   2.915
 1157SOL     OW 3478   0.307   3.787   2.480
 1157SOL    HW1 3479   0.296   3.881   2.513
 1157SOL    HW2 3480   0.302   3.724   2.557
 1158SOL     OW 3481   1.622   4.091   2.236
 1158SOL    HW1 3482   1.624   4.015   2.300
 1158SOL    HW2 3483   1.574   4.168   2.276
 1159SOL     OW 3484   1.540   3.998   1.987
 1159SOL    HW1 3485   1.479   3.923   2.010
 1159SOL    HW2 3486   1.562   4.050   2.070
 1160SOL     OW 3487   0.319   4.534   2.811
 1160SOL    HW1 3488   0.412   4.570   2.816
 1160SOL    HW2 3489   0.313   4.449   2.863
 1161SOL     OW 3490   0.339   4.233   2.868
 1161SOL    HW1 3491   0.287   4.150   2.851
 1161SOL    HW2 3492   0.416   4.238   2.804
 1162SOL     OW 3493   1.138   4.104   3.540
 1162SOL    HW1 3494   1.093   4.167   3.604
 1162SOL    HW2 3495   1.231   4.135   3.523
 1163SOL     OW 3496   1.160   3.931   3.339
 1163SOL    HW1 3497   1.160   3.995   3.416
 1163SOL    HW2 3498   1.188   3.979   3.256
 1164SOL     OW 3499   0.040   4.268   2.976
 1164SOL    HW1 3500   0.125   4.235   2.935
 1164SOL    HW2 3501   0.053   4.283   3.074
 1165SOL     OW 3502   0.189   4.244   3.584
 1165SOL    HW1 3503   0.248   4.204   3.514
 1165SOL    HW2 3504   0.131   4.315   3.543
 1166SOL     OW 3505   0.815   4.296   2.187
 1166SOL    HW1 3506   0.822   4.207   2.141
 1166SOL    HW2 3507   0.721   4.330   2.179
 1167SOL     OW 3508   1.657   4.328   3.068
 1167SOL    HW1 3509   1.619   4.259   3.130
 1167SOL    HW2 3510   1.739   4.292   3.024
 1168SOL     OW 3511   0.671   4.188   3.131
 1168SOL    HW1 3512   0.637   4.099   3.101
 1168SOL    HW2 3513   0.697   4.242   3.051
 1169SOL     OW 3514   0.473   4.224   2.053
 1169SOL    HW1 3515   0.534   4.304   2.057
 1169SOL    HW2 3516   0.378   4.255   2.060
 1170SOL     OW 3517   1.726   3.859   2.385
 1170SOL    HW1 3518   1.799   3.842   2.318
 1170SOL    HW2 3519   1.695   3.772   2.423
 1171SOL     OW 3520   1.280   4.651   2.534
 1171SOL    HW1 3521   1.340   4.570   2.536
 1171SOL    HW2 3522   1.320   4.720   2.474
 1172SOL     OW 3523   1.841   3.899   2.825
 1172SOL    HW1 3524   1.880   3.814   2.789
 1172SOL    HW2 3525   1.743   3.901   2.806
 1173SOL     OW 3526   0.263   4.050   2.582
 1173SOL    HW1 3527   0.184   4.101   2.548
 1173SOL    HW2 3528   0.254   4.035   2.680
 1174SOL     OW 3529   1.014   3.960   2.833
 1174SOL    HW1 3530   1.006   3.924   2.740
 1174SOL    HW2 3531   1.012   3.884   2.898
 1175SOL     OW 3532   1.709   4.109   3.243
 1175SOL    HW1 3533   1.782   4.178   3.247
 1175SOL    HW2 3534   1.737   4.034   3.184
 1176SOL     OW 3535   0.672   3.927   3.351
 1176SOL    HW1 3536   0.762   3.911   3.311
 1176SOL    HW2 3537   0.680   3.932   3.450
 1177SOL     OW 3538   0.075   4.069   1.895
 1177SOL    HW1 3539  -0.017   4.041   1.866
 1177SOL    HW2 3540   0.106   4.146   1.839
 1178SOL     OW 3541   0.072   3.890   2.180
 1178SOL    HW1 3542   0.055   3.973   2.126
 1178SOL    HW2 3543   0.162   3.853   2.158
 1179SOL     OW 3544   0.716   4.289   3.570
 1179SOL    HW1 3545   0.735   4.354   3.644
 1179SOL    HW2 3546   0.776   4.209   3.579
 1180SOL     OW 3547   1.225   4.049   2.311
 1180SOL    HW1 3548   1.290   3.975   2.300
 1180SOL    HW2 3549   1.245   4.099   2.395
 1181SOL     OW 3550   1.777   4.066   3.504
 1181SOL    HW1 3551   1.760   4.097   3.410
 1181SOL    HW2 3552   1.693   4.029   3.542
 1182SOL     OW 3553   1.083   4.708   1.949
 1182SOL    HW1 3554   1.060   4.761   1.867
 1182SOL    HW2 3555   1.164   4.652   1.930
 1183SOL     OW 3556   1.824   3.916   3.089
 1183SOL    HW1 3557   1.820   3.826   3.133
 1183SOL    HW2 3558   1.827   3.905   2.990
 1184SOL     OW 3559   0.428   4.148   2.382
 1184SOL    HW1 3560   0.458   4.076   2.320
 1184SOL    HW2 3561   0.389   4.108   2.465
 1185SOL     OW 3562   0.317   4.271   3.142
 1185SOL    HW1 3563   0.355   4.212   3.214
 1185SOL    HW2 3564   0.357   4.245   3.054
 1186SOL     OW 3565   1.424   3.938   2.974
 1186SOL    HW1 3566   1.476   3.873   3.029
 1186SOL    HW2 3567   1.375   4.001   3.035
 1187SOL     OW 3568   1.001   3.758   3.016
 1187SOL    HW1 3569   0.938   3.686   2.985
 1187SOL    HW2 3570   1.094   3.722   3.016
 1188SOL     OW 3571   1.352   3.776   2.030
 1188SOL    HW1 3572   1.387   3.735   1.946
 1188SOL    HW2 3573   1.262   3.738   2.050
 1189SOL     OW 3574   1.300   4.177   2.553
 1189SOL    HW1 3575   1.241   4.257   2.557
 1189SOL    HW2 3576   1.315   4.142   2.646
 1190SOL     OW 3577   1.593   3.945   2.744
 1190SOL    HW1 3578   1.509   3.944   2.798
 1190SOL    HW2 3579   1.595   4.028   2.688
 1191SOL     OW 3580   0.230   4.352   3.837
 1191SOL    HW1 3581   0.137   4.350   3.874
 1191SOL    HW2 3582   0.231   4.313   3.745
 1192SOL     OW 3583   1.135   4.427   4.441
 1192SOL    HW1 3584   1.192   4.505   4.416
 1192SOL    HW2 3585   1.075   4.453   4.517
 1193SOL     OW 3586   1.755   4.331   3.955
 1193SOL    HW1 3587   1.743   4.318   3.856
 1193SOL    HW2 3588   1.725   4.250   4.004
 1194SOL     OW 3589   0.685   4.736   4.389
 1194SOL    HW1 3590   0.754   4.720   4.459
 1194SOL    HW2 3591   0.612   4.793   4.427
 1195SOL     OW 3592   1.603   4.171   4.461
 1195SOL    HW1 3593   1.529   4.217   4.411
 1195SOL    HW2 3594   1.654   4.239   4.514
 1196SOL     OW 3595   0.240   4.815   4.610
 1196SOL    HW1 3596   0.254   4.731   4.662
 1196SOL    HW2 3597   0.185   4.879   4.665
 1197SOL     OW 3598   0.122   4.367   4.287
 1197SOL    HW1 3599   0.077   4.279   4.304
 1197SOL    HW2 3600   0.121   4.421   4.371
 1198SOL     OW 3601   0.809   3.728   4.226
 1198SOL    HW1 3602   0.849   3.819   4.217
 1198SOL    HW2 3603   0.709   3.736   4.232
 1199SOL     OW 3604   1.281   4.069   4.668
 1199SOL    HW1 3605   1.195   4.019   4.655
 1199SOL    HW2 3606   1.343   4.015   4.724
 1200SOL     OW 3607   1.041   4.425   4.153
 1200SOL    HW1 3608   1.067   4.421   4.249
 1200SOL    HW2 3609   0.956   4.374   4.139
 1201SOL     OW 3610   0.076   4.535   4.513
 1201SOL    HW1 3611   0.175   4.523   4.522
 1201SOL    HW2 3612   0.052   4.630   4.534
 1202SOL     OW 3613   0.865   4.072   3.919
 1202SOL    HW1 3614   0.924   4.135   3.870
 1202SOL    HW2 3615   0.884   3.978   3.890
 1203SOL     OW 3616   1.400   3.831   4.150
 1203SOL    HW1 3617   1.376   3.794   4.060
 1203SOL    HW2 3618   1.499   3.847   4.154
 1204SOL     OW 3619   0.382   4.424   4.204
 1204SOL    HW1 3620   0.427   4.334   4.201
 1204SOL    HW2 3621   0.288   4.413   4.237
 1205SOL     OW 3622   0.614   3.846   3.841
 1205SOL    HW1 3623   0.712   3.824   3.848
 1205SOL    HW2 3624   0.583   3.829   3.748
 1206SOL     OW 3625   0.539   3.788   4.236
 1206SOL    HW1 3626   0.458   3.789   4.294
 1206SOL    HW2 3627   0.542   3.871   4.181
 1207SOL     OW 3628   0.297   3.759   3.895
 1207SOL    HW1 3629   0.346   3.843   3.874
 1207SOL    HW2 3630   0.359   3.694   3.940
 1208SOL     OW 3631   0.935   3.960   4.204
 1208SOL    HW1 3632   0.887   4.001   4.126
 1208SOL    HW2 3633   1.034   3.958   4.185
 1209SOL     OW 3634   1.032   4.273   3.740
 1209SOL    HW1 3635   0.991   4.355   3.701
 1209SOL    HW2 3636   1.096   4.299   3.813
 1210SOL     OW 3637   0.866   4.178   4.366
 1210SOL    HW1 3638   0.834   4.250   4.304
 1210SOL    HW2 3639   0.890   4.097   4.313
 1211SOL     OW 3640   1.390   4.299   3.802
 1211SOL    HW1 3641   1.336   4.278   3.883
 1211SOL    HW2 3642   1.481   4.258   3.811
 1212SOL     OW 3643   0.527   3.980   4.052
 1212SOL    HW1 3644   0.554   3.921   3.977
 1212SOL    HW2 3645   0.527   4.075   4.021
 1213SOL     OW 3646   1.582   4.363   4.196
 1213SOL    HW1 3647   1.551   4.424   4.269
 1213SOL    HW2 3648   1.632   4.415   4.127
 1214SOL     OW 3649   1.209   4.249   3.999
 1214SOL    HW1 3650   1.222   4.165   4.053
 1214SOL    HW2 3651   1.180   4.323   4.059
 1215SOL     OW 3652   0.307   3.787   4.342
 1215SOL    HW1 3653   0.296   3.881   4.375
 1215SOL    HW2 3654   0.302   3.724   4.419
 1216SOL     OW 3655   1.622   4.091   4.098
 1216SOL    HW1 3656   1.624   4.015   4.162
 1216SOL    HW2 3657   1.574   4.168   4.138
 1217SOL     OW 3658   1.540   3.998   3.849
 1217SOL    HW1 3659   1.479   3.923   3.872
 1217SOL    HW2 3660   1.562   4.050   3.932
 1218SOL     OW 3661   0.815   4.296   4.049
 1218SOL    HW1 3662   0.822   4.207   4.003
 1218SOL    HW2 3663   0.721   4.330   4.041
 1219SOL     OW 3664   0.473   4.224   3.915
 1219SOL    HW1 3665   0.534   4.304   3.919
 1219SOL    HW2 3666   0.378   4.255   3.922
 1220SOL     OW 3667   1.726   3.859   4.247
 1220SOL    HW1 3668   1.799   3.842   4.180
 1220SOL    HW2 3669   1.695   3.772   4.285
 1221SOL     OW 3670   1.280   4.651   4.396
 1221SOL    HW1 3671   1.340   4.570   4.398
 1221SOL    HW2 3672   1.320   4.720   4.336
 1222SOL     OW 3673   1.841   3.899   4.687
 1222SOL    HW1 3674   1.880   3.814   4.651
 1222SOL    HW2 3675   1.743   3.901   4.668
 1223SOL     OW 3676   0.075   4.069   3.757
 1223SOL    HW1 3677  -0.017   4.041   3.728
 1223SOL    HW2 3678   0.106   4.146   3.701
 1224SOL     OW 3679   0.072   3.890   4.042
 1224SOL    HW1 3680   0.055   3.973   3.988
 1224SOL    HW2 3681   0.162   3.853   4.020
 1225SOL     OW 3682   1.225   4.049   4.173
 1225SOL    HW1 3683   1.290   3.975   4.162
 1225SOL    HW2 3684   1.245   4.099   4.257
 1226SOL     OW 3685   1.083   4.708   3.811
 1226SOL    HW1 3686   1.060   4.761   3.729
 1226SOL    HW2 3687   1.164   4.652   3.792
 1227SOL     OW 3688   0.428   4.148   4.244
 1227SOL    HW1 3689   0.458   4.076   4.182
 1227SOL    HW2 3690   0.389   4.108   4.327
 1228SOL     OW 3691   1.352   3.776   3.892
 1228SOL    HW1 3692   1.387   3.735   3.808
 1228SOL    HW2 3693   1.262   3.738   3.912
 1229SOL     OW 3694   1.300   4.177   4.415
 1229SOL    HW1 3695   1.241   4.257   4.419
 1229SOL    HW2 3696   1.315   4.142   4.508
 1230SOL     OW 3697   2.092   0.628   0.113
 1230SOL    HW1 3698   1.999   0.626   0.150
 1230SOL    HW2 3699   2.093   0.589   0.021
 1231SOL     OW 3700   2.087   0.275   0.996
 1231SOL    HW1 3701   2.122   0.258   1.088
 1231SOL    HW2 3702   1.999   0.230   0.984
 1232SOL     OW 3703   1.881   0.368   0.647
 1232SOL    HW1 3704   1.799   0.411   0.686
 1232SOL    HW2 3705   1.853   0.295   0.584
 1233SOL     OW 3706   2.431   1.275   1.165
 1233SOL    HW1 3707   2.338   1.268   1.128
 1233SOL    HW2 3708   2.442   1.364   1.209
 1234SOL     OW 3709   3.417   1.511   0.703
 1234SOL    HW1 3710   3.360   1.495   0.784
 1234SOL    HW2 3711   3.358   1.521   0.623
 1235SOL     OW 3712   2.997   0.703   0.717
 1235SOL    HW1 3713   3.054   0.781   0.692
 1235SOL    HW2 3714   2.937   0.729   0.793
 1236SOL     OW 3715   3.617   0.607   0.231
 1236SOL    HW1 3716   3.605   0.594   0.132
 1236SOL    HW2 3717   3.587   0.526   0.280
 1237SOL     OW 3718   2.630   1.144   1.023
 1237SOL    HW1 3719   2.552   1.161   1.083
 1237SOL    HW2 3720   2.664   1.231   0.987
 1238SOL     OW 3721   2.712   0.798   1.823
 1238SOL    HW1 3722   2.708   0.874   1.888
 1238SOL    HW2 3723   2.734   0.834   1.732
 1239SOL     OW 3724   2.547   1.012   0.665
 1239SOL    HW1 3725   2.616   0.996   0.735
 1239SOL    HW2 3726   2.474   1.069   0.703
 1240SOL     OW 3727   2.548   1.161   1.803
 1240SOL    HW1 3728   2.608   1.240   1.817
 1240SOL    HW2 3729   2.462   1.192   1.762
 1241SOL     OW 3730   2.197   1.435   1.061
 1241SOL    HW1 3731   2.119   1.404   1.008
 1241SOL    HW2 3732   2.255   1.493   1.004
 1242SOL     OW 3733   3.322   1.505   1.339
 1242SOL    HW1 3734   3.346   1.599   1.365
 1242SOL    HW2 3735   3.306   1.451   1.421
 1243SOL     OW 3736   2.300   0.392   1.499
 1243SOL    HW1 3737   2.382   0.336   1.508
 1243SOL    HW2 3738   2.219   0.334   1.503
 1244SOL     OW 3739   3.465   0.447   0.737
 1244SOL    HW1 3740   3.391   0.493   0.687
 1244SOL    HW2 3741   3.516   0.515   0.790
 1245SOL     OW 3742   2.093   1.713   0.483
 1245SOL    HW1 3743   2.127   1.790   0.537
 1245SOL    HW2 3744   2.137   1.713   0.393
 1246SOL     OW 3745   2.989   1.341   1.690
 1246SOL    HW1 3746   3.036   1.341   1.778
 1246SOL    HW2 3747   2.941   1.254   1.679
 1247SOL     OW 3748   2.092   1.434   0.538
 1247SOL    HW1 3749   2.066   1.530   0.538
 1247SOL    HW2 3750   2.021   1.380   0.583
 1248SOL     OW 3751   2.102   1.091   0.886
 1248SOL    HW1 3752   2.116   1.007   0.938
 1248SOL    HW2 3753   2.047   1.155   0.941
 1249SOL     OW 3754   2.482   1.786   1.439
 1249SOL    HW1 3755   2.390   1.769   1.474
 1249SOL    HW2 3756   2.510   1.878   1.465
 1250SOL     OW 3757   2.468   0.964   0.123
 1250SOL    HW1 3758   2.475   1.048   0.069
 1250SOL    HW2 3759   2.514   0.977   0.211
 1251SOL     OW 3760   3.456   0.114   1.480
 1251SOL    HW1 3761   3.438   0.181   1.408
 1251SOL    HW2 3762   3.453   0.160   1.569
 1252SOL     OW 3763   1.984   0.643   0.563
 1252SOL    HW1 3764   1.939   0.555   0.580
 1252SOL    HW2 3765   1.983   0.697   0.647
 1253SOL     OW 3766   3.704   1.767   0.359
 1253SOL    HW1 3767   3.758   1.738   0.439
 1253SOL    HW2 3768   3.734   1.857   0.330
 1254SOL     OW 3769   1.889   1.596   0.117
 1254SOL    HW1 3770   1.870   1.500   0.138
 1254SOL    HW2 3771   1.856   1.654   0.192
 1255SOL     OW 3772   3.551   0.922   0.612
 1255SOL    HW1 3773   3.646   0.893   0.620
 1255SOL    HW2 3774   3.543   0.987   0.537
 1256SOL     OW 3775   3.503   1.108   0.432
 1256SOL    HW1 3776   3.589   1.110   0.380
 1256SOL    HW2 3777   3.517   1.155   0.520
 1257SOL     OW 3778   1.975   0.737   1.597
 1257SOL    HW1 3779   2.063   0.724   1.642
 1257SOL    HW2 3780   1.962   0.834   1.575
 1258SOL     OW 3781   2.475   1.365   0.726
 1258SOL    HW1 3782   2.426   1.278   0.735
 1258SOL    HW2 3783   2.452   1.408   0.639
 1259SOL     OW 3784   3.155   1.228   1.423
 1259SOL    HW1 3785   3.192   1.155   1.365
 1259SOL    HW2 3786   3.207   1.233   1.508
 1260SOL     OW 3787   2.671   0.004   0.502
 1260SOL    HW1 3788   2.711   0.095   0.493
 1260SOL    HW2 3789   2.571   0.012   0.508
 1261SOL     OW 3790   2.059   0.976   1.264
 1261SOL    HW1 3791   2.148   0.931   1.250
 1261SOL    HW2 3792   1.986   0.911   1.245
 1262SOL     OW 3793   3.387   0.999   0.190
 1262SOL    HW1 3794   3.324   0.923   0.203
 1262SOL    HW2 3795   3.435   1.017   0.276
 1263SOL     OW 3796   3.049   1.792   1.616
 1263SOL    HW1 3797   3.073   1.852   1.540
 1263SOL    HW2 3798   3.056   1.697   1.586
 1264SOL     OW 3799   2.179   0.251   1.801
 1264SOL    HW1 3800   2.250   0.322   1.807
 1264SOL    HW2 3801   2.091   0.290   1.829
 1265SOL     OW 3802   3.328   1.417   0.953
 1265SOL    HW1 3803   3.269   1.423   1.033
 1265SOL    HW2 3804   3.313   1.329   0.907
 1266SOL     OW 3805   3.529   1.714   0.572
 1266SOL    HW1 3806   3.488   1.691   0.484
 1266SOL    HW2 3807   3.511   1.640   0.637
 1267SOL     OW 3808   2.460   0.729   0.270
 1267SOL    HW1 3809   2.484   0.798   0.202
 1267SOL    HW2 3810   2.382   0.762   0.324
 1268SOL     OW 3811   3.143   0.345   0.944
 1268SOL    HW1 3812   3.057   0.295   0.931
 1268SOL    HW2 3813   3.205   0.291   1.000
 1269SOL     OW 3814   3.438   1.662   0.307
 1269SOL    HW1 3815   3.527   1.708   0.310
 1269SOL    HW2 3816   3.417   1.638   0.212
 1270SOL     OW 3817   2.669   0.605   1.465
 1270SOL    HW1 3818   2.622   0.602   1.554
 1270SOL    HW2 3819   2.618   0.550   1.399
 1271SOL     OW 3820   3.256   0.469   1.674
 1271SOL    HW1 3821   3.236   0.512   1.762
 1271SOL    HW2 3822   3.334   0.407   1.683
 1272SOL     OW 3823   2.835   0.890   1.572
 1272SOL    HW1 3824   2.881   0.806   1.543
 1272SOL    HW2 3825   2.779   0.924   1.497
 1273SOL     OW 3826   2.853   0.410   1.242
 1273SOL    HW1 3827   2.776   0.444   1.296
 1273SOL    HW2 3828   2.819   0.359   1.163
 1274SOL     OW 3829   2.903   0.701   0.429
 1274SOL    HW1 3830   2.929   0.697   0.525
 1274SOL    HW2 3831   2.818   0.650   0.415
 1275SOL     OW 3832   1.938   0.811   0.789
 1275SOL    HW1 3833   2.037   0.799   0.798
 1275SOL    HW2 3834   1.914   0.906   0.810
 1276SOL     OW 3835   1.992   1.821   1.571
 1276SOL    HW1 3836   1.982   1.806   1.670
 1276SOL    HW2 3837   1.906   1.857   1.535
 1277SOL     OW 3838   2.727   0.348   0.195
 1277SOL    HW1 3839   2.786   0.411   0.146
 1277SOL    HW2 3840   2.746   0.254   0.166
 1278SOL     OW 3841   3.581   0.585   1.831
 1278SOL    HW1 3842   3.555   0.674   1.795
 1278SOL    HW2 3843   3.579   0.517   1.758
 1279SOL     OW 3844   3.224   1.144   0.545
 1279SOL    HW1 3845   3.307   1.115   0.497
 1279SOL    HW2 3846   3.175   1.211   0.489
 1280SOL     OW 3847   2.412   0.196   0.885
 1280SOL    HW1 3848   2.407   0.191   0.985
 1280SOL    HW2 3849   2.414   0.292   0.856
 1281SOL     OW 3850   2.870   1.456   0.477
 1281SOL    HW1 3851   2.824   1.528   0.425
 1281SOL    HW2 3852   2.866   1.476   0.575
 1282SOL     OW 3853   2.213   1.801   0.853
 1282SOL    HW1 3854   2.263   1.715   0.859
 1282SOL    HW2 3855   2.278   1.878   0.850
 1283SOL     OW 3856   3.657   1.066   0.873
 1283SOL    HW1 3857   3.595   1.051   0.797
 1283SOL    HW2 3858   3.605   1.077   0.958
 1284SOL     OW 3859   3.089   1.550   1.506
 1284SOL    HW1 3860   3.095   1.473   1.570
 1284SOL    HW2 3861   3.037   1.524   1.426
 1285SOL     OW 3862   2.183   0.943   0.242
 1285SOL    HW1 3863   2.265   0.982   0.200
 1285SOL    HW2 3864   2.156   0.861   0.193
 1286SOL     OW 3865   3.320   0.735   0.728
 1286SOL    HW1 3866   3.315   0.670   0.803
 1286SOL    HW2 3867   3.400   0.794   0.741
 1287SOL     OW 3868   2.323   1.266   1.727
 1287SOL    HW1 3869   2.273   1.267   1.641
 1287SOL    HW2 3870   2.260   1.248   1.803
 1288SOL     OW 3871   2.973   1.776   0.237
 1288SOL    HW1 3872   2.913   1.714   0.287
 1288SOL    HW2 3873   3.004   1.732   0.152
 1289SOL     OW 3874   2.064   0.285   1.498
 1289SOL    HW1 3875   1.984   0.345   1.485
 1289SOL    HW2 3876   2.054   0.236   1.584
 1290SOL     OW 3877   3.494   1.377   0.081
 1290SOL    HW1 3878   3.462   1.471   0.071
 1290SOL    HW2 3879   3.418   1.314   0.069
 1291SOL     OW 3880   2.326   1.743   0.323
 1291SOL    HW1 3881   2.359   1.782   0.409
 1291SOL    HW2 3882   2.402   1.736   0.258
 1292SOL     OW 3883   3.262   0.107   0.426
 1292SOL    HW1 3884   3.238   0.070   0.336
 1292SOL    HW2 3885   3.361   0.123   0.430
 1293SOL     OW 3886   2.111   1.785   1.241
 1293SOL    HW1 3887   2.168   1.720   1.291
 1293SOL    HW2 3888   2.095   1.752   1.148
 1294SOL     OW 3889   2.802   1.698   0.904
 1294SOL    HW1 3890   2.882   1.641   0.925
 1294SOL    HW2 3891   2.753   1.658   0.827
 1295SOL     OW 3892   2.244   0.700   0.480
 1295SOL    HW1 3893   2.289   0.610   0.477
 1295SOL    HW2 3894   2.150   0.689   0.513
 1296SOL     OW 3895   3.409   0.222   1.729
 1296SOL    HW1 3896   3.404   0.259   1.821
 1296SOL    HW2 3897   3.337   0.153   1.717
 1297SOL     OW 3898   2.476   0.122   0.117
 1297SOL    HW1 3899   2.574   0.100   0.124
 1297SOL    HW2 3900   2.445   0.105   0.024
 1298SOL     OW 3901   2.643   0.264   1.749
 1298SOL    HW1 3902   2.710   0.203   1.792
 1298SOL    HW2 3903   2.570   0.283   1.814
 1299SOL     OW 3904   2.750   1.514   1.195
 1299SOL    HW1 3905   2.727   1.489   1.101
 1299SOL    HW2 3906   2.811   1.445   1.234
 1300SOL     OW 3907   3.213   0.590   1.433
 1300SOL    HW1 3908   3.241   0.547   1.518
 1300SOL    HW2 3909   3.238   0.686   1.434
 1301SOL     OW 3910   2.665   1.402   0.924
 1301SOL    HW1 3911   2.755   1.416   0.882
 1301SOL    HW2 3912   2.594   1.404   0.853
 1302SOL     OW 3913   2.784   0.503   0.899
 1302SOL    HW1 3914   2.759   0.494   0.803
 1302SOL    HW2 3915   2.832   0.421   0.930
 1303SOL     OW 3916   2.401   0.064   0.512
 1303SOL    HW1 3917   2.320   0.065   0.570
 1303SOL    HW2 3918   2.404   0.147   0.457
 1304SOL     OW 3919   3.296   1.188   0.041
 1304SOL    HW1 3920   3.328   1.112   0.098
 1304SOL    HW2 3921   3.204   1.215   0.071
 1305SOL     OW 3922   2.159   0.035   0.171
 1305SOL    HW1 3923   2.208   0.119   0.150
 1305SOL    HW2 3924   2.221  -0.030   0.216
 1306SOL     OW 3925   2.797   0.236   0.480
 1306SOL    HW1 3926   2.749   0.277   0.402
 1306SOL    HW2 3927   2.896   0.234   0.461
 1307SOL     OW 3928   2.938   0.683   1.464
 1307SOL    HW1 3929   2.858   0.622   1.467
 1307SOL    HW2 3930   3.019   0.630   1.440
 1308SOL     OW 3931   3.089   1.570   0.793
 1308SOL    HW1 3932   3.110   1.644   0.728
 1308SOL    HW2 3933   3.157   1.570   0.866
 1309SOL     OW 3934   2.321   1.152   0.741
 1309SOL    HW1 3935   2.250   1.125   0.806
 1309SOL    HW2 3936   2.295   1.124   0.648
 1310SOL     OW 3937   3.133   1.797   0.591
 1310SOL    HW1 3938   3.177   1.861   0.527
 1310SOL    HW2 3939   3.083   1.849   0.661
 1311SOL     OW 3940   2.894   0.549   0.016
 1311SOL    HW1 3941   2.853   0.631  -0.023
 1311SOL    HW2 3942   2.958   0.575   0.089
 1312SOL     OW 3943   1.940   0.556   1.386
 1312SOL    HW1 3944   2.032   0.555   1.345
 1312SOL    HW2 3945   1.934   0.630   1.453
 1313SOL     OW 3946   2.423   0.222   1.147
 1313SOL    HW1 3947   2.461   0.138   1.184
 1313SOL    HW2 3948   2.335   0.241   1.191
 1314SOL     OW 3949   2.728   0.454   0.642
 1314SOL    HW1 3950   2.696   0.526   0.580
 1314SOL    HW2 3951   2.752   0.373   0.589
 1315SOL     OW 3952   2.879   0.039   0.753
 1315SOL    HW1 3953   2.807   0.044   0.684
 1315SOL    HW2 3954   2.855  -0.030   0.822
 1316SOL     OW 3955   3.291   1.173   0.867
 1316SOL    HW1 3956   3.236   1.089   0.860
 1316SOL    HW2 3957   3.317   1.202   0.775
 1317SOL     OW 3958   3.328   0.590   0.992
 1317SOL    HW1 3959   3.298   0.495   0.999
 1317SOL    HW2 3960   3.401   0.606   1.058
 1318SOL     OW 3961   3.719   0.833   0.377
 1318SOL    HW1 3962   3.761   0.769   0.441
 1318SOL    HW2 3963   3.681   0.782   0.299
 1319SOL     OW 3964   2.350   1.385   0.174
 1319SOL    HW1 3965   2.263   1.370   0.221
 1319SOL    HW2 3966   2.333   1.411   0.079
 1320SOL     OW 3967   3.526   1.280   0.657
 1320SOL    HW1 3968   3.625   1.288   0.671
 1320SOL    HW2 3969   3.481   1.364   0.688
 1321SOL     OW 3970   3.252   0.575   0.078
 1321SOL    HW1 3971   3.198   0.554   0.159
 1321SOL    HW2 3972   3.343   0.534   0.087
 1322SOL     OW 3973   2.389   0.256   0.328
 1322SOL    HW1 3974   2.416   0.197   0.253
 1322SOL    HW2 3975   2.389   0.351   0.297
 1323SOL     OW 3976   3.616   1.223   1.588
 1323SOL    HW1 3977   3.707   1.184   1.575
 1323SOL    HW2 3978   3.624   1.319   1.612
 1324SOL     OW 3979   2.926   1.347   1.340
 1324SOL    HW1 3980   2.846   1.324   1.395
 1324SOL    HW2 3981   3.009   1.321   1.389
 1325SOL     OW 3982   3.454   1.629   1.625
 1325SOL    HW1 3983   3.481   1.663   1.535
 1325SOL    HW2 3984   3.533   1.591   1.671
 1326SOL     OW 3985   2.973   1.195   1.100
 1326SOL    HW1 3986   2.933   1.239   1.181
 1326SOL    HW2 3987   2.932   1.232   1.017
 1327SOL     OW 3988   3.500   1.099   1.079
 1327SOL    HW1 3989   3.505   1.180   1.138
 1327SOL    HW2 3990   3.414   1.101   1.028
 1328SOL     OW 3991   2.777   0.089   1.402
 1328SOL    HW1 3992   2.802   0.069   1.307
 1328SOL    HW2 3993   2.849   0.145   1.444
 1329SOL     OW 3994   2.842   1.116   1.719
 1329SOL    HW1 3995   2.743   1.122   1.729
 1329SOL    HW2 3996   2.865   1.036   1.663
 1330SOL     OW 3997   2.567   1.050   0.368
 1330SOL    HW1 3998   2.553   1.057   0.467
 1330SOL    HW2 3999   2.651   0.999   0.350
 1331SOL     OW 4000   2.272   0.813   1.251
 1331SOL    HW1 4001   2.358   0.825   1.301
 1331SOL    HW2 4002   2.230   0.726   1.278
 1332SOL     OW 4003   3.136   0.386   1.262
 1332SOL    HW1 4004   3.157   0.460   1.326
 1332SOL    HW2 4005   3.047   0.403   1.219
 1333SOL     OW 4006   1.926   1.564   1.331
 1333SOL    HW1 4007   1.880   1.646   1.297
 1333SOL    HW2 4008   2.024   1.583   1.340
 1334SOL     OW 4009   2.229   1.100   0.501
 1334SOL    HW1 4010   2.222   1.183   0.445
 1334SOL    HW2 4011   2.233   1.020   0.441
 1335SOL     OW 4012   2.428   0.537   0.865
 1335SOL    HW1 4013   2.440   0.603   0.791
 1335SOL    HW2 4014   2.474   0.571   0.948
 1336SOL     OW 4015   3.114   1.348   0.388
 1336SOL    HW1 4016   3.164   1.425   0.428
 1336SOL    HW2 4017   3.019   1.350   0.420
 1337SOL     OW 4018   3.134   1.445   1.142
 1337SOL    HW1 4019   3.181   1.458   1.229
 1337SOL    HW2 4020   3.068   1.371   1.151
 1338SOL     OW 4021   3.444   0.639   0.472
 1338SOL    HW1 4022   3.413   0.700   0.545
 1338SOL    HW2 4023   3.494   0.691   0.403
 1339SOL     OW 4024   2.216   1.510   1.329
 1339SOL    HW1 4025   2.195   1.466   1.242
 1339SOL    HW2 4026   2.313   1.536   1.332
 1340SOL     OW 4027   2.264   0.751   1.598
 1340SOL    HW1 4028   2.332   0.806   1.551
 1340SOL    HW2 4029   2.304   0.663   1.625
 1341SOL     OW 4030   3.449   0.779   1.670
 1341SOL    HW1 4031   3.357   0.817   1.665
 1341SOL    HW2 4032   3.509   0.826   1.605
 1342SOL     OW 4033   2.875   0.105   1.770
 1342SOL    HW1 4034   2.881   0.190   1.718
 1342SOL    HW2 4035   2.907   0.029   1.713
 1343SOL     OW 4036   2.366   0.050   1.740
 1343SOL    HW1 4037   2.324  -0.007   1.670
 1343SOL    HW2 4038   2.300   0.119   1.772
 1344SOL     OW 4039   2.435   0.870   1.029
 1344SOL    HW1 4040   2.479   0.959   1.020
 1344SOL    HW2 4041   2.372   0.870   1.106
 1345SOL     OW 4042   3.222   0.862   1.045
 1345SOL    HW1 4043   3.147   0.862   0.979
 1345SOL    HW2 4044   3.259   0.770   1.054
 1346SOL     OW 4045   3.071   0.525   0.275
 1346SOL    HW1 4046   3.084   0.441   0.329
 1346SOL    HW2 4047   3.042   0.599   0.335
 1347SOL     OW 4048   2.169   0.213   1.231
 1347SOL    HW1 4049   2.146   0.250   1.321
 1347SOL    HW2 4050   2.139   0.118   1.225
 1348SOL     OW 4051   1.899   1.310   1.282
 1348SOL    HW1 4052   1.952   1.261   1.350
 1348SOL    HW2 4053   1.921   1.408   1.287
 1349SOL     OW 4054   2.594   0.634   1.064
 1349SOL    HW1 4055   2.653   0.608   0.988
 1349SOL    HW2 4056   2.566   0.730   1.053
 1350SOL     OW 4057   3.590   0.935   1.854
 1350SOL    HW1 4058   3.544   0.928   1.765
 1350SOL    HW2 4059   3.528   0.979   1.920
 1351SOL     OW 4060   2.169   0.063   0.618
 1351SOL    HW1 4061   2.158   0.157   0.651
 1351SOL    HW2 4062   2.164   0.000   0.695
 1352SOL     OW 4063   3.484   0.367   0.374
 1352SOL    HW1 4064   3.486   0.291   0.438
 1352SOL    HW2 4065   3.436   0.444   0.414
 1353SOL     OW 4066   2.885   0.766   0.966
 1353SOL    HW1 4067   2.900   0.787   1.062
 1353SOL    HW2 4068   2.855   0.671   0.957
 1354SOL     OW 4069   2.842   1.573   1.700
 1354SOL    HW1 4070   2.822   1.617   1.612
 1354SOL    HW2 4071   2.881   1.482   1.684
 1355SOL     OW 4072   3.721   1.518   1.605
 1355SOL    HW1 4073   3.735   1.545   1.510
 1355SOL    HW2 4074   3.804   1.540   1.658
 1356SOL     OW 4075   2.212   0.898   1.804
 1356SOL    HW1 4076   2.288   0.942   1.852
 1356SOL    HW2 4077   2.247   0.851   1.722
 1357SOL     OW 4078   3.402   0.274   0.125
 1357SOL    HW1 4079   3.341   0.199   0.148
 1357SOL    HW2 4080   3.424   0.326   0.208
 1358SOL     OW 4081   3.165   0.838   0.042
 1358SOL    HW1 4082   3.199   0.745   0.057
 1358SOL    HW2 4083   3.183   0.865  -0.053
 1359SOL     OW 4084   2.930   1.333   0.849
 1359SOL    HW1 4085   2.937   1.249   0.794
 1359SOL    HW2 4086   2.992   1.402   0.813
 1360SOL     OW 4087   2.181   0.810   0.949
 1360SOL    HW1 4088   2.274   0.846   0.954
 1360SOL    HW2 4089   2.175   0.725   1.001
 1361SOL     OW 4090   2.201   0.509   1.006
 1361SOL    HW1 4091   2.149   0.426   0.989
 1361SOL    HW2 4092   2.278   0.514   0.942
 1362SOL     OW 4093   3.000   0.380   1.678
 1362SOL    HW1 4094   2.955   0.443   1.742
 1362SOL    HW2 4095   3.093   0.411   1.661
 1363SOL     OW 4096   3.022   0.207   1.477
 1363SOL    HW1 4097   3.022   0.271   1.554
 1363SOL    HW2 4098   3.050   0.255   1.394
 1364SOL     OW 4099   1.870   1.326   0.200
 1364SOL    HW1 4100   1.777   1.347   0.169
 1364SOL    HW2 4101   1.880   1.227   0.213
 1365SOL     OW 4102   1.950   1.801   0.927
 1365SOL    HW1 4103   1.908   1.715   0.900
 1365SOL    HW2 4104   2.044   1.804   0.893
 1366SOL     OW 4105   2.366   1.568   0.910
 1366SOL    HW1 4106   2.432   1.642   0.919
 1366SOL    HW2 4107   2.410   1.489   0.868
 1367SOL     OW 4108   2.864   0.796   1.238
 1367SOL    HW1 4109   2.905   0.764   1.324
 1367SOL    HW2 4110   2.768   0.769   1.235
 1368SOL     OW 4111   1.902   0.544   1.114
 1368SOL    HW1 4112   1.987   0.511   1.073
 1368SOL    HW2 4113   1.915   0.559   1.212
 1369SOL     OW 4114   2.051   0.520   1.722
 1369SOL    HW1 4115   2.110   0.480   1.652
 1369SOL    HW2 4116   1.993   0.591   1.681
 1370SOL     OW 4117   3.231   0.950   1.660
 1370SOL    HW1 4118   3.270   1.039   1.680
 1370SOL    HW2 4119   3.241   0.930   1.563
 1371SOL     OW 4120   2.677   0.572   0.325
 1371SOL    HW1 4121   2.684   0.483   0.279
 1371SOL    HW2 4122   2.583   0.606   0.317
 1372SOL     OW 4123   3.519   0.604   1.206
 1372SOL    HW1 4124   3.481   0.535   1.268
 1372SOL    HW2 4125   3.601   0.568   1.162
 1373SOL     OW 4126   2.114   1.564   1.744
 1373SOL    HW1 4127   2.084   1.621   1.820
 1373SOL    HW2 4128   2.107   1.467   1.770
 1374SOL     OW 4129   2.533   0.464   1.269
 1374SOL    HW1 4130   2.499   0.375   1.239
 1374SOL    HW2 4131   2.559   0.518   1.189
 1375SOL     OW 4132   2.792   1.678   1.465
 1375SOL    HW1 4133   2.768   1.660   1.370
 1375SOL    HW2 4134   2.822   1.772   1.475
 1376SOL     OW 4135   2.335   0.500   0.191
 1376SOL    HW1 4136   2.396   0.580   0.195
 1376SOL    HW2 4137   2.240   0.531   0.198
 1377SOL     OW 4138   2.021   1.137   1.466
 1377SOL    HW1 4139   2.043   1.076   1.542
 1377SOL    HW2 4140   2.031   1.088   1.380
 1378SOL     OW 4141   3.209   1.059   1.234
 1378SOL    HW1 4142   3.233   0.996   1.160
 1378SOL    HW2 4143   3.119   1.099   1.216
 1379SOL     OW 4144   3.164   0.855   0.309
 1379SOL    HW1 4145   3.078   0.824   0.351
 1379SOL    HW2 4146   3.160   0.841   0.210
 1380SOL     OW 4147   3.621   1.747   1.154
 1380SOL    HW1 4148   3.682   1.777   1.081
 1380SOL    HW2 4149   3.583   1.658   1.132
 1381SOL     OW 4150   3.114   1.731   1.128
 1381SOL    HW1 4151   3.198   1.736   1.074
 1381SOL    HW2 4152   3.091   1.635   1.146
 1382SOL     OW 4153   1.945   1.258   1.022
 1382SOL    HW1 4154   1.940   1.257   1.122
 1382SOL    HW2 4155   1.862   1.217   0.984
 1383SOL     OW 4156   2.550   1.662   1.716
 1383SOL    HW1 4157   2.494   1.743   1.725
 1383SOL    HW2 4158   2.602   1.666   1.630
 1384SOL     OW 4159   2.765   0.086   0.133
 1384SOL    HW1 4160   2.816   0.087   0.047
 1384SOL    HW2 4161   2.821   0.044   0.204
 1385SOL     OW 4162   3.588   0.135   0.523
 1385SOL    HW1 4163   3.661   0.118   0.456
 1385SOL    HW2 4164   3.557   0.048   0.561
 1386SOL     OW 4165   3.250   1.573   0.477
 1386SOL    HW1 4166   3.317   1.585   0.403
 1386SOL    HW2 4167   3.210   1.662   0.500
 1387SOL     OW 4168   1.992   1.794   1.851
 1387SOL    HW1 4169   1.951   1.720   1.904
 1387SOL    HW2 4170   2.056   1.845   1.909
 1388SOL     OW 4171   3.142   0.927   0.672
 1388SOL    HW1 4172   3.202   0.846   0.674
 1388SOL    HW2 4173   3.182   0.996   0.612
 1389SOL     OW 4174   2.692   1.273   1.422
 1389SOL    HW1 4175   2.687   1.306   1.517
 1389SOL    HW2 4176   2.606   1.292   1.376
 1390SOL     OW 4177   2.534   1.616   0.154
 1390SOL    HW1 4178   2.543   1.626   0.055
 1390SOL    HW2 4179   2.494   1.527   0.175
 1391SOL     OW 4180   3.512   1.720   1.394
 1391SOL    HW1 4181   3.565   1.730   1.310
 1391SOL    HW2 4182   3.485   1.810   1.428
 1392SOL     OW 4183   3.703   0.175   0.963
 1392SOL    HW1 4184   3.742   0.090   0.927
 1392SOL    HW2 4185   3.605   0.177   0.944
 1393SOL     OW 4186   2.125   0.326   0.720
 1393SOL    HW1 4187   2.046   0.377   0.686
 1393SOL    HW2 4188   2.116   0.311   0.818
 1394SOL     OW 4189   3.056   1.612   0.031
 1394SOL    HW1 4190   3.062   1.519   0.068
 1394SOL    HW2 4191   2.997   1.612  -0.049
 1395SOL     OW 4192   2.684   1.002   1.372
 1395SOL    HW1 4193   2.724   1.001   1.280
 1395SOL    HW2 4194   2.694   1.094   1.412
 1396SOL     OW 4195   2.778   0.910   0.291
 1396SOL    HW1 4196   2.841   0.948   0.223
 1396SOL    HW2 4197   2.818   0.827   0.330
 1397SOL     OW 4198   3.366   1.607   0.044
 1397SOL    HW1 4199   3.274   1.644   0.051
 1397SOL    HW2 4200   3.404   1.627  -0.046
 1398SOL     OW 4201   2.234   1.288   1.490
 1398SOL    HW1 4202   2.221   1.381   1.456
 1398SOL    HW2 4203   2.150   1.236   1.477
 1399SOL     OW 4204   3.476   1.292   1.289
 1399SOL    HW1 4205   3.536   1.295   1.369
 1399SOL    HW2 4206   3.401   1.356   1.302
 1400SOL     OW 4207   2.901   1.098   0.696
 1400SOL    HW1 4208   2.831   1.051   0.750
 1400SOL    HW2 4209   2.960   1.030   0.653
 1401SOL     OW 4210   2.876   0.236   0.971
 1401SOL    HW1 4211   2.868   0.200   0.878
 1401SOL    HW2 4212   2.874   0.160   1.036
 1402SOL     OW 4213   2.452   1.487   0.491
 1402SOL    HW1 4214   2.494   1.429   0.421
 1402SOL    HW2 4215   2.408   1.566   0.447
 1403SOL     OW 4216   3.571   0.385   1.381
 1403SOL    HW1 4217   3.644   0.454   1.385
 1403SOL    HW2 4218   3.599   0.310   1.322
 1404SOL     OW 4219   2.117   1.348   0.290
 1404SOL    HW1 4220   2.021   1.349   0.263
 1404SOL    HW2 4221   2.129   1.401   0.374
 1405SOL     OW 4222   1.967   1.013   1.726
 1405SOL    HW1 4223   1.890   0.980   1.780
 1405SOL    HW2 4224   2.052   0.983   1.768
 1406SOL     OW 4225   2.534   0.203   1.489
 1406SOL    HW1 4226   2.624   0.187   1.449
 1406SOL    HW2 4227   2.542   0.208   1.588
 1407SOL     OW 4228   1.937   0.345   0.033
 1407SOL    HW1 4229   1.845   0.317   0.004
 1407SOL    HW2 4230   1.968   0.422  -0.023
 1408SOL     OW 4231   3.302   0.856   1.398
 1408SOL    HW1 4232   3.245   0.908   1.335
 1408SOL    HW2 4233   3.398   0.868   1.374
 1409SOL     OW 4234   3.045   1.335   0.119
 1409SOL    HW1 4235   2.946   1.324   0.121
 1409SOL    HW2 4236   3.079   1.350   0.212
 1410SOL     OW 4237   2.475   0.842   1.431
 1410SOL    HW1 4238   2.531   0.923   1.414
 1410SOL    HW2 4239   2.534   0.762   1.434
 1411SOL     OW 4240   3.355   1.767   0.959
 1411SOL    HW1 4241   3.388   1.831   0.890
 1411SOL    HW2 4242   3.421   1.761   1.034
 1412SOL     OW 4243   2.578   0.565   1.708
 1412SOL    HW1 4244   2.597   0.630   1.782
 1412SOL    HW2 4245   2.638   0.485   1.717
 1413SOL     OW 4246   3.312   1.220   1.633
 1413SOL    HW1 4247   3.303   1.210   1.732
 1413SOL    HW2 4248   3.408   1.213   1.607
 1414SOL     OW 4249   2.252   1.741   1.560
 1414SOL    HW1 4250   2.161   1.782   1.558
 1414SOL    HW2 4251   2.245   1.647   1.592
 1415SOL     OW 4252   3.536   0.883   1.254
 1415SOL    HW1 4253   3.509   0.794   1.217
 1415SOL    HW2 4254   3.537   0.951   1.181
 1416SOL     OW 4255   3.087   0.325   0.449
 1416SOL    HW1 4256   3.152   0.251   0.438
 1416SOL    HW2 4257   3.107   0.375   0.533
 1417SOL     OW 4258   2.456   0.745   0.652
 1417SOL    HW1 4259   2.506   0.830   0.633
 1417SOL    HW2 4260   2.368   0.747   0.604
 1418SOL     OW 4261   3.639   0.342   1.642
 1418SOL    HW1 4262   3.622   0.373   1.548
 1418SOL    HW2 4263   3.555   0.305   1.680
 1419SOL     OW 4264   3.592   0.934   1.517
 1419SOL    HW1 4265   3.630   1.025   1.532
 1419SOL    HW2 4266   3.584   0.917   1.418
 1420SOL     OW 4267   2.721   1.374   0.016
 1420SOL    HW1 4268   2.675   1.389   0.104
 1420SOL    HW2 4269   2.765   1.459  -0.014
 1421SOL     OW 4270   2.523   1.790   0.953
 1421SOL    HW1 4271   2.477   1.878   0.940
 1421SOL    HW2 4272   2.622   1.802   0.946
 1422SOL     OW 4273   2.721   0.956   0.861
 1422SOL    HW1 4274   2.775   0.887   0.909
 1422SOL    HW2 4275   2.689   1.025   0.927
 1423SOL     OW 4276   2.945   0.984   0.087
 1423SOL    HW1 4277   2.922   1.037   0.005
 1423SOL    HW2 4278   3.026   0.928   0.068
 1424SOL     OW 4279   3.723   1.569   0.851
 1424SOL    HW1 4280   3.652   1.557   0.781
 1424SOL    HW2 4281   3.724   1.490   0.911
 1425SOL     OW 4282   2.083   1.314   1.844
 1425SOL    HW1 4283   2.018   1.241   1.823
 1425SOL    HW2 4284   2.087   1.328   1.942
 1426SOL     OW 4285   1.941   1.240   0.653
 1426SOL    HW1 4286   1.940   1.193   0.741
 1426SOL    HW2 4287   2.023   1.212   0.602
 1427SOL     OW 4288   2.534   1.391   1.624
 1427SOL    HW1 4289   2.456   1.341   1.662
 1427SOL    HW2 4290   2.531   1.486   1.655
 1428SOL     OW 4291   3.686   0.192   1.227
 1428SOL    HW1 4292   3.682   0.102   1.271
 1428SOL    HW2 4293   3.689   0.181   1.128
 1429SOL     OW 4294   2.290   0.424   0.520
 1429SOL    HW1 4295   2.320   0.352   0.458
 1429SOL    HW2 4296   2.251   0.384   0.603
 1430SOL     OW 4297   3.567   1.487   1.104
 1430SOL    HW1 4298   3.474   1.462   1.077
 1430SOL    HW2 4299   3.593   1.437   1.186
 1431SOL     OW 4300   2.179   0.547   1.280
 1431SOL    HW1 4301   2.217   0.488   1.352
 1431SOL    HW2 4302   2.219   0.521   1.192
 1432SOL     OW 4303   2.674   1.586   0.687
 1432SOL    HW1 4304   2.706   1.596   0.593
 1432SOL    HW2 4305   2.595   1.524   0.689
 1433SOL     OW 4306   3.286   0.214   1.112
 1433SOL    HW1 4307   3.338   0.149   1.167
 1433SOL    HW2 4308   3.237   0.277   1.173
 1434SOL     OW 4309   2.863   0.034   1.154
 1434SOL    HW1 4310   2.800  -0.038   1.123
 1434SOL    HW2 4311   2.956  -0.002   1.154
 1435SOL     OW 4312   2.632   1.330   0.301
 1435SOL    HW1 4313   2.586   1.243   0.318
 1435SOL    HW2 4314   2.723   1.327   0.342
 1436SOL     OW 4315   2.480   1.567   1.284
 1436SOL    HW1 4316   2.475   1.649   1.341
 1436SOL    HW2 4317   2.569   1.564   1.239
 1437SOL     OW 4318   3.214   0.052   0.168
 1437SOL    HW1 4319   3.249   0.011   0.084
 1437SOL    HW2 4320   3.124   0.014   0.188
 1438SOL     OW 4321   3.162   0.453   0.691
 1438SOL    HW1 4322   3.103   0.533   0.695
 1438SOL    HW2 4323   3.177   0.418   0.784
 1439SOL     OW 4324   3.455   0.221   0.882
 1439SOL    HW1 4325   3.371   0.220   0.936
 1439SOL    HW2 4326   3.457   0.304   0.826
 1440SOL     OW 4327   1.901   1.077   0.300
 1440SOL    HW1 4328   2.000   1.066   0.291
 1440SOL    HW2 4329   1.861   0.991   0.332
 1441SOL     OW 4330   2.737   1.646   0.337
 1441SOL    HW1 4331   2.660   1.611   0.283
 1441SOL    HW2 4332   2.705   1.717   0.399
 1442SOL     OW 4333   2.092   0.628   1.975
 1442SOL    HW1 4334   1.999   0.626   2.012
 1442SOL    HW2 4335   2.093   0.589   1.883
 1443SOL     OW 4336   2.087   0.275   2.858
 1443SOL    HW1 4337   2.122   0.258   2.950
 1443SOL    HW2 4338   1.999   0.230   2.846
 1444SOL     OW 4339   1.881   0.368   2.509
 1444SOL    HW1 4340   1.799   0.411   2.548
 1444SOL    HW2 4341   1.853   0.295   2.446
 1445SOL     OW 4342   2.431   1.275   3.027
 1445SOL    HW1 4343   2.338   1.268   2.990
 1445SOL    HW2 4344   2.442   1.364   3.071
 1446SOL     OW 4345   3.417   1.511   2.565
 1446SOL    HW1 4346   3.360   1.495   2.646
 1446SOL    HW2 4347   3.358   1.521   2.485
 1447SOL     OW 4348   2.997   0.703   2.579
 1447SOL    HW1 4349   3.054   0.781   2.554
 1447SOL    HW2 4350   2.937   0.729   2.655
 1448SOL     OW 4351   3.617   0.607   2.093
 1448SOL    HW1 4352   3.605   0.594   1.994
 1448SOL    HW2 4353   3.587   0.526   2.142
 1449SOL     OW 4354   2.630   1.144   2.885
 1449SOL    HW1 4355   2.552   1.161   2.945
 1449SOL    HW2 4356   2.664   1.231   2.849
 1450SOL     OW 4357   2.712   0.798   3.685
 1450SOL    HW1 4358   2.708   0.874   3.750
 1450SOL    HW2 4359   2.734   0.834   3.594
 1451SOL     OW 4360   2.547   1.012   2.527
 1451SOL    HW1 4361   2.616   0.996   2.597
 1451SOL    HW2 4362   2.474   1.069   2.565
 1452SOL     OW 4363   2.548   1.161   3.665
 1452SOL    HW1 4364   2.608   1.240   3.679
 1452SOL    HW2 4365   2.462   1.192   3.624
 1453SOL     OW 4366   2.197   1.435   2.923
 1453SOL    HW1 4367   2.119   1.404   2.870
 1453SOL    HW2 4368   2.255   1.493   2.866
 1454SOL     OW 4369   3.322   1.505   3.201
 1454SOL    HW1 4370   3.346   1.599   3.227
 1454SOL    HW2 4371   3.306   1.451   3.283
 1455SOL     OW 4372   2.300   0.392   3.361
 1455SOL    HW1 4373   2.382   0.336   3.370
 1455SOL    HW2 4374   2.219   0.334   3.365
 1456SOL     OW 4375   3.465   0.447   2.599
 1456SOL    HW1 4376   3.391   0.493   2.549
 1456SOL    HW2 4377   3.516   0.515   2.652
 1457SOL     OW 4378   2.093   1.713   2.345
 1457SOL    HW1 4379   2.127   1.790   2.399
 1457SOL    HW2 4380   2.137   1.713   2.255
 1458SOL     OW 4381   2.989   1.341   3.552
 1458SOL    HW1 4382   3.036   1.341   3.640
 1458SOL    HW2 4383   2.941   1.254   3.541
 1459SOL     OW 4384   2.092   1.434   2.400
 1459SOL    HW1 4385   2.066   1.530   2.400
 1459SOL    HW2 4386   2.021   1.380   2.445
 1460SOL     OW 4387   2.102   1.091   2.748
 1460SOL    HW1 4388   2.116   1.007   2.800
 1460SOL    HW2 4389   2.047   1.155   2.803
 1461SOL     OW 4390   2.482   1.786   3.301
 1461SOL    HW1 4391   2.390   1.769   3.336
 1461SOL    HW2 4392   2.510   1.878   3.327
 1462SOL     OW 4393   2.468   0.964   1.985
 1462SOL    HW1 4394   2.475   1.048   1.931
 1462SOL    HW2 4395   2.514   0.977   2.073
 1463SOL     OW 4396   3.456   0.114   3.342
 1463SOL    HW1 4397   3.438   0.181   3.270
 1463SOL    HW2 4398   3.453   0.160   3.431
 1464SOL     OW 4399   1.984   0.643   2.425
 1464SOL    HW1 4400   1.939   0.555   2.442
 1464SOL    HW2 4401   1.983   0.697   2.509
 1465SOL     OW 4402   3.704   1.767   2.221
 1465SOL    HW1 4403   3.758   1.738   2.301
 1465SOL    HW2 4404   3.734   1.857   2.192
 1466SOL     OW 4405   1.889   1.596   1.979
 1466SOL    HW1 4406   1.870   1.500   2.000
 1466SOL    HW2 4407   1.856   1.654   2.054
 1467SOL     OW 4408   3.551   0.922   2.474
 1467SOL    HW1 4409   3.646   0.893   2.482
 1467SOL    HW2 4410   3.543   0.987   2.399
 1468SOL     OW 4411   3.503   1.108   2.294
 1468SOL    HW1 4412   3.589   1.110   2.242
 1468SOL    HW2 4413   3.517   1.155   2.382
 1469SOL     OW 4414   1.975   0.737   3.459
 1469SOL    HW1 4415   2.063   0.724   3.504
 1469SOL    HW2 4416   1.962   0.834   3.437
 1470SOL     OW 4417   2.475   1.365   2.588
 1470SOL    HW1 4418   2.426   1.278   2.597
 1470SOL    HW2 4419   2.452   1.408   2.501
 1471SOL     OW 4420   3.155   1.228   3.285
 1471SOL    HW1 4421   3.192   1.155   3.227
 1471SOL    HW2 4422   3.207   1.233   3.370
 1472SOL     OW 4423   2.671   0.004   2.364
 1472SOL    HW1 4424   2.711   0.095   2.355
 1472SOL    HW2 4425   2.571   0.012   2.370
 1473SOL     OW 4426   2.059   0.976   3.126
 1473SOL    HW1 4427   2.148   0.931   3.112
 1473SOL    HW2 4428   1.986   0.911   3.107
 1474SOL     OW 4429   3.387   0.999   2.052
 1474SOL    HW1 4430   3.324   0.923   2.065
 1474SOL    HW2 4431   3.435   1.017   2.138
 1475SOL     OW 4432   3.049   1.792   3.478
 1475SOL    HW1 4433   3.073   1.852   3.402
 1475SOL    HW2 4434   3.056   1.697   3.448
 1476SOL     OW 4435   2.179   0.251   3.663
 1476SOL    HW1 4436   2.250   0.322   3.669
 1476SOL    HW2 4437   2.091   0.290   3.691
 1477SOL     OW 4438   3.328   1.417   2.815
 1477SOL    HW1 4439   3.269   1.423   2.895
 1477SOL    HW2 4440   3.313   1.329   2.769
 1478SOL     OW 4441   3.529   1.714   2.434
 1478SOL    HW1 4442   3.488   1.691   2.346
 1478SOL    HW2 4443   3.511   1.640   2.499
 1479SOL     OW 4444   2.460   0.729   2.132
 1479SOL    HW1 4445   2.484   0.798   2.064
 1479SOL    HW2 4446   2.382   0.762   2.186
 1480SOL     OW 4447   3.143   0.345   2.806
 1480SOL    HW1 4448   3.057   0.295   2.793
 1480SOL    HW2 4449   3.205   0.291   2.862
 1481SOL     OW 4450   3.438   1.662   2.169
 1481SOL    HW1 4451   3.527   1.708   2.172
 1481SOL    HW2 4452   3.417   1.638   2.074
 1482SOL     OW 4453   2.669   0.605   3.327
 1482SOL    HW1 4454   2.622   0.602   3.416
 1482SOL    HW2 4455   2.618   0.550   3.261
 1483SOL     OW 4456   3.256   0.469   3.536
 1483SOL    HW1 4457   3.236   0.512   3.624
 1483SOL    HW2 4458   3.334   0.407   3.545
 1484SOL     OW 4459   2.835   0.890   3.434
 1484SOL    HW1 4460   2.881   0.806   3.405
 1484SOL    HW2 4461   2.779   0.924   3.359
 1485SOL     OW 4462   2.853   0.410   3.104
 1485SOL    HW1 4463   2.776   0.444   3.158
 1485SOL    HW2 4464   2.819   0.359   3.025
 1486SOL     OW 4465   2.903   0.701   2.291
 1486SOL    HW1 4466   2.929   0.697   2.387
 1486SOL    HW2 4467   2.818   0.650   2.277
 1487SOL     OW 4468   1.938   0.811   2.651
 1487SOL    HW1 4469   2.037   0.799   2.660
 1487SOL    HW2 4470   1.914   0.906   2.672
 1488SOL     OW 4471   1.992   1.821   3.433
 1488SOL    HW1 4472   1.982   1.806   3.532
 1488SOL    HW2 4473   1.906   1.857   3.397
 1489SOL     OW 4474   2.727   0.348   2.057
 1489SOL    HW1 4475   2.786   0.411   2.008
 1489SOL    HW2 4476   2.746   0.254   2.028
 1490SOL     OW 4477   3.581   0.585   3.693
 1490SOL    HW1 4478   3.555   0.674   3.657
 1490SOL    HW2 4479   3.579   0.517   3.620
 1491SOL     OW 4480   3.224   1.144   2.407
 1491SOL    HW1 4481   3.307   1.115   2.359
 1491SOL    HW2 4482   3.175   1.211   2.351
 1492SOL     OW 4483   2.412   0.196   2.747
 1492SOL    HW1 4484   2.407   0.191   2.847
 1492SOL    HW2 4485   2.414   0.292   2.718
 1493SOL     OW 4486   2.870   1.456   2.339
 1493SOL    HW1 4487   2.824   1.528   2.287
 1493SOL    HW2 4488   2.866   1.476   2.437
 1494SOL     OW 4489   2.213   1.801   2.715
 1494SOL    HW1 4490   2.263   1.715   2.721
 1494SOL    HW2 4491   2.278   1.878   2.712
 1495SOL     OW 4492   3.657   1.066   2.735
 1495SOL    HW1 4493   3.595   1.051   2.659
 1495SOL    HW2 4494   3.605   1.077   2.820
 1496SOL     OW 4495   3.089   1.550   3.368
 1496SOL    HW1 4496   3.095   1.473   3.432
 1496SOL    HW2 4497   3.037   1.524   3.288
 1497SOL     OW 4498   2.183   0.943   2.104
 1497SOL    HW1 4499   2.265   0.982   2.062
 1497SOL    HW2 4500   2.156   0.861   2.055
 1498SOL     OW 4501   3.320   0.735   2.590
 1498SOL    HW1 4502   3.315   0.670   2.665
 1498SOL    HW2 4503   3.400   0.794   2.603
 1499SOL     OW 4504   2.323   1.266   3.589
 1499SOL    HW1 4505   2.273   1.267   3.503
 1499SOL    HW2 4506   2.260   1.248   3.665
 1500SOL     OW 4507   2.973   1.776   2.099
 1500SOL    HW1 4508   2.913   1.714   2.149
 1500SOL    HW2 4509   3.004   1.732   2.014
 1501SOL     OW 4510   2.064   0.285   3.360
 1501SOL    HW1 4511   1.984   0.345   3.347
 1501SOL    HW2 4512   2.054   0.236   3.446
 1502SOL     OW 4513   3.494   1.377   1.943
 1502SOL    HW1 4514   3.462   1.471   1.933
 1502SOL    HW2 4515   3.418   1.314   1.931
 1503SOL     OW 4516   2.326   1.743   2.185
 1503SOL    HW1 4517   2.359   1.782   2.271
 1503SOL    HW2 4518   2.402   1.736   2.120
 1504SOL     OW 4519   3.262   0.107   2.288
 1504SOL    HW1 4520   3.238   0.070   2.198
 1504SOL    HW2 4521   3.361   0.123   2.292
 1505SOL     OW 4522   2.111   1.785   3.103
 1505SOL    HW1 4523   2.168   1.720   3.153
 1505SOL    HW2 4524   2.095   1.752   3.010
 1506SOL     OW 4525   2.802   1.698   2.766
 1506SOL    HW1 4526   2.882   1.641   2.787
 1506SOL    HW2 4527   2.753   1.658   2.689
 1507SOL     OW 4528   2.244   0.700   2.342
 1507SOL    HW1 4529   2.289   0.610   2.339
 1507SOL    HW2 4530   2.150   0.689   2.375
 1508SOL     OW 4531   3.409   0.222   3.591
 1508SOL    HW1 4532   3.404   0.259   3.683
 1508SOL    HW2 4533   3.337   0.153   3.579
 1509SOL     OW 4534   2.476   0.122   1.979
 1509SOL    HW1 4535   2.574   0.100   1.986
 1509SOL    HW2 4536   2.445   0.105   1.886
 1510SOL     OW 4537   2.643   0.264   3.611
 1510SOL    HW1 4538   2.710   0.203   3.654
 1510SOL    HW2 4539   2.570   0.283   3.676
 1511SOL     OW 4540   2.750   1.514   3.057
 1511SOL    HW1 4541   2.727   1.489   2.963
 1511SOL    HW2 4542   2.811   1.445   3.096
 1512SOL     OW 4543   3.213   0.590   3.295
 1512SOL    HW1 4544   3.241   0.547   3.380
 1512SOL    HW2 4545   3.238   0.686   3.296
 1513SOL     OW 4546   2.665   1.402   2.786
 1513SOL    HW1 4547   2.755   1.416   2.744
 1513SOL    HW2 4548   2.594   1.404   2.715
 1514SOL     OW 4549   2.784   0.503   2.761
 1514SOL    HW1 4550   2.759   0.494   2.665
 1514SOL    HW2 4551   2.832   0.421   2.792
 1515SOL     OW 4552   2.401   0.064   2.374
 1515SOL    HW1 4553   2.320   0.065   2.432
 1515SOL    HW2 4554   2.404   0.147   2.319
 1516SOL     OW 4555   3.296   1.188   1.903
 1516SOL    HW1 4556   3.328   1.112   1.960
 1516SOL    HW2 4557   3.204   1.215   1.933
 1517SOL     OW 4558   2.159   0.035   2.033
 1517SOL    HW1 4559   2.208   0.119   2.012
 1517SOL    HW2 4560   2.221  -0.030   2.078
 1518SOL     OW 4561   2.797   0.236   2.342
 1518SOL    HW1 4562   2.749   0.277   2.264
 1518SOL    HW2 4563   2.896   0.234   2.323
 1519SOL     OW 4564   2.938   0.683   3.326
 1519SOL    HW1 4565   2.858   0.622   3.329
 1519SOL    HW2 4566   3.019   0.630   3.302
 1520SOL     OW 4567   3.089   1.570   2.655
 1520SOL    HW1 4568   3.110   1.644   2.590
 1520SOL    HW2 4569   3.157   1.570   2.728
 1521SOL     OW 4570   2.321   1.152   2.603
 1521SOL    HW1 4571   2.250   1.125   2.668
 1521SOL    HW2 4572   2.295   1.124   2.510
 1522SOL     OW 4573   3.133   1.797   2.453
 1522SOL    HW1 4574   3.177   1.861   2.389
 1522SOL    HW2 4575   3.083   1.849   2.523
 1523SOL     OW 4576   2.894   0.549   1.878
 1523SOL    HW1 4577   2.853   0.631   1.839
 1523SOL    HW2 4578   2.958   0.575   1.951
 1524SOL     OW 4579   1.940   0.556   3.248
 1524SOL    HW1 4580   2.032   0.555   3.207
 1524SOL    HW2 4581   1.934   0.630   3.315
 1525SOL     OW 4582   2.423   0.222   3.009
 1525SOL    HW1 4583   2.461   0.138   3.046
 1525SOL    HW2 4584   2.335   0.241   3.053
 1526SOL     OW 4585   2.728   0.454   2.504
 1526SOL    HW1 4586   2.696   0.526   2.442
 1526SOL    HW2 4587   2.752   0.373   2.451
 1527SOL     OW 4588   2.879   0.039   2.615
 1527SOL    HW1 4589   2.807   0.044   2.546
 1527SOL    HW2 4590   2.855  -0.030   2.684
 1528SOL     OW 4591   3.291   1.173   2.729
 1528SOL    HW1 4592   3.236   1.089   2.722
 1528SOL    HW2 4593   3.317   1.202   2.637
 1529SOL     OW 4594   3.328   0.590   2.854
 1529SOL    HW1 4595   3.298   0.495   2.861
 1529SOL    HW2 4596   3.401   0.606   2.920
 1530SOL     OW 4597   3.719   0.833   2.239
 1530SOL    HW1 4598   3.761   0.769   2.303
 1530SOL    HW2 4599   3.681   0.782   2.161
 1531SOL     OW 4600   2.350   1.385   2.036
 1531SOL    HW1 4601   2.263   1.370   2.083
 1531SOL    HW2 4602   2.333   1.411   1.941
 1532SOL     OW 4603   3.526   1.280   2.519
 1532SOL    HW1 4604   3.625   1.288   2.533
 1532SOL    HW2 4605   3.481   1.364   2.550
 1533SOL     OW 4606   3.252   0.575   1.940
 1533SOL    HW1 4607   3.198   0.554   2.021
 1533SOL    HW2 4608   3.343   0.534   1.949
 1534SOL     OW 4609   2.389   0.256   2.190
 1534SOL    HW1 4610   2.416   0.197   2.115
 1534SOL    HW2 4611   2.389   0.351   2.159
 1535SOL     OW 4612   3.616   1.223   3.450
 1535SOL    HW1 4613   3.707   1.184   3.437
 1535SOL    HW2 4614   3.624   1.319   3.474
 1536SOL     OW 4615   2.926   1.347   3.202
 1536SOL    HW1 4616   2.846   1.324   3.257
 1536SOL    HW2 4617   3.009   1.321   3.251
 1537SOL     OW 4618   3.454   1.629   3.487
 1537SOL    HW1 4619   3.481   1.663   3.397
 1537SOL    HW2 4620   3.533   1.591   3.533
 1538SOL     OW 4621   2.973   1.195   2.962
 1538SOL    HW1 4622   2.933   1.239   3.043
 1538SOL    HW2 4623   2.932   1.232   2.879
 1539SOL     OW 4624   3.500   1.099   2.941
 1539SOL    HW1 4625   3.505   1.180   3.000
 1539SOL    HW2 4626   3.414   1.101   2.890
 1540SOL     OW 4627   2.777   0.089   3.264
 1540SOL    HW1 4628   2.802   0.069   3.169
 1540SOL    HW2 4629   2.849   0.145   3.306
 1541SOL     OW 4630   2.842   1.116   3.581
 1541SOL    HW1 4631   2.743   1.122   3.591
 1541SOL    HW2 4632   2.865   1.036   3.525
 1542SOL     OW 4633   2.567   1.050   2.230
 1542SOL    HW1 4634   2.553   1.057   2.329
 1542SOL    HW2 4635   2.651   0.999   2.212
 1543SOL     OW 4636   2.272   0.813   3.113
 1543SOL    HW1 4637   2.358   0.825   3.163
 1543SOL    HW2 4638   2.230   0.726   3.140
 1544SOL     OW 4639   3.136   0.386   3.124
 1544SOL    HW1 4640   3.157   0.460   3.188
 1544SOL    HW2 4641   3.047   0.403   3.081
 1545SOL     OW 4642   1.926   1.564   3.193
 1545SOL    HW1 4643   1.880   1.646   3.159
 1545SOL    HW2 4644   2.024   1.583   3.202
 1546SOL     OW 4645   2.229   1.100   2.363
 1546SOL    HW1 4646   2.222   1.183   2.307
 1546SOL    HW2 4647   2.233   1.020   2.303
 1547SOL     OW 4648   2.428   0.537   2.727
 1547SOL    HW1 4649   2.440   0.603   2.653
 1547SOL    HW2 4650   2.474   0.571   2.810
 1548SOL     OW 4651   3.114   1.348   2.250
 1548SOL    HW1 4652   3.164   1.425   2.290
 1548SOL    HW2 4653   3.019   1.350   2.282
 1549SOL     OW 4654   3.134   1.445   3.004
 1549SOL    HW1 4655   3.181   1.458   3.091
 1549SOL    HW2 4656   3.068   1.371   3.013
 1550SOL     OW 4657   3.444   0.639   2.334
 1550SOL    HW1 4658   3.413   0.700   2.407
 1550SOL    HW2 4659   3.494   0.691   2.265
 1551SOL     OW 4660   2.216   1.510   3.191
 1551SOL    HW1 4661   2.195   1.466   3.104
 1551SOL    HW2 4662   2.313   1.536   3.194
 1552SOL     OW 4663   2.264   0.751   3.460
 1552SOL    HW1 4664   2.332   0.806   3.413
 1552SOL    HW2 4665   2.304   0.663   3.487
 1553SOL     OW 4666   3.449   0.779   3.532
 1553SOL    HW1 4667   3.357   0.817   3.527
 1553SOL    HW2 4668   3.509   0.826   3.467
 1554SOL     OW 4669   2.875   0.105   3.632
 1554SOL    HW1 4670   2.881   0.190   3.580
 1554SOL    HW2 4671   2.907   0.029   3.575
 1555SOL     OW 4672   2.366   0.050   3.602
 1555SOL    HW1 4673   2.324  -0.007   3.532
 1555SOL    HW2 4674   2.300   0.119   3.634
 1556SOL     OW 4675   2.435   0.870   2.891
 1556SOL    HW1 4676   2.479   0.959   2.882
 1556SOL    HW2 4677   2.372   0.870   2.968
 1557SOL     OW 4678   3.222   0.862   2.907
 1557SOL    HW1 4679   3.147   0.862   2.841
 1557SOL    HW2 4680   3.259   0.770   2.916
 1558SOL     OW 4681   3.071   0.525   2.137
 1558SOL    HW1 4682   3.084   0.441   2.191
 1558SOL    HW2 4683   3.042   0.599   2.197
 1559SOL     OW 4684   2.169   0.213   3.093
 1559SOL    HW1 4685   2.146   0.250   3.183
 1559SOL    HW2 4686   2.139   0.118   3.087
 1560SOL     OW 4687   1.899   1.310   3.144
 1560SOL    HW1 4688   1.952   1.261   3.212
 1560SOL    HW2 4689   1.921   1.408   3.149
 1561SOL     OW 4690   2.594   0.634   2.926
 1561SOL    HW1 4691   2.653   0.608   2.850
 1561SOL    HW2 4692   2.566   0.730   2.915
 1562SOL     OW 4693   3.590   0.935   3.716
 1562SOL    HW1 4694   3.544   0.928   3.627
 1562SOL    HW2 4695   3.528   0.979   3.782
 1563SOL     OW 4696   2.169   0.063   2.480
 1563SOL    HW1 4697   2.158   0.157   2.513
 1563SOL    HW2 4698   2.164   0.000   2.557
 1564SOL     OW 4699   3.484   0.367   2.236
 1564SOL    HW1 4700   3.486   0.291   2.300
 1564SOL    HW2 4701   3.436   0.444   2.276
 1565SOL     OW 4702   2.885   0.766   2.828
 1565SOL    HW1 4703   2.900   0.787   2.924
 1565SOL    HW2 4704   2.855   0.671   2.819
 1566SOL     OW 4705   2.842   1.573   3.562
 1566SOL    HW1 4706   2.822   1.617   3.474
 1566SOL    HW2 4707   2.881   1.482   3.546
 1567SOL     OW 4708   3.721   1.518   3.467
 1567SOL    HW1 4709   3.735   1.545   3.372
 1567SOL    HW2 4710   3.804   1.540   3.520
 1568SOL     OW 4711   2.212   0.898   3.666
 1568SOL    HW1 4712   2.288   0.942   3.714
 1568SOL    HW2 4713   2.247   0.851   3.584
 1569SOL     OW 4714   3.402   0.274   1.987
 1569SOL    HW1 4715   3.341   0.199   2.010
 1569SOL    HW2 4716   3.424   0.326   2.070
 1570SOL     OW 4717   3.165   0.838   1.904
 1570SOL    HW1 4718   3.199   0.745   1.919
 1570SOL    HW2 4719   3.183   0.865   1.809
 1571SOL     OW 4720   2.930   1.333   2.711
 1571SOL    HW1 4721   2.937   1.249   2.656
 1571SOL    HW2 4722   2.992   1.402   2.675
 1572SOL     OW 4723   2.181   0.810   2.811
 1572SOL    HW1 4724   2.274   0.846   2.816
 1572SOL    HW2 4725   2.175   0.725   2.863
 1573SOL     OW 4726   2.201   0.509   2.868
 1573SOL    HW1 4727   2.149   0.426   2.851
 1573SOL    HW2 4728   2.278   0.514   2.804
 1574SOL     OW 4729   3.000   0.380   3.540
 1574SOL    HW1 4730   2.955   0.443   3.604
 1574SOL    HW2 4731   3.093   0.411   3.523
 1575SOL     OW 4732   3.022   0.207   3.339
 1575SOL    HW1 4733   3.022   0.271   3.416
 1575SOL    HW2 4734   3.050   0.255   3.256
 1576SOL     OW 4735   1.870   1.326   2.062
 1576SOL    HW1 4736   1.777   1.347   2.031
 1576SOL    HW2 4737   1.880   1.227   2.075
 1577SOL     OW 4738   1.950   1.801   2.789
 1577SOL    HW1 4739   1.908   1.715   2.762
 1577SOL    HW2 4740   2.044   1.804   2.755
 1578SOL     OW 4741   2.366   1.568   2.772
 1578SOL    HW1 4742   2.432   1.642   2.781
 1578SOL    HW2 4743   2.410   1.489   2.730
 1579SOL     OW 4744   2.864   0.796   3.100
 1579SOL    HW1 4745   2.905   0.764   3.186
 1579SOL    HW2 4746   2.768   0.769   3.097
 1580SOL     OW 4747   1.902   0.544   2.976
 1580SOL    HW1 4748   1.987   0.511   2.935
 1580SOL    HW2 4749   1.915   0.559   3.074
 1581SOL     OW 4750   2.051   0.520   3.584
 1581SOL    HW1 4751   2.110   0.480   3.514
 1581SOL    HW2 4752   1.993   0.591   3.543
 1582SOL     OW 4753   3.231   0.950   3.522
 1582SOL    HW1 4754   3.270   1.039   3.542
 1582SOL    HW2 4755   3.241   0.930   3.425
 1583SOL     OW 4756   2.677   0.572   2.187
 1583SOL    HW1 4757   2.684   0.483   2.141
 1583SOL    HW2 4758   2.583   0.606   2.179
 1584SOL     OW 4759   3.519   0.604   3.068
 1584SOL    HW1 4760   3.481   0.535   3.130
 1584SOL    HW2 4761   3.601   0.568   3.024
 1585SOL     OW 4762   2.114   1.564   3.606
 1585SOL    HW1 4763   2.084   1.621   3.682
 1585SOL    HW2 4764   2.107   1.467   3.632
 1586SOL     OW 4765   2.533   0.464   3.131
 1586SOL    HW1 4766   2.499   0.375   3.101
 1586SOL    HW2 4767   2.559   0.518   3.051
 1587SOL     OW 4768   2.792   1.678   3.327
 1587SOL    HW1 4769   2.768   1.660   3.232
 1587SOL    HW2 4770   2.822   1.772   3.337
 1588SOL     OW 4771   2.335   0.500   2.053
 1588SOL    HW1 4772   2.396   0.580   2.057
 1588SOL    HW2 4773   2.240   0.531   2.060
 1589SOL     OW 4774   2.021   1.137   3.328
 1589SOL    HW1 4775   2.043   1.076   3.404
 1589SOL    HW2 4776   2.031   1.088   3.242
 1590SOL     OW 4777   3.209   1.059   3.096
 1590SOL    HW1 4778   3.233   0.996   3.022
 1590SOL    HW2 4779   3.119   1.099   3.078
 1591SOL     OW 4780   3.164   0.855   2.171
 1591SOL    HW1 4781   3.078   0.824   2.213
 1591SOL    HW2 4782   3.160   0.841   2.072
 1592SOL     OW 4783   3.621   1.747   3.016
 1592SOL    HW1 4784   3.682   1.777   2.943
 1592SOL    HW2 4785   3.583   1.658   2.994
 1593SOL     OW 4786   3.114   1.731   2.990
 1593SOL    HW1 4787   3.198   1.736   2.936
 1593SOL    HW2 4788   3.091   1.635   3.008
 1594SOL     OW 4789   1.945   1.258   2.884
 1594SOL    HW1 4790   1.940   1.257   2.984
 1594SOL    HW2 4791   1.862   1.217   2.846
 1595SOL     OW 4792   2.550   1.662   3.578
 1595SOL    HW1 4793   2.494   1.743   3.587
 1595SOL    HW2 4794   2.602   1.666   3.492
 1596SOL     OW 4795   3.588   0.135   2.385
 1596SOL    HW1 4796   3.661   0.118   2.318
 1596SOL    HW2 4797   3.557   0.048   2.423
 1597SOL     OW 4798   3.250   1.573   2.339
 1597SOL    HW1 4799   3.317   1.585   2.265
 1597SOL    HW2 4800   3.210   1.662   2.362
 1598SOL     OW 4801   1.992   1.794   3.713
 1598SOL    HW1 4802   1.951   1.720   3.766
 1598SOL    HW2 4803   2.056   1.845   3.771
 1599SOL     OW 4804   3.142   0.927   2.534
 1599SOL    HW1 4805   3.202   0.846   2.536
 1599SOL    HW2 4806   3.182   0.996   2.474
 1600SOL     OW 4807   2.692   1.273   3.284
 1600SOL    HW1 4808   2.687   1.306   3.379
 1600SOL    HW2 4809   2.606   1.292   3.238
 1601SOL     OW 4810   2.534   1.616   2.016
 1601SOL    HW1 4811   2.543   1.626   1.917
 1601SOL    HW2 4812   2.494   1.527   2.037
 1602SOL     OW 4813   3.512   1.720   3.256
 1602SOL    HW1 4814   3.565   1.730   3.172
 1602SOL    HW2 4815   3.485   1.810   3.290
 1603SOL     OW 4816   3.703   0.175   2.825
 1603SOL    HW1 4817   3.742   0.090   2.789
 1603SOL    HW2 4818   3.605   0.177   2.806
 1604SOL     OW 4819   2.125   0.326   2.582
 1604SOL    HW1 4820   2.046   0.377   2.548
 1604SOL    HW2 4821   2.116   0.311   2.680
 1605SOL     OW 4822   3.056   1.612   1.893
 1605SOL    HW1 4823   3.062   1.519   1.930
 1605SOL    HW2 4824   2.997   1.612   1.813
 1606SOL     OW 4825   2.684   1.002   3.234
 1606SOL    HW1 4826   2.724   1.001   3.142
 1606SOL    HW2 4827   2.694   1.094   3.274
 1607SOL     OW 4828   2.778   0.910   2.153
 1607SOL    HW1 4829   2.841   0.948   2.085
 1607SOL    HW2 4830   2.818   0.827   2.192
 1608SOL     OW 4831   3.366   1.607   1.906
 1608SOL    HW1 4832   3.274   1.644   1.913
 1608SOL    HW2 4833   3.404   1.627   1.816
 1609SOL     OW 4834   2.234   1.288   3.352
 1609SOL    HW1 4835   2.221   1.381   3.318
 1609SOL    HW2 4836   2.150   1.236   3.339
 1610SOL     OW 4837   3.476   1.292   3.151
 1610SOL    HW1 4838   3.536   1.295   3.231
 1610SOL    HW2 4839   3.401   1.356   3.164
 1611SOL     OW 4840   2.901   1.098   2.558
 1611SOL    HW1 4841   2.831   1.051   2.612
 1611SOL    HW2 4842   2.960   1.030   2.515
 1612SOL     OW 4843   2.876   0.236   2.833
 1612SOL    HW1 4844   2.868   0.200   2.740
 1612SOL    HW2 4845   2.874   0.160   2.898
 1613SOL     OW 4846   2.452   1.487   2.353
 1613SOL    HW1 4847   2.494   1.429   2.283
 1613SOL    HW2 4848   2.408   1.566   2.309
 1614SOL     OW 4849   3.571   0.385   3.243
 1614SOL    HW1 4850   3.644   0.454   3.247
 1614SOL    HW2 4851   3.599   0.310   3.184
 1615SOL     OW 4852   2.117   1.348   2.152
 1615SOL    HW1 4853   2.021   1.349   2.125
 1615SOL    HW2 4854   2.129   1.401   2.236
 1616SOL     OW 4855   1.967   1.013   3.588
 1616SOL    HW1 4856   1.890   0.980   3.642
 1616SOL    HW2 4857   2.052   0.983   3.630
 1617SOL     OW 4858   2.534   0.203   3.351
 1617SOL    HW1 4859   2.624   0.187   3.311
 1617SOL    HW2 4860   2.542   0.208   3.450
 1618SOL     OW 4861   1.937   0.345   1.895
 1618SOL    HW1 4862   1.845   0.317   1.866
 1618SOL    HW2 4863   1.968   0.422   1.839
 1619SOL     OW 4864   3.302   0.856   3.260
 1619SOL    HW1 4865   3.245   0.908   3.197
 1619SOL    HW2 4866   3.398   0.868   3.236
 1620SOL     OW 4867   1.934   0.166   2.180
 1620SOL    HW1 4868   1.917   0.249   2.126
 1620SOL    HW2 4869   2.024   0.129   2.158
 1621SOL     OW 4870   3.045   1.335   1.981
 1621SOL    HW1 4871   2.946   1.324   1.983
 1621SOL    HW2 4872   3.079   1.350   2.074
 1622SOL     OW 4873   2.475   0.842   3.293
 1622SOL    HW1 4874   2.531   0.923   3.276
 1622SOL    HW2 4875   2.534   0.762   3.296
 1623SOL     OW 4876   3.355   1.767   2.821
 1623SOL    HW1 4877   3.388   1.831   2.752
 1623SOL    HW2 4878   3.421   1.761   2.896
 1624SOL     OW 4879   2.578   0.565   3.570
 1624SOL    HW1 4880   2.597   0.630   3.644
 1624SOL    HW2 4881   2.638   0.485   3.579
 1625SOL     OW 4882   3.312   1.220   3.495
 1625SOL    HW1 4883   3.303   1.210   3.594
 1625SOL    HW2 4884   3.408   1.213   3.469
 1626SOL     OW 4885   2.252   1.741   3.422
 1626SOL    HW1 4886   2.161   1.782   3.420
 1626SOL    HW2 4887   2.245   1.647   3.454
 1627SOL     OW 4888   3.536   0.883   3.116
 1627SOL    HW1 4889   3.509   0.794   3.079
 1627SOL    HW2 4890   3.537   0.951   3.043
 1628SOL     OW 4891   3.087   0.325   2.311
 1628SOL    HW1 4892   3.152   0.251   2.300
 1628SOL    HW2 4893   3.107   0.375   2.395
 1629SOL     OW 4894   2.456   0.745   2.514
 1629SOL    HW1 4895   2.506   0.830   2.495
 1629SOL    HW2 4896   2.368   0.747   2.466
 1630SOL     OW 4897   3.639   0.342   3.504
 1630SOL    HW1 4898   3.622   0.373   3.410
 1630SOL    HW2 4899   3.555   0.305   3.542
 1631SOL     OW 4900   3.592   0.934   3.379
 1631SOL    HW1 4901   3.630   1.025   3.394
 1631SOL    HW2 4902   3.584   0.917   3.280
 1632SOL     OW 4903   2.721   1.374   1.878
 1632SOL    HW1 4904   2.675   1.389   1.966
 1632SOL    HW2 4905   2.765   1.459   1.848
 1633SOL     OW 4906   2.523   1.790   2.815
 1633SOL    HW1 4907   2.477   1.878   2.802
 1633SOL    HW2 4908   2.622   1.802   2.808
 1634SOL     OW 4909   2.721   0.956   2.723
 1634SOL    HW1 4910   2.775   0.887   2.771
 1634SOL    HW2 4911   2.689   1.025   2.789
 1635SOL     OW 4912   2.945   0.984   1.949
 1635SOL    HW1 4913   2.922   1.037   1.867
 1635SOL    HW2 4914   3.026   0.928   1.930
 1636SOL     OW 4915   3.723   1.569   2.713
 1636SOL    HW1 4916   3.652   1.557   2.643
 1636SOL    HW2 4917   3.724   1.490   2.773
 1637SOL     OW 4918   2.083   1.314   3.706
 1637SOL    HW1 4919   2.018   1.241   3.685
 1637SOL    HW2 4920   2.087   1.328   3.804
 1638SOL     OW 4921   1.941   1.240   2.515
 1638SOL    HW1 4922   1.940   1.193   2.603
 1638SOL    HW2 4923   2.023   1.212   2.464
 1639SOL     OW 4924   2.534   1.391   3.486
 1639SOL    HW1 4925   2.456   1.341   3.524
 1639SOL    HW2 4926   2.531   1.486   3.517
 1640SOL     OW 4927   3.686   0.192   3.089
 1640SOL    HW1 4928   3.682   0.102   3.133
 1640SOL    HW2 4929   3.689   0.181   2.990
 1641SOL     OW 4930   2.290   0.424   2.382
 1641SOL    HW1 4931   2.320   0.352   2.320
 1641SOL    HW2 4932   2.251   0.384   2.465
 1642SOL     OW 4933   3.567   1.487   2.966
 1642SOL    HW1 4934   3.474   1.462   2.939
 1642SOL    HW2 4935   3.593   1.437   3.048
 1643SOL     OW 4936   2.179   0.547   3.142
 1643SOL    HW1 4937   2.217   0.488   3.214
 1643SOL    HW2 4938   2.219   0.521   3.054
 1644SOL     OW 4939   2.674   1.586   2.549
 1644SOL    HW1 4940   2.706   1.596   2.455
 1644SOL    HW2 4941   2.595   1.524   2.551
 1645SOL     OW 4942   3.286   0.214   2.974
 1645SOL    HW1 4943   3.338   0.149   3.029
 1645SOL    HW2 4944   3.237   0.277   3.035
 1646SOL     OW 4945   2.863   0.034   3.016
 1646SOL    HW1 4946   2.800  -0.038   2.985
 1646SOL    HW2 4947   2.956  -0.002   3.016
 1647SOL     OW 4948   2.632   1.330   2.163
 1647SOL    HW1 4949   2.586   1.243   2.180
 1647SOL    HW2 4950   2.723   1.327   2.204
 1648SOL     OW 4951   2.480   1.567   3.146
 1648SOL    HW1 4952   2.475   1.649   3.203
 1648SOL    HW2 4953   2.569   1.564   3.101
 1649SOL     OW 4954   3.214   0.052   2.030
 1649SOL    HW1 4955   3.249   0.011   1.946
 1649SOL    HW2 4956   3.124   0.014   2.050
 1650SOL     OW 4957   3.162   0.453   2.553
 1650SOL    HW1 4958   3.103   0.533   2.557
 1650SOL    HW2 4959   3.177   0.418   2.646
 1651SOL     OW 4960   3.455   0.221   2.744
 1651SOL    HW1 4961   3.371   0.220   2.798
 1651SOL    HW2 4962   3.457   0.304   2.688
 1652SOL     OW 4963   1.901   1.077   2.162
 1652SOL    HW1 4964   2.000   1.066   2.153
 1652SOL    HW2 4965   1.861   0.991   2.194
 1653SOL     OW 4966   2.737   1.646   2.199
 1653SOL    HW1 4967   2.660   1.611   2.145
 1653SOL    HW2 4968   2.705   1.717   2.261
 1654SOL     OW 4969   2.092   0.628   3.837
 1654SOL    HW1 4970   1.999   0.626   3.874
 1654SOL    HW2 4971   2.093   0.589   3.745
 1655SOL     OW 4972   2.087   0.275   4.720
 1655SOL    HW1 4973   2.122   0.258   4.812
 1655SOL    HW2 4974   1.999   0.230   4.708
 1656SOL     OW 4975   2.997   0.703   4.441
 1656SOL    HW1 4976   3.054   0.781   4.416
 1656SOL    HW2 4977   2.937   0.729   4.517
 1657SOL     OW 4978   3.617   0.607   3.955
 1657SOL    HW1 4979   3.605   0.594   3.856
 1657SOL    HW2 4980   3.587   0.526   4.004
 1658SOL     OW 4981   3.465   0.447   4.461
 1658SOL    HW1 4982   3.391   0.493   4.411
 1658SOL    HW2 4983   3.516   0.515   4.514
 1659SOL     OW 4984   2.093   1.713   4.207
 1659SOL    HW1 4985   2.127   1.790   4.261
 1659SOL    HW2 4986   2.137   1.713   4.117
 1660SOL     OW 4987   2.092   1.434   4.262
 1660SOL    HW1 4988   2.066   1.530   4.262
 1660SOL    HW2 4989   2.021   1.380   4.307
 1661SOL     OW 4990   2.468   0.964   3.847
 1661SOL    HW1 4991   2.475   1.048   3.793
 1661SOL    HW2 4992   2.514   0.977   3.935
 1662SOL     OW 4993   1.984   0.643   4.287
 1662SOL    HW1 4994   1.939   0.555   4.304
 1662SOL    HW2 4995   1.983   0.697   4.371
 1663SOL     OW 4996   3.704   1.767   4.083
 1663SOL    HW1 4997   3.758   1.738   4.163
 1663SOL    HW2 4998   3.734   1.857   4.054
 1664SOL     OW 4999   1.889   1.596   3.841
 1664SOL    HW1 5000   1.870   1.500   3.862
 1664SOL    HW2 5001   1.856   1.654   3.916
 1665SOL     OW 5002   3.551   0.922   4.336
 1665SOL    HW1 5003   3.646   0.893   4.344
 1665SOL    HW2 5004   3.543   0.987   4.261
 1666SOL     OW 5005   3.503   1.108   4.156
 1666SOL    HW1 5006   3.589   1.110   4.104
 1666SOL    HW2 5007   3.517   1.155   4.244
 1667SOL     OW 5008   2.475   1.365   4.450
 1667SOL    HW1 5009   2.426   1.278   4.459
 1667SOL    HW2 5010   2.452   1.408   4.363
 1668SOL     OW 5011   2.671   0.004   4.226
 1668SOL    HW1 5012   2.711   0.095   4.217
 1668SOL    HW2 5013   2.571   0.012   4.232
 1669SOL     OW 5014   3.387   0.999   3.914
 1669SOL    HW1 5015   3.324   0.923   3.927
 1669SOL    HW2 5016   3.435   1.017   4.000
 1670SOL     OW 5017   3.529   1.714   4.296
 1670SOL    HW1 5018   3.488   1.691   4.208
 1670SOL    HW2 5019   3.511   1.640   4.361
 1671SOL     OW 5020   2.460   0.729   3.994
 1671SOL    HW1 5021   2.484   0.798   3.926
 1671SOL    HW2 5022   2.382   0.762   4.048
 1672SOL     OW 5023   3.143   0.345   4.668
 1672SOL    HW1 5024   3.057   0.295   4.655
 1672SOL    HW2 5025   3.205   0.291   4.724
 1673SOL     OW 5026   3.438   1.662   4.031
 1673SOL    HW1 5027   3.527   1.708   4.034
 1673SOL    HW2 5028   3.417   1.638   3.936
 1674SOL     OW 5029   2.903   0.701   4.153
 1674SOL    HW1 5030   2.929   0.697   4.249
 1674SOL    HW2 5031   2.818   0.650   4.139
 1675SOL     OW 5032   1.938   0.811   4.513
 1675SOL    HW1 5033   2.037   0.799   4.522
 1675SOL    HW2 5034   1.914   0.906   4.534
 1676SOL     OW 5035   2.727   0.348   3.919
 1676SOL    HW1 5036   2.786   0.411   3.870
 1676SOL    HW2 5037   2.746   0.254   3.890
 1677SOL     OW 5038   3.224   1.144   4.269
 1677SOL    HW1 5039   3.307   1.115   4.221
 1677SOL    HW2 5040   3.175   1.211   4.213
 1678SOL     OW 5041   2.870   1.456   4.201
 1678SOL    HW1 5042   2.824   1.528   4.149
 1678SOL    HW2 5043   2.866   1.476   4.299
 1679SOL     OW 5044   2.213   1.801   4.577
 1679SOL    HW1 5045   2.263   1.715   4.583
 1679SOL    HW2 5046   2.278   1.878   4.574
 1680SOL     OW 5047   3.657   1.066   4.597
 1680SOL    HW1 5048   3.595   1.051   4.521
 1680SOL    HW2 5049   3.605   1.077   4.682
 1681SOL     OW 5050   2.183   0.943   3.966
 1681SOL    HW1 5051   2.265   0.982   3.924
 1681SOL    HW2 5052   2.156   0.861   3.917
 1682SOL     OW 5053   2.973   1.776   3.961
 1682SOL    HW1 5054   2.913   1.714   4.011
 1682SOL    HW2 5055   3.004   1.732   3.876
 1683SOL     OW 5056   3.494   1.377   3.805
 1683SOL    HW1 5057   3.462   1.471   3.795
 1683SOL    HW2 5058   3.418   1.314   3.793
 1684SOL     OW 5059   2.326   1.743   4.047
 1684SOL    HW1 5060   2.359   1.782   4.133
 1684SOL    HW2 5061   2.402   1.736   3.982
 1685SOL     OW 5062   3.262   0.107   4.150
 1685SOL    HW1 5063   3.238   0.070   4.060
 1685SOL    HW2 5064   3.361   0.123   4.154
 1686SOL     OW 5065   2.802   1.698   4.628
 1686SOL    HW1 5066   2.882   1.641   4.649
 1686SOL    HW2 5067   2.753   1.658   4.551
 1687SOL     OW 5068   2.244   0.700   4.204
 1687SOL    HW1 5069   2.289   0.610   4.201
 1687SOL    HW2 5070   2.150   0.689   4.237
 1688SOL     OW 5071   2.476   0.122   3.841
 1688SOL    HW1 5072   2.574   0.100   3.848
 1688SOL    HW2 5073   2.445   0.105   3.748
 1689SOL     OW 5074   2.401   0.064   4.236
 1689SOL    HW1 5075   2.320   0.065   4.294
 1689SOL    HW2 5076   2.404   0.147   4.181
 1690SOL     OW 5077   3.296   1.188   3.765
 1690SOL    HW1 5078   3.328   1.112   3.822
 1690SOL    HW2 5079   3.204   1.215   3.795
 1691SOL     OW 5080   2.159   0.035   3.895
 1691SOL    HW1 5081   2.208   0.119   3.874
 1691SOL    HW2 5082   2.221  -0.030   3.940
 1692SOL     OW 5083   2.797   0.236   4.204
 1692SOL    HW1 5084   2.749   0.277   4.126
 1692SOL    HW2 5085   2.896   0.234   4.185
 1693SOL     OW 5086   2.321   1.152   4.465
 1693SOL    HW1 5087   2.250   1.125   4.530
 1693SOL    HW2 5088   2.295   1.124   4.372
 1694SOL     OW 5089   3.133   1.797   4.315
 1694SOL    HW1 5090   3.177   1.861   4.251
 1694SOL    HW2 5091   3.083   1.849   4.385
 1695SOL     OW 5092   2.894   0.549   3.740
 1695SOL    HW1 5093   2.853   0.631   3.701
 1695SOL    HW2 5094   2.958   0.575   3.813
 1696SOL     OW 5095   2.728   0.454   4.366
 1696SOL    HW1 5096   2.696   0.526   4.304
 1696SOL    HW2 5097   2.752   0.373   4.313
 1697SOL     OW 5098   3.719   0.833   4.101
 1697SOL    HW1 5099   3.761   0.769   4.165
 1697SOL    HW2 5100   3.681   0.782   4.023
 1698SOL     OW 5101   2.350   1.385   3.898
 1698SOL    HW1 5102   2.263   1.370   3.945
 1698SOL    HW2 5103   2.333   1.411   3.803
 1699SOL     OW 5104   3.526   1.280   4.381
 1699SOL    HW1 5105   3.625   1.288   4.395
 1699SOL    HW2 5106   3.481   1.364   4.412
 1700SOL     OW 5107   3.252   0.575   3.802
 1700SOL    HW1 5108   3.198   0.554   3.883
 1700SOL    HW2 5109   3.343   0.534   3.811
 1701SOL     OW 5110   2.389   0.256   4.052
 1701SOL    HW1 5111   2.416   0.197   3.977
 1701SOL    HW2 5112   2.389   0.351   4.021
 1702SOL     OW 5113   2.973   1.195   4.824
 1702SOL    HW1 5114   2.933   1.239   4.905
 1702SOL    HW2 5115   2.932   1.232   4.741
 1703SOL     OW 5116   2.567   1.050   4.092
 1703SOL    HW1 5117   2.553   1.057   4.191
 1703SOL    HW2 5118   2.651   0.999   4.074
 1704SOL     OW 5119   2.229   1.100   4.225
 1704SOL    HW1 5120   2.222   1.183   4.169
 1704SOL    HW2 5121   2.233   1.020   4.165
 1705SOL     OW 5122   3.114   1.348   4.112
 1705SOL    HW1 5123   3.164   1.425   4.152
 1705SOL    HW2 5124   3.019   1.350   4.144
 1706SOL     OW 5125   3.444   0.639   4.196
 1706SOL    HW1 5126   3.413   0.700   4.269
 1706SOL    HW2 5127   3.494   0.691   4.127
 1707SOL     OW 5128   3.071   0.525   3.999
 1707SOL    HW1 5129   3.084   0.441   4.053
 1707SOL    HW2 5130   3.042   0.599   4.059
 1708SOL     OW 5131   2.169   0.063   4.342
 1708SOL    HW1 5132   2.158   0.157   4.375
 1708SOL    HW2 5133   2.164   0.000   4.419
 1709SOL     OW 5134   3.484   0.367   4.098
 1709SOL    HW1 5135   3.486   0.291   4.162
 1709SOL    HW2 5136   3.436   0.444   4.138
 1710SOL     OW 5137   3.402   0.274   3.849
 1710SOL    HW1 5138   3.341   0.199   3.872
 1710SOL    HW2 5139   3.424   0.326   3.932
 1711SOL     OW 5140   3.165   0.838   3.766
 1711SOL    HW1 5141   3.199   0.745   3.781
 1711SOL    HW2 5142   3.183   0.865   3.671
 1712SOL     OW 5143   1.870   1.326   3.924
 1712SOL    HW1 5144   1.777   1.347   3.893
 1712SOL    HW2 5145   1.880   1.227   3.937
 1713SOL     OW 5146   2.677   0.572   4.049
 1713SOL    HW1 5147   2.684   0.483   4.003
 1713SOL    HW2 5148   2.583   0.606   4.041
 1714SOL     OW 5149   2.335   0.500   3.915
 1714SOL    HW1 5150   2.396   0.580   3.919
 1714SOL    HW2 5151   2.240   0.531   3.922
 1715SOL     OW 5152   3.164   0.855   4.033
 1715SOL    HW1 5153   3.078   0.824   4.075
 1715SOL    HW2 5154   3.160   0.841   3.934
 1716SOL     OW 5155   3.588   0.135   4.247
 1716SOL    HW1 5156   3.661   0.118   4.180
 1716SOL    HW2 5157   3.557   0.048   4.285
 1717SOL     OW 5158   3.250   1.573   4.201
 1717SOL    HW1 5159   3.317   1.585   4.127
 1717SOL    HW2 5160   3.210   1.662   4.224
 1718SOL     OW 5161   2.534   1.616   3.878
 1718SOL    HW1 5162   2.543   1.626   3.779
 1718SOL    HW2 5163   2.494   1.527   3.899
 1719SOL     OW 5164   3.703   0.175   4.687
 1719SOL    HW1 5165   3.742   0.090   4.651
 1719SOL    HW2 5166   3.605   0.177   4.668
 1720SOL     OW 5167   3.056   1.612   3.755
 1720SOL    HW1 5168   3.062   1.519   3.792
 1720SOL    HW2 5169   2.997   1.612   3.675
 1721SOL     OW 5170   2.778   0.910   4.015
 1721SOL    HW1 5171   2.841   0.948   3.947
 1721SOL    HW2 5172   2.818   0.827   4.054
 1722SOL     OW 5173   3.366   1.607   3.768
 1722SOL    HW1 5174   3.274   1.644   3.775
 1722SOL    HW2 5175   3.404   1.627   3.678
 1723SOL     OW 5176   2.452   1.487   4.215
 1723SOL    HW1 5177   2.494   1.429   4.145
 1723SOL    HW2 5178   2.408   1.566   4.171
 1724SOL     OW 5179   2.117   1.348   4.014
 1724SOL    HW1 5180   2.021   1.349   3.987
 1724SOL    HW2 5181   2.129   1.401   4.098
 1725SOL     OW 5182   1.937   0.345   3.757
 1725SOL    HW1 5183   1.845   0.317   3.728
 1725SOL    HW2 5184   1.968   0.422   3.701
 1726SOL     OW 5185   1.934   0.166   4.042
 1726SOL    HW1 5186   1.917   0.249   3.988
 1726SOL    HW2 5187   2.024   0.129   4.020
 1727SOL     OW 5188   3.045   1.335   3.843
 1727SOL    HW1 5189   2.946   1.324   3.845
 1727SOL    HW2 5190   3.079   1.350   3.936
 1728SOL     OW 5191   3.087   0.325   4.173
 1728SOL    HW1 5192   3.152   0.251   4.162
 1728SOL    HW2 5193   3.107   0.375   4.257
 1729SOL     OW 5194   2.456   0.745   4.376
 1729SOL    HW1 5195   2.506   0.830   4.357
 1729SOL    HW2 5196   2.368   0.747   4.328
 1730SOL     OW 5197   2.721   1.374   3.740
 1730SOL    HW1 5198   2.675   1.389   3.828
 1730SOL    HW2 5199   2.765   1.459   3.710
 1731SOL     OW 5200   2.945   0.984   3.811
 1731SOL    HW1 5201   2.922   1.037   3.729
 1731SOL    HW2 5202   3.026   0.928   3.792
 1732SOL     OW 5203   1.941   1.240   4.377
 1732SOL    HW1 5204   1.940   1.193   4.465
 1732SOL    HW2 5205   2.023   1.212   4.326
 1733SOL     OW 5206   2.290   0.424   4.244
 1733SOL    HW1 5207   2.320   0.352   4.182
 1733SOL    HW2 5208   2.251   0.384   4.327
 1734SOL     OW 5209   2.674   1.586   4.411
 1734SOL    HW1 5210   2.706   1.596   4.317
 1734SOL    HW2 5211   2.595   1.524   4.413
 1735SOL     OW 5212   2.632   1.330   4.025
 1735SOL    HW1 5213   2.586   1.243   4.042
 1735SOL    HW2 5214   2.723   1.327   4.066
 1736SOL     OW 5215   3.214   0.052   3.892
 1736SOL    HW1 5216   3.249   0.011   3.808
 1736SOL    HW2 5217   3.124   0.014   3.912
 1737SOL     OW 5218   3.162   0.453   4.415
 1737SOL    HW1 5219   3.103   0.533   4.419
 1737SOL    HW2 5220   3.177   0.418   4.508
 1738SOL     OW 5221   1.901   1.077   4.024
 1738SOL    HW1 5222   2.000   1.066   4.015
 1738SOL    HW2 5223   1.861   0.991   4.056
 1739SOL     OW 5224   2.737   1.646   4.061
 1739SOL    HW1 5225   2.660   1.611   4.007
 1739SOL    HW2 5226   2.705   1.717   4.123
 1740SOL     OW 5227   2.092   2.490   0.113
 1740SOL    HW1 5228   1.999   2.488   0.150
 1740SOL    HW2 5229   2.093   2.451   0.021
 1741SOL     OW 5230   2.087   2.137   0.996
 1741SOL    HW1 5231   2.122   2.120   1.088
 1741SOL    HW2 5232   1.999   2.092   0.984
 1742SOL     OW 5233   1.881   2.230   0.647
 1742SOL    HW1 5234   1.799   2.273   0.686
 1742SOL    HW2 5235   1.853   2.157   0.584
 1743SOL     OW 5236   2.431   3.137   1.165
 1743SOL    HW1 5237   2.338   3.130   1.128
 1743SOL    HW2 5238   2.442   3.226   1.209
 1744SOL     OW 5239   3.417   3.373   0.703
 1744SOL    HW1 5240   3.360   3.357   0.784
 1744SOL    HW2 5241   3.358   3.383   0.623
 1745SOL     OW 5242   2.997   2.565   0.717
 1745SOL    HW1 5243   3.054   2.643   0.692
 1745SOL    HW2 5244   2.937   2.591   0.793
 1746SOL     OW 5245   3.617   2.469   0.231
 1746SOL    HW1 5246   3.605   2.456   0.132
 1746SOL    HW2 5247   3.587   2.388   0.280
 1747SOL     OW 5248   2.630   3.006   1.023
 1747SOL    HW1 5249   2.552   3.023   1.083
 1747SOL    HW2 5250   2.664   3.093   0.987
 1748SOL     OW 5251   2.712   2.660   1.823
 1748SOL    HW1 5252   2.708   2.736   1.888
 1748SOL    HW2 5253   2.734   2.696   1.732
 1749SOL     OW 5254   2.547   2.874   0.665
 1749SOL    HW1 5255   2.616   2.858   0.735
 1749SOL    HW2 5256   2.474   2.931   0.703
 1750SOL     OW 5257   2.548   3.023   1.803
 1750SOL    HW1 5258   2.608   3.102   1.817
 1750SOL    HW2 5259   2.462   3.054   1.762
 1751SOL     OW 5260   2.197   3.297   1.061
 1751SOL    HW1 5261   2.119   3.266   1.008
 1751SOL    HW2 5262   2.255   3.355   1.004
 1752SOL     OW 5263   3.322   3.367   1.339
 1752SOL    HW1 5264   3.346   3.461   1.365
 1752SOL    HW2 5265   3.306   3.313   1.421
 1753SOL     OW 5266   2.300   2.254   1.499
 1753SOL    HW1 5267   2.382   2.198   1.508
 1753SOL    HW2 5268   2.219   2.196   1.503
 1754SOL     OW 5269   3.465   2.309   0.737
 1754SOL    HW1 5270   3.391   2.355   0.687
 1754SOL    HW2 5271   3.516   2.377   0.790
 1755SOL     OW 5272   2.093   3.575   0.483
 1755SOL    HW1 5273   2.127   3.652   0.537
 1755SOL    HW2 5274   2.137   3.575   0.393
 1756SOL     OW 5275   2.989   3.203   1.690
 1756SOL    HW1 5276   3.036   3.203   1.778
 1756SOL    HW2 5277   2.941   3.116   1.679
 1757SOL     OW 5278   2.092   3.296   0.538
 1757SOL    HW1 5279   2.066   3.392   0.538
 1757SOL    HW2 5280   2.021   3.242   0.583
 1758SOL     OW 5281   2.102   2.953   0.886
 1758SOL    HW1 5282   2.116   2.869   0.938
 1758SOL    HW2 5283   2.047   3.017   0.941
 1759SOL     OW 5284   2.482   3.648   1.439
 1759SOL    HW1 5285   2.390   3.631   1.474
 1759SOL    HW2 5286   2.510   3.740   1.465
 1760SOL     OW 5287   2.468   2.826   0.123
 1760SOL    HW1 5288   2.475   2.910   0.069
 1760SOL    HW2 5289   2.514   2.839   0.211
 1761SOL     OW 5290   3.456   1.976   1.480
 1761SOL    HW1 5291   3.438   2.043   1.408
 1761SOL    HW2 5292   3.453   2.022   1.569
 1762SOL     OW 5293   1.984   2.505   0.563
 1762SOL    HW1 5294   1.939   2.417   0.580
 1762SOL    HW2 5295   1.983   2.559   0.647
 1763SOL     OW 5296   3.704   3.629   0.359
 1763SOL    HW1 5297   3.758   3.600   0.439
 1763SOL    HW2 5298   3.734   3.719   0.330
 1764SOL     OW 5299   1.889   3.458   0.117
 1764SOL    HW1 5300   1.870   3.362   0.138
 1764SOL    HW2 5301   1.856   3.516   0.192
 1765SOL     OW 5302   3.551   2.784   0.612
 1765SOL    HW1 5303   3.646   2.755   0.620
 1765SOL    HW2 5304   3.543   2.849   0.537
 1766SOL     OW 5305   3.503   2.970   0.432
 1766SOL    HW1 5306   3.589   2.972   0.380
 1766SOL    HW2 5307   3.517   3.017   0.520
 1767SOL     OW 5308   1.975   2.599   1.597
 1767SOL    HW1 5309   2.063   2.586   1.642
 1767SOL    HW2 5310   1.962   2.696   1.575
 1768SOL     OW 5311   2.475   3.227   0.726
 1768SOL    HW1 5312   2.426   3.140   0.735
 1768SOL    HW2 5313   2.452   3.270   0.639
 1769SOL     OW 5314   3.155   3.090   1.423
 1769SOL    HW1 5315   3.192   3.017   1.365
 1769SOL    HW2 5316   3.207   3.095   1.508
 1770SOL     OW 5317   2.671   1.866   0.502
 1770SOL    HW1 5318   2.711   1.957   0.493
 1770SOL    HW2 5319   2.571   1.874   0.508
 1771SOL     OW 5320   2.059   2.838   1.264
 1771SOL    HW1 5321   2.148   2.793   1.250
 1771SOL    HW2 5322   1.986   2.773   1.245
 1772SOL     OW 5323   3.387   2.861   0.190
 1772SOL    HW1 5324   3.324   2.785   0.203
 1772SOL    HW2 5325   3.435   2.879   0.276
 1773SOL     OW 5326   3.049   3.654   1.616
 1773SOL    HW1 5327   3.073   3.714   1.540
 1773SOL    HW2 5328   3.056   3.559   1.586
 1774SOL     OW 5329   2.179   2.113   1.801
 1774SOL    HW1 5330   2.250   2.184   1.807
 1774SOL    HW2 5331   2.091   2.152   1.829
 1775SOL     OW 5332   3.328   3.279   0.953
 1775SOL    HW1 5333   3.269   3.285   1.033
 1775SOL    HW2 5334   3.313   3.191   0.907
 1776SOL     OW 5335   3.529   3.576   0.572
 1776SOL    HW1 5336   3.488   3.553   0.484
 1776SOL    HW2 5337   3.511   3.502   0.637
 1777SOL     OW 5338   2.460   2.591   0.270
 1777SOL    HW1 5339   2.484   2.660   0.202
 1777SOL    HW2 5340   2.382   2.624   0.324
 1778SOL     OW 5341   3.143   2.207   0.944
 1778SOL    HW1 5342   3.057   2.157   0.931
 1778SOL    HW2 5343   3.205   2.153   1.000
 1779SOL     OW 5344   3.438   3.524   0.307
 1779SOL    HW1 5345   3.527   3.570   0.310
 1779SOL    HW2 5346   3.417   3.500   0.212
 1780SOL     OW 5347   2.669   2.467   1.465
 1780SOL    HW1 5348   2.622   2.464   1.554
 1780SOL    HW2 5349   2.618   2.412   1.399
 1781SOL     OW 5350   3.256   2.331   1.674
 1781SOL    HW1 5351   3.236   2.374   1.762
 1781SOL    HW2 5352   3.334   2.269   1.683
 1782SOL     OW 5353   2.835   2.752   1.572
 1782SOL    HW1 5354   2.881   2.668   1.543
 1782SOL    HW2 5355   2.779   2.786   1.497
 1783SOL     OW 5356   2.853   2.272   1.242
 1783SOL    HW1 5357   2.776   2.306   1.296
 1783SOL    HW2 5358   2.819   2.221   1.163
 1784SOL     OW 5359   2.903   2.563   0.429
 1784SOL    HW1 5360   2.929   2.559   0.525
 1784SOL    HW2 5361   2.818   2.512   0.415
 1785SOL     OW 5362   1.938   2.673   0.789
 1785SOL    HW1 5363   2.037   2.661   0.798
 1785SOL    HW2 5364   1.914   2.768   0.810
 1786SOL     OW 5365   1.992   3.683   1.571
 1786SOL    HW1 5366   1.982   3.668   1.670
 1786SOL    HW2 5367   1.906   3.719   1.535
 1787SOL     OW 5368   2.727   2.210   0.195
 1787SOL    HW1 5369   2.786   2.273   0.146
 1787SOL    HW2 5370   2.746   2.116   0.166
 1788SOL     OW 5371   3.581   2.447   1.831
 1788SOL    HW1 5372   3.555   2.536   1.795
 1788SOL    HW2 5373   3.579   2.379   1.758
 1789SOL     OW 5374   3.224   3.006   0.545
 1789SOL    HW1 5375   3.307   2.977   0.497
 1789SOL    HW2 5376   3.175   3.073   0.489
 1790SOL     OW 5377   2.412   2.058   0.885
 1790SOL    HW1 5378   2.407   2.053   0.985
 1790SOL    HW2 5379   2.414   2.154   0.856
 1791SOL     OW 5380   2.870   3.318   0.477
 1791SOL    HW1 5381   2.824   3.390   0.425
 1791SOL    HW2 5382   2.866   3.338   0.575
 1792SOL     OW 5383   2.213   3.663   0.853
 1792SOL    HW1 5384   2.263   3.577   0.859
 1792SOL    HW2 5385   2.278   3.740   0.850
 1793SOL     OW 5386   3.657   2.928   0.873
 1793SOL    HW1 5387   3.595   2.913   0.797
 1793SOL    HW2 5388   3.605   2.939   0.958
 1794SOL     OW 5389   3.089   3.412   1.506
 1794SOL    HW1 5390   3.095   3.335   1.570
 1794SOL    HW2 5391   3.037   3.386   1.426
 1795SOL     OW 5392   2.183   2.805   0.242
 1795SOL    HW1 5393   2.265   2.844   0.200
 1795SOL    HW2 5394   2.156   2.723   0.193
 1796SOL     OW 5395   3.320   2.597   0.728
 1796SOL    HW1 5396   3.315   2.532   0.803
 1796SOL    HW2 5397   3.400   2.656   0.741
 1797SOL     OW 5398   2.323   3.128   1.727
 1797SOL    HW1 5399   2.273   3.129   1.641
 1797SOL    HW2 5400   2.260   3.110   1.803
 1798SOL     OW 5401   2.973   3.638   0.237
 1798SOL    HW1 5402   2.913   3.576   0.287
 1798SOL    HW2 5403   3.004   3.594   0.152
 1799SOL     OW 5404   2.064   2.147   1.498
 1799SOL    HW1 5405   1.984   2.207   1.485
 1799SOL    HW2 5406   2.054   2.098   1.584
 1800SOL     OW 5407   3.494   3.239   0.081
 1800SOL    HW1 5408   3.462   3.333   0.071
 1800SOL    HW2 5409   3.418   3.176   0.069
 1801SOL     OW 5410   2.326   3.605   0.323
 1801SOL    HW1 5411   2.359   3.644   0.409
 1801SOL    HW2 5412   2.402   3.598   0.258
 1802SOL     OW 5413   3.262   1.969   0.426
 1802SOL    HW1 5414   3.238   1.932   0.336
 1802SOL    HW2 5415   3.361   1.985   0.430
 1803SOL     OW 5416   2.111   3.647   1.241
 1803SOL    HW1 5417   2.168   3.582   1.291
 1803SOL    HW2 5418   2.095   3.614   1.148
 1804SOL     OW 5419   2.802   3.560   0.904
 1804SOL    HW1 5420   2.882   3.503   0.925
 1804SOL    HW2 5421   2.753   3.520   0.827
 1805SOL     OW 5422   2.244   2.562   0.480
 1805SOL    HW1 5423   2.289   2.472   0.477
 1805SOL    HW2 5424   2.150   2.551   0.513
 1806SOL     OW 5425   3.409   2.084   1.729
 1806SOL    HW1 5426   3.404   2.121   1.821
 1806SOL    HW2 5427   3.337   2.015   1.717
 1807SOL     OW 5428   2.476   1.984   0.117
 1807SOL    HW1 5429   2.574   1.962   0.124
 1807SOL    HW2 5430   2.445   1.967   0.024
 1808SOL     OW 5431   2.643   2.126   1.749
 1808SOL    HW1 5432   2.710   2.065   1.792
 1808SOL    HW2 5433   2.570   2.145   1.814
 1809SOL     OW 5434   2.750   3.376   1.195
 1809SOL    HW1 5435   2.727   3.351   1.101
 1809SOL    HW2 5436   2.811   3.307   1.234
 1810SOL     OW 5437   3.213   2.452   1.433
 1810SOL    HW1 5438   3.241   2.409   1.518
 1810SOL    HW2 5439   3.238   2.548   1.434
 1811SOL     OW 5440   2.665   3.264   0.924
 1811SOL    HW1 5441   2.755   3.278   0.882
 1811SOL    HW2 5442   2.594   3.266   0.853
 1812SOL     OW 5443   2.784   2.365   0.899
 1812SOL    HW1 5444   2.759   2.356   0.803
 1812SOL    HW2 5445   2.832   2.283   0.930
 1813SOL     OW 5446   2.401   1.926   0.512
 1813SOL    HW1 5447   2.320   1.927   0.570
 1813SOL    HW2 5448   2.404   2.009   0.457
 1814SOL     OW 5449   3.296   3.050   0.041
 1814SOL    HW1 5450   3.328   2.974   0.098
 1814SOL    HW2 5451   3.204   3.077   0.071
 1815SOL     OW 5452   2.797   2.098   0.480
 1815SOL    HW1 5453   2.749   2.139   0.402
 1815SOL    HW2 5454   2.896   2.096   0.461
 1816SOL     OW 5455   2.938   2.545   1.464
 1816SOL    HW1 5456   2.858   2.484   1.467
 1816SOL    HW2 5457   3.019   2.492   1.440
 1817SOL     OW 5458   3.089   3.432   0.793
 1817SOL    HW1 5459   3.110   3.506   0.728
 1817SOL    HW2 5460   3.157   3.432   0.866
 1818SOL     OW 5461   2.321   3.014   0.741
 1818SOL    HW1 5462   2.250   2.987   0.806
 1818SOL    HW2 5463   2.295   2.986   0.648
 1819SOL     OW 5464   3.133   3.659   0.591
 1819SOL    HW1 5465   3.177   3.723   0.527
 1819SOL    HW2 5466   3.083   3.711   0.661
 1820SOL     OW 5467   2.894   2.411   0.016
 1820SOL    HW1 5468   2.853   2.493  -0.023
 1820SOL    HW2 5469   2.958   2.437   0.089
 1821SOL     OW 5470   1.940   2.418   1.386
 1821SOL    HW1 5471   2.032   2.417   1.345
 1821SOL    HW2 5472   1.934   2.492   1.453
 1822SOL     OW 5473   2.423   2.084   1.147
 1822SOL    HW1 5474   2.461   2.000   1.184
 1822SOL    HW2 5475   2.335   2.103   1.191
 1823SOL     OW 5476   2.728   2.316   0.642
 1823SOL    HW1 5477   2.696   2.388   0.580
 1823SOL    HW2 5478   2.752   2.235   0.589
 1824SOL     OW 5479   2.879   1.901   0.753
 1824SOL    HW1 5480   2.807   1.906   0.684
 1824SOL    HW2 5481   2.855   1.832   0.822
 1825SOL     OW 5482   3.291   3.035   0.867
 1825SOL    HW1 5483   3.236   2.951   0.860
 1825SOL    HW2 5484   3.317   3.064   0.775
 1826SOL     OW 5485   3.328   2.452   0.992
 1826SOL    HW1 5486   3.298   2.357   0.999
 1826SOL    HW2 5487   3.401   2.468   1.058
 1827SOL     OW 5488   3.719   2.695   0.377
 1827SOL    HW1 5489   3.761   2.631   0.441
 1827SOL    HW2 5490   3.681   2.644   0.299
 1828SOL     OW 5491   2.350   3.247   0.174
 1828SOL    HW1 5492   2.263   3.232   0.221
 1828SOL    HW2 5493   2.333   3.273   0.079
 1829SOL     OW 5494   3.526   3.142   0.657
 1829SOL    HW1 5495   3.625   3.150   0.671
 1829SOL    HW2 5496   3.481   3.226   0.688
 1830SOL     OW 5497   3.252   2.437   0.078
 1830SOL    HW1 5498   3.198   2.416   0.159
 1830SOL    HW2 5499   3.343   2.396   0.087
 1831SOL     OW 5500   2.389   2.118   0.328
 1831SOL    HW1 5501   2.416   2.059   0.253
 1831SOL    HW2 5502   2.389   2.213   0.297
 1832SOL     OW 5503   3.616   3.085   1.588
 1832SOL    HW1 5504   3.707   3.046   1.575
 1832SOL    HW2 5505   3.624   3.181   1.612
 1833SOL     OW 5506   2.926   3.209   1.340
 1833SOL    HW1 5507   2.846   3.186   1.395
 1833SOL    HW2 5508   3.009   3.183   1.389
 1834SOL     OW 5509   3.454   3.491   1.625
 1834SOL    HW1 5510   3.481   3.525   1.535
 1834SOL    HW2 5511   3.533   3.453   1.671
 1835SOL     OW 5512   2.973   3.057   1.100
 1835SOL    HW1 5513   2.933   3.101   1.181
 1835SOL    HW2 5514   2.932   3.094   1.017
 1836SOL     OW 5515   3.500   2.961   1.079
 1836SOL    HW1 5516   3.505   3.042   1.138
 1836SOL    HW2 5517   3.414   2.963   1.028
 1837SOL     OW 5518   2.777   1.951   1.402
 1837SOL    HW1 5519   2.802   1.931   1.307
 1837SOL    HW2 5520   2.849   2.007   1.444
 1838SOL     OW 5521   2.842   2.978   1.719
 1838SOL    HW1 5522   2.743   2.984   1.729
 1838SOL    HW2 5523   2.865   2.898   1.663
 1839SOL     OW 5524   2.567   2.912   0.368
 1839SOL    HW1 5525   2.553   2.919   0.467
 1839SOL    HW2 5526   2.651   2.861   0.350
 1840SOL     OW 5527   2.272   2.675   1.251
 1840SOL    HW1 5528   2.358   2.687   1.301
 1840SOL    HW2 5529   2.230   2.588   1.278
 1841SOL     OW 5530   3.136   2.248   1.262
 1841SOL    HW1 5531   3.157   2.322   1.326
 1841SOL    HW2 5532   3.047   2.265   1.219
 1842SOL     OW 5533   1.926   3.426   1.331
 1842SOL    HW1 5534   1.880   3.508   1.297
 1842SOL    HW2 5535   2.024   3.445   1.340
 1843SOL     OW 5536   2.229   2.962   0.501
 1843SOL    HW1 5537   2.222   3.045   0.445
 1843SOL    HW2 5538   2.233   2.882   0.441
 1844SOL     OW 5539   2.428   2.399   0.865
 1844SOL    HW1 5540   2.440   2.465   0.791
 1844SOL    HW2 5541   2.474   2.433   0.948
 1845SOL     OW 5542   3.114   3.210   0.388
 1845SOL    HW1 5543   3.164   3.287   0.428
 1845SOL    HW2 5544   3.019   3.212   0.420
 1846SOL     OW 5545   3.134   3.307   1.142
 1846SOL    HW1 5546   3.181   3.320   1.229
 1846SOL    HW2 5547   3.068   3.233   1.151
 1847SOL     OW 5548   3.444   2.501   0.472
 1847SOL    HW1 5549   3.413   2.562   0.545
 1847SOL    HW2 5550   3.494   2.553   0.403
 1848SOL     OW 5551   2.216   3.372   1.329
 1848SOL    HW1 5552   2.195   3.328   1.242
 1848SOL    HW2 5553   2.313   3.398   1.332
 1849SOL     OW 5554   2.264   2.613   1.598
 1849SOL    HW1 5555   2.332   2.668   1.551
 1849SOL    HW2 5556   2.304   2.525   1.625
 1850SOL     OW 5557   3.449   2.641   1.670
 1850SOL    HW1 5558   3.357   2.679   1.665
 1850SOL    HW2 5559   3.509   2.688   1.605
 1851SOL     OW 5560   2.875   1.967   1.770
 1851SOL    HW1 5561   2.881   2.052   1.718
 1851SOL    HW2 5562   2.907   1.891   1.713
 1852SOL     OW 5563   2.366   1.912   1.740
 1852SOL    HW1 5564   2.324   1.855   1.670
 1852SOL    HW2 5565   2.300   1.981   1.772
 1853SOL     OW 5566   2.435   2.732   1.029
 1853SOL    HW1 5567   2.479   2.821   1.020
 1853SOL    HW2 5568   2.372   2.732   1.106
 1854SOL     OW 5569   3.222   2.724   1.045
 1854SOL    HW1 5570   3.147   2.724   0.979
 1854SOL    HW2 5571   3.259   2.632   1.054
 1855SOL     OW 5572   3.071   2.387   0.275
 1855SOL    HW1 5573   3.084   2.303   0.329
 1855SOL    HW2 5574   3.042   2.461   0.335
 1856SOL     OW 5575   2.169   2.075   1.231
 1856SOL    HW1 5576   2.146   2.112   1.321
 1856SOL    HW2 5577   2.139   1.980   1.225
 1857SOL     OW 5578   1.899   3.172   1.282
 1857SOL    HW1 5579   1.952   3.123   1.350
 1857SOL    HW2 5580   1.921   3.270   1.287
 1858SOL     OW 5581   2.594   2.496   1.064
 1858SOL    HW1 5582   2.653   2.470   0.988
 1858SOL    HW2 5583   2.566   2.592   1.053
 1859SOL     OW 5584   3.590   2.797   1.854
 1859SOL    HW1 5585   3.544   2.790   1.765
 1859SOL    HW2 5586   3.528   2.841   1.920
 1860SOL     OW 5587   2.169   1.925   0.618
 1860SOL    HW1 5588   2.158   2.019   0.651
 1860SOL    HW2 5589   2.164   1.862   0.695
 1861SOL     OW 5590   3.484   2.229   0.374
 1861SOL    HW1 5591   3.486   2.153   0.438
 1861SOL    HW2 5592   3.436   2.306   0.414
 1862SOL     OW 5593   2.885   2.628   0.966
 1862SOL    HW1 5594   2.900   2.649   1.062
 1862SOL    HW2 5595   2.855   2.533   0.957
 1863SOL     OW 5596   2.842   3.435   1.700
 1863SOL    HW1 5597   2.822   3.479   1.612
 1863SOL    HW2 5598   2.881   3.344   1.684
 1864SOL     OW 5599   3.721   3.380   1.605
 1864SOL    HW1 5600   3.735   3.407   1.510
 1864SOL    HW2 5601   3.804   3.402   1.658
 1865SOL     OW 5602   2.212   2.760   1.804
 1865SOL    HW1 5603   2.288   2.804   1.852
 1865SOL    HW2 5604   2.247   2.713   1.722
 1866SOL     OW 5605   3.402   2.136   0.125
 1866SOL    HW1 5606   3.341   2.061   0.148
 1866SOL    HW2 5607   3.424   2.188   0.208
 1867SOL     OW 5608   3.165   2.700   0.042
 1867SOL    HW1 5609   3.199   2.607   0.057
 1867SOL    HW2 5610   3.183   2.727  -0.053
 1868SOL     OW 5611   2.930   3.195   0.849
 1868SOL    HW1 5612   2.937   3.111   0.794
 1868SOL    HW2 5613   2.992   3.264   0.813
 1869SOL     OW 5614   2.181   2.672   0.949
 1869SOL    HW1 5615   2.274   2.708   0.954
 1869SOL    HW2 5616   2.175   2.587   1.001
 1870SOL     OW 5617   2.201   2.371   1.006
 1870SOL    HW1 5618   2.149   2.288   0.989
 1870SOL    HW2 5619   2.278   2.376   0.942
 1871SOL     OW 5620   3.000   2.242   1.678
 1871SOL    HW1 5621   2.955   2.305   1.742
 1871SOL    HW2 5622   3.093   2.273   1.661
 1872SOL     OW 5623   3.022   2.069   1.477
 1872SOL    HW1 5624   3.022   2.133   1.554
 1872SOL    HW2 5625   3.050   2.117   1.394
 1873SOL     OW 5626   1.870   3.188   0.200
 1873SOL    HW1 5627   1.777   3.209   0.169
 1873SOL    HW2 5628   1.880   3.089   0.213
 1874SOL     OW 5629   1.950   3.663   0.927
 1874SOL    HW1 5630   1.908   3.577   0.900
 1874SOL    HW2 5631   2.044   3.666   0.893
 1875SOL     OW 5632   2.366   3.430   0.910
 1875SOL    HW1 5633   2.432   3.504   0.919
 1875SOL    HW2 5634   2.410   3.351   0.868
 1876SOL     OW 5635   2.864   2.658   1.238
 1876SOL    HW1 5636   2.905   2.626   1.324
 1876SOL    HW2 5637   2.768   2.631   1.235
 1877SOL     OW 5638   1.902   2.406   1.114
 1877SOL    HW1 5639   1.987   2.373   1.073
 1877SOL    HW2 5640   1.915   2.421   1.212
 1878SOL     OW 5641   2.051   2.382   1.722
 1878SOL    HW1 5642   2.110   2.342   1.652
 1878SOL    HW2 5643   1.993   2.453   1.681
 1879SOL     OW 5644   3.231   2.812   1.660
 1879SOL    HW1 5645   3.270   2.901   1.680
 1879SOL    HW2 5646   3.241   2.792   1.563
 1880SOL     OW 5647   2.677   2.434   0.325
 1880SOL    HW1 5648   2.684   2.345   0.279
 1880SOL    HW2 5649   2.583   2.468   0.317
 1881SOL     OW 5650   3.519   2.466   1.206
 1881SOL    HW1 5651   3.481   2.397   1.268
 1881SOL    HW2 5652   3.601   2.430   1.162
 1882SOL     OW 5653   2.114   3.426   1.744
 1882SOL    HW1 5654   2.084   3.483   1.820
 1882SOL    HW2 5655   2.107   3.329   1.770
 1883SOL     OW 5656   2.533   2.326   1.269
 1883SOL    HW1 5657   2.499   2.237   1.239
 1883SOL    HW2 5658   2.559   2.380   1.189
 1884SOL     OW 5659   2.792   3.540   1.465
 1884SOL    HW1 5660   2.768   3.522   1.370
 1884SOL    HW2 5661   2.822   3.634   1.475
 1885SOL     OW 5662   2.335   2.362   0.191
 1885SOL    HW1 5663   2.396   2.442   0.195
 1885SOL    HW2 5664   2.240   2.393   0.198
 1886SOL     OW 5665   2.021   2.999   1.466
 1886SOL    HW1 5666   2.043   2.938   1.542
 1886SOL    HW2 5667   2.031   2.950   1.380
 1887SOL     OW 5668   3.209   2.921   1.234
 1887SOL    HW1 5669   3.233   2.858   1.160
 1887SOL    HW2 5670   3.119   2.961   1.216
 1888SOL     OW 5671   3.164   2.717   0.309
 1888SOL    HW1 5672   3.078   2.686   0.351
 1888SOL    HW2 5673   3.160   2.703   0.210
 1889SOL     OW 5674   3.621   3.609   1.154
 1889SOL    HW1 5675   3.682   3.639   1.081
 1889SOL    HW2 5676   3.583   3.520   1.132
 1890SOL     OW 5677   3.114   3.593   1.128
 1890SOL    HW1 5678   3.198   3.598   1.074
 1890SOL    HW2 5679   3.091   3.497   1.146
 1891SOL     OW 5680   1.945   3.120   1.022
 1891SOL    HW1 5681   1.940   3.119   1.122
 1891SOL    HW2 5682   1.862   3.079   0.984
 1892SOL     OW 5683   2.550   3.524   1.716
 1892SOL    HW1 5684   2.494   3.605   1.725
 1892SOL    HW2 5685   2.602   3.528   1.630
 1893SOL     OW 5686   2.765   1.948   0.133
 1893SOL    HW1 5687   2.816   1.949   0.047
 1893SOL    HW2 5688   2.821   1.906   0.204
 1894SOL     OW 5689   3.588   1.997   0.523
 1894SOL    HW1 5690   3.661   1.980   0.456
 1894SOL    HW2 5691   3.557   1.910   0.561
 1895SOL     OW 5692   3.250   3.435   0.477
 1895SOL    HW1 5693   3.317   3.447   0.403
 1895SOL    HW2 5694   3.210   3.524   0.500
 1896SOL     OW 5695   1.992   3.656   1.851
 1896SOL    HW1 5696   1.951   3.582   1.904
 1896SOL    HW2 5697   2.056   3.707   1.909
 1897SOL     OW 5698   3.142   2.789   0.672
 1897SOL    HW1 5699   3.202   2.708   0.674
 1897SOL    HW2 5700   3.182   2.858   0.612
 1898SOL     OW 5701   2.692   3.135   1.422
 1898SOL    HW1 5702   2.687   3.168   1.517
 1898SOL    HW2 5703   2.606   3.154   1.376
 1899SOL     OW 5704   2.534   3.478   0.154
 1899SOL    HW1 5705   2.543   3.488   0.055
 1899SOL    HW2 5706   2.494   3.389   0.175
 1900SOL     OW 5707   3.512   3.582   1.394
 1900SOL    HW1 5708   3.565   3.592   1.310
 1900SOL    HW2 5709   3.485   3.672   1.428
 1901SOL     OW 5710   3.703   2.037   0.963
 1901SOL    HW1 5711   3.742   1.952   0.927
 1901SOL    HW2 5712   3.605   2.039   0.944
 1902SOL     OW 5713   2.125   2.188   0.720
 1902SOL    HW1 5714   2.046   2.239   0.686
 1902SOL    HW2 5715   2.116   2.173   0.818
 1903SOL     OW 5716   3.056   3.474   0.031
 1903SOL    HW1 5717   3.062   3.381   0.068
 1903SOL    HW2 5718   2.997   3.474  -0.049
 1904SOL     OW 5719   2.684   2.864   1.372
 1904SOL    HW1 5720   2.724   2.863   1.280
 1904SOL    HW2 5721   2.694   2.956   1.412
 1905SOL     OW 5722   2.778   2.772   0.291
 1905SOL    HW1 5723   2.841   2.810   0.223
 1905SOL    HW2 5724   2.818   2.689   0.330
 1906SOL     OW 5725   3.366   3.469   0.044
 1906SOL    HW1 5726   3.274   3.506   0.051
 1906SOL    HW2 5727   3.404   3.489  -0.046
 1907SOL     OW 5728   2.234   3.150   1.490
 1907SOL    HW1 5729   2.221   3.243   1.456
 1907SOL    HW2 5730   2.150   3.098   1.477
 1908SOL     OW 5731   3.476   3.154   1.289
 1908SOL    HW1 5732   3.536   3.157   1.369
 1908SOL    HW2 5733   3.401   3.218   1.302
 1909SOL     OW 5734   2.901   2.960   0.696
 1909SOL    HW1 5735   2.831   2.913   0.750
 1909SOL    HW2 5736   2.960   2.892   0.653
 1910SOL     OW 5737   2.876   2.098   0.971
 1910SOL    HW1 5738   2.868   2.062   0.878
 1910SOL    HW2 5739   2.874   2.022   1.036
 1911SOL     OW 5740   2.452   3.349   0.491
 1911SOL    HW1 5741   2.494   3.291   0.421
 1911SOL    HW2 5742   2.408   3.428   0.447
 1912SOL     OW 5743   3.571   2.247   1.381
 1912SOL    HW1 5744   3.644   2.316   1.385
 1912SOL    HW2 5745   3.599   2.172   1.322
 1913SOL     OW 5746   2.117   3.210   0.290
 1913SOL    HW1 5747   2.021   3.211   0.263
 1913SOL    HW2 5748   2.129   3.263   0.374
 1914SOL     OW 5749   1.967   2.875   1.726
 1914SOL    HW1 5750   1.890   2.842   1.780
 1914SOL    HW2 5751   2.052   2.845   1.768
 1915SOL     OW 5752   2.534   2.065   1.489
 1915SOL    HW1 5753   2.624   2.049   1.449
 1915SOL    HW2 5754   2.542   2.070   1.588
 1916SOL     OW 5755   1.937   2.207   0.033
 1916SOL    HW1 5756   1.845   2.179   0.004
 1916SOL    HW2 5757   1.968   2.284  -0.023
 1917SOL     OW 5758   3.302   2.718   1.398
 1917SOL    HW1 5759   3.245   2.770   1.335
 1917SOL    HW2 5760   3.398   2.730   1.374
 1918SOL     OW 5761   3.045   3.197   0.119
 1918SOL    HW1 5762   2.946   3.186   0.121
 1918SOL    HW2 5763   3.079   3.212   0.212
 1919SOL     OW 5764   2.475   2.704   1.431
 1919SOL    HW1 5765   2.531   2.785   1.414
 1919SOL    HW2 5766   2.534   2.624   1.434
 1920SOL     OW 5767   3.355   3.629   0.959
 1920SOL    HW1 5768   3.388   3.693   0.890
 1920SOL    HW2 5769   3.421   3.623   1.034
 1921SOL     OW 5770   2.578   2.427   1.708
 1921SOL    HW1 5771   2.597   2.492   1.782
 1921SOL    HW2 5772   2.638   2.347   1.717
 1922SOL     OW 5773   3.312   3.082   1.633
 1922SOL    HW1 5774   3.303   3.072   1.732
 1922SOL    HW2 5775   3.408   3.075   1.607
 1923SOL     OW 5776   2.252   3.603   1.560
 1923SOL    HW1 5777   2.161   3.644   1.558
 1923SOL    HW2 5778   2.245   3.509   1.592
 1924SOL     OW 5779   3.536   2.745   1.254
 1924SOL    HW1 5780   3.509   2.656   1.217
 1924SOL    HW2 5781   3.537   2.813   1.181
 1925SOL     OW 5782   3.087   2.187   0.449
 1925SOL    HW1 5783   3.152   2.113   0.438
 1925SOL    HW2 5784   3.107   2.237   0.533
 1926SOL     OW 5785   2.456   2.607   0.652
 1926SOL    HW1 5786   2.506   2.692   0.633
 1926SOL    HW2 5787   2.368   2.609   0.604
 1927SOL     OW 5788   3.639   2.204   1.642
 1927SOL    HW1 5789   3.622   2.235   1.548
 1927SOL    HW2 5790   3.555   2.167   1.680
 1928SOL     OW 5791   3.592   2.796   1.517
 1928SOL    HW1 5792   3.630   2.887   1.532
 1928SOL    HW2 5793   3.584   2.779   1.418
 1929SOL     OW 5794   2.721   3.236   0.016
 1929SOL    HW1 5795   2.675   3.251   0.104
 1929SOL    HW2 5796   2.765   3.321  -0.014
 1930SOL     OW 5797   2.523   3.652   0.953
 1930SOL    HW1 5798   2.477   3.740   0.940
 1930SOL    HW2 5799   2.622   3.664   0.946
 1931SOL     OW 5800   2.721   2.818   0.861
 1931SOL    HW1 5801   2.775   2.749   0.909
 1931SOL    HW2 5802   2.689   2.887   0.927
 1932SOL     OW 5803   2.945   2.846   0.087
 1932SOL    HW1 5804   2.922   2.899   0.005
 1932SOL    HW2 5805   3.026   2.790   0.068
 1933SOL     OW 5806   3.723   3.431   0.851
 1933SOL    HW1 5807   3.652   3.419   0.781
 1933SOL    HW2 5808   3.724   3.352   0.911
 1934SOL     OW 5809   2.083   3.176   1.844
 1934SOL    HW1 5810   2.018   3.103   1.823
 1934SOL    HW2 5811   2.087   3.190   1.942
 1935SOL     OW 5812   1.941   3.102   0.653
 1935SOL    HW1 5813   1.940   3.055   0.741
 1935SOL    HW2 5814   2.023   3.074   0.602
 1936SOL     OW 5815   2.534   3.253   1.624
 1936SOL    HW1 5816   2.456   3.203   1.662
 1936SOL    HW2 5817   2.531   3.348   1.655
 1937SOL     OW 5818   3.686   2.054   1.227
 1937SOL    HW1 5819   3.682   1.964   1.271
 1937SOL    HW2 5820   3.689   2.043   1.128
 1938SOL     OW 5821   2.290   2.286   0.520
 1938SOL    HW1 5822   2.320   2.214   0.458
 1938SOL    HW2 5823   2.251   2.246   0.603
 1939SOL     OW 5824   3.567   3.349   1.104
 1939SOL    HW1 5825   3.474   3.324   1.077
 1939SOL    HW2 5826   3.593   3.299   1.186
 1940SOL     OW 5827   2.179   2.409   1.280
 1940SOL    HW1 5828   2.217   2.350   1.352
 1940SOL    HW2 5829   2.219   2.383   1.192
 1941SOL     OW 5830   2.674   3.448   0.687
 1941SOL    HW1 5831   2.706   3.458   0.593
 1941SOL    HW2 5832   2.595   3.386   0.689
 1942SOL     OW 5833   3.286   2.076   1.112
 1942SOL    HW1 5834   3.338   2.011   1.167
 1942SOL    HW2 5835   3.237   2.139   1.173
 1943SOL     OW 5836   2.863   1.896   1.154
 1943SOL    HW1 5837   2.800   1.824   1.123
 1943SOL    HW2 5838   2.956   1.860   1.154
 1944SOL     OW 5839   2.632   3.192   0.301
 1944SOL    HW1 5840   2.586   3.105   0.318
 1944SOL    HW2 5841   2.723   3.189   0.342
 1945SOL     OW 5842   2.480   3.429   1.284
 1945SOL    HW1 5843   2.475   3.511   1.341
 1945SOL    HW2 5844   2.569   3.426   1.239
 1946SOL     OW 5845   3.214   1.914   0.168
 1946SOL    HW1 5846   3.249   1.873   0.084
 1946SOL    HW2 5847   3.124   1.876   0.188
 1947SOL     OW 5848   3.162   2.315   0.691
 1947SOL    HW1 5849   3.103   2.395   0.695
 1947SOL    HW2 5850   3.177   2.280   0.784
 1948SOL     OW 5851   3.455   2.083   0.882
 1948SOL    HW1 5852   3.371   2.082   0.936
 1948SOL    HW2 5853   3.457   2.166   0.826
 1949SOL     OW 5854   1.901   2.939   0.300
 1949SOL    HW1 5855   2.000   2.928   0.291
 1949SOL    HW2 5856   1.861   2.853   0.332
 1950SOL     OW 5857   2.737   3.508   0.337
 1950SOL    HW1 5858   2.660   3.473   0.283
 1950SOL    HW2 5859   2.705   3.579   0.399
 1951SOL     OW 5860   2.092   2.490   1.975
 1951SOL    HW1 5861   1.999   2.488   2.012
 1951SOL    HW2 5862   2.093   2.451   1.883
 1952SOL     OW 5863   2.087   2.137   2.858
 1952SOL    HW1 5864   2.122   2.120   2.950
 1952SOL    HW2 5865   1.999   2.092   2.846
 1953SOL     OW 5866   1.881   2.230   2.509
 1953SOL    HW1 5867   1.799   2.273   2.548
 1953SOL    HW2 5868   1.853   2.157   2.446
 1954SOL     OW 5869   2.431   3.137   3.027
 1954SOL    HW1 5870   2.338   3.130   2.990
 1954SOL    HW2 5871   2.442   3.226   3.071
 1955SOL     OW 5872   3.417   3.373   2.565
 1955SOL    HW1 5873   3.360   3.357   2.646
 1955SOL    HW2 5874   3.358   3.383   2.485
 1956SOL     OW 5875   2.997   2.565   2.579
 1956SOL    HW1 5876   3.054   2.643   2.554
 1956SOL    HW2 5877   2.937   2.591   2.655
 1957SOL     OW 5878   3.617   2.469   2.093
 1957SOL    HW1 5879   3.605   2.456   1.994
 1957SOL    HW2 5880   3.587   2.388   2.142
 1958SOL     OW 5881   2.630   3.006   2.885
 1958SOL    HW1 5882   2.552   3.023   2.945
 1958SOL    HW2 5883   2.664   3.093   2.849
 1959SOL     OW 5884   2.712   2.660   3.685
 1959SOL    HW1 5885   2.708   2.736   3.750
 1959SOL    HW2 5886   2.734   2.696   3.594
 1960SOL     OW 5887   2.547   2.874   2.527
 1960SOL    HW1 5888   2.616   2.858   2.597
 1960SOL    HW2 5889   2.474   2.931   2.565
 1961SOL     OW 5890   2.548   3.023   3.665
 1961SOL    HW1 5891   2.608   3.102   3.679
 1961SOL    HW2 5892   2.462   3.054   3.624
 1962SOL     OW 5893   2.197   3.297   2.923
 1962SOL    HW1 5894   2.119   3.266   2.870
 1962SOL    HW2 5895   2.255   3.355   2.866
 1963SOL     OW 5896   3.322   3.367   3.201
 1963SOL    HW1 5897   3.346   3.461   3.227
 1963SOL    HW2 5898   3.306   3.313   3.283
 1964SOL     OW 5899   2.300   2.254   3.361
 1964SOL    HW1 5900   2.382   2.198   3.370
 1964SOL    HW2 5901   2.219   2.196   3.365
 1965SOL     OW 5902   3.465   2.309   2.599
 1965SOL    HW1 5903   3.391   2.355   2.549
 1965SOL    HW2 5904   3.516   2.377   2.652
 1966SOL     OW 5905   2.093   3.575   2.345
 1966SOL    HW1 5906   2.127   3.652   2.399
 1966SOL    HW2 5907   2.137   3.575   2.255
 1967SOL     OW 5908   2.989   3.203   3.552
 1967SOL    HW1 5909   3.036   3.203   3.640
 1967SOL    HW2 5910   2.941   3.116   3.541
 1968SOL     OW 5911   2.092   3.296   2.400
 1968SOL    HW1 5912   2.066   3.392   2.400
 1968SOL    HW2 5913   2.021   3.242   2.445
 1969SOL     OW 5914   2.102   2.953   2.748
 1969SOL    HW1 5915   2.116   2.869   2.800
 1969SOL    HW2 5916   2.047   3.017   2.803
 1970SOL     OW 5917   2.482   3.648   3.301
 1970SOL    HW1 5918   2.390   3.631   3.336
 1970SOL    HW2 5919   2.510   3.740   3.327
 1971SOL     OW 5920   2.468   2.826   1.985
 1971SOL    HW1 5921   2.475   2.910   1.931
 1971SOL    HW2 5922   2.514   2.839   2.073
 1972SOL     OW 5923   3.456   1.976   3.342
 1972SOL    HW1 5924   3.438   2.043   3.270
 1972SOL    HW2 5925   3.453   2.022   3.431
 1973SOL     OW 5926   1.984   2.505   2.425
 1973SOL    HW1 5927   1.939   2.417   2.442
 1973SOL    HW2 5928   1.983   2.559   2.509
 1974SOL     OW 5929   3.704   3.629   2.221
 1974SOL    HW1 5930   3.758   3.600   2.301
 1974SOL    HW2 5931   3.734   3.719   2.192
 1975SOL     OW 5932   1.889   3.458   1.979
 1975SOL    HW1 5933   1.870   3.362   2.000
 1975SOL    HW2 5934   1.856   3.516   2.054
 1976SOL     OW 5935   3.551   2.784   2.474
 1976SOL    HW1 5936   3.646   2.755   2.482
 1976SOL    HW2 5937   3.543   2.849   2.399
 1977SOL     OW 5938   3.503   2.970   2.294
 1977SOL    HW1 5939   3.589   2.972   2.242
 1977SOL    HW2 5940   3.517   3.017   2.382
 1978SOL     OW 5941   1.975   2.599   3.459
 1978SOL    HW1 5942   2.063   2.586   3.504
 1978SOL    HW2 5943   1.962   2.696   3.437
 1979SOL     OW 5944   2.475   3.227   2.588
 1979SOL    HW1 5945   2.426   3.140   2.597
 1979SOL    HW2 5946   2.452   3.270   2.501
 1980SOL     OW 5947   3.155   3.090   3.285
 1980SOL    HW1 5948   3.192   3.017   3.227
 1980SOL    HW2 5949   3.207   3.095   3.370
 1981SOL     OW 5950   2.671   1.866   2.364
 1981SOL    HW1 5951   2.711   1.957   2.355
 1981SOL    HW2 5952   2.571   1.874   2.370
 1982SOL     OW 5953   2.059   2.838   3.126
 1982SOL    HW1 5954   2.148   2.793   3.112
 1982SOL    HW2 5955   1.986   2.773   3.107
 1983SOL     OW 5956   3.387   2.861   2.052
 1983SOL    HW1 5957   3.324   2.785   2.065
 1983SOL    HW2 5958   3.435   2.879   2.138
 1984SOL     OW 5959   3.049   3.654   3.478
 1984SOL    HW1 5960   3.073   3.714   3.402
 1984SOL    HW2 5961   3.056   3.559   3.448
 1985SOL     OW 5962   2.179   2.113   3.663
 1985SOL    HW1 5963   2.250   2.184   3.669
 1985SOL    HW2 5964   2.091   2.152   3.691
 1986SOL     OW 5965   3.328   3.279   2.815
 1986SOL    HW1 5966   3.269   3.285   2.895
 1986SOL    HW2 5967   3.313   3.191   2.769
 1987SOL     OW 5968   3.529   3.576   2.434
 1987SOL    HW1 5969   3.488   3.553   2.346
 1987SOL    HW2 5970   3.511   3.502   2.499
 1988SOL     OW 5971   2.460   2.591   2.132
 1988SOL    HW1 5972   2.484   2.660   2.064
 1988SOL    HW2 5973   2.382   2.624   2.186
 1989SOL     OW 5974   3.143   2.207   2.806
 1989SOL    HW1 5975   3.057   2.157   2.793
 1989SOL    HW2 5976   3.205   2.153   2.862
 1990SOL     OW 5977   3.438   3.524   2.169
 1990SOL    HW1 5978   3.527   3.570   2.172
 1990SOL    HW2 5979   3.417   3.500   2.074
 1991SOL     OW 5980   2.669   2.467   3.327
 1991SOL    HW1 5981   2.622   2.464   3.416
 1991SOL    HW2 5982   2.618   2.412   3.261
 1992SOL     OW 5983   3.256   2.331   3.536
 1992SOL    HW1 5984   3.236   2.374   3.624
 1992SOL    HW2 5985   3.334   2.269   3.545
 1993SOL     OW 5986   2.835   2.752   3.434
 1993SOL    HW1 5987   2.881   2.668   3.405
 1993SOL    HW2 5988   2.779   2.786   3.359
 1994SOL     OW 5989   2.853   2.272   3.104
 1994SOL    HW1 5990   2.776   2.306   3.158
 1994SOL    HW2 5991   2.819   2.221   3.025
 1995SOL     OW 5992   2.903   2.563   2.291
 1995SOL    HW1 5993   2.929   2.559   2.387
 1995SOL    HW2 5994   2.818   2.512   2.277
 1996SOL     OW 5995   1.938   2.673   2.651
 1996SOL    HW1 5996   2.037   2.661   2.660
 1996SOL    HW2 5997   1.914   2.768   2.672
 1997SOL     OW 5998   1.992   3.683   3.433
 1997SOL    HW1 5999   1.982   3.668   3.532
 1997SOL    HW2 6000   1.906   3.719   3.397
 1998SOL     OW 6001   2.727   2.210   2.057
 1998SOL    HW1 6002   2.786   2.273   2.008
 1998SOL    HW2 6003   2.746   2.116   2.028
 1999SOL     OW 6004   3.581   2.447   3.693
 1999SOL    HW1 6005   3.555   2.536   3.657
 1999SOL    HW2 6006   3.579   2.379   3.620
 2000SOL     OW 6007   3.224   3.006   2.407
 2000SOL    HW1 6008   3.307   2.977   2.359
 2000SOL    HW2 6009   3.175   3.073   2.351
 2001SOL     OW 6010   2.412   2.058   2.747
 2001SOL    HW1 6011   2.407   2.053   2.847
 2001SOL    HW2 6012   2.414   2.154   2.718
 2002SOL     OW 6013   2.870   3.318   2.339
 2002SOL    HW1 6014   2.824   3.390   2.287
 2002SOL    HW2 6015   2.866   3.338   2.437
 2003SOL     OW 6016   2.213   3.663   2.715
 2003SOL    HW1 6017   2.263   3.577   2.721
 2003SOL    HW2 6018   2.278   3.740   2.712
 2004SOL     OW 6019   3.657   2.928   2.735
 2004SOL    HW1 6020   3.595   2.913   2.659
 2004SOL    HW2 6021   3.605   2.939   2.820
 2005SOL     OW 6022   3.089   3.412   3.368
 2005SOL    HW1 6023   3.095   3.335   3.432
 2005SOL    HW2 6024   3.037   3.386   3.288
 2006SOL     OW 6025   2.183   2.805   2.104
 2006SOL    HW1 6026   2.265   2.844   2.062
 2006SOL    HW2 6027   2.156   2.723   2.055
 2007SOL     OW 6028   3.320   2.597   2.590
 2007SOL    HW1 6029   3.315   2.532   2.665
 2007SOL    HW2 6030   3.400   2.656   2.603
 2008SOL     OW 6031   2.323   3.128   3.589
 2008SOL    HW1 6032   2.273   3.129   3.503
 2008SOL    HW2 6033   2.260   3.110   3.665
 2009SOL     OW 6034   2.973   3.638   2.099
 2009SOL    HW1 6035   2.913   3.576   2.149
 2009SOL    HW2 6036   3.004   3.594   2.014
 2010SOL     OW 6037   2.064   2.147   3.360
 2010SOL    HW1 6038   1.984   2.207   3.347
 2010SOL    HW2 6039   2.054   2.098   3.446
 2011SOL     OW 6040   3.494   3.239   1.943
 2011SOL    HW1 6041   3.462   3.333   1.933
 2011SOL    HW2 6042   3.418   3.176   1.931
 2012SOL     OW 6043   2.326   3.605   2.185
 2012SOL    HW1 6044   2.359   3.644   2.271
 2012SOL    HW2 6045   2.402   3.598   2.120
 2013SOL     OW 6046   3.262   1.969   2.288
 2013SOL    HW1 6047   3.238   1.932   2.198
 2013SOL    HW2 6048   3.361   1.985   2.292
 2014SOL     OW 6049   2.111   3.647   3.103
 2014SOL    HW1 6050   2.168   3.582   3.153
 2014SOL    HW2 6051   2.095   3.614   3.010
 2015SOL     OW 6052   2.802   3.560   2.766
 2015SOL    HW1 6053   2.882   3.503   2.787
 2015SOL    HW2 6054   2.753   3.520   2.689
 2016SOL     OW 6055   3.409   2.084   3.591
 2016SOL    HW1 6056   3.404   2.121   3.683
 2016SOL    HW2 6057   3.337   2.015   3.579
 2017SOL     OW 6058   2.476   1.984   1.979
 2017SOL    HW1 6059   2.574   1.962   1.986
 2017SOL    HW2 6060   2.445   1.967   1.886
 2018SOL     OW 6061   2.643   2.126   3.611
 2018SOL    HW1 6062   2.710   2.065   3.654
 2018SOL    HW2 6063   2.570   2.145   3.676
 2019SOL     OW 6064   2.750   3.376   3.057
 2019SOL    HW1 6065   2.727   3.351   2.963
 2019SOL    HW2 6066   2.811   3.307   3.096
 2020SOL     OW 6067   3.213   2.452   3.295
 2020SOL    HW1 6068   3.241   2.409   3.380
 2020SOL    HW2 6069   3.238   2.548   3.296
 2021SOL     OW 6070   2.665   3.264   2.786
 2021SOL    HW1 6071   2.755   3.278   2.744
 2021SOL    HW2 6072   2.594   3.266   2.715
 2022SOL     OW 6073   2.784   2.365   2.761
 2022SOL    HW1 6074   2.759   2.356   2.665
 2022SOL    HW2 6075   2.832   2.283   2.792
 2023SOL     OW 6076   2.401   1.926   2.374
 2023SOL    HW1 6077   2.320   1.927   2.432
 2023SOL    HW2 6078   2.404   2.009   2.319
 2024SOL     OW 6079   3.296   3.050   1.903
 2024SOL    HW1 6080   3.328   2.974   1.960
 2024SOL    HW2 6081   3.204   3.077   1.933
 2025SOL     OW 6082   2.159   1.897   2.033
 2025SOL    HW1 6083   2.208   1.981   2.012
 2025SOL    HW2 6084   2.221   1.832   2.078
 2026SOL     OW 6085   2.797   2.098   2.342
 2026SOL    HW1 6086   2.749   2.139   2.264
 2026SOL    HW2 6087   2.896   2.096   2.323
 2027SOL     OW 6088   2.938   2.545   3.326
 2027SOL    HW1 6089   2.858   2.484   3.329
 2027SOL    HW2 6090   3.019   2.492   3.302
 2028SOL     OW 6091   3.089   3.432   2.655
 2028SOL    HW1 6092   3.110   3.506   2.590
 2028SOL    HW2 6093   3.157   3.432   2.728
 2029SOL     OW 6094   2.321   3.014   2.603
 2029SOL    HW1 6095   2.250   2.987   2.668
 2029SOL    HW2 6096   2.295   2.986   2.510
 2030SOL     OW 6097   3.133   3.659   2.453
 2030SOL    HW1 6098   3.177   3.723   2.389
 2030SOL    HW2 6099   3.083   3.711   2.523
 2031SOL     OW 6100   2.894   2.411   1.878
 2031SOL    HW1 6101   2.853   2.493   1.839
 2031SOL    HW2 6102   2.958   2.437   1.951
 2032SOL     OW 6103   1.940   2.418   3.248
 2032SOL    HW1 6104   2.032   2.417   3.207
 2032SOL    HW2 6105   1.934   2.492   3.315
 2033SOL     OW 6106   2.423   2.084   3.009
 2033SOL    HW1 6107   2.461   2.000   3.046
 2033SOL    HW2 6108   2.335   2.103   3.053
 2034SOL     OW 6109   2.728   2.316   2.504
 2034SOL    HW1 6110   2.696   2.388   2.442
 2034SOL    HW2 6111   2.752   2.235   2.451
 2035SOL     OW 6112   2.879   1.901   2.615
 2035SOL    HW1 6113   2.807   1.906   2.546
 2035SOL    HW2 6114   2.855   1.832   2.684
 2036SOL     OW 6115   3.291   3.035   2.729
 2036SOL    HW1 6116   3.236   2.951   2.722
 2036SOL    HW2 6117   3.317   3.064   2.637
 2037SOL     OW 6118   3.328   2.452   2.854
 2037SOL    HW1 6119   3.298   2.357   2.861
 2037SOL    HW2 6120   3.401   2.468   2.920
 2038SOL     OW 6121   3.719   2.695   2.239
 2038SOL    HW1 6122   3.761   2.631   2.303
 2038SOL    HW2 6123   3.681   2.644   2.161
 2039SOL     OW 6124   2.350   3.247   2.036
 2039SOL    HW1 6125   2.263   3.232   2.083
 2039SOL    HW2 6126   2.333   3.273   1.941
 2040SOL     OW 6127   3.526   3.142   2.519
 2040SOL    HW1 6128   3.625   3.150   2.533
 2040SOL    HW2 6129   3.481   3.226   2.550
 2041SOL     OW 6130   3.252   2.437   1.940
 2041SOL    HW1 6131   3.198   2.416   2.021
 2041SOL    HW2 6132   3.343   2.396   1.949
 2042SOL     OW 6133   3.616   3.085   3.450
 2042SOL    HW1 6134   3.707   3.046   3.437
 2042SOL    HW2 6135   3.624   3.181   3.474
 2043SOL     OW 6136   2.926   3.209   3.202
 2043SOL    HW1 6137   2.846   3.186   3.257
 2043SOL    HW2 6138   3.009   3.183   3.251
 2044SOL     OW 6139   3.454   3.491   3.487
 2044SOL    HW1 6140   3.481   3.525   3.397
 2044SOL    HW2 6141   3.533   3.453   3.533
 2045SOL     OW 6142   2.973   3.057   2.962
 2045SOL    HW1 6143   2.933   3.101   3.043
 2045SOL    HW2 6144   2.932   3.094   2.879
 2046SOL     OW 6145   3.500   2.961   2.941
 2046SOL    HW1 6146   3.505   3.042   3.000
 2046SOL    HW2 6147   3.414   2.963   2.890
 2047SOL     OW 6148   2.777   1.951   3.264
 2047SOL    HW1 6149   2.802   1.931   3.169
 2047SOL    HW2 6150   2.849   2.007   3.306
 2048SOL     OW 6151   2.842   2.978   3.581
 2048SOL    HW1 6152   2.743   2.984   3.591
 2048SOL    HW2 6153   2.865   2.898   3.525
 2049SOL     OW 6154   2.567   2.912   2.230
 2049SOL    HW1 6155   2.553   2.919   2.329
 2049SOL    HW2 6156   2.651   2.861   2.212
 2050SOL     OW 6157   2.272   2.675   3.113
 2050SOL    HW1 6158   2.358   2.687   3.163
 2050SOL    HW2 6159   2.230   2.588   3.140
 2051SOL     OW 6160   3.136   2.248   3.124
 2051SOL    HW1 6161   3.157   2.322   3.188
 2051SOL    HW2 6162   3.047   2.265   3.081
 2052SOL     OW 6163   1.926   3.426   3.193
 2052SOL    HW1 6164   1.880   3.508   3.159
 2052SOL    HW2 6165   2.024   3.445   3.202
 2053SOL     OW 6166   2.229   2.962   2.363
 2053SOL    HW1 6167   2.222   3.045   2.307
 2053SOL    HW2 6168   2.233   2.882   2.303
 2054SOL     OW 6169   2.428   2.399   2.727
 2054SOL    HW1 6170   2.440   2.465   2.653
 2054SOL    HW2 6171   2.474   2.433   2.810
 2055SOL     OW 6172   3.114   3.210   2.250
 2055SOL    HW1 6173   3.164   3.287   2.290
 2055SOL    HW2 6174   3.019   3.212   2.282
 2056SOL     OW 6175   3.134   3.307   3.004
 2056SOL    HW1 6176   3.181   3.320   3.091
 2056SOL    HW2 6177   3.068   3.233   3.013
 2057SOL     OW 6178   3.444   2.501   2.334
 2057SOL    HW1 6179   3.413   2.562   2.407
 2057SOL    HW2 6180   3.494   2.553   2.265
 2058SOL     OW 6181   2.216   3.372   3.191
 2058SOL    HW1 6182   2.195   3.328   3.104
 2058SOL    HW2 6183   2.313   3.398   3.194
 2059SOL     OW 6184   2.264   2.613   3.460
 2059SOL    HW1 6185   2.332   2.668   3.413
 2059SOL    HW2 6186   2.304   2.525   3.487
 2060SOL     OW 6187   3.449   2.641   3.532
 2060SOL    HW1 6188   3.357   2.679   3.527
 2060SOL    HW2 6189   3.509   2.688   3.467
 2061SOL     OW 6190   2.875   1.967   3.632
 2061SOL    HW1 6191   2.881   2.052   3.580
 2061SOL    HW2 6192   2.907   1.891   3.575
 2062SOL     OW 6193   2.366   1.912   3.602
 2062SOL    HW1 6194   2.324   1.855   3.532
 2062SOL    HW2 6195   2.300   1.981   3.634
 2063SOL     OW 6196   2.435   2.732   2.891
 2063SOL    HW1 6197   2.479   2.821   2.882
 2063SOL    HW2 6198   2.372   2.732   2.968
 2064SOL     OW 6199   3.222   2.724   2.907
 2064SOL    HW1 6200   3.147   2.724   2.841
 2064SOL    HW2 6201   3.259   2.632   2.916
 2065SOL     OW 6202   3.071   2.387   2.137
 2065SOL    HW1 6203   3.084   2.303   2.191
 2065SOL    HW2 6204   3.042   2.461   2.197
 2066SOL     OW 6205   2.169   2.075   3.093
 2066SOL    HW1 6206   2.146   2.112   3.183
 2066SOL    HW2 6207   2.139   1.980   3.087
 2067SOL     OW 6208   1.899   3.172   3.144
 2067SOL    HW1 6209   1.952   3.123   3.212
 2067SOL    HW2 6210   1.921   3.270   3.149
 2068SOL     OW 6211   2.594   2.496   2.926
 2068SOL    HW1 6212   2.653   2.470   2.850
 2068SOL    HW2 6213   2.566   2.592   2.915
 2069SOL     OW 6214   3.590   2.797   3.716
 2069SOL    HW1 6215   3.544   2.790   3.627
 2069SOL    HW2 6216   3.528   2.841   3.782
 2070SOL     OW 6217   2.169   1.925   2.480
 2070SOL    HW1 6218   2.158   2.019   2.513
 2070SOL    HW2 6219   2.164   1.862   2.557
 2071SOL     OW 6220   3.484   2.229   2.236
 2071SOL    HW1 6221   3.486   2.153   2.300
 2071SOL    HW2 6222   3.436   2.306   2.276
 2072SOL     OW 6223   2.885   2.628   2.828
 2072SOL    HW1 6224   2.900   2.649   2.924
 2072SOL    HW2 6225   2.855   2.533   2.819
 2073SOL     OW 6226   2.842   3.435   3.562
 2073SOL    HW1 6227   2.822   3.479   3.474
 2073SOL    HW2 6228   2.881   3.344   3.546
 2074SOL     OW 6229   3.721   3.380   3.467
 2074SOL    HW1 6230   3.735   3.407   3.372
 2074SOL    HW2 6231   3.804   3.402   3.520
 2075SOL     OW 6232   2.212   2.760   3.666
 2075SOL    HW1 6233   2.288   2.804   3.714
 2075SOL    HW2 6234   2.247   2.713   3.584
 2076SOL     OW 6235   3.402   2.136   1.987
 2076SOL    HW1 6236   3.341   2.061   2.010
 2076SOL    HW2 6237   3.424   2.188   2.070
 2077SOL     OW 6238   3.165   2.700   1.904
 2077SOL    HW1 6239   3.199   2.607   1.919
 2077SOL    HW2 6240   3.183   2.727   1.809
 2078SOL     OW 6241   2.930   3.195   2.711
 2078SOL    HW1 6242   2.937   3.111   2.656
 2078SOL    HW2 6243   2.992   3.264   2.675
 2079SOL     OW 6244   2.181   2.672   2.811
 2079SOL    HW1 6245   2.274   2.708   2.816
 2079SOL    HW2 6246   2.175   2.587   2.863
 2080SOL     OW 6247   2.201   2.371   2.868
 2080SOL    HW1 6248   2.149   2.288   2.851
 2080SOL    HW2 6249   2.278   2.376   2.804
 2081SOL     OW 6250   3.000   2.242   3.540
 2081SOL    HW1 6251   2.955   2.305   3.604
 2081SOL    HW2 6252   3.093   2.273   3.523
 2082SOL     OW 6253   3.022   2.069   3.339
 2082SOL    HW1 6254   3.022   2.133   3.416
 2082SOL    HW2 6255   3.050   2.117   3.256
 2083SOL     OW 6256   1.870   3.188   2.062
 2083SOL    HW1 6257   1.777   3.209   2.031
 2083SOL    HW2 6258   1.880   3.089   2.075
 2084SOL     OW 6259   1.950   3.663   2.789
 2084SOL    HW1 6260   1.908   3.577   2.762
 2084SOL    HW2 6261   2.044   3.666   2.755
 2085SOL     OW 6262   2.366   3.430   2.772
 2085SOL    HW1 6263   2.432   3.504   2.781
 2085SOL    HW2 6264   2.410   3.351   2.730
 2086SOL     OW 6265   2.864   2.658   3.100
 2086SOL    HW1 6266   2.905   2.626   3.186
 2086SOL    HW2 6267   2.768   2.631   3.097
 2087SOL     OW 6268   1.902   2.406   2.976
 2087SOL    HW1 6269   1.987   2.373   2.935
 2087SOL    HW2 6270   1.915   2.421   3.074
 2088SOL     OW 6271   2.051   2.382   3.584
 2088SOL    HW1 6272   2.110   2.342   3.514
 2088SOL    HW2 6273   1.993   2.453   3.543
 2089SOL     OW 6274   3.231   2.812   3.522
 2089SOL    HW1 6275   3.270   2.901   3.542
 2089SOL    HW2 6276   3.241   2.792   3.425
 2090SOL     OW 6277   2.677   2.434   2.187
 2090SOL    HW1 6278   2.684   2.345   2.141
 2090SOL    HW2 6279   2.583   2.468   2.179
 2091SOL     OW 6280   3.519   2.466   3.068
 2091SOL    HW1 6281   3.481   2.397   3.130
 2091SOL    HW2 6282   3.601   2.430   3.024
 2092SOL     OW 6283   2.114   3.426   3.606
 2092SOL    HW1 6284   2.084   3.483   3.682
 2092SOL    HW2 6285   2.107   3.329   3.632
 2093SOL     OW 6286   2.533   2.326   3.131
 2093SOL    HW1 6287   2.499   2.237   3.101
 2093SOL    HW2 6288   2.559   2.380   3.051
 2094SOL     OW 6289   2.792   3.540   3.327
 2094SOL    HW1 6290   2.768   3.522   3.232
 2094SOL    HW2 6291   2.822   3.634   3.337
 2095SOL     OW 6292   2.021   2.999   3.328
 2095SOL    HW1 6293   2.043   2.938   3.404
 2095SOL    HW2 6294   2.031   2.950   3.242
 2096SOL     OW 6295   3.209   2.921   3.096
 2096SOL    HW1 6296   3.233   2.858   3.022
 2096SOL    HW2 6297   3.119   2.961   3.078
 2097SOL     OW 6298   3.164   2.717   2.171
 2097SOL    HW1 6299   3.078   2.686   2.213
 2097SOL    HW2 6300   3.160   2.703   2.072
 2098SOL     OW 6301   3.621   3.609   3.016
 2098SOL    HW1 6302   3.682   3.639   2.943
 2098SOL    HW2 6303   3.583   3.520   2.994
 2099SOL     OW 6304   3.114   3.593   2.990
 2099SOL    HW1 6305   3.198   3.598   2.936
 2099SOL    HW2 6306   3.091   3.497   3.008
 2100SOL     OW 6307   1.945   3.120   2.884
 2100SOL    HW1 6308   1.940   3.119   2.984
 2100SOL    HW2 6309   1.862   3.079   2.846
 2101SOL     OW 6310   2.550   3.524   3.578
 2101SOL    HW1 6311   2.494   3.605   3.587
 2101SOL    HW2 6312   2.602   3.528   3.492
 2102SOL     OW 6313   3.588   1.997   2.385
 2102SOL    HW1 6314   3.661   1.980   2.318
 2102SOL    HW2 6315   3.557   1.910   2.423
 2103SOL     OW 6316   3.250   3.435   2.339
 2103SOL    HW1 6317   3.317   3.447   2.265
 2103SOL    HW2 6318   3.210   3.524   2.362
 2104SOL     OW 6319   1.992   3.656   3.713
 2104SOL    HW1 6320   1.951   3.582   3.766
 2104SOL    HW2 6321   2.056   3.707   3.771
 2105SOL     OW 6322   3.142   2.789   2.534
 2105SOL    HW1 6323   3.202   2.708   2.536
 2105SOL    HW2 6324   3.182   2.858   2.474
 2106SOL     OW 6325   2.692   3.135   3.284
 2106SOL    HW1 6326   2.687   3.168   3.379
 2106SOL    HW2 6327   2.606   3.154   3.238
 2107SOL     OW 6328   2.534   3.478   2.016
 2107SOL    HW1 6329   2.543   3.488   1.917
 2107SOL    HW2 6330   2.494   3.389   2.037
 2108SOL     OW 6331   3.512   3.582   3.256
 2108SOL    HW1 6332   3.565   3.592   3.172
 2108SOL    HW2 6333   3.485   3.672   3.290
 2109SOL     OW 6334   3.703   2.037   2.825
 2109SOL    HW1 6335   3.742   1.952   2.789
 2109SOL    HW2 6336   3.605   2.039   2.806
 2110SOL     OW 6337   2.125   2.188   2.582
 2110SOL    HW1 6338   2.046   2.239   2.548
 2110SOL    HW2 6339   2.116   2.173   2.680
 2111SOL     OW 6340   3.056   3.474   1.893
 2111SOL    HW1 6341   3.062   3.381   1.930
 2111SOL    HW2 6342   2.997   3.474   1.813
 2112SOL     OW 6343   2.684   2.864   3.234
 2112SOL    HW1 6344   2.724   2.863   3.142
 2112SOL    HW2 6345   2.694   2.956   3.274
 2113SOL     OW 6346   2.778   2.772   2.153
 2113SOL    HW1 6347   2.841   2.810   2.085
 2113SOL    HW2 6348   2.818   2.689   2.192
 2114SOL     OW 6349   3.366   3.469   1.906
 2114SOL    HW1 6350   3.274   3.506   1.913
 2114SOL    HW2 6351   3.404   3.489   1.816
 2115SOL     OW 6352   2.234   3.150   3.352
 2115SOL    HW1 6353   2.221   3.243   3.318
 2115SOL    HW2 6354   2.150   3.098   3.339
 2116SOL     OW 6355   3.476   3.154   3.151
 2116SOL    HW1 6356   3.536   3.157   3.231
 2116SOL    HW2 6357   3.401   3.218   3.164
 2117SOL     OW 6358   2.901   2.960   2.558
 2117SOL    HW1 6359   2.831   2.913   2.612
 2117SOL    HW2 6360   2.960   2.892   2.515
 2118SOL     OW 6361   2.876   2.098   2.833
 2118SOL    HW1 6362   2.868   2.062   2.740
 2118SOL    HW2 6363   2.874   2.022   2.898
 2119SOL     OW 6364   2.452   3.349   2.353
 2119SOL    HW1 6365   2.494   3.291   2.283
 2119SOL    HW2 6366   2.408   3.428   2.309
 2120SOL     OW 6367   3.571   2.247   3.243
 2120SOL    HW1 6368   3.644   2.316   3.247
 2120SOL    HW2 6369   3.599   2.172   3.184
 2121SOL     OW 6370   2.117   3.210   2.152
 2121SOL    HW1 6371   2.021   3.211   2.125
 2121SOL    HW2 6372   2.129   3.263   2.236
 2122SOL     OW 6373   1.967   2.875   3.588
 2122SOL    HW1 6374   1.890   2.842   3.642
 2122SOL    HW2 6375   2.052   2.845   3.630
 2123SOL     OW 6376   2.534   2.065   3.351
 2123SOL    HW1 6377   2.624   2.049   3.311
 2123SOL    HW2 6378   2.542   2.070   3.450
 2124SOL     OW 6379   1.937   2.207   1.895
 2124SOL    HW1 6380   1.845   2.179   1.866
 2124SOL    HW2 6381   1.968   2.284   1.839
 2125SOL     OW 6382   3.302   2.718   3.260
 2125SOL    HW1 6383   3.245   2.770   3.197
 2125SOL    HW2 6384   3.398   2.730   3.236
 2126SOL     OW 6385   3.045   3.197   1.981
 2126SOL    HW1 6386   2.946   3.186   1.983
 2126SOL    HW2 6387   3.079   3.212   2.074
 2127SOL     OW 6388   2.475   2.704   3.293
 2127SOL    HW1 6389   2.531   2.785   3.276
 2127SOL    HW2 6390   2.534   2.624   3.296
 2128SOL     OW 6391   3.355   3.629   2.821
 2128SOL    HW1 6392   3.388   3.693   2.752
 2128SOL    HW2 6393   3.421   3.623   2.896
 2129SOL     OW 6394   2.578   2.427   3.570
 2129SOL    HW1 6395   2.597   2.492   3.644
 2129SOL    HW2 6396   2.638   2.347   3.579
 2130SOL     OW 6397   3.312   3.082   3.495
 2130SOL    HW1 6398   3.303   3.072   3.594
 2130SOL    HW2 6399   3.408   3.075   3.469
 2131SOL     OW 6400   2.252   3.603   3.422
 2131SOL    HW1 6401   2.161   3.644   3.420
 2131SOL    HW2 6402   2.245   3.509   3.454
 2132SOL     OW 6403   3.536   2.745   3.116
 2132SOL    HW1 6404   3.509   2.656   3.079
 2132SOL    HW2 6405   3.537   2.813   3.043
 2133SOL     OW 6406   3.087   2.187   2.311
 2133SOL    HW1 6407   3.152   2.113   2.300
 2133SOL    HW2 6408   3.107   2.237   2.395
 2134SOL     OW 6409   2.456   2.607   2.514
 2134SOL    HW1 6410   2.506   2.692   2.495
 2134SOL    HW2 6411   2.368   2.609   2.466
 2135SOL     OW 6412   3.639   2.204   3.504
 2135SOL    HW1 6413   3.622   2.235   3.410
 2135SOL    HW2 6414   3.555   2.167   3.542
 2136SOL     OW 6415   3.592   2.796   3.379
 2136SOL    HW1 6416   3.630   2.887   3.394
 2136SOL    HW2 6417   3.584   2.779   3.280
 2137SOL     OW 6418   2.721   3.236   1.878
 2137SOL    HW1 6419   2.675   3.251   1.966
 2137SOL    HW2 6420   2.765   3.321   1.848
 2138SOL     OW 6421   2.523   3.652   2.815
 2138SOL    HW1 6422   2.477   3.740   2.802
 2138SOL    HW2 6423   2.622   3.664   2.808
 2139SOL     OW 6424   2.721   2.818   2.723
 2139SOL    HW1 6425   2.775   2.749   2.771
 2139SOL    HW2 6426   2.689   2.887   2.789
 2140SOL     OW 6427   2.945   2.846   1.949
 2140SOL    HW1 6428   2.922   2.899   1.867
 2140SOL    HW2 6429   3.026   2.790   1.930
 2141SOL     OW 6430   3.723   3.431   2.713
 2141SOL    HW1 6431   3.652   3.419   2.643
 2141SOL    HW2 6432   3.724   3.352   2.773
 2142SOL     OW 6433   2.083   3.176   3.706
 2142SOL    HW1 6434   2.018   3.103   3.685
 2142SOL    HW2 6435   2.087   3.190   3.804
 2143SOL     OW 6436   1.941   3.102   2.515
 2143SOL    HW1 6437   1.940   3.055   2.603
 2143SOL    HW2 6438   2.023   3.074   2.464
 2144SOL     OW 6439   2.534   3.253   3.486
 2144SOL    HW1 6440   2.456   3.203   3.524
 2144SOL    HW2 6441   2.531   3.348   3.517
 2145SOL     OW 6442   3.686   2.054   3.089
 2145SOL    HW1 6443   3.682   1.964   3.133
 2145SOL    HW2 6444   3.689   2.043   2.990
 2146SOL     OW 6445   3.567   3.349   2.966
 2146SOL    HW1 6446   3.474   3.324   2.939
 2146SOL    HW2 6447   3.593   3.299   3.048
 2147SOL     OW 6448   2.179   2.409   3.142
 2147SOL    HW1 6449   2.217   2.350   3.214
 2147SOL    HW2 6450   2.219   2.383   3.054
 2148SOL     OW 6451   2.674   3.448   2.549
 2148SOL    HW1 6452   2.706   3.458   2.455
 2148SOL    HW2 6453   2.595   3.386   2.551
 2149SOL     OW 6454   3.286   2.076   2.974
 2149SOL    HW1 6455   3.338   2.011   3.029
 2149SOL    HW2 6456   3.237   2.139   3.035
 2150SOL     OW 6457   2.863   1.896   3.016
 2150SOL    HW1 6458   2.800   1.824   2.985
 2150SOL    HW2 6459   2.956   1.860   3.016
 2151SOL     OW 6460   2.632   3.192   2.163
 2151SOL    HW1 6461   2.586   3.105   2.180
 2151SOL    HW2 6462   2.723   3.189   2.204
 2152SOL     OW 6463   2.480   3.429   3.146
 2152SOL    HW1 6464   2.475   3.511   3.203
 2152SOL    HW2 6465   2.569   3.426   3.101
 2153SOL     OW 6466   3.214   1.914   2.030
 2153SOL    HW1 6467   3.249   1.873   1.946
 2153SOL    HW2 6468   3.124   1.876   2.050
 2154SOL     OW 6469   3.162   2.315   2.553
 2154SOL    HW1 6470   3.103   2.395   2.557
 2154SOL    HW2 6471   3.177   2.280   2.646
 2155SOL     OW 6472   3.455   2.083   2.744
 2155SOL    HW1 6473   3.371   2.082   2.798
 2155SOL    HW2 6474   3.457   2.166   2.688
 2156SOL     OW 6475   1.901   2.939   2.162
 2156SOL    HW1 6476   2.000   2.928   2.153
 2156SOL    HW2 6477   1.861   2.853   2.194
 2157SOL     OW 6478   2.737   3.508   2.199
 2157SOL    HW1 6479   2.660   3.473   2.145
 2157SOL    HW2 6480   2.705   3.579   2.261
 2158SOL     OW 6481   2.092   2.490   3.837
 2158SOL    HW1 6482   1.999   2.488   3.874
 2158SOL    HW2 6483   2.093   2.451   3.745
 2159SOL     OW 6484   2.087   2.137   4.720
 2159SOL    HW1 6485   2.122   2.120   4.812
 2159SOL    HW2 6486   1.999   2.092   4.708
 2160SOL     OW 6487   2.997   2.565   4.441
 2160SOL    HW1 6488   3.054   2.643   4.416
 2160SOL    HW2 6489   2.937   2.591   4.517
 2161SOL     OW 6490   3.617   2.469   3.955
 2161SOL    HW1 6491   3.605   2.456   3.856
 2161SOL    HW2 6492   3.587   2.388   4.004
 2162SOL     OW 6493   3.465   2.309   4.461
 2162SOL    HW1 6494   3.391   2.355   4.411
 2162SOL    HW2 6495   3.516   2.377   4.514
 2163SOL     OW 6496   2.093   3.575   4.207
 2163SOL    HW1 6497   2.127   3.652   4.261
 2163SOL    HW2 6498   2.137   3.575   4.117
 2164SOL     OW 6499   2.092   3.296   4.262
 2164SOL    HW1 6500   2.066   3.392   4.262
 2164SOL    HW2 6501   2.021   3.242   4.307
 2165SOL     OW 6502   2.468   2.826   3.847
 2165SOL    HW1 6503   2.475   2.910   3.793
 2165SOL    HW2 6504   2.514   2.839   3.935
 2166SOL     OW 6505   1.984   2.505   4.287
 2166SOL    HW1 6506   1.939   2.417   4.304
 2166SOL    HW2 6507   1.983   2.559   4.371
 2167SOL     OW 6508   3.704   3.629   4.083
 2167SOL    HW1 6509   3.758   3.600   4.163
 2167SOL    HW2 6510   3.734   3.719   4.054
 2168SOL     OW 6511   1.889   3.458   3.841
 2168SOL    HW1 6512   1.870   3.362   3.862
 2168SOL    HW2 6513   1.856   3.516   3.916
 2169SOL     OW 6514   3.551   2.784   4.336
 2169SOL    HW1 6515   3.646   2.755   4.344
 2169SOL    HW2 6516   3.543   2.849   4.261
 2170SOL     OW 6517   3.503   2.970   4.156
 2170SOL    HW1 6518   3.589   2.972   4.104
 2170SOL    HW2 6519   3.517   3.017   4.244
 2171SOL     OW 6520   2.475   3.227   4.450
 2171SOL    HW1 6521   2.426   3.140   4.459
 2171SOL    HW2 6522   2.452   3.270   4.363
 2172SOL     OW 6523   2.671   1.866   4.226
 2172SOL    HW1 6524   2.711   1.957   4.217
 2172SOL    HW2 6525   2.571   1.874   4.232
 2173SOL     OW 6526   3.387   2.861   3.914
 2173SOL    HW1 6527   3.324   2.785   3.927
 2173SOL    HW2 6528   3.435   2.879   4.000
 2174SOL     OW 6529   3.529   3.576   4.296
 2174SOL    HW1 6530   3.488   3.553   4.208
 2174SOL    HW2 6531   3.511   3.502   4.361
 2175SOL     OW 6532   2.460   2.591   3.994
 2175SOL    HW1 6533   2.484   2.660   3.926
 2175SOL    HW2 6534   2.382   2.624   4.048
 2176SOL     OW 6535   3.143   2.207   4.668
 2176SOL    HW1 6536   3.057   2.157   4.655
 2176SOL    HW2 6537   3.205   2.153   4.724
 2177SOL     OW 6538   3.438   3.524   4.031
 2177SOL    HW1 6539   3.527   3.570   4.034
 2177SOL    HW2 6540   3.417   3.500   3.936
 2178SOL     OW 6541   2.903   2.563   4.153
 2178SOL    HW1 6542   2.929   2.559   4.249
 2178SOL    HW2 6543   2.818   2.512   4.139
 2179SOL     OW 6544   1.938   2.673   4.513
 2179SOL    HW1 6545   2.037   2.661   4.522
 2179SOL    HW2 6546   1.914   2.768   4.534
 2180SOL     OW 6547   2.727   2.210   3.919
 2180SOL    HW1 6548   2.786   2.273   3.870
 2180SOL    HW2 6549   2.746   2.116   3.890
 2181SOL     OW 6550   3.224   3.006   4.269
 2181SOL    HW1 6551   3.307   2.977   4.221
 2181SOL    HW2 6552   3.175   3.073   4.213
 2182SOL     OW 6553   2.870   3.318   4.201
 2182SOL    HW1 6554   2.824   3.390   4.149
 2182SOL    HW2 6555   2.866   3.338   4.299
 2183SOL     OW 6556   2.213   3.663   4.577
 2183SOL    HW1 6557   2.263   3.577   4.583
 2183SOL    HW2 6558   2.278   3.740   4.574
 2184SOL     OW 6559   3.657   2.928   4.597
 2184SOL    HW1 6560   3.595   2.913   4.521
 2184SOL    HW2 6561   3.605   2.939   4.682
 2185SOL     OW 6562   2.183   2.805   3.966
 2185SOL    HW1 6563   2.265   2.844   3.924
 2185SOL    HW2 6564   2.156   2.723   3.917
 2186SOL     OW 6565   2.973   3.638   3.961
 2186SOL    HW1 6566   2.913   3.576   4.011
 2186SOL    HW2 6567   3.004   3.594   3.876
 2187SOL     OW 6568   3.494   3.239   3.805
 2187SOL    HW1 6569   3.462   3.333   3.795
 2187SOL    HW2 6570   3.418   3.176   3.793
 2188SOL     OW 6571   2.326   3.605   4.047
 2188SOL    HW1 6572   2.359   3.644   4.133
 2188SOL    HW2 6573   2.402   3.598   3.982
 2189SOL     OW 6574   3.262   1.969   4.150
 2189SOL    HW1 6575   3.238   1.932   4.060
 2189SOL    HW2 6576   3.361   1.985   4.154
 2190SOL     OW 6577   2.802   3.560   4.628
 2190SOL    HW1 6578   2.882   3.503   4.649
 2190SOL    HW2 6579   2.753   3.520   4.551
 2191SOL     OW 6580   2.244   2.562   4.204
 2191SOL    HW1 6581   2.289   2.472   4.201
 2191SOL    HW2 6582   2.150   2.551   4.237
 2192SOL     OW 6583   2.476   1.984   3.841
 2192SOL    HW1 6584   2.574   1.962   3.848
 2192SOL    HW2 6585   2.445   1.967   3.748
 2193SOL     OW 6586   2.401   1.926   4.236
 2193SOL    HW1 6587   2.320   1.927   4.294
 2193SOL    HW2 6588   2.404   2.009   4.181
 2194SOL     OW 6589   3.296   3.050   3.765
 2194SOL    HW1 6590   3.328   2.974   3.822
 2194SOL    HW2 6591   3.204   3.077   3.795
 2195SOL     OW 6592   2.159   1.897   3.895
 2195SOL    HW1 6593   2.208   1.981   3.874
 2195SOL    HW2 6594   2.221   1.832   3.940
 2196SOL     OW 6595   2.797   2.098   4.204
 2196SOL    HW1 6596   2.749   2.139   4.126
 2196SOL    HW2 6597   2.896   2.096   4.185
 2197SOL     OW 6598   2.321   3.014   4.465
 2197SOL    HW1 6599   2.250   2.987   4.530
 2197SOL    HW2 6600   2.295   2.986   4.372
 2198SOL     OW 6601   3.133   3.659   4.315
 2198SOL    HW1 6602   3.177   3.723   4.251
 2198SOL    HW2 6603   3.083   3.711   4.385
 2199SOL     OW 6604   2.894   2.411   3.740
 2199SOL    HW1 6605   2.853   2.493   3.701
 2199SOL    HW2 6606   2.958   2.437   3.813
 2200SOL     OW 6607   2.728   2.316   4.366
 2200SOL    HW1 6608   2.696   2.388   4.304
 2200SOL    HW2 6609   2.752   2.235   4.313
 2201SOL     OW 6610   3.719   2.695   4.101
 2201SOL    HW1 6611   3.761   2.631   4.165
 2201SOL    HW2 6612   3.681   2.644   4.023
 2202SOL     OW 6613   2.350   3.247   3.898
 2202SOL    HW1 6614   2.263   3.232   3.945
 2202SOL    HW2 6615   2.333   3.273   3.803
 2203SOL     OW 6616   3.526   3.142   4.381
 2203SOL    HW1 6617   3.625   3.150   4.395
 2203SOL    HW2 6618   3.481   3.226   4.412
 2204SOL     OW 6619   3.252   2.437   3.802
 2204SOL    HW1 6620   3.198   2.416   3.883
 2204SOL    HW2 6621   3.343   2.396   3.811
 2205SOL     OW 6622   2.389   2.118   4.052
 2205SOL    HW1 6623   2.416   2.059   3.977
 2205SOL    HW2 6624   2.389   2.213   4.021
 2206SOL     OW 6625   2.973   3.057   4.824
 2206SOL    HW1 6626   2.933   3.101   4.905
 2206SOL    HW2 6627   2.932   3.094   4.741
 2207SOL     OW 6628   2.567   2.912   4.092
 2207SOL    HW1 6629   2.553   2.919   4.191
 2207SOL    HW2 6630   2.651   2.861   4.074
 2208SOL     OW 6631   2.229   2.962   4.225
 2208SOL    HW1 6632   2.222   3.045   4.169
 2208SOL    HW2 6633   2.233   2.882   4.165
 2209SOL     OW 6634   3.114   3.210   4.112
 2209SOL    HW1 6635   3.164   3.287   4.152
 2209SOL    HW2 6636   3.019   3.212   4.144
 2210SOL     OW 6637   3.444   2.501   4.196
 2210SOL    HW1 6638   3.413   2.562   4.269
 2210SOL    HW2 6639   3.494   2.553   4.127
 2211SOL     OW 6640   3.071   2.387   3.999
 2211SOL    HW1 6641   3.084   2.303   4.053
 2211SOL    HW2 6642   3.042   2.461   4.059
 2212SOL     OW 6643   2.169   1.925   4.342
 2212SOL    HW1 6644   2.158   2.019   4.375
 2212SOL    HW2 6645   2.164   1.862   4.419
 2213SOL     OW 6646   3.484   2.229   4.098
 2213SOL    HW1 6647   3.486   2.153   4.162
 2213SOL    HW2 6648   3.436   2.306   4.138
 2214SOL     OW 6649   3.402   2.136   3.849
 2214SOL    HW1 6650   3.341   2.061   3.872
 2214SOL    HW2 6651   3.424   2.188   3.932
 2215SOL     OW 6652   3.165   2.700   3.766
 2215SOL    HW1 6653   3.199   2.607   3.781
 2215SOL    HW2 6654   3.183   2.727   3.671
 2216SOL     OW 6655   1.870   3.188   3.924
 2216SOL    HW1 6656   1.777   3.209   3.893
 2216SOL    HW2 6657   1.880   3.089   3.937
 2217SOL     OW 6658   2.677   2.434   4.049
 2217SOL    HW1 6659   2.684   2.345   4.003
 2217SOL    HW2 6660   2.583   2.468   4.041
 2218SOL     OW 6661   2.335   2.362   3.915
 2218SOL    HW1 6662   2.396   2.442   3.919
 2218SOL    HW2 6663   2.240   2.393   3.922
 2219SOL     OW 6664   3.164   2.717   4.033
 2219SOL    HW1 6665   3.078   2.686   4.075
 2219SOL    HW2 6666   3.160   2.703   3.934
 2220SOL     OW 6667   3.588   1.997   4.247
 2220SOL    HW1 6668   3.661   1.980   4.180
 2220SOL    HW2 6669   3.557   1.910   4.285
 2221SOL     OW 6670   3.250   3.435   4.201
 2221SOL    HW1 6671   3.317   3.447   4.127
 2221SOL    HW2 6672   3.210   3.524   4.224
 2222SOL     OW 6673   2.534   3.478   3.878
 2222SOL    HW1 6674   2.543   3.488   3.779
 2222SOL    HW2 6675   2.494   3.389   3.899
 2223SOL     OW 6676   3.703   2.037   4.687
 2223SOL    HW1 6677   3.742   1.952   4.651
 2223SOL    HW2 6678   3.605   2.039   4.668
 2224SOL     OW 6679   3.056   3.474   3.755
 2224SOL    HW1 6680   3.062   3.381   3.792
 2224SOL    HW2 6681   2.997   3.474   3.675
 2225SOL     OW 6682   2.778   2.772   4.015
 2225SOL    HW1 6683   2.841   2.810   3.947
 2225SOL    HW2 6684   2.818   2.689   4.054
 2226SOL     OW 6685   3.366   3.469   3.768
 2226SOL    HW1 6686   3.274   3.506   3.775
 2226SOL    HW2 6687   3.404   3.489   3.678
 2227SOL     OW 6688   2.452   3.349   4.215
 2227SOL    HW1 6689   2.494   3.291   4.145
 2227SOL    HW2 6690   2.408   3.428   4.171
 2228SOL     OW 6691   2.117   3.210   4.014
 2228SOL    HW1 6692   2.021   3.211   3.987
 2228SOL    HW2 6693   2.129   3.263   4.098
 2229SOL     OW 6694   1.937   2.207   3.757
 2229SOL    HW1 6695   1.845   2.179   3.728
 2229SOL    HW2 6696   1.968   2.284   3.701
 2230SOL     OW 6697   1.934   2.028   4.042
 2230SOL    HW1 6698   1.917   2.111   3.988
 2230SOL    HW2 6699   2.024   1.991   4.020
 2231SOL     OW 6700   3.045   3.197   3.843
 2231SOL    HW1 6701   2.946   3.186   3.845
 2231SOL    HW2 6702   3.079   3.212   3.936
 2232SOL     OW 6703   3.087   2.187   4.173
 2232SOL    HW1 6704   3.152   2.113   4.162
 2232SOL    HW2 6705   3.107   2.237   4.257
 2233SOL     OW 6706   2.456   2.607   4.376
 2233SOL    HW1 6707   2.506   2.692   4.357
 2233SOL    HW2 6708   2.368   2.609   4.328
 2234SOL     OW 6709   2.721   3.236   3.740
 2234SOL    HW1 6710   2.675   3.251   3.828
 2234SOL    HW2 6711   2.765   3.321   3.710
 2235SOL     OW 6712   2.945   2.846   3.811
 2235SOL    HW1 6713   2.922   2.899   3.729
 2235SOL    HW2 6714   3.026   2.790   3.792
 2236SOL     OW 6715   1.941   3.102   4.377
 2236SOL    HW1 6716   1.940   3.055   4.465
 2236SOL    HW2 6717   2.023   3.074   4.326
 2237SOL     OW 6718   2.290   2.286   4.244
 2237SOL    HW1 6719   2.320   2.214   4.182
 2237SOL    HW2 6720   2.251   2.246   4.327
 2238SOL     OW 6721   2.674   3.448   4.411
 2238SOL    HW1 6722   2.706   3.458   4.317
 2238SOL    HW2 6723   2.595   3.386   4.413
 2239SOL     OW 6724   2.632   3.192   4.025
 2239SOL    HW1 6725   2.586   3.105   4.042
 2239SOL    HW2 6726   2.723   3.189   4.066
 2240SOL     OW 6727   3.214   1.914   3.892
 2240SOL    HW1 6728   3.249   1.873   3.808
 2240SOL    HW2 6729   3.124   1.876   3.912
 2241SOL     OW 6730   3.162   2.315   4.415
 2241SOL    HW1 6731   3.103   2.395   4.419
 2241SOL    HW2 6732   3.177   2.280   4.508
 2242SOL     OW 6733   1.901   2.939   4.024
 2242SOL    HW1 6734   2.000   2.928   4.015
 2242SOL    HW2 6735   1.861   2.853   4.056
 2243SOL     OW 6736   2.737   3.508   4.061
 2243SOL    HW1 6737   2.660   3.473   4.007
 2243SOL    HW2 6738   2.705   3.579   4.123
 2244SOL     OW 6739   2.092   4.352   0.113
 2244SOL    HW1 6740   1.999   4.350   0.150
 2244SOL    HW2 6741   2.093   4.313   0.021
 2245SOL     OW 6742   2.087   3.999   0.996
 2245SOL    HW1 6743   2.122   3.982   1.088
 2245SOL    HW2 6744   1.999   3.954   0.984
 2246SOL     OW 6745   1.881   4.092   0.647
 2246SOL    HW1 6746   1.799   4.135   0.686
 2246SOL    HW2 6747   1.853   4.019   0.584
 2247SOL     OW 6748   3.617   4.331   0.231
 2247SOL    HW1 6749   3.605   4.318   0.132
 2247SOL    HW2 6750   3.587   4.250   0.280
 2248SOL     OW 6751   2.547   4.736   0.665
 2248SOL    HW1 6752   2.616   4.720   0.735
 2248SOL    HW2 6753   2.474   4.793   0.703
 2249SOL     OW 6754   2.300   4.116   1.499
 2249SOL    HW1 6755   2.382   4.060   1.508
 2249SOL    HW2 6756   2.219   4.058   1.503
 2250SOL     OW 6757   3.465   4.171   0.737
 2250SOL    HW1 6758   3.391   4.217   0.687
 2250SOL    HW2 6759   3.516   4.239   0.790
 2251SOL     OW 6760   3.456   3.838   1.480
 2251SOL    HW1 6761   3.438   3.905   1.408
 2251SOL    HW2 6762   3.453   3.884   1.569
 2252SOL     OW 6763   1.984   4.367   0.563
 2252SOL    HW1 6764   1.939   4.279   0.580
 2252SOL    HW2 6765   1.983   4.421   0.647
 2253SOL     OW 6766   1.975   4.461   1.597
 2253SOL    HW1 6767   2.063   4.448   1.642
 2253SOL    HW2 6768   1.962   4.558   1.575
 2254SOL     OW 6769   2.671   3.728   0.502
 2254SOL    HW1 6770   2.711   3.819   0.493
 2254SOL    HW2 6771   2.571   3.736   0.508
 2255SOL     OW 6772   2.179   3.975   1.801
 2255SOL    HW1 6773   2.250   4.046   1.807
 2255SOL    HW2 6774   2.091   4.014   1.829
 2256SOL     OW 6775   3.143   4.069   0.944
 2256SOL    HW1 6776   3.057   4.019   0.931
 2256SOL    HW2 6777   3.205   4.015   1.000
 2257SOL     OW 6778   2.669   4.329   1.465
 2257SOL    HW1 6779   2.622   4.326   1.554
 2257SOL    HW2 6780   2.618   4.274   1.399
 2258SOL     OW 6781   3.256   4.193   1.674
 2258SOL    HW1 6782   3.236   4.236   1.762
 2258SOL    HW2 6783   3.334   4.131   1.683
 2259SOL     OW 6784   2.853   4.134   1.242
 2259SOL    HW1 6785   2.776   4.168   1.296
 2259SOL    HW2 6786   2.819   4.083   1.163
 2260SOL     OW 6787   2.903   4.425   0.429
 2260SOL    HW1 6788   2.929   4.421   0.525
 2260SOL    HW2 6789   2.818   4.374   0.415
 2261SOL     OW 6790   2.727   4.072   0.195
 2261SOL    HW1 6791   2.786   4.135   0.146
 2261SOL    HW2 6792   2.746   3.978   0.166
 2262SOL     OW 6793   3.581   4.309   1.831
 2262SOL    HW1 6794   3.555   4.398   1.795
 2262SOL    HW2 6795   3.579   4.241   1.758
 2263SOL     OW 6796   2.412   3.920   0.885
 2263SOL    HW1 6797   2.407   3.915   0.985
 2263SOL    HW2 6798   2.414   4.016   0.856
 2264SOL     OW 6799   3.320   4.459   0.728
 2264SOL    HW1 6800   3.315   4.394   0.803
 2264SOL    HW2 6801   3.400   4.518   0.741
 2265SOL     OW 6802   2.064   4.009   1.498
 2265SOL    HW1 6803   1.984   4.069   1.485
 2265SOL    HW2 6804   2.054   3.960   1.584
 2266SOL     OW 6805   3.262   3.831   0.426
 2266SOL    HW1 6806   3.238   3.794   0.336
 2266SOL    HW2 6807   3.361   3.847   0.430
 2267SOL     OW 6808   2.244   4.424   0.480
 2267SOL    HW1 6809   2.289   4.334   0.477
 2267SOL    HW2 6810   2.150   4.413   0.513
 2268SOL     OW 6811   3.409   3.946   1.729
 2268SOL    HW1 6812   3.404   3.983   1.821
 2268SOL    HW2 6813   3.337   3.877   1.717
 2269SOL     OW 6814   2.476   3.846   0.117
 2269SOL    HW1 6815   2.574   3.824   0.124
 2269SOL    HW2 6816   2.445   3.829   0.024
 2270SOL     OW 6817   2.643   3.988   1.749
 2270SOL    HW1 6818   2.710   3.927   1.792
 2270SOL    HW2 6819   2.570   4.007   1.814
 2271SOL     OW 6820   3.213   4.314   1.433
 2271SOL    HW1 6821   3.241   4.271   1.518
 2271SOL    HW2 6822   3.238   4.410   1.434
 2272SOL     OW 6823   2.784   4.227   0.899
 2272SOL    HW1 6824   2.759   4.218   0.803
 2272SOL    HW2 6825   2.832   4.145   0.930
 2273SOL     OW 6826   2.401   3.788   0.512
 2273SOL    HW1 6827   2.320   3.789   0.570
 2273SOL    HW2 6828   2.404   3.871   0.457
 2274SOL     OW 6829   2.797   3.960   0.480
 2274SOL    HW1 6830   2.749   4.001   0.402
 2274SOL    HW2 6831   2.896   3.958   0.461
 2275SOL     OW 6832   2.938   4.407   1.464
 2275SOL    HW1 6833   2.858   4.346   1.467
 2275SOL    HW2 6834   3.019   4.354   1.440
 2276SOL     OW 6835   2.894   4.273   0.016
 2276SOL    HW1 6836   2.853   4.355  -0.023
 2276SOL    HW2 6837   2.958   4.299   0.089
 2277SOL     OW 6838   1.940   4.280   1.386
 2277SOL    HW1 6839   2.032   4.279   1.345
 2277SOL    HW2 6840   1.934   4.354   1.453
 2278SOL     OW 6841   2.423   3.946   1.147
 2278SOL    HW1 6842   2.461   3.862   1.184
 2278SOL    HW2 6843   2.335   3.965   1.191
 2279SOL     OW 6844   2.728   4.178   0.642
 2279SOL    HW1 6845   2.696   4.250   0.580
 2279SOL    HW2 6846   2.752   4.097   0.589
 2280SOL     OW 6847   2.879   3.763   0.753
 2280SOL    HW1 6848   2.807   3.768   0.684
 2280SOL    HW2 6849   2.855   3.694   0.822
 2281SOL     OW 6850   3.328   4.314   0.992
 2281SOL    HW1 6851   3.298   4.219   0.999
 2281SOL    HW2 6852   3.401   4.330   1.058
 2282SOL     OW 6853   3.252   4.299   0.078
 2282SOL    HW1 6854   3.198   4.278   0.159
 2282SOL    HW2 6855   3.343   4.258   0.087
 2283SOL     OW 6856   2.389   3.980   0.328
 2283SOL    HW1 6857   2.416   3.921   0.253
 2283SOL    HW2 6858   2.389   4.075   0.297
 2284SOL     OW 6859   2.777   3.813   1.402
 2284SOL    HW1 6860   2.802   3.793   1.307
 2284SOL    HW2 6861   2.849   3.869   1.444
 2285SOL     OW 6862   3.136   4.110   1.262
 2285SOL    HW1 6863   3.157   4.184   1.326
 2285SOL    HW2 6864   3.047   4.127   1.219
 2286SOL     OW 6865   2.428   4.261   0.865
 2286SOL    HW1 6866   2.440   4.327   0.791
 2286SOL    HW2 6867   2.474   4.295   0.948
 2287SOL     OW 6868   3.444   4.363   0.472
 2287SOL    HW1 6869   3.413   4.424   0.545
 2287SOL    HW2 6870   3.494   4.415   0.403
 2288SOL     OW 6871   2.875   3.829   1.770
 2288SOL    HW1 6872   2.881   3.914   1.718
 2288SOL    HW2 6873   2.907   3.753   1.713
 2289SOL     OW 6874   2.366   3.774   1.740
 2289SOL    HW1 6875   2.324   3.717   1.670
 2289SOL    HW2 6876   2.300   3.843   1.772
 2290SOL     OW 6877   3.071   4.249   0.275
 2290SOL    HW1 6878   3.084   4.165   0.329
 2290SOL    HW2 6879   3.042   4.323   0.335
 2291SOL     OW 6880   2.169   3.937   1.231
 2291SOL    HW1 6881   2.146   3.974   1.321
 2291SOL    HW2 6882   2.139   3.842   1.225
 2292SOL     OW 6883   2.594   4.358   1.064
 2292SOL    HW1 6884   2.653   4.332   0.988
 2292SOL    HW2 6885   2.566   4.454   1.053
 2293SOL     OW 6886   2.169   3.787   0.618
 2293SOL    HW1 6887   2.158   3.881   0.651
 2293SOL    HW2 6888   2.164   3.724   0.695
 2294SOL     OW 6889   3.484   4.091   0.374
 2294SOL    HW1 6890   3.486   4.015   0.438
 2294SOL    HW2 6891   3.436   4.168   0.414
 2295SOL     OW 6892   3.402   3.998   0.125
 2295SOL    HW1 6893   3.341   3.923   0.148
 2295SOL    HW2 6894   3.424   4.050   0.208
 2296SOL     OW 6895   2.181   4.534   0.949
 2296SOL    HW1 6896   2.274   4.570   0.954
 2296SOL    HW2 6897   2.175   4.449   1.001
 2297SOL     OW 6898   2.201   4.233   1.006
 2297SOL    HW1 6899   2.149   4.150   0.989
 2297SOL    HW2 6900   2.278   4.238   0.942
 2298SOL     OW 6901   3.000   4.104   1.678
 2298SOL    HW1 6902   2.955   4.167   1.742
 2298SOL    HW2 6903   3.093   4.135   1.661
 2299SOL     OW 6904   3.022   3.931   1.477
 2299SOL    HW1 6905   3.022   3.995   1.554
 2299SOL    HW2 6906   3.050   3.979   1.394
 2300SOL     OW 6907   1.902   4.268   1.114
 2300SOL    HW1 6908   1.987   4.235   1.073
 2300SOL    HW2 6909   1.915   4.283   1.212
 2301SOL     OW 6910   2.051   4.244   1.722
 2301SOL    HW1 6911   2.110   4.204   1.652
 2301SOL    HW2 6912   1.993   4.315   1.681
 2302SOL     OW 6913   2.677   4.296   0.325
 2302SOL    HW1 6914   2.684   4.207   0.279
 2302SOL    HW2 6915   2.583   4.330   0.317
 2303SOL     OW 6916   3.519   4.328   1.206
 2303SOL    HW1 6917   3.481   4.259   1.268
 2303SOL    HW2 6918   3.601   4.292   1.162
 2304SOL     OW 6919   2.533   4.188   1.269
 2304SOL    HW1 6920   2.499   4.099   1.239
 2304SOL    HW2 6921   2.559   4.242   1.189
 2305SOL     OW 6922   2.335   4.224   0.191
 2305SOL    HW1 6923   2.396   4.304   0.195
 2305SOL    HW2 6924   2.240   4.255   0.198
 2306SOL     OW 6925   2.765   3.810   0.133
 2306SOL    HW1 6926   2.816   3.811   0.047
 2306SOL    HW2 6927   2.821   3.768   0.204
 2307SOL     OW 6928   3.588   3.859   0.523
 2307SOL    HW1 6929   3.661   3.842   0.456
 2307SOL    HW2 6930   3.557   3.772   0.561
 2308SOL     OW 6931   3.142   4.651   0.672
 2308SOL    HW1 6932   3.202   4.570   0.674
 2308SOL    HW2 6933   3.182   4.720   0.612
 2309SOL     OW 6934   3.703   3.899   0.963
 2309SOL    HW1 6935   3.742   3.814   0.927
 2309SOL    HW2 6936   3.605   3.901   0.944
 2310SOL     OW 6937   2.125   4.050   0.720
 2310SOL    HW1 6938   2.046   4.101   0.686
 2310SOL    HW2 6939   2.116   4.035   0.818
 2311SOL     OW 6940   2.876   3.960   0.971
 2311SOL    HW1 6941   2.868   3.924   0.878
 2311SOL    HW2 6942   2.874   3.884   1.036
 2312SOL     OW 6943   3.571   4.109   1.381
 2312SOL    HW1 6944   3.644   4.178   1.385
 2312SOL    HW2 6945   3.599   4.034   1.322
 2313SOL     OW 6946   2.534   3.927   1.489
 2313SOL    HW1 6947   2.624   3.911   1.449
 2313SOL    HW2 6948   2.542   3.932   1.588
 2314SOL     OW 6949   1.937   4.069   0.033
 2314SOL    HW1 6950   1.845   4.041   0.004
 2314SOL    HW2 6951   1.968   4.146  -0.023
 2315SOL     OW 6952   2.578   4.289   1.708
 2315SOL    HW1 6953   2.597   4.354   1.782
 2315SOL    HW2 6954   2.638   4.209   1.717
 2316SOL     OW 6955   3.087   4.049   0.449
 2316SOL    HW1 6956   3.152   3.975   0.438
 2316SOL    HW2 6957   3.107   4.099   0.533
 2317SOL     OW 6958   3.639   4.066   1.642
 2317SOL    HW1 6959   3.622   4.097   1.548
 2317SOL    HW2 6960   3.555   4.029   1.680
 2318SOL     OW 6961   2.945   4.708   0.087
 2318SOL    HW1 6962   2.922   4.761   0.005
 2318SOL    HW2 6963   3.026   4.652   0.068
 2319SOL     OW 6964   3.686   3.916   1.227
 2319SOL    HW1 6965   3.682   3.826   1.271
 2319SOL    HW2 6966   3.689   3.905   1.128
 2320SOL     OW 6967   2.290   4.148   0.520
 2320SOL    HW1 6968   2.320   4.076   0.458
 2320SOL    HW2 6969   2.251   4.108   0.603
 2321SOL     OW 6970   2.179   4.271   1.280
 2321SOL    HW1 6971   2.217   4.212   1.352
 2321SOL    HW2 6972   2.219   4.245   1.192
 2322SOL     OW 6973   3.286   3.938   1.112
 2322SOL    HW1 6974   3.338   3.873   1.167
 2322SOL    HW2 6975   3.237   4.001   1.173
 2323SOL     OW 6976   2.863   3.758   1.154
 2323SOL    HW1 6977   2.800   3.686   1.123
 2323SOL    HW2 6978   2.956   3.722   1.154
 2324SOL     OW 6979   3.214   3.776   0.168
 2324SOL    HW1 6980   3.249   3.735   0.084
 2324SOL    HW2 6981   3.124   3.738   0.188
 2325SOL     OW 6982   3.162   4.177   0.691
 2325SOL    HW1 6983   3.103   4.257   0.695
 2325SOL    HW2 6984   3.177   4.142   0.784
 2326SOL     OW 6985   3.455   3.945   0.882
 2326SOL    HW1 6986   3.371   3.944   0.936
 2326SOL    HW2 6987   3.457   4.028   0.826
 2327SOL     OW 6988   2.092   4.352   1.975
 2327SOL    HW1 6989   1.999   4.350   2.012
 2327SOL    HW2 6990   2.093   4.313   1.883
 2328SOL     OW 6991   2.087   3.999   2.858
 2328SOL    HW1 6992   2.122   3.982   2.950
 2328SOL    HW2 6993   1.999   3.954   2.846
 2329SOL     OW 6994   1.881   4.092   2.509
 2329SOL    HW1 6995   1.799   4.135   2.548
 2329SOL    HW2 6996   1.853   4.019   2.446
 2330SOL     OW 6997   3.617   4.331   2.093
 2330SOL    HW1 6998   3.605   4.318   1.994
 2330SOL    HW2 6999   3.587   4.250   2.142
 2331SOL     OW 7000   2.547   4.736   2.527
 2331SOL    HW1 7001   2.616   4.720   2.597
 2331SOL    HW2 7002   2.474   4.793   2.565
 2332SOL     OW 7003   2.300   4.116   3.361
 2332SOL    HW1 7004   2.382   4.060   3.370
 2332SOL    HW2 7005   2.219   4.058   3.365
 2333SOL     OW 7006   3.465   4.171   2.599
 2333SOL    HW1 7007   3.391   4.217   2.549
 2333SOL    HW2 7008   3.516   4.239   2.652
 2334SOL     OW 7009   3.456   3.838   3.342
 2334SOL    HW1 7010   3.438   3.905   3.270
 2334SOL    HW2 7011   3.453   3.884   3.431
 2335SOL     OW 7012   1.984   4.367   2.425
 2335SOL    HW1 7013   1.939   4.279   2.442
 2335SOL    HW2 7014   1.983   4.421   2.509
 2336SOL     OW 7015   1.975   4.461   3.459
 2336SOL    HW1 7016   2.063   4.448   3.504
 2336SOL    HW2 7017   1.962   4.558   3.437
 2337SOL     OW 7018   2.671   3.728   2.364
 2337SOL    HW1 7019   2.711   3.819   2.355
 2337SOL    HW2 7020   2.571   3.736   2.370
 2338SOL     OW 7021   2.179   3.975   3.663
 2338SOL    HW1 7022   2.250   4.046   3.669
 2338SOL    HW2 7023   2.091   4.014   3.691
 2339SOL     OW 7024   3.143   4.069   2.806
 2339SOL    HW1 7025   3.057   4.019   2.793
 2339SOL    HW2 7026   3.205   4.015   2.862
 2340SOL     OW 7027   2.669   4.329   3.327
 2340SOL    HW1 7028   2.622   4.326   3.416
 2340SOL    HW2 7029   2.618   4.274   3.261
 2341SOL     OW 7030   3.256   4.193   3.536
 2341SOL    HW1 7031   3.236   4.236   3.624
 2341SOL    HW2 7032   3.334   4.131   3.545
 2342SOL     OW 7033   2.853   4.134   3.104
 2342SOL    HW1 7034   2.776   4.168   3.158
 2342SOL    HW2 7035   2.819   4.083   3.025
 2343SOL     OW 7036   2.903   4.425   2.291
 2343SOL    HW1 7037   2.929   4.421   2.387
 2343SOL    HW2 7038   2.818   4.374   2.277
 2344SOL     OW 7039   2.727   4.072   2.057
 2344SOL    HW1 7040   2.786   4.135   2.008
 2344SOL    HW2 7041   2.746   3.978   2.028
 2345SOL     OW 7042   3.581   4.309   3.693
 2345SOL    HW1 7043   3.555   4.398   3.657
 2345SOL    HW2 7044   3.579   4.241   3.620
 2346SOL     OW 7045   2.412   3.920   2.747
 2346SOL    HW1 7046   2.407   3.915   2.847
 2346SOL    HW2 7047   2.414   4.016   2.718
 2347SOL     OW 7048   3.320   4.459   2.590
 2347SOL    HW1 7049   3.315   4.394   2.665
 2347SOL    HW2 7050   3.400   4.518   2.603
 2348SOL     OW 7051   2.064   4.009   3.360
 2348SOL    HW1 7052   1.984   4.069   3.347
 2348SOL    HW2 7053   2.054   3.960   3.446
 2349SOL     OW 7054   3.262   3.831   2.288
 2349SOL    HW1 7055   3.238   3.794   2.198
 2349SOL    HW2 7056   3.361   3.847   2.292
 2350SOL     OW 7057   2.244   4.424   2.342
 2350SOL    HW1 7058   2.289   4.334   2.339
 2350SOL    HW2 7059   2.150   4.413   2.375
 2351SOL     OW 7060   3.409   3.946   3.591
 2351SOL    HW1 7061   3.404   3.983   3.683
 2351SOL    HW2 7062   3.337   3.877   3.579
 2352SOL     OW 7063   2.476   3.846   1.979
 2352SOL    HW1 7064   2.574   3.824   1.986
 2352SOL    HW2 7065   2.445   3.829   1.886
 2353SOL     OW 7066   2.643   3.988   3.611
 2353SOL    HW1 7067   2.710   3.927   3.654
 2353SOL    HW2 7068   2.570   4.007   3.676
 2354SOL     OW 7069   3.213   4.314   3.295
 2354SOL    HW1 7070   3.241   4.271   3.380
 2354SOL    HW2 7071   3.238   4.410   3.296
 2355SOL     OW 7072   2.784   4.227   2.761
 2355SOL    HW1 7073   2.759   4.218   2.665
 2355SOL    HW2 7074   2.832   4.145   2.792
 2356SOL     OW 7075   2.401   3.788   2.374
 2356SOL    HW1 7076   2.320   3.789   2.432
 2356SOL    HW2 7077   2.404   3.871   2.319
 2357SOL     OW 7078   2.159   3.759   2.033
 2357SOL    HW1 7079   2.208   3.843   2.012
 2357SOL    HW2 7080   2.221   3.694   2.078
 2358SOL     OW 7081   2.797   3.960   2.342
 2358SOL    HW1 7082   2.749   4.001   2.264
 2358SOL    HW2 7083   2.896   3.958   2.323
 2359SOL     OW 7084   2.938   4.407   3.326
 2359SOL    HW1 7085   2.858   4.346   3.329
 2359SOL    HW2 7086   3.019   4.354   3.302
 2360SOL     OW 7087   2.894   4.273   1.878
 2360SOL    HW1 7088   2.853   4.355   1.839
 2360SOL    HW2 7089   2.958   4.299   1.951
 2361SOL     OW 7090   1.940   4.280   3.248
 2361SOL    HW1 7091   2.032   4.279   3.207
 2361SOL    HW2 7092   1.934   4.354   3.315
 2362SOL     OW 7093   2.423   3.946   3.009
 2362SOL    HW1 7094   2.461   3.862   3.046
 2362SOL    HW2 7095   2.335   3.965   3.053
 2363SOL     OW 7096   2.728   4.178   2.504
 2363SOL    HW1 7097   2.696   4.250   2.442
 2363SOL    HW2 7098   2.752   4.097   2.451
 2364SOL     OW 7099   2.879   3.763   2.615
 2364SOL    HW1 7100   2.807   3.768   2.546
 2364SOL    HW2 7101   2.855   3.694   2.684
 2365SOL     OW 7102   3.328   4.314   2.854
 2365SOL    HW1 7103   3.298   4.219   2.861
 2365SOL    HW2 7104   3.401   4.330   2.920
 2366SOL     OW 7105   3.252   4.299   1.940
 2366SOL    HW1 7106   3.198   4.278   2.021
 2366SOL    HW2 7107   3.343   4.258   1.949
 2367SOL     OW 7108   2.389   3.980   2.190
 2367SOL    HW1 7109   2.416   3.921   2.115
 2367SOL    HW2 7110   2.389   4.075   2.159
 2368SOL     OW 7111   2.777   3.813   3.264
 2368SOL    HW1 7112   2.802   3.793   3.169
 2368SOL    HW2 7113   2.849   3.869   3.306
 2369SOL     OW 7114   3.136   4.110   3.124
 2369SOL    HW1 7115   3.157   4.184   3.188
 2369SOL    HW2 7116   3.047   4.127   3.081
 2370SOL     OW 7117   2.428   4.261   2.727
 2370SOL    HW1 7118   2.440   4.327   2.653
 2370SOL    HW2 7119   2.474   4.295   2.810
 2371SOL     OW 7120   3.444   4.363   2.334
 2371SOL    HW1 7121   3.413   4.424   2.407
 2371SOL    HW2 7122   3.494   4.415   2.265
 2372SOL     OW 7123   2.875   3.829   3.632
 2372SOL    HW1 7124   2.881   3.914   3.580
 2372SOL    HW2 7125   2.907   3.753   3.575
 2373SOL     OW 7126   2.366   3.774   3.602
 2373SOL    HW1 7127   2.324   3.717   3.532
 2373SOL    HW2 7128   2.300   3.843   3.634
 2374SOL     OW 7129   3.071   4.249   2.137
 2374SOL    HW1 7130   3.084   4.165   2.191
 2374SOL    HW2 7131   3.042   4.323   2.197
 2375SOL     OW 7132   2.169   3.937   3.093
 2375SOL    HW1 7133   2.146   3.974   3.183
 2375SOL    HW2 7134   2.139   3.842   3.087
 2376SOL     OW 7135   2.594   4.358   2.926
 2376SOL    HW1 7136   2.653   4.332   2.850
 2376SOL    HW2 7137   2.566   4.454   2.915
 2377SOL     OW 7138   2.169   3.787   2.480
 2377SOL    HW1 7139   2.158   3.881   2.513
 2377SOL    HW2 7140   2.164   3.724   2.557
 2378SOL     OW 7141   3.484   4.091   2.236
 2378SOL    HW1 7142   3.486   4.015   2.300
 2378SOL    HW2 7143   3.436   4.168   2.276
 2379SOL     OW 7144   3.402   3.998   1.987
 2379SOL    HW1 7145   3.341   3.923   2.010
 2379SOL    HW2 7146   3.424   4.050   2.070
 2380SOL     OW 7147   2.181   4.534   2.811
 2380SOL    HW1 7148   2.274   4.570   2.816
 2380SOL    HW2 7149   2.175   4.449   2.863
 2381SOL     OW 7150   2.201   4.233   2.868
 2381SOL    HW1 7151   2.149   4.150   2.851
 2381SOL    HW2 7152   2.278   4.238   2.804
 2382SOL     OW 7153   3.000   4.104   3.540
 2382SOL    HW1 7154   2.955   4.167   3.604
 2382SOL    HW2 7155   3.093   4.135   3.523
 2383SOL     OW 7156   3.022   3.931   3.339
 2383SOL    HW1 7157   3.022   3.995   3.416
 2383SOL    HW2 7158   3.050   3.979   3.256
 2384SOL     OW 7159   1.902   4.268   2.976
 2384SOL    HW1 7160   1.987   4.235   2.935
 2384SOL    HW2 7161   1.915   4.283   3.074
 2385SOL     OW 7162   2.051   4.244   3.584
 2385SOL    HW1 7163   2.110   4.204   3.514
 2385SOL    HW2 7164   1.993   4.315   3.543
 2386SOL     OW 7165   2.677   4.296   2.187
 2386SOL    HW1 7166   2.684   4.207   2.141
 2386SOL    HW2 7167   2.583   4.330   2.179
 2387SOL     OW 7168   3.519   4.328   3.068
 2387SOL    HW1 7169   3.481   4.259   3.130
 2387SOL    HW2 7170   3.601   4.292   3.024
 2388SOL     OW 7171   2.533   4.188   3.131
 2388SOL    HW1 7172   2.499   4.099   3.101
 2388SOL    HW2 7173   2.559   4.242   3.051
 2389SOL     OW 7174   2.335   4.224   2.053
 2389SOL    HW1 7175   2.396   4.304   2.057
 2389SOL    HW2 7176   2.240   4.255   2.060
 2390SOL     OW 7177   3.588   3.859   2.385
 2390SOL    HW1 7178   3.661   3.842   2.318
 2390SOL    HW2 7179   3.557   3.772   2.423
 2391SOL     OW 7180   3.142   4.651   2.534
 2391SOL    HW1 7181   3.202   4.570   2.536
 2391SOL    HW2 7182   3.182   4.720   2.474
 2392SOL     OW 7183   3.703   3.899   2.825
 2392SOL    HW1 7184   3.742   3.814   2.789
 2392SOL    HW2 7185   3.605   3.901   2.806
 2393SOL     OW 7186   2.125   4.050   2.582
 2393SOL    HW1 7187   2.046   4.101   2.548
 2393SOL    HW2 7188   2.116   4.035   2.680
 2394SOL     OW 7189   2.876   3.960   2.833
 2394SOL    HW1 7190   2.868   3.924   2.740
 2394SOL    HW2 7191   2.874   3.884   2.898
 2395SOL     OW 7192   3.571   4.109   3.243
 2395SOL    HW1 7193   3.644   4.178   3.247
 2395SOL    HW2 7194   3.599   4.034   3.184
 2396SOL     OW 7195   2.534   3.927   3.351
 2396SOL    HW1 7196   2.624   3.911   3.311
 2396SOL    HW2 7197   2.542   3.932   3.450
 2397SOL     OW 7198   1.937   4.069   1.895
 2397SOL    HW1 7199   1.845   4.041   1.866
 2397SOL    HW2 7200   1.968   4.146   1.839
 2398SOL     OW 7201   1.934   3.890   2.180
 2398SOL    HW1 7202   1.917   3.973   2.126
 2398SOL    HW2 7203   2.024   3.853   2.158
 2399SOL     OW 7204   2.578   4.289   3.570
 2399SOL    HW1 7205   2.597   4.354   3.644
 2399SOL    HW2 7206   2.638   4.209   3.579
 2400SOL     OW 7207   3.087   4.049   2.311
 2400SOL    HW1 7208   3.152   3.975   2.300
 2400SOL    HW2 7209   3.107   4.099   2.395
 2401SOL     OW 7210   3.639   4.066   3.504
 2401SOL    HW1 7211   3.622   4.097   3.410
 2401SOL    HW2 7212   3.555   4.029   3.542
 2402SOL     OW 7213   2.945   4.708   1.949
 2402SOL    HW1 7214   2.922   4.761   1.867
 2402SOL    HW2 7215   3.026   4.652   1.930
 2403SOL     OW 7216   3.686   3.916   3.089
 2403SOL    HW1 7217   3.682   3.826   3.133
 2403SOL    HW2 7218   3.689   3.905   2.990
 2404SOL     OW 7219   2.290   4.148   2.382
 2404SOL    HW1 7220   2.320   4.076   2.320
 2404SOL    HW2 7221   2.251   4.108   2.465
 2405SOL     OW 7222   2.179   4.271   3.142
 2405SOL    HW1 7223   2.217   4.212   3.214
 2405SOL    HW2 7224   2.219   4.245   3.054
 2406SOL     OW 7225   3.286   3.938   2.974
 2406SOL    HW1 7226   3.338   3.873   3.029
 2406SOL    HW2 7227   3.237   4.001   3.035
 2407SOL     OW 7228   2.863   3.758   3.016
 2407SOL    HW1 7229   2.800   3.686   2.985
 2407SOL    HW2 7230   2.956   3.722   3.016
 2408SOL     OW 7231   3.214   3.776   2.030
 2408SOL    HW1 7232   3.249   3.735   1.946
 2408SOL    HW2 7233   3.124   3.738   2.050
 2409SOL     OW 7234   3.162   4.177   2.553
 2409SOL    HW1 7235   3.103   4.257   2.557
 2409SOL    HW2 7236   3.177   4.142   2.646
 2410SOL     OW 7237   3.455   3.945   2.744
 2410SOL    HW1 7238   3.371   3.944   2.798
 2410SOL    HW2 7239   3.457   4.028   2.688
 2411SOL     OW 7240   2.092   4.352   3.837
 2411SOL    HW1 7241   1.999   4.350   3.874
 2411SOL    HW2 7242   2.093   4.313   3.745
 2412SOL     OW 7243   2.087   3.999   4.720
 2412SOL    HW1 7244   2.122   3.982   4.812
 2412SOL    HW2 7245   1.999   3.954   4.708
 2413SOL     OW 7246   2.997   4.427   4.441
 2413SOL    HW1 7247   3.054   4.505   4.416
 2413SOL    HW2 7248   2.937   4.453   4.517
 2414SOL     OW 7249   3.617   4.331   3.955
 2414SOL    HW1 7250   3.605   4.318   3.856
 2414SOL    HW2 7251   3.587   4.250   4.004
 2415SOL     OW 7252   2.547   4.736   4.389
 2415SOL    HW1 7253   2.616   4.720   4.459
 2415SOL    HW2 7254   2.474   4.793   4.427
 2416SOL     OW 7255   3.465   4.171   4.461
 2416SOL    HW1 7256   3.391   4.217   4.411
 2416SOL    HW2 7257   3.516   4.239   4.514
 2417SOL     OW 7258   1.984   4.367   4.287
 2417SOL    HW1 7259   1.939   4.279   4.304
 2417SOL    HW2 7260   1.983   4.421   4.371
 2418SOL     OW 7261   2.671   3.728   4.226
 2418SOL    HW1 7262   2.711   3.819   4.217
 2418SOL    HW2 7263   2.571   3.736   4.232
 2419SOL     OW 7264   3.143   4.069   4.668
 2419SOL    HW1 7265   3.057   4.019   4.655
 2419SOL    HW2 7266   3.205   4.015   4.724
 2420SOL     OW 7267   2.903   4.425   4.153
 2420SOL    HW1 7268   2.929   4.421   4.249
 2420SOL    HW2 7269   2.818   4.374   4.139
 2421SOL     OW 7270   2.727   4.072   3.919
 2421SOL    HW1 7271   2.786   4.135   3.870
 2421SOL    HW2 7272   2.746   3.978   3.890
 2422SOL     OW 7273   3.262   3.831   4.150
 2422SOL    HW1 7274   3.238   3.794   4.060
 2422SOL    HW2 7275   3.361   3.847   4.154
 2423SOL     OW 7276   2.244   4.424   4.204
 2423SOL    HW1 7277   2.289   4.334   4.201
 2423SOL    HW2 7278   2.150   4.413   4.237
 2424SOL     OW 7279   2.476   3.846   3.841
 2424SOL    HW1 7280   2.574   3.824   3.848
 2424SOL    HW2 7281   2.445   3.829   3.748
 2425SOL     OW 7282   2.401   3.788   4.236
 2425SOL    HW1 7283   2.320   3.789   4.294
 2425SOL    HW2 7284   2.404   3.871   4.181
 2426SOL     OW 7285   2.159   3.759   3.895
 2426SOL    HW1 7286   2.208   3.843   3.874
 2426SOL    HW2 7287   2.221   3.694   3.940
 2427SOL     OW 7288   2.797   3.960   4.204
 2427SOL    HW1 7289   2.749   4.001   4.126
 2427SOL    HW2 7290   2.896   3.958   4.185
 2428SOL     OW 7291   2.894   4.273   3.740
 2428SOL    HW1 7292   2.853   4.355   3.701
 2428SOL    HW2 7293   2.958   4.299   3.813
 2429SOL     OW 7294   2.728   4.178   4.366
 2429SOL    HW1 7295   2.696   4.250   4.304
 2429SOL    HW2 7296   2.752   4.097   4.313
 2430SOL     OW 7297   3.252   4.299   3.802
 2430SOL    HW1 7298   3.198   4.278   3.883
 2430SOL    HW2 7299   3.343   4.258   3.811
 2431SOL     OW 7300   2.389   3.980   4.052
 2431SOL    HW1 7301   2.416   3.921   3.977
 2431SOL    HW2 7302   2.389   4.075   4.021
 2432SOL     OW 7303   3.444   4.363   4.196
 2432SOL    HW1 7304   3.413   4.424   4.269
 2432SOL    HW2 7305   3.494   4.415   4.127
 2433SOL     OW 7306   3.071   4.249   3.999
 2433SOL    HW1 7307   3.084   4.165   4.053
 2433SOL    HW2 7308   3.042   4.323   4.059
 2434SOL     OW 7309   2.169   3.787   4.342
 2434SOL    HW1 7310   2.158   3.881   4.375
 2434SOL    HW2 7311   2.164   3.724   4.419
 2435SOL     OW 7312   3.484   4.091   4.098
 2435SOL    HW1 7313   3.486   4.015   4.162
 2435SOL    HW2 7314   3.436   4.168   4.138
 2436SOL     OW 7315   3.402   3.998   3.849
 2436SOL    HW1 7316   3.341   3.923   3.872
 2436SOL    HW2 7317   3.424   4.050   3.932
 2437SOL     OW 7318   2.677   4.296   4.049
 2437SOL    HW1 7319   2.684   4.207   4.003
 2437SOL    HW2 7320   2.583   4.330   4.041
 2438SOL     OW 7321   2.335   4.224   3.915
 2438SOL    HW1 7322   2.396   4.304   3.919
 2438SOL    HW2 7323   2.240   4.255   3.922
 2439SOL     OW 7324   3.588   3.859   4.247
 2439SOL    HW1 7325   3.661   3.842   4.180
 2439SOL    HW2 7326   3.557   3.772   4.285
 2440SOL     OW 7327   3.142   4.651   4.396
 2440SOL    HW1 7328   3.202   4.570   4.398
 2440SOL    HW2 7329   3.182   4.720   4.336
 2441SOL     OW 7330   3.703   3.899   4.687
 2441SOL    HW1 7331   3.742   3.814   4.651
 2441SOL    HW2 7332   3.605   3.901   4.668
 2442SOL     OW 7333   1.937   4.069   3.757
 2442SOL    HW1 7334   1.845   4.041   3.728
 2442SOL    HW2 7335   1.968   4.146   3.701
 2443SOL     OW 7336   1.934   3.890   4.042
 2443SOL    HW1 7337   1.917   3.973   3.988
 2443SOL    HW2 7338   2.024   3.853   4.020
 2444SOL     OW 7339   3.087   4.049   4.173
 2444SOL    HW1 7340   3.152   3.975   4.162
 2444SOL    HW2 7341   3.107   4.099   4.257
 2445SOL     OW 7342   2.945   4.708   3.811
 2445SOL    HW1 7343   2.922   4.761   3.729
 2445SOL    HW2 7344   3.026   4.652   3.792
 2446SOL     OW 7345   2.290   4.148   4.244
 2446SOL    HW1 7346   2.320   4.076   4.182
 2446SOL    HW2 7347   2.251   4.108   4.327
 2447SOL     OW 7348   3.214   3.776   3.892
 2447SOL    HW1 7349   3.249   3.735   3.808
 2447SOL    HW2 7350   3.124   3.738   3.912
 2448SOL     OW 7351   3.162   4.177   4.415
 2448SOL    HW1 7352   3.103   4.257   4.419
 2448SOL    HW2 7353   3.177   4.142   4.508
 2449SOL     OW 7354   3.954   0.628   0.113
 2449SOL    HW1 7355   3.861   0.626   0.150
 2449SOL    HW2 7356   3.955   0.589   0.021
 2450SOL     OW 7357   3.949   0.275   0.996
 2450SOL    HW1 7358   3.984   0.258   1.088
 2450SOL    HW2 7359   3.861   0.230   0.984
 2451SOL     OW 7360   3.743   0.368   0.647
 2451SOL    HW1 7361   3.661   0.411   0.686
 2451SOL    HW2 7362   3.715   0.295   0.584
 2452SOL     OW 7363   4.293   1.275   1.165
 2452SOL    HW1 7364   4.200   1.268   1.128
 2452SOL    HW2 7365   4.304   1.364   1.209
 2453SOL     OW 7366   4.574   0.798   1.823
 2453SOL    HW1 7367   4.570   0.874   1.888
 2453SOL    HW2 7368   4.596   0.834   1.732
 2454SOL     OW 7369   4.410   1.161   1.803
 2454SOL    HW1 7370   4.470   1.240   1.817
 2454SOL    HW2 7371   4.324   1.192   1.762
 2455SOL     OW 7372   4.059   1.435   1.061
 2455SOL    HW1 7373   3.981   1.404   1.008
 2455SOL    HW2 7374   4.117   1.493   1.004
 2456SOL     OW 7375   4.162   0.392   1.499
 2456SOL    HW1 7376   4.244   0.336   1.508
 2456SOL    HW2 7377   4.081   0.334   1.503
 2457SOL     OW 7378   3.955   1.713   0.483
 2457SOL    HW1 7379   3.989   1.790   0.537
 2457SOL    HW2 7380   3.999   1.713   0.393
 2458SOL     OW 7381   3.954   1.434   0.538
 2458SOL    HW1 7382   3.928   1.530   0.538
 2458SOL    HW2 7383   3.883   1.380   0.583
 2459SOL     OW 7384   3.964   1.091   0.886
 2459SOL    HW1 7385   3.978   1.007   0.938
 2459SOL    HW2 7386   3.909   1.155   0.941
 2460SOL     OW 7387   4.344   1.786   1.439
 2460SOL    HW1 7388   4.252   1.769   1.474
 2460SOL    HW2 7389   4.372   1.878   1.465
 2461SOL     OW 7390   4.330   0.964   0.123
 2461SOL    HW1 7391   4.337   1.048   0.069
 2461SOL    HW2 7392   4.376   0.977   0.211
 2462SOL     OW 7393   3.846   0.643   0.563
 2462SOL    HW1 7394   3.801   0.555   0.580
 2462SOL    HW2 7395   3.845   0.697   0.647
 2463SOL     OW 7396   3.751   1.596   0.117
 2463SOL    HW1 7397   3.732   1.500   0.138
 2463SOL    HW2 7398   3.718   1.654   0.192
 2464SOL     OW 7399   3.837   0.737   1.597
 2464SOL    HW1 7400   3.925   0.724   1.642
 2464SOL    HW2 7401   3.824   0.834   1.575
 2465SOL     OW 7402   4.337   1.365   0.726
 2465SOL    HW1 7403   4.288   1.278   0.735
 2465SOL    HW2 7404   4.314   1.408   0.639
 2466SOL     OW 7405   3.921   0.976   1.264
 2466SOL    HW1 7406   4.010   0.931   1.250
 2466SOL    HW2 7407   3.848   0.911   1.245
 2467SOL     OW 7408   4.041   0.251   1.801
 2467SOL    HW1 7409   4.112   0.322   1.807
 2467SOL    HW2 7410   3.953   0.290   1.829
 2468SOL     OW 7411   4.322   0.729   0.270
 2468SOL    HW1 7412   4.346   0.798   0.202
 2468SOL    HW2 7413   4.244   0.762   0.324
 2469SOL     OW 7414   3.800   0.811   0.789
 2469SOL    HW1 7415   3.899   0.799   0.798
 2469SOL    HW2 7416   3.776   0.906   0.810
 2470SOL     OW 7417   3.854   1.821   1.571
 2470SOL    HW1 7418   3.844   1.806   1.670
 2470SOL    HW2 7419   3.768   1.857   1.535
 2471SOL     OW 7420   4.274   0.196   0.885
 2471SOL    HW1 7421   4.269   0.191   0.985
 2471SOL    HW2 7422   4.276   0.292   0.856
 2472SOL     OW 7423   4.075   1.801   0.853
 2472SOL    HW1 7424   4.125   1.715   0.859
 2472SOL    HW2 7425   4.140   1.878   0.850
 2473SOL     OW 7426   4.045   0.943   0.242
 2473SOL    HW1 7427   4.127   0.982   0.200
 2473SOL    HW2 7428   4.018   0.861   0.193
 2474SOL     OW 7429   4.185   1.266   1.727
 2474SOL    HW1 7430   4.135   1.267   1.641
 2474SOL    HW2 7431   4.122   1.248   1.803
 2475SOL     OW 7432   3.926   0.285   1.498
 2475SOL    HW1 7433   3.846   0.345   1.485
 2475SOL    HW2 7434   3.916   0.236   1.584
 2476SOL     OW 7435   4.188   1.743   0.323
 2476SOL    HW1 7436   4.221   1.782   0.409
 2476SOL    HW2 7437   4.264   1.736   0.258
 2477SOL     OW 7438   3.973   1.785   1.241
 2477SOL    HW1 7439   4.030   1.720   1.291
 2477SOL    HW2 7440   3.957   1.752   1.148
 2478SOL     OW 7441   4.106   0.700   0.480
 2478SOL    HW1 7442   4.151   0.610   0.477
 2478SOL    HW2 7443   4.012   0.689   0.513
 2479SOL     OW 7444   4.338   0.122   0.117
 2479SOL    HW1 7445   4.436   0.100   0.124
 2479SOL    HW2 7446   4.307   0.105   0.024
 2480SOL     OW 7447   4.527   1.402   0.924
 2480SOL    HW1 7448   4.617   1.416   0.882
 2480SOL    HW2 7449   4.456   1.404   0.853
 2481SOL     OW 7450   4.263   0.064   0.512
 2481SOL    HW1 7451   4.182   0.065   0.570
 2481SOL    HW2 7452   4.266   0.147   0.457
 2482SOL     OW 7453   4.021   0.035   0.171
 2482SOL    HW1 7454   4.070   0.119   0.150
 2482SOL    HW2 7455   4.083  -0.030   0.216
 2483SOL     OW 7456   4.800   0.683   1.464
 2483SOL    HW1 7457   4.720   0.622   1.467
 2483SOL    HW2 7458   4.881   0.630   1.440
 2484SOL     OW 7459   4.183   1.152   0.741
 2484SOL    HW1 7460   4.112   1.125   0.806
 2484SOL    HW2 7461   4.157   1.124   0.648
 2485SOL     OW 7462   3.802   0.556   1.386
 2485SOL    HW1 7463   3.894   0.555   1.345
 2485SOL    HW2 7464   3.796   0.630   1.453
 2486SOL     OW 7465   4.285   0.222   1.147
 2486SOL    HW1 7466   4.323   0.138   1.184
 2486SOL    HW2 7467   4.197   0.241   1.191
 2487SOL     OW 7468   4.212   1.385   0.174
 2487SOL    HW1 7469   4.125   1.370   0.221
 2487SOL    HW2 7470   4.195   1.411   0.079
 2488SOL     OW 7471   4.251   0.256   0.328
 2488SOL    HW1 7472   4.278   0.197   0.253
 2488SOL    HW2 7473   4.251   0.351   0.297
 2489SOL     OW 7474   4.134   0.813   1.251
 2489SOL    HW1 7475   4.220   0.825   1.301
 2489SOL    HW2 7476   4.092   0.726   1.278
 2490SOL     OW 7477   3.788   1.564   1.331
 2490SOL    HW1 7478   3.742   1.646   1.297
 2490SOL    HW2 7479   3.886   1.583   1.340
 2491SOL     OW 7480   4.091   1.100   0.501
 2491SOL    HW1 7481   4.084   1.183   0.445
 2491SOL    HW2 7482   4.095   1.020   0.441
 2492SOL     OW 7483   4.290   0.537   0.865
 2492SOL    HW1 7484   4.302   0.603   0.791
 2492SOL    HW2 7485   4.336   0.571   0.948
 2493SOL     OW 7486   4.078   1.510   1.329
 2493SOL    HW1 7487   4.057   1.466   1.242
 2493SOL    HW2 7488   4.175   1.536   1.332
 2494SOL     OW 7489   4.126   0.751   1.598
 2494SOL    HW1 7490   4.194   0.806   1.551
 2494SOL    HW2 7491   4.166   0.663   1.625
 2495SOL     OW 7492   4.228   0.050   1.740
 2495SOL    HW1 7493   4.186  -0.007   1.670
 2495SOL    HW2 7494   4.162   0.119   1.772
 2496SOL     OW 7495   4.297   0.870   1.029
 2496SOL    HW1 7496   4.341   0.959   1.020
 2496SOL    HW2 7497   4.234   0.870   1.106
 2497SOL     OW 7498   4.031   0.213   1.231
 2497SOL    HW1 7499   4.008   0.250   1.321
 2497SOL    HW2 7500   4.001   0.118   1.225
 2498SOL     OW 7501   3.761   1.310   1.282
 2498SOL    HW1 7502   3.814   1.261   1.350
 2498SOL    HW2 7503   3.783   1.408   1.287
 2499SOL     OW 7504   4.031   0.063   0.618
 2499SOL    HW1 7505   4.020   0.157   0.651
 2499SOL    HW2 7506   4.026   0.000   0.695
 2500SOL     OW 7507   4.074   0.898   1.804
 2500SOL    HW1 7508   4.150   0.942   1.852
 2500SOL    HW2 7509   4.109   0.851   1.722
 2501SOL     OW 7510   4.043   0.810   0.949
 2501SOL    HW1 7511   4.136   0.846   0.954
 2501SOL    HW2 7512   4.037   0.725   1.001
 2502SOL     OW 7513   4.063   0.509   1.006
 2502SOL    HW1 7514   4.011   0.426   0.989
 2502SOL    HW2 7515   4.140   0.514   0.942
 2503SOL     OW 7516   3.732   1.326   0.200
 2503SOL    HW1 7517   3.639   1.347   0.169
 2503SOL    HW2 7518   3.742   1.227   0.213
 2504SOL     OW 7519   3.812   1.801   0.927
 2504SOL    HW1 7520   3.770   1.715   0.900
 2504SOL    HW2 7521   3.906   1.804   0.893
 2505SOL     OW 7522   4.228   1.568   0.910
 2505SOL    HW1 7523   4.294   1.642   0.919
 2505SOL    HW2 7524   4.272   1.489   0.868
 2506SOL     OW 7525   3.764   0.544   1.114
 2506SOL    HW1 7526   3.849   0.511   1.073
 2506SOL    HW2 7527   3.777   0.559   1.212
 2507SOL     OW 7528   3.913   0.520   1.722
 2507SOL    HW1 7529   3.972   0.480   1.652
 2507SOL    HW2 7530   3.855   0.591   1.681
 2508SOL     OW 7531   4.539   0.572   0.325
 2508SOL    HW1 7532   4.546   0.483   0.279
 2508SOL    HW2 7533   4.445   0.606   0.317
 2509SOL     OW 7534   3.976   1.564   1.744
 2509SOL    HW1 7535   3.946   1.621   1.820
 2509SOL    HW2 7536   3.969   1.467   1.770
 2510SOL     OW 7537   4.197   0.500   0.191
 2510SOL    HW1 7538   4.258   0.580   0.195
 2510SOL    HW2 7539   4.102   0.531   0.198
 2511SOL     OW 7540   3.883   1.137   1.466
 2511SOL    HW1 7541   3.905   1.076   1.542
 2511SOL    HW2 7542   3.893   1.088   1.380
 2512SOL     OW 7543   3.807   1.258   1.022
 2512SOL    HW1 7544   3.802   1.257   1.122
 2512SOL    HW2 7545   3.724   1.217   0.984
 2513SOL     OW 7546   4.412   1.662   1.716
 2513SOL    HW1 7547   4.356   1.743   1.725
 2513SOL    HW2 7548   4.464   1.666   1.630
 2514SOL     OW 7549   3.854   1.794   1.851
 2514SOL    HW1 7550   3.813   1.720   1.904
 2514SOL    HW2 7551   3.918   1.845   1.909
 2515SOL     OW 7552   3.987   0.326   0.720
 2515SOL    HW1 7553   3.908   0.377   0.686
 2515SOL    HW2 7554   3.978   0.311   0.818
 2516SOL     OW 7555   4.096   1.288   1.490
 2516SOL    HW1 7556   4.083   1.381   1.456
 2516SOL    HW2 7557   4.012   1.236   1.477
 2517SOL     OW 7558   4.314   1.487   0.491
 2517SOL    HW1 7559   4.356   1.429   0.421
 2517SOL    HW2 7560   4.270   1.566   0.447
 2518SOL     OW 7561   3.979   1.348   0.290
 2518SOL    HW1 7562   3.883   1.349   0.263
 2518SOL    HW2 7563   3.991   1.401   0.374
 2519SOL     OW 7564   3.829   1.013   1.726
 2519SOL    HW1 7565   3.752   0.980   1.780
 2519SOL    HW2 7566   3.914   0.983   1.768
 2520SOL     OW 7567   4.396   0.203   1.489
 2520SOL    HW1 7568   4.486   0.187   1.449
 2520SOL    HW2 7569   4.404   0.208   1.588
 2521SOL     OW 7570   3.799   0.345   0.033
 2521SOL    HW1 7571   3.707   0.317   0.004
 2521SOL    HW2 7572   3.830   0.422  -0.023
 2522SOL     OW 7573   4.337   0.842   1.431
 2522SOL    HW1 7574   4.393   0.923   1.414
 2522SOL    HW2 7575   4.396   0.762   1.434
 2523SOL     OW 7576   4.440   0.565   1.708
 2523SOL    HW1 7577   4.459   0.630   1.782
 2523SOL    HW2 7578   4.500   0.485   1.717
 2524SOL     OW 7579   4.114   1.741   1.560
 2524SOL    HW1 7580   4.023   1.782   1.558
 2524SOL    HW2 7581   4.107   1.647   1.592
 2525SOL     OW 7582   4.318   0.745   0.652
 2525SOL    HW1 7583   4.368   0.830   0.633
 2525SOL    HW2 7584   4.230   0.747   0.604
 2526SOL     OW 7585   3.945   1.314   1.844
 2526SOL    HW1 7586   3.880   1.241   1.823
 2526SOL    HW2 7587   3.949   1.328   1.942
 2527SOL     OW 7588   3.803   1.240   0.653
 2527SOL    HW1 7589   3.802   1.193   0.741
 2527SOL    HW2 7590   3.885   1.212   0.602
 2528SOL     OW 7591   4.396   1.391   1.624
 2528SOL    HW1 7592   4.318   1.341   1.662
 2528SOL    HW2 7593   4.393   1.486   1.655
 2529SOL     OW 7594   4.152   0.424   0.520
 2529SOL    HW1 7595   4.182   0.352   0.458
 2529SOL    HW2 7596   4.113   0.384   0.603
 2530SOL     OW 7597   4.041   0.547   1.280
 2530SOL    HW1 7598   4.079   0.488   1.352
 2530SOL    HW2 7599   4.081   0.521   1.192
 2531SOL     OW 7600   4.536   1.586   0.687
 2531SOL    HW1 7601   4.568   1.596   0.593
 2531SOL    HW2 7602   4.457   1.524   0.689
 2532SOL     OW 7603   3.763   1.077   0.300
 2532SOL    HW1 7604   3.862   1.066   0.291
 2532SOL    HW2 7605   3.723   0.991   0.332
 2533SOL     OW 7606   3.954   0.628   1.975
 2533SOL    HW1 7607   3.861   0.626   2.012
 2533SOL    HW2 7608   3.955   0.589   1.883
 2534SOL     OW 7609   3.949   0.275   2.858
 2534SOL    HW1 7610   3.984   0.258   2.950
 2534SOL    HW2 7611   3.861   0.230   2.846
 2535SOL     OW 7612   3.743   0.368   2.509
 2535SOL    HW1 7613   3.661   0.411   2.548
 2535SOL    HW2 7614   3.715   0.295   2.446
 2536SOL     OW 7615   4.293   1.275   3.027
 2536SOL    HW1 7616   4.200   1.268   2.990
 2536SOL    HW2 7617   4.304   1.364   3.071
 2537SOL     OW 7618   4.574   0.798   3.685
 2537SOL    HW1 7619   4.570   0.874   3.750
 2537SOL    HW2 7620   4.596   0.834   3.594
 2538SOL     OW 7621   4.410   1.161   3.665
 2538SOL    HW1 7622   4.470   1.240   3.679
 2538SOL    HW2 7623   4.324   1.192   3.624
 2539SOL     OW 7624   4.059   1.435   2.923
 2539SOL    HW1 7625   3.981   1.404   2.870
 2539SOL    HW2 7626   4.117   1.493   2.866
 2540SOL     OW 7627   4.162   0.392   3.361
 2540SOL    HW1 7628   4.244   0.336   3.370
 2540SOL    HW2 7629   4.081   0.334   3.365
 2541SOL     OW 7630   3.955   1.713   2.345
 2541SOL    HW1 7631   3.989   1.790   2.399
 2541SOL    HW2 7632   3.999   1.713   2.255
 2542SOL     OW 7633   3.954   1.434   2.400
 2542SOL    HW1 7634   3.928   1.530   2.400
 2542SOL    HW2 7635   3.883   1.380   2.445
 2543SOL     OW 7636   3.964   1.091   2.748
 2543SOL    HW1 7637   3.978   1.007   2.800
 2543SOL    HW2 7638   3.909   1.155   2.803
 2544SOL     OW 7639   4.344   1.786   3.301
 2544SOL    HW1 7640   4.252   1.769   3.336
 2544SOL    HW2 7641   4.372   1.878   3.327
 2545SOL     OW 7642   4.330   0.964   1.985
 2545SOL    HW1 7643   4.337   1.048   1.931
 2545SOL    HW2 7644   4.376   0.977   2.073
 2546SOL     OW 7645   3.846   0.643   2.425
 2546SOL    HW1 7646   3.801   0.555   2.442
 2546SOL    HW2 7647   3.845   0.697   2.509
 2547SOL     OW 7648   3.751   1.596   1.979
 2547SOL    HW1 7649   3.732   1.500   2.000
 2547SOL    HW2 7650   3.718   1.654   2.054
 2548SOL     OW 7651   3.837   0.737   3.459
 2548SOL    HW1 7652   3.925   0.724   3.504
 2548SOL    HW2 7653   3.824   0.834   3.437
 2549SOL     OW 7654   4.337   1.365   2.588
 2549SOL    HW1 7655   4.288   1.278   2.597
 2549SOL    HW2 7656   4.314   1.408   2.501
 2550SOL     OW 7657   3.921   0.976   3.126
 2550SOL    HW1 7658   4.010   0.931   3.112
 2550SOL    HW2 7659   3.848   0.911   3.107
 2551SOL     OW 7660   4.041   0.251   3.663
 2551SOL    HW1 7661   4.112   0.322   3.669
 2551SOL    HW2 7662   3.953   0.290   3.691
 2552SOL     OW 7663   4.322   0.729   2.132
 2552SOL    HW1 7664   4.346   0.798   2.064
 2552SOL    HW2 7665   4.244   0.762   2.186
 2553SOL     OW 7666   3.800   0.811   2.651
 2553SOL    HW1 7667   3.899   0.799   2.660
 2553SOL    HW2 7668   3.776   0.906   2.672
 2554SOL     OW 7669   3.854   1.821   3.433
 2554SOL    HW1 7670   3.844   1.806   3.532
 2554SOL    HW2 7671   3.768   1.857   3.397
 2555SOL     OW 7672   4.274   0.196   2.747
 2555SOL    HW1 7673   4.269   0.191   2.847
 2555SOL    HW2 7674   4.276   0.292   2.718
 2556SOL     OW 7675   4.075   1.801   2.715
 2556SOL    HW1 7676   4.125   1.715   2.721
 2556SOL    HW2 7677   4.140   1.878   2.712
 2557SOL     OW 7678   4.045   0.943   2.104
 2557SOL    HW1 7679   4.127   0.982   2.062
 2557SOL    HW2 7680   4.018   0.861   2.055
 2558SOL     OW 7681   4.185   1.266   3.589
 2558SOL    HW1 7682   4.135   1.267   3.503
 2558SOL    HW2 7683   4.122   1.248   3.665
 2559SOL     OW 7684   3.926   0.285   3.360
 2559SOL    HW1 7685   3.846   0.345   3.347
 2559SOL    HW2 7686   3.916   0.236   3.446
 2560SOL     OW 7687   4.188   1.743   2.185
 2560SOL    HW1 7688   4.221   1.782   2.271
 2560SOL    HW2 7689   4.264   1.736   2.120
 2561SOL     OW 7690   3.973   1.785   3.103
 2561SOL    HW1 7691   4.030   1.720   3.153
 2561SOL    HW2 7692   3.957   1.752   3.010
 2562SOL     OW 7693   4.106   0.700   2.342
 2562SOL    HW1 7694   4.151   0.610   2.339
 2562SOL    HW2 7695   4.012   0.689   2.375
 2563SOL     OW 7696   4.338   0.122   1.979
 2563SOL    HW1 7697   4.436   0.100   1.986
 2563SOL    HW2 7698   4.307   0.105   1.886
 2564SOL     OW 7699   4.527   1.402   2.786
 2564SOL    HW1 7700   4.617   1.416   2.744
 2564SOL    HW2 7701   4.456   1.404   2.715
 2565SOL     OW 7702   4.263   0.064   2.374
 2565SOL    HW1 7703   4.182   0.065   2.432
 2565SOL    HW2 7704   4.266   0.147   2.319
 2566SOL     OW 7705   4.021   0.035   2.033
 2566SOL    HW1 7706   4.070   0.119   2.012
 2566SOL    HW2 7707   4.083  -0.030   2.078
 2567SOL     OW 7708   4.800   0.683   3.326
 2567SOL    HW1 7709   4.720   0.622   3.329
 2567SOL    HW2 7710   4.881   0.630   3.302
 2568SOL     OW 7711   4.183   1.152   2.603
 2568SOL    HW1 7712   4.112   1.125   2.668
 2568SOL    HW2 7713   4.157   1.124   2.510
 2569SOL     OW 7714   3.802   0.556   3.248
 2569SOL    HW1 7715   3.894   0.555   3.207
 2569SOL    HW2 7716   3.796   0.630   3.315
 2570SOL     OW 7717   4.285   0.222   3.009
 2570SOL    HW1 7718   4.323   0.138   3.046
 2570SOL    HW2 7719   4.197   0.241   3.053
 2571SOL     OW 7720   4.212   1.385   2.036
 2571SOL    HW1 7721   4.125   1.370   2.083
 2571SOL    HW2 7722   4.195   1.411   1.941
 2572SOL     OW 7723   4.251   0.256   2.190
 2572SOL    HW1 7724   4.278   0.197   2.115
 2572SOL    HW2 7725   4.251   0.351   2.159
 2573SOL     OW 7726   4.134   0.813   3.113
 2573SOL    HW1 7727   4.220   0.825   3.163
 2573SOL    HW2 7728   4.092   0.726   3.140
 2574SOL     OW 7729   3.788   1.564   3.193
 2574SOL    HW1 7730   3.742   1.646   3.159
 2574SOL    HW2 7731   3.886   1.583   3.202
 2575SOL     OW 7732   4.091   1.100   2.363
 2575SOL    HW1 7733   4.084   1.183   2.307
 2575SOL    HW2 7734   4.095   1.020   2.303
 2576SOL     OW 7735   4.290   0.537   2.727
 2576SOL    HW1 7736   4.302   0.603   2.653
 2576SOL    HW2 7737   4.336   0.571   2.810
 2577SOL     OW 7738   4.078   1.510   3.191
 2577SOL    HW1 7739   4.057   1.466   3.104
 2577SOL    HW2 7740   4.175   1.536   3.194
 2578SOL     OW 7741   4.126   0.751   3.460
 2578SOL    HW1 7742   4.194   0.806   3.413
 2578SOL    HW2 7743   4.166   0.663   3.487
 2579SOL     OW 7744   4.228   0.050   3.602
 2579SOL    HW1 7745   4.186  -0.007   3.532
 2579SOL    HW2 7746   4.162   0.119   3.634
 2580SOL     OW 7747   4.297   0.870   2.891
 2580SOL    HW1 7748   4.341   0.959   2.882
 2580SOL    HW2 7749   4.234   0.870   2.968
 2581SOL     OW 7750   4.031   0.213   3.093
 2581SOL    HW1 7751   4.008   0.250   3.183
 2581SOL    HW2 7752   4.001   0.118   3.087
 2582SOL     OW 7753   3.761   1.310   3.144
 2582SOL    HW1 7754   3.814   1.261   3.212
 2582SOL    HW2 7755   3.783   1.408   3.149
 2583SOL     OW 7756   4.031   0.063   2.480
 2583SOL    HW1 7757   4.020   0.157   2.513
 2583SOL    HW2 7758   4.026   0.000   2.557
 2584SOL     OW 7759   4.074   0.898   3.666
 2584SOL    HW1 7760   4.150   0.942   3.714
 2584SOL    HW2 7761   4.109   0.851   3.584
 2585SOL     OW 7762   4.043   0.810   2.811
 2585SOL    HW1 7763   4.136   0.846   2.816
 2585SOL    HW2 7764   4.037   0.725   2.863
 2586SOL     OW 7765   4.063   0.509   2.868
 2586SOL    HW1 7766   4.011   0.426   2.851
 2586SOL    HW2 7767   4.140   0.514   2.804
 2587SOL     OW 7768   3.732   1.326   2.062
 2587SOL    HW1 7769   3.639   1.347   2.031
 2587SOL    HW2 7770   3.742   1.227   2.075
 2588SOL     OW 7771   3.812   1.801   2.789
 2588SOL    HW1 7772   3.770   1.715   2.762
 2588SOL    HW2 7773   3.906   1.804   2.755
 2589SOL     OW 7774   4.228   1.568   2.772
 2589SOL    HW1 7775   4.294   1.642   2.781
 2589SOL    HW2 7776   4.272   1.489   2.730
 2590SOL     OW 7777   3.764   0.544   2.976
 2590SOL    HW1 7778   3.849   0.511   2.935
 2590SOL    HW2 7779   3.777   0.559   3.074
 2591SOL     OW 7780   3.913   0.520   3.584
 2591SOL    HW1 7781   3.972   0.480   3.514
 2591SOL    HW2 7782   3.855   0.591   3.543
 2592SOL     OW 7783   4.539   0.572   2.187
 2592SOL    HW1 7784   4.546   0.483   2.141
 2592SOL    HW2 7785   4.445   0.606   2.179
 2593SOL     OW 7786   3.976   1.564   3.606
 2593SOL    HW1 7787   3.946   1.621   3.682
 2593SOL    HW2 7788   3.969   1.467   3.632
 2594SOL     OW 7789   4.197   0.500   2.053
 2594SOL    HW1 7790   4.258   0.580   2.057
 2594SOL    HW2 7791   4.102   0.531   2.060
 2595SOL     OW 7792   3.883   1.137   3.328
 2595SOL    HW1 7793   3.905   1.076   3.404
 2595SOL    HW2 7794   3.893   1.088   3.242
 2596SOL     OW 7795   3.807   1.258   2.884
 2596SOL    HW1 7796   3.802   1.257   2.984
 2596SOL    HW2 7797   3.724   1.217   2.846
 2597SOL     OW 7798   4.412   1.662   3.578
 2597SOL    HW1 7799   4.356   1.743   3.587
 2597SOL    HW2 7800   4.464   1.666   3.492
 2598SOL     OW 7801   3.854   1.794   3.713
 2598SOL    HW1 7802   3.813   1.720   3.766
 2598SOL    HW2 7803   3.918   1.845   3.771
 2599SOL     OW 7804   3.987   0.326   2.582
 2599SOL    HW1 7805   3.908   0.377   2.548
 2599SOL    HW2 7806   3.978   0.311   2.680
 2600SOL     OW 7807   4.096   1.288   3.352
 2600SOL    HW1 7808   4.083   1.381   3.318
 2600SOL    HW2 7809   4.012   1.236   3.339
 2601SOL     OW 7810   4.314   1.487   2.353
 2601SOL    HW1 7811   4.356   1.429   2.283
 2601SOL    HW2 7812   4.270   1.566   2.309
 2602SOL     OW 7813   3.979   1.348   2.152
 2602SOL    HW1 7814   3.883   1.349   2.125
 2602SOL    HW2 7815   3.991   1.401   2.236
 2603SOL     OW 7816   3.829   1.013   3.588
 2603SOL    HW1 7817   3.752   0.980   3.642
 2603SOL    HW2 7818   3.914   0.983   3.630
 2604SOL     OW 7819   4.396   0.203   3.351
 2604SOL    HW1 7820   4.486   0.187   3.311
 2604SOL    HW2 7821   4.404   0.208   3.450
 2605SOL     OW 7822   3.799   0.345   1.895
 2605SOL    HW1 7823   3.707   0.317   1.866
 2605SOL    HW2 7824   3.830   0.422   1.839
 2606SOL     OW 7825   3.796   0.166   2.180
 2606SOL    HW1 7826   3.779   0.249   2.126
 2606SOL    HW2 7827   3.886   0.129   2.158
 2607SOL     OW 7828   4.337   0.842   3.293
 2607SOL    HW1 7829   4.393   0.923   3.276
 2607SOL    HW2 7830   4.396   0.762   3.296
 2608SOL     OW 7831   4.440   0.565   3.570
 2608SOL    HW1 7832   4.459   0.630   3.644
 2608SOL    HW2 7833   4.500   0.485   3.579
 2609SOL     OW 7834   4.114   1.741   3.422
 2609SOL    HW1 7835   4.023   1.782   3.420
 2609SOL    HW2 7836   4.107   1.647   3.454
 2610SOL     OW 7837   4.318   0.745   2.514
 2610SOL    HW1 7838   4.368   0.830   2.495
 2610SOL    HW2 7839   4.230   0.747   2.466
 2611SOL     OW 7840   3.945   1.314   3.706
 2611SOL    HW1 7841   3.880   1.241   3.685
 2611SOL    HW2 7842   3.949   1.328   3.804
 2612SOL     OW 7843   3.803   1.240   2.515
 2612SOL    HW1 7844   3.802   1.193   2.603
 2612SOL    HW2 7845   3.885   1.212   2.464
 2613SOL     OW 7846   4.396   1.391   3.486
 2613SOL    HW1 7847   4.318   1.341   3.524
 2613SOL    HW2 7848   4.393   1.486   3.517
 2614SOL     OW 7849   4.152   0.424   2.382
 2614SOL    HW1 7850   4.182   0.352   2.320
 2614SOL    HW2 7851   4.113   0.384   2.465
 2615SOL     OW 7852   4.041   0.547   3.142
 2615SOL    HW1 7853   4.079   0.488   3.214
 2615SOL    HW2 7854   4.081   0.521   3.054
 2616SOL     OW 7855   4.536   1.586   2.549
 2616SOL    HW1 7856   4.568   1.596   2.455
 2616SOL    HW2 7857   4.457   1.524   2.551
 2617SOL     OW 7858   3.763   1.077   2.162
 2617SOL    HW1 7859   3.862   1.066   2.153
 2617SOL    HW2 7860   3.723   0.991   2.194
 2618SOL     OW 7861   3.954   0.628   3.837
 2618SOL    HW1 7862   3.861   0.626   3.874
 2618SOL    HW2 7863   3.955   0.589   3.745
 2619SOL     OW 7864   3.949   0.275   4.720
 2619SOL    HW1 7865   3.984   0.258   4.812
 2619SOL    HW2 7866   3.861   0.230   4.708
 2620SOL     OW 7867   3.955   1.713   4.207
 2620SOL    HW1 7868   3.989   1.790   4.261
 2620SOL    HW2 7869   3.999   1.713   4.117
 2621SOL     OW 7870   3.954   1.434   4.262
 2621SOL    HW1 7871   3.928   1.530   4.262
 2621SOL    HW2 7872   3.883   1.380   4.307
 2622SOL     OW 7873   4.330   0.964   3.847
 2622SOL    HW1 7874   4.337   1.048   3.793
 2622SOL    HW2 7875   4.376   0.977   3.935
 2623SOL     OW 7876   3.846   0.643   4.287
 2623SOL    HW1 7877   3.801   0.555   4.304
 2623SOL    HW2 7878   3.845   0.697   4.371
 2624SOL     OW 7879   3.751   1.596   3.841
 2624SOL    HW1 7880   3.732   1.500   3.862
 2624SOL    HW2 7881   3.718   1.654   3.916
 2625SOL     OW 7882   4.337   1.365   4.450
 2625SOL    HW1 7883   4.288   1.278   4.459
 2625SOL    HW2 7884   4.314   1.408   4.363
 2626SOL     OW 7885   4.322   0.729   3.994
 2626SOL    HW1 7886   4.346   0.798   3.926
 2626SOL    HW2 7887   4.244   0.762   4.048
 2627SOL     OW 7888   3.800   0.811   4.513
 2627SOL    HW1 7889   3.899   0.799   4.522
 2627SOL    HW2 7890   3.776   0.906   4.534
 2628SOL     OW 7891   4.075   1.801   4.577
 2628SOL    HW1 7892   4.125   1.715   4.583
 2628SOL    HW2 7893   4.140   1.878   4.574
 2629SOL     OW 7894   4.045   0.943   3.966
 2629SOL    HW1 7895   4.127   0.982   3.924
 2629SOL    HW2 7896   4.018   0.861   3.917
 2630SOL     OW 7897   4.188   1.743   4.047
 2630SOL    HW1 7898   4.221   1.782   4.133
 2630SOL    HW2 7899   4.264   1.736   3.982
 2631SOL     OW 7900   4.106   0.700   4.204
 2631SOL    HW1 7901   4.151   0.610   4.201
 2631SOL    HW2 7902   4.012   0.689   4.237
 2632SOL     OW 7903   4.338   0.122   3.841
 2632SOL    HW1 7904   4.436   0.100   3.848
 2632SOL    HW2 7905   4.307   0.105   3.748
 2633SOL     OW 7906   4.263   0.064   4.236
 2633SOL    HW1 7907   4.182   0.065   4.294
 2633SOL    HW2 7908   4.266   0.147   4.181
 2634SOL     OW 7909   4.021   0.035   3.895
 2634SOL    HW1 7910   4.070   0.119   3.874
 2634SOL    HW2 7911   4.083  -0.030   3.940
 2635SOL     OW 7912   4.183   1.152   4.465
 2635SOL    HW1 7913   4.112   1.125   4.530
 2635SOL    HW2 7914   4.157   1.124   4.372
 2636SOL     OW 7915   4.212   1.385   3.898
 2636SOL    HW1 7916   4.125   1.370   3.945
 2636SOL    HW2 7917   4.195   1.411   3.803
 2637SOL     OW 7918   4.251   0.256   4.052
 2637SOL    HW1 7919   4.278   0.197   3.977
 2637SOL    HW2 7920   4.251   0.351   4.021
 2638SOL     OW 7921   4.091   1.100   4.225
 2638SOL    HW1 7922   4.084   1.183   4.169
 2638SOL    HW2 7923   4.095   1.020   4.165
 2639SOL     OW 7924   4.031   0.063   4.342
 2639SOL    HW1 7925   4.020   0.157   4.375
 2639SOL    HW2 7926   4.026   0.000   4.419
 2640SOL     OW 7927   3.732   1.326   3.924
 2640SOL    HW1 7928   3.639   1.347   3.893
 2640SOL    HW2 7929   3.742   1.227   3.937
 2641SOL     OW 7930   4.539   0.572   4.049
 2641SOL    HW1 7931   4.546   0.483   4.003
 2641SOL    HW2 7932   4.445   0.606   4.041
 2642SOL     OW 7933   4.197   0.500   3.915
 2642SOL    HW1 7934   4.258   0.580   3.919
 2642SOL    HW2 7935   4.102   0.531   3.922
 2643SOL     OW 7936   4.763   1.098   4.420
 2643SOL    HW1 7937   4.693   1.051   4.474
 2643SOL    HW2 7938   4.822   1.030   4.377
 2644SOL     OW 7939   4.314   1.487   4.215
 2644SOL    HW1 7940   4.356   1.429   4.145
 2644SOL    HW2 7941   4.270   1.566   4.171
 2645SOL     OW 7942   3.979   1.348   4.014
 2645SOL    HW1 7943   3.883   1.349   3.987
 2645SOL    HW2 7944   3.991   1.401   4.098
 2646SOL     OW 7945   3.799   0.345   3.757
 2646SOL    HW1 7946   3.707   0.317   3.728
 2646SOL    HW2 7947   3.830   0.422   3.701
 2647SOL     OW 7948   3.796   0.166   4.042
 2647SOL    HW1 7949   3.779   0.249   3.988
 2647SOL    HW2 7950   3.886   0.129   4.020
 2648SOL     OW 7951   4.318   0.745   4.376
 2648SOL    HW1 7952   4.368   0.830   4.357
 2648SOL    HW2 7953   4.230   0.747   4.328
 2649SOL     OW 7954   3.803   1.240   4.377
 2649SOL    HW1 7955   3.802   1.193   4.465
 2649SOL    HW2 7956   3.885   1.212   4.326
 2650SOL     OW 7957   4.152   0.424   4.244
 2650SOL    HW1 7958   4.182   0.352   4.182
 2650SOL    HW2 7959   4.113   0.384   4.327
 2651SOL     OW 7960   4.536   1.586   4.411
 2651SOL    HW1 7961   4.568   1.596   4.317
 2651SOL    HW2 7962   4.457   1.524   4.413
 2652SOL     OW 7963   3.763   1.077   4.024
 2652SOL    HW1 7964   3.862   1.066   4.015
 2652SOL    HW2 7965   3.723   0.991   4.056
 2653SOL     OW 7966   3.954   2.490   0.113
 2653SOL    HW1 7967   3.861   2.488   0.150
 2653SOL    HW2 7968   3.955   2.451   0.021
 2654SOL     OW 7969   3.949   2.137   0.996
 2654SOL    HW1 7970   3.984   2.120   1.088
 2654SOL    HW2 7971   3.861   2.092   0.984
 2655SOL     OW 7972   3.743   2.230   0.647
 2655SOL    HW1 7973   3.661   2.273   0.686
 2655SOL    HW2 7974   3.715   2.157   0.584
 2656SOL     OW 7975   4.293   3.137   1.165
 2656SOL    HW1 7976   4.200   3.130   1.128
 2656SOL    HW2 7977   4.304   3.226   1.209
 2657SOL     OW 7978   4.574   2.660   1.823
 2657SOL    HW1 7979   4.570   2.736   1.888
 2657SOL    HW2 7980   4.596   2.696   1.732
 2658SOL     OW 7981   4.410   3.023   1.803
 2658SOL    HW1 7982   4.470   3.102   1.817
 2658SOL    HW2 7983   4.324   3.054   1.762
 2659SOL     OW 7984   4.059   3.297   1.061
 2659SOL    HW1 7985   3.981   3.266   1.008
 2659SOL    HW2 7986   4.117   3.355   1.004
 2660SOL     OW 7987   4.162   2.254   1.499
 2660SOL    HW1 7988   4.244   2.198   1.508
 2660SOL    HW2 7989   4.081   2.196   1.503
 2661SOL     OW 7990   3.955   3.575   0.483
 2661SOL    HW1 7991   3.989   3.652   0.537
 2661SOL    HW2 7992   3.999   3.575   0.393
 2662SOL     OW 7993   3.954   3.296   0.538
 2662SOL    HW1 7994   3.928   3.392   0.538
 2662SOL    HW2 7995   3.883   3.242   0.583
 2663SOL     OW 7996   3.964   2.953   0.886
 2663SOL    HW1 7997   3.978   2.869   0.938
 2663SOL    HW2 7998   3.909   3.017   0.941
 2664SOL     OW 7999   4.344   3.648   1.439
 2664SOL    HW1 8000   4.252   3.631   1.474
 2664SOL    HW2 8001   4.372   3.740   1.465
 2665SOL     OW 8002   4.330   2.826   0.123
 2665SOL    HW1 8003   4.337   2.910   0.069
 2665SOL    HW2 8004   4.376   2.839   0.211
 2666SOL     OW 8005   3.846   2.505   0.563
 2666SOL    HW1 8006   3.801   2.417   0.580
 2666SOL    HW2 8007   3.845   2.559   0.647
 2667SOL     OW 8008   3.751   3.458   0.117
 2667SOL    HW1 8009   3.732   3.362   0.138
 2667SOL    HW2 8010   3.718   3.516   0.192
 2668SOL     OW 8011   3.837   2.599   1.597
 2668SOL    HW1 8012   3.925   2.586   1.642
 2668SOL    HW2 8013   3.824   2.696   1.575
 2669SOL     OW 8014   4.337   3.227   0.726
 2669SOL    HW1 8015   4.288   3.140   0.735
 2669SOL    HW2 8016   4.314   3.270   0.639
 2670SOL     OW 8017   4.533   1.866   0.502
 2670SOL    HW1 8018   4.573   1.957   0.493
 2670SOL    HW2 8019   4.433   1.874   0.508
 2671SOL     OW 8020   3.921   2.838   1.264
 2671SOL    HW1 8021   4.010   2.793   1.250
 2671SOL    HW2 8022   3.848   2.773   1.245
 2672SOL     OW 8023   4.041   2.113   1.801
 2672SOL    HW1 8024   4.112   2.184   1.807
 2672SOL    HW2 8025   3.953   2.152   1.829
 2673SOL     OW 8026   4.322   2.591   0.270
 2673SOL    HW1 8027   4.346   2.660   0.202
 2673SOL    HW2 8028   4.244   2.624   0.324
 2674SOL     OW 8029   3.800   2.673   0.789
 2674SOL    HW1 8030   3.899   2.661   0.798
 2674SOL    HW2 8031   3.776   2.768   0.810
 2675SOL     OW 8032   3.854   3.683   1.571
 2675SOL    HW1 8033   3.844   3.668   1.670
 2675SOL    HW2 8034   3.768   3.719   1.535
 2676SOL     OW 8035   4.274   2.058   0.885
 2676SOL    HW1 8036   4.269   2.053   0.985
 2676SOL    HW2 8037   4.276   2.154   0.856
 2677SOL     OW 8038   4.075   3.663   0.853
 2677SOL    HW1 8039   4.125   3.577   0.859
 2677SOL    HW2 8040   4.140   3.740   0.850
 2678SOL     OW 8041   4.045   2.805   0.242
 2678SOL    HW1 8042   4.127   2.844   0.200
 2678SOL    HW2 8043   4.018   2.723   0.193
 2679SOL     OW 8044   4.185   3.128   1.727
 2679SOL    HW1 8045   4.135   3.129   1.641
 2679SOL    HW2 8046   4.122   3.110   1.803
 2680SOL     OW 8047   3.926   2.147   1.498
 2680SOL    HW1 8048   3.846   2.207   1.485
 2680SOL    HW2 8049   3.916   2.098   1.584
 2681SOL     OW 8050   4.188   3.605   0.323
 2681SOL    HW1 8051   4.221   3.644   0.409
 2681SOL    HW2 8052   4.264   3.598   0.258
 2682SOL     OW 8053   3.973   3.647   1.241
 2682SOL    HW1 8054   4.030   3.582   1.291
 2682SOL    HW2 8055   3.957   3.614   1.148
 2683SOL     OW 8056   4.106   2.562   0.480
 2683SOL    HW1 8057   4.151   2.472   0.477
 2683SOL    HW2 8058   4.012   2.551   0.513
 2684SOL     OW 8059   4.338   1.984   0.117
 2684SOL    HW1 8060   4.436   1.962   0.124
 2684SOL    HW2 8061   4.307   1.967   0.024
 2685SOL     OW 8062   4.527   3.264   0.924
 2685SOL    HW1 8063   4.617   3.278   0.882
 2685SOL    HW2 8064   4.456   3.266   0.853
 2686SOL     OW 8065   4.263   1.926   0.512
 2686SOL    HW1 8066   4.182   1.927   0.570
 2686SOL    HW2 8067   4.266   2.009   0.457
 2687SOL     OW 8068   4.800   2.545   1.464
 2687SOL    HW1 8069   4.720   2.484   1.467
 2687SOL    HW2 8070   4.881   2.492   1.440
 2688SOL     OW 8071   4.183   3.014   0.741
 2688SOL    HW1 8072   4.112   2.987   0.806
 2688SOL    HW2 8073   4.157   2.986   0.648
 2689SOL     OW 8074   3.802   2.418   1.386
 2689SOL    HW1 8075   3.894   2.417   1.345
 2689SOL    HW2 8076   3.796   2.492   1.453
 2690SOL     OW 8077   4.285   2.084   1.147
 2690SOL    HW1 8078   4.323   2.000   1.184
 2690SOL    HW2 8079   4.197   2.103   1.191
 2691SOL     OW 8080   4.212   3.247   0.174
 2691SOL    HW1 8081   4.125   3.232   0.221
 2691SOL    HW2 8082   4.195   3.273   0.079
 2692SOL     OW 8083   4.251   2.118   0.328
 2692SOL    HW1 8084   4.278   2.059   0.253
 2692SOL    HW2 8085   4.251   2.213   0.297
 2693SOL     OW 8086   4.134   2.675   1.251
 2693SOL    HW1 8087   4.220   2.687   1.301
 2693SOL    HW2 8088   4.092   2.588   1.278
 2694SOL     OW 8089   3.788   3.426   1.331
 2694SOL    HW1 8090   3.742   3.508   1.297
 2694SOL    HW2 8091   3.886   3.445   1.340
 2695SOL     OW 8092   4.091   2.962   0.501
 2695SOL    HW1 8093   4.084   3.045   0.445
 2695SOL    HW2 8094   4.095   2.882   0.441
 2696SOL     OW 8095   4.290   2.399   0.865
 2696SOL    HW1 8096   4.302   2.465   0.791
 2696SOL    HW2 8097   4.336   2.433   0.948
 2697SOL     OW 8098   4.078   3.372   1.329
 2697SOL    HW1 8099   4.057   3.328   1.242
 2697SOL    HW2 8100   4.175   3.398   1.332
 2698SOL     OW 8101   4.126   2.613   1.598
 2698SOL    HW1 8102   4.194   2.668   1.551
 2698SOL    HW2 8103   4.166   2.525   1.625
 2699SOL     OW 8104   4.228   1.912   1.740
 2699SOL    HW1 8105   4.186   1.855   1.670
 2699SOL    HW2 8106   4.162   1.981   1.772
 2700SOL     OW 8107   4.297   2.732   1.029
 2700SOL    HW1 8108   4.341   2.821   1.020
 2700SOL    HW2 8109   4.234   2.732   1.106
 2701SOL     OW 8110   4.031   2.075   1.231
 2701SOL    HW1 8111   4.008   2.112   1.321
 2701SOL    HW2 8112   4.001   1.980   1.225
 2702SOL     OW 8113   3.761   3.172   1.282
 2702SOL    HW1 8114   3.814   3.123   1.350
 2702SOL    HW2 8115   3.783   3.270   1.287
 2703SOL     OW 8116   4.031   1.925   0.618
 2703SOL    HW1 8117   4.020   2.019   0.651
 2703SOL    HW2 8118   4.026   1.862   0.695
 2704SOL     OW 8119   4.074   2.760   1.804
 2704SOL    HW1 8120   4.150   2.804   1.852
 2704SOL    HW2 8121   4.109   2.713   1.722
 2705SOL     OW 8122   4.043   2.672   0.949
 2705SOL    HW1 8123   4.136   2.708   0.954
 2705SOL    HW2 8124   4.037   2.587   1.001
 2706SOL     OW 8125   4.063   2.371   1.006
 2706SOL    HW1 8126   4.011   2.288   0.989
 2706SOL    HW2 8127   4.140   2.376   0.942
 2707SOL     OW 8128   3.732   3.188   0.200
 2707SOL    HW1 8129   3.639   3.209   0.169
 2707SOL    HW2 8130   3.742   3.089   0.213
 2708SOL     OW 8131   3.812   3.663   0.927
 2708SOL    HW1 8132   3.770   3.577   0.900
 2708SOL    HW2 8133   3.906   3.666   0.893
 2709SOL     OW 8134   4.228   3.430   0.910
 2709SOL    HW1 8135   4.294   3.504   0.919
 2709SOL    HW2 8136   4.272   3.351   0.868
 2710SOL     OW 8137   3.764   2.406   1.114
 2710SOL    HW1 8138   3.849   2.373   1.073
 2710SOL    HW2 8139   3.777   2.421   1.212
 2711SOL     OW 8140   3.913   2.382   1.722
 2711SOL    HW1 8141   3.972   2.342   1.652
 2711SOL    HW2 8142   3.855   2.453   1.681
 2712SOL     OW 8143   4.539   2.434   0.325
 2712SOL    HW1 8144   4.546   2.345   0.279
 2712SOL    HW2 8145   4.445   2.468   0.317
 2713SOL     OW 8146   3.976   3.426   1.744
 2713SOL    HW1 8147   3.946   3.483   1.820
 2713SOL    HW2 8148   3.969   3.329   1.770
 2714SOL     OW 8149   4.197   2.362   0.191
 2714SOL    HW1 8150   4.258   2.442   0.195
 2714SOL    HW2 8151   4.102   2.393   0.198
 2715SOL     OW 8152   3.883   2.999   1.466
 2715SOL    HW1 8153   3.905   2.938   1.542
 2715SOL    HW2 8154   3.893   2.950   1.380
 2716SOL     OW 8155   3.807   3.120   1.022
 2716SOL    HW1 8156   3.802   3.119   1.122
 2716SOL    HW2 8157   3.724   3.079   0.984
 2717SOL     OW 8158   4.412   3.524   1.716
 2717SOL    HW1 8159   4.356   3.605   1.725
 2717SOL    HW2 8160   4.464   3.528   1.630
 2718SOL     OW 8161   3.854   3.656   1.851
 2718SOL    HW1 8162   3.813   3.582   1.904
 2718SOL    HW2 8163   3.918   3.707   1.909
 2719SOL     OW 8164   3.987   2.188   0.720
 2719SOL    HW1 8165   3.908   2.239   0.686
 2719SOL    HW2 8166   3.978   2.173   0.818
 2720SOL     OW 8167   4.096   3.150   1.490
 2720SOL    HW1 8168   4.083   3.243   1.456
 2720SOL    HW2 8169   4.012   3.098   1.477
 2721SOL     OW 8170   4.314   3.349   0.491
 2721SOL    HW1 8171   4.356   3.291   0.421
 2721SOL    HW2 8172   4.270   3.428   0.447
 2722SOL     OW 8173   3.979   3.210   0.290
 2722SOL    HW1 8174   3.883   3.211   0.263
 2722SOL    HW2 8175   3.991   3.263   0.374
 2723SOL     OW 8176   3.829   2.875   1.726
 2723SOL    HW1 8177   3.752   2.842   1.780
 2723SOL    HW2 8178   3.914   2.845   1.768
 2724SOL     OW 8179   4.396   2.065   1.489
 2724SOL    HW1 8180   4.486   2.049   1.449
 2724SOL    HW2 8181   4.404   2.070   1.588
 2725SOL     OW 8182   3.799   2.207   0.033
 2725SOL    HW1 8183   3.707   2.179   0.004
 2725SOL    HW2 8184   3.830   2.284  -0.023
 2726SOL     OW 8185   4.337   2.704   1.431
 2726SOL    HW1 8186   4.393   2.785   1.414
 2726SOL    HW2 8187   4.396   2.624   1.434
 2727SOL     OW 8188   4.440   2.427   1.708
 2727SOL    HW1 8189   4.459   2.492   1.782
 2727SOL    HW2 8190   4.500   2.347   1.717
 2728SOL     OW 8191   4.114   3.603   1.560
 2728SOL    HW1 8192   4.023   3.644   1.558
 2728SOL    HW2 8193   4.107   3.509   1.592
 2729SOL     OW 8194   4.318   2.607   0.652
 2729SOL    HW1 8195   4.368   2.692   0.633
 2729SOL    HW2 8196   4.230   2.609   0.604
 2730SOL     OW 8197   3.945   3.176   1.844
 2730SOL    HW1 8198   3.880   3.103   1.823
 2730SOL    HW2 8199   3.949   3.190   1.942
 2731SOL     OW 8200   3.803   3.102   0.653
 2731SOL    HW1 8201   3.802   3.055   0.741
 2731SOL    HW2 8202   3.885   3.074   0.602
 2732SOL     OW 8203   4.396   3.253   1.624
 2732SOL    HW1 8204   4.318   3.203   1.662
 2732SOL    HW2 8205   4.393   3.348   1.655
 2733SOL     OW 8206   4.152   2.286   0.520
 2733SOL    HW1 8207   4.182   2.214   0.458
 2733SOL    HW2 8208   4.113   2.246   0.603
 2734SOL     OW 8209   4.041   2.409   1.280
 2734SOL    HW1 8210   4.079   2.350   1.352
 2734SOL    HW2 8211   4.081   2.383   1.192
 2735SOL     OW 8212   4.536   3.448   0.687
 2735SOL    HW1 8213   4.568   3.458   0.593
 2735SOL    HW2 8214   4.457   3.386   0.689
 2736SOL     OW 8215   3.763   2.939   0.300
 2736SOL    HW1 8216   3.862   2.928   0.291
 2736SOL    HW2 8217   3.723   2.853   0.332
 2737SOL     OW 8218   3.954   2.490   1.975
 2737SOL    HW1 8219   3.861   2.488   2.012
 2737SOL    HW2 8220   3.955   2.451   1.883
 2738SOL     OW 8221   3.949   2.137   2.858
 2738SOL    HW1 8222   3.984   2.120   2.950
 2738SOL    HW2 8223   3.861   2.092   2.846
 2739SOL     OW 8224   3.743   2.230   2.509
 2739SOL    HW1 8225   3.661   2.273   2.548
 2739SOL    HW2 8226   3.715   2.157   2.446
 2740SOL     OW 8227   4.293   3.137   3.027
 2740SOL    HW1 8228   4.200   3.130   2.990
 2740SOL    HW2 8229   4.304   3.226   3.071
 2741SOL     OW 8230   4.574   2.660   3.685
 2741SOL    HW1 8231   4.570   2.736   3.750
 2741SOL    HW2 8232   4.596   2.696   3.594
 2742SOL     OW 8233   4.410   3.023   3.665
 2742SOL    HW1 8234   4.470   3.102   3.679
 2742SOL    HW2 8235   4.324   3.054   3.624
 2743SOL     OW 8236   4.059   3.297   2.923
 2743SOL    HW1 8237   3.981   3.266   2.870
 2743SOL    HW2 8238   4.117   3.355   2.866
 2744SOL     OW 8239   4.162   2.254   3.361
 2744SOL    HW1 8240   4.244   2.198   3.370
 2744SOL    HW2 8241   4.081   2.196   3.365
 2745SOL     OW 8242   3.955   3.575   2.345
 2745SOL    HW1 8243   3.989   3.652   2.399
 2745SOL    HW2 8244   3.999   3.575   2.255
 2746SOL     OW 8245   3.954   3.296   2.400
 2746SOL    HW1 8246   3.928   3.392   2.400
 2746SOL    HW2 8247   3.883   3.242   2.445
 2747SOL     OW 8248   3.964   2.953   2.748
 2747SOL    HW1 8249   3.978   2.869   2.800
 2747SOL    HW2 8250   3.909   3.017   2.803
 2748SOL     OW 8251   4.344   3.648   3.301
 2748SOL    HW1 8252   4.252   3.631   3.336
 2748SOL    HW2 8253   4.372   3.740   3.327
 2749SOL     OW 8254   4.330   2.826   1.985
 2749SOL    HW1 8255   4.337   2.910   1.931
 2749SOL    HW2 8256   4.376   2.839   2.073
 2750SOL     OW 8257   3.846   2.505   2.425
 2750SOL    HW1 8258   3.801   2.417   2.442
 2750SOL    HW2 8259   3.845   2.559   2.509
 2751SOL     OW 8260   3.751   3.458   1.979
 2751SOL    HW1 8261   3.732   3.362   2.000
 2751SOL    HW2 8262   3.718   3.516   2.054
 2752SOL     OW 8263   3.837   2.599   3.459
 2752SOL    HW1 8264   3.925   2.586   3.504
 2752SOL    HW2 8265   3.824   2.696   3.437
 2753SOL     OW 8266   4.337   3.227   2.588
 2753SOL    HW1 8267   4.288   3.140   2.597
 2753SOL    HW2 8268   4.314   3.270   2.501
 2754SOL     OW 8269   4.533   1.866   2.364
 2754SOL    HW1 8270   4.573   1.957   2.355
 2754SOL    HW2 8271   4.433   1.874   2.370
 2755SOL     OW 8272   3.921   2.838   3.126
 2755SOL    HW1 8273   4.010   2.793   3.112
 2755SOL    HW2 8274   3.848   2.773   3.107
 2756SOL     OW 8275   4.041   2.113   3.663
 2756SOL    HW1 8276   4.112   2.184   3.669
 2756SOL    HW2 8277   3.953   2.152   3.691
 2757SOL     OW 8278   4.322   2.591   2.132
 2757SOL    HW1 8279   4.346   2.660   2.064
 2757SOL    HW2 8280   4.244   2.624   2.186
 2758SOL     OW 8281   3.800   2.673   2.651
 2758SOL    HW1 8282   3.899   2.661   2.660
 2758SOL    HW2 8283   3.776   2.768   2.672
 2759SOL     OW 8284   3.854   3.683   3.433
 2759SOL    HW1 8285   3.844   3.668   3.532
 2759SOL    HW2 8286   3.768   3.719   3.397
 2760SOL     OW 8287   4.274   2.058   2.747
 2760SOL    HW1 8288   4.269   2.053   2.847
 2760SOL    HW2 8289   4.276   2.154   2.718
 2761SOL     OW 8290   4.075   3.663   2.715
 2761SOL    HW1 8291   4.125   3.577   2.721
 2761SOL    HW2 8292   4.140   3.740   2.712
 2762SOL     OW 8293   4.045   2.805   2.104
 2762SOL    HW1 8294   4.127   2.844   2.062
 2762SOL    HW2 8295   4.018   2.723   2.055
 2763SOL     OW 8296   4.185   3.128   3.589
 2763SOL    HW1 8297   4.135   3.129   3.503
 2763SOL    HW2 8298   4.122   3.110   3.665
 2764SOL     OW 8299   3.926   2.147   3.360
 2764SOL    HW1 8300   3.846   2.207   3.347
 2764SOL    HW2 8301   3.916   2.098   3.446
 2765SOL     OW 8302   4.188   3.605   2.185
 2765SOL    HW1 8303   4.221   3.644   2.271
 2765SOL    HW2 8304   4.264   3.598   2.120
 2766SOL     OW 8305   3.973   3.647   3.103
 2766SOL    HW1 8306   4.030   3.582   3.153
 2766SOL    HW2 8307   3.957   3.614   3.010
 2767SOL     OW 8308   4.106   2.562   2.342
 2767SOL    HW1 8309   4.151   2.472   2.339
 2767SOL    HW2 8310   4.012   2.551   2.375
 2768SOL     OW 8311   4.338   1.984   1.979
 2768SOL    HW1 8312   4.436   1.962   1.986
 2768SOL    HW2 8313   4.307   1.967   1.886
 2769SOL     OW 8314   4.527   3.264   2.786
 2769SOL    HW1 8315   4.617   3.278   2.744
 2769SOL    HW2 8316   4.456   3.266   2.715
 2770SOL     OW 8317   4.263   1.926   2.374
 2770SOL    HW1 8318   4.182   1.927   2.432
 2770SOL    HW2 8319   4.266   2.009   2.319
 2771SOL     OW 8320   4.021   1.897   2.033
 2771SOL    HW1 8321   4.070   1.981   2.012
 2771SOL    HW2 8322   4.083   1.832   2.078
 2772SOL     OW 8323   4.800   2.545   3.326
 2772SOL    HW1 8324   4.720   2.484   3.329
 2772SOL    HW2 8325   4.881   2.492   3.302
 2773SOL     OW 8326   4.183   3.014   2.603
 2773SOL    HW1 8327   4.112   2.987   2.668
 2773SOL    HW2 8328   4.157   2.986   2.510
 2774SOL     OW 8329   3.802   2.418   3.248
 2774SOL    HW1 8330   3.894   2.417   3.207
 2774SOL    HW2 8331   3.796   2.492   3.315
 2775SOL     OW 8332   4.285   2.084   3.009
 2775SOL    HW1 8333   4.323   2.000   3.046
 2775SOL    HW2 8334   4.197   2.103   3.053
 2776SOL     OW 8335   4.212   3.247   2.036
 2776SOL    HW1 8336   4.125   3.232   2.083
 2776SOL    HW2 8337   4.195   3.273   1.941
 2777SOL     OW 8338   4.251   2.118   2.190
 2777SOL    HW1 8339   4.278   2.059   2.115
 2777SOL    HW2 8340   4.251   2.213   2.159
 2778SOL     OW 8341   4.134   2.675   3.113
 2778SOL    HW1 8342   4.220   2.687   3.163
 2778SOL    HW2 8343   4.092   2.588   3.140
 2779SOL     OW 8344   3.788   3.426   3.193
 2779SOL    HW1 8345   3.742   3.508   3.159
 2779SOL    HW2 8346   3.886   3.445   3.202
 2780SOL     OW 8347   4.091   2.962   2.363
 2780SOL    HW1 8348   4.084   3.045   2.307
 2780SOL    HW2 8349   4.095   2.882   2.303
 2781SOL     OW 8350   4.290   2.399   2.727
 2781SOL    HW1 8351   4.302   2.465   2.653
 2781SOL    HW2 8352   4.336   2.433   2.810
 2782SOL     OW 8353   4.078   3.372   3.191
 2782SOL    HW1 8354   4.057   3.328   3.104
 2782SOL    HW2 8355   4.175   3.398   3.194
 2783SOL     OW 8356   4.126   2.613   3.460
 2783SOL    HW1 8357   4.194   2.668   3.413
 2783SOL    HW2 8358   4.166   2.525   3.487
 2784SOL     OW 8359   4.228   1.912   3.602
 2784SOL    HW1 8360   4.186   1.855   3.532
 2784SOL    HW2 8361   4.162   1.981   3.634
 2785SOL     OW 8362   4.297   2.732   2.891
 2785SOL    HW1 8363   4.341   2.821   2.882
 2785SOL    HW2 8364   4.234   2.732   2.968
 2786SOL     OW 8365   4.031   2.075   3.093
 2786SOL    HW1 8366   4.008   2.112   3.183
 2786SOL    HW2 8367   4.001   1.980   3.087
 2787SOL     OW 8368   3.761   3.172   3.144
 2787SOL    HW1 8369   3.814   3.123   3.212
 2787SOL    HW2 8370   3.783   3.270   3.149
 2788SOL     OW 8371   4.031   1.925   2.480
 2788SOL    HW1 8372   4.020   2.019   2.513
 2788SOL    HW2 8373   4.026   1.862   2.557
 2789SOL     OW 8374   4.074   2.760   3.666
 2789SOL    HW1 8375   4.150   2.804   3.714
 2789SOL    HW2 8376   4.109   2.713   3.584
 2790SOL     OW 8377   4.043   2.672   2.811
 2790SOL    HW1 8378   4.136   2.708   2.816
 2790SOL    HW2 8379   4.037   2.587   2.863
 2791SOL     OW 8380   4.063   2.371   2.868
 2791SOL    HW1 8381   4.011   2.288   2.851
 2791SOL    HW2 8382   4.140   2.376   2.804
 2792SOL     OW 8383   3.732   3.188   2.062
 2792SOL    HW1 8384   3.639   3.209   2.031
 2792SOL    HW2 8385   3.742   3.089   2.075
 2793SOL     OW 8386   3.812   3.663   2.789
 2793SOL    HW1 8387   3.770   3.577   2.762
 2793SOL    HW2 8388   3.906   3.666   2.755
 2794SOL     OW 8389   4.228   3.430   2.772
 2794SOL    HW1 8390   4.294   3.504   2.781
 2794SOL    HW2 8391   4.272   3.351   2.730
 2795SOL     OW 8392   3.764   2.406   2.976
 2795SOL    HW1 8393   3.849   2.373   2.935
 2795SOL    HW2 8394   3.777   2.421   3.074
 2796SOL     OW 8395   3.913   2.382   3.584
 2796SOL    HW1 8396   3.972   2.342   3.514
 2796SOL    HW2 8397   3.855   2.453   3.543
 2797SOL     OW 8398   4.539   2.434   2.187
 2797SOL    HW1 8399   4.546   2.345   2.141
 2797SOL    HW2 8400   4.445   2.468   2.179
 2798SOL     OW 8401   3.976   3.426   3.606
 2798SOL    HW1 8402   3.946   3.483   3.682
 2798SOL    HW2 8403   3.969   3.329   3.632
 2799SOL     OW 8404   4.197   2.362   2.053
 2799SOL    HW1 8405   4.258   2.442   2.057
 2799SOL    HW2 8406   4.102   2.393   2.060
 2800SOL     OW 8407   3.883   2.999   3.328
 2800SOL    HW1 8408   3.905   2.938   3.404
 2800SOL    HW2 8409   3.893   2.950   3.242
 2801SOL     OW 8410   3.807   3.120   2.884
 2801SOL    HW1 8411   3.802   3.119   2.984
 2801SOL    HW2 8412   3.724   3.079   2.846
 2802SOL     OW 8413   4.412   3.524   3.578
 2802SOL    HW1 8414   4.356   3.605   3.587
 2802SOL    HW2 8415   4.464   3.528   3.492
 2803SOL     OW 8416   3.854   3.656   3.713
 2803SOL    HW1 8417   3.813   3.582   3.766
 2803SOL    HW2 8418   3.918   3.707   3.771
 2804SOL     OW 8419   3.987   2.188   2.582
 2804SOL    HW1 8420   3.908   2.239   2.548
 2804SOL    HW2 8421   3.978   2.173   2.680
 2805SOL     OW 8422   4.096   3.150   3.352
 2805SOL    HW1 8423   4.083   3.243   3.318
 2805SOL    HW2 8424   4.012   3.098   3.339
 2806SOL     OW 8425   4.314   3.349   2.353
 2806SOL    HW1 8426   4.356   3.291   2.283
 2806SOL    HW2 8427   4.270   3.428   2.309
 2807SOL     OW 8428   3.979   3.210   2.152
 2807SOL    HW1 8429   3.883   3.211   2.125
 2807SOL    HW2 8430   3.991   3.263   2.236
 2808SOL     OW 8431   3.829   2.875   3.588
 2808SOL    HW1 8432   3.752   2.842   3.642
 2808SOL    HW2 8433   3.914   2.845   3.630
 2809SOL     OW 8434   4.396   2.065   3.351
 2809SOL    HW1 8435   4.486   2.049   3.311
 2809SOL    HW2 8436   4.404   2.070   3.450
 2810SOL     OW 8437   3.799   2.207   1.895
 2810SOL    HW1 8438   3.707   2.179   1.866
 2810SOL    HW2 8439   3.830   2.284   1.839
 2811SOL     OW 8440   3.796   2.028   2.180
 2811SOL    HW1 8441   3.779   2.111   2.126
 2811SOL    HW2 8442   3.886   1.991   2.158
 2812SOL     OW 8443   4.337   2.704   3.293
 2812SOL    HW1 8444   4.393   2.785   3.276
 2812SOL    HW2 8445   4.396   2.624   3.296
 2813SOL     OW 8446   4.440   2.427   3.570
 2813SOL    HW1 8447   4.459   2.492   3.644
 2813SOL    HW2 8448   4.500   2.347   3.579
 2814SOL     OW 8449   4.114   3.603   3.422
 2814SOL    HW1 8450   4.023   3.644   3.420
 2814SOL    HW2 8451   4.107   3.509   3.454
 2815SOL     OW 8452   4.318   2.607   2.514
 2815SOL    HW1 8453   4.368   2.692   2.495
 2815SOL    HW2 8454   4.230   2.609   2.466
 2816SOL     OW 8455   3.945   3.176   3.706
 2816SOL    HW1 8456   3.880   3.103   3.685
 2816SOL    HW2 8457   3.949   3.190   3.804
 2817SOL     OW 8458   3.803   3.102   2.515
 2817SOL    HW1 8459   3.802   3.055   2.603
 2817SOL    HW2 8460   3.885   3.074   2.464
 2818SOL     OW 8461   4.396   3.253   3.486
 2818SOL    HW1 8462   4.318   3.203   3.524
 2818SOL    HW2 8463   4.393   3.348   3.517
 2819SOL     OW 8464   4.152   2.286   2.382
 2819SOL    HW1 8465   4.182   2.214   2.320
 2819SOL    HW2 8466   4.113   2.246   2.465
 2820SOL     OW 8467   4.041   2.409   3.142
 2820SOL    HW1 8468   4.079   2.350   3.214
 2820SOL    HW2 8469   4.081   2.383   3.054
 2821SOL     OW 8470   4.536   3.448   2.549
 2821SOL    HW1 8471   4.568   3.458   2.455
 2821SOL    HW2 8472   4.457   3.386   2.551
 2822SOL     OW 8473   3.763   2.939   2.162
 2822SOL    HW1 8474   3.862   2.928   2.153
 2822SOL    HW2 8475   3.723   2.853   2.194
 2823SOL     OW 8476   3.954   2.490   3.837
 2823SOL    HW1 8477   3.861   2.488   3.874
 2823SOL    HW2 8478   3.955   2.451   3.745
 2824SOL     OW 8479   3.949   2.137   4.720
 2824SOL    HW1 8480   3.984   2.120   4.812
 2824SOL    HW2 8481   3.861   2.092   4.708
 2825SOL     OW 8482   3.955   3.575   4.207
 2825SOL    HW1 8483   3.989   3.652   4.261
 2825SOL    HW2 8484   3.999   3.575   4.117
 2826SOL     OW 8485   3.954   3.296   4.262
 2826SOL    HW1 8486   3.928   3.392   4.262
 2826SOL    HW2 8487   3.883   3.242   4.307
 2827SOL     OW 8488   4.330   2.826   3.847
 2827SOL    HW1 8489   4.337   2.910   3.793
 2827SOL    HW2 8490   4.376   2.839   3.935
 2828SOL     OW 8491   3.846   2.505   4.287
 2828SOL    HW1 8492   3.801   2.417   4.304
 2828SOL    HW2 8493   3.845   2.559   4.371
 2829SOL     OW 8494   3.751   3.458   3.841
 2829SOL    HW1 8495   3.732   3.362   3.862
 2829SOL    HW2 8496   3.718   3.516   3.916
 2830SOL     OW 8497   4.337   3.227   4.450
 2830SOL    HW1 8498   4.288   3.140   4.459
 2830SOL    HW2 8499   4.314   3.270   4.363
 2831SOL     OW 8500   4.533   1.866   4.226
 2831SOL    HW1 8501   4.573   1.957   4.217
 2831SOL    HW2 8502   4.433   1.874   4.232
 2832SOL     OW 8503   4.322   2.591   3.994
 2832SOL    HW1 8504   4.346   2.660   3.926
 2832SOL    HW2 8505   4.244   2.624   4.048
 2833SOL     OW 8506   3.800   2.673   4.513
 2833SOL    HW1 8507   3.899   2.661   4.522
 2833SOL    HW2 8508   3.776   2.768   4.534
 2834SOL     OW 8509   4.075   3.663   4.577
 2834SOL    HW1 8510   4.125   3.577   4.583
 2834SOL    HW2 8511   4.140   3.740   4.574
 2835SOL     OW 8512   4.045   2.805   3.966
 2835SOL    HW1 8513   4.127   2.844   3.924
 2835SOL    HW2 8514   4.018   2.723   3.917
 2836SOL     OW 8515   4.188   3.605   4.047
 2836SOL    HW1 8516   4.221   3.644   4.133
 2836SOL    HW2 8517   4.264   3.598   3.982
 2837SOL     OW 8518   4.106   2.562   4.204
 2837SOL    HW1 8519   4.151   2.472   4.201
 2837SOL    HW2 8520   4.012   2.551   4.237
 2838SOL     OW 8521   4.338   1.984   3.841
 2838SOL    HW1 8522   4.436   1.962   3.848
 2838SOL    HW2 8523   4.307   1.967   3.748
 2839SOL     OW 8524   4.263   1.926   4.236
 2839SOL    HW1 8525   4.182   1.927   4.294
 2839SOL    HW2 8526   4.266   2.009   4.181
 2840SOL     OW 8527   4.021   1.897   3.895
 2840SOL    HW1 8528   4.070   1.981   3.874
 2840SOL    HW2 8529   4.083   1.832   3.940
 2841SOL     OW 8530   4.183   3.014   4.465
 2841SOL    HW1 8531   4.112   2.987   4.530
 2841SOL    HW2 8532   4.157   2.986   4.372
 2842SOL     OW 8533   4.212   3.247   3.898
 2842SOL    HW1 8534   4.125   3.232   3.945
 2842SOL    HW2 8535   4.195   3.273   3.803
 2843SOL     OW 8536   4.251   2.118   4.052
 2843SOL    HW1 8537   4.278   2.059   3.977
 2843SOL    HW2 8538   4.251   2.213   4.021
 2844SOL     OW 8539   4.091   2.962   4.225
 2844SOL    HW1 8540   4.084   3.045   4.169
 2844SOL    HW2 8541   4.095   2.882   4.165
 2845SOL     OW 8542   4.031   1.925   4.342
 2845SOL    HW1 8543   4.020   2.019   4.375
 2845SOL    HW2 8544   4.026   1.862   4.419
 2846SOL     OW 8545   3.732   3.188   3.924
 2846SOL    HW1 8546   3.639   3.209   3.893
 2846SOL    HW2 8547   3.742   3.089   3.937
 2847SOL     OW 8548   4.539   2.434   4.049
 2847SOL    HW1 8549   4.546   2.345   4.003
 2847SOL    HW2 8550   4.445   2.468   4.041
 2848SOL     OW 8551   4.197   2.362   3.915
 2848SOL    HW1 8552   4.258   2.442   3.919
 2848SOL    HW2 8553   4.102   2.393   3.922
 2849SOL     OW 8554   4.763   2.960   4.420
 2849SOL    HW1 8555   4.693   2.913   4.474
 2849SOL    HW2 8556   4.822   2.892   4.377
 2850SOL     OW 8557   4.314   3.349   4.215
 2850SOL    HW1 8558   4.356   3.291   4.145
 2850SOL    HW2 8559   4.270   3.428   4.171
 2851SOL     OW 8560   3.979   3.210   4.014
 2851SOL    HW1 8561   3.883   3.211   3.987
 2851SOL    HW2 8562   3.991   3.263   4.098
 2852SOL     OW 8563   3.799   2.207   3.757
 2852SOL    HW1 8564   3.707   2.179   3.728
 2852SOL    HW2 8565   3.830   2.284   3.701
 2853SOL     OW 8566   3.796   2.028   4.042
 2853SOL    HW1 8567   3.779   2.111   3.988
 2853SOL    HW2 8568   3.886   1.991   4.020
 2854SOL     OW 8569   4.318   2.607   4.376
 2854SOL    HW1 8570   4.368   2.692   4.357
 2854SOL    HW2 8571   4.230   2.609   4.328
 2855SOL     OW 8572   3.803   3.102   4.377
 2855SOL    HW1 8573   3.802   3.055   4.465
 2855SOL    HW2 8574   3.885   3.074   4.326
 2856SOL     OW 8575   4.152   2.286   4.244
 2856SOL    HW1 8576   4.182   2.214   4.182
 2856SOL    HW2 8577   4.113   2.246   4.327
 2857SOL     OW 8578   4.536   3.448   4.411
 2857SOL    HW1 8579   4.568   3.458   4.317
 2857SOL    HW2 8580   4.457   3.386   4.413
 2858SOL     OW 8581   3.763   2.939   4.024
 2858SOL    HW1 8582   3.862   2.928   4.015
 2858SOL    HW2 8583   3.723   2.853   4.056
 2859SOL     OW 8584   3.954   4.352   0.113
 2859SOL    HW1 8585   3.861   4.350   0.150
 2859SOL    HW2 8586   3.955   4.313   0.021
 2860SOL     OW 8587   3.949   3.999   0.996
 2860SOL    HW1 8588   3.984   3.982   1.088
 2860SOL    HW2 8589   3.861   3.954   0.984
 2861SOL     OW 8590   3.743   4.092   0.647
 2861SOL    HW1 8591   3.661   4.135   0.686
 2861SOL    HW2 8592   3.715   4.019   0.584
 2862SOL     OW 8593   4.574   4.522   1.823
 2862SOL    HW1 8594   4.570   4.598   1.888
 2862SOL    HW2 8595   4.596   4.558   1.732
 2863SOL     OW 8596   4.162   4.116   1.499
 2863SOL    HW1 8597   4.244   4.060   1.508
 2863SOL    HW2 8598   4.081   4.058   1.503
 2864SOL     OW 8599   3.846   4.367   0.563
 2864SOL    HW1 8600   3.801   4.279   0.580
 2864SOL    HW2 8601   3.845   4.421   0.647
 2865SOL     OW 8602   3.837   4.461   1.597
 2865SOL    HW1 8603   3.925   4.448   1.642
 2865SOL    HW2 8604   3.824   4.558   1.575
 2866SOL     OW 8605   4.533   3.728   0.502
 2866SOL    HW1 8606   4.573   3.819   0.493
 2866SOL    HW2 8607   4.433   3.736   0.508
 2867SOL     OW 8608   4.041   3.975   1.801
 2867SOL    HW1 8609   4.112   4.046   1.807
 2867SOL    HW2 8610   3.953   4.014   1.829
 2868SOL     OW 8611   4.274   3.920   0.885
 2868SOL    HW1 8612   4.269   3.915   0.985
 2868SOL    HW2 8613   4.276   4.016   0.856
 2869SOL     OW 8614   3.926   4.009   1.498
 2869SOL    HW1 8615   3.846   4.069   1.485
 2869SOL    HW2 8616   3.916   3.960   1.584
 2870SOL     OW 8617   4.106   4.424   0.480
 2870SOL    HW1 8618   4.151   4.334   0.477
 2870SOL    HW2 8619   4.012   4.413   0.513
 2871SOL     OW 8620   4.338   3.846   0.117
 2871SOL    HW1 8621   4.436   3.824   0.124
 2871SOL    HW2 8622   4.307   3.829   0.024
 2872SOL     OW 8623   4.263   3.788   0.512
 2872SOL    HW1 8624   4.182   3.789   0.570
 2872SOL    HW2 8625   4.266   3.871   0.457
 2873SOL     OW 8626   4.800   4.407   1.464
 2873SOL    HW1 8627   4.720   4.346   1.467
 2873SOL    HW2 8628   4.881   4.354   1.440
 2874SOL     OW 8629   3.802   4.280   1.386
 2874SOL    HW1 8630   3.894   4.279   1.345
 2874SOL    HW2 8631   3.796   4.354   1.453
 2875SOL     OW 8632   4.285   3.946   1.147
 2875SOL    HW1 8633   4.323   3.862   1.184
 2875SOL    HW2 8634   4.197   3.965   1.191
 2876SOL     OW 8635   4.251   3.980   0.328
 2876SOL    HW1 8636   4.278   3.921   0.253
 2876SOL    HW2 8637   4.251   4.075   0.297
 2877SOL     OW 8638   4.290   4.261   0.865
 2877SOL    HW1 8639   4.302   4.327   0.791
 2877SOL    HW2 8640   4.336   4.295   0.948
 2878SOL     OW 8641   4.228   3.774   1.740
 2878SOL    HW1 8642   4.186   3.717   1.670
 2878SOL    HW2 8643   4.162   3.843   1.772
 2879SOL     OW 8644   4.031   3.937   1.231
 2879SOL    HW1 8645   4.008   3.974   1.321
 2879SOL    HW2 8646   4.001   3.842   1.225
 2880SOL     OW 8647   4.031   3.787   0.618
 2880SOL    HW1 8648   4.020   3.881   0.651
 2880SOL    HW2 8649   4.026   3.724   0.695
 2881SOL     OW 8650   4.043   4.534   0.949
 2881SOL    HW1 8651   4.136   4.570   0.954
 2881SOL    HW2 8652   4.037   4.449   1.001
 2882SOL     OW 8653   4.063   4.233   1.006
 2882SOL    HW1 8654   4.011   4.150   0.989
 2882SOL    HW2 8655   4.140   4.238   0.942
 2883SOL     OW 8656   3.764   4.268   1.114
 2883SOL    HW1 8657   3.849   4.235   1.073
 2883SOL    HW2 8658   3.777   4.283   1.212
 2884SOL     OW 8659   3.913   4.244   1.722
 2884SOL    HW1 8660   3.972   4.204   1.652
 2884SOL    HW2 8661   3.855   4.315   1.681
 2885SOL     OW 8662   4.539   4.296   0.325
 2885SOL    HW1 8663   4.546   4.207   0.279
 2885SOL    HW2 8664   4.445   4.330   0.317
 2886SOL     OW 8665   4.197   4.224   0.191
 2886SOL    HW1 8666   4.258   4.304   0.195
 2886SOL    HW2 8667   4.102   4.255   0.198
 2887SOL     OW 8668   3.987   4.050   0.720
 2887SOL    HW1 8669   3.908   4.101   0.686
 2887SOL    HW2 8670   3.978   4.035   0.818
 2888SOL     OW 8671   4.396   3.927   1.489
 2888SOL    HW1 8672   4.486   3.911   1.449
 2888SOL    HW2 8673   4.404   3.932   1.588
 2889SOL     OW 8674   3.799   4.069   0.033
 2889SOL    HW1 8675   3.707   4.041   0.004
 2889SOL    HW2 8676   3.830   4.146  -0.023
 2890SOL     OW 8677   4.440   4.289   1.708
 2890SOL    HW1 8678   4.459   4.354   1.782
 2890SOL    HW2 8679   4.500   4.209   1.717
 2891SOL     OW 8680   4.152   4.148   0.520
 2891SOL    HW1 8681   4.182   4.076   0.458
 2891SOL    HW2 8682   4.113   4.108   0.603
 2892SOL     OW 8683   4.041   4.271   1.280
 2892SOL    HW1 8684   4.079   4.212   1.352
 2892SOL    HW2 8685   4.081   4.245   1.192
 2893SOL     OW 8686   3.954   4.352   1.975
 2893SOL    HW1 8687   3.861   4.350   2.012
 2893SOL    HW2 8688   3.955   4.313   1.883
 2894SOL     OW 8689   3.949   3.999   2.858
 2894SOL    HW1 8690   3.984   3.982   2.950
 2894SOL    HW2 8691   3.861   3.954   2.846
 2895SOL     OW 8692   3.743   4.092   2.509
 2895SOL    HW1 8693   3.661   4.135   2.548
 2895SOL    HW2 8694   3.715   4.019   2.446
 2896SOL     OW 8695   4.574   4.522   3.685
 2896SOL    HW1 8696   4.570   4.598   3.750
 2896SOL    HW2 8697   4.596   4.558   3.594
 2897SOL     OW 8698   4.162   4.116   3.361
 2897SOL    HW1 8699   4.244   4.060   3.370
 2897SOL    HW2 8700   4.081   4.058   3.365
 2898SOL     OW 8701   3.846   4.367   2.425
 2898SOL    HW1 8702   3.801   4.279   2.442
 2898SOL    HW2 8703   3.845   4.421   2.509
 2899SOL     OW 8704   3.837   4.461   3.459
 2899SOL    HW1 8705   3.925   4.448   3.504
 2899SOL    HW2 8706   3.824   4.558   3.437
 2900SOL     OW 8707   4.533   3.728   2.364
 2900SOL    HW1 8708   4.573   3.819   2.355
 2900SOL    HW2 8709   4.433   3.736   2.370
 2901SOL     OW 8710   4.041   3.975   3.663
 2901SOL    HW1 8711   4.112   4.046   3.669
 2901SOL    HW2 8712   3.953   4.014   3.691
 2902SOL     OW 8713   4.274   3.920   2.747
 2902SOL    HW1 8714   4.269   3.915   2.847
 2902SOL    HW2 8715   4.276   4.016   2.718
 2903SOL     OW 8716   3.926   4.009   3.360
 2903SOL    HW1 8717   3.846   4.069   3.347
 2903SOL    HW2 8718   3.916   3.960   3.446
 2904SOL     OW 8719   4.106   4.424   2.342
 2904SOL    HW1 8720   4.151   4.334   2.339
 2904SOL    HW2 8721   4.012   4.413   2.375
 2905SOL     OW 8722   4.338   3.846   1.979
 2905SOL    HW1 8723   4.436   3.824   1.986
 2905SOL    HW2 8724   4.307   3.829   1.886
 2906SOL     OW 8725   4.263   3.788   2.374
 2906SOL    HW1 8726   4.182   3.789   2.432
 2906SOL    HW2 8727   4.266   3.871   2.319
 2907SOL     OW 8728   4.021   3.759   2.033
 2907SOL    HW1 8729   4.070   3.843   2.012
 2907SOL    HW2 8730   4.083   3.694   2.078
 2908SOL     OW 8731   4.800   4.407   3.326
 2908SOL    HW1 8732   4.720   4.346   3.329
 2908SOL    HW2 8733   4.881   4.354   3.302
 2909SOL     OW 8734   3.802   4.280   3.248
 2909SOL    HW1 8735   3.894   4.279   3.207
 2909SOL    HW2 8736   3.796   4.354   3.315
 2910SOL     OW 8737   4.285   3.946   3.009
 2910SOL    HW1 8738   4.323   3.862   3.046
 2910SOL    HW2 8739   4.197   3.965   3.053
 2911SOL     OW 8740   4.251   3.980   2.190
 2911SOL    HW1 8741   4.278   3.921   2.115
 2911SOL    HW2 8742   4.251   4.075   2.159
 2912SOL     OW 8743   4.290   4.261   2.727
 2912SOL    HW1 8744   4.302   4.327   2.653
 2912SOL    HW2 8745   4.336   4.295   2.810
 2913SOL     OW 8746   4.228   3.774   3.602
 2913SOL    HW1 8747   4.186   3.717   3.532
 2913SOL    HW2 8748   4.162   3.843   3.634
 2914SOL     OW 8749   4.031   3.937   3.093
 2914SOL    HW1 8750   4.008   3.974   3.183
 2914SOL    HW2 8751   4.001   3.842   3.087
 2915SOL     OW 8752   4.031   3.787   2.480
 2915SOL    HW1 8753   4.020   3.881   2.513
 2915SOL    HW2 8754   4.026   3.724   2.557
 2916SOL     OW 8755   4.043   4.534   2.811
 2916SOL    HW1 8756   4.136   4.570   2.816
 2916SOL    HW2 8757   4.037   4.449   2.863
 2917SOL     OW 8758   4.063   4.233   2.868
 2917SOL    HW1 8759   4.011   4.150   2.851
 2917SOL    HW2 8760   4.140   4.238   2.804
 2918SOL     OW 8761   3.764   4.268   2.976
 2918SOL    HW1 8762   3.849   4.235   2.935
 2918SOL    HW2 8763   3.777   4.283   3.074
 2919SOL     OW 8764   3.913   4.244   3.584
 2919SOL    HW1 8765   3.972   4.204   3.514
 2919SOL    HW2 8766   3.855   4.315   3.543
 2920SOL     OW 8767   4.539   4.296   2.187
 2920SOL    HW1 8768   4.546   4.207   2.141
 2920SOL    HW2 8769   4.445   4.330   2.179
 2921SOL     OW 8770   4.197   4.224   2.053
 2921SOL    HW1 8771   4.258   4.304   2.057
 2921SOL    HW2 8772   4.102   4.255   2.060
 2922SOL     OW 8773   3.987   4.050   2.582
 2922SOL    HW1 8774   3.908   4.101   2.548
 2922SOL    HW2 8775   3.978   4.035   2.680
 2923SOL     OW 8776   4.396   3.927   3.351
 2923SOL    HW1 8777   4.486   3.911   3.311
 2923SOL    HW2 8778   4.404   3.932   3.450
 2924SOL     OW 8779   3.799   4.069   1.895
 2924SOL    HW1 8780   3.707   4.041   1.866
 2924SOL    HW2 8781   3.830   4.146   1.839
 2925SOL     OW 8782   3.796   3.890   2.180
 2925SOL    HW1 8783   3.779   3.973   2.126
 2925SOL    HW2 8784   3.886   3.853   2.158
 2926SOL     OW 8785   4.440   4.289   3.570
 2926SOL    HW1 8786   4.459   4.354   3.644
 2926SOL    HW2 8787   4.500   4.209   3.579
 2927SOL     OW 8788   4.152   4.148   2.382
 2927SOL    HW1 8789   4.182   4.076   2.320
 2927SOL    HW2 8790   4.113   4.108   2.465
 2928SOL     OW 8791   4.041   4.271   3.142
 2928SOL    HW1 8792   4.079   4.212   3.214
 2928SOL    HW2 8793   4.081   4.245   3.054
 2929SOL     OW 8794   3.954   4.352   3.837
 2929SOL    HW1 8795   3.861   4.350   3.874
 2929SOL    HW2 8796   3.955   4.313   3.745
 2930SOL     OW 8797   3.949   3.999   4.720
 2930SOL    HW1 8798   3.984   3.982   4.812
 2930SOL    HW2 8799   3.861   3.954   4.708
 2931SOL     OW 8800   3.846   4.367   4.287
 2931SOL    HW1 8801   3.801   4.279   4.304
 2931SOL    HW2 8802   3.845   4.421   4.371
 2932SOL     OW 8803   4.533   3.728   4.226
 2932SOL    HW1 8804   4.573   3.819   4.217
 2932SOL    HW2 8805   4.433   3.736   4.232
 2933SOL     OW 8806   4.106   4.424   4.204
 2933SOL    HW1 8807   4.151   4.334   4.201
 2933SOL    HW2 8808   4.012   4.413   4.237
 2934SOL     OW 8809   4.338   3.846   3.841
 2934SOL    HW1 8810   4.436   3.824   3.848
 2934SOL    HW2 8811   4.307   3.829   3.748
 2935SOL     OW 8812   4.263   3.788   4.236
 2935SOL    HW1 8813   4.182   3.789   4.294
 2935SOL    HW2 8814   4.266   3.871   4.181
 2936SOL     OW 8815   4.021   3.759   3.895
 2936SOL    HW1 8816   4.070   3.843   3.874
 2936SOL    HW2 8817   4.083   3.694   3.940
 2937SOL     OW 8818   4.251   3.980   4.052
 2937SOL    HW1 8819   4.278   3.921   3.977
 2937SOL    HW2 8820   4.251   4.075   4.021
 2938SOL     OW 8821   4.031   3.787   4.342
 2938SOL    HW1 8822   4.020   3.881   4.375
 2938SOL    HW2 8823   4.026   3.724   4.419
 2939SOL     OW 8824   4.539   4.296   4.049
 2939SOL    HW1 8825   4.546   4.207   4.003
 2939SOL    HW2 8826   4.445   4.330   4.041
 2940SOL     OW 8827   4.197   4.224   3.915
 2940SOL    HW1 8828   4.258   4.304   3.919
 2940SOL    HW2 8829   4.102   4.255   3.922
 2941SOL     OW 8830   3.799   4.069   3.757
 2941SOL    HW1 8831   3.707   4.041   3.728
 2941SOL    HW2 8832   3.830   4.146   3.701
 2942SOL     OW 8833   3.796   3.890   4.042
 2942SOL    HW1 8834   3.779   3.973   3.988
 2942SOL    HW2 8835   3.886   3.853   4.020
 2943SOL     OW 8836   4.152   4.148   4.244
 2943SOL    HW1 8837   4.182   4.076   4.182
 2943SOL    HW2 8838   4.113   4.108   4.327
   4.49248   4.49248   4.49248
