mobley_3053621_GMX.gro created by acpype (v: 2023.10.27) on Wed May 20 23:44:45 2026
   12
    1MOL     C1    1   2.158   2.143   2.212
    1MOL     C2    2   2.247   2.193   2.116
    1MOL     C3    3   2.157   2.196   2.341
    1MOL     C4    4   2.336   2.296   2.150
    1MOL     C5    5   2.246   2.299   2.376
    1MOL     C6    6   2.335   2.349   2.280
    1MOL     H7    7   2.091   2.065   2.186
    1MOL     H8    8   2.248   2.153   2.018
    1MOL     H9    9   2.090   2.158   2.414
    1MOL    H10   10   2.404   2.334   2.078
    1MOL    H11   11   2.245   2.339   2.474
    1MOL    H12   12   2.402   2.427   2.306
   4.49248   4.49248   4.49248
