4_nitrophenol
    15
   0.8180000  -0.4390000   0.5640000   2.9370000  -1.5970000   0.6200000
   0.7990000  -0.4060000   1.9590000   2.9180000  -1.5650000   2.0140000
   1.8870000  -1.0340000  -0.1050000   1.8500000  -0.9690000   2.6840000
   1.9040000  -1.0690000  -1.5250000   0.9480000  -0.5590000  -2.1570000
   2.8750000  -1.6100000  -2.1070000   1.8320000  -0.9360000   4.0440000
  -0.0070000   0.0030000   0.0120000   3.7760000  -2.0650000   0.1100000
  -0.0350000   0.0600000   2.4750000   3.7400000  -2.0040000   2.5730000
   1.1760000  -0.2770000   4.3350000
