; mobley_2751110_GMX_OPLS.top created by acpype (v: 2023.10.27) on Wed May 20 23:59:14 2026

; Include forcefield parameters
#include "ffoplsaa.itp"

; Include mobley_2751110_GMX.itp topology
#include "mobley_2751110_GMX.itp"

; Ligand position restraints
#ifdef POSRES_LIG
#include "posre_mobley_2751110.itp"
#endif

[ system ]
 mobley_2751110

[ molecules ]
; Compound        nmols
 mobley_2751110   1     
