mobley_1662128_GMX.gro created by acpype (v: 2023.10.27) on Wed May 20 23:56:44 2026
   12
    1MOL     C1    1   2.113   2.172   2.330
    1MOL     C2    2   2.242   2.203   2.345
    1MOL     C3    3   2.357   2.312   2.152
    1MOL     C4    4   2.304   2.330   2.293
    1MOL     H1    5   2.072   2.080   2.369
    1MOL     H2    6   2.046   2.240   2.278
    1MOL     H3    7   2.306   2.134   2.398
    1MOL     H4    8   2.403   2.404   2.116
    1MOL     H5    9   2.277   2.285   2.082
    1MOL     H6   10   2.433   2.233   2.147
    1MOL     H7   11   2.232   2.412   2.295
    1MOL     H8   12   2.387   2.358   2.360
   4.52777   4.52777   4.52777
