mobley_2693089_GMX.gro created by acpype (v: 2023.10.27) on Thu May 21 00:01:59 2026
   22
    1MOL     C1    1   2.245   2.516   2.099
    1MOL     C2    2   2.165   2.506   2.211
    1MOL     C3    3   2.428   2.464   2.226
    1MOL     C4    4   2.347   2.454   2.335
    1MOL     C5    5   2.273   2.202   2.487
    1MOL     C6    6   2.508   2.199   2.399
    1MOL     C7    7   2.407   2.418   2.469
    1MOL     C8    8   2.412   2.267   2.497
    1MOL     N1    9   2.378   2.496   2.105
    1MOL     N2   10   2.215   2.474   2.332
    1MOL     H1   11   2.205   2.542   2.002
    1MOL     H2   12   2.058   2.522   2.206
    1MOL     H3   13   2.535   2.448   2.229
    1MOL     H4   14   2.229   2.219   2.388
    1MOL     H5   15   2.205   2.242   2.562
    1MOL     H6   16   2.280   2.094   2.502
    1MOL     H7   17   2.515   2.092   2.419
    1MOL     H8   18   2.474   2.212   2.295
    1MOL     H9   19   2.609   2.241   2.408
    1MOL    H10   20   2.508   2.461   2.478
    1MOL    H11   21   2.347   2.468   2.547
    1MOL    H12   22   2.450   2.249   2.599
   4.70872   4.70872   4.70872
