mobley_2693089_GMX.gro created by acpype (v: 2023.10.27) on Thu May 21 00:01:59 2026
10189
    1MOL     C1    1   2.245   2.516   2.099
    1MOL     C2    2   2.165   2.506   2.211
    1MOL     C3    3   2.428   2.464   2.226
    1MOL     C4    4   2.347   2.454   2.335
    1MOL     C5    5   2.273   2.202   2.487
    1MOL     C6    6   2.508   2.199   2.399
    1MOL     C7    7   2.407   2.418   2.469
    1MOL     C8    8   2.412   2.267   2.497
    1MOL     N1    9   2.378   2.496   2.105
    1MOL     N2   10   2.215   2.474   2.332
    1MOL     H1   11   2.205   2.542   2.002
    1MOL     H2   12   2.058   2.522   2.206
    1MOL     H3   13   2.535   2.448   2.229
    1MOL     H4   14   2.229   2.219   2.388
    1MOL     H5   15   2.205   2.242   2.562
    1MOL     H6   16   2.280   2.094   2.502
    1MOL     H7   17   2.515   2.092   2.419
    1MOL     H8   18   2.474   2.212   2.295
    1MOL     H9   19   2.609   2.241   2.408
    1MOL    H10   20   2.508   2.461   2.478
    1MOL    H11   21   2.347   2.468   2.547
    1MOL    H12   22   2.450   2.249   2.599
    2SOL     OW   23   0.230   0.628   0.113
    2SOL    HW1   24   0.137   0.626   0.150
    2SOL    HW2   25   0.231   0.589   0.021
    3SOL     OW   26   0.225   0.275   0.996
    3SOL    HW1   27   0.260   0.258   1.088
    3SOL    HW2   28   0.137   0.230   0.984
    4SOL     OW   29   0.019   0.368   0.647
    4SOL    HW1   30  -0.063   0.411   0.686
    4SOL    HW2   31  -0.009   0.295   0.584
    5SOL     OW   32   0.569   1.275   1.165
    5SOL    HW1   33   0.476   1.268   1.128
    5SOL    HW2   34   0.580   1.364   1.209
    6SOL     OW   35   1.555   1.511   0.703
    6SOL    HW1   36   1.498   1.495   0.784
    6SOL    HW2   37   1.496   1.521   0.623
    7SOL     OW   38   1.135   0.703   0.717
    7SOL    HW1   39   1.192   0.781   0.692
    7SOL    HW2   40   1.075   0.729   0.793
    8SOL     OW   41   1.755   0.607   0.231
    8SOL    HW1   42   1.743   0.594   0.132
    8SOL    HW2   43   1.725   0.526   0.280
    9SOL     OW   44   0.768   1.144   1.023
    9SOL    HW1   45   0.690   1.161   1.083
    9SOL    HW2   46   0.802   1.231   0.987
   10SOL     OW   47   0.850   0.798   1.823
   10SOL    HW1   48   0.846   0.874   1.888
   10SOL    HW2   49   0.872   0.834   1.732
   11SOL     OW   50   0.685   1.012   0.665
   11SOL    HW1   51   0.754   0.996   0.735
   11SOL    HW2   52   0.612   1.069   0.703
   12SOL     OW   53   0.686   1.161   1.803
   12SOL    HW1   54   0.746   1.240   1.817
   12SOL    HW2   55   0.600   1.192   1.762
   13SOL     OW   56   0.335   1.435   1.061
   13SOL    HW1   57   0.257   1.404   1.008
   13SOL    HW2   58   0.393   1.493   1.004
   14SOL     OW   59   1.460   1.505   1.339
   14SOL    HW1   60   1.484   1.599   1.365
   14SOL    HW2   61   1.444   1.451   1.421
   15SOL     OW   62   0.438   0.392   1.499
   15SOL    HW1   63   0.520   0.336   1.508
   15SOL    HW2   64   0.357   0.334   1.503
   16SOL     OW   65   1.603   0.447   0.737
   16SOL    HW1   66   1.529   0.493   0.687
   16SOL    HW2   67   1.654   0.515   0.790
   17SOL     OW   68   0.231   1.713   0.483
   17SOL    HW1   69   0.265   1.790   0.537
   17SOL    HW2   70   0.275   1.713   0.393
   18SOL     OW   71   1.127   1.341   1.690
   18SOL    HW1   72   1.174   1.341   1.778
   18SOL    HW2   73   1.079   1.254   1.679
   19SOL     OW   74   0.230   1.434   0.538
   19SOL    HW1   75   0.204   1.530   0.538
   19SOL    HW2   76   0.159   1.380   0.583
   20SOL     OW   77   0.240   1.091   0.886
   20SOL    HW1   78   0.254   1.007   0.938
   20SOL    HW2   79   0.185   1.155   0.941
   21SOL     OW   80   0.620   1.786   1.439
   21SOL    HW1   81   0.528   1.769   1.474
   21SOL    HW2   82   0.648   1.878   1.465
   22SOL     OW   83   0.606   0.964   0.123
   22SOL    HW1   84   0.613   1.048   0.069
   22SOL    HW2   85   0.652   0.977   0.211
   23SOL     OW   86   1.594   0.114   1.480
   23SOL    HW1   87   1.576   0.181   1.408
   23SOL    HW2   88   1.591   0.160   1.569
   24SOL     OW   89   0.122   0.643   0.563
   24SOL    HW1   90   0.077   0.555   0.580
   24SOL    HW2   91   0.121   0.697   0.647
   25SOL     OW   92   1.842   1.767   0.359
   25SOL    HW1   93   1.896   1.738   0.439
   25SOL    HW2   94   1.872   1.857   0.330
   26SOL     OW   95   0.027   1.596   0.117
   26SOL    HW1   96   0.008   1.500   0.138
   26SOL    HW2   97  -0.006   1.654   0.192
   27SOL     OW   98   1.689   0.922   0.612
   27SOL    HW1   99   1.784   0.893   0.620
   27SOL    HW2  100   1.681   0.987   0.537
   28SOL     OW  101   1.641   1.108   0.432
   28SOL    HW1  102   1.727   1.110   0.380
   28SOL    HW2  103   1.655   1.155   0.520
   29SOL     OW  104   0.113   0.737   1.597
   29SOL    HW1  105   0.201   0.724   1.642
   29SOL    HW2  106   0.100   0.834   1.575
   30SOL     OW  107   0.613   1.365   0.726
   30SOL    HW1  108   0.564   1.278   0.735
   30SOL    HW2  109   0.590   1.408   0.639
   31SOL     OW  110   1.293   1.228   1.423
   31SOL    HW1  111   1.330   1.155   1.365
   31SOL    HW2  112   1.345   1.233   1.508
   32SOL     OW  113   0.809   0.004   0.502
   32SOL    HW1  114   0.849   0.095   0.493
   32SOL    HW2  115   0.709   0.012   0.508
   33SOL     OW  116   0.197   0.976   1.264
   33SOL    HW1  117   0.286   0.931   1.250
   33SOL    HW2  118   0.124   0.911   1.245
   34SOL     OW  119   1.525   0.999   0.190
   34SOL    HW1  120   1.462   0.923   0.203
   34SOL    HW2  121   1.573   1.017   0.276
   35SOL     OW  122   1.187   1.792   1.616
   35SOL    HW1  123   1.211   1.852   1.540
   35SOL    HW2  124   1.194   1.697   1.586
   36SOL     OW  125   0.317   0.251   1.801
   36SOL    HW1  126   0.388   0.322   1.807
   36SOL    HW2  127   0.229   0.290   1.829
   37SOL     OW  128   1.466   1.417   0.953
   37SOL    HW1  129   1.407   1.423   1.033
   37SOL    HW2  130   1.451   1.329   0.907
   38SOL     OW  131   1.667   1.714   0.572
   38SOL    HW1  132   1.626   1.691   0.484
   38SOL    HW2  133   1.649   1.640   0.637
   39SOL     OW  134   0.598   0.729   0.270
   39SOL    HW1  135   0.622   0.798   0.202
   39SOL    HW2  136   0.520   0.762   0.324
   40SOL     OW  137   1.281   0.345   0.944
   40SOL    HW1  138   1.195   0.295   0.931
   40SOL    HW2  139   1.343   0.291   1.000
   41SOL     OW  140   1.576   1.662   0.307
   41SOL    HW1  141   1.665   1.708   0.310
   41SOL    HW2  142   1.555   1.638   0.212
   42SOL     OW  143   0.807   0.605   1.465
   42SOL    HW1  144   0.760   0.602   1.554
   42SOL    HW2  145   0.756   0.550   1.399
   43SOL     OW  146   1.394   0.469   1.674
   43SOL    HW1  147   1.374   0.512   1.762
   43SOL    HW2  148   1.472   0.407   1.683
   44SOL     OW  149   0.973   0.890   1.572
   44SOL    HW1  150   1.019   0.806   1.543
   44SOL    HW2  151   0.917   0.924   1.497
   45SOL     OW  152   0.991   0.410   1.242
   45SOL    HW1  153   0.914   0.444   1.296
   45SOL    HW2  154   0.957   0.359   1.163
   46SOL     OW  155   1.041   0.701   0.429
   46SOL    HW1  156   1.067   0.697   0.525
   46SOL    HW2  157   0.956   0.650   0.415
   47SOL     OW  158   0.076   0.811   0.789
   47SOL    HW1  159   0.175   0.799   0.798
   47SOL    HW2  160   0.052   0.906   0.810
   48SOL     OW  161   0.130   1.821   1.571
   48SOL    HW1  162   0.120   1.806   1.670
   48SOL    HW2  163   0.044   1.857   1.535
   49SOL     OW  164   0.865   0.348   0.195
   49SOL    HW1  165   0.924   0.411   0.146
   49SOL    HW2  166   0.884   0.254   0.166
   50SOL     OW  167   1.719   0.585   1.831
   50SOL    HW1  168   1.693   0.674   1.795
   50SOL    HW2  169   1.717   0.517   1.758
   51SOL     OW  170   1.362   1.144   0.545
   51SOL    HW1  171   1.445   1.115   0.497
   51SOL    HW2  172   1.313   1.211   0.489
   52SOL     OW  173   0.550   0.196   0.885
   52SOL    HW1  174   0.545   0.191   0.985
   52SOL    HW2  175   0.552   0.292   0.856
   53SOL     OW  176   1.008   1.456   0.477
   53SOL    HW1  177   0.962   1.528   0.425
   53SOL    HW2  178   1.004   1.476   0.575
   54SOL     OW  179   0.351   1.801   0.853
   54SOL    HW1  180   0.401   1.715   0.859
   54SOL    HW2  181   0.416   1.878   0.850
   55SOL     OW  182   1.795   1.066   0.873
   55SOL    HW1  183   1.733   1.051   0.797
   55SOL    HW2  184   1.743   1.077   0.958
   56SOL     OW  185   1.227   1.550   1.506
   56SOL    HW1  186   1.233   1.473   1.570
   56SOL    HW2  187   1.175   1.524   1.426
   57SOL     OW  188   0.321   0.943   0.242
   57SOL    HW1  189   0.403   0.982   0.200
   57SOL    HW2  190   0.294   0.861   0.193
   58SOL     OW  191   1.458   0.735   0.728
   58SOL    HW1  192   1.453   0.670   0.803
   58SOL    HW2  193   1.538   0.794   0.741
   59SOL     OW  194   0.461   1.266   1.727
   59SOL    HW1  195   0.411   1.267   1.641
   59SOL    HW2  196   0.398   1.248   1.803
   60SOL     OW  197   1.111   1.776   0.237
   60SOL    HW1  198   1.051   1.714   0.287
   60SOL    HW2  199   1.142   1.732   0.152
   61SOL     OW  200   0.202   0.285   1.498
   61SOL    HW1  201   0.122   0.345   1.485
   61SOL    HW2  202   0.192   0.236   1.584
   62SOL     OW  203   1.632   1.377   0.081
   62SOL    HW1  204   1.600   1.471   0.071
   62SOL    HW2  205   1.556   1.314   0.069
   63SOL     OW  206   0.464   1.743   0.323
   63SOL    HW1  207   0.497   1.782   0.409
   63SOL    HW2  208   0.540   1.736   0.258
   64SOL     OW  209   1.400   0.107   0.426
   64SOL    HW1  210   1.376   0.070   0.336
   64SOL    HW2  211   1.499   0.123   0.430
   65SOL     OW  212   0.249   1.785   1.241
   65SOL    HW1  213   0.306   1.720   1.291
   65SOL    HW2  214   0.233   1.752   1.148
   66SOL     OW  215   0.940   1.698   0.904
   66SOL    HW1  216   1.020   1.641   0.925
   66SOL    HW2  217   0.891   1.658   0.827
   67SOL     OW  218   0.382   0.700   0.480
   67SOL    HW1  219   0.427   0.610   0.477
   67SOL    HW2  220   0.288   0.689   0.513
   68SOL     OW  221   1.547   0.222   1.729
   68SOL    HW1  222   1.542   0.259   1.821
   68SOL    HW2  223   1.475   0.153   1.717
   69SOL     OW  224   0.614   0.122   0.117
   69SOL    HW1  225   0.712   0.100   0.124
   69SOL    HW2  226   0.583   0.105   0.024
   70SOL     OW  227   0.781   0.264   1.749
   70SOL    HW1  228   0.848   0.203   1.792
   70SOL    HW2  229   0.708   0.283   1.814
   71SOL     OW  230   0.888   1.514   1.195
   71SOL    HW1  231   0.865   1.489   1.101
   71SOL    HW2  232   0.949   1.445   1.234
   72SOL     OW  233   1.351   0.590   1.433
   72SOL    HW1  234   1.379   0.547   1.518
   72SOL    HW2  235   1.376   0.686   1.434
   73SOL     OW  236   0.803   1.402   0.924
   73SOL    HW1  237   0.893   1.416   0.882
   73SOL    HW2  238   0.732   1.404   0.853
   74SOL     OW  239   0.922   0.503   0.899
   74SOL    HW1  240   0.897   0.494   0.803
   74SOL    HW2  241   0.970   0.421   0.930
   75SOL     OW  242   0.539   0.064   0.512
   75SOL    HW1  243   0.458   0.065   0.570
   75SOL    HW2  244   0.542   0.147   0.457
   76SOL     OW  245   1.434   1.188   0.041
   76SOL    HW1  246   1.466   1.112   0.098
   76SOL    HW2  247   1.342   1.215   0.071
   77SOL     OW  248   0.297   0.035   0.171
   77SOL    HW1  249   0.346   0.119   0.150
   77SOL    HW2  250   0.359  -0.030   0.216
   78SOL     OW  251   0.935   0.236   0.480
   78SOL    HW1  252   0.887   0.277   0.402
   78SOL    HW2  253   1.034   0.234   0.461
   79SOL     OW  254   1.076   0.683   1.464
   79SOL    HW1  255   0.996   0.622   1.467
   79SOL    HW2  256   1.157   0.630   1.440
   80SOL     OW  257   1.227   1.570   0.793
   80SOL    HW1  258   1.248   1.644   0.728
   80SOL    HW2  259   1.295   1.570   0.866
   81SOL     OW  260   0.459   1.152   0.741
   81SOL    HW1  261   0.388   1.125   0.806
   81SOL    HW2  262   0.433   1.124   0.648
   82SOL     OW  263   1.271   1.797   0.591
   82SOL    HW1  264   1.315   1.861   0.527
   82SOL    HW2  265   1.221   1.849   0.661
   83SOL     OW  266   1.032   0.549   0.016
   83SOL    HW1  267   0.991   0.631  -0.023
   83SOL    HW2  268   1.096   0.575   0.089
   84SOL     OW  269   0.078   0.556   1.386
   84SOL    HW1  270   0.170   0.555   1.345
   84SOL    HW2  271   0.072   0.630   1.453
   85SOL     OW  272   0.561   0.222   1.147
   85SOL    HW1  273   0.599   0.138   1.184
   85SOL    HW2  274   0.473   0.241   1.191
   86SOL     OW  275   0.866   0.454   0.642
   86SOL    HW1  276   0.834   0.526   0.580
   86SOL    HW2  277   0.890   0.373   0.589
   87SOL     OW  278   1.017   0.039   0.753
   87SOL    HW1  279   0.945   0.044   0.684
   87SOL    HW2  280   0.993  -0.030   0.822
   88SOL     OW  281   1.429   1.173   0.867
   88SOL    HW1  282   1.374   1.089   0.860
   88SOL    HW2  283   1.455   1.202   0.775
   89SOL     OW  284   1.466   0.590   0.992
   89SOL    HW1  285   1.436   0.495   0.999
   89SOL    HW2  286   1.539   0.606   1.058
   90SOL     OW  287   1.857   0.833   0.377
   90SOL    HW1  288   1.899   0.769   0.441
   90SOL    HW2  289   1.819   0.782   0.299
   91SOL     OW  290   0.488   1.385   0.174
   91SOL    HW1  291   0.401   1.370   0.221
   91SOL    HW2  292   0.471   1.411   0.079
   92SOL     OW  293   1.664   1.280   0.657
   92SOL    HW1  294   1.763   1.288   0.671
   92SOL    HW2  295   1.619   1.364   0.688
   93SOL     OW  296   1.390   0.575   0.078
   93SOL    HW1  297   1.336   0.554   0.159
   93SOL    HW2  298   1.481   0.534   0.087
   94SOL     OW  299   0.527   0.256   0.328
   94SOL    HW1  300   0.554   0.197   0.253
   94SOL    HW2  301   0.527   0.351   0.297
   95SOL     OW  302   1.754   1.223   1.588
   95SOL    HW1  303   1.845   1.184   1.575
   95SOL    HW2  304   1.762   1.319   1.612
   96SOL     OW  305   1.064   1.347   1.340
   96SOL    HW1  306   0.984   1.324   1.395
   96SOL    HW2  307   1.147   1.321   1.389
   97SOL     OW  308   1.592   1.629   1.625
   97SOL    HW1  309   1.619   1.663   1.535
   97SOL    HW2  310   1.671   1.591   1.671
   98SOL     OW  311   1.111   1.195   1.100
   98SOL    HW1  312   1.071   1.239   1.181
   98SOL    HW2  313   1.070   1.232   1.017
   99SOL     OW  314   1.638   1.099   1.079
   99SOL    HW1  315   1.643   1.180   1.138
   99SOL    HW2  316   1.552   1.101   1.028
  100SOL     OW  317   0.915   0.089   1.402
  100SOL    HW1  318   0.940   0.069   1.307
  100SOL    HW2  319   0.987   0.145   1.444
  101SOL     OW  320   0.980   1.116   1.719
  101SOL    HW1  321   0.881   1.122   1.729
  101SOL    HW2  322   1.003   1.036   1.663
  102SOL     OW  323   0.705   1.050   0.368
  102SOL    HW1  324   0.691   1.057   0.467
  102SOL    HW2  325   0.789   0.999   0.350
  103SOL     OW  326   0.410   0.813   1.251
  103SOL    HW1  327   0.496   0.825   1.301
  103SOL    HW2  328   0.368   0.726   1.278
  104SOL     OW  329   1.274   0.386   1.262
  104SOL    HW1  330   1.295   0.460   1.326
  104SOL    HW2  331   1.185   0.403   1.219
  105SOL     OW  332   0.064   1.564   1.331
  105SOL    HW1  333   0.018   1.646   1.297
  105SOL    HW2  334   0.162   1.583   1.340
  106SOL     OW  335   0.367   1.100   0.501
  106SOL    HW1  336   0.360   1.183   0.445
  106SOL    HW2  337   0.371   1.020   0.441
  107SOL     OW  338   0.566   0.537   0.865
  107SOL    HW1  339   0.578   0.603   0.791
  107SOL    HW2  340   0.612   0.571   0.948
  108SOL     OW  341   1.252   1.348   0.388
  108SOL    HW1  342   1.302   1.425   0.428
  108SOL    HW2  343   1.157   1.350   0.420
  109SOL     OW  344   1.272   1.445   1.142
  109SOL    HW1  345   1.319   1.458   1.229
  109SOL    HW2  346   1.206   1.371   1.151
  110SOL     OW  347   1.582   0.639   0.472
  110SOL    HW1  348   1.551   0.700   0.545
  110SOL    HW2  349   1.632   0.691   0.403
  111SOL     OW  350   0.354   1.510   1.329
  111SOL    HW1  351   0.333   1.466   1.242
  111SOL    HW2  352   0.451   1.536   1.332
  112SOL     OW  353   0.402   0.751   1.598
  112SOL    HW1  354   0.470   0.806   1.551
  112SOL    HW2  355   0.442   0.663   1.625
  113SOL     OW  356   1.587   0.779   1.670
  113SOL    HW1  357   1.495   0.817   1.665
  113SOL    HW2  358   1.647   0.826   1.605
  114SOL     OW  359   1.013   0.105   1.770
  114SOL    HW1  360   1.019   0.190   1.718
  114SOL    HW2  361   1.045   0.029   1.713
  115SOL     OW  362   0.504   0.050   1.740
  115SOL    HW1  363   0.462  -0.007   1.670
  115SOL    HW2  364   0.438   0.119   1.772
  116SOL     OW  365   0.573   0.870   1.029
  116SOL    HW1  366   0.617   0.959   1.020
  116SOL    HW2  367   0.510   0.870   1.106
  117SOL     OW  368   1.360   0.862   1.045
  117SOL    HW1  369   1.285   0.862   0.979
  117SOL    HW2  370   1.397   0.770   1.054
  118SOL     OW  371   1.209   0.525   0.275
  118SOL    HW1  372   1.222   0.441   0.329
  118SOL    HW2  373   1.180   0.599   0.335
  119SOL     OW  374   0.307   0.213   1.231
  119SOL    HW1  375   0.284   0.250   1.321
  119SOL    HW2  376   0.277   0.118   1.225
  120SOL     OW  377   0.037   1.310   1.282
  120SOL    HW1  378   0.090   1.261   1.350
  120SOL    HW2  379   0.059   1.408   1.287
  121SOL     OW  380   0.732   0.634   1.064
  121SOL    HW1  381   0.791   0.608   0.988
  121SOL    HW2  382   0.704   0.730   1.053
  122SOL     OW  383   1.728   0.935   1.854
  122SOL    HW1  384   1.682   0.928   1.765
  122SOL    HW2  385   1.666   0.979   1.920
  123SOL     OW  386   0.307   0.063   0.618
  123SOL    HW1  387   0.296   0.157   0.651
  123SOL    HW2  388   0.302   0.000   0.695
  124SOL     OW  389   1.622   0.367   0.374
  124SOL    HW1  390   1.624   0.291   0.438
  124SOL    HW2  391   1.574   0.444   0.414
  125SOL     OW  392   1.023   0.766   0.966
  125SOL    HW1  393   1.038   0.787   1.062
  125SOL    HW2  394   0.993   0.671   0.957
  126SOL     OW  395   0.980   1.573   1.700
  126SOL    HW1  396   0.960   1.617   1.612
  126SOL    HW2  397   1.019   1.482   1.684
  127SOL     OW  398   1.859   1.518   1.605
  127SOL    HW1  399   1.873   1.545   1.510
  127SOL    HW2  400   1.942   1.540   1.658
  128SOL     OW  401   0.350   0.898   1.804
  128SOL    HW1  402   0.426   0.942   1.852
  128SOL    HW2  403   0.385   0.851   1.722
  129SOL     OW  404   1.540   0.274   0.125
  129SOL    HW1  405   1.479   0.199   0.148
  129SOL    HW2  406   1.562   0.326   0.208
  130SOL     OW  407   1.303   0.838   0.042
  130SOL    HW1  408   1.337   0.745   0.057
  130SOL    HW2  409   1.321   0.865  -0.053
  131SOL     OW  410   1.068   1.333   0.849
  131SOL    HW1  411   1.075   1.249   0.794
  131SOL    HW2  412   1.130   1.402   0.813
  132SOL     OW  413   0.319   0.810   0.949
  132SOL    HW1  414   0.412   0.846   0.954
  132SOL    HW2  415   0.313   0.725   1.001
  133SOL     OW  416   0.339   0.509   1.006
  133SOL    HW1  417   0.287   0.426   0.989
  133SOL    HW2  418   0.416   0.514   0.942
  134SOL     OW  419   1.138   0.380   1.678
  134SOL    HW1  420   1.093   0.443   1.742
  134SOL    HW2  421   1.231   0.411   1.661
  135SOL     OW  422   1.160   0.207   1.477
  135SOL    HW1  423   1.160   0.271   1.554
  135SOL    HW2  424   1.188   0.255   1.394
  136SOL     OW  425   0.008   1.326   0.200
  136SOL    HW1  426  -0.085   1.347   0.169
  136SOL    HW2  427   0.018   1.227   0.213
  137SOL     OW  428   0.088   1.801   0.927
  137SOL    HW1  429   0.046   1.715   0.900
  137SOL    HW2  430   0.182   1.804   0.893
  138SOL     OW  431   0.504   1.568   0.910
  138SOL    HW1  432   0.570   1.642   0.919
  138SOL    HW2  433   0.548   1.489   0.868
  139SOL     OW  434   1.002   0.796   1.238
  139SOL    HW1  435   1.043   0.764   1.324
  139SOL    HW2  436   0.906   0.769   1.235
  140SOL     OW  437   0.040   0.544   1.114
  140SOL    HW1  438   0.125   0.511   1.073
  140SOL    HW2  439   0.053   0.559   1.212
  141SOL     OW  440   0.189   0.520   1.722
  141SOL    HW1  441   0.248   0.480   1.652
  141SOL    HW2  442   0.131   0.591   1.681
  142SOL     OW  443   1.369   0.950   1.660
  142SOL    HW1  444   1.408   1.039   1.680
  142SOL    HW2  445   1.379   0.930   1.563
  143SOL     OW  446   0.815   0.572   0.325
  143SOL    HW1  447   0.822   0.483   0.279
  143SOL    HW2  448   0.721   0.606   0.317
  144SOL     OW  449   1.657   0.604   1.206
  144SOL    HW1  450   1.619   0.535   1.268
  144SOL    HW2  451   1.739   0.568   1.162
  145SOL     OW  452   0.252   1.564   1.744
  145SOL    HW1  453   0.222   1.621   1.820
  145SOL    HW2  454   0.245   1.467   1.770
  146SOL     OW  455   0.671   0.464   1.269
  146SOL    HW1  456   0.637   0.375   1.239
  146SOL    HW2  457   0.697   0.518   1.189
  147SOL     OW  458   0.930   1.678   1.465
  147SOL    HW1  459   0.906   1.660   1.370
  147SOL    HW2  460   0.960   1.772   1.475
  148SOL     OW  461   0.473   0.500   0.191
  148SOL    HW1  462   0.534   0.580   0.195
  148SOL    HW2  463   0.378   0.531   0.198
  149SOL     OW  464   0.159   1.137   1.466
  149SOL    HW1  465   0.181   1.076   1.542
  149SOL    HW2  466   0.169   1.088   1.380
  150SOL     OW  467   1.347   1.059   1.234
  150SOL    HW1  468   1.371   0.996   1.160
  150SOL    HW2  469   1.257   1.099   1.216
  151SOL     OW  470   1.302   0.855   0.309
  151SOL    HW1  471   1.216   0.824   0.351
  151SOL    HW2  472   1.298   0.841   0.210
  152SOL     OW  473   1.759   1.747   1.154
  152SOL    HW1  474   1.820   1.777   1.081
  152SOL    HW2  475   1.721   1.658   1.132
  153SOL     OW  476   1.252   1.731   1.128
  153SOL    HW1  477   1.336   1.736   1.074
  153SOL    HW2  478   1.229   1.635   1.146
  154SOL     OW  479   0.083   1.258   1.022
  154SOL    HW1  480   0.078   1.257   1.122
  154SOL    HW2  481   0.000   1.217   0.984
  155SOL     OW  482   0.688   1.662   1.716
  155SOL    HW1  483   0.632   1.743   1.725
  155SOL    HW2  484   0.740   1.666   1.630
  156SOL     OW  485   0.903   0.086   0.133
  156SOL    HW1  486   0.954   0.087   0.047
  156SOL    HW2  487   0.959   0.044   0.204
  157SOL     OW  488   1.726   0.135   0.523
  157SOL    HW1  489   1.799   0.118   0.456
  157SOL    HW2  490   1.695   0.048   0.561
  158SOL     OW  491   1.388   1.573   0.477
  158SOL    HW1  492   1.455   1.585   0.403
  158SOL    HW2  493   1.348   1.662   0.500
  159SOL     OW  494   0.130   1.794   1.851
  159SOL    HW1  495   0.089   1.720   1.904
  159SOL    HW2  496   0.194   1.845   1.909
  160SOL     OW  497   1.280   0.927   0.672
  160SOL    HW1  498   1.340   0.846   0.674
  160SOL    HW2  499   1.320   0.996   0.612
  161SOL     OW  500   0.830   1.273   1.422
  161SOL    HW1  501   0.825   1.306   1.517
  161SOL    HW2  502   0.744   1.292   1.376
  162SOL     OW  503   0.672   1.616   0.154
  162SOL    HW1  504   0.681   1.626   0.055
  162SOL    HW2  505   0.632   1.527   0.175
  163SOL     OW  506   1.650   1.720   1.394
  163SOL    HW1  507   1.703   1.730   1.310
  163SOL    HW2  508   1.623   1.810   1.428
  164SOL     OW  509   1.841   0.175   0.963
  164SOL    HW1  510   1.880   0.090   0.927
  164SOL    HW2  511   1.743   0.177   0.944
  165SOL     OW  512   0.263   0.326   0.720
  165SOL    HW1  513   0.184   0.377   0.686
  165SOL    HW2  514   0.254   0.311   0.818
  166SOL     OW  515   1.194   1.612   0.031
  166SOL    HW1  516   1.200   1.519   0.068
  166SOL    HW2  517   1.135   1.612  -0.049
  167SOL     OW  518   0.822   1.002   1.372
  167SOL    HW1  519   0.862   1.001   1.280
  167SOL    HW2  520   0.832   1.094   1.412
  168SOL     OW  521   0.916   0.910   0.291
  168SOL    HW1  522   0.979   0.948   0.223
  168SOL    HW2  523   0.956   0.827   0.330
  169SOL     OW  524   1.504   1.607   0.044
  169SOL    HW1  525   1.412   1.644   0.051
  169SOL    HW2  526   1.542   1.627  -0.046
  170SOL     OW  527   0.372   1.288   1.490
  170SOL    HW1  528   0.359   1.381   1.456
  170SOL    HW2  529   0.288   1.236   1.477
  171SOL     OW  530   1.614   1.292   1.289
  171SOL    HW1  531   1.674   1.295   1.369
  171SOL    HW2  532   1.539   1.356   1.302
  172SOL     OW  533   1.039   1.098   0.696
  172SOL    HW1  534   0.969   1.051   0.750
  172SOL    HW2  535   1.098   1.030   0.653
  173SOL     OW  536   1.014   0.236   0.971
  173SOL    HW1  537   1.006   0.200   0.878
  173SOL    HW2  538   1.012   0.160   1.036
  174SOL     OW  539   0.590   1.487   0.491
  174SOL    HW1  540   0.632   1.429   0.421
  174SOL    HW2  541   0.546   1.566   0.447
  175SOL     OW  542   1.709   0.385   1.381
  175SOL    HW1  543   1.782   0.454   1.385
  175SOL    HW2  544   1.737   0.310   1.322
  176SOL     OW  545   0.255   1.348   0.290
  176SOL    HW1  546   0.159   1.349   0.263
  176SOL    HW2  547   0.267   1.401   0.374
  177SOL     OW  548   0.105   1.013   1.726
  177SOL    HW1  549   0.028   0.980   1.780
  177SOL    HW2  550   0.190   0.983   1.768
  178SOL     OW  551   0.672   0.203   1.489
  178SOL    HW1  552   0.762   0.187   1.449
  178SOL    HW2  553   0.680   0.208   1.588
  179SOL     OW  554   0.075   0.345   0.033
  179SOL    HW1  555  -0.017   0.317   0.004
  179SOL    HW2  556   0.106   0.422  -0.023
  180SOL     OW  557   1.440   0.856   1.398
  180SOL    HW1  558   1.383   0.908   1.335
  180SOL    HW2  559   1.536   0.868   1.374
  181SOL     OW  560   0.072   0.166   0.318
  181SOL    HW1  561   0.055   0.249   0.264
  181SOL    HW2  562   0.162   0.129   0.296
  182SOL     OW  563   1.183   1.335   0.119
  182SOL    HW1  564   1.084   1.324   0.121
  182SOL    HW2  565   1.217   1.350   0.212
  183SOL     OW  566   0.613   0.842   1.431
  183SOL    HW1  567   0.669   0.923   1.414
  183SOL    HW2  568   0.672   0.762   1.434
  184SOL     OW  569   1.493   1.767   0.959
  184SOL    HW1  570   1.526   1.831   0.890
  184SOL    HW2  571   1.559   1.761   1.034
  185SOL     OW  572   0.716   0.565   1.708
  185SOL    HW1  573   0.735   0.630   1.782
  185SOL    HW2  574   0.776   0.485   1.717
  186SOL     OW  575   1.450   1.220   1.633
  186SOL    HW1  576   1.441   1.210   1.732
  186SOL    HW2  577   1.546   1.213   1.607
  187SOL     OW  578   0.390   1.741   1.560
  187SOL    HW1  579   0.299   1.782   1.558
  187SOL    HW2  580   0.383   1.647   1.592
  188SOL     OW  581   1.674   0.883   1.254
  188SOL    HW1  582   1.647   0.794   1.217
  188SOL    HW2  583   1.675   0.951   1.181
  189SOL     OW  584   1.225   0.325   0.449
  189SOL    HW1  585   1.290   0.251   0.438
  189SOL    HW2  586   1.245   0.375   0.533
  190SOL     OW  587   0.594   0.745   0.652
  190SOL    HW1  588   0.644   0.830   0.633
  190SOL    HW2  589   0.506   0.747   0.604
  191SOL     OW  590   1.777   0.342   1.642
  191SOL    HW1  591   1.760   0.373   1.548
  191SOL    HW2  592   1.693   0.305   1.680
  192SOL     OW  593   1.730   0.934   1.517
  192SOL    HW1  594   1.768   1.025   1.532
  192SOL    HW2  595   1.722   0.917   1.418
  193SOL     OW  596   0.859   1.374   0.016
  193SOL    HW1  597   0.813   1.389   0.104
  193SOL    HW2  598   0.903   1.459  -0.014
  194SOL     OW  599   0.661   1.790   0.953
  194SOL    HW1  600   0.615   1.878   0.940
  194SOL    HW2  601   0.760   1.802   0.946
  195SOL     OW  602   0.859   0.956   0.861
  195SOL    HW1  603   0.913   0.887   0.909
  195SOL    HW2  604   0.827   1.025   0.927
  196SOL     OW  605   1.083   0.984   0.087
  196SOL    HW1  606   1.060   1.037   0.005
  196SOL    HW2  607   1.164   0.928   0.068
  197SOL     OW  608   1.861   1.569   0.851
  197SOL    HW1  609   1.790   1.557   0.781
  197SOL    HW2  610   1.862   1.490   0.911
  198SOL     OW  611   0.221   1.314   1.844
  198SOL    HW1  612   0.156   1.241   1.823
  198SOL    HW2  613   0.225   1.328   1.942
  199SOL     OW  614   0.079   1.240   0.653
  199SOL    HW1  615   0.078   1.193   0.741
  199SOL    HW2  616   0.161   1.212   0.602
  200SOL     OW  617   0.672   1.391   1.624
  200SOL    HW1  618   0.594   1.341   1.662
  200SOL    HW2  619   0.669   1.486   1.655
  201SOL     OW  620   1.824   0.192   1.227
  201SOL    HW1  621   1.820   0.102   1.271
  201SOL    HW2  622   1.827   0.181   1.128
  202SOL     OW  623   0.428   0.424   0.520
  202SOL    HW1  624   0.458   0.352   0.458
  202SOL    HW2  625   0.389   0.384   0.603
  203SOL     OW  626   1.705   1.487   1.104
  203SOL    HW1  627   1.612   1.462   1.077
  203SOL    HW2  628   1.731   1.437   1.186
  204SOL     OW  629   0.317   0.547   1.280
  204SOL    HW1  630   0.355   0.488   1.352
  204SOL    HW2  631   0.357   0.521   1.192
  205SOL     OW  632   0.812   1.586   0.687
  205SOL    HW1  633   0.844   1.596   0.593
  205SOL    HW2  634   0.733   1.524   0.689
  206SOL     OW  635   1.424   0.214   1.112
  206SOL    HW1  636   1.476   0.149   1.167
  206SOL    HW2  637   1.375   0.277   1.173
  207SOL     OW  638   1.001   0.034   1.154
  207SOL    HW1  639   0.938  -0.038   1.123
  207SOL    HW2  640   1.094  -0.002   1.154
  208SOL     OW  641   0.770   1.330   0.301
  208SOL    HW1  642   0.724   1.243   0.318
  208SOL    HW2  643   0.861   1.327   0.342
  209SOL     OW  644   0.618   1.567   1.284
  209SOL    HW1  645   0.613   1.649   1.341
  209SOL    HW2  646   0.707   1.564   1.239
  210SOL     OW  647   1.352   0.052   0.168
  210SOL    HW1  648   1.387   0.011   0.084
  210SOL    HW2  649   1.262   0.014   0.188
  211SOL     OW  650   1.300   0.453   0.691
  211SOL    HW1  651   1.241   0.533   0.695
  211SOL    HW2  652   1.315   0.418   0.784
  212SOL     OW  653   1.593   0.221   0.882
  212SOL    HW1  654   1.509   0.220   0.936
  212SOL    HW2  655   1.595   0.304   0.826
  213SOL     OW  656   0.039   1.077   0.300
  213SOL    HW1  657   0.138   1.066   0.291
  213SOL    HW2  658  -0.001   0.991   0.332
  214SOL     OW  659   0.875   1.646   0.337
  214SOL    HW1  660   0.798   1.611   0.283
  214SOL    HW2  661   0.843   1.717   0.399
  215SOL     OW  662   0.230   0.628   1.975
  215SOL    HW1  663   0.137   0.626   2.012
  215SOL    HW2  664   0.231   0.589   1.883
  216SOL     OW  665   0.225   0.275   2.858
  216SOL    HW1  666   0.260   0.258   2.950
  216SOL    HW2  667   0.137   0.230   2.846
  217SOL     OW  668   0.019   0.368   2.509
  217SOL    HW1  669  -0.063   0.411   2.548
  217SOL    HW2  670  -0.009   0.295   2.446
  218SOL     OW  671   0.569   1.275   3.027
  218SOL    HW1  672   0.476   1.268   2.990
  218SOL    HW2  673   0.580   1.364   3.071
  219SOL     OW  674   1.555   1.511   2.565
  219SOL    HW1  675   1.498   1.495   2.646
  219SOL    HW2  676   1.496   1.521   2.485
  220SOL     OW  677   1.135   0.703   2.579
  220SOL    HW1  678   1.192   0.781   2.554
  220SOL    HW2  679   1.075   0.729   2.655
  221SOL     OW  680   1.755   0.607   2.093
  221SOL    HW1  681   1.743   0.594   1.994
  221SOL    HW2  682   1.725   0.526   2.142
  222SOL     OW  683   0.768   1.144   2.885
  222SOL    HW1  684   0.690   1.161   2.945
  222SOL    HW2  685   0.802   1.231   2.849
  223SOL     OW  686   0.850   0.798   3.685
  223SOL    HW1  687   0.846   0.874   3.750
  223SOL    HW2  688   0.872   0.834   3.594
  224SOL     OW  689   0.685   1.012   2.527
  224SOL    HW1  690   0.754   0.996   2.597
  224SOL    HW2  691   0.612   1.069   2.565
  225SOL     OW  692   0.686   1.161   3.665
  225SOL    HW1  693   0.746   1.240   3.679
  225SOL    HW2  694   0.600   1.192   3.624
  226SOL     OW  695   0.335   1.435   2.923
  226SOL    HW1  696   0.257   1.404   2.870
  226SOL    HW2  697   0.393   1.493   2.866
  227SOL     OW  698   1.460   1.505   3.201
  227SOL    HW1  699   1.484   1.599   3.227
  227SOL    HW2  700   1.444   1.451   3.283
  228SOL     OW  701   0.438   0.392   3.361
  228SOL    HW1  702   0.520   0.336   3.370
  228SOL    HW2  703   0.357   0.334   3.365
  229SOL     OW  704   1.603   0.447   2.599
  229SOL    HW1  705   1.529   0.493   2.549
  229SOL    HW2  706   1.654   0.515   2.652
  230SOL     OW  707   0.231   1.713   2.345
  230SOL    HW1  708   0.265   1.790   2.399
  230SOL    HW2  709   0.275   1.713   2.255
  231SOL     OW  710   1.127   1.341   3.552
  231SOL    HW1  711   1.174   1.341   3.640
  231SOL    HW2  712   1.079   1.254   3.541
  232SOL     OW  713   0.230   1.434   2.400
  232SOL    HW1  714   0.204   1.530   2.400
  232SOL    HW2  715   0.159   1.380   2.445
  233SOL     OW  716   0.240   1.091   2.748
  233SOL    HW1  717   0.254   1.007   2.800
  233SOL    HW2  718   0.185   1.155   2.803
  234SOL     OW  719   0.620   1.786   3.301
  234SOL    HW1  720   0.528   1.769   3.336
  234SOL    HW2  721   0.648   1.878   3.327
  235SOL     OW  722   0.606   0.964   1.985
  235SOL    HW1  723   0.613   1.048   1.931
  235SOL    HW2  724   0.652   0.977   2.073
  236SOL     OW  725   1.594   0.114   3.342
  236SOL    HW1  726   1.576   0.181   3.270
  236SOL    HW2  727   1.591   0.160   3.431
  237SOL     OW  728   0.122   0.643   2.425
  237SOL    HW1  729   0.077   0.555   2.442
  237SOL    HW2  730   0.121   0.697   2.509
  238SOL     OW  731   1.842   1.767   2.221
  238SOL    HW1  732   1.896   1.738   2.301
  238SOL    HW2  733   1.872   1.857   2.192
  239SOL     OW  734   0.027   1.596   1.979
  239SOL    HW1  735   0.008   1.500   2.000
  239SOL    HW2  736  -0.006   1.654   2.054
  240SOL     OW  737   1.689   0.922   2.474
  240SOL    HW1  738   1.784   0.893   2.482
  240SOL    HW2  739   1.681   0.987   2.399
  241SOL     OW  740   1.641   1.108   2.294
  241SOL    HW1  741   1.727   1.110   2.242
  241SOL    HW2  742   1.655   1.155   2.382
  242SOL     OW  743   0.113   0.737   3.459
  242SOL    HW1  744   0.201   0.724   3.504
  242SOL    HW2  745   0.100   0.834   3.437
  243SOL     OW  746   0.613   1.365   2.588
  243SOL    HW1  747   0.564   1.278   2.597
  243SOL    HW2  748   0.590   1.408   2.501
  244SOL     OW  749   1.293   1.228   3.285
  244SOL    HW1  750   1.330   1.155   3.227
  244SOL    HW2  751   1.345   1.233   3.370
  245SOL     OW  752   0.809   0.004   2.364
  245SOL    HW1  753   0.849   0.095   2.355
  245SOL    HW2  754   0.709   0.012   2.370
  246SOL     OW  755   0.197   0.976   3.126
  246SOL    HW1  756   0.286   0.931   3.112
  246SOL    HW2  757   0.124   0.911   3.107
  247SOL     OW  758   1.525   0.999   2.052
  247SOL    HW1  759   1.462   0.923   2.065
  247SOL    HW2  760   1.573   1.017   2.138
  248SOL     OW  761   1.187   1.792   3.478
  248SOL    HW1  762   1.211   1.852   3.402
  248SOL    HW2  763   1.194   1.697   3.448
  249SOL     OW  764   0.317   0.251   3.663
  249SOL    HW1  765   0.388   0.322   3.669
  249SOL    HW2  766   0.229   0.290   3.691
  250SOL     OW  767   1.466   1.417   2.815
  250SOL    HW1  768   1.407   1.423   2.895
  250SOL    HW2  769   1.451   1.329   2.769
  251SOL     OW  770   1.667   1.714   2.434
  251SOL    HW1  771   1.626   1.691   2.346
  251SOL    HW2  772   1.649   1.640   2.499
  252SOL     OW  773   0.598   0.729   2.132
  252SOL    HW1  774   0.622   0.798   2.064
  252SOL    HW2  775   0.520   0.762   2.186
  253SOL     OW  776   1.281   0.345   2.806
  253SOL    HW1  777   1.195   0.295   2.793
  253SOL    HW2  778   1.343   0.291   2.862
  254SOL     OW  779   1.576   1.662   2.169
  254SOL    HW1  780   1.665   1.708   2.172
  254SOL    HW2  781   1.555   1.638   2.074
  255SOL     OW  782   0.807   0.605   3.327
  255SOL    HW1  783   0.760   0.602   3.416
  255SOL    HW2  784   0.756   0.550   3.261
  256SOL     OW  785   1.394   0.469   3.536
  256SOL    HW1  786   1.374   0.512   3.624
  256SOL    HW2  787   1.472   0.407   3.545
  257SOL     OW  788   0.973   0.890   3.434
  257SOL    HW1  789   1.019   0.806   3.405
  257SOL    HW2  790   0.917   0.924   3.359
  258SOL     OW  791   0.991   0.410   3.104
  258SOL    HW1  792   0.914   0.444   3.158
  258SOL    HW2  793   0.957   0.359   3.025
  259SOL     OW  794   1.041   0.701   2.291
  259SOL    HW1  795   1.067   0.697   2.387
  259SOL    HW2  796   0.956   0.650   2.277
  260SOL     OW  797   0.076   0.811   2.651
  260SOL    HW1  798   0.175   0.799   2.660
  260SOL    HW2  799   0.052   0.906   2.672
  261SOL     OW  800   0.130   1.821   3.433
  261SOL    HW1  801   0.120   1.806   3.532
  261SOL    HW2  802   0.044   1.857   3.397
  262SOL     OW  803   0.865   0.348   2.057
  262SOL    HW1  804   0.924   0.411   2.008
  262SOL    HW2  805   0.884   0.254   2.028
  263SOL     OW  806   1.719   0.585   3.693
  263SOL    HW1  807   1.693   0.674   3.657
  263SOL    HW2  808   1.717   0.517   3.620
  264SOL     OW  809   1.362   1.144   2.407
  264SOL    HW1  810   1.445   1.115   2.359
  264SOL    HW2  811   1.313   1.211   2.351
  265SOL     OW  812   0.550   0.196   2.747
  265SOL    HW1  813   0.545   0.191   2.847
  265SOL    HW2  814   0.552   0.292   2.718
  266SOL     OW  815   1.008   1.456   2.339
  266SOL    HW1  816   0.962   1.528   2.287
  266SOL    HW2  817   1.004   1.476   2.437
  267SOL     OW  818   0.351   1.801   2.715
  267SOL    HW1  819   0.401   1.715   2.721
  267SOL    HW2  820   0.416   1.878   2.712
  268SOL     OW  821   1.795   1.066   2.735
  268SOL    HW1  822   1.733   1.051   2.659
  268SOL    HW2  823   1.743   1.077   2.820
  269SOL     OW  824   1.227   1.550   3.368
  269SOL    HW1  825   1.233   1.473   3.432
  269SOL    HW2  826   1.175   1.524   3.288
  270SOL     OW  827   0.321   0.943   2.104
  270SOL    HW1  828   0.403   0.982   2.062
  270SOL    HW2  829   0.294   0.861   2.055
  271SOL     OW  830   1.458   0.735   2.590
  271SOL    HW1  831   1.453   0.670   2.665
  271SOL    HW2  832   1.538   0.794   2.603
  272SOL     OW  833   0.461   1.266   3.589
  272SOL    HW1  834   0.411   1.267   3.503
  272SOL    HW2  835   0.398   1.248   3.665
  273SOL     OW  836   1.111   1.776   2.099
  273SOL    HW1  837   1.051   1.714   2.149
  273SOL    HW2  838   1.142   1.732   2.014
  274SOL     OW  839   0.202   0.285   3.360
  274SOL    HW1  840   0.122   0.345   3.347
  274SOL    HW2  841   0.192   0.236   3.446
  275SOL     OW  842   1.632   1.377   1.943
  275SOL    HW1  843   1.600   1.471   1.933
  275SOL    HW2  844   1.556   1.314   1.931
  276SOL     OW  845   0.464   1.743   2.185
  276SOL    HW1  846   0.497   1.782   2.271
  276SOL    HW2  847   0.540   1.736   2.120
  277SOL     OW  848   1.400   0.107   2.288
  277SOL    HW1  849   1.376   0.070   2.198
  277SOL    HW2  850   1.499   0.123   2.292
  278SOL     OW  851   0.249   1.785   3.103
  278SOL    HW1  852   0.306   1.720   3.153
  278SOL    HW2  853   0.233   1.752   3.010
  279SOL     OW  854   0.940   1.698   2.766
  279SOL    HW1  855   1.020   1.641   2.787
  279SOL    HW2  856   0.891   1.658   2.689
  280SOL     OW  857   0.382   0.700   2.342
  280SOL    HW1  858   0.427   0.610   2.339
  280SOL    HW2  859   0.288   0.689   2.375
  281SOL     OW  860   1.547   0.222   3.591
  281SOL    HW1  861   1.542   0.259   3.683
  281SOL    HW2  862   1.475   0.153   3.579
  282SOL     OW  863   0.614   0.122   1.979
  282SOL    HW1  864   0.712   0.100   1.986
  282SOL    HW2  865   0.583   0.105   1.886
  283SOL     OW  866   0.781   0.264   3.611
  283SOL    HW1  867   0.848   0.203   3.654
  283SOL    HW2  868   0.708   0.283   3.676
  284SOL     OW  869   0.888   1.514   3.057
  284SOL    HW1  870   0.865   1.489   2.963
  284SOL    HW2  871   0.949   1.445   3.096
  285SOL     OW  872   1.351   0.590   3.295
  285SOL    HW1  873   1.379   0.547   3.380
  285SOL    HW2  874   1.376   0.686   3.296
  286SOL     OW  875   0.803   1.402   2.786
  286SOL    HW1  876   0.893   1.416   2.744
  286SOL    HW2  877   0.732   1.404   2.715
  287SOL     OW  878   0.922   0.503   2.761
  287SOL    HW1  879   0.897   0.494   2.665
  287SOL    HW2  880   0.970   0.421   2.792
  288SOL     OW  881   0.539   0.064   2.374
  288SOL    HW1  882   0.458   0.065   2.432
  288SOL    HW2  883   0.542   0.147   2.319
  289SOL     OW  884   1.434   1.188   1.903
  289SOL    HW1  885   1.466   1.112   1.960
  289SOL    HW2  886   1.342   1.215   1.933
  290SOL     OW  887   0.297   0.035   2.033
  290SOL    HW1  888   0.346   0.119   2.012
  290SOL    HW2  889   0.359  -0.030   2.078
  291SOL     OW  890   0.935   0.236   2.342
  291SOL    HW1  891   0.887   0.277   2.264
  291SOL    HW2  892   1.034   0.234   2.323
  292SOL     OW  893   1.076   0.683   3.326
  292SOL    HW1  894   0.996   0.622   3.329
  292SOL    HW2  895   1.157   0.630   3.302
  293SOL     OW  896   1.227   1.570   2.655
  293SOL    HW1  897   1.248   1.644   2.590
  293SOL    HW2  898   1.295   1.570   2.728
  294SOL     OW  899   0.459   1.152   2.603
  294SOL    HW1  900   0.388   1.125   2.668
  294SOL    HW2  901   0.433   1.124   2.510
  295SOL     OW  902   1.271   1.797   2.453
  295SOL    HW1  903   1.315   1.861   2.389
  295SOL    HW2  904   1.221   1.849   2.523
  296SOL     OW  905   1.032   0.549   1.878
  296SOL    HW1  906   0.991   0.631   1.839
  296SOL    HW2  907   1.096   0.575   1.951
  297SOL     OW  908   0.078   0.556   3.248
  297SOL    HW1  909   0.170   0.555   3.207
  297SOL    HW2  910   0.072   0.630   3.315
  298SOL     OW  911   0.561   0.222   3.009
  298SOL    HW1  912   0.599   0.138   3.046
  298SOL    HW2  913   0.473   0.241   3.053
  299SOL     OW  914   0.866   0.454   2.504
  299SOL    HW1  915   0.834   0.526   2.442
  299SOL    HW2  916   0.890   0.373   2.451
  300SOL     OW  917   1.017   0.039   2.615
  300SOL    HW1  918   0.945   0.044   2.546
  300SOL    HW2  919   0.993  -0.030   2.684
  301SOL     OW  920   1.429   1.173   2.729
  301SOL    HW1  921   1.374   1.089   2.722
  301SOL    HW2  922   1.455   1.202   2.637
  302SOL     OW  923   1.466   0.590   2.854
  302SOL    HW1  924   1.436   0.495   2.861
  302SOL    HW2  925   1.539   0.606   2.920
  303SOL     OW  926   1.857   0.833   2.239
  303SOL    HW1  927   1.899   0.769   2.303
  303SOL    HW2  928   1.819   0.782   2.161
  304SOL     OW  929   0.488   1.385   2.036
  304SOL    HW1  930   0.401   1.370   2.083
  304SOL    HW2  931   0.471   1.411   1.941
  305SOL     OW  932   1.664   1.280   2.519
  305SOL    HW1  933   1.763   1.288   2.533
  305SOL    HW2  934   1.619   1.364   2.550
  306SOL     OW  935   1.390   0.575   1.940
  306SOL    HW1  936   1.336   0.554   2.021
  306SOL    HW2  937   1.481   0.534   1.949
  307SOL     OW  938   0.527   0.256   2.190
  307SOL    HW1  939   0.554   0.197   2.115
  307SOL    HW2  940   0.527   0.351   2.159
  308SOL     OW  941   1.754   1.223   3.450
  308SOL    HW1  942   1.845   1.184   3.437
  308SOL    HW2  943   1.762   1.319   3.474
  309SOL     OW  944   1.064   1.347   3.202
  309SOL    HW1  945   0.984   1.324   3.257
  309SOL    HW2  946   1.147   1.321   3.251
  310SOL     OW  947   1.592   1.629   3.487
  310SOL    HW1  948   1.619   1.663   3.397
  310SOL    HW2  949   1.671   1.591   3.533
  311SOL     OW  950   1.111   1.195   2.962
  311SOL    HW1  951   1.071   1.239   3.043
  311SOL    HW2  952   1.070   1.232   2.879
  312SOL     OW  953   1.638   1.099   2.941
  312SOL    HW1  954   1.643   1.180   3.000
  312SOL    HW2  955   1.552   1.101   2.890
  313SOL     OW  956   0.915   0.089   3.264
  313SOL    HW1  957   0.940   0.069   3.169
  313SOL    HW2  958   0.987   0.145   3.306
  314SOL     OW  959   0.980   1.116   3.581
  314SOL    HW1  960   0.881   1.122   3.591
  314SOL    HW2  961   1.003   1.036   3.525
  315SOL     OW  962   0.705   1.050   2.230
  315SOL    HW1  963   0.691   1.057   2.329
  315SOL    HW2  964   0.789   0.999   2.212
  316SOL     OW  965   0.410   0.813   3.113
  316SOL    HW1  966   0.496   0.825   3.163
  316SOL    HW2  967   0.368   0.726   3.140
  317SOL     OW  968   1.274   0.386   3.124
  317SOL    HW1  969   1.295   0.460   3.188
  317SOL    HW2  970   1.185   0.403   3.081
  318SOL     OW  971   0.064   1.564   3.193
  318SOL    HW1  972   0.018   1.646   3.159
  318SOL    HW2  973   0.162   1.583   3.202
  319SOL     OW  974   0.367   1.100   2.363
  319SOL    HW1  975   0.360   1.183   2.307
  319SOL    HW2  976   0.371   1.020   2.303
  320SOL     OW  977   0.566   0.537   2.727
  320SOL    HW1  978   0.578   0.603   2.653
  320SOL    HW2  979   0.612   0.571   2.810
  321SOL     OW  980   1.252   1.348   2.250
  321SOL    HW1  981   1.302   1.425   2.290
  321SOL    HW2  982   1.157   1.350   2.282
  322SOL     OW  983   1.272   1.445   3.004
  322SOL    HW1  984   1.319   1.458   3.091
  322SOL    HW2  985   1.206   1.371   3.013
  323SOL     OW  986   1.582   0.639   2.334
  323SOL    HW1  987   1.551   0.700   2.407
  323SOL    HW2  988   1.632   0.691   2.265
  324SOL     OW  989   0.354   1.510   3.191
  324SOL    HW1  990   0.333   1.466   3.104
  324SOL    HW2  991   0.451   1.536   3.194
  325SOL     OW  992   0.402   0.751   3.460
  325SOL    HW1  993   0.470   0.806   3.413
  325SOL    HW2  994   0.442   0.663   3.487
  326SOL     OW  995   1.587   0.779   3.532
  326SOL    HW1  996   1.495   0.817   3.527
  326SOL    HW2  997   1.647   0.826   3.467
  327SOL     OW  998   1.013   0.105   3.632
  327SOL    HW1  999   1.019   0.190   3.580
  327SOL    HW2 1000   1.045   0.029   3.575
  328SOL     OW 1001   0.504   0.050   3.602
  328SOL    HW1 1002   0.462  -0.007   3.532
  328SOL    HW2 1003   0.438   0.119   3.634
  329SOL     OW 1004   0.573   0.870   2.891
  329SOL    HW1 1005   0.617   0.959   2.882
  329SOL    HW2 1006   0.510   0.870   2.968
  330SOL     OW 1007   1.360   0.862   2.907
  330SOL    HW1 1008   1.285   0.862   2.841
  330SOL    HW2 1009   1.397   0.770   2.916
  331SOL     OW 1010   1.209   0.525   2.137
  331SOL    HW1 1011   1.222   0.441   2.191
  331SOL    HW2 1012   1.180   0.599   2.197
  332SOL     OW 1013   0.307   0.213   3.093
  332SOL    HW1 1014   0.284   0.250   3.183
  332SOL    HW2 1015   0.277   0.118   3.087
  333SOL     OW 1016   0.037   1.310   3.144
  333SOL    HW1 1017   0.090   1.261   3.212
  333SOL    HW2 1018   0.059   1.408   3.149
  334SOL     OW 1019   0.732   0.634   2.926
  334SOL    HW1 1020   0.791   0.608   2.850
  334SOL    HW2 1021   0.704   0.730   2.915
  335SOL     OW 1022   1.728   0.935   3.716
  335SOL    HW1 1023   1.682   0.928   3.627
  335SOL    HW2 1024   1.666   0.979   3.782
  336SOL     OW 1025   0.307   0.063   2.480
  336SOL    HW1 1026   0.296   0.157   2.513
  336SOL    HW2 1027   0.302   0.000   2.557
  337SOL     OW 1028   1.622   0.367   2.236
  337SOL    HW1 1029   1.624   0.291   2.300
  337SOL    HW2 1030   1.574   0.444   2.276
  338SOL     OW 1031   1.023   0.766   2.828
  338SOL    HW1 1032   1.038   0.787   2.924
  338SOL    HW2 1033   0.993   0.671   2.819
  339SOL     OW 1034   0.980   1.573   3.562
  339SOL    HW1 1035   0.960   1.617   3.474
  339SOL    HW2 1036   1.019   1.482   3.546
  340SOL     OW 1037   1.859   1.518   3.467
  340SOL    HW1 1038   1.873   1.545   3.372
  340SOL    HW2 1039   1.942   1.540   3.520
  341SOL     OW 1040   0.350   0.898   3.666
  341SOL    HW1 1041   0.426   0.942   3.714
  341SOL    HW2 1042   0.385   0.851   3.584
  342SOL     OW 1043   1.540   0.274   1.987
  342SOL    HW1 1044   1.479   0.199   2.010
  342SOL    HW2 1045   1.562   0.326   2.070
  343SOL     OW 1046   1.303   0.838   1.904
  343SOL    HW1 1047   1.337   0.745   1.919
  343SOL    HW2 1048   1.321   0.865   1.809
  344SOL     OW 1049   1.068   1.333   2.711
  344SOL    HW1 1050   1.075   1.249   2.656
  344SOL    HW2 1051   1.130   1.402   2.675
  345SOL     OW 1052   0.319   0.810   2.811
  345SOL    HW1 1053   0.412   0.846   2.816
  345SOL    HW2 1054   0.313   0.725   2.863
  346SOL     OW 1055   0.339   0.509   2.868
  346SOL    HW1 1056   0.287   0.426   2.851
  346SOL    HW2 1057   0.416   0.514   2.804
  347SOL     OW 1058   1.138   0.380   3.540
  347SOL    HW1 1059   1.093   0.443   3.604
  347SOL    HW2 1060   1.231   0.411   3.523
  348SOL     OW 1061   1.160   0.207   3.339
  348SOL    HW1 1062   1.160   0.271   3.416
  348SOL    HW2 1063   1.188   0.255   3.256
  349SOL     OW 1064   0.008   1.326   2.062
  349SOL    HW1 1065  -0.085   1.347   2.031
  349SOL    HW2 1066   0.018   1.227   2.075
  350SOL     OW 1067   0.088   1.801   2.789
  350SOL    HW1 1068   0.046   1.715   2.762
  350SOL    HW2 1069   0.182   1.804   2.755
  351SOL     OW 1070   0.504   1.568   2.772
  351SOL    HW1 1071   0.570   1.642   2.781
  351SOL    HW2 1072   0.548   1.489   2.730
  352SOL     OW 1073   1.002   0.796   3.100
  352SOL    HW1 1074   1.043   0.764   3.186
  352SOL    HW2 1075   0.906   0.769   3.097
  353SOL     OW 1076   0.040   0.544   2.976
  353SOL    HW1 1077   0.125   0.511   2.935
  353SOL    HW2 1078   0.053   0.559   3.074
  354SOL     OW 1079   0.189   0.520   3.584
  354SOL    HW1 1080   0.248   0.480   3.514
  354SOL    HW2 1081   0.131   0.591   3.543
  355SOL     OW 1082   1.369   0.950   3.522
  355SOL    HW1 1083   1.408   1.039   3.542
  355SOL    HW2 1084   1.379   0.930   3.425
  356SOL     OW 1085   0.815   0.572   2.187
  356SOL    HW1 1086   0.822   0.483   2.141
  356SOL    HW2 1087   0.721   0.606   2.179
  357SOL     OW 1088   1.657   0.604   3.068
  357SOL    HW1 1089   1.619   0.535   3.130
  357SOL    HW2 1090   1.739   0.568   3.024
  358SOL     OW 1091   0.252   1.564   3.606
  358SOL    HW1 1092   0.222   1.621   3.682
  358SOL    HW2 1093   0.245   1.467   3.632
  359SOL     OW 1094   0.671   0.464   3.131
  359SOL    HW1 1095   0.637   0.375   3.101
  359SOL    HW2 1096   0.697   0.518   3.051
  360SOL     OW 1097   0.930   1.678   3.327
  360SOL    HW1 1098   0.906   1.660   3.232
  360SOL    HW2 1099   0.960   1.772   3.337
  361SOL     OW 1100   0.473   0.500   2.053
  361SOL    HW1 1101   0.534   0.580   2.057
  361SOL    HW2 1102   0.378   0.531   2.060
  362SOL     OW 1103   0.159   1.137   3.328
  362SOL    HW1 1104   0.181   1.076   3.404
  362SOL    HW2 1105   0.169   1.088   3.242
  363SOL     OW 1106   1.347   1.059   3.096
  363SOL    HW1 1107   1.371   0.996   3.022
  363SOL    HW2 1108   1.257   1.099   3.078
  364SOL     OW 1109   1.302   0.855   2.171
  364SOL    HW1 1110   1.216   0.824   2.213
  364SOL    HW2 1111   1.298   0.841   2.072
  365SOL     OW 1112   1.759   1.747   3.016
  365SOL    HW1 1113   1.820   1.777   2.943
  365SOL    HW2 1114   1.721   1.658   2.994
  366SOL     OW 1115   1.252   1.731   2.990
  366SOL    HW1 1116   1.336   1.736   2.936
  366SOL    HW2 1117   1.229   1.635   3.008
  367SOL     OW 1118   0.083   1.258   2.884
  367SOL    HW1 1119   0.078   1.257   2.984
  367SOL    HW2 1120   0.000   1.217   2.846
  368SOL     OW 1121   0.688   1.662   3.578
  368SOL    HW1 1122   0.632   1.743   3.587
  368SOL    HW2 1123   0.740   1.666   3.492
  369SOL     OW 1124   1.726   0.135   2.385
  369SOL    HW1 1125   1.799   0.118   2.318
  369SOL    HW2 1126   1.695   0.048   2.423
  370SOL     OW 1127   1.388   1.573   2.339
  370SOL    HW1 1128   1.455   1.585   2.265
  370SOL    HW2 1129   1.348   1.662   2.362
  371SOL     OW 1130   0.130   1.794   3.713
  371SOL    HW1 1131   0.089   1.720   3.766
  371SOL    HW2 1132   0.194   1.845   3.771
  372SOL     OW 1133   1.280   0.927   2.534
  372SOL    HW1 1134   1.340   0.846   2.536
  372SOL    HW2 1135   1.320   0.996   2.474
  373SOL     OW 1136   0.830   1.273   3.284
  373SOL    HW1 1137   0.825   1.306   3.379
  373SOL    HW2 1138   0.744   1.292   3.238
  374SOL     OW 1139   0.672   1.616   2.016
  374SOL    HW1 1140   0.681   1.626   1.917
  374SOL    HW2 1141   0.632   1.527   2.037
  375SOL     OW 1142   1.650   1.720   3.256
  375SOL    HW1 1143   1.703   1.730   3.172
  375SOL    HW2 1144   1.623   1.810   3.290
  376SOL     OW 1145   1.841   0.175   2.825
  376SOL    HW1 1146   1.880   0.090   2.789
  376SOL    HW2 1147   1.743   0.177   2.806
  377SOL     OW 1148   0.263   0.326   2.582
  377SOL    HW1 1149   0.184   0.377   2.548
  377SOL    HW2 1150   0.254   0.311   2.680
  378SOL     OW 1151   1.194   1.612   1.893
  378SOL    HW1 1152   1.200   1.519   1.930
  378SOL    HW2 1153   1.135   1.612   1.813
  379SOL     OW 1154   0.822   1.002   3.234
  379SOL    HW1 1155   0.862   1.001   3.142
  379SOL    HW2 1156   0.832   1.094   3.274
  380SOL     OW 1157   0.916   0.910   2.153
  380SOL    HW1 1158   0.979   0.948   2.085
  380SOL    HW2 1159   0.956   0.827   2.192
  381SOL     OW 1160   1.504   1.607   1.906
  381SOL    HW1 1161   1.412   1.644   1.913
  381SOL    HW2 1162   1.542   1.627   1.816
  382SOL     OW 1163   0.372   1.288   3.352
  382SOL    HW1 1164   0.359   1.381   3.318
  382SOL    HW2 1165   0.288   1.236   3.339
  383SOL     OW 1166   1.614   1.292   3.151
  383SOL    HW1 1167   1.674   1.295   3.231
  383SOL    HW2 1168   1.539   1.356   3.164
  384SOL     OW 1169   1.039   1.098   2.558
  384SOL    HW1 1170   0.969   1.051   2.612
  384SOL    HW2 1171   1.098   1.030   2.515
  385SOL     OW 1172   1.014   0.236   2.833
  385SOL    HW1 1173   1.006   0.200   2.740
  385SOL    HW2 1174   1.012   0.160   2.898
  386SOL     OW 1175   0.590   1.487   2.353
  386SOL    HW1 1176   0.632   1.429   2.283
  386SOL    HW2 1177   0.546   1.566   2.309
  387SOL     OW 1178   1.709   0.385   3.243
  387SOL    HW1 1179   1.782   0.454   3.247
  387SOL    HW2 1180   1.737   0.310   3.184
  388SOL     OW 1181   0.255   1.348   2.152
  388SOL    HW1 1182   0.159   1.349   2.125
  388SOL    HW2 1183   0.267   1.401   2.236
  389SOL     OW 1184   0.105   1.013   3.588
  389SOL    HW1 1185   0.028   0.980   3.642
  389SOL    HW2 1186   0.190   0.983   3.630
  390SOL     OW 1187   0.672   0.203   3.351
  390SOL    HW1 1188   0.762   0.187   3.311
  390SOL    HW2 1189   0.680   0.208   3.450
  391SOL     OW 1190   0.075   0.345   1.895
  391SOL    HW1 1191  -0.017   0.317   1.866
  391SOL    HW2 1192   0.106   0.422   1.839
  392SOL     OW 1193   1.440   0.856   3.260
  392SOL    HW1 1194   1.383   0.908   3.197
  392SOL    HW2 1195   1.536   0.868   3.236
  393SOL     OW 1196   0.072   0.166   2.180
  393SOL    HW1 1197   0.055   0.249   2.126
  393SOL    HW2 1198   0.162   0.129   2.158
  394SOL     OW 1199   1.183   1.335   1.981
  394SOL    HW1 1200   1.084   1.324   1.983
  394SOL    HW2 1201   1.217   1.350   2.074
  395SOL     OW 1202   0.613   0.842   3.293
  395SOL    HW1 1203   0.669   0.923   3.276
  395SOL    HW2 1204   0.672   0.762   3.296
  396SOL     OW 1205   1.493   1.767   2.821
  396SOL    HW1 1206   1.526   1.831   2.752
  396SOL    HW2 1207   1.559   1.761   2.896
  397SOL     OW 1208   0.716   0.565   3.570
  397SOL    HW1 1209   0.735   0.630   3.644
  397SOL    HW2 1210   0.776   0.485   3.579
  398SOL     OW 1211   1.450   1.220   3.495
  398SOL    HW1 1212   1.441   1.210   3.594
  398SOL    HW2 1213   1.546   1.213   3.469
  399SOL     OW 1214   0.390   1.741   3.422
  399SOL    HW1 1215   0.299   1.782   3.420
  399SOL    HW2 1216   0.383   1.647   3.454
  400SOL     OW 1217   1.674   0.883   3.116
  400SOL    HW1 1218   1.647   0.794   3.079
  400SOL    HW2 1219   1.675   0.951   3.043
  401SOL     OW 1220   1.225   0.325   2.311
  401SOL    HW1 1221   1.290   0.251   2.300
  401SOL    HW2 1222   1.245   0.375   2.395
  402SOL     OW 1223   0.594   0.745   2.514
  402SOL    HW1 1224   0.644   0.830   2.495
  402SOL    HW2 1225   0.506   0.747   2.466
  403SOL     OW 1226   1.777   0.342   3.504
  403SOL    HW1 1227   1.760   0.373   3.410
  403SOL    HW2 1228   1.693   0.305   3.542
  404SOL     OW 1229   1.730   0.934   3.379
  404SOL    HW1 1230   1.768   1.025   3.394
  404SOL    HW2 1231   1.722   0.917   3.280
  405SOL     OW 1232   0.859   1.374   1.878
  405SOL    HW1 1233   0.813   1.389   1.966
  405SOL    HW2 1234   0.903   1.459   1.848
  406SOL     OW 1235   0.661   1.790   2.815
  406SOL    HW1 1236   0.615   1.878   2.802
  406SOL    HW2 1237   0.760   1.802   2.808
  407SOL     OW 1238   0.859   0.956   2.723
  407SOL    HW1 1239   0.913   0.887   2.771
  407SOL    HW2 1240   0.827   1.025   2.789
  408SOL     OW 1241   1.083   0.984   1.949
  408SOL    HW1 1242   1.060   1.037   1.867
  408SOL    HW2 1243   1.164   0.928   1.930
  409SOL     OW 1244   1.861   1.569   2.713
  409SOL    HW1 1245   1.790   1.557   2.643
  409SOL    HW2 1246   1.862   1.490   2.773
  410SOL     OW 1247   0.221   1.314   3.706
  410SOL    HW1 1248   0.156   1.241   3.685
  410SOL    HW2 1249   0.225   1.328   3.804
  411SOL     OW 1250   0.079   1.240   2.515
  411SOL    HW1 1251   0.078   1.193   2.603
  411SOL    HW2 1252   0.161   1.212   2.464
  412SOL     OW 1253   0.672   1.391   3.486
  412SOL    HW1 1254   0.594   1.341   3.524
  412SOL    HW2 1255   0.669   1.486   3.517
  413SOL     OW 1256   1.824   0.192   3.089
  413SOL    HW1 1257   1.820   0.102   3.133
  413SOL    HW2 1258   1.827   0.181   2.990
  414SOL     OW 1259   0.428   0.424   2.382
  414SOL    HW1 1260   0.458   0.352   2.320
  414SOL    HW2 1261   0.389   0.384   2.465
  415SOL     OW 1262   1.705   1.487   2.966
  415SOL    HW1 1263   1.612   1.462   2.939
  415SOL    HW2 1264   1.731   1.437   3.048
  416SOL     OW 1265   0.317   0.547   3.142
  416SOL    HW1 1266   0.355   0.488   3.214
  416SOL    HW2 1267   0.357   0.521   3.054
  417SOL     OW 1268   0.812   1.586   2.549
  417SOL    HW1 1269   0.844   1.596   2.455
  417SOL    HW2 1270   0.733   1.524   2.551
  418SOL     OW 1271   1.424   0.214   2.974
  418SOL    HW1 1272   1.476   0.149   3.029
  418SOL    HW2 1273   1.375   0.277   3.035
  419SOL     OW 1274   1.001   0.034   3.016
  419SOL    HW1 1275   0.938  -0.038   2.985
  419SOL    HW2 1276   1.094  -0.002   3.016
  420SOL     OW 1277   0.770   1.330   2.163
  420SOL    HW1 1278   0.724   1.243   2.180
  420SOL    HW2 1279   0.861   1.327   2.204
  421SOL     OW 1280   0.618   1.567   3.146
  421SOL    HW1 1281   0.613   1.649   3.203
  421SOL    HW2 1282   0.707   1.564   3.101
  422SOL     OW 1283   1.352   0.052   2.030
  422SOL    HW1 1284   1.387   0.011   1.946
  422SOL    HW2 1285   1.262   0.014   2.050
  423SOL     OW 1286   1.300   0.453   2.553
  423SOL    HW1 1287   1.241   0.533   2.557
  423SOL    HW2 1288   1.315   0.418   2.646
  424SOL     OW 1289   1.593   0.221   2.744
  424SOL    HW1 1290   1.509   0.220   2.798
  424SOL    HW2 1291   1.595   0.304   2.688
  425SOL     OW 1292   0.039   1.077   2.162
  425SOL    HW1 1293   0.138   1.066   2.153
  425SOL    HW2 1294  -0.001   0.991   2.194
  426SOL     OW 1295   0.875   1.646   2.199
  426SOL    HW1 1296   0.798   1.611   2.145
  426SOL    HW2 1297   0.843   1.717   2.261
  427SOL     OW 1298   0.230   0.628   3.837
  427SOL    HW1 1299   0.137   0.626   3.874
  427SOL    HW2 1300   0.231   0.589   3.745
  428SOL     OW 1301   0.019   0.368   4.371
  428SOL    HW1 1302  -0.063   0.411   4.410
  428SOL    HW2 1303  -0.009   0.295   4.308
  429SOL     OW 1304   1.555   1.511   4.427
  429SOL    HW1 1305   1.498   1.495   4.508
  429SOL    HW2 1306   1.496   1.521   4.347
  430SOL     OW 1307   1.135   0.703   4.441
  430SOL    HW1 1308   1.192   0.781   4.416
  430SOL    HW2 1309   1.075   0.729   4.517
  431SOL     OW 1310   1.755   0.607   3.955
  431SOL    HW1 1311   1.743   0.594   3.856
  431SOL    HW2 1312   1.725   0.526   4.004
  432SOL     OW 1313   0.685   1.012   4.389
  432SOL    HW1 1314   0.754   0.996   4.459
  432SOL    HW2 1315   0.612   1.069   4.427
  433SOL     OW 1316   1.603   0.447   4.461
  433SOL    HW1 1317   1.529   0.493   4.411
  433SOL    HW2 1318   1.654   0.515   4.514
  434SOL     OW 1319   0.231   1.713   4.207
  434SOL    HW1 1320   0.265   1.790   4.261
  434SOL    HW2 1321   0.275   1.713   4.117
  435SOL     OW 1322   0.230   1.434   4.262
  435SOL    HW1 1323   0.204   1.530   4.262
  435SOL    HW2 1324   0.159   1.380   4.307
  436SOL     OW 1325   0.240   1.091   4.610
  436SOL    HW1 1326   0.254   1.007   4.662
  436SOL    HW2 1327   0.185   1.155   4.665
  437SOL     OW 1328   0.606   0.964   3.847
  437SOL    HW1 1329   0.613   1.048   3.793
  437SOL    HW2 1330   0.652   0.977   3.935
  438SOL     OW 1331   0.122   0.643   4.287
  438SOL    HW1 1332   0.077   0.555   4.304
  438SOL    HW2 1333   0.121   0.697   4.371
  439SOL     OW 1334   1.842   1.767   4.083
  439SOL    HW1 1335   1.896   1.738   4.163
  439SOL    HW2 1336   1.872   1.857   4.054
  440SOL     OW 1337   0.027   1.596   3.841
  440SOL    HW1 1338   0.008   1.500   3.862
  440SOL    HW2 1339  -0.006   1.654   3.916
  441SOL     OW 1340   1.689   0.922   4.336
  441SOL    HW1 1341   1.784   0.893   4.344
  441SOL    HW2 1342   1.681   0.987   4.261
  442SOL     OW 1343   1.641   1.108   4.156
  442SOL    HW1 1344   1.727   1.110   4.104
  442SOL    HW2 1345   1.655   1.155   4.244
  443SOL     OW 1346   0.613   1.365   4.450
  443SOL    HW1 1347   0.564   1.278   4.459
  443SOL    HW2 1348   0.590   1.408   4.363
  444SOL     OW 1349   0.809   0.004   4.226
  444SOL    HW1 1350   0.849   0.095   4.217
  444SOL    HW2 1351   0.709   0.012   4.232
  445SOL     OW 1352   1.525   0.999   3.914
  445SOL    HW1 1353   1.462   0.923   3.927
  445SOL    HW2 1354   1.573   1.017   4.000
  446SOL     OW 1355   1.466   1.417   4.677
  446SOL    HW1 1356   1.407   1.423   4.757
  446SOL    HW2 1357   1.451   1.329   4.631
  447SOL     OW 1358   1.667   1.714   4.296
  447SOL    HW1 1359   1.626   1.691   4.208
  447SOL    HW2 1360   1.649   1.640   4.361
  448SOL     OW 1361   0.598   0.729   3.994
  448SOL    HW1 1362   0.622   0.798   3.926
  448SOL    HW2 1363   0.520   0.762   4.048
  449SOL     OW 1364   1.281   0.345   4.668
  449SOL    HW1 1365   1.195   0.295   4.655
  449SOL    HW2 1366   1.343   0.291   4.724
  450SOL     OW 1367   1.576   1.662   4.031
  450SOL    HW1 1368   1.665   1.708   4.034
  450SOL    HW2 1369   1.555   1.638   3.936
  451SOL     OW 1370   1.041   0.701   4.153
  451SOL    HW1 1371   1.067   0.697   4.249
  451SOL    HW2 1372   0.956   0.650   4.139
  452SOL     OW 1373   0.076   0.811   4.513
  452SOL    HW1 1374   0.175   0.799   4.522
  452SOL    HW2 1375   0.052   0.906   4.534
  453SOL     OW 1376   0.865   0.348   3.919
  453SOL    HW1 1377   0.924   0.411   3.870
  453SOL    HW2 1378   0.884   0.254   3.890
  454SOL     OW 1379   1.362   1.144   4.269
  454SOL    HW1 1380   1.445   1.115   4.221
  454SOL    HW2 1381   1.313   1.211   4.213
  455SOL     OW 1382   1.008   1.456   4.201
  455SOL    HW1 1383   0.962   1.528   4.149
  455SOL    HW2 1384   1.004   1.476   4.299
  456SOL     OW 1385   0.351   1.801   4.577
  456SOL    HW1 1386   0.401   1.715   4.583
  456SOL    HW2 1387   0.416   1.878   4.574
  457SOL     OW 1388   1.795   1.066   4.597
  457SOL    HW1 1389   1.733   1.051   4.521
  457SOL    HW2 1390   1.743   1.077   4.682
  458SOL     OW 1391   0.321   0.943   3.966
  458SOL    HW1 1392   0.403   0.982   3.924
  458SOL    HW2 1393   0.294   0.861   3.917
  459SOL     OW 1394   1.458   0.735   4.452
  459SOL    HW1 1395   1.453   0.670   4.527
  459SOL    HW2 1396   1.538   0.794   4.465
  460SOL     OW 1397   1.111   1.776   3.961
  460SOL    HW1 1398   1.051   1.714   4.011
  460SOL    HW2 1399   1.142   1.732   3.876
  461SOL     OW 1400   1.632   1.377   3.805
  461SOL    HW1 1401   1.600   1.471   3.795
  461SOL    HW2 1402   1.556   1.314   3.793
  462SOL     OW 1403   0.464   1.743   4.047
  462SOL    HW1 1404   0.497   1.782   4.133
  462SOL    HW2 1405   0.540   1.736   3.982
  463SOL     OW 1406   1.400   0.107   4.150
  463SOL    HW1 1407   1.376   0.070   4.060
  463SOL    HW2 1408   1.499   0.123   4.154
  464SOL     OW 1409   0.382   0.700   4.204
  464SOL    HW1 1410   0.427   0.610   4.201
  464SOL    HW2 1411   0.288   0.689   4.237
  465SOL     OW 1412   0.614   0.122   3.841
  465SOL    HW1 1413   0.712   0.100   3.848
  465SOL    HW2 1414   0.583   0.105   3.748
  466SOL     OW 1415   0.539   0.064   4.236
  466SOL    HW1 1416   0.458   0.065   4.294
  466SOL    HW2 1417   0.542   0.147   4.181
  467SOL     OW 1418   1.434   1.188   3.765
  467SOL    HW1 1419   1.466   1.112   3.822
  467SOL    HW2 1420   1.342   1.215   3.795
  468SOL     OW 1421   0.297   0.035   3.895
  468SOL    HW1 1422   0.346   0.119   3.874
  468SOL    HW2 1423   0.359  -0.030   3.940
  469SOL     OW 1424   0.935   0.236   4.204
  469SOL    HW1 1425   0.887   0.277   4.126
  469SOL    HW2 1426   1.034   0.234   4.185
  470SOL     OW 1427   1.227   1.570   4.517
  470SOL    HW1 1428   1.248   1.644   4.452
  470SOL    HW2 1429   1.295   1.570   4.590
  471SOL     OW 1430   0.459   1.152   4.465
  471SOL    HW1 1431   0.388   1.125   4.530
  471SOL    HW2 1432   0.433   1.124   4.372
  472SOL     OW 1433   1.271   1.797   4.315
  472SOL    HW1 1434   1.315   1.861   4.251
  472SOL    HW2 1435   1.221   1.849   4.385
  473SOL     OW 1436   1.032   0.549   3.740
  473SOL    HW1 1437   0.991   0.631   3.701
  473SOL    HW2 1438   1.096   0.575   3.813
  474SOL     OW 1439   0.866   0.454   4.366
  474SOL    HW1 1440   0.834   0.526   4.304
  474SOL    HW2 1441   0.890   0.373   4.313
  475SOL     OW 1442   1.017   0.039   4.477
  475SOL    HW1 1443   0.945   0.044   4.408
  475SOL    HW2 1444   0.993  -0.030   4.546
  476SOL     OW 1445   1.857   0.833   4.101
  476SOL    HW1 1446   1.899   0.769   4.165
  476SOL    HW2 1447   1.819   0.782   4.023
  477SOL     OW 1448   0.488   1.385   3.898
  477SOL    HW1 1449   0.401   1.370   3.945
  477SOL    HW2 1450   0.471   1.411   3.803
  478SOL     OW 1451   1.664   1.280   4.381
  478SOL    HW1 1452   1.763   1.288   4.395
  478SOL    HW2 1453   1.619   1.364   4.412
  479SOL     OW 1454   1.390   0.575   3.802
  479SOL    HW1 1455   1.336   0.554   3.883
  479SOL    HW2 1456   1.481   0.534   3.811
  480SOL     OW 1457   0.527   0.256   4.052
  480SOL    HW1 1458   0.554   0.197   3.977
  480SOL    HW2 1459   0.527   0.351   4.021
  481SOL     OW 1460   0.705   1.050   4.092
  481SOL    HW1 1461   0.691   1.057   4.191
  481SOL    HW2 1462   0.789   0.999   4.074
  482SOL     OW 1463   0.367   1.100   4.225
  482SOL    HW1 1464   0.360   1.183   4.169
  482SOL    HW2 1465   0.371   1.020   4.165
  483SOL     OW 1466   0.566   0.537   4.589
  483SOL    HW1 1467   0.578   0.603   4.515
  483SOL    HW2 1468   0.612   0.571   4.672
  484SOL     OW 1469   1.252   1.348   4.112
  484SOL    HW1 1470   1.302   1.425   4.152
  484SOL    HW2 1471   1.157   1.350   4.144
  485SOL     OW 1472   1.582   0.639   4.196
  485SOL    HW1 1473   1.551   0.700   4.269
  485SOL    HW2 1474   1.632   0.691   4.127
  486SOL     OW 1475   1.209   0.525   3.999
  486SOL    HW1 1476   1.222   0.441   4.053
  486SOL    HW2 1477   1.180   0.599   4.059
  487SOL     OW 1478   0.732   0.634   4.788
  487SOL    HW1 1479   0.791   0.608   4.712
  487SOL    HW2 1480   0.704   0.730   4.777
  488SOL     OW 1481   0.307   0.063   4.342
  488SOL    HW1 1482   0.296   0.157   4.375
  488SOL    HW2 1483   0.302   0.000   4.419
  489SOL     OW 1484   1.622   0.367   4.098
  489SOL    HW1 1485   1.624   0.291   4.162
  489SOL    HW2 1486   1.574   0.444   4.138
  490SOL     OW 1487   1.540   0.274   3.849
  490SOL    HW1 1488   1.479   0.199   3.872
  490SOL    HW2 1489   1.562   0.326   3.932
  491SOL     OW 1490   1.303   0.838   3.766
  491SOL    HW1 1491   1.337   0.745   3.781
  491SOL    HW2 1492   1.321   0.865   3.671
  492SOL     OW 1493   1.068   1.333   4.573
  492SOL    HW1 1494   1.075   1.249   4.518
  492SOL    HW2 1495   1.130   1.402   4.537
  493SOL     OW 1496   0.319   0.810   4.673
  493SOL    HW1 1497   0.412   0.846   4.678
  493SOL    HW2 1498   0.313   0.725   4.725
  494SOL     OW 1499   0.008   1.326   3.924
  494SOL    HW1 1500  -0.085   1.347   3.893
  494SOL    HW2 1501   0.018   1.227   3.937
  495SOL     OW 1502   0.088   1.801   4.651
  495SOL    HW1 1503   0.046   1.715   4.624
  495SOL    HW2 1504   0.182   1.804   4.617
  496SOL     OW 1505   0.504   1.568   4.634
  496SOL    HW1 1506   0.570   1.642   4.643
  496SOL    HW2 1507   0.548   1.489   4.592
  497SOL     OW 1508   0.815   0.572   4.049
  497SOL    HW1 1509   0.822   0.483   4.003
  497SOL    HW2 1510   0.721   0.606   4.041
  498SOL     OW 1511   0.473   0.500   3.915
  498SOL    HW1 1512   0.534   0.580   3.919
  498SOL    HW2 1513   0.378   0.531   3.922
  499SOL     OW 1514   1.302   0.855   4.033
  499SOL    HW1 1515   1.216   0.824   4.075
  499SOL    HW2 1516   1.298   0.841   3.934
  500SOL     OW 1517   1.759   1.747   4.878
  500SOL    HW1 1518   1.820   1.777   4.805
  500SOL    HW2 1519   1.721   1.658   4.856
  501SOL     OW 1520   1.726   0.135   4.247
  501SOL    HW1 1521   1.799   0.118   4.180
  501SOL    HW2 1522   1.695   0.048   4.285
  502SOL     OW 1523   1.388   1.573   4.201
  502SOL    HW1 1524   1.455   1.585   4.127
  502SOL    HW2 1525   1.348   1.662   4.224
  503SOL     OW 1526   1.280   0.927   4.396
  503SOL    HW1 1527   1.340   0.846   4.398
  503SOL    HW2 1528   1.320   0.996   4.336
  504SOL     OW 1529   0.672   1.616   3.878
  504SOL    HW1 1530   0.681   1.626   3.779
  504SOL    HW2 1531   0.632   1.527   3.899
  505SOL     OW 1532   1.841   0.175   4.687
  505SOL    HW1 1533   1.880   0.090   4.651
  505SOL    HW2 1534   1.743   0.177   4.668
  506SOL     OW 1535   0.263   0.326   4.444
  506SOL    HW1 1536   0.184   0.377   4.410
  506SOL    HW2 1537   0.254   0.311   4.542
  507SOL     OW 1538   1.194   1.612   3.755
  507SOL    HW1 1539   1.200   1.519   3.792
  507SOL    HW2 1540   1.135   1.612   3.675
  508SOL     OW 1541   0.916   0.910   4.015
  508SOL    HW1 1542   0.979   0.948   3.947
  508SOL    HW2 1543   0.956   0.827   4.054
  509SOL     OW 1544   1.504   1.607   3.768
  509SOL    HW1 1545   1.412   1.644   3.775
  509SOL    HW2 1546   1.542   1.627   3.678
  510SOL     OW 1547   1.039   1.098   4.420
  510SOL    HW1 1548   0.969   1.051   4.474
  510SOL    HW2 1549   1.098   1.030   4.377
  511SOL     OW 1550   0.590   1.487   4.215
  511SOL    HW1 1551   0.632   1.429   4.145
  511SOL    HW2 1552   0.546   1.566   4.171
  512SOL     OW 1553   0.255   1.348   4.014
  512SOL    HW1 1554   0.159   1.349   3.987
  512SOL    HW2 1555   0.267   1.401   4.098
  513SOL     OW 1556   0.075   0.345   3.757
  513SOL    HW1 1557  -0.017   0.317   3.728
  513SOL    HW2 1558   0.106   0.422   3.701
  514SOL     OW 1559   0.072   0.166   4.042
  514SOL    HW1 1560   0.055   0.249   3.988
  514SOL    HW2 1561   0.162   0.129   4.020
  515SOL     OW 1562   1.183   1.335   3.843
  515SOL    HW1 1563   1.084   1.324   3.845
  515SOL    HW2 1564   1.217   1.350   3.936
  516SOL     OW 1565   1.674   0.883   4.978
  516SOL    HW1 1566   1.647   0.794   4.941
  516SOL    HW2 1567   1.675   0.951   4.905
  517SOL     OW 1568   1.225   0.325   4.173
  517SOL    HW1 1569   1.290   0.251   4.162
  517SOL    HW2 1570   1.245   0.375   4.257
  518SOL     OW 1571   0.594   0.745   4.376
  518SOL    HW1 1572   0.644   0.830   4.357
  518SOL    HW2 1573   0.506   0.747   4.328
  519SOL     OW 1574   0.859   1.374   3.740
  519SOL    HW1 1575   0.813   1.389   3.828
  519SOL    HW2 1576   0.903   1.459   3.710
  520SOL     OW 1577   0.661   1.790   4.677
  520SOL    HW1 1578   0.615   1.878   4.664
  520SOL    HW2 1579   0.760   1.802   4.670
  521SOL     OW 1580   0.859   0.956   4.585
  521SOL    HW1 1581   0.913   0.887   4.633
  521SOL    HW2 1582   0.827   1.025   4.651
  522SOL     OW 1583   1.083   0.984   3.811
  522SOL    HW1 1584   1.060   1.037   3.729
  522SOL    HW2 1585   1.164   0.928   3.792
  523SOL     OW 1586   1.861   1.569   4.575
  523SOL    HW1 1587   1.790   1.557   4.505
  523SOL    HW2 1588   1.862   1.490   4.635
  524SOL     OW 1589   0.079   1.240   4.377
  524SOL    HW1 1590   0.078   1.193   4.465
  524SOL    HW2 1591   0.161   1.212   4.326
  525SOL     OW 1592   1.824   0.192   4.951
  525SOL    HW1 1593   1.820   0.102   4.995
  525SOL    HW2 1594   1.827   0.181   4.852
  526SOL     OW 1595   0.428   0.424   4.244
  526SOL    HW1 1596   0.458   0.352   4.182
  526SOL    HW2 1597   0.389   0.384   4.327
  527SOL     OW 1598   0.812   1.586   4.411
  527SOL    HW1 1599   0.844   1.596   4.317
  527SOL    HW2 1600   0.733   1.524   4.413
  528SOL     OW 1601   0.770   1.330   4.025
  528SOL    HW1 1602   0.724   1.243   4.042
  528SOL    HW2 1603   0.861   1.327   4.066
  529SOL     OW 1604   1.352   0.052   3.892
  529SOL    HW1 1605   1.387   0.011   3.808
  529SOL    HW2 1606   1.262   0.014   3.912
  530SOL     OW 1607   1.300   0.453   4.415
  530SOL    HW1 1608   1.241   0.533   4.419
  530SOL    HW2 1609   1.315   0.418   4.508
  531SOL     OW 1610   1.593   0.221   4.606
  531SOL    HW1 1611   1.509   0.220   4.660
  531SOL    HW2 1612   1.595   0.304   4.550
  532SOL     OW 1613   0.039   1.077   4.024
  532SOL    HW1 1614   0.138   1.066   4.015
  532SOL    HW2 1615  -0.001   0.991   4.056
  533SOL     OW 1616   0.875   1.646   4.061
  533SOL    HW1 1617   0.798   1.611   4.007
  533SOL    HW2 1618   0.843   1.717   4.123
  534SOL     OW 1619   0.230   2.490   0.113
  534SOL    HW1 1620   0.137   2.488   0.150
  534SOL    HW2 1621   0.231   2.451   0.021
  535SOL     OW 1622   0.225   2.137   0.996
  535SOL    HW1 1623   0.260   2.120   1.088
  535SOL    HW2 1624   0.137   2.092   0.984
  536SOL     OW 1625   0.019   2.230   0.647
  536SOL    HW1 1626  -0.063   2.273   0.686
  536SOL    HW2 1627  -0.009   2.157   0.584
  537SOL     OW 1628   0.569   3.137   1.165
  537SOL    HW1 1629   0.476   3.130   1.128
  537SOL    HW2 1630   0.580   3.226   1.209
  538SOL     OW 1631   1.555   3.373   0.703
  538SOL    HW1 1632   1.498   3.357   0.784
  538SOL    HW2 1633   1.496   3.383   0.623
  539SOL     OW 1634   1.135   2.565   0.717
  539SOL    HW1 1635   1.192   2.643   0.692
  539SOL    HW2 1636   1.075   2.591   0.793
  540SOL     OW 1637   1.755   2.469   0.231
  540SOL    HW1 1638   1.743   2.456   0.132
  540SOL    HW2 1639   1.725   2.388   0.280
  541SOL     OW 1640   0.768   3.006   1.023
  541SOL    HW1 1641   0.690   3.023   1.083
  541SOL    HW2 1642   0.802   3.093   0.987
  542SOL     OW 1643   0.850   2.660   1.823
  542SOL    HW1 1644   0.846   2.736   1.888
  542SOL    HW2 1645   0.872   2.696   1.732
  543SOL     OW 1646   0.685   2.874   0.665
  543SOL    HW1 1647   0.754   2.858   0.735
  543SOL    HW2 1648   0.612   2.931   0.703
  544SOL     OW 1649   0.686   3.023   1.803
  544SOL    HW1 1650   0.746   3.102   1.817
  544SOL    HW2 1651   0.600   3.054   1.762
  545SOL     OW 1652   0.335   3.297   1.061
  545SOL    HW1 1653   0.257   3.266   1.008
  545SOL    HW2 1654   0.393   3.355   1.004
  546SOL     OW 1655   1.460   3.367   1.339
  546SOL    HW1 1656   1.484   3.461   1.365
  546SOL    HW2 1657   1.444   3.313   1.421
  547SOL     OW 1658   0.438   2.254   1.499
  547SOL    HW1 1659   0.520   2.198   1.508
  547SOL    HW2 1660   0.357   2.196   1.503
  548SOL     OW 1661   1.603   2.309   0.737
  548SOL    HW1 1662   1.529   2.355   0.687
  548SOL    HW2 1663   1.654   2.377   0.790
  549SOL     OW 1664   0.231   3.575   0.483
  549SOL    HW1 1665   0.265   3.652   0.537
  549SOL    HW2 1666   0.275   3.575   0.393
  550SOL     OW 1667   1.127   3.203   1.690
  550SOL    HW1 1668   1.174   3.203   1.778
  550SOL    HW2 1669   1.079   3.116   1.679
  551SOL     OW 1670   0.230   3.296   0.538
  551SOL    HW1 1671   0.204   3.392   0.538
  551SOL    HW2 1672   0.159   3.242   0.583
  552SOL     OW 1673   0.240   2.953   0.886
  552SOL    HW1 1674   0.254   2.869   0.938
  552SOL    HW2 1675   0.185   3.017   0.941
  553SOL     OW 1676   0.620   3.648   1.439
  553SOL    HW1 1677   0.528   3.631   1.474
  553SOL    HW2 1678   0.648   3.740   1.465
  554SOL     OW 1679   0.606   2.826   0.123
  554SOL    HW1 1680   0.613   2.910   0.069
  554SOL    HW2 1681   0.652   2.839   0.211
  555SOL     OW 1682   1.594   1.976   1.480
  555SOL    HW1 1683   1.576   2.043   1.408
  555SOL    HW2 1684   1.591   2.022   1.569
  556SOL     OW 1685   0.122   2.505   0.563
  556SOL    HW1 1686   0.077   2.417   0.580
  556SOL    HW2 1687   0.121   2.559   0.647
  557SOL     OW 1688   1.842   3.629   0.359
  557SOL    HW1 1689   1.896   3.600   0.439
  557SOL    HW2 1690   1.872   3.719   0.330
  558SOL     OW 1691   0.027   3.458   0.117
  558SOL    HW1 1692   0.008   3.362   0.138
  558SOL    HW2 1693  -0.006   3.516   0.192
  559SOL     OW 1694   1.689   2.784   0.612
  559SOL    HW1 1695   1.784   2.755   0.620
  559SOL    HW2 1696   1.681   2.849   0.537
  560SOL     OW 1697   1.641   2.970   0.432
  560SOL    HW1 1698   1.727   2.972   0.380
  560SOL    HW2 1699   1.655   3.017   0.520
  561SOL     OW 1700   0.113   2.599   1.597
  561SOL    HW1 1701   0.201   2.586   1.642
  561SOL    HW2 1702   0.100   2.696   1.575
  562SOL     OW 1703   0.613   3.227   0.726
  562SOL    HW1 1704   0.564   3.140   0.735
  562SOL    HW2 1705   0.590   3.270   0.639
  563SOL     OW 1706   1.293   3.090   1.423
  563SOL    HW1 1707   1.330   3.017   1.365
  563SOL    HW2 1708   1.345   3.095   1.508
  564SOL     OW 1709   0.809   1.866   0.502
  564SOL    HW1 1710   0.849   1.957   0.493
  564SOL    HW2 1711   0.709   1.874   0.508
  565SOL     OW 1712   0.197   2.838   1.264
  565SOL    HW1 1713   0.286   2.793   1.250
  565SOL    HW2 1714   0.124   2.773   1.245
  566SOL     OW 1715   1.525   2.861   0.190
  566SOL    HW1 1716   1.462   2.785   0.203
  566SOL    HW2 1717   1.573   2.879   0.276
  567SOL     OW 1718   1.187   3.654   1.616
  567SOL    HW1 1719   1.211   3.714   1.540
  567SOL    HW2 1720   1.194   3.559   1.586
  568SOL     OW 1721   0.317   2.113   1.801
  568SOL    HW1 1722   0.388   2.184   1.807
  568SOL    HW2 1723   0.229   2.152   1.829
  569SOL     OW 1724   1.466   3.279   0.953
  569SOL    HW1 1725   1.407   3.285   1.033
  569SOL    HW2 1726   1.451   3.191   0.907
  570SOL     OW 1727   1.667   3.576   0.572
  570SOL    HW1 1728   1.626   3.553   0.484
  570SOL    HW2 1729   1.649   3.502   0.637
  571SOL     OW 1730   0.598   2.591   0.270
  571SOL    HW1 1731   0.622   2.660   0.202
  571SOL    HW2 1732   0.520   2.624   0.324
  572SOL     OW 1733   1.281   2.207   0.944
  572SOL    HW1 1734   1.195   2.157   0.931
  572SOL    HW2 1735   1.343   2.153   1.000
  573SOL     OW 1736   1.576   3.524   0.307
  573SOL    HW1 1737   1.665   3.570   0.310
  573SOL    HW2 1738   1.555   3.500   0.212
  574SOL     OW 1739   0.807   2.467   1.465
  574SOL    HW1 1740   0.760   2.464   1.554
  574SOL    HW2 1741   0.756   2.412   1.399
  575SOL     OW 1742   1.394   2.331   1.674
  575SOL    HW1 1743   1.374   2.374   1.762
  575SOL    HW2 1744   1.472   2.269   1.683
  576SOL     OW 1745   0.973   2.752   1.572
  576SOL    HW1 1746   1.019   2.668   1.543
  576SOL    HW2 1747   0.917   2.786   1.497
  577SOL     OW 1748   0.991   2.272   1.242
  577SOL    HW1 1749   0.914   2.306   1.296
  577SOL    HW2 1750   0.957   2.221   1.163
  578SOL     OW 1751   1.041   2.563   0.429
  578SOL    HW1 1752   1.067   2.559   0.525
  578SOL    HW2 1753   0.956   2.512   0.415
  579SOL     OW 1754   0.076   2.673   0.789
  579SOL    HW1 1755   0.175   2.661   0.798
  579SOL    HW2 1756   0.052   2.768   0.810
  580SOL     OW 1757   0.130   3.683   1.571
  580SOL    HW1 1758   0.120   3.668   1.670
  580SOL    HW2 1759   0.044   3.719   1.535
  581SOL     OW 1760   0.865   2.210   0.195
  581SOL    HW1 1761   0.924   2.273   0.146
  581SOL    HW2 1762   0.884   2.116   0.166
  582SOL     OW 1763   1.719   2.447   1.831
  582SOL    HW1 1764   1.693   2.536   1.795
  582SOL    HW2 1765   1.717   2.379   1.758
  583SOL     OW 1766   1.362   3.006   0.545
  583SOL    HW1 1767   1.445   2.977   0.497
  583SOL    HW2 1768   1.313   3.073   0.489
  584SOL     OW 1769   0.550   2.058   0.885
  584SOL    HW1 1770   0.545   2.053   0.985
  584SOL    HW2 1771   0.552   2.154   0.856
  585SOL     OW 1772   1.008   3.318   0.477
  585SOL    HW1 1773   0.962   3.390   0.425
  585SOL    HW2 1774   1.004   3.338   0.575
  586SOL     OW 1775   0.351   3.663   0.853
  586SOL    HW1 1776   0.401   3.577   0.859
  586SOL    HW2 1777   0.416   3.740   0.850
  587SOL     OW 1778   1.795   2.928   0.873
  587SOL    HW1 1779   1.733   2.913   0.797
  587SOL    HW2 1780   1.743   2.939   0.958
  588SOL     OW 1781   1.227   3.412   1.506
  588SOL    HW1 1782   1.233   3.335   1.570
  588SOL    HW2 1783   1.175   3.386   1.426
  589SOL     OW 1784   0.321   2.805   0.242
  589SOL    HW1 1785   0.403   2.844   0.200
  589SOL    HW2 1786   0.294   2.723   0.193
  590SOL     OW 1787   1.458   2.597   0.728
  590SOL    HW1 1788   1.453   2.532   0.803
  590SOL    HW2 1789   1.538   2.656   0.741
  591SOL     OW 1790   0.461   3.128   1.727
  591SOL    HW1 1791   0.411   3.129   1.641
  591SOL    HW2 1792   0.398   3.110   1.803
  592SOL     OW 1793   1.111   3.638   0.237
  592SOL    HW1 1794   1.051   3.576   0.287
  592SOL    HW2 1795   1.142   3.594   0.152
  593SOL     OW 1796   0.202   2.147   1.498
  593SOL    HW1 1797   0.122   2.207   1.485
  593SOL    HW2 1798   0.192   2.098   1.584
  594SOL     OW 1799   1.632   3.239   0.081
  594SOL    HW1 1800   1.600   3.333   0.071
  594SOL    HW2 1801   1.556   3.176   0.069
  595SOL     OW 1802   0.464   3.605   0.323
  595SOL    HW1 1803   0.497   3.644   0.409
  595SOL    HW2 1804   0.540   3.598   0.258
  596SOL     OW 1805   1.400   1.969   0.426
  596SOL    HW1 1806   1.376   1.932   0.336
  596SOL    HW2 1807   1.499   1.985   0.430
  597SOL     OW 1808   0.249   3.647   1.241
  597SOL    HW1 1809   0.306   3.582   1.291
  597SOL    HW2 1810   0.233   3.614   1.148
  598SOL     OW 1811   0.940   3.560   0.904
  598SOL    HW1 1812   1.020   3.503   0.925
  598SOL    HW2 1813   0.891   3.520   0.827
  599SOL     OW 1814   0.382   2.562   0.480
  599SOL    HW1 1815   0.427   2.472   0.477
  599SOL    HW2 1816   0.288   2.551   0.513
  600SOL     OW 1817   1.547   2.084   1.729
  600SOL    HW1 1818   1.542   2.121   1.821
  600SOL    HW2 1819   1.475   2.015   1.717
  601SOL     OW 1820   0.781   2.126   1.749
  601SOL    HW1 1821   0.848   2.065   1.792
  601SOL    HW2 1822   0.708   2.145   1.814
  602SOL     OW 1823   0.888   3.376   1.195
  602SOL    HW1 1824   0.865   3.351   1.101
  602SOL    HW2 1825   0.949   3.307   1.234
  603SOL     OW 1826   1.351   2.452   1.433
  603SOL    HW1 1827   1.379   2.409   1.518
  603SOL    HW2 1828   1.376   2.548   1.434
  604SOL     OW 1829   0.803   3.264   0.924
  604SOL    HW1 1830   0.893   3.278   0.882
  604SOL    HW2 1831   0.732   3.266   0.853
  605SOL     OW 1832   0.922   2.365   0.899
  605SOL    HW1 1833   0.897   2.356   0.803
  605SOL    HW2 1834   0.970   2.283   0.930
  606SOL     OW 1835   0.539   1.926   0.512
  606SOL    HW1 1836   0.458   1.927   0.570
  606SOL    HW2 1837   0.542   2.009   0.457
  607SOL     OW 1838   1.434   3.050   0.041
  607SOL    HW1 1839   1.466   2.974   0.098
  607SOL    HW2 1840   1.342   3.077   0.071
  608SOL     OW 1841   0.297   1.897   0.171
  608SOL    HW1 1842   0.346   1.981   0.150
  608SOL    HW2 1843   0.359   1.832   0.216
  609SOL     OW 1844   0.935   2.098   0.480
  609SOL    HW1 1845   0.887   2.139   0.402
  609SOL    HW2 1846   1.034   2.096   0.461
  610SOL     OW 1847   1.076   2.545   1.464
  610SOL    HW1 1848   0.996   2.484   1.467
  610SOL    HW2 1849   1.157   2.492   1.440
  611SOL     OW 1850   1.227   3.432   0.793
  611SOL    HW1 1851   1.248   3.506   0.728
  611SOL    HW2 1852   1.295   3.432   0.866
  612SOL     OW 1853   0.459   3.014   0.741
  612SOL    HW1 1854   0.388   2.987   0.806
  612SOL    HW2 1855   0.433   2.986   0.648
  613SOL     OW 1856   1.271   3.659   0.591
  613SOL    HW1 1857   1.315   3.723   0.527
  613SOL    HW2 1858   1.221   3.711   0.661
  614SOL     OW 1859   1.032   2.411   0.016
  614SOL    HW1 1860   0.991   2.493  -0.023
  614SOL    HW2 1861   1.096   2.437   0.089
  615SOL     OW 1862   0.078   2.418   1.386
  615SOL    HW1 1863   0.170   2.417   1.345
  615SOL    HW2 1864   0.072   2.492   1.453
  616SOL     OW 1865   0.561   2.084   1.147
  616SOL    HW1 1866   0.599   2.000   1.184
  616SOL    HW2 1867   0.473   2.103   1.191
  617SOL     OW 1868   0.866   2.316   0.642
  617SOL    HW1 1869   0.834   2.388   0.580
  617SOL    HW2 1870   0.890   2.235   0.589
  618SOL     OW 1871   1.017   1.901   0.753
  618SOL    HW1 1872   0.945   1.906   0.684
  618SOL    HW2 1873   0.993   1.832   0.822
  619SOL     OW 1874   1.429   3.035   0.867
  619SOL    HW1 1875   1.374   2.951   0.860
  619SOL    HW2 1876   1.455   3.064   0.775
  620SOL     OW 1877   1.466   2.452   0.992
  620SOL    HW1 1878   1.436   2.357   0.999
  620SOL    HW2 1879   1.539   2.468   1.058
  621SOL     OW 1880   1.857   2.695   0.377
  621SOL    HW1 1881   1.899   2.631   0.441
  621SOL    HW2 1882   1.819   2.644   0.299
  622SOL     OW 1883   0.488   3.247   0.174
  622SOL    HW1 1884   0.401   3.232   0.221
  622SOL    HW2 1885   0.471   3.273   0.079
  623SOL     OW 1886   1.664   3.142   0.657
  623SOL    HW1 1887   1.763   3.150   0.671
  623SOL    HW2 1888   1.619   3.226   0.688
  624SOL     OW 1889   1.390   2.437   0.078
  624SOL    HW1 1890   1.336   2.416   0.159
  624SOL    HW2 1891   1.481   2.396   0.087
  625SOL     OW 1892   0.527   2.118   0.328
  625SOL    HW1 1893   0.554   2.059   0.253
  625SOL    HW2 1894   0.527   2.213   0.297
  626SOL     OW 1895   1.754   3.085   1.588
  626SOL    HW1 1896   1.845   3.046   1.575
  626SOL    HW2 1897   1.762   3.181   1.612
  627SOL     OW 1898   1.064   3.209   1.340
  627SOL    HW1 1899   0.984   3.186   1.395
  627SOL    HW2 1900   1.147   3.183   1.389
  628SOL     OW 1901   1.592   3.491   1.625
  628SOL    HW1 1902   1.619   3.525   1.535
  628SOL    HW2 1903   1.671   3.453   1.671
  629SOL     OW 1904   1.111   3.057   1.100
  629SOL    HW1 1905   1.071   3.101   1.181
  629SOL    HW2 1906   1.070   3.094   1.017
  630SOL     OW 1907   1.638   2.961   1.079
  630SOL    HW1 1908   1.643   3.042   1.138
  630SOL    HW2 1909   1.552   2.963   1.028
  631SOL     OW 1910   0.915   1.951   1.402
  631SOL    HW1 1911   0.940   1.931   1.307
  631SOL    HW2 1912   0.987   2.007   1.444
  632SOL     OW 1913   0.980   2.978   1.719
  632SOL    HW1 1914   0.881   2.984   1.729
  632SOL    HW2 1915   1.003   2.898   1.663
  633SOL     OW 1916   0.705   2.912   0.368
  633SOL    HW1 1917   0.691   2.919   0.467
  633SOL    HW2 1918   0.789   2.861   0.350
  634SOL     OW 1919   0.410   2.675   1.251
  634SOL    HW1 1920   0.496   2.687   1.301
  634SOL    HW2 1921   0.368   2.588   1.278
  635SOL     OW 1922   1.274   2.248   1.262
  635SOL    HW1 1923   1.295   2.322   1.326
  635SOL    HW2 1924   1.185   2.265   1.219
  636SOL     OW 1925   0.064   3.426   1.331
  636SOL    HW1 1926   0.018   3.508   1.297
  636SOL    HW2 1927   0.162   3.445   1.340
  637SOL     OW 1928   0.367   2.962   0.501
  637SOL    HW1 1929   0.360   3.045   0.445
  637SOL    HW2 1930   0.371   2.882   0.441
  638SOL     OW 1931   0.566   2.399   0.865
  638SOL    HW1 1932   0.578   2.465   0.791
  638SOL    HW2 1933   0.612   2.433   0.948
  639SOL     OW 1934   1.252   3.210   0.388
  639SOL    HW1 1935   1.302   3.287   0.428
  639SOL    HW2 1936   1.157   3.212   0.420
  640SOL     OW 1937   1.272   3.307   1.142
  640SOL    HW1 1938   1.319   3.320   1.229
  640SOL    HW2 1939   1.206   3.233   1.151
  641SOL     OW 1940   1.582   2.501   0.472
  641SOL    HW1 1941   1.551   2.562   0.545
  641SOL    HW2 1942   1.632   2.553   0.403
  642SOL     OW 1943   0.354   3.372   1.329
  642SOL    HW1 1944   0.333   3.328   1.242
  642SOL    HW2 1945   0.451   3.398   1.332
  643SOL     OW 1946   0.402   2.613   1.598
  643SOL    HW1 1947   0.470   2.668   1.551
  643SOL    HW2 1948   0.442   2.525   1.625
  644SOL     OW 1949   1.587   2.641   1.670
  644SOL    HW1 1950   1.495   2.679   1.665
  644SOL    HW2 1951   1.647   2.688   1.605
  645SOL     OW 1952   1.013   1.967   1.770
  645SOL    HW1 1953   1.019   2.052   1.718
  645SOL    HW2 1954   1.045   1.891   1.713
  646SOL     OW 1955   0.504   1.912   1.740
  646SOL    HW1 1956   0.462   1.855   1.670
  646SOL    HW2 1957   0.438   1.981   1.772
  647SOL     OW 1958   0.573   2.732   1.029
  647SOL    HW1 1959   0.617   2.821   1.020
  647SOL    HW2 1960   0.510   2.732   1.106
  648SOL     OW 1961   1.360   2.724   1.045
  648SOL    HW1 1962   1.285   2.724   0.979
  648SOL    HW2 1963   1.397   2.632   1.054
  649SOL     OW 1964   1.209   2.387   0.275
  649SOL    HW1 1965   1.222   2.303   0.329
  649SOL    HW2 1966   1.180   2.461   0.335
  650SOL     OW 1967   0.307   2.075   1.231
  650SOL    HW1 1968   0.284   2.112   1.321
  650SOL    HW2 1969   0.277   1.980   1.225
  651SOL     OW 1970   0.037   3.172   1.282
  651SOL    HW1 1971   0.090   3.123   1.350
  651SOL    HW2 1972   0.059   3.270   1.287
  652SOL     OW 1973   0.732   2.496   1.064
  652SOL    HW1 1974   0.791   2.470   0.988
  652SOL    HW2 1975   0.704   2.592   1.053
  653SOL     OW 1976   1.728   2.797   1.854
  653SOL    HW1 1977   1.682   2.790   1.765
  653SOL    HW2 1978   1.666   2.841   1.920
  654SOL     OW 1979   0.307   1.925   0.618
  654SOL    HW1 1980   0.296   2.019   0.651
  654SOL    HW2 1981   0.302   1.862   0.695
  655SOL     OW 1982   1.622   2.229   0.374
  655SOL    HW1 1983   1.624   2.153   0.438
  655SOL    HW2 1984   1.574   2.306   0.414
  656SOL     OW 1985   1.023   2.628   0.966
  656SOL    HW1 1986   1.038   2.649   1.062
  656SOL    HW2 1987   0.993   2.533   0.957
  657SOL     OW 1988   0.980   3.435   1.700
  657SOL    HW1 1989   0.960   3.479   1.612
  657SOL    HW2 1990   1.019   3.344   1.684
  658SOL     OW 1991   1.859   3.380   1.605
  658SOL    HW1 1992   1.873   3.407   1.510
  658SOL    HW2 1993   1.942   3.402   1.658
  659SOL     OW 1994   0.350   2.760   1.804
  659SOL    HW1 1995   0.426   2.804   1.852
  659SOL    HW2 1996   0.385   2.713   1.722
  660SOL     OW 1997   1.540   2.136   0.125
  660SOL    HW1 1998   1.479   2.061   0.148
  660SOL    HW2 1999   1.562   2.188   0.208
  661SOL     OW 2000   1.303   2.700   0.042
  661SOL    HW1 2001   1.337   2.607   0.057
  661SOL    HW2 2002   1.321   2.727  -0.053
  662SOL     OW 2003   1.068   3.195   0.849
  662SOL    HW1 2004   1.075   3.111   0.794
  662SOL    HW2 2005   1.130   3.264   0.813
  663SOL     OW 2006   0.319   2.672   0.949
  663SOL    HW1 2007   0.412   2.708   0.954
  663SOL    HW2 2008   0.313   2.587   1.001
  664SOL     OW 2009   0.339   2.371   1.006
  664SOL    HW1 2010   0.287   2.288   0.989
  664SOL    HW2 2011   0.416   2.376   0.942
  665SOL     OW 2012   1.138   2.242   1.678
  665SOL    HW1 2013   1.093   2.305   1.742
  665SOL    HW2 2014   1.231   2.273   1.661
  666SOL     OW 2015   1.160   2.069   1.477
  666SOL    HW1 2016   1.160   2.133   1.554
  666SOL    HW2 2017   1.188   2.117   1.394
  667SOL     OW 2018   0.008   3.188   0.200
  667SOL    HW1 2019  -0.085   3.209   0.169
  667SOL    HW2 2020   0.018   3.089   0.213
  668SOL     OW 2021   0.088   3.663   0.927
  668SOL    HW1 2022   0.046   3.577   0.900
  668SOL    HW2 2023   0.182   3.666   0.893
  669SOL     OW 2024   0.504   3.430   0.910
  669SOL    HW1 2025   0.570   3.504   0.919
  669SOL    HW2 2026   0.548   3.351   0.868
  670SOL     OW 2027   1.002   2.658   1.238
  670SOL    HW1 2028   1.043   2.626   1.324
  670SOL    HW2 2029   0.906   2.631   1.235
  671SOL     OW 2030   0.040   2.406   1.114
  671SOL    HW1 2031   0.125   2.373   1.073
  671SOL    HW2 2032   0.053   2.421   1.212
  672SOL     OW 2033   0.189   2.382   1.722
  672SOL    HW1 2034   0.248   2.342   1.652
  672SOL    HW2 2035   0.131   2.453   1.681
  673SOL     OW 2036   1.369   2.812   1.660
  673SOL    HW1 2037   1.408   2.901   1.680
  673SOL    HW2 2038   1.379   2.792   1.563
  674SOL     OW 2039   0.815   2.434   0.325
  674SOL    HW1 2040   0.822   2.345   0.279
  674SOL    HW2 2041   0.721   2.468   0.317
  675SOL     OW 2042   1.657   2.466   1.206
  675SOL    HW1 2043   1.619   2.397   1.268
  675SOL    HW2 2044   1.739   2.430   1.162
  676SOL     OW 2045   0.252   3.426   1.744
  676SOL    HW1 2046   0.222   3.483   1.820
  676SOL    HW2 2047   0.245   3.329   1.770
  677SOL     OW 2048   0.671   2.326   1.269
  677SOL    HW1 2049   0.637   2.237   1.239
  677SOL    HW2 2050   0.697   2.380   1.189
  678SOL     OW 2051   0.930   3.540   1.465
  678SOL    HW1 2052   0.906   3.522   1.370
  678SOL    HW2 2053   0.960   3.634   1.475
  679SOL     OW 2054   0.473   2.362   0.191
  679SOL    HW1 2055   0.534   2.442   0.195
  679SOL    HW2 2056   0.378   2.393   0.198
  680SOL     OW 2057   0.159   2.999   1.466
  680SOL    HW1 2058   0.181   2.938   1.542
  680SOL    HW2 2059   0.169   2.950   1.380
  681SOL     OW 2060   1.347   2.921   1.234
  681SOL    HW1 2061   1.371   2.858   1.160
  681SOL    HW2 2062   1.257   2.961   1.216
  682SOL     OW 2063   1.302   2.717   0.309
  682SOL    HW1 2064   1.216   2.686   0.351
  682SOL    HW2 2065   1.298   2.703   0.210
  683SOL     OW 2066   1.759   3.609   1.154
  683SOL    HW1 2067   1.820   3.639   1.081
  683SOL    HW2 2068   1.721   3.520   1.132
  684SOL     OW 2069   1.252   3.593   1.128
  684SOL    HW1 2070   1.336   3.598   1.074
  684SOL    HW2 2071   1.229   3.497   1.146
  685SOL     OW 2072   0.083   3.120   1.022
  685SOL    HW1 2073   0.078   3.119   1.122
  685SOL    HW2 2074   0.000   3.079   0.984
  686SOL     OW 2075   0.688   3.524   1.716
  686SOL    HW1 2076   0.632   3.605   1.725
  686SOL    HW2 2077   0.740   3.528   1.630
  687SOL     OW 2078   0.903   1.948   0.133
  687SOL    HW1 2079   0.954   1.949   0.047
  687SOL    HW2 2080   0.959   1.906   0.204
  688SOL     OW 2081   1.726   1.997   0.523
  688SOL    HW1 2082   1.799   1.980   0.456
  688SOL    HW2 2083   1.695   1.910   0.561
  689SOL     OW 2084   1.388   3.435   0.477
  689SOL    HW1 2085   1.455   3.447   0.403
  689SOL    HW2 2086   1.348   3.524   0.500
  690SOL     OW 2087   0.130   3.656   1.851
  690SOL    HW1 2088   0.089   3.582   1.904
  690SOL    HW2 2089   0.194   3.707   1.909
  691SOL     OW 2090   1.280   2.789   0.672
  691SOL    HW1 2091   1.340   2.708   0.674
  691SOL    HW2 2092   1.320   2.858   0.612
  692SOL     OW 2093   0.830   3.135   1.422
  692SOL    HW1 2094   0.825   3.168   1.517
  692SOL    HW2 2095   0.744   3.154   1.376
  693SOL     OW 2096   0.672   3.478   0.154
  693SOL    HW1 2097   0.681   3.488   0.055
  693SOL    HW2 2098   0.632   3.389   0.175
  694SOL     OW 2099   1.650   3.582   1.394
  694SOL    HW1 2100   1.703   3.592   1.310
  694SOL    HW2 2101   1.623   3.672   1.428
  695SOL     OW 2102   1.841   2.037   0.963
  695SOL    HW1 2103   1.880   1.952   0.927
  695SOL    HW2 2104   1.743   2.039   0.944
  696SOL     OW 2105   0.263   2.188   0.720
  696SOL    HW1 2106   0.184   2.239   0.686
  696SOL    HW2 2107   0.254   2.173   0.818
  697SOL     OW 2108   1.194   3.474   0.031
  697SOL    HW1 2109   1.200   3.381   0.068
  697SOL    HW2 2110   1.135   3.474  -0.049
  698SOL     OW 2111   0.822   2.864   1.372
  698SOL    HW1 2112   0.862   2.863   1.280
  698SOL    HW2 2113   0.832   2.956   1.412
  699SOL     OW 2114   0.916   2.772   0.291
  699SOL    HW1 2115   0.979   2.810   0.223
  699SOL    HW2 2116   0.956   2.689   0.330
  700SOL     OW 2117   1.504   3.469   0.044
  700SOL    HW1 2118   1.412   3.506   0.051
  700SOL    HW2 2119   1.542   3.489  -0.046
  701SOL     OW 2120   0.372   3.150   1.490
  701SOL    HW1 2121   0.359   3.243   1.456
  701SOL    HW2 2122   0.288   3.098   1.477
  702SOL     OW 2123   1.614   3.154   1.289
  702SOL    HW1 2124   1.674   3.157   1.369
  702SOL    HW2 2125   1.539   3.218   1.302
  703SOL     OW 2126   1.039   2.960   0.696
  703SOL    HW1 2127   0.969   2.913   0.750
  703SOL    HW2 2128   1.098   2.892   0.653
  704SOL     OW 2129   1.014   2.098   0.971
  704SOL    HW1 2130   1.006   2.062   0.878
  704SOL    HW2 2131   1.012   2.022   1.036
  705SOL     OW 2132   0.590   3.349   0.491
  705SOL    HW1 2133   0.632   3.291   0.421
  705SOL    HW2 2134   0.546   3.428   0.447
  706SOL     OW 2135   1.709   2.247   1.381
  706SOL    HW1 2136   1.782   2.316   1.385
  706SOL    HW2 2137   1.737   2.172   1.322
  707SOL     OW 2138   0.255   3.210   0.290
  707SOL    HW1 2139   0.159   3.211   0.263
  707SOL    HW2 2140   0.267   3.263   0.374
  708SOL     OW 2141   0.105   2.875   1.726
  708SOL    HW1 2142   0.028   2.842   1.780
  708SOL    HW2 2143   0.190   2.845   1.768
  709SOL     OW 2144   0.672   2.065   1.489
  709SOL    HW1 2145   0.762   2.049   1.449
  709SOL    HW2 2146   0.680   2.070   1.588
  710SOL     OW 2147   0.075   2.207   0.033
  710SOL    HW1 2148  -0.017   2.179   0.004
  710SOL    HW2 2149   0.106   2.284  -0.023
  711SOL     OW 2150   1.440   2.718   1.398
  711SOL    HW1 2151   1.383   2.770   1.335
  711SOL    HW2 2152   1.536   2.730   1.374
  712SOL     OW 2153   0.072   2.028   0.318
  712SOL    HW1 2154   0.055   2.111   0.264
  712SOL    HW2 2155   0.162   1.991   0.296
  713SOL     OW 2156   1.183   3.197   0.119
  713SOL    HW1 2157   1.084   3.186   0.121
  713SOL    HW2 2158   1.217   3.212   0.212
  714SOL     OW 2159   0.613   2.704   1.431
  714SOL    HW1 2160   0.669   2.785   1.414
  714SOL    HW2 2161   0.672   2.624   1.434
  715SOL     OW 2162   1.493   3.629   0.959
  715SOL    HW1 2163   1.526   3.693   0.890
  715SOL    HW2 2164   1.559   3.623   1.034
  716SOL     OW 2165   0.716   2.427   1.708
  716SOL    HW1 2166   0.735   2.492   1.782
  716SOL    HW2 2167   0.776   2.347   1.717
  717SOL     OW 2168   1.450   3.082   1.633
  717SOL    HW1 2169   1.441   3.072   1.732
  717SOL    HW2 2170   1.546   3.075   1.607
  718SOL     OW 2171   0.390   3.603   1.560
  718SOL    HW1 2172   0.299   3.644   1.558
  718SOL    HW2 2173   0.383   3.509   1.592
  719SOL     OW 2174   1.674   2.745   1.254
  719SOL    HW1 2175   1.647   2.656   1.217
  719SOL    HW2 2176   1.675   2.813   1.181
  720SOL     OW 2177   1.225   2.187   0.449
  720SOL    HW1 2178   1.290   2.113   0.438
  720SOL    HW2 2179   1.245   2.237   0.533
  721SOL     OW 2180   0.594   2.607   0.652
  721SOL    HW1 2181   0.644   2.692   0.633
  721SOL    HW2 2182   0.506   2.609   0.604
  722SOL     OW 2183   1.777   2.204   1.642
  722SOL    HW1 2184   1.760   2.235   1.548
  722SOL    HW2 2185   1.693   2.167   1.680
  723SOL     OW 2186   1.730   2.796   1.517
  723SOL    HW1 2187   1.768   2.887   1.532
  723SOL    HW2 2188   1.722   2.779   1.418
  724SOL     OW 2189   0.859   3.236   0.016
  724SOL    HW1 2190   0.813   3.251   0.104
  724SOL    HW2 2191   0.903   3.321  -0.014
  725SOL     OW 2192   0.661   3.652   0.953
  725SOL    HW1 2193   0.615   3.740   0.940
  725SOL    HW2 2194   0.760   3.664   0.946
  726SOL     OW 2195   0.859   2.818   0.861
  726SOL    HW1 2196   0.913   2.749   0.909
  726SOL    HW2 2197   0.827   2.887   0.927
  727SOL     OW 2198   1.083   2.846   0.087
  727SOL    HW1 2199   1.060   2.899   0.005
  727SOL    HW2 2200   1.164   2.790   0.068
  728SOL     OW 2201   1.861   3.431   0.851
  728SOL    HW1 2202   1.790   3.419   0.781
  728SOL    HW2 2203   1.862   3.352   0.911
  729SOL     OW 2204   0.221   3.176   1.844
  729SOL    HW1 2205   0.156   3.103   1.823
  729SOL    HW2 2206   0.225   3.190   1.942
  730SOL     OW 2207   0.079   3.102   0.653
  730SOL    HW1 2208   0.078   3.055   0.741
  730SOL    HW2 2209   0.161   3.074   0.602
  731SOL     OW 2210   0.672   3.253   1.624
  731SOL    HW1 2211   0.594   3.203   1.662
  731SOL    HW2 2212   0.669   3.348   1.655
  732SOL     OW 2213   1.824   2.054   1.227
  732SOL    HW1 2214   1.820   1.964   1.271
  732SOL    HW2 2215   1.827   2.043   1.128
  733SOL     OW 2216   0.428   2.286   0.520
  733SOL    HW1 2217   0.458   2.214   0.458
  733SOL    HW2 2218   0.389   2.246   0.603
  734SOL     OW 2219   1.705   3.349   1.104
  734SOL    HW1 2220   1.612   3.324   1.077
  734SOL    HW2 2221   1.731   3.299   1.186
  735SOL     OW 2222   0.317   2.409   1.280
  735SOL    HW1 2223   0.355   2.350   1.352
  735SOL    HW2 2224   0.357   2.383   1.192
  736SOL     OW 2225   0.812   3.448   0.687
  736SOL    HW1 2226   0.844   3.458   0.593
  736SOL    HW2 2227   0.733   3.386   0.689
  737SOL     OW 2228   1.424   2.076   1.112
  737SOL    HW1 2229   1.476   2.011   1.167
  737SOL    HW2 2230   1.375   2.139   1.173
  738SOL     OW 2231   1.001   1.896   1.154
  738SOL    HW1 2232   0.938   1.824   1.123
  738SOL    HW2 2233   1.094   1.860   1.154
  739SOL     OW 2234   0.770   3.192   0.301
  739SOL    HW1 2235   0.724   3.105   0.318
  739SOL    HW2 2236   0.861   3.189   0.342
  740SOL     OW 2237   0.618   3.429   1.284
  740SOL    HW1 2238   0.613   3.511   1.341
  740SOL    HW2 2239   0.707   3.426   1.239
  741SOL     OW 2240   1.352   1.914   0.168
  741SOL    HW1 2241   1.387   1.873   0.084
  741SOL    HW2 2242   1.262   1.876   0.188
  742SOL     OW 2243   1.300   2.315   0.691
  742SOL    HW1 2244   1.241   2.395   0.695
  742SOL    HW2 2245   1.315   2.280   0.784
  743SOL     OW 2246   1.593   2.083   0.882
  743SOL    HW1 2247   1.509   2.082   0.936
  743SOL    HW2 2248   1.595   2.166   0.826
  744SOL     OW 2249   0.039   2.939   0.300
  744SOL    HW1 2250   0.138   2.928   0.291
  744SOL    HW2 2251  -0.001   2.853   0.332
  745SOL     OW 2252   0.875   3.508   0.337
  745SOL    HW1 2253   0.798   3.473   0.283
  745SOL    HW2 2254   0.843   3.579   0.399
  746SOL     OW 2255   0.230   2.490   1.975
  746SOL    HW1 2256   0.137   2.488   2.012
  746SOL    HW2 2257   0.231   2.451   1.883
  747SOL     OW 2258   0.225   2.137   2.858
  747SOL    HW1 2259   0.260   2.120   2.950
  747SOL    HW2 2260   0.137   2.092   2.846
  748SOL     OW 2261   0.019   2.230   2.509
  748SOL    HW1 2262  -0.063   2.273   2.548
  748SOL    HW2 2263  -0.009   2.157   2.446
  749SOL     OW 2264   0.569   3.137   3.027
  749SOL    HW1 2265   0.476   3.130   2.990
  749SOL    HW2 2266   0.580   3.226   3.071
  750SOL     OW 2267   1.555   3.373   2.565
  750SOL    HW1 2268   1.498   3.357   2.646
  750SOL    HW2 2269   1.496   3.383   2.485
  751SOL     OW 2270   1.135   2.565   2.579
  751SOL    HW1 2271   1.192   2.643   2.554
  751SOL    HW2 2272   1.075   2.591   2.655
  752SOL     OW 2273   1.755   2.469   2.093
  752SOL    HW1 2274   1.743   2.456   1.994
  752SOL    HW2 2275   1.725   2.388   2.142
  753SOL     OW 2276   0.768   3.006   2.885
  753SOL    HW1 2277   0.690   3.023   2.945
  753SOL    HW2 2278   0.802   3.093   2.849
  754SOL     OW 2279   0.850   2.660   3.685
  754SOL    HW1 2280   0.846   2.736   3.750
  754SOL    HW2 2281   0.872   2.696   3.594
  755SOL     OW 2282   0.685   2.874   2.527
  755SOL    HW1 2283   0.754   2.858   2.597
  755SOL    HW2 2284   0.612   2.931   2.565
  756SOL     OW 2285   0.686   3.023   3.665
  756SOL    HW1 2286   0.746   3.102   3.679
  756SOL    HW2 2287   0.600   3.054   3.624
  757SOL     OW 2288   0.335   3.297   2.923
  757SOL    HW1 2289   0.257   3.266   2.870
  757SOL    HW2 2290   0.393   3.355   2.866
  758SOL     OW 2291   1.460   3.367   3.201
  758SOL    HW1 2292   1.484   3.461   3.227
  758SOL    HW2 2293   1.444   3.313   3.283
  759SOL     OW 2294   0.438   2.254   3.361
  759SOL    HW1 2295   0.520   2.198   3.370
  759SOL    HW2 2296   0.357   2.196   3.365
  760SOL     OW 2297   1.603   2.309   2.599
  760SOL    HW1 2298   1.529   2.355   2.549
  760SOL    HW2 2299   1.654   2.377   2.652
  761SOL     OW 2300   0.231   3.575   2.345
  761SOL    HW1 2301   0.265   3.652   2.399
  761SOL    HW2 2302   0.275   3.575   2.255
  762SOL     OW 2303   1.127   3.203   3.552
  762SOL    HW1 2304   1.174   3.203   3.640
  762SOL    HW2 2305   1.079   3.116   3.541
  763SOL     OW 2306   0.230   3.296   2.400
  763SOL    HW1 2307   0.204   3.392   2.400
  763SOL    HW2 2308   0.159   3.242   2.445
  764SOL     OW 2309   0.240   2.953   2.748
  764SOL    HW1 2310   0.254   2.869   2.800
  764SOL    HW2 2311   0.185   3.017   2.803
  765SOL     OW 2312   0.620   3.648   3.301
  765SOL    HW1 2313   0.528   3.631   3.336
  765SOL    HW2 2314   0.648   3.740   3.327
  766SOL     OW 2315   0.606   2.826   1.985
  766SOL    HW1 2316   0.613   2.910   1.931
  766SOL    HW2 2317   0.652   2.839   2.073
  767SOL     OW 2318   1.594   1.976   3.342
  767SOL    HW1 2319   1.576   2.043   3.270
  767SOL    HW2 2320   1.591   2.022   3.431
  768SOL     OW 2321   0.122   2.505   2.425
  768SOL    HW1 2322   0.077   2.417   2.442
  768SOL    HW2 2323   0.121   2.559   2.509
  769SOL     OW 2324   1.842   3.629   2.221
  769SOL    HW1 2325   1.896   3.600   2.301
  769SOL    HW2 2326   1.872   3.719   2.192
  770SOL     OW 2327   0.027   3.458   1.979
  770SOL    HW1 2328   0.008   3.362   2.000
  770SOL    HW2 2329  -0.006   3.516   2.054
  771SOL     OW 2330   1.689   2.784   2.474
  771SOL    HW1 2331   1.784   2.755   2.482
  771SOL    HW2 2332   1.681   2.849   2.399
  772SOL     OW 2333   1.641   2.970   2.294
  772SOL    HW1 2334   1.727   2.972   2.242
  772SOL    HW2 2335   1.655   3.017   2.382
  773SOL     OW 2336   0.113   2.599   3.459
  773SOL    HW1 2337   0.201   2.586   3.504
  773SOL    HW2 2338   0.100   2.696   3.437
  774SOL     OW 2339   0.613   3.227   2.588
  774SOL    HW1 2340   0.564   3.140   2.597
  774SOL    HW2 2341   0.590   3.270   2.501
  775SOL     OW 2342   1.293   3.090   3.285
  775SOL    HW1 2343   1.330   3.017   3.227
  775SOL    HW2 2344   1.345   3.095   3.370
  776SOL     OW 2345   0.809   1.866   2.364
  776SOL    HW1 2346   0.849   1.957   2.355
  776SOL    HW2 2347   0.709   1.874   2.370
  777SOL     OW 2348   0.197   2.838   3.126
  777SOL    HW1 2349   0.286   2.793   3.112
  777SOL    HW2 2350   0.124   2.773   3.107
  778SOL     OW 2351   1.525   2.861   2.052
  778SOL    HW1 2352   1.462   2.785   2.065
  778SOL    HW2 2353   1.573   2.879   2.138
  779SOL     OW 2354   1.187   3.654   3.478
  779SOL    HW1 2355   1.211   3.714   3.402
  779SOL    HW2 2356   1.194   3.559   3.448
  780SOL     OW 2357   0.317   2.113   3.663
  780SOL    HW1 2358   0.388   2.184   3.669
  780SOL    HW2 2359   0.229   2.152   3.691
  781SOL     OW 2360   1.466   3.279   2.815
  781SOL    HW1 2361   1.407   3.285   2.895
  781SOL    HW2 2362   1.451   3.191   2.769
  782SOL     OW 2363   1.667   3.576   2.434
  782SOL    HW1 2364   1.626   3.553   2.346
  782SOL    HW2 2365   1.649   3.502   2.499
  783SOL     OW 2366   0.598   2.591   2.132
  783SOL    HW1 2367   0.622   2.660   2.064
  783SOL    HW2 2368   0.520   2.624   2.186
  784SOL     OW 2369   1.281   2.207   2.806
  784SOL    HW1 2370   1.195   2.157   2.793
  784SOL    HW2 2371   1.343   2.153   2.862
  785SOL     OW 2372   1.576   3.524   2.169
  785SOL    HW1 2373   1.665   3.570   2.172
  785SOL    HW2 2374   1.555   3.500   2.074
  786SOL     OW 2375   0.807   2.467   3.327
  786SOL    HW1 2376   0.760   2.464   3.416
  786SOL    HW2 2377   0.756   2.412   3.261
  787SOL     OW 2378   1.394   2.331   3.536
  787SOL    HW1 2379   1.374   2.374   3.624
  787SOL    HW2 2380   1.472   2.269   3.545
  788SOL     OW 2381   0.973   2.752   3.434
  788SOL    HW1 2382   1.019   2.668   3.405
  788SOL    HW2 2383   0.917   2.786   3.359
  789SOL     OW 2384   0.991   2.272   3.104
  789SOL    HW1 2385   0.914   2.306   3.158
  789SOL    HW2 2386   0.957   2.221   3.025
  790SOL     OW 2387   1.041   2.563   2.291
  790SOL    HW1 2388   1.067   2.559   2.387
  790SOL    HW2 2389   0.956   2.512   2.277
  791SOL     OW 2390   0.076   2.673   2.651
  791SOL    HW1 2391   0.175   2.661   2.660
  791SOL    HW2 2392   0.052   2.768   2.672
  792SOL     OW 2393   0.130   3.683   3.433
  792SOL    HW1 2394   0.120   3.668   3.532
  792SOL    HW2 2395   0.044   3.719   3.397
  793SOL     OW 2396   0.865   2.210   2.057
  793SOL    HW1 2397   0.924   2.273   2.008
  793SOL    HW2 2398   0.884   2.116   2.028
  794SOL     OW 2399   1.719   2.447   3.693
  794SOL    HW1 2400   1.693   2.536   3.657
  794SOL    HW2 2401   1.717   2.379   3.620
  795SOL     OW 2402   1.362   3.006   2.407
  795SOL    HW1 2403   1.445   2.977   2.359
  795SOL    HW2 2404   1.313   3.073   2.351
  796SOL     OW 2405   0.550   2.058   2.747
  796SOL    HW1 2406   0.545   2.053   2.847
  796SOL    HW2 2407   0.552   2.154   2.718
  797SOL     OW 2408   1.008   3.318   2.339
  797SOL    HW1 2409   0.962   3.390   2.287
  797SOL    HW2 2410   1.004   3.338   2.437
  798SOL     OW 2411   0.351   3.663   2.715
  798SOL    HW1 2412   0.401   3.577   2.721
  798SOL    HW2 2413   0.416   3.740   2.712
  799SOL     OW 2414   1.795   2.928   2.735
  799SOL    HW1 2415   1.733   2.913   2.659
  799SOL    HW2 2416   1.743   2.939   2.820
  800SOL     OW 2417   1.227   3.412   3.368
  800SOL    HW1 2418   1.233   3.335   3.432
  800SOL    HW2 2419   1.175   3.386   3.288
  801SOL     OW 2420   0.321   2.805   2.104
  801SOL    HW1 2421   0.403   2.844   2.062
  801SOL    HW2 2422   0.294   2.723   2.055
  802SOL     OW 2423   1.458   2.597   2.590
  802SOL    HW1 2424   1.453   2.532   2.665
  802SOL    HW2 2425   1.538   2.656   2.603
  803SOL     OW 2426   0.461   3.128   3.589
  803SOL    HW1 2427   0.411   3.129   3.503
  803SOL    HW2 2428   0.398   3.110   3.665
  804SOL     OW 2429   1.111   3.638   2.099
  804SOL    HW1 2430   1.051   3.576   2.149
  804SOL    HW2 2431   1.142   3.594   2.014
  805SOL     OW 2432   0.202   2.147   3.360
  805SOL    HW1 2433   0.122   2.207   3.347
  805SOL    HW2 2434   0.192   2.098   3.446
  806SOL     OW 2435   1.632   3.239   1.943
  806SOL    HW1 2436   1.600   3.333   1.933
  806SOL    HW2 2437   1.556   3.176   1.931
  807SOL     OW 2438   0.464   3.605   2.185
  807SOL    HW1 2439   0.497   3.644   2.271
  807SOL    HW2 2440   0.540   3.598   2.120
  808SOL     OW 2441   1.400   1.969   2.288
  808SOL    HW1 2442   1.376   1.932   2.198
  808SOL    HW2 2443   1.499   1.985   2.292
  809SOL     OW 2444   0.249   3.647   3.103
  809SOL    HW1 2445   0.306   3.582   3.153
  809SOL    HW2 2446   0.233   3.614   3.010
  810SOL     OW 2447   0.940   3.560   2.766
  810SOL    HW1 2448   1.020   3.503   2.787
  810SOL    HW2 2449   0.891   3.520   2.689
  811SOL     OW 2450   0.382   2.562   2.342
  811SOL    HW1 2451   0.427   2.472   2.339
  811SOL    HW2 2452   0.288   2.551   2.375
  812SOL     OW 2453   1.547   2.084   3.591
  812SOL    HW1 2454   1.542   2.121   3.683
  812SOL    HW2 2455   1.475   2.015   3.579
  813SOL     OW 2456   0.614   1.984   1.979
  813SOL    HW1 2457   0.712   1.962   1.986
  813SOL    HW2 2458   0.583   1.967   1.886
  814SOL     OW 2459   0.781   2.126   3.611
  814SOL    HW1 2460   0.848   2.065   3.654
  814SOL    HW2 2461   0.708   2.145   3.676
  815SOL     OW 2462   0.888   3.376   3.057
  815SOL    HW1 2463   0.865   3.351   2.963
  815SOL    HW2 2464   0.949   3.307   3.096
  816SOL     OW 2465   1.351   2.452   3.295
  816SOL    HW1 2466   1.379   2.409   3.380
  816SOL    HW2 2467   1.376   2.548   3.296
  817SOL     OW 2468   0.803   3.264   2.786
  817SOL    HW1 2469   0.893   3.278   2.744
  817SOL    HW2 2470   0.732   3.266   2.715
  818SOL     OW 2471   0.922   2.365   2.761
  818SOL    HW1 2472   0.897   2.356   2.665
  818SOL    HW2 2473   0.970   2.283   2.792
  819SOL     OW 2474   0.539   1.926   2.374
  819SOL    HW1 2475   0.458   1.927   2.432
  819SOL    HW2 2476   0.542   2.009   2.319
  820SOL     OW 2477   1.434   3.050   1.903
  820SOL    HW1 2478   1.466   2.974   1.960
  820SOL    HW2 2479   1.342   3.077   1.933
  821SOL     OW 2480   0.297   1.897   2.033
  821SOL    HW1 2481   0.346   1.981   2.012
  821SOL    HW2 2482   0.359   1.832   2.078
  822SOL     OW 2483   0.935   2.098   2.342
  822SOL    HW1 2484   0.887   2.139   2.264
  822SOL    HW2 2485   1.034   2.096   2.323
  823SOL     OW 2486   1.076   2.545   3.326
  823SOL    HW1 2487   0.996   2.484   3.329
  823SOL    HW2 2488   1.157   2.492   3.302
  824SOL     OW 2489   1.227   3.432   2.655
  824SOL    HW1 2490   1.248   3.506   2.590
  824SOL    HW2 2491   1.295   3.432   2.728
  825SOL     OW 2492   0.459   3.014   2.603
  825SOL    HW1 2493   0.388   2.987   2.668
  825SOL    HW2 2494   0.433   2.986   2.510
  826SOL     OW 2495   1.271   3.659   2.453
  826SOL    HW1 2496   1.315   3.723   2.389
  826SOL    HW2 2497   1.221   3.711   2.523
  827SOL     OW 2498   1.032   2.411   1.878
  827SOL    HW1 2499   0.991   2.493   1.839
  827SOL    HW2 2500   1.096   2.437   1.951
  828SOL     OW 2501   0.078   2.418   3.248
  828SOL    HW1 2502   0.170   2.417   3.207
  828SOL    HW2 2503   0.072   2.492   3.315
  829SOL     OW 2504   0.561   2.084   3.009
  829SOL    HW1 2505   0.599   2.000   3.046
  829SOL    HW2 2506   0.473   2.103   3.053
  830SOL     OW 2507   0.866   2.316   2.504
  830SOL    HW1 2508   0.834   2.388   2.442
  830SOL    HW2 2509   0.890   2.235   2.451
  831SOL     OW 2510   1.017   1.901   2.615
  831SOL    HW1 2511   0.945   1.906   2.546
  831SOL    HW2 2512   0.993   1.832   2.684
  832SOL     OW 2513   1.429   3.035   2.729
  832SOL    HW1 2514   1.374   2.951   2.722
  832SOL    HW2 2515   1.455   3.064   2.637
  833SOL     OW 2516   1.466   2.452   2.854
  833SOL    HW1 2517   1.436   2.357   2.861
  833SOL    HW2 2518   1.539   2.468   2.920
  834SOL     OW 2519   1.857   2.695   2.239
  834SOL    HW1 2520   1.899   2.631   2.303
  834SOL    HW2 2521   1.819   2.644   2.161
  835SOL     OW 2522   0.488   3.247   2.036
  835SOL    HW1 2523   0.401   3.232   2.083
  835SOL    HW2 2524   0.471   3.273   1.941
  836SOL     OW 2525   1.664   3.142   2.519
  836SOL    HW1 2526   1.763   3.150   2.533
  836SOL    HW2 2527   1.619   3.226   2.550
  837SOL     OW 2528   1.390   2.437   1.940
  837SOL    HW1 2529   1.336   2.416   2.021
  837SOL    HW2 2530   1.481   2.396   1.949
  838SOL     OW 2531   0.527   2.118   2.190
  838SOL    HW1 2532   0.554   2.059   2.115
  838SOL    HW2 2533   0.527   2.213   2.159
  839SOL     OW 2534   1.754   3.085   3.450
  839SOL    HW1 2535   1.845   3.046   3.437
  839SOL    HW2 2536   1.762   3.181   3.474
  840SOL     OW 2537   1.064   3.209   3.202
  840SOL    HW1 2538   0.984   3.186   3.257
  840SOL    HW2 2539   1.147   3.183   3.251
  841SOL     OW 2540   1.592   3.491   3.487
  841SOL    HW1 2541   1.619   3.525   3.397
  841SOL    HW2 2542   1.671   3.453   3.533
  842SOL     OW 2543   1.111   3.057   2.962
  842SOL    HW1 2544   1.071   3.101   3.043
  842SOL    HW2 2545   1.070   3.094   2.879
  843SOL     OW 2546   1.638   2.961   2.941
  843SOL    HW1 2547   1.643   3.042   3.000
  843SOL    HW2 2548   1.552   2.963   2.890
  844SOL     OW 2549   0.915   1.951   3.264
  844SOL    HW1 2550   0.940   1.931   3.169
  844SOL    HW2 2551   0.987   2.007   3.306
  845SOL     OW 2552   0.980   2.978   3.581
  845SOL    HW1 2553   0.881   2.984   3.591
  845SOL    HW2 2554   1.003   2.898   3.525
  846SOL     OW 2555   0.705   2.912   2.230
  846SOL    HW1 2556   0.691   2.919   2.329
  846SOL    HW2 2557   0.789   2.861   2.212
  847SOL     OW 2558   0.410   2.675   3.113
  847SOL    HW1 2559   0.496   2.687   3.163
  847SOL    HW2 2560   0.368   2.588   3.140
  848SOL     OW 2561   1.274   2.248   3.124
  848SOL    HW1 2562   1.295   2.322   3.188
  848SOL    HW2 2563   1.185   2.265   3.081
  849SOL     OW 2564   0.064   3.426   3.193
  849SOL    HW1 2565   0.018   3.508   3.159
  849SOL    HW2 2566   0.162   3.445   3.202
  850SOL     OW 2567   0.367   2.962   2.363
  850SOL    HW1 2568   0.360   3.045   2.307
  850SOL    HW2 2569   0.371   2.882   2.303
  851SOL     OW 2570   0.566   2.399   2.727
  851SOL    HW1 2571   0.578   2.465   2.653
  851SOL    HW2 2572   0.612   2.433   2.810
  852SOL     OW 2573   1.252   3.210   2.250
  852SOL    HW1 2574   1.302   3.287   2.290
  852SOL    HW2 2575   1.157   3.212   2.282
  853SOL     OW 2576   1.272   3.307   3.004
  853SOL    HW1 2577   1.319   3.320   3.091
  853SOL    HW2 2578   1.206   3.233   3.013
  854SOL     OW 2579   1.582   2.501   2.334
  854SOL    HW1 2580   1.551   2.562   2.407
  854SOL    HW2 2581   1.632   2.553   2.265
  855SOL     OW 2582   0.354   3.372   3.191
  855SOL    HW1 2583   0.333   3.328   3.104
  855SOL    HW2 2584   0.451   3.398   3.194
  856SOL     OW 2585   0.402   2.613   3.460
  856SOL    HW1 2586   0.470   2.668   3.413
  856SOL    HW2 2587   0.442   2.525   3.487
  857SOL     OW 2588   1.587   2.641   3.532
  857SOL    HW1 2589   1.495   2.679   3.527
  857SOL    HW2 2590   1.647   2.688   3.467
  858SOL     OW 2591   1.013   1.967   3.632
  858SOL    HW1 2592   1.019   2.052   3.580
  858SOL    HW2 2593   1.045   1.891   3.575
  859SOL     OW 2594   0.504   1.912   3.602
  859SOL    HW1 2595   0.462   1.855   3.532
  859SOL    HW2 2596   0.438   1.981   3.634
  860SOL     OW 2597   0.573   2.732   2.891
  860SOL    HW1 2598   0.617   2.821   2.882
  860SOL    HW2 2599   0.510   2.732   2.968
  861SOL     OW 2600   1.360   2.724   2.907
  861SOL    HW1 2601   1.285   2.724   2.841
  861SOL    HW2 2602   1.397   2.632   2.916
  862SOL     OW 2603   1.209   2.387   2.137
  862SOL    HW1 2604   1.222   2.303   2.191
  862SOL    HW2 2605   1.180   2.461   2.197
  863SOL     OW 2606   0.307   2.075   3.093
  863SOL    HW1 2607   0.284   2.112   3.183
  863SOL    HW2 2608   0.277   1.980   3.087
  864SOL     OW 2609   0.037   3.172   3.144
  864SOL    HW1 2610   0.090   3.123   3.212
  864SOL    HW2 2611   0.059   3.270   3.149
  865SOL     OW 2612   0.732   2.496   2.926
  865SOL    HW1 2613   0.791   2.470   2.850
  865SOL    HW2 2614   0.704   2.592   2.915
  866SOL     OW 2615   1.728   2.797   3.716
  866SOL    HW1 2616   1.682   2.790   3.627
  866SOL    HW2 2617   1.666   2.841   3.782
  867SOL     OW 2618   0.307   1.925   2.480
  867SOL    HW1 2619   0.296   2.019   2.513
  867SOL    HW2 2620   0.302   1.862   2.557
  868SOL     OW 2621   1.622   2.229   2.236
  868SOL    HW1 2622   1.624   2.153   2.300
  868SOL    HW2 2623   1.574   2.306   2.276
  869SOL     OW 2624   1.023   2.628   2.828
  869SOL    HW1 2625   1.038   2.649   2.924
  869SOL    HW2 2626   0.993   2.533   2.819
  870SOL     OW 2627   0.980   3.435   3.562
  870SOL    HW1 2628   0.960   3.479   3.474
  870SOL    HW2 2629   1.019   3.344   3.546
  871SOL     OW 2630   1.859   3.380   3.467
  871SOL    HW1 2631   1.873   3.407   3.372
  871SOL    HW2 2632   1.942   3.402   3.520
  872SOL     OW 2633   0.350   2.760   3.666
  872SOL    HW1 2634   0.426   2.804   3.714
  872SOL    HW2 2635   0.385   2.713   3.584
  873SOL     OW 2636   1.540   2.136   1.987
  873SOL    HW1 2637   1.479   2.061   2.010
  873SOL    HW2 2638   1.562   2.188   2.070
  874SOL     OW 2639   1.303   2.700   1.904
  874SOL    HW1 2640   1.337   2.607   1.919
  874SOL    HW2 2641   1.321   2.727   1.809
  875SOL     OW 2642   1.068   3.195   2.711
  875SOL    HW1 2643   1.075   3.111   2.656
  875SOL    HW2 2644   1.130   3.264   2.675
  876SOL     OW 2645   0.319   2.672   2.811
  876SOL    HW1 2646   0.412   2.708   2.816
  876SOL    HW2 2647   0.313   2.587   2.863
  877SOL     OW 2648   0.339   2.371   2.868
  877SOL    HW1 2649   0.287   2.288   2.851
  877SOL    HW2 2650   0.416   2.376   2.804
  878SOL     OW 2651   1.138   2.242   3.540
  878SOL    HW1 2652   1.093   2.305   3.604
  878SOL    HW2 2653   1.231   2.273   3.523
  879SOL     OW 2654   1.160   2.069   3.339
  879SOL    HW1 2655   1.160   2.133   3.416
  879SOL    HW2 2656   1.188   2.117   3.256
  880SOL     OW 2657   0.008   3.188   2.062
  880SOL    HW1 2658  -0.085   3.209   2.031
  880SOL    HW2 2659   0.018   3.089   2.075
  881SOL     OW 2660   0.088   3.663   2.789
  881SOL    HW1 2661   0.046   3.577   2.762
  881SOL    HW2 2662   0.182   3.666   2.755
  882SOL     OW 2663   0.504   3.430   2.772
  882SOL    HW1 2664   0.570   3.504   2.781
  882SOL    HW2 2665   0.548   3.351   2.730
  883SOL     OW 2666   1.002   2.658   3.100
  883SOL    HW1 2667   1.043   2.626   3.186
  883SOL    HW2 2668   0.906   2.631   3.097
  884SOL     OW 2669   0.040   2.406   2.976
  884SOL    HW1 2670   0.125   2.373   2.935
  884SOL    HW2 2671   0.053   2.421   3.074
  885SOL     OW 2672   0.189   2.382   3.584
  885SOL    HW1 2673   0.248   2.342   3.514
  885SOL    HW2 2674   0.131   2.453   3.543
  886SOL     OW 2675   1.369   2.812   3.522
  886SOL    HW1 2676   1.408   2.901   3.542
  886SOL    HW2 2677   1.379   2.792   3.425
  887SOL     OW 2678   0.815   2.434   2.187
  887SOL    HW1 2679   0.822   2.345   2.141
  887SOL    HW2 2680   0.721   2.468   2.179
  888SOL     OW 2681   1.657   2.466   3.068
  888SOL    HW1 2682   1.619   2.397   3.130
  888SOL    HW2 2683   1.739   2.430   3.024
  889SOL     OW 2684   0.252   3.426   3.606
  889SOL    HW1 2685   0.222   3.483   3.682
  889SOL    HW2 2686   0.245   3.329   3.632
  890SOL     OW 2687   0.671   2.326   3.131
  890SOL    HW1 2688   0.637   2.237   3.101
  890SOL    HW2 2689   0.697   2.380   3.051
  891SOL     OW 2690   0.930   3.540   3.327
  891SOL    HW1 2691   0.906   3.522   3.232
  891SOL    HW2 2692   0.960   3.634   3.337
  892SOL     OW 2693   0.473   2.362   2.053
  892SOL    HW1 2694   0.534   2.442   2.057
  892SOL    HW2 2695   0.378   2.393   2.060
  893SOL     OW 2696   0.159   2.999   3.328
  893SOL    HW1 2697   0.181   2.938   3.404
  893SOL    HW2 2698   0.169   2.950   3.242
  894SOL     OW 2699   1.347   2.921   3.096
  894SOL    HW1 2700   1.371   2.858   3.022
  894SOL    HW2 2701   1.257   2.961   3.078
  895SOL     OW 2702   1.302   2.717   2.171
  895SOL    HW1 2703   1.216   2.686   2.213
  895SOL    HW2 2704   1.298   2.703   2.072
  896SOL     OW 2705   1.759   3.609   3.016
  896SOL    HW1 2706   1.820   3.639   2.943
  896SOL    HW2 2707   1.721   3.520   2.994
  897SOL     OW 2708   1.252   3.593   2.990
  897SOL    HW1 2709   1.336   3.598   2.936
  897SOL    HW2 2710   1.229   3.497   3.008
  898SOL     OW 2711   0.083   3.120   2.884
  898SOL    HW1 2712   0.078   3.119   2.984
  898SOL    HW2 2713   0.000   3.079   2.846
  899SOL     OW 2714   0.688   3.524   3.578
  899SOL    HW1 2715   0.632   3.605   3.587
  899SOL    HW2 2716   0.740   3.528   3.492
  900SOL     OW 2717   1.726   1.997   2.385
  900SOL    HW1 2718   1.799   1.980   2.318
  900SOL    HW2 2719   1.695   1.910   2.423
  901SOL     OW 2720   1.388   3.435   2.339
  901SOL    HW1 2721   1.455   3.447   2.265
  901SOL    HW2 2722   1.348   3.524   2.362
  902SOL     OW 2723   0.130   3.656   3.713
  902SOL    HW1 2724   0.089   3.582   3.766
  902SOL    HW2 2725   0.194   3.707   3.771
  903SOL     OW 2726   1.280   2.789   2.534
  903SOL    HW1 2727   1.340   2.708   2.536
  903SOL    HW2 2728   1.320   2.858   2.474
  904SOL     OW 2729   0.830   3.135   3.284
  904SOL    HW1 2730   0.825   3.168   3.379
  904SOL    HW2 2731   0.744   3.154   3.238
  905SOL     OW 2732   0.672   3.478   2.016
  905SOL    HW1 2733   0.681   3.488   1.917
  905SOL    HW2 2734   0.632   3.389   2.037
  906SOL     OW 2735   1.650   3.582   3.256
  906SOL    HW1 2736   1.703   3.592   3.172
  906SOL    HW2 2737   1.623   3.672   3.290
  907SOL     OW 2738   1.841   2.037   2.825
  907SOL    HW1 2739   1.880   1.952   2.789
  907SOL    HW2 2740   1.743   2.039   2.806
  908SOL     OW 2741   0.263   2.188   2.582
  908SOL    HW1 2742   0.184   2.239   2.548
  908SOL    HW2 2743   0.254   2.173   2.680
  909SOL     OW 2744   1.194   3.474   1.893
  909SOL    HW1 2745   1.200   3.381   1.930
  909SOL    HW2 2746   1.135   3.474   1.813
  910SOL     OW 2747   0.822   2.864   3.234
  910SOL    HW1 2748   0.862   2.863   3.142
  910SOL    HW2 2749   0.832   2.956   3.274
  911SOL     OW 2750   0.916   2.772   2.153
  911SOL    HW1 2751   0.979   2.810   2.085
  911SOL    HW2 2752   0.956   2.689   2.192
  912SOL     OW 2753   1.504   3.469   1.906
  912SOL    HW1 2754   1.412   3.506   1.913
  912SOL    HW2 2755   1.542   3.489   1.816
  913SOL     OW 2756   0.372   3.150   3.352
  913SOL    HW1 2757   0.359   3.243   3.318
  913SOL    HW2 2758   0.288   3.098   3.339
  914SOL     OW 2759   1.614   3.154   3.151
  914SOL    HW1 2760   1.674   3.157   3.231
  914SOL    HW2 2761   1.539   3.218   3.164
  915SOL     OW 2762   1.039   2.960   2.558
  915SOL    HW1 2763   0.969   2.913   2.612
  915SOL    HW2 2764   1.098   2.892   2.515
  916SOL     OW 2765   1.014   2.098   2.833
  916SOL    HW1 2766   1.006   2.062   2.740
  916SOL    HW2 2767   1.012   2.022   2.898
  917SOL     OW 2768   0.590   3.349   2.353
  917SOL    HW1 2769   0.632   3.291   2.283
  917SOL    HW2 2770   0.546   3.428   2.309
  918SOL     OW 2771   1.709   2.247   3.243
  918SOL    HW1 2772   1.782   2.316   3.247
  918SOL    HW2 2773   1.737   2.172   3.184
  919SOL     OW 2774   0.255   3.210   2.152
  919SOL    HW1 2775   0.159   3.211   2.125
  919SOL    HW2 2776   0.267   3.263   2.236
  920SOL     OW 2777   0.105   2.875   3.588
  920SOL    HW1 2778   0.028   2.842   3.642
  920SOL    HW2 2779   0.190   2.845   3.630
  921SOL     OW 2780   0.672   2.065   3.351
  921SOL    HW1 2781   0.762   2.049   3.311
  921SOL    HW2 2782   0.680   2.070   3.450
  922SOL     OW 2783   0.075   2.207   1.895
  922SOL    HW1 2784  -0.017   2.179   1.866
  922SOL    HW2 2785   0.106   2.284   1.839
  923SOL     OW 2786   1.440   2.718   3.260
  923SOL    HW1 2787   1.383   2.770   3.197
  923SOL    HW2 2788   1.536   2.730   3.236
  924SOL     OW 2789   0.072   2.028   2.180
  924SOL    HW1 2790   0.055   2.111   2.126
  924SOL    HW2 2791   0.162   1.991   2.158
  925SOL     OW 2792   1.183   3.197   1.981
  925SOL    HW1 2793   1.084   3.186   1.983
  925SOL    HW2 2794   1.217   3.212   2.074
  926SOL     OW 2795   0.613   2.704   3.293
  926SOL    HW1 2796   0.669   2.785   3.276
  926SOL    HW2 2797   0.672   2.624   3.296
  927SOL     OW 2798   1.493   3.629   2.821
  927SOL    HW1 2799   1.526   3.693   2.752
  927SOL    HW2 2800   1.559   3.623   2.896
  928SOL     OW 2801   0.716   2.427   3.570
  928SOL    HW1 2802   0.735   2.492   3.644
  928SOL    HW2 2803   0.776   2.347   3.579
  929SOL     OW 2804   1.450   3.082   3.495
  929SOL    HW1 2805   1.441   3.072   3.594
  929SOL    HW2 2806   1.546   3.075   3.469
  930SOL     OW 2807   0.390   3.603   3.422
  930SOL    HW1 2808   0.299   3.644   3.420
  930SOL    HW2 2809   0.383   3.509   3.454
  931SOL     OW 2810   1.674   2.745   3.116
  931SOL    HW1 2811   1.647   2.656   3.079
  931SOL    HW2 2812   1.675   2.813   3.043
  932SOL     OW 2813   1.225   2.187   2.311
  932SOL    HW1 2814   1.290   2.113   2.300
  932SOL    HW2 2815   1.245   2.237   2.395
  933SOL     OW 2816   0.594   2.607   2.514
  933SOL    HW1 2817   0.644   2.692   2.495
  933SOL    HW2 2818   0.506   2.609   2.466
  934SOL     OW 2819   1.777   2.204   3.504
  934SOL    HW1 2820   1.760   2.235   3.410
  934SOL    HW2 2821   1.693   2.167   3.542
  935SOL     OW 2822   1.730   2.796   3.379
  935SOL    HW1 2823   1.768   2.887   3.394
  935SOL    HW2 2824   1.722   2.779   3.280
  936SOL     OW 2825   0.859   3.236   1.878
  936SOL    HW1 2826   0.813   3.251   1.966
  936SOL    HW2 2827   0.903   3.321   1.848
  937SOL     OW 2828   0.661   3.652   2.815
  937SOL    HW1 2829   0.615   3.740   2.802
  937SOL    HW2 2830   0.760   3.664   2.808
  938SOL     OW 2831   0.859   2.818   2.723
  938SOL    HW1 2832   0.913   2.749   2.771
  938SOL    HW2 2833   0.827   2.887   2.789
  939SOL     OW 2834   1.083   2.846   1.949
  939SOL    HW1 2835   1.060   2.899   1.867
  939SOL    HW2 2836   1.164   2.790   1.930
  940SOL     OW 2837   1.861   3.431   2.713
  940SOL    HW1 2838   1.790   3.419   2.643
  940SOL    HW2 2839   1.862   3.352   2.773
  941SOL     OW 2840   0.221   3.176   3.706
  941SOL    HW1 2841   0.156   3.103   3.685
  941SOL    HW2 2842   0.225   3.190   3.804
  942SOL     OW 2843   0.079   3.102   2.515
  942SOL    HW1 2844   0.078   3.055   2.603
  942SOL    HW2 2845   0.161   3.074   2.464
  943SOL     OW 2846   0.672   3.253   3.486
  943SOL    HW1 2847   0.594   3.203   3.524
  943SOL    HW2 2848   0.669   3.348   3.517
  944SOL     OW 2849   1.824   2.054   3.089
  944SOL    HW1 2850   1.820   1.964   3.133
  944SOL    HW2 2851   1.827   2.043   2.990
  945SOL     OW 2852   0.428   2.286   2.382
  945SOL    HW1 2853   0.458   2.214   2.320
  945SOL    HW2 2854   0.389   2.246   2.465
  946SOL     OW 2855   1.705   3.349   2.966
  946SOL    HW1 2856   1.612   3.324   2.939
  946SOL    HW2 2857   1.731   3.299   3.048
  947SOL     OW 2858   0.317   2.409   3.142
  947SOL    HW1 2859   0.355   2.350   3.214
  947SOL    HW2 2860   0.357   2.383   3.054
  948SOL     OW 2861   0.812   3.448   2.549
  948SOL    HW1 2862   0.844   3.458   2.455
  948SOL    HW2 2863   0.733   3.386   2.551
  949SOL     OW 2864   1.424   2.076   2.974
  949SOL    HW1 2865   1.476   2.011   3.029
  949SOL    HW2 2866   1.375   2.139   3.035
  950SOL     OW 2867   1.001   1.896   3.016
  950SOL    HW1 2868   0.938   1.824   2.985
  950SOL    HW2 2869   1.094   1.860   3.016
  951SOL     OW 2870   0.770   3.192   2.163
  951SOL    HW1 2871   0.724   3.105   2.180
  951SOL    HW2 2872   0.861   3.189   2.204
  952SOL     OW 2873   0.618   3.429   3.146
  952SOL    HW1 2874   0.613   3.511   3.203
  952SOL    HW2 2875   0.707   3.426   3.101
  953SOL     OW 2876   1.352   1.914   2.030
  953SOL    HW1 2877   1.387   1.873   1.946
  953SOL    HW2 2878   1.262   1.876   2.050
  954SOL     OW 2879   1.300   2.315   2.553
  954SOL    HW1 2880   1.241   2.395   2.557
  954SOL    HW2 2881   1.315   2.280   2.646
  955SOL     OW 2882   1.593   2.083   2.744
  955SOL    HW1 2883   1.509   2.082   2.798
  955SOL    HW2 2884   1.595   2.166   2.688
  956SOL     OW 2885   0.039   2.939   2.162
  956SOL    HW1 2886   0.138   2.928   2.153
  956SOL    HW2 2887  -0.001   2.853   2.194
  957SOL     OW 2888   0.875   3.508   2.199
  957SOL    HW1 2889   0.798   3.473   2.145
  957SOL    HW2 2890   0.843   3.579   2.261
  958SOL     OW 2891   0.230   2.490   3.837
  958SOL    HW1 2892   0.137   2.488   3.874
  958SOL    HW2 2893   0.231   2.451   3.745
  959SOL     OW 2894   0.019   2.230   4.371
  959SOL    HW1 2895  -0.063   2.273   4.410
  959SOL    HW2 2896  -0.009   2.157   4.308
  960SOL     OW 2897   1.555   3.373   4.427
  960SOL    HW1 2898   1.498   3.357   4.508
  960SOL    HW2 2899   1.496   3.383   4.347
  961SOL     OW 2900   1.135   2.565   4.441
  961SOL    HW1 2901   1.192   2.643   4.416
  961SOL    HW2 2902   1.075   2.591   4.517
  962SOL     OW 2903   1.755   2.469   3.955
  962SOL    HW1 2904   1.743   2.456   3.856
  962SOL    HW2 2905   1.725   2.388   4.004
  963SOL     OW 2906   0.685   2.874   4.389
  963SOL    HW1 2907   0.754   2.858   4.459
  963SOL    HW2 2908   0.612   2.931   4.427
  964SOL     OW 2909   1.603   2.309   4.461
  964SOL    HW1 2910   1.529   2.355   4.411
  964SOL    HW2 2911   1.654   2.377   4.514
  965SOL     OW 2912   0.231   3.575   4.207
  965SOL    HW1 2913   0.265   3.652   4.261
  965SOL    HW2 2914   0.275   3.575   4.117
  966SOL     OW 2915   0.230   3.296   4.262
  966SOL    HW1 2916   0.204   3.392   4.262
  966SOL    HW2 2917   0.159   3.242   4.307
  967SOL     OW 2918   0.240   2.953   4.610
  967SOL    HW1 2919   0.254   2.869   4.662
  967SOL    HW2 2920   0.185   3.017   4.665
  968SOL     OW 2921   0.606   2.826   3.847
  968SOL    HW1 2922   0.613   2.910   3.793
  968SOL    HW2 2923   0.652   2.839   3.935
  969SOL     OW 2924   0.122   2.505   4.287
  969SOL    HW1 2925   0.077   2.417   4.304
  969SOL    HW2 2926   0.121   2.559   4.371
  970SOL     OW 2927   1.842   3.629   4.083
  970SOL    HW1 2928   1.896   3.600   4.163
  970SOL    HW2 2929   1.872   3.719   4.054
  971SOL     OW 2930   0.027   3.458   3.841
  971SOL    HW1 2931   0.008   3.362   3.862
  971SOL    HW2 2932  -0.006   3.516   3.916
  972SOL     OW 2933   1.689   2.784   4.336
  972SOL    HW1 2934   1.784   2.755   4.344
  972SOL    HW2 2935   1.681   2.849   4.261
  973SOL     OW 2936   1.641   2.970   4.156
  973SOL    HW1 2937   1.727   2.972   4.104
  973SOL    HW2 2938   1.655   3.017   4.244
  974SOL     OW 2939   0.613   3.227   4.450
  974SOL    HW1 2940   0.564   3.140   4.459
  974SOL    HW2 2941   0.590   3.270   4.363
  975SOL     OW 2942   0.809   1.866   4.226
  975SOL    HW1 2943   0.849   1.957   4.217
  975SOL    HW2 2944   0.709   1.874   4.232
  976SOL     OW 2945   1.525   2.861   3.914
  976SOL    HW1 2946   1.462   2.785   3.927
  976SOL    HW2 2947   1.573   2.879   4.000
  977SOL     OW 2948   1.466   3.279   4.677
  977SOL    HW1 2949   1.407   3.285   4.757
  977SOL    HW2 2950   1.451   3.191   4.631
  978SOL     OW 2951   1.667   3.576   4.296
  978SOL    HW1 2952   1.626   3.553   4.208
  978SOL    HW2 2953   1.649   3.502   4.361
  979SOL     OW 2954   0.598   2.591   3.994
  979SOL    HW1 2955   0.622   2.660   3.926
  979SOL    HW2 2956   0.520   2.624   4.048
  980SOL     OW 2957   1.281   2.207   4.668
  980SOL    HW1 2958   1.195   2.157   4.655
  980SOL    HW2 2959   1.343   2.153   4.724
  981SOL     OW 2960   1.576   3.524   4.031
  981SOL    HW1 2961   1.665   3.570   4.034
  981SOL    HW2 2962   1.555   3.500   3.936
  982SOL     OW 2963   1.041   2.563   4.153
  982SOL    HW1 2964   1.067   2.559   4.249
  982SOL    HW2 2965   0.956   2.512   4.139
  983SOL     OW 2966   0.076   2.673   4.513
  983SOL    HW1 2967   0.175   2.661   4.522
  983SOL    HW2 2968   0.052   2.768   4.534
  984SOL     OW 2969   0.865   2.210   3.919
  984SOL    HW1 2970   0.924   2.273   3.870
  984SOL    HW2 2971   0.884   2.116   3.890
  985SOL     OW 2972   1.362   3.006   4.269
  985SOL    HW1 2973   1.445   2.977   4.221
  985SOL    HW2 2974   1.313   3.073   4.213
  986SOL     OW 2975   0.550   2.058   4.609
  986SOL    HW1 2976   0.545   2.053   4.709
  986SOL    HW2 2977   0.552   2.154   4.580
  987SOL     OW 2978   1.008   3.318   4.201
  987SOL    HW1 2979   0.962   3.390   4.149
  987SOL    HW2 2980   1.004   3.338   4.299
  988SOL     OW 2981   0.351   3.663   4.577
  988SOL    HW1 2982   0.401   3.577   4.583
  988SOL    HW2 2983   0.416   3.740   4.574
  989SOL     OW 2984   1.795   2.928   4.597
  989SOL    HW1 2985   1.733   2.913   4.521
  989SOL    HW2 2986   1.743   2.939   4.682
  990SOL     OW 2987   0.321   2.805   3.966
  990SOL    HW1 2988   0.403   2.844   3.924
  990SOL    HW2 2989   0.294   2.723   3.917
  991SOL     OW 2990   1.458   2.597   4.452
  991SOL    HW1 2991   1.453   2.532   4.527
  991SOL    HW2 2992   1.538   2.656   4.465
  992SOL     OW 2993   1.111   3.638   3.961
  992SOL    HW1 2994   1.051   3.576   4.011
  992SOL    HW2 2995   1.142   3.594   3.876
  993SOL     OW 2996   1.632   3.239   3.805
  993SOL    HW1 2997   1.600   3.333   3.795
  993SOL    HW2 2998   1.556   3.176   3.793
  994SOL     OW 2999   0.464   3.605   4.047
  994SOL    HW1 3000   0.497   3.644   4.133
  994SOL    HW2 3001   0.540   3.598   3.982
  995SOL     OW 3002   1.400   1.969   4.150
  995SOL    HW1 3003   1.376   1.932   4.060
  995SOL    HW2 3004   1.499   1.985   4.154
  996SOL     OW 3005   0.382   2.562   4.204
  996SOL    HW1 3006   0.427   2.472   4.201
  996SOL    HW2 3007   0.288   2.551   4.237
  997SOL     OW 3008   0.614   1.984   3.841
  997SOL    HW1 3009   0.712   1.962   3.848
  997SOL    HW2 3010   0.583   1.967   3.748
  998SOL     OW 3011   0.539   1.926   4.236
  998SOL    HW1 3012   0.458   1.927   4.294
  998SOL    HW2 3013   0.542   2.009   4.181
  999SOL     OW 3014   1.434   3.050   3.765
  999SOL    HW1 3015   1.466   2.974   3.822
  999SOL    HW2 3016   1.342   3.077   3.795
 1000SOL     OW 3017   0.297   1.897   3.895
 1000SOL    HW1 3018   0.346   1.981   3.874
 1000SOL    HW2 3019   0.359   1.832   3.940
 1001SOL     OW 3020   0.935   2.098   4.204
 1001SOL    HW1 3021   0.887   2.139   4.126
 1001SOL    HW2 3022   1.034   2.096   4.185
 1002SOL     OW 3023   1.227   3.432   4.517
 1002SOL    HW1 3024   1.248   3.506   4.452
 1002SOL    HW2 3025   1.295   3.432   4.590
 1003SOL     OW 3026   0.459   3.014   4.465
 1003SOL    HW1 3027   0.388   2.987   4.530
 1003SOL    HW2 3028   0.433   2.986   4.372
 1004SOL     OW 3029   1.271   3.659   4.315
 1004SOL    HW1 3030   1.315   3.723   4.251
 1004SOL    HW2 3031   1.221   3.711   4.385
 1005SOL     OW 3032   1.032   2.411   3.740
 1005SOL    HW1 3033   0.991   2.493   3.701
 1005SOL    HW2 3034   1.096   2.437   3.813
 1006SOL     OW 3035   0.866   2.316   4.366
 1006SOL    HW1 3036   0.834   2.388   4.304
 1006SOL    HW2 3037   0.890   2.235   4.313
 1007SOL     OW 3038   1.017   1.901   4.477
 1007SOL    HW1 3039   0.945   1.906   4.408
 1007SOL    HW2 3040   0.993   1.832   4.546
 1008SOL     OW 3041   1.857   2.695   4.101
 1008SOL    HW1 3042   1.899   2.631   4.165
 1008SOL    HW2 3043   1.819   2.644   4.023
 1009SOL     OW 3044   0.488   3.247   3.898
 1009SOL    HW1 3045   0.401   3.232   3.945
 1009SOL    HW2 3046   0.471   3.273   3.803
 1010SOL     OW 3047   1.664   3.142   4.381
 1010SOL    HW1 3048   1.763   3.150   4.395
 1010SOL    HW2 3049   1.619   3.226   4.412
 1011SOL     OW 3050   1.390   2.437   3.802
 1011SOL    HW1 3051   1.336   2.416   3.883
 1011SOL    HW2 3052   1.481   2.396   3.811
 1012SOL     OW 3053   0.527   2.118   4.052
 1012SOL    HW1 3054   0.554   2.059   3.977
 1012SOL    HW2 3055   0.527   2.213   4.021
 1013SOL     OW 3056   0.705   2.912   4.092
 1013SOL    HW1 3057   0.691   2.919   4.191
 1013SOL    HW2 3058   0.789   2.861   4.074
 1014SOL     OW 3059   0.367   2.962   4.225
 1014SOL    HW1 3060   0.360   3.045   4.169
 1014SOL    HW2 3061   0.371   2.882   4.165
 1015SOL     OW 3062   0.566   2.399   4.589
 1015SOL    HW1 3063   0.578   2.465   4.515
 1015SOL    HW2 3064   0.612   2.433   4.672
 1016SOL     OW 3065   1.252   3.210   4.112
 1016SOL    HW1 3066   1.302   3.287   4.152
 1016SOL    HW2 3067   1.157   3.212   4.144
 1017SOL     OW 3068   1.582   2.501   4.196
 1017SOL    HW1 3069   1.551   2.562   4.269
 1017SOL    HW2 3070   1.632   2.553   4.127
 1018SOL     OW 3071   1.209   2.387   3.999
 1018SOL    HW1 3072   1.222   2.303   4.053
 1018SOL    HW2 3073   1.180   2.461   4.059
 1019SOL     OW 3074   0.732   2.496   4.788
 1019SOL    HW1 3075   0.791   2.470   4.712
 1019SOL    HW2 3076   0.704   2.592   4.777
 1020SOL     OW 3077   0.307   1.925   4.342
 1020SOL    HW1 3078   0.296   2.019   4.375
 1020SOL    HW2 3079   0.302   1.862   4.419
 1021SOL     OW 3080   1.622   2.229   4.098
 1021SOL    HW1 3081   1.624   2.153   4.162
 1021SOL    HW2 3082   1.574   2.306   4.138
 1022SOL     OW 3083   1.540   2.136   3.849
 1022SOL    HW1 3084   1.479   2.061   3.872
 1022SOL    HW2 3085   1.562   2.188   3.932
 1023SOL     OW 3086   1.303   2.700   3.766
 1023SOL    HW1 3087   1.337   2.607   3.781
 1023SOL    HW2 3088   1.321   2.727   3.671
 1024SOL     OW 3089   1.068   3.195   4.573
 1024SOL    HW1 3090   1.075   3.111   4.518
 1024SOL    HW2 3091   1.130   3.264   4.537
 1025SOL     OW 3092   0.319   2.672   4.673
 1025SOL    HW1 3093   0.412   2.708   4.678
 1025SOL    HW2 3094   0.313   2.587   4.725
 1026SOL     OW 3095   0.008   3.188   3.924
 1026SOL    HW1 3096  -0.085   3.209   3.893
 1026SOL    HW2 3097   0.018   3.089   3.937
 1027SOL     OW 3098   0.088   3.663   4.651
 1027SOL    HW1 3099   0.046   3.577   4.624
 1027SOL    HW2 3100   0.182   3.666   4.617
 1028SOL     OW 3101   0.504   3.430   4.634
 1028SOL    HW1 3102   0.570   3.504   4.643
 1028SOL    HW2 3103   0.548   3.351   4.592
 1029SOL     OW 3104   0.815   2.434   4.049
 1029SOL    HW1 3105   0.822   2.345   4.003
 1029SOL    HW2 3106   0.721   2.468   4.041
 1030SOL     OW 3107   0.473   2.362   3.915
 1030SOL    HW1 3108   0.534   2.442   3.919
 1030SOL    HW2 3109   0.378   2.393   3.922
 1031SOL     OW 3110   1.302   2.717   4.033
 1031SOL    HW1 3111   1.216   2.686   4.075
 1031SOL    HW2 3112   1.298   2.703   3.934
 1032SOL     OW 3113   1.759   3.609   4.878
 1032SOL    HW1 3114   1.820   3.639   4.805
 1032SOL    HW2 3115   1.721   3.520   4.856
 1033SOL     OW 3116   1.726   1.997   4.247
 1033SOL    HW1 3117   1.799   1.980   4.180
 1033SOL    HW2 3118   1.695   1.910   4.285
 1034SOL     OW 3119   1.388   3.435   4.201
 1034SOL    HW1 3120   1.455   3.447   4.127
 1034SOL    HW2 3121   1.348   3.524   4.224
 1035SOL     OW 3122   1.280   2.789   4.396
 1035SOL    HW1 3123   1.340   2.708   4.398
 1035SOL    HW2 3124   1.320   2.858   4.336
 1036SOL     OW 3125   0.672   3.478   3.878
 1036SOL    HW1 3126   0.681   3.488   3.779
 1036SOL    HW2 3127   0.632   3.389   3.899
 1037SOL     OW 3128   1.841   2.037   4.687
 1037SOL    HW1 3129   1.880   1.952   4.651
 1037SOL    HW2 3130   1.743   2.039   4.668
 1038SOL     OW 3131   0.263   2.188   4.444
 1038SOL    HW1 3132   0.184   2.239   4.410
 1038SOL    HW2 3133   0.254   2.173   4.542
 1039SOL     OW 3134   1.194   3.474   3.755
 1039SOL    HW1 3135   1.200   3.381   3.792
 1039SOL    HW2 3136   1.135   3.474   3.675
 1040SOL     OW 3137   0.916   2.772   4.015
 1040SOL    HW1 3138   0.979   2.810   3.947
 1040SOL    HW2 3139   0.956   2.689   4.054
 1041SOL     OW 3140   1.504   3.469   3.768
 1041SOL    HW1 3141   1.412   3.506   3.775
 1041SOL    HW2 3142   1.542   3.489   3.678
 1042SOL     OW 3143   1.039   2.960   4.420
 1042SOL    HW1 3144   0.969   2.913   4.474
 1042SOL    HW2 3145   1.098   2.892   4.377
 1043SOL     OW 3146   0.590   3.349   4.215
 1043SOL    HW1 3147   0.632   3.291   4.145
 1043SOL    HW2 3148   0.546   3.428   4.171
 1044SOL     OW 3149   0.255   3.210   4.014
 1044SOL    HW1 3150   0.159   3.211   3.987
 1044SOL    HW2 3151   0.267   3.263   4.098
 1045SOL     OW 3152   0.075   2.207   3.757
 1045SOL    HW1 3153  -0.017   2.179   3.728
 1045SOL    HW2 3154   0.106   2.284   3.701
 1046SOL     OW 3155   0.072   2.028   4.042
 1046SOL    HW1 3156   0.055   2.111   3.988
 1046SOL    HW2 3157   0.162   1.991   4.020
 1047SOL     OW 3158   1.183   3.197   3.843
 1047SOL    HW1 3159   1.084   3.186   3.845
 1047SOL    HW2 3160   1.217   3.212   3.936
 1048SOL     OW 3161   1.674   2.745   4.978
 1048SOL    HW1 3162   1.647   2.656   4.941
 1048SOL    HW2 3163   1.675   2.813   4.905
 1049SOL     OW 3164   1.225   2.187   4.173
 1049SOL    HW1 3165   1.290   2.113   4.162
 1049SOL    HW2 3166   1.245   2.237   4.257
 1050SOL     OW 3167   0.594   2.607   4.376
 1050SOL    HW1 3168   0.644   2.692   4.357
 1050SOL    HW2 3169   0.506   2.609   4.328
 1051SOL     OW 3170   0.859   3.236   3.740
 1051SOL    HW1 3171   0.813   3.251   3.828
 1051SOL    HW2 3172   0.903   3.321   3.710
 1052SOL     OW 3173   0.661   3.652   4.677
 1052SOL    HW1 3174   0.615   3.740   4.664
 1052SOL    HW2 3175   0.760   3.664   4.670
 1053SOL     OW 3176   0.859   2.818   4.585
 1053SOL    HW1 3177   0.913   2.749   4.633
 1053SOL    HW2 3178   0.827   2.887   4.651
 1054SOL     OW 3179   1.083   2.846   3.811
 1054SOL    HW1 3180   1.060   2.899   3.729
 1054SOL    HW2 3181   1.164   2.790   3.792
 1055SOL     OW 3182   1.861   3.431   4.575
 1055SOL    HW1 3183   1.790   3.419   4.505
 1055SOL    HW2 3184   1.862   3.352   4.635
 1056SOL     OW 3185   0.079   3.102   4.377
 1056SOL    HW1 3186   0.078   3.055   4.465
 1056SOL    HW2 3187   0.161   3.074   4.326
 1057SOL     OW 3188   0.428   2.286   4.244
 1057SOL    HW1 3189   0.458   2.214   4.182
 1057SOL    HW2 3190   0.389   2.246   4.327
 1058SOL     OW 3191   0.812   3.448   4.411
 1058SOL    HW1 3192   0.844   3.458   4.317
 1058SOL    HW2 3193   0.733   3.386   4.413
 1059SOL     OW 3194   0.770   3.192   4.025
 1059SOL    HW1 3195   0.724   3.105   4.042
 1059SOL    HW2 3196   0.861   3.189   4.066
 1060SOL     OW 3197   1.352   1.914   3.892
 1060SOL    HW1 3198   1.387   1.873   3.808
 1060SOL    HW2 3199   1.262   1.876   3.912
 1061SOL     OW 3200   1.300   2.315   4.415
 1061SOL    HW1 3201   1.241   2.395   4.419
 1061SOL    HW2 3202   1.315   2.280   4.508
 1062SOL     OW 3203   1.593   2.083   4.606
 1062SOL    HW1 3204   1.509   2.082   4.660
 1062SOL    HW2 3205   1.595   2.166   4.550
 1063SOL     OW 3206   0.039   2.939   4.024
 1063SOL    HW1 3207   0.138   2.928   4.015
 1063SOL    HW2 3208  -0.001   2.853   4.056
 1064SOL     OW 3209   0.875   3.508   4.061
 1064SOL    HW1 3210   0.798   3.473   4.007
 1064SOL    HW2 3211   0.843   3.579   4.123
 1065SOL     OW 3212   0.230   4.352   0.113
 1065SOL    HW1 3213   0.137   4.350   0.150
 1065SOL    HW2 3214   0.231   4.313   0.021
 1066SOL     OW 3215   0.225   3.999   0.996
 1066SOL    HW1 3216   0.260   3.982   1.088
 1066SOL    HW2 3217   0.137   3.954   0.984
 1067SOL     OW 3218   0.019   4.092   0.647
 1067SOL    HW1 3219  -0.063   4.135   0.686
 1067SOL    HW2 3220  -0.009   4.019   0.584
 1068SOL     OW 3221   1.135   4.427   0.717
 1068SOL    HW1 3222   1.192   4.505   0.692
 1068SOL    HW2 3223   1.075   4.453   0.793
 1069SOL     OW 3224   1.755   4.331   0.231
 1069SOL    HW1 3225   1.743   4.318   0.132
 1069SOL    HW2 3226   1.725   4.250   0.280
 1070SOL     OW 3227   0.850   4.522   1.823
 1070SOL    HW1 3228   0.846   4.598   1.888
 1070SOL    HW2 3229   0.872   4.558   1.732
 1071SOL     OW 3230   0.685   4.736   0.665
 1071SOL    HW1 3231   0.754   4.720   0.735
 1071SOL    HW2 3232   0.612   4.793   0.703
 1072SOL     OW 3233   0.438   4.116   1.499
 1072SOL    HW1 3234   0.520   4.060   1.508
 1072SOL    HW2 3235   0.357   4.058   1.503
 1073SOL     OW 3236   1.603   4.171   0.737
 1073SOL    HW1 3237   1.529   4.217   0.687
 1073SOL    HW2 3238   1.654   4.239   0.790
 1074SOL     OW 3239   1.594   3.838   1.480
 1074SOL    HW1 3240   1.576   3.905   1.408
 1074SOL    HW2 3241   1.591   3.884   1.569
 1075SOL     OW 3242   0.122   4.367   0.563
 1075SOL    HW1 3243   0.077   4.279   0.580
 1075SOL    HW2 3244   0.121   4.421   0.647
 1076SOL     OW 3245   0.113   4.461   1.597
 1076SOL    HW1 3246   0.201   4.448   1.642
 1076SOL    HW2 3247   0.100   4.558   1.575
 1077SOL     OW 3248   0.809   3.728   0.502
 1077SOL    HW1 3249   0.849   3.819   0.493
 1077SOL    HW2 3250   0.709   3.736   0.508
 1078SOL     OW 3251   1.525   4.723   0.190
 1078SOL    HW1 3252   1.462   4.647   0.203
 1078SOL    HW2 3253   1.573   4.741   0.276
 1079SOL     OW 3254   0.317   3.975   1.801
 1079SOL    HW1 3255   0.388   4.046   1.807
 1079SOL    HW2 3256   0.229   4.014   1.829
 1080SOL     OW 3257   0.598   4.453   0.270
 1080SOL    HW1 3258   0.622   4.522   0.202
 1080SOL    HW2 3259   0.520   4.486   0.324
 1081SOL     OW 3260   1.281   4.069   0.944
 1081SOL    HW1 3261   1.195   4.019   0.931
 1081SOL    HW2 3262   1.343   4.015   1.000
 1082SOL     OW 3263   0.807   4.329   1.465
 1082SOL    HW1 3264   0.760   4.326   1.554
 1082SOL    HW2 3265   0.756   4.274   1.399
 1083SOL     OW 3266   1.394   4.193   1.674
 1083SOL    HW1 3267   1.374   4.236   1.762
 1083SOL    HW2 3268   1.472   4.131   1.683
 1084SOL     OW 3269   0.973   4.614   1.572
 1084SOL    HW1 3270   1.019   4.530   1.543
 1084SOL    HW2 3271   0.917   4.648   1.497
 1085SOL     OW 3272   0.991   4.134   1.242
 1085SOL    HW1 3273   0.914   4.168   1.296
 1085SOL    HW2 3274   0.957   4.083   1.163
 1086SOL     OW 3275   1.041   4.425   0.429
 1086SOL    HW1 3276   1.067   4.421   0.525
 1086SOL    HW2 3277   0.956   4.374   0.415
 1087SOL     OW 3278   0.076   4.535   0.789
 1087SOL    HW1 3279   0.175   4.523   0.798
 1087SOL    HW2 3280   0.052   4.630   0.810
 1088SOL     OW 3281   0.865   4.072   0.195
 1088SOL    HW1 3282   0.924   4.135   0.146
 1088SOL    HW2 3283   0.884   3.978   0.166
 1089SOL     OW 3284   1.719   4.309   1.831
 1089SOL    HW1 3285   1.693   4.398   1.795
 1089SOL    HW2 3286   1.717   4.241   1.758
 1090SOL     OW 3287   0.550   3.920   0.885
 1090SOL    HW1 3288   0.545   3.915   0.985
 1090SOL    HW2 3289   0.552   4.016   0.856
 1091SOL     OW 3290   1.458   4.459   0.728
 1091SOL    HW1 3291   1.453   4.394   0.803
 1091SOL    HW2 3292   1.538   4.518   0.741
 1092SOL     OW 3293   0.202   4.009   1.498
 1092SOL    HW1 3294   0.122   4.069   1.485
 1092SOL    HW2 3295   0.192   3.960   1.584
 1093SOL     OW 3296   1.400   3.831   0.426
 1093SOL    HW1 3297   1.376   3.794   0.336
 1093SOL    HW2 3298   1.499   3.847   0.430
 1094SOL     OW 3299   0.382   4.424   0.480
 1094SOL    HW1 3300   0.427   4.334   0.477
 1094SOL    HW2 3301   0.288   4.413   0.513
 1095SOL     OW 3302   1.547   3.946   1.729
 1095SOL    HW1 3303   1.542   3.983   1.821
 1095SOL    HW2 3304   1.475   3.877   1.717
 1096SOL     OW 3305   0.781   3.988   1.749
 1096SOL    HW1 3306   0.848   3.927   1.792
 1096SOL    HW2 3307   0.708   4.007   1.814
 1097SOL     OW 3308   1.351   4.314   1.433
 1097SOL    HW1 3309   1.379   4.271   1.518
 1097SOL    HW2 3310   1.376   4.410   1.434
 1098SOL     OW 3311   0.922   4.227   0.899
 1098SOL    HW1 3312   0.897   4.218   0.803
 1098SOL    HW2 3313   0.970   4.145   0.930
 1099SOL     OW 3314   0.539   3.788   0.512
 1099SOL    HW1 3315   0.458   3.789   0.570
 1099SOL    HW2 3316   0.542   3.871   0.457
 1100SOL     OW 3317   0.297   3.759   0.171
 1100SOL    HW1 3318   0.346   3.843   0.150
 1100SOL    HW2 3319   0.359   3.694   0.216
 1101SOL     OW 3320   0.935   3.960   0.480
 1101SOL    HW1 3321   0.887   4.001   0.402
 1101SOL    HW2 3322   1.034   3.958   0.461
 1102SOL     OW 3323   1.076   4.407   1.464
 1102SOL    HW1 3324   0.996   4.346   1.467
 1102SOL    HW2 3325   1.157   4.354   1.440
 1103SOL     OW 3326   1.032   4.273   0.016
 1103SOL    HW1 3327   0.991   4.355  -0.023
 1103SOL    HW2 3328   1.096   4.299   0.089
 1104SOL     OW 3329   0.078   4.280   1.386
 1104SOL    HW1 3330   0.170   4.279   1.345
 1104SOL    HW2 3331   0.072   4.354   1.453
 1105SOL     OW 3332   0.561   3.946   1.147
 1105SOL    HW1 3333   0.599   3.862   1.184
 1105SOL    HW2 3334   0.473   3.965   1.191
 1106SOL     OW 3335   0.866   4.178   0.642
 1106SOL    HW1 3336   0.834   4.250   0.580
 1106SOL    HW2 3337   0.890   4.097   0.589
 1107SOL     OW 3338   1.017   3.763   0.753
 1107SOL    HW1 3339   0.945   3.768   0.684
 1107SOL    HW2 3340   0.993   3.694   0.822
 1108SOL     OW 3341   1.466   4.314   0.992
 1108SOL    HW1 3342   1.436   4.219   0.999
 1108SOL    HW2 3343   1.539   4.330   1.058
 1109SOL     OW 3344   1.857   4.557   0.377
 1109SOL    HW1 3345   1.899   4.493   0.441
 1109SOL    HW2 3346   1.819   4.506   0.299
 1110SOL     OW 3347   1.390   4.299   0.078
 1110SOL    HW1 3348   1.336   4.278   0.159
 1110SOL    HW2 3349   1.481   4.258   0.087
 1111SOL     OW 3350   0.527   3.980   0.328
 1111SOL    HW1 3351   0.554   3.921   0.253
 1111SOL    HW2 3352   0.527   4.075   0.297
 1112SOL     OW 3353   1.638   4.823   1.079
 1112SOL    HW1 3354   1.643   4.904   1.138
 1112SOL    HW2 3355   1.552   4.825   1.028
 1113SOL     OW 3356   0.915   3.813   1.402
 1113SOL    HW1 3357   0.940   3.793   1.307
 1113SOL    HW2 3358   0.987   3.869   1.444
 1114SOL     OW 3359   0.410   4.537   1.251
 1114SOL    HW1 3360   0.496   4.549   1.301
 1114SOL    HW2 3361   0.368   4.450   1.278
 1115SOL     OW 3362   1.274   4.110   1.262
 1115SOL    HW1 3363   1.295   4.184   1.326
 1115SOL    HW2 3364   1.185   4.127   1.219
 1116SOL     OW 3365   0.566   4.261   0.865
 1116SOL    HW1 3366   0.578   4.327   0.791
 1116SOL    HW2 3367   0.612   4.295   0.948
 1117SOL     OW 3368   1.582   4.363   0.472
 1117SOL    HW1 3369   1.551   4.424   0.545
 1117SOL    HW2 3370   1.632   4.415   0.403
 1118SOL     OW 3371   0.402   4.475   1.598
 1118SOL    HW1 3372   0.470   4.530   1.551
 1118SOL    HW2 3373   0.442   4.387   1.625
 1119SOL     OW 3374   1.587   4.503   1.670
 1119SOL    HW1 3375   1.495   4.541   1.665
 1119SOL    HW2 3376   1.647   4.550   1.605
 1120SOL     OW 3377   1.013   3.829   1.770
 1120SOL    HW1 3378   1.019   3.914   1.718
 1120SOL    HW2 3379   1.045   3.753   1.713
 1121SOL     OW 3380   0.504   3.774   1.740
 1121SOL    HW1 3381   0.462   3.717   1.670
 1121SOL    HW2 3382   0.438   3.843   1.772
 1122SOL     OW 3383   0.573   4.594   1.029
 1122SOL    HW1 3384   0.617   4.683   1.020
 1122SOL    HW2 3385   0.510   4.594   1.106
 1123SOL     OW 3386   1.360   4.586   1.045
 1123SOL    HW1 3387   1.285   4.586   0.979
 1123SOL    HW2 3388   1.397   4.494   1.054
 1124SOL     OW 3389   1.209   4.249   0.275
 1124SOL    HW1 3390   1.222   4.165   0.329
 1124SOL    HW2 3391   1.180   4.323   0.335
 1125SOL     OW 3392   0.307   3.937   1.231
 1125SOL    HW1 3393   0.284   3.974   1.321
 1125SOL    HW2 3394   0.277   3.842   1.225
 1126SOL     OW 3395   0.732   4.358   1.064
 1126SOL    HW1 3396   0.791   4.332   0.988
 1126SOL    HW2 3397   0.704   4.454   1.053
 1127SOL     OW 3398   1.728   4.659   1.854
 1127SOL    HW1 3399   1.682   4.652   1.765
 1127SOL    HW2 3400   1.666   4.703   1.920
 1128SOL     OW 3401   0.307   3.787   0.618
 1128SOL    HW1 3402   0.296   3.881   0.651
 1128SOL    HW2 3403   0.302   3.724   0.695
 1129SOL     OW 3404   1.622   4.091   0.374
 1129SOL    HW1 3405   1.624   4.015   0.438
 1129SOL    HW2 3406   1.574   4.168   0.414
 1130SOL     OW 3407   1.023   4.490   0.966
 1130SOL    HW1 3408   1.038   4.511   1.062
 1130SOL    HW2 3409   0.993   4.395   0.957
 1131SOL     OW 3410   0.350   4.622   1.804
 1131SOL    HW1 3411   0.426   4.666   1.852
 1131SOL    HW2 3412   0.385   4.575   1.722
 1132SOL     OW 3413   1.540   3.998   0.125
 1132SOL    HW1 3414   1.479   3.923   0.148
 1132SOL    HW2 3415   1.562   4.050   0.208
 1133SOL     OW 3416   1.303   4.562   0.042
 1133SOL    HW1 3417   1.337   4.469   0.057
 1133SOL    HW2 3418   1.321   4.589  -0.053
 1134SOL     OW 3419   0.319   4.534   0.949
 1134SOL    HW1 3420   0.412   4.570   0.954
 1134SOL    HW2 3421   0.313   4.449   1.001
 1135SOL     OW 3422   0.339   4.233   1.006
 1135SOL    HW1 3423   0.287   4.150   0.989
 1135SOL    HW2 3424   0.416   4.238   0.942
 1136SOL     OW 3425   1.138   4.104   1.678
 1136SOL    HW1 3426   1.093   4.167   1.742
 1136SOL    HW2 3427   1.231   4.135   1.661
 1137SOL     OW 3428   1.160   3.931   1.477
 1137SOL    HW1 3429   1.160   3.995   1.554
 1137SOL    HW2 3430   1.188   3.979   1.394
 1138SOL     OW 3431   1.002   4.520   1.238
 1138SOL    HW1 3432   1.043   4.488   1.324
 1138SOL    HW2 3433   0.906   4.493   1.235
 1139SOL     OW 3434   0.040   4.268   1.114
 1139SOL    HW1 3435   0.125   4.235   1.073
 1139SOL    HW2 3436   0.053   4.283   1.212
 1140SOL     OW 3437   0.189   4.244   1.722
 1140SOL    HW1 3438   0.248   4.204   1.652
 1140SOL    HW2 3439   0.131   4.315   1.681
 1141SOL     OW 3440   0.815   4.296   0.325
 1141SOL    HW1 3441   0.822   4.207   0.279
 1141SOL    HW2 3442   0.721   4.330   0.317
 1142SOL     OW 3443   1.657   4.328   1.206
 1142SOL    HW1 3444   1.619   4.259   1.268
 1142SOL    HW2 3445   1.739   4.292   1.162
 1143SOL     OW 3446   0.671   4.188   1.269
 1143SOL    HW1 3447   0.637   4.099   1.239
 1143SOL    HW2 3448   0.697   4.242   1.189
 1144SOL     OW 3449   0.473   4.224   0.191
 1144SOL    HW1 3450   0.534   4.304   0.195
 1144SOL    HW2 3451   0.378   4.255   0.198
 1145SOL     OW 3452   1.347   4.783   1.234
 1145SOL    HW1 3453   1.371   4.720   1.160
 1145SOL    HW2 3454   1.257   4.823   1.216
 1146SOL     OW 3455   1.302   4.579   0.309
 1146SOL    HW1 3456   1.216   4.548   0.351
 1146SOL    HW2 3457   1.298   4.565   0.210
 1147SOL     OW 3458   0.903   3.810   0.133
 1147SOL    HW1 3459   0.954   3.811   0.047
 1147SOL    HW2 3460   0.959   3.768   0.204
 1148SOL     OW 3461   1.726   3.859   0.523
 1148SOL    HW1 3462   1.799   3.842   0.456
 1148SOL    HW2 3463   1.695   3.772   0.561
 1149SOL     OW 3464   1.280   4.651   0.672
 1149SOL    HW1 3465   1.340   4.570   0.674
 1149SOL    HW2 3466   1.320   4.720   0.612
 1150SOL     OW 3467   1.841   3.899   0.963
 1150SOL    HW1 3468   1.880   3.814   0.927
 1150SOL    HW2 3469   1.743   3.901   0.944
 1151SOL     OW 3470   0.263   4.050   0.720
 1151SOL    HW1 3471   0.184   4.101   0.686
 1151SOL    HW2 3472   0.254   4.035   0.818
 1152SOL     OW 3473   1.014   3.960   0.971
 1152SOL    HW1 3474   1.006   3.924   0.878
 1152SOL    HW2 3475   1.012   3.884   1.036
 1153SOL     OW 3476   1.709   4.109   1.381
 1153SOL    HW1 3477   1.782   4.178   1.385
 1153SOL    HW2 3478   1.737   4.034   1.322
 1154SOL     OW 3479   0.105   4.737   1.726
 1154SOL    HW1 3480   0.028   4.704   1.780
 1154SOL    HW2 3481   0.190   4.707   1.768
 1155SOL     OW 3482   0.672   3.927   1.489
 1155SOL    HW1 3483   0.762   3.911   1.449
 1155SOL    HW2 3484   0.680   3.932   1.588
 1156SOL     OW 3485   0.075   4.069   0.033
 1156SOL    HW1 3486  -0.017   4.041   0.004
 1156SOL    HW2 3487   0.106   4.146  -0.023
 1157SOL     OW 3488   1.440   4.580   1.398
 1157SOL    HW1 3489   1.383   4.632   1.335
 1157SOL    HW2 3490   1.536   4.592   1.374
 1158SOL     OW 3491   0.072   3.890   0.318
 1158SOL    HW1 3492   0.055   3.973   0.264
 1158SOL    HW2 3493   0.162   3.853   0.296
 1159SOL     OW 3494   0.613   4.566   1.431
 1159SOL    HW1 3495   0.669   4.647   1.414
 1159SOL    HW2 3496   0.672   4.486   1.434
 1160SOL     OW 3497   0.716   4.289   1.708
 1160SOL    HW1 3498   0.735   4.354   1.782
 1160SOL    HW2 3499   0.776   4.209   1.717
 1161SOL     OW 3500   1.674   4.607   1.254
 1161SOL    HW1 3501   1.647   4.518   1.217
 1161SOL    HW2 3502   1.675   4.675   1.181
 1162SOL     OW 3503   1.225   4.049   0.449
 1162SOL    HW1 3504   1.290   3.975   0.438
 1162SOL    HW2 3505   1.245   4.099   0.533
 1163SOL     OW 3506   0.594   4.469   0.652
 1163SOL    HW1 3507   0.644   4.554   0.633
 1163SOL    HW2 3508   0.506   4.471   0.604
 1164SOL     OW 3509   1.777   4.066   1.642
 1164SOL    HW1 3510   1.760   4.097   1.548
 1164SOL    HW2 3511   1.693   4.029   1.680
 1165SOL     OW 3512   1.730   4.658   1.517
 1165SOL    HW1 3513   1.768   4.749   1.532
 1165SOL    HW2 3514   1.722   4.641   1.418
 1166SOL     OW 3515   1.824   3.916   1.227
 1166SOL    HW1 3516   1.820   3.826   1.271
 1166SOL    HW2 3517   1.827   3.905   1.128
 1167SOL     OW 3518   0.428   4.148   0.520
 1167SOL    HW1 3519   0.458   4.076   0.458
 1167SOL    HW2 3520   0.389   4.108   0.603
 1168SOL     OW 3521   0.317   4.271   1.280
 1168SOL    HW1 3522   0.355   4.212   1.352
 1168SOL    HW2 3523   0.357   4.245   1.192
 1169SOL     OW 3524   1.424   3.938   1.112
 1169SOL    HW1 3525   1.476   3.873   1.167
 1169SOL    HW2 3526   1.375   4.001   1.173
 1170SOL     OW 3527   1.001   3.758   1.154
 1170SOL    HW1 3528   0.938   3.686   1.123
 1170SOL    HW2 3529   1.094   3.722   1.154
 1171SOL     OW 3530   1.352   3.776   0.168
 1171SOL    HW1 3531   1.387   3.735   0.084
 1171SOL    HW2 3532   1.262   3.738   0.188
 1172SOL     OW 3533   1.300   4.177   0.691
 1172SOL    HW1 3534   1.241   4.257   0.695
 1172SOL    HW2 3535   1.315   4.142   0.784
 1173SOL     OW 3536   1.593   3.945   0.882
 1173SOL    HW1 3537   1.509   3.944   0.936
 1173SOL    HW2 3538   1.595   4.028   0.826
 1174SOL     OW 3539   0.230   4.352   1.975
 1174SOL    HW1 3540   0.137   4.350   2.012
 1174SOL    HW2 3541   0.231   4.313   1.883
 1175SOL     OW 3542   0.225   3.999   2.858
 1175SOL    HW1 3543   0.260   3.982   2.950
 1175SOL    HW2 3544   0.137   3.954   2.846
 1176SOL     OW 3545   0.019   4.092   2.509
 1176SOL    HW1 3546  -0.063   4.135   2.548
 1176SOL    HW2 3547  -0.009   4.019   2.446
 1177SOL     OW 3548   1.135   4.427   2.579
 1177SOL    HW1 3549   1.192   4.505   2.554
 1177SOL    HW2 3550   1.075   4.453   2.655
 1178SOL     OW 3551   1.755   4.331   2.093
 1178SOL    HW1 3552   1.743   4.318   1.994
 1178SOL    HW2 3553   1.725   4.250   2.142
 1179SOL     OW 3554   0.850   4.522   3.685
 1179SOL    HW1 3555   0.846   4.598   3.750
 1179SOL    HW2 3556   0.872   4.558   3.594
 1180SOL     OW 3557   0.685   4.736   2.527
 1180SOL    HW1 3558   0.754   4.720   2.597
 1180SOL    HW2 3559   0.612   4.793   2.565
 1181SOL     OW 3560   0.438   4.116   3.361
 1181SOL    HW1 3561   0.520   4.060   3.370
 1181SOL    HW2 3562   0.357   4.058   3.365
 1182SOL     OW 3563   1.603   4.171   2.599
 1182SOL    HW1 3564   1.529   4.217   2.549
 1182SOL    HW2 3565   1.654   4.239   2.652
 1183SOL     OW 3566   1.594   3.838   3.342
 1183SOL    HW1 3567   1.576   3.905   3.270
 1183SOL    HW2 3568   1.591   3.884   3.431
 1184SOL     OW 3569   0.122   4.367   2.425
 1184SOL    HW1 3570   0.077   4.279   2.442
 1184SOL    HW2 3571   0.121   4.421   2.509
 1185SOL     OW 3572   0.113   4.461   3.459
 1185SOL    HW1 3573   0.201   4.448   3.504
 1185SOL    HW2 3574   0.100   4.558   3.437
 1186SOL     OW 3575   0.809   3.728   2.364
 1186SOL    HW1 3576   0.849   3.819   2.355
 1186SOL    HW2 3577   0.709   3.736   2.370
 1187SOL     OW 3578   1.525   4.723   2.052
 1187SOL    HW1 3579   1.462   4.647   2.065
 1187SOL    HW2 3580   1.573   4.741   2.138
 1188SOL     OW 3581   0.317   3.975   3.663
 1188SOL    HW1 3582   0.388   4.046   3.669
 1188SOL    HW2 3583   0.229   4.014   3.691
 1189SOL     OW 3584   0.598   4.453   2.132
 1189SOL    HW1 3585   0.622   4.522   2.064
 1189SOL    HW2 3586   0.520   4.486   2.186
 1190SOL     OW 3587   1.281   4.069   2.806
 1190SOL    HW1 3588   1.195   4.019   2.793
 1190SOL    HW2 3589   1.343   4.015   2.862
 1191SOL     OW 3590   0.807   4.329   3.327
 1191SOL    HW1 3591   0.760   4.326   3.416
 1191SOL    HW2 3592   0.756   4.274   3.261
 1192SOL     OW 3593   1.394   4.193   3.536
 1192SOL    HW1 3594   1.374   4.236   3.624
 1192SOL    HW2 3595   1.472   4.131   3.545
 1193SOL     OW 3596   0.973   4.614   3.434
 1193SOL    HW1 3597   1.019   4.530   3.405
 1193SOL    HW2 3598   0.917   4.648   3.359
 1194SOL     OW 3599   0.991   4.134   3.104
 1194SOL    HW1 3600   0.914   4.168   3.158
 1194SOL    HW2 3601   0.957   4.083   3.025
 1195SOL     OW 3602   1.041   4.425   2.291
 1195SOL    HW1 3603   1.067   4.421   2.387
 1195SOL    HW2 3604   0.956   4.374   2.277
 1196SOL     OW 3605   0.076   4.535   2.651
 1196SOL    HW1 3606   0.175   4.523   2.660
 1196SOL    HW2 3607   0.052   4.630   2.672
 1197SOL     OW 3608   0.865   4.072   2.057
 1197SOL    HW1 3609   0.924   4.135   2.008
 1197SOL    HW2 3610   0.884   3.978   2.028
 1198SOL     OW 3611   1.719   4.309   3.693
 1198SOL    HW1 3612   1.693   4.398   3.657
 1198SOL    HW2 3613   1.717   4.241   3.620
 1199SOL     OW 3614   0.550   3.920   2.747
 1199SOL    HW1 3615   0.545   3.915   2.847
 1199SOL    HW2 3616   0.552   4.016   2.718
 1200SOL     OW 3617   1.458   4.459   2.590
 1200SOL    HW1 3618   1.453   4.394   2.665
 1200SOL    HW2 3619   1.538   4.518   2.603
 1201SOL     OW 3620   0.202   4.009   3.360
 1201SOL    HW1 3621   0.122   4.069   3.347
 1201SOL    HW2 3622   0.192   3.960   3.446
 1202SOL     OW 3623   1.400   3.831   2.288
 1202SOL    HW1 3624   1.376   3.794   2.198
 1202SOL    HW2 3625   1.499   3.847   2.292
 1203SOL     OW 3626   0.382   4.424   2.342
 1203SOL    HW1 3627   0.427   4.334   2.339
 1203SOL    HW2 3628   0.288   4.413   2.375
 1204SOL     OW 3629   1.547   3.946   3.591
 1204SOL    HW1 3630   1.542   3.983   3.683
 1204SOL    HW2 3631   1.475   3.877   3.579
 1205SOL     OW 3632   0.614   3.846   1.979
 1205SOL    HW1 3633   0.712   3.824   1.986
 1205SOL    HW2 3634   0.583   3.829   1.886
 1206SOL     OW 3635   0.781   3.988   3.611
 1206SOL    HW1 3636   0.848   3.927   3.654
 1206SOL    HW2 3637   0.708   4.007   3.676
 1207SOL     OW 3638   1.351   4.314   3.295
 1207SOL    HW1 3639   1.379   4.271   3.380
 1207SOL    HW2 3640   1.376   4.410   3.296
 1208SOL     OW 3641   0.922   4.227   2.761
 1208SOL    HW1 3642   0.897   4.218   2.665
 1208SOL    HW2 3643   0.970   4.145   2.792
 1209SOL     OW 3644   0.539   3.788   2.374
 1209SOL    HW1 3645   0.458   3.789   2.432
 1209SOL    HW2 3646   0.542   3.871   2.319
 1210SOL     OW 3647   0.297   3.759   2.033
 1210SOL    HW1 3648   0.346   3.843   2.012
 1210SOL    HW2 3649   0.359   3.694   2.078
 1211SOL     OW 3650   0.935   3.960   2.342
 1211SOL    HW1 3651   0.887   4.001   2.264
 1211SOL    HW2 3652   1.034   3.958   2.323
 1212SOL     OW 3653   1.076   4.407   3.326
 1212SOL    HW1 3654   0.996   4.346   3.329
 1212SOL    HW2 3655   1.157   4.354   3.302
 1213SOL     OW 3656   1.032   4.273   1.878
 1213SOL    HW1 3657   0.991   4.355   1.839
 1213SOL    HW2 3658   1.096   4.299   1.951
 1214SOL     OW 3659   0.078   4.280   3.248
 1214SOL    HW1 3660   0.170   4.279   3.207
 1214SOL    HW2 3661   0.072   4.354   3.315
 1215SOL     OW 3662   0.561   3.946   3.009
 1215SOL    HW1 3663   0.599   3.862   3.046
 1215SOL    HW2 3664   0.473   3.965   3.053
 1216SOL     OW 3665   0.866   4.178   2.504
 1216SOL    HW1 3666   0.834   4.250   2.442
 1216SOL    HW2 3667   0.890   4.097   2.451
 1217SOL     OW 3668   1.017   3.763   2.615
 1217SOL    HW1 3669   0.945   3.768   2.546
 1217SOL    HW2 3670   0.993   3.694   2.684
 1218SOL     OW 3671   1.466   4.314   2.854
 1218SOL    HW1 3672   1.436   4.219   2.861
 1218SOL    HW2 3673   1.539   4.330   2.920
 1219SOL     OW 3674   1.857   4.557   2.239
 1219SOL    HW1 3675   1.899   4.493   2.303
 1219SOL    HW2 3676   1.819   4.506   2.161
 1220SOL     OW 3677   1.390   4.299   1.940
 1220SOL    HW1 3678   1.336   4.278   2.021
 1220SOL    HW2 3679   1.481   4.258   1.949
 1221SOL     OW 3680   0.527   3.980   2.190
 1221SOL    HW1 3681   0.554   3.921   2.115
 1221SOL    HW2 3682   0.527   4.075   2.159
 1222SOL     OW 3683   1.638   4.823   2.941
 1222SOL    HW1 3684   1.643   4.904   3.000
 1222SOL    HW2 3685   1.552   4.825   2.890
 1223SOL     OW 3686   0.915   3.813   3.264
 1223SOL    HW1 3687   0.940   3.793   3.169
 1223SOL    HW2 3688   0.987   3.869   3.306
 1224SOL     OW 3689   0.410   4.537   3.113
 1224SOL    HW1 3690   0.496   4.549   3.163
 1224SOL    HW2 3691   0.368   4.450   3.140
 1225SOL     OW 3692   1.274   4.110   3.124
 1225SOL    HW1 3693   1.295   4.184   3.188
 1225SOL    HW2 3694   1.185   4.127   3.081
 1226SOL     OW 3695   0.566   4.261   2.727
 1226SOL    HW1 3696   0.578   4.327   2.653
 1226SOL    HW2 3697   0.612   4.295   2.810
 1227SOL     OW 3698   1.582   4.363   2.334
 1227SOL    HW1 3699   1.551   4.424   2.407
 1227SOL    HW2 3700   1.632   4.415   2.265
 1228SOL     OW 3701   0.402   4.475   3.460
 1228SOL    HW1 3702   0.470   4.530   3.413
 1228SOL    HW2 3703   0.442   4.387   3.487
 1229SOL     OW 3704   1.587   4.503   3.532
 1229SOL    HW1 3705   1.495   4.541   3.527
 1229SOL    HW2 3706   1.647   4.550   3.467
 1230SOL     OW 3707   1.013   3.829   3.632
 1230SOL    HW1 3708   1.019   3.914   3.580
 1230SOL    HW2 3709   1.045   3.753   3.575
 1231SOL     OW 3710   0.504   3.774   3.602
 1231SOL    HW1 3711   0.462   3.717   3.532
 1231SOL    HW2 3712   0.438   3.843   3.634
 1232SOL     OW 3713   0.573   4.594   2.891
 1232SOL    HW1 3714   0.617   4.683   2.882
 1232SOL    HW2 3715   0.510   4.594   2.968
 1233SOL     OW 3716   1.360   4.586   2.907
 1233SOL    HW1 3717   1.285   4.586   2.841
 1233SOL    HW2 3718   1.397   4.494   2.916
 1234SOL     OW 3719   1.209   4.249   2.137
 1234SOL    HW1 3720   1.222   4.165   2.191
 1234SOL    HW2 3721   1.180   4.323   2.197
 1235SOL     OW 3722   0.307   3.937   3.093
 1235SOL    HW1 3723   0.284   3.974   3.183
 1235SOL    HW2 3724   0.277   3.842   3.087
 1236SOL     OW 3725   0.732   4.358   2.926
 1236SOL    HW1 3726   0.791   4.332   2.850
 1236SOL    HW2 3727   0.704   4.454   2.915
 1237SOL     OW 3728   1.728   4.659   3.716
 1237SOL    HW1 3729   1.682   4.652   3.627
 1237SOL    HW2 3730   1.666   4.703   3.782
 1238SOL     OW 3731   0.307   3.787   2.480
 1238SOL    HW1 3732   0.296   3.881   2.513
 1238SOL    HW2 3733   0.302   3.724   2.557
 1239SOL     OW 3734   1.622   4.091   2.236
 1239SOL    HW1 3735   1.624   4.015   2.300
 1239SOL    HW2 3736   1.574   4.168   2.276
 1240SOL     OW 3737   1.023   4.490   2.828
 1240SOL    HW1 3738   1.038   4.511   2.924
 1240SOL    HW2 3739   0.993   4.395   2.819
 1241SOL     OW 3740   0.350   4.622   3.666
 1241SOL    HW1 3741   0.426   4.666   3.714
 1241SOL    HW2 3742   0.385   4.575   3.584
 1242SOL     OW 3743   1.540   3.998   1.987
 1242SOL    HW1 3744   1.479   3.923   2.010
 1242SOL    HW2 3745   1.562   4.050   2.070
 1243SOL     OW 3746   1.303   4.562   1.904
 1243SOL    HW1 3747   1.337   4.469   1.919
 1243SOL    HW2 3748   1.321   4.589   1.809
 1244SOL     OW 3749   0.319   4.534   2.811
 1244SOL    HW1 3750   0.412   4.570   2.816
 1244SOL    HW2 3751   0.313   4.449   2.863
 1245SOL     OW 3752   0.339   4.233   2.868
 1245SOL    HW1 3753   0.287   4.150   2.851
 1245SOL    HW2 3754   0.416   4.238   2.804
 1246SOL     OW 3755   1.138   4.104   3.540
 1246SOL    HW1 3756   1.093   4.167   3.604
 1246SOL    HW2 3757   1.231   4.135   3.523
 1247SOL     OW 3758   1.160   3.931   3.339
 1247SOL    HW1 3759   1.160   3.995   3.416
 1247SOL    HW2 3760   1.188   3.979   3.256
 1248SOL     OW 3761   1.002   4.520   3.100
 1248SOL    HW1 3762   1.043   4.488   3.186
 1248SOL    HW2 3763   0.906   4.493   3.097
 1249SOL     OW 3764   0.040   4.268   2.976
 1249SOL    HW1 3765   0.125   4.235   2.935
 1249SOL    HW2 3766   0.053   4.283   3.074
 1250SOL     OW 3767   0.189   4.244   3.584
 1250SOL    HW1 3768   0.248   4.204   3.514
 1250SOL    HW2 3769   0.131   4.315   3.543
 1251SOL     OW 3770   0.815   4.296   2.187
 1251SOL    HW1 3771   0.822   4.207   2.141
 1251SOL    HW2 3772   0.721   4.330   2.179
 1252SOL     OW 3773   1.657   4.328   3.068
 1252SOL    HW1 3774   1.619   4.259   3.130
 1252SOL    HW2 3775   1.739   4.292   3.024
 1253SOL     OW 3776   0.671   4.188   3.131
 1253SOL    HW1 3777   0.637   4.099   3.101
 1253SOL    HW2 3778   0.697   4.242   3.051
 1254SOL     OW 3779   0.473   4.224   2.053
 1254SOL    HW1 3780   0.534   4.304   2.057
 1254SOL    HW2 3781   0.378   4.255   2.060
 1255SOL     OW 3782   1.347   4.783   3.096
 1255SOL    HW1 3783   1.371   4.720   3.022
 1255SOL    HW2 3784   1.257   4.823   3.078
 1256SOL     OW 3785   1.302   4.579   2.171
 1256SOL    HW1 3786   1.216   4.548   2.213
 1256SOL    HW2 3787   1.298   4.565   2.072
 1257SOL     OW 3788   1.726   3.859   2.385
 1257SOL    HW1 3789   1.799   3.842   2.318
 1257SOL    HW2 3790   1.695   3.772   2.423
 1258SOL     OW 3791   1.280   4.651   2.534
 1258SOL    HW1 3792   1.340   4.570   2.536
 1258SOL    HW2 3793   1.320   4.720   2.474
 1259SOL     OW 3794   1.841   3.899   2.825
 1259SOL    HW1 3795   1.880   3.814   2.789
 1259SOL    HW2 3796   1.743   3.901   2.806
 1260SOL     OW 3797   0.263   4.050   2.582
 1260SOL    HW1 3798   0.184   4.101   2.548
 1260SOL    HW2 3799   0.254   4.035   2.680
 1261SOL     OW 3800   0.916   4.634   2.153
 1261SOL    HW1 3801   0.979   4.672   2.085
 1261SOL    HW2 3802   0.956   4.551   2.192
 1262SOL     OW 3803   1.014   3.960   2.833
 1262SOL    HW1 3804   1.006   3.924   2.740
 1262SOL    HW2 3805   1.012   3.884   2.898
 1263SOL     OW 3806   1.709   4.109   3.243
 1263SOL    HW1 3807   1.782   4.178   3.247
 1263SOL    HW2 3808   1.737   4.034   3.184
 1264SOL     OW 3809   0.105   4.737   3.588
 1264SOL    HW1 3810   0.028   4.704   3.642
 1264SOL    HW2 3811   0.190   4.707   3.630
 1265SOL     OW 3812   0.672   3.927   3.351
 1265SOL    HW1 3813   0.762   3.911   3.311
 1265SOL    HW2 3814   0.680   3.932   3.450
 1266SOL     OW 3815   0.075   4.069   1.895
 1266SOL    HW1 3816  -0.017   4.041   1.866
 1266SOL    HW2 3817   0.106   4.146   1.839
 1267SOL     OW 3818   1.440   4.580   3.260
 1267SOL    HW1 3819   1.383   4.632   3.197
 1267SOL    HW2 3820   1.536   4.592   3.236
 1268SOL     OW 3821   0.072   3.890   2.180
 1268SOL    HW1 3822   0.055   3.973   2.126
 1268SOL    HW2 3823   0.162   3.853   2.158
 1269SOL     OW 3824   0.613   4.566   3.293
 1269SOL    HW1 3825   0.669   4.647   3.276
 1269SOL    HW2 3826   0.672   4.486   3.296
 1270SOL     OW 3827   0.716   4.289   3.570
 1270SOL    HW1 3828   0.735   4.354   3.644
 1270SOL    HW2 3829   0.776   4.209   3.579
 1271SOL     OW 3830   1.674   4.607   3.116
 1271SOL    HW1 3831   1.647   4.518   3.079
 1271SOL    HW2 3832   1.675   4.675   3.043
 1272SOL     OW 3833   1.225   4.049   2.311
 1272SOL    HW1 3834   1.290   3.975   2.300
 1272SOL    HW2 3835   1.245   4.099   2.395
 1273SOL     OW 3836   0.594   4.469   2.514
 1273SOL    HW1 3837   0.644   4.554   2.495
 1273SOL    HW2 3838   0.506   4.471   2.466
 1274SOL     OW 3839   1.777   4.066   3.504
 1274SOL    HW1 3840   1.760   4.097   3.410
 1274SOL    HW2 3841   1.693   4.029   3.542
 1275SOL     OW 3842   1.730   4.658   3.379
 1275SOL    HW1 3843   1.768   4.749   3.394
 1275SOL    HW2 3844   1.722   4.641   3.280
 1276SOL     OW 3845   1.824   3.916   3.089
 1276SOL    HW1 3846   1.820   3.826   3.133
 1276SOL    HW2 3847   1.827   3.905   2.990
 1277SOL     OW 3848   0.428   4.148   2.382
 1277SOL    HW1 3849   0.458   4.076   2.320
 1277SOL    HW2 3850   0.389   4.108   2.465
 1278SOL     OW 3851   0.317   4.271   3.142
 1278SOL    HW1 3852   0.355   4.212   3.214
 1278SOL    HW2 3853   0.357   4.245   3.054
 1279SOL     OW 3854   1.424   3.938   2.974
 1279SOL    HW1 3855   1.476   3.873   3.029
 1279SOL    HW2 3856   1.375   4.001   3.035
 1280SOL     OW 3857   1.001   3.758   3.016
 1280SOL    HW1 3858   0.938   3.686   2.985
 1280SOL    HW2 3859   1.094   3.722   3.016
 1281SOL     OW 3860   1.352   3.776   2.030
 1281SOL    HW1 3861   1.387   3.735   1.946
 1281SOL    HW2 3862   1.262   3.738   2.050
 1282SOL     OW 3863   1.300   4.177   2.553
 1282SOL    HW1 3864   1.241   4.257   2.557
 1282SOL    HW2 3865   1.315   4.142   2.646
 1283SOL     OW 3866   1.593   3.945   2.744
 1283SOL    HW1 3867   1.509   3.944   2.798
 1283SOL    HW2 3868   1.595   4.028   2.688
 1284SOL     OW 3869   0.230   4.352   3.837
 1284SOL    HW1 3870   0.137   4.350   3.874
 1284SOL    HW2 3871   0.231   4.313   3.745
 1285SOL     OW 3872   0.019   4.092   4.371
 1285SOL    HW1 3873  -0.063   4.135   4.410
 1285SOL    HW2 3874  -0.009   4.019   4.308
 1286SOL     OW 3875   1.135   4.427   4.441
 1286SOL    HW1 3876   1.192   4.505   4.416
 1286SOL    HW2 3877   1.075   4.453   4.517
 1287SOL     OW 3878   1.755   4.331   3.955
 1287SOL    HW1 3879   1.743   4.318   3.856
 1287SOL    HW2 3880   1.725   4.250   4.004
 1288SOL     OW 3881   0.685   4.736   4.389
 1288SOL    HW1 3882   0.754   4.720   4.459
 1288SOL    HW2 3883   0.612   4.793   4.427
 1289SOL     OW 3884   1.603   4.171   4.461
 1289SOL    HW1 3885   1.529   4.217   4.411
 1289SOL    HW2 3886   1.654   4.239   4.514
 1290SOL     OW 3887   0.240   4.815   4.610
 1290SOL    HW1 3888   0.254   4.731   4.662
 1290SOL    HW2 3889   0.185   4.879   4.665
 1291SOL     OW 3890   0.122   4.367   4.287
 1291SOL    HW1 3891   0.077   4.279   4.304
 1291SOL    HW2 3892   0.121   4.421   4.371
 1292SOL     OW 3893   0.809   3.728   4.226
 1292SOL    HW1 3894   0.849   3.819   4.217
 1292SOL    HW2 3895   0.709   3.736   4.232
 1293SOL     OW 3896   1.525   4.723   3.914
 1293SOL    HW1 3897   1.462   4.647   3.927
 1293SOL    HW2 3898   1.573   4.741   4.000
 1294SOL     OW 3899   0.598   4.453   3.994
 1294SOL    HW1 3900   0.622   4.522   3.926
 1294SOL    HW2 3901   0.520   4.486   4.048
 1295SOL     OW 3902   1.281   4.069   4.668
 1295SOL    HW1 3903   1.195   4.019   4.655
 1295SOL    HW2 3904   1.343   4.015   4.724
 1296SOL     OW 3905   1.041   4.425   4.153
 1296SOL    HW1 3906   1.067   4.421   4.249
 1296SOL    HW2 3907   0.956   4.374   4.139
 1297SOL     OW 3908   0.076   4.535   4.513
 1297SOL    HW1 3909   0.175   4.523   4.522
 1297SOL    HW2 3910   0.052   4.630   4.534
 1298SOL     OW 3911   0.865   4.072   3.919
 1298SOL    HW1 3912   0.924   4.135   3.870
 1298SOL    HW2 3913   0.884   3.978   3.890
 1299SOL     OW 3914   0.550   3.920   4.609
 1299SOL    HW1 3915   0.545   3.915   4.709
 1299SOL    HW2 3916   0.552   4.016   4.580
 1300SOL     OW 3917   1.458   4.459   4.452
 1300SOL    HW1 3918   1.453   4.394   4.527
 1300SOL    HW2 3919   1.538   4.518   4.465
 1301SOL     OW 3920   1.400   3.831   4.150
 1301SOL    HW1 3921   1.376   3.794   4.060
 1301SOL    HW2 3922   1.499   3.847   4.154
 1302SOL     OW 3923   0.382   4.424   4.204
 1302SOL    HW1 3924   0.427   4.334   4.201
 1302SOL    HW2 3925   0.288   4.413   4.237
 1303SOL     OW 3926   0.614   3.846   3.841
 1303SOL    HW1 3927   0.712   3.824   3.848
 1303SOL    HW2 3928   0.583   3.829   3.748
 1304SOL     OW 3929   0.539   3.788   4.236
 1304SOL    HW1 3930   0.458   3.789   4.294
 1304SOL    HW2 3931   0.542   3.871   4.181
 1305SOL     OW 3932   0.297   3.759   3.895
 1305SOL    HW1 3933   0.346   3.843   3.874
 1305SOL    HW2 3934   0.359   3.694   3.940
 1306SOL     OW 3935   0.935   3.960   4.204
 1306SOL    HW1 3936   0.887   4.001   4.126
 1306SOL    HW2 3937   1.034   3.958   4.185
 1307SOL     OW 3938   1.032   4.273   3.740
 1307SOL    HW1 3939   0.991   4.355   3.701
 1307SOL    HW2 3940   1.096   4.299   3.813
 1308SOL     OW 3941   0.866   4.178   4.366
 1308SOL    HW1 3942   0.834   4.250   4.304
 1308SOL    HW2 3943   0.890   4.097   4.313
 1309SOL     OW 3944   1.017   3.763   4.477
 1309SOL    HW1 3945   0.945   3.768   4.408
 1309SOL    HW2 3946   0.993   3.694   4.546
 1310SOL     OW 3947   1.857   4.557   4.101
 1310SOL    HW1 3948   1.899   4.493   4.165
 1310SOL    HW2 3949   1.819   4.506   4.023
 1311SOL     OW 3950   1.390   4.299   3.802
 1311SOL    HW1 3951   1.336   4.278   3.883
 1311SOL    HW2 3952   1.481   4.258   3.811
 1312SOL     OW 3953   0.527   3.980   4.052
 1312SOL    HW1 3954   0.554   3.921   3.977
 1312SOL    HW2 3955   0.527   4.075   4.021
 1313SOL     OW 3956   1.111   4.919   4.824
 1313SOL    HW1 3957   1.071   4.963   4.905
 1313SOL    HW2 3958   1.070   4.956   4.741
 1314SOL     OW 3959   0.566   4.261   4.589
 1314SOL    HW1 3960   0.578   4.327   4.515
 1314SOL    HW2 3961   0.612   4.295   4.672
 1315SOL     OW 3962   1.582   4.363   4.196
 1315SOL    HW1 3963   1.551   4.424   4.269
 1315SOL    HW2 3964   1.632   4.415   4.127
 1316SOL     OW 3965   1.209   4.249   3.999
 1316SOL    HW1 3966   1.222   4.165   4.053
 1316SOL    HW2 3967   1.180   4.323   4.059
 1317SOL     OW 3968   0.732   4.358   4.788
 1317SOL    HW1 3969   0.791   4.332   4.712
 1317SOL    HW2 3970   0.704   4.454   4.777
 1318SOL     OW 3971   0.307   3.787   4.342
 1318SOL    HW1 3972   0.296   3.881   4.375
 1318SOL    HW2 3973   0.302   3.724   4.419
 1319SOL     OW 3974   1.622   4.091   4.098
 1319SOL    HW1 3975   1.624   4.015   4.162
 1319SOL    HW2 3976   1.574   4.168   4.138
 1320SOL     OW 3977   1.540   3.998   3.849
 1320SOL    HW1 3978   1.479   3.923   3.872
 1320SOL    HW2 3979   1.562   4.050   3.932
 1321SOL     OW 3980   1.303   4.562   3.766
 1321SOL    HW1 3981   1.337   4.469   3.781
 1321SOL    HW2 3982   1.321   4.589   3.671
 1322SOL     OW 3983   0.319   4.534   4.673
 1322SOL    HW1 3984   0.412   4.570   4.678
 1322SOL    HW2 3985   0.313   4.449   4.725
 1323SOL     OW 3986   0.815   4.296   4.049
 1323SOL    HW1 3987   0.822   4.207   4.003
 1323SOL    HW2 3988   0.721   4.330   4.041
 1324SOL     OW 3989   0.473   4.224   3.915
 1324SOL    HW1 3990   0.534   4.304   3.919
 1324SOL    HW2 3991   0.378   4.255   3.922
 1325SOL     OW 3992   1.302   4.579   4.033
 1325SOL    HW1 3993   1.216   4.548   4.075
 1325SOL    HW2 3994   1.298   4.565   3.934
 1326SOL     OW 3995   1.726   3.859   4.247
 1326SOL    HW1 3996   1.799   3.842   4.180
 1326SOL    HW2 3997   1.695   3.772   4.285
 1327SOL     OW 3998   1.280   4.651   4.396
 1327SOL    HW1 3999   1.340   4.570   4.398
 1327SOL    HW2 4000   1.320   4.720   4.336
 1328SOL     OW 4001   1.841   3.899   4.687
 1328SOL    HW1 4002   1.880   3.814   4.651
 1328SOL    HW2 4003   1.743   3.901   4.668
 1329SOL     OW 4004   0.263   4.050   4.444
 1329SOL    HW1 4005   0.184   4.101   4.410
 1329SOL    HW2 4006   0.254   4.035   4.542
 1330SOL     OW 4007   0.916   4.634   4.015
 1330SOL    HW1 4008   0.979   4.672   3.947
 1330SOL    HW2 4009   0.956   4.551   4.054
 1331SOL     OW 4010   0.075   4.069   3.757
 1331SOL    HW1 4011  -0.017   4.041   3.728
 1331SOL    HW2 4012   0.106   4.146   3.701
 1332SOL     OW 4013   0.072   3.890   4.042
 1332SOL    HW1 4014   0.055   3.973   3.988
 1332SOL    HW2 4015   0.162   3.853   4.020
 1333SOL     OW 4016   1.674   4.607   4.978
 1333SOL    HW1 4017   1.647   4.518   4.941
 1333SOL    HW2 4018   1.675   4.675   4.905
 1334SOL     OW 4019   1.225   4.049   4.173
 1334SOL    HW1 4020   1.290   3.975   4.162
 1334SOL    HW2 4021   1.245   4.099   4.257
 1335SOL     OW 4022   0.594   4.469   4.376
 1335SOL    HW1 4023   0.644   4.554   4.357
 1335SOL    HW2 4024   0.506   4.471   4.328
 1336SOL     OW 4025   0.428   4.148   4.244
 1336SOL    HW1 4026   0.458   4.076   4.182
 1336SOL    HW2 4027   0.389   4.108   4.327
 1337SOL     OW 4028   1.352   3.776   3.892
 1337SOL    HW1 4029   1.387   3.735   3.808
 1337SOL    HW2 4030   1.262   3.738   3.912
 1338SOL     OW 4031   1.300   4.177   4.415
 1338SOL    HW1 4032   1.241   4.257   4.419
 1338SOL    HW2 4033   1.315   4.142   4.508
 1339SOL     OW 4034   1.593   3.945   4.606
 1339SOL    HW1 4035   1.509   3.944   4.660
 1339SOL    HW2 4036   1.595   4.028   4.550
 1340SOL     OW 4037   2.092   0.628   0.113
 1340SOL    HW1 4038   1.999   0.626   0.150
 1340SOL    HW2 4039   2.093   0.589   0.021
 1341SOL     OW 4040   2.087   0.275   0.996
 1341SOL    HW1 4041   2.122   0.258   1.088
 1341SOL    HW2 4042   1.999   0.230   0.984
 1342SOL     OW 4043   1.881   0.368   0.647
 1342SOL    HW1 4044   1.799   0.411   0.686
 1342SOL    HW2 4045   1.853   0.295   0.584
 1343SOL     OW 4046   2.431   1.275   1.165
 1343SOL    HW1 4047   2.338   1.268   1.128
 1343SOL    HW2 4048   2.442   1.364   1.209
 1344SOL     OW 4049   3.417   1.511   0.703
 1344SOL    HW1 4050   3.360   1.495   0.784
 1344SOL    HW2 4051   3.358   1.521   0.623
 1345SOL     OW 4052   2.997   0.703   0.717
 1345SOL    HW1 4053   3.054   0.781   0.692
 1345SOL    HW2 4054   2.937   0.729   0.793
 1346SOL     OW 4055   3.617   0.607   0.231
 1346SOL    HW1 4056   3.605   0.594   0.132
 1346SOL    HW2 4057   3.587   0.526   0.280
 1347SOL     OW 4058   2.630   1.144   1.023
 1347SOL    HW1 4059   2.552   1.161   1.083
 1347SOL    HW2 4060   2.664   1.231   0.987
 1348SOL     OW 4061   2.712   0.798   1.823
 1348SOL    HW1 4062   2.708   0.874   1.888
 1348SOL    HW2 4063   2.734   0.834   1.732
 1349SOL     OW 4064   2.547   1.012   0.665
 1349SOL    HW1 4065   2.616   0.996   0.735
 1349SOL    HW2 4066   2.474   1.069   0.703
 1350SOL     OW 4067   2.548   1.161   1.803
 1350SOL    HW1 4068   2.608   1.240   1.817
 1350SOL    HW2 4069   2.462   1.192   1.762
 1351SOL     OW 4070   2.197   1.435   1.061
 1351SOL    HW1 4071   2.119   1.404   1.008
 1351SOL    HW2 4072   2.255   1.493   1.004
 1352SOL     OW 4073   3.322   1.505   1.339
 1352SOL    HW1 4074   3.346   1.599   1.365
 1352SOL    HW2 4075   3.306   1.451   1.421
 1353SOL     OW 4076   2.300   0.392   1.499
 1353SOL    HW1 4077   2.382   0.336   1.508
 1353SOL    HW2 4078   2.219   0.334   1.503
 1354SOL     OW 4079   3.465   0.447   0.737
 1354SOL    HW1 4080   3.391   0.493   0.687
 1354SOL    HW2 4081   3.516   0.515   0.790
 1355SOL     OW 4082   2.093   1.713   0.483
 1355SOL    HW1 4083   2.127   1.790   0.537
 1355SOL    HW2 4084   2.137   1.713   0.393
 1356SOL     OW 4085   2.989   1.341   1.690
 1356SOL    HW1 4086   3.036   1.341   1.778
 1356SOL    HW2 4087   2.941   1.254   1.679
 1357SOL     OW 4088   2.092   1.434   0.538
 1357SOL    HW1 4089   2.066   1.530   0.538
 1357SOL    HW2 4090   2.021   1.380   0.583
 1358SOL     OW 4091   2.102   1.091   0.886
 1358SOL    HW1 4092   2.116   1.007   0.938
 1358SOL    HW2 4093   2.047   1.155   0.941
 1359SOL     OW 4094   2.482   1.786   1.439
 1359SOL    HW1 4095   2.390   1.769   1.474
 1359SOL    HW2 4096   2.510   1.878   1.465
 1360SOL     OW 4097   2.468   0.964   0.123
 1360SOL    HW1 4098   2.475   1.048   0.069
 1360SOL    HW2 4099   2.514   0.977   0.211
 1361SOL     OW 4100   3.456   0.114   1.480
 1361SOL    HW1 4101   3.438   0.181   1.408
 1361SOL    HW2 4102   3.453   0.160   1.569
 1362SOL     OW 4103   1.984   0.643   0.563
 1362SOL    HW1 4104   1.939   0.555   0.580
 1362SOL    HW2 4105   1.983   0.697   0.647
 1363SOL     OW 4106   3.704   1.767   0.359
 1363SOL    HW1 4107   3.758   1.738   0.439
 1363SOL    HW2 4108   3.734   1.857   0.330
 1364SOL     OW 4109   3.551   0.922   0.612
 1364SOL    HW1 4110   3.646   0.893   0.620
 1364SOL    HW2 4111   3.543   0.987   0.537
 1365SOL     OW 4112   3.503   1.108   0.432
 1365SOL    HW1 4113   3.589   1.110   0.380
 1365SOL    HW2 4114   3.517   1.155   0.520
 1366SOL     OW 4115   1.975   0.737   1.597
 1366SOL    HW1 4116   2.063   0.724   1.642
 1366SOL    HW2 4117   1.962   0.834   1.575
 1367SOL     OW 4118   2.475   1.365   0.726
 1367SOL    HW1 4119   2.426   1.278   0.735
 1367SOL    HW2 4120   2.452   1.408   0.639
 1368SOL     OW 4121   3.155   1.228   1.423
 1368SOL    HW1 4122   3.192   1.155   1.365
 1368SOL    HW2 4123   3.207   1.233   1.508
 1369SOL     OW 4124   2.671   0.004   0.502
 1369SOL    HW1 4125   2.711   0.095   0.493
 1369SOL    HW2 4126   2.571   0.012   0.508
 1370SOL     OW 4127   2.059   0.976   1.264
 1370SOL    HW1 4128   2.148   0.931   1.250
 1370SOL    HW2 4129   1.986   0.911   1.245
 1371SOL     OW 4130   3.387   0.999   0.190
 1371SOL    HW1 4131   3.324   0.923   0.203
 1371SOL    HW2 4132   3.435   1.017   0.276
 1372SOL     OW 4133   3.049   1.792   1.616
 1372SOL    HW1 4134   3.073   1.852   1.540
 1372SOL    HW2 4135   3.056   1.697   1.586
 1373SOL     OW 4136   2.179   0.251   1.801
 1373SOL    HW1 4137   2.250   0.322   1.807
 1373SOL    HW2 4138   2.091   0.290   1.829
 1374SOL     OW 4139   3.328   1.417   0.953
 1374SOL    HW1 4140   3.269   1.423   1.033
 1374SOL    HW2 4141   3.313   1.329   0.907
 1375SOL     OW 4142   3.529   1.714   0.572
 1375SOL    HW1 4143   3.488   1.691   0.484
 1375SOL    HW2 4144   3.511   1.640   0.637
 1376SOL     OW 4145   2.460   0.729   0.270
 1376SOL    HW1 4146   2.484   0.798   0.202
 1376SOL    HW2 4147   2.382   0.762   0.324
 1377SOL     OW 4148   3.143   0.345   0.944
 1377SOL    HW1 4149   3.057   0.295   0.931
 1377SOL    HW2 4150   3.205   0.291   1.000
 1378SOL     OW 4151   3.438   1.662   0.307
 1378SOL    HW1 4152   3.527   1.708   0.310
 1378SOL    HW2 4153   3.417   1.638   0.212
 1379SOL     OW 4154   2.669   0.605   1.465
 1379SOL    HW1 4155   2.622   0.602   1.554
 1379SOL    HW2 4156   2.618   0.550   1.399
 1380SOL     OW 4157   3.256   0.469   1.674
 1380SOL    HW1 4158   3.236   0.512   1.762
 1380SOL    HW2 4159   3.334   0.407   1.683
 1381SOL     OW 4160   2.835   0.890   1.572
 1381SOL    HW1 4161   2.881   0.806   1.543
 1381SOL    HW2 4162   2.779   0.924   1.497
 1382SOL     OW 4163   2.853   0.410   1.242
 1382SOL    HW1 4164   2.776   0.444   1.296
 1382SOL    HW2 4165   2.819   0.359   1.163
 1383SOL     OW 4166   2.903   0.701   0.429
 1383SOL    HW1 4167   2.929   0.697   0.525
 1383SOL    HW2 4168   2.818   0.650   0.415
 1384SOL     OW 4169   1.938   0.811   0.789
 1384SOL    HW1 4170   2.037   0.799   0.798
 1384SOL    HW2 4171   1.914   0.906   0.810
 1385SOL     OW 4172   1.992   1.821   1.571
 1385SOL    HW1 4173   1.982   1.806   1.670
 1385SOL    HW2 4174   1.906   1.857   1.535
 1386SOL     OW 4175   2.727   0.348   0.195
 1386SOL    HW1 4176   2.786   0.411   0.146
 1386SOL    HW2 4177   2.746   0.254   0.166
 1387SOL     OW 4178   3.581   0.585   1.831
 1387SOL    HW1 4179   3.555   0.674   1.795
 1387SOL    HW2 4180   3.579   0.517   1.758
 1388SOL     OW 4181   3.224   1.144   0.545
 1388SOL    HW1 4182   3.307   1.115   0.497
 1388SOL    HW2 4183   3.175   1.211   0.489
 1389SOL     OW 4184   2.412   0.196   0.885
 1389SOL    HW1 4185   2.407   0.191   0.985
 1389SOL    HW2 4186   2.414   0.292   0.856
 1390SOL     OW 4187   2.870   1.456   0.477
 1390SOL    HW1 4188   2.824   1.528   0.425
 1390SOL    HW2 4189   2.866   1.476   0.575
 1391SOL     OW 4190   2.213   1.801   0.853
 1391SOL    HW1 4191   2.263   1.715   0.859
 1391SOL    HW2 4192   2.278   1.878   0.850
 1392SOL     OW 4193   3.657   1.066   0.873
 1392SOL    HW1 4194   3.595   1.051   0.797
 1392SOL    HW2 4195   3.605   1.077   0.958
 1393SOL     OW 4196   3.089   1.550   1.506
 1393SOL    HW1 4197   3.095   1.473   1.570
 1393SOL    HW2 4198   3.037   1.524   1.426
 1394SOL     OW 4199   2.183   0.943   0.242
 1394SOL    HW1 4200   2.265   0.982   0.200
 1394SOL    HW2 4201   2.156   0.861   0.193
 1395SOL     OW 4202   3.320   0.735   0.728
 1395SOL    HW1 4203   3.315   0.670   0.803
 1395SOL    HW2 4204   3.400   0.794   0.741
 1396SOL     OW 4205   2.323   1.266   1.727
 1396SOL    HW1 4206   2.273   1.267   1.641
 1396SOL    HW2 4207   2.260   1.248   1.803
 1397SOL     OW 4208   2.973   1.776   0.237
 1397SOL    HW1 4209   2.913   1.714   0.287
 1397SOL    HW2 4210   3.004   1.732   0.152
 1398SOL     OW 4211   2.064   0.285   1.498
 1398SOL    HW1 4212   1.984   0.345   1.485
 1398SOL    HW2 4213   2.054   0.236   1.584
 1399SOL     OW 4214   3.494   1.377   0.081
 1399SOL    HW1 4215   3.462   1.471   0.071
 1399SOL    HW2 4216   3.418   1.314   0.069
 1400SOL     OW 4217   2.326   1.743   0.323
 1400SOL    HW1 4218   2.359   1.782   0.409
 1400SOL    HW2 4219   2.402   1.736   0.258
 1401SOL     OW 4220   3.262   0.107   0.426
 1401SOL    HW1 4221   3.238   0.070   0.336
 1401SOL    HW2 4222   3.361   0.123   0.430
 1402SOL     OW 4223   2.111   1.785   1.241
 1402SOL    HW1 4224   2.168   1.720   1.291
 1402SOL    HW2 4225   2.095   1.752   1.148
 1403SOL     OW 4226   2.802   1.698   0.904
 1403SOL    HW1 4227   2.882   1.641   0.925
 1403SOL    HW2 4228   2.753   1.658   0.827
 1404SOL     OW 4229   2.244   0.700   0.480
 1404SOL    HW1 4230   2.289   0.610   0.477
 1404SOL    HW2 4231   2.150   0.689   0.513
 1405SOL     OW 4232   3.409   0.222   1.729
 1405SOL    HW1 4233   3.404   0.259   1.821
 1405SOL    HW2 4234   3.337   0.153   1.717
 1406SOL     OW 4235   2.476   0.122   0.117
 1406SOL    HW1 4236   2.574   0.100   0.124
 1406SOL    HW2 4237   2.445   0.105   0.024
 1407SOL     OW 4238   2.643   0.264   1.749
 1407SOL    HW1 4239   2.710   0.203   1.792
 1407SOL    HW2 4240   2.570   0.283   1.814
 1408SOL     OW 4241   2.750   1.514   1.195
 1408SOL    HW1 4242   2.727   1.489   1.101
 1408SOL    HW2 4243   2.811   1.445   1.234
 1409SOL     OW 4244   3.213   0.590   1.433
 1409SOL    HW1 4245   3.241   0.547   1.518
 1409SOL    HW2 4246   3.238   0.686   1.434
 1410SOL     OW 4247   2.665   1.402   0.924
 1410SOL    HW1 4248   2.755   1.416   0.882
 1410SOL    HW2 4249   2.594   1.404   0.853
 1411SOL     OW 4250   2.784   0.503   0.899
 1411SOL    HW1 4251   2.759   0.494   0.803
 1411SOL    HW2 4252   2.832   0.421   0.930
 1412SOL     OW 4253   2.401   0.064   0.512
 1412SOL    HW1 4254   2.320   0.065   0.570
 1412SOL    HW2 4255   2.404   0.147   0.457
 1413SOL     OW 4256   3.296   1.188   0.041
 1413SOL    HW1 4257   3.328   1.112   0.098
 1413SOL    HW2 4258   3.204   1.215   0.071
 1414SOL     OW 4259   2.159   0.035   0.171
 1414SOL    HW1 4260   2.208   0.119   0.150
 1414SOL    HW2 4261   2.221  -0.030   0.216
 1415SOL     OW 4262   2.797   0.236   0.480
 1415SOL    HW1 4263   2.749   0.277   0.402
 1415SOL    HW2 4264   2.896   0.234   0.461
 1416SOL     OW 4265   2.938   0.683   1.464
 1416SOL    HW1 4266   2.858   0.622   1.467
 1416SOL    HW2 4267   3.019   0.630   1.440
 1417SOL     OW 4268   3.089   1.570   0.793
 1417SOL    HW1 4269   3.110   1.644   0.728
 1417SOL    HW2 4270   3.157   1.570   0.866
 1418SOL     OW 4271   2.321   1.152   0.741
 1418SOL    HW1 4272   2.250   1.125   0.806
 1418SOL    HW2 4273   2.295   1.124   0.648
 1419SOL     OW 4274   3.133   1.797   0.591
 1419SOL    HW1 4275   3.177   1.861   0.527
 1419SOL    HW2 4276   3.083   1.849   0.661
 1420SOL     OW 4277   2.894   0.549   0.016
 1420SOL    HW1 4278   2.853   0.631  -0.023
 1420SOL    HW2 4279   2.958   0.575   0.089
 1421SOL     OW 4280   1.940   0.556   1.386
 1421SOL    HW1 4281   2.032   0.555   1.345
 1421SOL    HW2 4282   1.934   0.630   1.453
 1422SOL     OW 4283   2.423   0.222   1.147
 1422SOL    HW1 4284   2.461   0.138   1.184
 1422SOL    HW2 4285   2.335   0.241   1.191
 1423SOL     OW 4286   2.728   0.454   0.642
 1423SOL    HW1 4287   2.696   0.526   0.580
 1423SOL    HW2 4288   2.752   0.373   0.589
 1424SOL     OW 4289   2.879   0.039   0.753
 1424SOL    HW1 4290   2.807   0.044   0.684
 1424SOL    HW2 4291   2.855  -0.030   0.822
 1425SOL     OW 4292   3.291   1.173   0.867
 1425SOL    HW1 4293   3.236   1.089   0.860
 1425SOL    HW2 4294   3.317   1.202   0.775
 1426SOL     OW 4295   3.328   0.590   0.992
 1426SOL    HW1 4296   3.298   0.495   0.999
 1426SOL    HW2 4297   3.401   0.606   1.058
 1427SOL     OW 4298   3.719   0.833   0.377
 1427SOL    HW1 4299   3.761   0.769   0.441
 1427SOL    HW2 4300   3.681   0.782   0.299
 1428SOL     OW 4301   2.350   1.385   0.174
 1428SOL    HW1 4302   2.263   1.370   0.221
 1428SOL    HW2 4303   2.333   1.411   0.079
 1429SOL     OW 4304   3.526   1.280   0.657
 1429SOL    HW1 4305   3.625   1.288   0.671
 1429SOL    HW2 4306   3.481   1.364   0.688
 1430SOL     OW 4307   3.252   0.575   0.078
 1430SOL    HW1 4308   3.198   0.554   0.159
 1430SOL    HW2 4309   3.343   0.534   0.087
 1431SOL     OW 4310   2.389   0.256   0.328
 1431SOL    HW1 4311   2.416   0.197   0.253
 1431SOL    HW2 4312   2.389   0.351   0.297
 1432SOL     OW 4313   3.616   1.223   1.588
 1432SOL    HW1 4314   3.707   1.184   1.575
 1432SOL    HW2 4315   3.624   1.319   1.612
 1433SOL     OW 4316   2.926   1.347   1.340
 1433SOL    HW1 4317   2.846   1.324   1.395
 1433SOL    HW2 4318   3.009   1.321   1.389
 1434SOL     OW 4319   3.454   1.629   1.625
 1434SOL    HW1 4320   3.481   1.663   1.535
 1434SOL    HW2 4321   3.533   1.591   1.671
 1435SOL     OW 4322   2.973   1.195   1.100
 1435SOL    HW1 4323   2.933   1.239   1.181
 1435SOL    HW2 4324   2.932   1.232   1.017
 1436SOL     OW 4325   3.500   1.099   1.079
 1436SOL    HW1 4326   3.505   1.180   1.138
 1436SOL    HW2 4327   3.414   1.101   1.028
 1437SOL     OW 4328   2.777   0.089   1.402
 1437SOL    HW1 4329   2.802   0.069   1.307
 1437SOL    HW2 4330   2.849   0.145   1.444
 1438SOL     OW 4331   2.842   1.116   1.719
 1438SOL    HW1 4332   2.743   1.122   1.729
 1438SOL    HW2 4333   2.865   1.036   1.663
 1439SOL     OW 4334   2.567   1.050   0.368
 1439SOL    HW1 4335   2.553   1.057   0.467
 1439SOL    HW2 4336   2.651   0.999   0.350
 1440SOL     OW 4337   2.272   0.813   1.251
 1440SOL    HW1 4338   2.358   0.825   1.301
 1440SOL    HW2 4339   2.230   0.726   1.278
 1441SOL     OW 4340   3.136   0.386   1.262
 1441SOL    HW1 4341   3.157   0.460   1.326
 1441SOL    HW2 4342   3.047   0.403   1.219
 1442SOL     OW 4343   1.926   1.564   1.331
 1442SOL    HW1 4344   1.880   1.646   1.297
 1442SOL    HW2 4345   2.024   1.583   1.340
 1443SOL     OW 4346   2.229   1.100   0.501
 1443SOL    HW1 4347   2.222   1.183   0.445
 1443SOL    HW2 4348   2.233   1.020   0.441
 1444SOL     OW 4349   2.428   0.537   0.865
 1444SOL    HW1 4350   2.440   0.603   0.791
 1444SOL    HW2 4351   2.474   0.571   0.948
 1445SOL     OW 4352   3.114   1.348   0.388
 1445SOL    HW1 4353   3.164   1.425   0.428
 1445SOL    HW2 4354   3.019   1.350   0.420
 1446SOL     OW 4355   3.134   1.445   1.142
 1446SOL    HW1 4356   3.181   1.458   1.229
 1446SOL    HW2 4357   3.068   1.371   1.151
 1447SOL     OW 4358   3.444   0.639   0.472
 1447SOL    HW1 4359   3.413   0.700   0.545
 1447SOL    HW2 4360   3.494   0.691   0.403
 1448SOL     OW 4361   2.216   1.510   1.329
 1448SOL    HW1 4362   2.195   1.466   1.242
 1448SOL    HW2 4363   2.313   1.536   1.332
 1449SOL     OW 4364   2.264   0.751   1.598
 1449SOL    HW1 4365   2.332   0.806   1.551
 1449SOL    HW2 4366   2.304   0.663   1.625
 1450SOL     OW 4367   3.449   0.779   1.670
 1450SOL    HW1 4368   3.357   0.817   1.665
 1450SOL    HW2 4369   3.509   0.826   1.605
 1451SOL     OW 4370   2.875   0.105   1.770
 1451SOL    HW1 4371   2.881   0.190   1.718
 1451SOL    HW2 4372   2.907   0.029   1.713
 1452SOL     OW 4373   2.366   0.050   1.740
 1452SOL    HW1 4374   2.324  -0.007   1.670
 1452SOL    HW2 4375   2.300   0.119   1.772
 1453SOL     OW 4376   2.435   0.870   1.029
 1453SOL    HW1 4377   2.479   0.959   1.020
 1453SOL    HW2 4378   2.372   0.870   1.106
 1454SOL     OW 4379   3.222   0.862   1.045
 1454SOL    HW1 4380   3.147   0.862   0.979
 1454SOL    HW2 4381   3.259   0.770   1.054
 1455SOL     OW 4382   3.071   0.525   0.275
 1455SOL    HW1 4383   3.084   0.441   0.329
 1455SOL    HW2 4384   3.042   0.599   0.335
 1456SOL     OW 4385   2.169   0.213   1.231
 1456SOL    HW1 4386   2.146   0.250   1.321
 1456SOL    HW2 4387   2.139   0.118   1.225
 1457SOL     OW 4388   1.899   1.310   1.282
 1457SOL    HW1 4389   1.952   1.261   1.350
 1457SOL    HW2 4390   1.921   1.408   1.287
 1458SOL     OW 4391   2.594   0.634   1.064
 1458SOL    HW1 4392   2.653   0.608   0.988
 1458SOL    HW2 4393   2.566   0.730   1.053
 1459SOL     OW 4394   3.590   0.935   1.854
 1459SOL    HW1 4395   3.544   0.928   1.765
 1459SOL    HW2 4396   3.528   0.979   1.920
 1460SOL     OW 4397   2.169   0.063   0.618
 1460SOL    HW1 4398   2.158   0.157   0.651
 1460SOL    HW2 4399   2.164   0.000   0.695
 1461SOL     OW 4400   3.484   0.367   0.374
 1461SOL    HW1 4401   3.486   0.291   0.438
 1461SOL    HW2 4402   3.436   0.444   0.414
 1462SOL     OW 4403   2.885   0.766   0.966
 1462SOL    HW1 4404   2.900   0.787   1.062
 1462SOL    HW2 4405   2.855   0.671   0.957
 1463SOL     OW 4406   2.842   1.573   1.700
 1463SOL    HW1 4407   2.822   1.617   1.612
 1463SOL    HW2 4408   2.881   1.482   1.684
 1464SOL     OW 4409   3.721   1.518   1.605
 1464SOL    HW1 4410   3.735   1.545   1.510
 1464SOL    HW2 4411   3.804   1.540   1.658
 1465SOL     OW 4412   2.212   0.898   1.804
 1465SOL    HW1 4413   2.288   0.942   1.852
 1465SOL    HW2 4414   2.247   0.851   1.722
 1466SOL     OW 4415   3.402   0.274   0.125
 1466SOL    HW1 4416   3.341   0.199   0.148
 1466SOL    HW2 4417   3.424   0.326   0.208
 1467SOL     OW 4418   3.165   0.838   0.042
 1467SOL    HW1 4419   3.199   0.745   0.057
 1467SOL    HW2 4420   3.183   0.865  -0.053
 1468SOL     OW 4421   2.930   1.333   0.849
 1468SOL    HW1 4422   2.937   1.249   0.794
 1468SOL    HW2 4423   2.992   1.402   0.813
 1469SOL     OW 4424   2.181   0.810   0.949
 1469SOL    HW1 4425   2.274   0.846   0.954
 1469SOL    HW2 4426   2.175   0.725   1.001
 1470SOL     OW 4427   2.201   0.509   1.006
 1470SOL    HW1 4428   2.149   0.426   0.989
 1470SOL    HW2 4429   2.278   0.514   0.942
 1471SOL     OW 4430   3.000   0.380   1.678
 1471SOL    HW1 4431   2.955   0.443   1.742
 1471SOL    HW2 4432   3.093   0.411   1.661
 1472SOL     OW 4433   3.022   0.207   1.477
 1472SOL    HW1 4434   3.022   0.271   1.554
 1472SOL    HW2 4435   3.050   0.255   1.394
 1473SOL     OW 4436   1.870   1.326   0.200
 1473SOL    HW1 4437   1.777   1.347   0.169
 1473SOL    HW2 4438   1.880   1.227   0.213
 1474SOL     OW 4439   1.950   1.801   0.927
 1474SOL    HW1 4440   1.908   1.715   0.900
 1474SOL    HW2 4441   2.044   1.804   0.893
 1475SOL     OW 4442   2.366   1.568   0.910
 1475SOL    HW1 4443   2.432   1.642   0.919
 1475SOL    HW2 4444   2.410   1.489   0.868
 1476SOL     OW 4445   2.864   0.796   1.238
 1476SOL    HW1 4446   2.905   0.764   1.324
 1476SOL    HW2 4447   2.768   0.769   1.235
 1477SOL     OW 4448   1.902   0.544   1.114
 1477SOL    HW1 4449   1.987   0.511   1.073
 1477SOL    HW2 4450   1.915   0.559   1.212
 1478SOL     OW 4451   2.051   0.520   1.722
 1478SOL    HW1 4452   2.110   0.480   1.652
 1478SOL    HW2 4453   1.993   0.591   1.681
 1479SOL     OW 4454   3.231   0.950   1.660
 1479SOL    HW1 4455   3.270   1.039   1.680
 1479SOL    HW2 4456   3.241   0.930   1.563
 1480SOL     OW 4457   2.677   0.572   0.325
 1480SOL    HW1 4458   2.684   0.483   0.279
 1480SOL    HW2 4459   2.583   0.606   0.317
 1481SOL     OW 4460   3.519   0.604   1.206
 1481SOL    HW1 4461   3.481   0.535   1.268
 1481SOL    HW2 4462   3.601   0.568   1.162
 1482SOL     OW 4463   2.114   1.564   1.744
 1482SOL    HW1 4464   2.084   1.621   1.820
 1482SOL    HW2 4465   2.107   1.467   1.770
 1483SOL     OW 4466   2.533   0.464   1.269
 1483SOL    HW1 4467   2.499   0.375   1.239
 1483SOL    HW2 4468   2.559   0.518   1.189
 1484SOL     OW 4469   2.792   1.678   1.465
 1484SOL    HW1 4470   2.768   1.660   1.370
 1484SOL    HW2 4471   2.822   1.772   1.475
 1485SOL     OW 4472   2.335   0.500   0.191
 1485SOL    HW1 4473   2.396   0.580   0.195
 1485SOL    HW2 4474   2.240   0.531   0.198
 1486SOL     OW 4475   2.021   1.137   1.466
 1486SOL    HW1 4476   2.043   1.076   1.542
 1486SOL    HW2 4477   2.031   1.088   1.380
 1487SOL     OW 4478   3.209   1.059   1.234
 1487SOL    HW1 4479   3.233   0.996   1.160
 1487SOL    HW2 4480   3.119   1.099   1.216
 1488SOL     OW 4481   3.164   0.855   0.309
 1488SOL    HW1 4482   3.078   0.824   0.351
 1488SOL    HW2 4483   3.160   0.841   0.210
 1489SOL     OW 4484   3.621   1.747   1.154
 1489SOL    HW1 4485   3.682   1.777   1.081
 1489SOL    HW2 4486   3.583   1.658   1.132
 1490SOL     OW 4487   3.114   1.731   1.128
 1490SOL    HW1 4488   3.198   1.736   1.074
 1490SOL    HW2 4489   3.091   1.635   1.146
 1491SOL     OW 4490   1.945   1.258   1.022
 1491SOL    HW1 4491   1.940   1.257   1.122
 1491SOL    HW2 4492   1.862   1.217   0.984
 1492SOL     OW 4493   2.550   1.662   1.716
 1492SOL    HW1 4494   2.494   1.743   1.725
 1492SOL    HW2 4495   2.602   1.666   1.630
 1493SOL     OW 4496   2.765   0.086   0.133
 1493SOL    HW1 4497   2.816   0.087   0.047
 1493SOL    HW2 4498   2.821   0.044   0.204
 1494SOL     OW 4499   3.588   0.135   0.523
 1494SOL    HW1 4500   3.661   0.118   0.456
 1494SOL    HW2 4501   3.557   0.048   0.561
 1495SOL     OW 4502   3.250   1.573   0.477
 1495SOL    HW1 4503   3.317   1.585   0.403
 1495SOL    HW2 4504   3.210   1.662   0.500
 1496SOL     OW 4505   1.992   1.794   1.851
 1496SOL    HW1 4506   1.951   1.720   1.904
 1496SOL    HW2 4507   2.056   1.845   1.909
 1497SOL     OW 4508   3.142   0.927   0.672
 1497SOL    HW1 4509   3.202   0.846   0.674
 1497SOL    HW2 4510   3.182   0.996   0.612
 1498SOL     OW 4511   2.692   1.273   1.422
 1498SOL    HW1 4512   2.687   1.306   1.517
 1498SOL    HW2 4513   2.606   1.292   1.376
 1499SOL     OW 4514   2.534   1.616   0.154
 1499SOL    HW1 4515   2.543   1.626   0.055
 1499SOL    HW2 4516   2.494   1.527   0.175
 1500SOL     OW 4517   3.512   1.720   1.394
 1500SOL    HW1 4518   3.565   1.730   1.310
 1500SOL    HW2 4519   3.485   1.810   1.428
 1501SOL     OW 4520   3.703   0.175   0.963
 1501SOL    HW1 4521   3.742   0.090   0.927
 1501SOL    HW2 4522   3.605   0.177   0.944
 1502SOL     OW 4523   2.125   0.326   0.720
 1502SOL    HW1 4524   2.046   0.377   0.686
 1502SOL    HW2 4525   2.116   0.311   0.818
 1503SOL     OW 4526   3.056   1.612   0.031
 1503SOL    HW1 4527   3.062   1.519   0.068
 1503SOL    HW2 4528   2.997   1.612  -0.049
 1504SOL     OW 4529   2.684   1.002   1.372
 1504SOL    HW1 4530   2.724   1.001   1.280
 1504SOL    HW2 4531   2.694   1.094   1.412
 1505SOL     OW 4532   2.778   0.910   0.291
 1505SOL    HW1 4533   2.841   0.948   0.223
 1505SOL    HW2 4534   2.818   0.827   0.330
 1506SOL     OW 4535   3.366   1.607   0.044
 1506SOL    HW1 4536   3.274   1.644   0.051
 1506SOL    HW2 4537   3.404   1.627  -0.046
 1507SOL     OW 4538   2.234   1.288   1.490
 1507SOL    HW1 4539   2.221   1.381   1.456
 1507SOL    HW2 4540   2.150   1.236   1.477
 1508SOL     OW 4541   3.476   1.292   1.289
 1508SOL    HW1 4542   3.536   1.295   1.369
 1508SOL    HW2 4543   3.401   1.356   1.302
 1509SOL     OW 4544   2.901   1.098   0.696
 1509SOL    HW1 4545   2.831   1.051   0.750
 1509SOL    HW2 4546   2.960   1.030   0.653
 1510SOL     OW 4547   2.876   0.236   0.971
 1510SOL    HW1 4548   2.868   0.200   0.878
 1510SOL    HW2 4549   2.874   0.160   1.036
 1511SOL     OW 4550   2.452   1.487   0.491
 1511SOL    HW1 4551   2.494   1.429   0.421
 1511SOL    HW2 4552   2.408   1.566   0.447
 1512SOL     OW 4553   3.571   0.385   1.381
 1512SOL    HW1 4554   3.644   0.454   1.385
 1512SOL    HW2 4555   3.599   0.310   1.322
 1513SOL     OW 4556   2.117   1.348   0.290
 1513SOL    HW1 4557   2.021   1.349   0.263
 1513SOL    HW2 4558   2.129   1.401   0.374
 1514SOL     OW 4559   1.967   1.013   1.726
 1514SOL    HW1 4560   1.890   0.980   1.780
 1514SOL    HW2 4561   2.052   0.983   1.768
 1515SOL     OW 4562   2.534   0.203   1.489
 1515SOL    HW1 4563   2.624   0.187   1.449
 1515SOL    HW2 4564   2.542   0.208   1.588
 1516SOL     OW 4565   3.302   0.856   1.398
 1516SOL    HW1 4566   3.245   0.908   1.335
 1516SOL    HW2 4567   3.398   0.868   1.374
 1517SOL     OW 4568   3.045   1.335   0.119
 1517SOL    HW1 4569   2.946   1.324   0.121
 1517SOL    HW2 4570   3.079   1.350   0.212
 1518SOL     OW 4571   2.475   0.842   1.431
 1518SOL    HW1 4572   2.531   0.923   1.414
 1518SOL    HW2 4573   2.534   0.762   1.434
 1519SOL     OW 4574   3.355   1.767   0.959
 1519SOL    HW1 4575   3.388   1.831   0.890
 1519SOL    HW2 4576   3.421   1.761   1.034
 1520SOL     OW 4577   2.578   0.565   1.708
 1520SOL    HW1 4578   2.597   0.630   1.782
 1520SOL    HW2 4579   2.638   0.485   1.717
 1521SOL     OW 4580   3.312   1.220   1.633
 1521SOL    HW1 4581   3.303   1.210   1.732
 1521SOL    HW2 4582   3.408   1.213   1.607
 1522SOL     OW 4583   2.252   1.741   1.560
 1522SOL    HW1 4584   2.161   1.782   1.558
 1522SOL    HW2 4585   2.245   1.647   1.592
 1523SOL     OW 4586   3.536   0.883   1.254
 1523SOL    HW1 4587   3.509   0.794   1.217
 1523SOL    HW2 4588   3.537   0.951   1.181
 1524SOL     OW 4589   3.087   0.325   0.449
 1524SOL    HW1 4590   3.152   0.251   0.438
 1524SOL    HW2 4591   3.107   0.375   0.533
 1525SOL     OW 4592   2.456   0.745   0.652
 1525SOL    HW1 4593   2.506   0.830   0.633
 1525SOL    HW2 4594   2.368   0.747   0.604
 1526SOL     OW 4595   3.639   0.342   1.642
 1526SOL    HW1 4596   3.622   0.373   1.548
 1526SOL    HW2 4597   3.555   0.305   1.680
 1527SOL     OW 4598   3.592   0.934   1.517
 1527SOL    HW1 4599   3.630   1.025   1.532
 1527SOL    HW2 4600   3.584   0.917   1.418
 1528SOL     OW 4601   2.721   1.374   0.016
 1528SOL    HW1 4602   2.675   1.389   0.104
 1528SOL    HW2 4603   2.765   1.459  -0.014
 1529SOL     OW 4604   2.523   1.790   0.953
 1529SOL    HW1 4605   2.477   1.878   0.940
 1529SOL    HW2 4606   2.622   1.802   0.946
 1530SOL     OW 4607   2.721   0.956   0.861
 1530SOL    HW1 4608   2.775   0.887   0.909
 1530SOL    HW2 4609   2.689   1.025   0.927
 1531SOL     OW 4610   2.945   0.984   0.087
 1531SOL    HW1 4611   2.922   1.037   0.005
 1531SOL    HW2 4612   3.026   0.928   0.068
 1532SOL     OW 4613   3.723   1.569   0.851
 1532SOL    HW1 4614   3.652   1.557   0.781
 1532SOL    HW2 4615   3.724   1.490   0.911
 1533SOL     OW 4616   2.083   1.314   1.844
 1533SOL    HW1 4617   2.018   1.241   1.823
 1533SOL    HW2 4618   2.087   1.328   1.942
 1534SOL     OW 4619   1.941   1.240   0.653
 1534SOL    HW1 4620   1.940   1.193   0.741
 1534SOL    HW2 4621   2.023   1.212   0.602
 1535SOL     OW 4622   2.534   1.391   1.624
 1535SOL    HW1 4623   2.456   1.341   1.662
 1535SOL    HW2 4624   2.531   1.486   1.655
 1536SOL     OW 4625   3.686   0.192   1.227
 1536SOL    HW1 4626   3.682   0.102   1.271
 1536SOL    HW2 4627   3.689   0.181   1.128
 1537SOL     OW 4628   2.290   0.424   0.520
 1537SOL    HW1 4629   2.320   0.352   0.458
 1537SOL    HW2 4630   2.251   0.384   0.603
 1538SOL     OW 4631   3.567   1.487   1.104
 1538SOL    HW1 4632   3.474   1.462   1.077
 1538SOL    HW2 4633   3.593   1.437   1.186
 1539SOL     OW 4634   2.179   0.547   1.280
 1539SOL    HW1 4635   2.217   0.488   1.352
 1539SOL    HW2 4636   2.219   0.521   1.192
 1540SOL     OW 4637   2.674   1.586   0.687
 1540SOL    HW1 4638   2.706   1.596   0.593
 1540SOL    HW2 4639   2.595   1.524   0.689
 1541SOL     OW 4640   3.286   0.214   1.112
 1541SOL    HW1 4641   3.338   0.149   1.167
 1541SOL    HW2 4642   3.237   0.277   1.173
 1542SOL     OW 4643   2.863   0.034   1.154
 1542SOL    HW1 4644   2.800  -0.038   1.123
 1542SOL    HW2 4645   2.956  -0.002   1.154
 1543SOL     OW 4646   2.632   1.330   0.301
 1543SOL    HW1 4647   2.586   1.243   0.318
 1543SOL    HW2 4648   2.723   1.327   0.342
 1544SOL     OW 4649   2.480   1.567   1.284
 1544SOL    HW1 4650   2.475   1.649   1.341
 1544SOL    HW2 4651   2.569   1.564   1.239
 1545SOL     OW 4652   3.214   0.052   0.168
 1545SOL    HW1 4653   3.249   0.011   0.084
 1545SOL    HW2 4654   3.124   0.014   0.188
 1546SOL     OW 4655   3.162   0.453   0.691
 1546SOL    HW1 4656   3.103   0.533   0.695
 1546SOL    HW2 4657   3.177   0.418   0.784
 1547SOL     OW 4658   3.455   0.221   0.882
 1547SOL    HW1 4659   3.371   0.220   0.936
 1547SOL    HW2 4660   3.457   0.304   0.826
 1548SOL     OW 4661   1.901   1.077   0.300
 1548SOL    HW1 4662   2.000   1.066   0.291
 1548SOL    HW2 4663   1.861   0.991   0.332
 1549SOL     OW 4664   2.737   1.646   0.337
 1549SOL    HW1 4665   2.660   1.611   0.283
 1549SOL    HW2 4666   2.705   1.717   0.399
 1550SOL     OW 4667   2.092   0.628   1.975
 1550SOL    HW1 4668   1.999   0.626   2.012
 1550SOL    HW2 4669   2.093   0.589   1.883
 1551SOL     OW 4670   2.087   0.275   2.858
 1551SOL    HW1 4671   2.122   0.258   2.950
 1551SOL    HW2 4672   1.999   0.230   2.846
 1552SOL     OW 4673   1.881   0.368   2.509
 1552SOL    HW1 4674   1.799   0.411   2.548
 1552SOL    HW2 4675   1.853   0.295   2.446
 1553SOL     OW 4676   2.431   1.275   3.027
 1553SOL    HW1 4677   2.338   1.268   2.990
 1553SOL    HW2 4678   2.442   1.364   3.071
 1554SOL     OW 4679   3.417   1.511   2.565
 1554SOL    HW1 4680   3.360   1.495   2.646
 1554SOL    HW2 4681   3.358   1.521   2.485
 1555SOL     OW 4682   2.997   0.703   2.579
 1555SOL    HW1 4683   3.054   0.781   2.554
 1555SOL    HW2 4684   2.937   0.729   2.655
 1556SOL     OW 4685   3.617   0.607   2.093
 1556SOL    HW1 4686   3.605   0.594   1.994
 1556SOL    HW2 4687   3.587   0.526   2.142
 1557SOL     OW 4688   2.630   1.144   2.885
 1557SOL    HW1 4689   2.552   1.161   2.945
 1557SOL    HW2 4690   2.664   1.231   2.849
 1558SOL     OW 4691   2.712   0.798   3.685
 1558SOL    HW1 4692   2.708   0.874   3.750
 1558SOL    HW2 4693   2.734   0.834   3.594
 1559SOL     OW 4694   2.547   1.012   2.527
 1559SOL    HW1 4695   2.616   0.996   2.597
 1559SOL    HW2 4696   2.474   1.069   2.565
 1560SOL     OW 4697   2.548   1.161   3.665
 1560SOL    HW1 4698   2.608   1.240   3.679
 1560SOL    HW2 4699   2.462   1.192   3.624
 1561SOL     OW 4700   2.197   1.435   2.923
 1561SOL    HW1 4701   2.119   1.404   2.870
 1561SOL    HW2 4702   2.255   1.493   2.866
 1562SOL     OW 4703   3.322   1.505   3.201
 1562SOL    HW1 4704   3.346   1.599   3.227
 1562SOL    HW2 4705   3.306   1.451   3.283
 1563SOL     OW 4706   2.300   0.392   3.361
 1563SOL    HW1 4707   2.382   0.336   3.370
 1563SOL    HW2 4708   2.219   0.334   3.365
 1564SOL     OW 4709   3.465   0.447   2.599
 1564SOL    HW1 4710   3.391   0.493   2.549
 1564SOL    HW2 4711   3.516   0.515   2.652
 1565SOL     OW 4712   2.093   1.713   2.345
 1565SOL    HW1 4713   2.127   1.790   2.399
 1565SOL    HW2 4714   2.137   1.713   2.255
 1566SOL     OW 4715   2.989   1.341   3.552
 1566SOL    HW1 4716   3.036   1.341   3.640
 1566SOL    HW2 4717   2.941   1.254   3.541
 1567SOL     OW 4718   2.092   1.434   2.400
 1567SOL    HW1 4719   2.066   1.530   2.400
 1567SOL    HW2 4720   2.021   1.380   2.445
 1568SOL     OW 4721   2.102   1.091   2.748
 1568SOL    HW1 4722   2.116   1.007   2.800
 1568SOL    HW2 4723   2.047   1.155   2.803
 1569SOL     OW 4724   2.482   1.786   3.301
 1569SOL    HW1 4725   2.390   1.769   3.336
 1569SOL    HW2 4726   2.510   1.878   3.327
 1570SOL     OW 4727   2.468   0.964   1.985
 1570SOL    HW1 4728   2.475   1.048   1.931
 1570SOL    HW2 4729   2.514   0.977   2.073
 1571SOL     OW 4730   3.456   0.114   3.342
 1571SOL    HW1 4731   3.438   0.181   3.270
 1571SOL    HW2 4732   3.453   0.160   3.431
 1572SOL     OW 4733   1.984   0.643   2.425
 1572SOL    HW1 4734   1.939   0.555   2.442
 1572SOL    HW2 4735   1.983   0.697   2.509
 1573SOL     OW 4736   3.704   1.767   2.221
 1573SOL    HW1 4737   3.758   1.738   2.301
 1573SOL    HW2 4738   3.734   1.857   2.192
 1574SOL     OW 4739   1.889   1.596   1.979
 1574SOL    HW1 4740   1.870   1.500   2.000
 1574SOL    HW2 4741   1.856   1.654   2.054
 1575SOL     OW 4742   3.551   0.922   2.474
 1575SOL    HW1 4743   3.646   0.893   2.482
 1575SOL    HW2 4744   3.543   0.987   2.399
 1576SOL     OW 4745   3.503   1.108   2.294
 1576SOL    HW1 4746   3.589   1.110   2.242
 1576SOL    HW2 4747   3.517   1.155   2.382
 1577SOL     OW 4748   1.975   0.737   3.459
 1577SOL    HW1 4749   2.063   0.724   3.504
 1577SOL    HW2 4750   1.962   0.834   3.437
 1578SOL     OW 4751   2.475   1.365   2.588
 1578SOL    HW1 4752   2.426   1.278   2.597
 1578SOL    HW2 4753   2.452   1.408   2.501
 1579SOL     OW 4754   3.155   1.228   3.285
 1579SOL    HW1 4755   3.192   1.155   3.227
 1579SOL    HW2 4756   3.207   1.233   3.370
 1580SOL     OW 4757   2.671   0.004   2.364
 1580SOL    HW1 4758   2.711   0.095   2.355
 1580SOL    HW2 4759   2.571   0.012   2.370
 1581SOL     OW 4760   2.059   0.976   3.126
 1581SOL    HW1 4761   2.148   0.931   3.112
 1581SOL    HW2 4762   1.986   0.911   3.107
 1582SOL     OW 4763   3.387   0.999   2.052
 1582SOL    HW1 4764   3.324   0.923   2.065
 1582SOL    HW2 4765   3.435   1.017   2.138
 1583SOL     OW 4766   3.049   1.792   3.478
 1583SOL    HW1 4767   3.073   1.852   3.402
 1583SOL    HW2 4768   3.056   1.697   3.448
 1584SOL     OW 4769   2.179   0.251   3.663
 1584SOL    HW1 4770   2.250   0.322   3.669
 1584SOL    HW2 4771   2.091   0.290   3.691
 1585SOL     OW 4772   3.328   1.417   2.815
 1585SOL    HW1 4773   3.269   1.423   2.895
 1585SOL    HW2 4774   3.313   1.329   2.769
 1586SOL     OW 4775   3.529   1.714   2.434
 1586SOL    HW1 4776   3.488   1.691   2.346
 1586SOL    HW2 4777   3.511   1.640   2.499
 1587SOL     OW 4778   2.460   0.729   2.132
 1587SOL    HW1 4779   2.484   0.798   2.064
 1587SOL    HW2 4780   2.382   0.762   2.186
 1588SOL     OW 4781   3.143   0.345   2.806
 1588SOL    HW1 4782   3.057   0.295   2.793
 1588SOL    HW2 4783   3.205   0.291   2.862
 1589SOL     OW 4784   3.438   1.662   2.169
 1589SOL    HW1 4785   3.527   1.708   2.172
 1589SOL    HW2 4786   3.417   1.638   2.074
 1590SOL     OW 4787   2.669   0.605   3.327
 1590SOL    HW1 4788   2.622   0.602   3.416
 1590SOL    HW2 4789   2.618   0.550   3.261
 1591SOL     OW 4790   3.256   0.469   3.536
 1591SOL    HW1 4791   3.236   0.512   3.624
 1591SOL    HW2 4792   3.334   0.407   3.545
 1592SOL     OW 4793   2.835   0.890   3.434
 1592SOL    HW1 4794   2.881   0.806   3.405
 1592SOL    HW2 4795   2.779   0.924   3.359
 1593SOL     OW 4796   2.853   0.410   3.104
 1593SOL    HW1 4797   2.776   0.444   3.158
 1593SOL    HW2 4798   2.819   0.359   3.025
 1594SOL     OW 4799   2.903   0.701   2.291
 1594SOL    HW1 4800   2.929   0.697   2.387
 1594SOL    HW2 4801   2.818   0.650   2.277
 1595SOL     OW 4802   1.938   0.811   2.651
 1595SOL    HW1 4803   2.037   0.799   2.660
 1595SOL    HW2 4804   1.914   0.906   2.672
 1596SOL     OW 4805   1.992   1.821   3.433
 1596SOL    HW1 4806   1.982   1.806   3.532
 1596SOL    HW2 4807   1.906   1.857   3.397
 1597SOL     OW 4808   2.727   0.348   2.057
 1597SOL    HW1 4809   2.786   0.411   2.008
 1597SOL    HW2 4810   2.746   0.254   2.028
 1598SOL     OW 4811   3.581   0.585   3.693
 1598SOL    HW1 4812   3.555   0.674   3.657
 1598SOL    HW2 4813   3.579   0.517   3.620
 1599SOL     OW 4814   3.224   1.144   2.407
 1599SOL    HW1 4815   3.307   1.115   2.359
 1599SOL    HW2 4816   3.175   1.211   2.351
 1600SOL     OW 4817   2.412   0.196   2.747
 1600SOL    HW1 4818   2.407   0.191   2.847
 1600SOL    HW2 4819   2.414   0.292   2.718
 1601SOL     OW 4820   2.870   1.456   2.339
 1601SOL    HW1 4821   2.824   1.528   2.287
 1601SOL    HW2 4822   2.866   1.476   2.437
 1602SOL     OW 4823   2.213   1.801   2.715
 1602SOL    HW1 4824   2.263   1.715   2.721
 1602SOL    HW2 4825   2.278   1.878   2.712
 1603SOL     OW 4826   3.657   1.066   2.735
 1603SOL    HW1 4827   3.595   1.051   2.659
 1603SOL    HW2 4828   3.605   1.077   2.820
 1604SOL     OW 4829   3.089   1.550   3.368
 1604SOL    HW1 4830   3.095   1.473   3.432
 1604SOL    HW2 4831   3.037   1.524   3.288
 1605SOL     OW 4832   2.183   0.943   2.104
 1605SOL    HW1 4833   2.265   0.982   2.062
 1605SOL    HW2 4834   2.156   0.861   2.055
 1606SOL     OW 4835   3.320   0.735   2.590
 1606SOL    HW1 4836   3.315   0.670   2.665
 1606SOL    HW2 4837   3.400   0.794   2.603
 1607SOL     OW 4838   2.323   1.266   3.589
 1607SOL    HW1 4839   2.273   1.267   3.503
 1607SOL    HW2 4840   2.260   1.248   3.665
 1608SOL     OW 4841   2.973   1.776   2.099
 1608SOL    HW1 4842   2.913   1.714   2.149
 1608SOL    HW2 4843   3.004   1.732   2.014
 1609SOL     OW 4844   2.064   0.285   3.360
 1609SOL    HW1 4845   1.984   0.345   3.347
 1609SOL    HW2 4846   2.054   0.236   3.446
 1610SOL     OW 4847   3.494   1.377   1.943
 1610SOL    HW1 4848   3.462   1.471   1.933
 1610SOL    HW2 4849   3.418   1.314   1.931
 1611SOL     OW 4850   2.326   1.743   2.185
 1611SOL    HW1 4851   2.359   1.782   2.271
 1611SOL    HW2 4852   2.402   1.736   2.120
 1612SOL     OW 4853   3.262   0.107   2.288
 1612SOL    HW1 4854   3.238   0.070   2.198
 1612SOL    HW2 4855   3.361   0.123   2.292
 1613SOL     OW 4856   2.111   1.785   3.103
 1613SOL    HW1 4857   2.168   1.720   3.153
 1613SOL    HW2 4858   2.095   1.752   3.010
 1614SOL     OW 4859   2.802   1.698   2.766
 1614SOL    HW1 4860   2.882   1.641   2.787
 1614SOL    HW2 4861   2.753   1.658   2.689
 1615SOL     OW 4862   2.244   0.700   2.342
 1615SOL    HW1 4863   2.289   0.610   2.339
 1615SOL    HW2 4864   2.150   0.689   2.375
 1616SOL     OW 4865   3.409   0.222   3.591
 1616SOL    HW1 4866   3.404   0.259   3.683
 1616SOL    HW2 4867   3.337   0.153   3.579
 1617SOL     OW 4868   2.476   0.122   1.979
 1617SOL    HW1 4869   2.574   0.100   1.986
 1617SOL    HW2 4870   2.445   0.105   1.886
 1618SOL     OW 4871   2.643   0.264   3.611
 1618SOL    HW1 4872   2.710   0.203   3.654
 1618SOL    HW2 4873   2.570   0.283   3.676
 1619SOL     OW 4874   2.750   1.514   3.057
 1619SOL    HW1 4875   2.727   1.489   2.963
 1619SOL    HW2 4876   2.811   1.445   3.096
 1620SOL     OW 4877   3.213   0.590   3.295
 1620SOL    HW1 4878   3.241   0.547   3.380
 1620SOL    HW2 4879   3.238   0.686   3.296
 1621SOL     OW 4880   2.665   1.402   2.786
 1621SOL    HW1 4881   2.755   1.416   2.744
 1621SOL    HW2 4882   2.594   1.404   2.715
 1622SOL     OW 4883   2.784   0.503   2.761
 1622SOL    HW1 4884   2.759   0.494   2.665
 1622SOL    HW2 4885   2.832   0.421   2.792
 1623SOL     OW 4886   2.401   0.064   2.374
 1623SOL    HW1 4887   2.320   0.065   2.432
 1623SOL    HW2 4888   2.404   0.147   2.319
 1624SOL     OW 4889   3.296   1.188   1.903
 1624SOL    HW1 4890   3.328   1.112   1.960
 1624SOL    HW2 4891   3.204   1.215   1.933
 1625SOL     OW 4892   2.159   0.035   2.033
 1625SOL    HW1 4893   2.208   0.119   2.012
 1625SOL    HW2 4894   2.221  -0.030   2.078
 1626SOL     OW 4895   2.797   0.236   2.342
 1626SOL    HW1 4896   2.749   0.277   2.264
 1626SOL    HW2 4897   2.896   0.234   2.323
 1627SOL     OW 4898   2.938   0.683   3.326
 1627SOL    HW1 4899   2.858   0.622   3.329
 1627SOL    HW2 4900   3.019   0.630   3.302
 1628SOL     OW 4901   3.089   1.570   2.655
 1628SOL    HW1 4902   3.110   1.644   2.590
 1628SOL    HW2 4903   3.157   1.570   2.728
 1629SOL     OW 4904   2.321   1.152   2.603
 1629SOL    HW1 4905   2.250   1.125   2.668
 1629SOL    HW2 4906   2.295   1.124   2.510
 1630SOL     OW 4907   3.133   1.797   2.453
 1630SOL    HW1 4908   3.177   1.861   2.389
 1630SOL    HW2 4909   3.083   1.849   2.523
 1631SOL     OW 4910   2.894   0.549   1.878
 1631SOL    HW1 4911   2.853   0.631   1.839
 1631SOL    HW2 4912   2.958   0.575   1.951
 1632SOL     OW 4913   1.940   0.556   3.248
 1632SOL    HW1 4914   2.032   0.555   3.207
 1632SOL    HW2 4915   1.934   0.630   3.315
 1633SOL     OW 4916   2.423   0.222   3.009
 1633SOL    HW1 4917   2.461   0.138   3.046
 1633SOL    HW2 4918   2.335   0.241   3.053
 1634SOL     OW 4919   2.728   0.454   2.504
 1634SOL    HW1 4920   2.696   0.526   2.442
 1634SOL    HW2 4921   2.752   0.373   2.451
 1635SOL     OW 4922   2.879   0.039   2.615
 1635SOL    HW1 4923   2.807   0.044   2.546
 1635SOL    HW2 4924   2.855  -0.030   2.684
 1636SOL     OW 4925   3.291   1.173   2.729
 1636SOL    HW1 4926   3.236   1.089   2.722
 1636SOL    HW2 4927   3.317   1.202   2.637
 1637SOL     OW 4928   3.328   0.590   2.854
 1637SOL    HW1 4929   3.298   0.495   2.861
 1637SOL    HW2 4930   3.401   0.606   2.920
 1638SOL     OW 4931   3.719   0.833   2.239
 1638SOL    HW1 4932   3.761   0.769   2.303
 1638SOL    HW2 4933   3.681   0.782   2.161
 1639SOL     OW 4934   2.350   1.385   2.036
 1639SOL    HW1 4935   2.263   1.370   2.083
 1639SOL    HW2 4936   2.333   1.411   1.941
 1640SOL     OW 4937   3.526   1.280   2.519
 1640SOL    HW1 4938   3.625   1.288   2.533
 1640SOL    HW2 4939   3.481   1.364   2.550
 1641SOL     OW 4940   3.252   0.575   1.940
 1641SOL    HW1 4941   3.198   0.554   2.021
 1641SOL    HW2 4942   3.343   0.534   1.949
 1642SOL     OW 4943   2.389   0.256   2.190
 1642SOL    HW1 4944   2.416   0.197   2.115
 1642SOL    HW2 4945   2.389   0.351   2.159
 1643SOL     OW 4946   3.616   1.223   3.450
 1643SOL    HW1 4947   3.707   1.184   3.437
 1643SOL    HW2 4948   3.624   1.319   3.474
 1644SOL     OW 4949   2.926   1.347   3.202
 1644SOL    HW1 4950   2.846   1.324   3.257
 1644SOL    HW2 4951   3.009   1.321   3.251
 1645SOL     OW 4952   3.454   1.629   3.487
 1645SOL    HW1 4953   3.481   1.663   3.397
 1645SOL    HW2 4954   3.533   1.591   3.533
 1646SOL     OW 4955   2.973   1.195   2.962
 1646SOL    HW1 4956   2.933   1.239   3.043
 1646SOL    HW2 4957   2.932   1.232   2.879
 1647SOL     OW 4958   3.500   1.099   2.941
 1647SOL    HW1 4959   3.505   1.180   3.000
 1647SOL    HW2 4960   3.414   1.101   2.890
 1648SOL     OW 4961   2.777   0.089   3.264
 1648SOL    HW1 4962   2.802   0.069   3.169
 1648SOL    HW2 4963   2.849   0.145   3.306
 1649SOL     OW 4964   2.842   1.116   3.581
 1649SOL    HW1 4965   2.743   1.122   3.591
 1649SOL    HW2 4966   2.865   1.036   3.525
 1650SOL     OW 4967   2.567   1.050   2.230
 1650SOL    HW1 4968   2.553   1.057   2.329
 1650SOL    HW2 4969   2.651   0.999   2.212
 1651SOL     OW 4970   2.272   0.813   3.113
 1651SOL    HW1 4971   2.358   0.825   3.163
 1651SOL    HW2 4972   2.230   0.726   3.140
 1652SOL     OW 4973   3.136   0.386   3.124
 1652SOL    HW1 4974   3.157   0.460   3.188
 1652SOL    HW2 4975   3.047   0.403   3.081
 1653SOL     OW 4976   1.926   1.564   3.193
 1653SOL    HW1 4977   1.880   1.646   3.159
 1653SOL    HW2 4978   2.024   1.583   3.202
 1654SOL     OW 4979   2.229   1.100   2.363
 1654SOL    HW1 4980   2.222   1.183   2.307
 1654SOL    HW2 4981   2.233   1.020   2.303
 1655SOL     OW 4982   2.428   0.537   2.727
 1655SOL    HW1 4983   2.440   0.603   2.653
 1655SOL    HW2 4984   2.474   0.571   2.810
 1656SOL     OW 4985   3.114   1.348   2.250
 1656SOL    HW1 4986   3.164   1.425   2.290
 1656SOL    HW2 4987   3.019   1.350   2.282
 1657SOL     OW 4988   3.134   1.445   3.004
 1657SOL    HW1 4989   3.181   1.458   3.091
 1657SOL    HW2 4990   3.068   1.371   3.013
 1658SOL     OW 4991   3.444   0.639   2.334
 1658SOL    HW1 4992   3.413   0.700   2.407
 1658SOL    HW2 4993   3.494   0.691   2.265
 1659SOL     OW 4994   2.216   1.510   3.191
 1659SOL    HW1 4995   2.195   1.466   3.104
 1659SOL    HW2 4996   2.313   1.536   3.194
 1660SOL     OW 4997   2.264   0.751   3.460
 1660SOL    HW1 4998   2.332   0.806   3.413
 1660SOL    HW2 4999   2.304   0.663   3.487
 1661SOL     OW 5000   3.449   0.779   3.532
 1661SOL    HW1 5001   3.357   0.817   3.527
 1661SOL    HW2 5002   3.509   0.826   3.467
 1662SOL     OW 5003   2.875   0.105   3.632
 1662SOL    HW1 5004   2.881   0.190   3.580
 1662SOL    HW2 5005   2.907   0.029   3.575
 1663SOL     OW 5006   2.366   0.050   3.602
 1663SOL    HW1 5007   2.324  -0.007   3.532
 1663SOL    HW2 5008   2.300   0.119   3.634
 1664SOL     OW 5009   2.435   0.870   2.891
 1664SOL    HW1 5010   2.479   0.959   2.882
 1664SOL    HW2 5011   2.372   0.870   2.968
 1665SOL     OW 5012   3.222   0.862   2.907
 1665SOL    HW1 5013   3.147   0.862   2.841
 1665SOL    HW2 5014   3.259   0.770   2.916
 1666SOL     OW 5015   3.071   0.525   2.137
 1666SOL    HW1 5016   3.084   0.441   2.191
 1666SOL    HW2 5017   3.042   0.599   2.197
 1667SOL     OW 5018   2.169   0.213   3.093
 1667SOL    HW1 5019   2.146   0.250   3.183
 1667SOL    HW2 5020   2.139   0.118   3.087
 1668SOL     OW 5021   1.899   1.310   3.144
 1668SOL    HW1 5022   1.952   1.261   3.212
 1668SOL    HW2 5023   1.921   1.408   3.149
 1669SOL     OW 5024   2.594   0.634   2.926
 1669SOL    HW1 5025   2.653   0.608   2.850
 1669SOL    HW2 5026   2.566   0.730   2.915
 1670SOL     OW 5027   3.590   0.935   3.716
 1670SOL    HW1 5028   3.544   0.928   3.627
 1670SOL    HW2 5029   3.528   0.979   3.782
 1671SOL     OW 5030   2.169   0.063   2.480
 1671SOL    HW1 5031   2.158   0.157   2.513
 1671SOL    HW2 5032   2.164   0.000   2.557
 1672SOL     OW 5033   3.484   0.367   2.236
 1672SOL    HW1 5034   3.486   0.291   2.300
 1672SOL    HW2 5035   3.436   0.444   2.276
 1673SOL     OW 5036   2.885   0.766   2.828
 1673SOL    HW1 5037   2.900   0.787   2.924
 1673SOL    HW2 5038   2.855   0.671   2.819
 1674SOL     OW 5039   2.842   1.573   3.562
 1674SOL    HW1 5040   2.822   1.617   3.474
 1674SOL    HW2 5041   2.881   1.482   3.546
 1675SOL     OW 5042   3.721   1.518   3.467
 1675SOL    HW1 5043   3.735   1.545   3.372
 1675SOL    HW2 5044   3.804   1.540   3.520
 1676SOL     OW 5045   2.212   0.898   3.666
 1676SOL    HW1 5046   2.288   0.942   3.714
 1676SOL    HW2 5047   2.247   0.851   3.584
 1677SOL     OW 5048   3.402   0.274   1.987
 1677SOL    HW1 5049   3.341   0.199   2.010
 1677SOL    HW2 5050   3.424   0.326   2.070
 1678SOL     OW 5051   3.165   0.838   1.904
 1678SOL    HW1 5052   3.199   0.745   1.919
 1678SOL    HW2 5053   3.183   0.865   1.809
 1679SOL     OW 5054   2.930   1.333   2.711
 1679SOL    HW1 5055   2.937   1.249   2.656
 1679SOL    HW2 5056   2.992   1.402   2.675
 1680SOL     OW 5057   2.181   0.810   2.811
 1680SOL    HW1 5058   2.274   0.846   2.816
 1680SOL    HW2 5059   2.175   0.725   2.863
 1681SOL     OW 5060   2.201   0.509   2.868
 1681SOL    HW1 5061   2.149   0.426   2.851
 1681SOL    HW2 5062   2.278   0.514   2.804
 1682SOL     OW 5063   3.000   0.380   3.540
 1682SOL    HW1 5064   2.955   0.443   3.604
 1682SOL    HW2 5065   3.093   0.411   3.523
 1683SOL     OW 5066   3.022   0.207   3.339
 1683SOL    HW1 5067   3.022   0.271   3.416
 1683SOL    HW2 5068   3.050   0.255   3.256
 1684SOL     OW 5069   1.870   1.326   2.062
 1684SOL    HW1 5070   1.777   1.347   2.031
 1684SOL    HW2 5071   1.880   1.227   2.075
 1685SOL     OW 5072   1.950   1.801   2.789
 1685SOL    HW1 5073   1.908   1.715   2.762
 1685SOL    HW2 5074   2.044   1.804   2.755
 1686SOL     OW 5075   2.366   1.568   2.772
 1686SOL    HW1 5076   2.432   1.642   2.781
 1686SOL    HW2 5077   2.410   1.489   2.730
 1687SOL     OW 5078   2.864   0.796   3.100
 1687SOL    HW1 5079   2.905   0.764   3.186
 1687SOL    HW2 5080   2.768   0.769   3.097
 1688SOL     OW 5081   1.902   0.544   2.976
 1688SOL    HW1 5082   1.987   0.511   2.935
 1688SOL    HW2 5083   1.915   0.559   3.074
 1689SOL     OW 5084   2.051   0.520   3.584
 1689SOL    HW1 5085   2.110   0.480   3.514
 1689SOL    HW2 5086   1.993   0.591   3.543
 1690SOL     OW 5087   3.231   0.950   3.522
 1690SOL    HW1 5088   3.270   1.039   3.542
 1690SOL    HW2 5089   3.241   0.930   3.425
 1691SOL     OW 5090   2.677   0.572   2.187
 1691SOL    HW1 5091   2.684   0.483   2.141
 1691SOL    HW2 5092   2.583   0.606   2.179
 1692SOL     OW 5093   3.519   0.604   3.068
 1692SOL    HW1 5094   3.481   0.535   3.130
 1692SOL    HW2 5095   3.601   0.568   3.024
 1693SOL     OW 5096   2.114   1.564   3.606
 1693SOL    HW1 5097   2.084   1.621   3.682
 1693SOL    HW2 5098   2.107   1.467   3.632
 1694SOL     OW 5099   2.533   0.464   3.131
 1694SOL    HW1 5100   2.499   0.375   3.101
 1694SOL    HW2 5101   2.559   0.518   3.051
 1695SOL     OW 5102   2.792   1.678   3.327
 1695SOL    HW1 5103   2.768   1.660   3.232
 1695SOL    HW2 5104   2.822   1.772   3.337
 1696SOL     OW 5105   2.335   0.500   2.053
 1696SOL    HW1 5106   2.396   0.580   2.057
 1696SOL    HW2 5107   2.240   0.531   2.060
 1697SOL     OW 5108   2.021   1.137   3.328
 1697SOL    HW1 5109   2.043   1.076   3.404
 1697SOL    HW2 5110   2.031   1.088   3.242
 1698SOL     OW 5111   3.209   1.059   3.096
 1698SOL    HW1 5112   3.233   0.996   3.022
 1698SOL    HW2 5113   3.119   1.099   3.078
 1699SOL     OW 5114   3.164   0.855   2.171
 1699SOL    HW1 5115   3.078   0.824   2.213
 1699SOL    HW2 5116   3.160   0.841   2.072
 1700SOL     OW 5117   3.621   1.747   3.016
 1700SOL    HW1 5118   3.682   1.777   2.943
 1700SOL    HW2 5119   3.583   1.658   2.994
 1701SOL     OW 5120   3.114   1.731   2.990
 1701SOL    HW1 5121   3.198   1.736   2.936
 1701SOL    HW2 5122   3.091   1.635   3.008
 1702SOL     OW 5123   1.945   1.258   2.884
 1702SOL    HW1 5124   1.940   1.257   2.984
 1702SOL    HW2 5125   1.862   1.217   2.846
 1703SOL     OW 5126   2.550   1.662   3.578
 1703SOL    HW1 5127   2.494   1.743   3.587
 1703SOL    HW2 5128   2.602   1.666   3.492
 1704SOL     OW 5129   3.588   0.135   2.385
 1704SOL    HW1 5130   3.661   0.118   2.318
 1704SOL    HW2 5131   3.557   0.048   2.423
 1705SOL     OW 5132   3.250   1.573   2.339
 1705SOL    HW1 5133   3.317   1.585   2.265
 1705SOL    HW2 5134   3.210   1.662   2.362
 1706SOL     OW 5135   1.992   1.794   3.713
 1706SOL    HW1 5136   1.951   1.720   3.766
 1706SOL    HW2 5137   2.056   1.845   3.771
 1707SOL     OW 5138   3.142   0.927   2.534
 1707SOL    HW1 5139   3.202   0.846   2.536
 1707SOL    HW2 5140   3.182   0.996   2.474
 1708SOL     OW 5141   2.692   1.273   3.284
 1708SOL    HW1 5142   2.687   1.306   3.379
 1708SOL    HW2 5143   2.606   1.292   3.238
 1709SOL     OW 5144   2.534   1.616   2.016
 1709SOL    HW1 5145   2.543   1.626   1.917
 1709SOL    HW2 5146   2.494   1.527   2.037
 1710SOL     OW 5147   3.512   1.720   3.256
 1710SOL    HW1 5148   3.565   1.730   3.172
 1710SOL    HW2 5149   3.485   1.810   3.290
 1711SOL     OW 5150   3.703   0.175   2.825
 1711SOL    HW1 5151   3.742   0.090   2.789
 1711SOL    HW2 5152   3.605   0.177   2.806
 1712SOL     OW 5153   2.125   0.326   2.582
 1712SOL    HW1 5154   2.046   0.377   2.548
 1712SOL    HW2 5155   2.116   0.311   2.680
 1713SOL     OW 5156   3.056   1.612   1.893
 1713SOL    HW1 5157   3.062   1.519   1.930
 1713SOL    HW2 5158   2.997   1.612   1.813
 1714SOL     OW 5159   2.684   1.002   3.234
 1714SOL    HW1 5160   2.724   1.001   3.142
 1714SOL    HW2 5161   2.694   1.094   3.274
 1715SOL     OW 5162   2.778   0.910   2.153
 1715SOL    HW1 5163   2.841   0.948   2.085
 1715SOL    HW2 5164   2.818   0.827   2.192
 1716SOL     OW 5165   3.366   1.607   1.906
 1716SOL    HW1 5166   3.274   1.644   1.913
 1716SOL    HW2 5167   3.404   1.627   1.816
 1717SOL     OW 5168   2.234   1.288   3.352
 1717SOL    HW1 5169   2.221   1.381   3.318
 1717SOL    HW2 5170   2.150   1.236   3.339
 1718SOL     OW 5171   3.476   1.292   3.151
 1718SOL    HW1 5172   3.536   1.295   3.231
 1718SOL    HW2 5173   3.401   1.356   3.164
 1719SOL     OW 5174   2.901   1.098   2.558
 1719SOL    HW1 5175   2.831   1.051   2.612
 1719SOL    HW2 5176   2.960   1.030   2.515
 1720SOL     OW 5177   2.876   0.236   2.833
 1720SOL    HW1 5178   2.868   0.200   2.740
 1720SOL    HW2 5179   2.874   0.160   2.898
 1721SOL     OW 5180   2.452   1.487   2.353
 1721SOL    HW1 5181   2.494   1.429   2.283
 1721SOL    HW2 5182   2.408   1.566   2.309
 1722SOL     OW 5183   3.571   0.385   3.243
 1722SOL    HW1 5184   3.644   0.454   3.247
 1722SOL    HW2 5185   3.599   0.310   3.184
 1723SOL     OW 5186   2.117   1.348   2.152
 1723SOL    HW1 5187   2.021   1.349   2.125
 1723SOL    HW2 5188   2.129   1.401   2.236
 1724SOL     OW 5189   1.967   1.013   3.588
 1724SOL    HW1 5190   1.890   0.980   3.642
 1724SOL    HW2 5191   2.052   0.983   3.630
 1725SOL     OW 5192   2.534   0.203   3.351
 1725SOL    HW1 5193   2.624   0.187   3.311
 1725SOL    HW2 5194   2.542   0.208   3.450
 1726SOL     OW 5195   1.937   0.345   1.895
 1726SOL    HW1 5196   1.845   0.317   1.866
 1726SOL    HW2 5197   1.968   0.422   1.839
 1727SOL     OW 5198   3.302   0.856   3.260
 1727SOL    HW1 5199   3.245   0.908   3.197
 1727SOL    HW2 5200   3.398   0.868   3.236
 1728SOL     OW 5201   1.934   0.166   2.180
 1728SOL    HW1 5202   1.917   0.249   2.126
 1728SOL    HW2 5203   2.024   0.129   2.158
 1729SOL     OW 5204   3.045   1.335   1.981
 1729SOL    HW1 5205   2.946   1.324   1.983
 1729SOL    HW2 5206   3.079   1.350   2.074
 1730SOL     OW 5207   2.475   0.842   3.293
 1730SOL    HW1 5208   2.531   0.923   3.276
 1730SOL    HW2 5209   2.534   0.762   3.296
 1731SOL     OW 5210   3.355   1.767   2.821
 1731SOL    HW1 5211   3.388   1.831   2.752
 1731SOL    HW2 5212   3.421   1.761   2.896
 1732SOL     OW 5213   2.578   0.565   3.570
 1732SOL    HW1 5214   2.597   0.630   3.644
 1732SOL    HW2 5215   2.638   0.485   3.579
 1733SOL     OW 5216   3.312   1.220   3.495
 1733SOL    HW1 5217   3.303   1.210   3.594
 1733SOL    HW2 5218   3.408   1.213   3.469
 1734SOL     OW 5219   2.252   1.741   3.422
 1734SOL    HW1 5220   2.161   1.782   3.420
 1734SOL    HW2 5221   2.245   1.647   3.454
 1735SOL     OW 5222   3.536   0.883   3.116
 1735SOL    HW1 5223   3.509   0.794   3.079
 1735SOL    HW2 5224   3.537   0.951   3.043
 1736SOL     OW 5225   3.087   0.325   2.311
 1736SOL    HW1 5226   3.152   0.251   2.300
 1736SOL    HW2 5227   3.107   0.375   2.395
 1737SOL     OW 5228   2.456   0.745   2.514
 1737SOL    HW1 5229   2.506   0.830   2.495
 1737SOL    HW2 5230   2.368   0.747   2.466
 1738SOL     OW 5231   3.639   0.342   3.504
 1738SOL    HW1 5232   3.622   0.373   3.410
 1738SOL    HW2 5233   3.555   0.305   3.542
 1739SOL     OW 5234   3.592   0.934   3.379
 1739SOL    HW1 5235   3.630   1.025   3.394
 1739SOL    HW2 5236   3.584   0.917   3.280
 1740SOL     OW 5237   2.721   1.374   1.878
 1740SOL    HW1 5238   2.675   1.389   1.966
 1740SOL    HW2 5239   2.765   1.459   1.848
 1741SOL     OW 5240   2.523   1.790   2.815
 1741SOL    HW1 5241   2.477   1.878   2.802
 1741SOL    HW2 5242   2.622   1.802   2.808
 1742SOL     OW 5243   2.721   0.956   2.723
 1742SOL    HW1 5244   2.775   0.887   2.771
 1742SOL    HW2 5245   2.689   1.025   2.789
 1743SOL     OW 5246   2.945   0.984   1.949
 1743SOL    HW1 5247   2.922   1.037   1.867
 1743SOL    HW2 5248   3.026   0.928   1.930
 1744SOL     OW 5249   3.723   1.569   2.713
 1744SOL    HW1 5250   3.652   1.557   2.643
 1744SOL    HW2 5251   3.724   1.490   2.773
 1745SOL     OW 5252   2.083   1.314   3.706
 1745SOL    HW1 5253   2.018   1.241   3.685
 1745SOL    HW2 5254   2.087   1.328   3.804
 1746SOL     OW 5255   1.941   1.240   2.515
 1746SOL    HW1 5256   1.940   1.193   2.603
 1746SOL    HW2 5257   2.023   1.212   2.464
 1747SOL     OW 5258   2.534   1.391   3.486
 1747SOL    HW1 5259   2.456   1.341   3.524
 1747SOL    HW2 5260   2.531   1.486   3.517
 1748SOL     OW 5261   3.686   0.192   3.089
 1748SOL    HW1 5262   3.682   0.102   3.133
 1748SOL    HW2 5263   3.689   0.181   2.990
 1749SOL     OW 5264   2.290   0.424   2.382
 1749SOL    HW1 5265   2.320   0.352   2.320
 1749SOL    HW2 5266   2.251   0.384   2.465
 1750SOL     OW 5267   3.567   1.487   2.966
 1750SOL    HW1 5268   3.474   1.462   2.939
 1750SOL    HW2 5269   3.593   1.437   3.048
 1751SOL     OW 5270   2.179   0.547   3.142
 1751SOL    HW1 5271   2.217   0.488   3.214
 1751SOL    HW2 5272   2.219   0.521   3.054
 1752SOL     OW 5273   2.674   1.586   2.549
 1752SOL    HW1 5274   2.706   1.596   2.455
 1752SOL    HW2 5275   2.595   1.524   2.551
 1753SOL     OW 5276   3.286   0.214   2.974
 1753SOL    HW1 5277   3.338   0.149   3.029
 1753SOL    HW2 5278   3.237   0.277   3.035
 1754SOL     OW 5279   2.863   0.034   3.016
 1754SOL    HW1 5280   2.800  -0.038   2.985
 1754SOL    HW2 5281   2.956  -0.002   3.016
 1755SOL     OW 5282   2.632   1.330   2.163
 1755SOL    HW1 5283   2.586   1.243   2.180
 1755SOL    HW2 5284   2.723   1.327   2.204
 1756SOL     OW 5285   2.480   1.567   3.146
 1756SOL    HW1 5286   2.475   1.649   3.203
 1756SOL    HW2 5287   2.569   1.564   3.101
 1757SOL     OW 5288   3.214   0.052   2.030
 1757SOL    HW1 5289   3.249   0.011   1.946
 1757SOL    HW2 5290   3.124   0.014   2.050
 1758SOL     OW 5291   3.162   0.453   2.553
 1758SOL    HW1 5292   3.103   0.533   2.557
 1758SOL    HW2 5293   3.177   0.418   2.646
 1759SOL     OW 5294   3.455   0.221   2.744
 1759SOL    HW1 5295   3.371   0.220   2.798
 1759SOL    HW2 5296   3.457   0.304   2.688
 1760SOL     OW 5297   1.901   1.077   2.162
 1760SOL    HW1 5298   2.000   1.066   2.153
 1760SOL    HW2 5299   1.861   0.991   2.194
 1761SOL     OW 5300   2.737   1.646   2.199
 1761SOL    HW1 5301   2.660   1.611   2.145
 1761SOL    HW2 5302   2.705   1.717   2.261
 1762SOL     OW 5303   2.092   0.628   3.837
 1762SOL    HW1 5304   1.999   0.626   3.874
 1762SOL    HW2 5305   2.093   0.589   3.745
 1763SOL     OW 5306   2.087   0.275   4.720
 1763SOL    HW1 5307   2.122   0.258   4.812
 1763SOL    HW2 5308   1.999   0.230   4.708
 1764SOL     OW 5309   1.881   0.368   4.371
 1764SOL    HW1 5310   1.799   0.411   4.410
 1764SOL    HW2 5311   1.853   0.295   4.308
 1765SOL     OW 5312   3.417   1.511   4.427
 1765SOL    HW1 5313   3.360   1.495   4.508
 1765SOL    HW2 5314   3.358   1.521   4.347
 1766SOL     OW 5315   2.997   0.703   4.441
 1766SOL    HW1 5316   3.054   0.781   4.416
 1766SOL    HW2 5317   2.937   0.729   4.517
 1767SOL     OW 5318   3.617   0.607   3.955
 1767SOL    HW1 5319   3.605   0.594   3.856
 1767SOL    HW2 5320   3.587   0.526   4.004
 1768SOL     OW 5321   2.547   1.012   4.389
 1768SOL    HW1 5322   2.616   0.996   4.459
 1768SOL    HW2 5323   2.474   1.069   4.427
 1769SOL     OW 5324   3.465   0.447   4.461
 1769SOL    HW1 5325   3.391   0.493   4.411
 1769SOL    HW2 5326   3.516   0.515   4.514
 1770SOL     OW 5327   2.093   1.713   4.207
 1770SOL    HW1 5328   2.127   1.790   4.261
 1770SOL    HW2 5329   2.137   1.713   4.117
 1771SOL     OW 5330   2.092   1.434   4.262
 1771SOL    HW1 5331   2.066   1.530   4.262
 1771SOL    HW2 5332   2.021   1.380   4.307
 1772SOL     OW 5333   2.102   1.091   4.610
 1772SOL    HW1 5334   2.116   1.007   4.662
 1772SOL    HW2 5335   2.047   1.155   4.665
 1773SOL     OW 5336   2.468   0.964   3.847
 1773SOL    HW1 5337   2.475   1.048   3.793
 1773SOL    HW2 5338   2.514   0.977   3.935
 1774SOL     OW 5339   1.984   0.643   4.287
 1774SOL    HW1 5340   1.939   0.555   4.304
 1774SOL    HW2 5341   1.983   0.697   4.371
 1775SOL     OW 5342   3.704   1.767   4.083
 1775SOL    HW1 5343   3.758   1.738   4.163
 1775SOL    HW2 5344   3.734   1.857   4.054
 1776SOL     OW 5345   1.889   1.596   3.841
 1776SOL    HW1 5346   1.870   1.500   3.862
 1776SOL    HW2 5347   1.856   1.654   3.916
 1777SOL     OW 5348   3.551   0.922   4.336
 1777SOL    HW1 5349   3.646   0.893   4.344
 1777SOL    HW2 5350   3.543   0.987   4.261
 1778SOL     OW 5351   3.503   1.108   4.156
 1778SOL    HW1 5352   3.589   1.110   4.104
 1778SOL    HW2 5353   3.517   1.155   4.244
 1779SOL     OW 5354   2.475   1.365   4.450
 1779SOL    HW1 5355   2.426   1.278   4.459
 1779SOL    HW2 5356   2.452   1.408   4.363
 1780SOL     OW 5357   2.671   0.004   4.226
 1780SOL    HW1 5358   2.711   0.095   4.217
 1780SOL    HW2 5359   2.571   0.012   4.232
 1781SOL     OW 5360   3.387   0.999   3.914
 1781SOL    HW1 5361   3.324   0.923   3.927
 1781SOL    HW2 5362   3.435   1.017   4.000
 1782SOL     OW 5363   3.328   1.417   4.677
 1782SOL    HW1 5364   3.269   1.423   4.757
 1782SOL    HW2 5365   3.313   1.329   4.631
 1783SOL     OW 5366   3.529   1.714   4.296
 1783SOL    HW1 5367   3.488   1.691   4.208
 1783SOL    HW2 5368   3.511   1.640   4.361
 1784SOL     OW 5369   2.460   0.729   3.994
 1784SOL    HW1 5370   2.484   0.798   3.926
 1784SOL    HW2 5371   2.382   0.762   4.048
 1785SOL     OW 5372   3.143   0.345   4.668
 1785SOL    HW1 5373   3.057   0.295   4.655
 1785SOL    HW2 5374   3.205   0.291   4.724
 1786SOL     OW 5375   3.438   1.662   4.031
 1786SOL    HW1 5376   3.527   1.708   4.034
 1786SOL    HW2 5377   3.417   1.638   3.936
 1787SOL     OW 5378   2.903   0.701   4.153
 1787SOL    HW1 5379   2.929   0.697   4.249
 1787SOL    HW2 5380   2.818   0.650   4.139
 1788SOL     OW 5381   1.938   0.811   4.513
 1788SOL    HW1 5382   2.037   0.799   4.522
 1788SOL    HW2 5383   1.914   0.906   4.534
 1789SOL     OW 5384   2.727   0.348   3.919
 1789SOL    HW1 5385   2.786   0.411   3.870
 1789SOL    HW2 5386   2.746   0.254   3.890
 1790SOL     OW 5387   3.224   1.144   4.269
 1790SOL    HW1 5388   3.307   1.115   4.221
 1790SOL    HW2 5389   3.175   1.211   4.213
 1791SOL     OW 5390   2.870   1.456   4.201
 1791SOL    HW1 5391   2.824   1.528   4.149
 1791SOL    HW2 5392   2.866   1.476   4.299
 1792SOL     OW 5393   2.213   1.801   4.577
 1792SOL    HW1 5394   2.263   1.715   4.583
 1792SOL    HW2 5395   2.278   1.878   4.574
 1793SOL     OW 5396   3.657   1.066   4.597
 1793SOL    HW1 5397   3.595   1.051   4.521
 1793SOL    HW2 5398   3.605   1.077   4.682
 1794SOL     OW 5399   2.183   0.943   3.966
 1794SOL    HW1 5400   2.265   0.982   3.924
 1794SOL    HW2 5401   2.156   0.861   3.917
 1795SOL     OW 5402   3.320   0.735   4.452
 1795SOL    HW1 5403   3.315   0.670   4.527
 1795SOL    HW2 5404   3.400   0.794   4.465
 1796SOL     OW 5405   2.973   1.776   3.961
 1796SOL    HW1 5406   2.913   1.714   4.011
 1796SOL    HW2 5407   3.004   1.732   3.876
 1797SOL     OW 5408   3.494   1.377   3.805
 1797SOL    HW1 5409   3.462   1.471   3.795
 1797SOL    HW2 5410   3.418   1.314   3.793
 1798SOL     OW 5411   2.326   1.743   4.047
 1798SOL    HW1 5412   2.359   1.782   4.133
 1798SOL    HW2 5413   2.402   1.736   3.982
 1799SOL     OW 5414   3.262   0.107   4.150
 1799SOL    HW1 5415   3.238   0.070   4.060
 1799SOL    HW2 5416   3.361   0.123   4.154
 1800SOL     OW 5417   2.244   0.700   4.204
 1800SOL    HW1 5418   2.289   0.610   4.201
 1800SOL    HW2 5419   2.150   0.689   4.237
 1801SOL     OW 5420   2.476   0.122   3.841
 1801SOL    HW1 5421   2.574   0.100   3.848
 1801SOL    HW2 5422   2.445   0.105   3.748
 1802SOL     OW 5423   2.401   0.064   4.236
 1802SOL    HW1 5424   2.320   0.065   4.294
 1802SOL    HW2 5425   2.404   0.147   4.181
 1803SOL     OW 5426   3.296   1.188   3.765
 1803SOL    HW1 5427   3.328   1.112   3.822
 1803SOL    HW2 5428   3.204   1.215   3.795
 1804SOL     OW 5429   2.159   0.035   3.895
 1804SOL    HW1 5430   2.208   0.119   3.874
 1804SOL    HW2 5431   2.221  -0.030   3.940
 1805SOL     OW 5432   2.797   0.236   4.204
 1805SOL    HW1 5433   2.749   0.277   4.126
 1805SOL    HW2 5434   2.896   0.234   4.185
 1806SOL     OW 5435   3.089   1.570   4.517
 1806SOL    HW1 5436   3.110   1.644   4.452
 1806SOL    HW2 5437   3.157   1.570   4.590
 1807SOL     OW 5438   2.321   1.152   4.465
 1807SOL    HW1 5439   2.250   1.125   4.530
 1807SOL    HW2 5440   2.295   1.124   4.372
 1808SOL     OW 5441   3.133   1.797   4.315
 1808SOL    HW1 5442   3.177   1.861   4.251
 1808SOL    HW2 5443   3.083   1.849   4.385
 1809SOL     OW 5444   2.894   0.549   3.740
 1809SOL    HW1 5445   2.853   0.631   3.701
 1809SOL    HW2 5446   2.958   0.575   3.813
 1810SOL     OW 5447   2.728   0.454   4.366
 1810SOL    HW1 5448   2.696   0.526   4.304
 1810SOL    HW2 5449   2.752   0.373   4.313
 1811SOL     OW 5450   2.879   0.039   4.477
 1811SOL    HW1 5451   2.807   0.044   4.408
 1811SOL    HW2 5452   2.855  -0.030   4.546
 1812SOL     OW 5453   3.719   0.833   4.101
 1812SOL    HW1 5454   3.761   0.769   4.165
 1812SOL    HW2 5455   3.681   0.782   4.023
 1813SOL     OW 5456   2.350   1.385   3.898
 1813SOL    HW1 5457   2.263   1.370   3.945
 1813SOL    HW2 5458   2.333   1.411   3.803
 1814SOL     OW 5459   3.526   1.280   4.381
 1814SOL    HW1 5460   3.625   1.288   4.395
 1814SOL    HW2 5461   3.481   1.364   4.412
 1815SOL     OW 5462   3.252   0.575   3.802
 1815SOL    HW1 5463   3.198   0.554   3.883
 1815SOL    HW2 5464   3.343   0.534   3.811
 1816SOL     OW 5465   2.389   0.256   4.052
 1816SOL    HW1 5466   2.416   0.197   3.977
 1816SOL    HW2 5467   2.389   0.351   4.021
 1817SOL     OW 5468   2.567   1.050   4.092
 1817SOL    HW1 5469   2.553   1.057   4.191
 1817SOL    HW2 5470   2.651   0.999   4.074
 1818SOL     OW 5471   2.229   1.100   4.225
 1818SOL    HW1 5472   2.222   1.183   4.169
 1818SOL    HW2 5473   2.233   1.020   4.165
 1819SOL     OW 5474   2.428   0.537   4.589
 1819SOL    HW1 5475   2.440   0.603   4.515
 1819SOL    HW2 5476   2.474   0.571   4.672
 1820SOL     OW 5477   3.114   1.348   4.112
 1820SOL    HW1 5478   3.164   1.425   4.152
 1820SOL    HW2 5479   3.019   1.350   4.144
 1821SOL     OW 5480   3.444   0.639   4.196
 1821SOL    HW1 5481   3.413   0.700   4.269
 1821SOL    HW2 5482   3.494   0.691   4.127
 1822SOL     OW 5483   3.071   0.525   3.999
 1822SOL    HW1 5484   3.084   0.441   4.053
 1822SOL    HW2 5485   3.042   0.599   4.059
 1823SOL     OW 5486   2.594   0.634   4.788
 1823SOL    HW1 5487   2.653   0.608   4.712
 1823SOL    HW2 5488   2.566   0.730   4.777
 1824SOL     OW 5489   2.169   0.063   4.342
 1824SOL    HW1 5490   2.158   0.157   4.375
 1824SOL    HW2 5491   2.164   0.000   4.419
 1825SOL     OW 5492   3.484   0.367   4.098
 1825SOL    HW1 5493   3.486   0.291   4.162
 1825SOL    HW2 5494   3.436   0.444   4.138
 1826SOL     OW 5495   3.402   0.274   3.849
 1826SOL    HW1 5496   3.341   0.199   3.872
 1826SOL    HW2 5497   3.424   0.326   3.932
 1827SOL     OW 5498   3.165   0.838   3.766
 1827SOL    HW1 5499   3.199   0.745   3.781
 1827SOL    HW2 5500   3.183   0.865   3.671
 1828SOL     OW 5501   2.930   1.333   4.573
 1828SOL    HW1 5502   2.937   1.249   4.518
 1828SOL    HW2 5503   2.992   1.402   4.537
 1829SOL     OW 5504   2.181   0.810   4.673
 1829SOL    HW1 5505   2.274   0.846   4.678
 1829SOL    HW2 5506   2.175   0.725   4.725
 1830SOL     OW 5507   1.870   1.326   3.924
 1830SOL    HW1 5508   1.777   1.347   3.893
 1830SOL    HW2 5509   1.880   1.227   3.937
 1831SOL     OW 5510   1.950   1.801   4.651
 1831SOL    HW1 5511   1.908   1.715   4.624
 1831SOL    HW2 5512   2.044   1.804   4.617
 1832SOL     OW 5513   2.366   1.568   4.634
 1832SOL    HW1 5514   2.432   1.642   4.643
 1832SOL    HW2 5515   2.410   1.489   4.592
 1833SOL     OW 5516   2.677   0.572   4.049
 1833SOL    HW1 5517   2.684   0.483   4.003
 1833SOL    HW2 5518   2.583   0.606   4.041
 1834SOL     OW 5519   2.335   0.500   3.915
 1834SOL    HW1 5520   2.396   0.580   3.919
 1834SOL    HW2 5521   2.240   0.531   3.922
 1835SOL     OW 5522   3.164   0.855   4.033
 1835SOL    HW1 5523   3.078   0.824   4.075
 1835SOL    HW2 5524   3.160   0.841   3.934
 1836SOL     OW 5525   3.621   1.747   4.878
 1836SOL    HW1 5526   3.682   1.777   4.805
 1836SOL    HW2 5527   3.583   1.658   4.856
 1837SOL     OW 5528   3.588   0.135   4.247
 1837SOL    HW1 5529   3.661   0.118   4.180
 1837SOL    HW2 5530   3.557   0.048   4.285
 1838SOL     OW 5531   3.250   1.573   4.201
 1838SOL    HW1 5532   3.317   1.585   4.127
 1838SOL    HW2 5533   3.210   1.662   4.224
 1839SOL     OW 5534   3.142   0.927   4.396
 1839SOL    HW1 5535   3.202   0.846   4.398
 1839SOL    HW2 5536   3.182   0.996   4.336
 1840SOL     OW 5537   2.534   1.616   3.878
 1840SOL    HW1 5538   2.543   1.626   3.779
 1840SOL    HW2 5539   2.494   1.527   3.899
 1841SOL     OW 5540   3.703   0.175   4.687
 1841SOL    HW1 5541   3.742   0.090   4.651
 1841SOL    HW2 5542   3.605   0.177   4.668
 1842SOL     OW 5543   2.125   0.326   4.444
 1842SOL    HW1 5544   2.046   0.377   4.410
 1842SOL    HW2 5545   2.116   0.311   4.542
 1843SOL     OW 5546   3.056   1.612   3.755
 1843SOL    HW1 5547   3.062   1.519   3.792
 1843SOL    HW2 5548   2.997   1.612   3.675
 1844SOL     OW 5549   2.778   0.910   4.015
 1844SOL    HW1 5550   2.841   0.948   3.947
 1844SOL    HW2 5551   2.818   0.827   4.054
 1845SOL     OW 5552   3.366   1.607   3.768
 1845SOL    HW1 5553   3.274   1.644   3.775
 1845SOL    HW2 5554   3.404   1.627   3.678
 1846SOL     OW 5555   2.901   1.098   4.420
 1846SOL    HW1 5556   2.831   1.051   4.474
 1846SOL    HW2 5557   2.960   1.030   4.377
 1847SOL     OW 5558   2.452   1.487   4.215
 1847SOL    HW1 5559   2.494   1.429   4.145
 1847SOL    HW2 5560   2.408   1.566   4.171
 1848SOL     OW 5561   2.117   1.348   4.014
 1848SOL    HW1 5562   2.021   1.349   3.987
 1848SOL    HW2 5563   2.129   1.401   4.098
 1849SOL     OW 5564   1.937   0.345   3.757
 1849SOL    HW1 5565   1.845   0.317   3.728
 1849SOL    HW2 5566   1.968   0.422   3.701
 1850SOL     OW 5567   1.934   0.166   4.042
 1850SOL    HW1 5568   1.917   0.249   3.988
 1850SOL    HW2 5569   2.024   0.129   4.020
 1851SOL     OW 5570   3.045   1.335   3.843
 1851SOL    HW1 5571   2.946   1.324   3.845
 1851SOL    HW2 5572   3.079   1.350   3.936
 1852SOL     OW 5573   3.536   0.883   4.978
 1852SOL    HW1 5574   3.509   0.794   4.941
 1852SOL    HW2 5575   3.537   0.951   4.905
 1853SOL     OW 5576   3.087   0.325   4.173
 1853SOL    HW1 5577   3.152   0.251   4.162
 1853SOL    HW2 5578   3.107   0.375   4.257
 1854SOL     OW 5579   2.456   0.745   4.376
 1854SOL    HW1 5580   2.506   0.830   4.357
 1854SOL    HW2 5581   2.368   0.747   4.328
 1855SOL     OW 5582   2.721   1.374   3.740
 1855SOL    HW1 5583   2.675   1.389   3.828
 1855SOL    HW2 5584   2.765   1.459   3.710
 1856SOL     OW 5585   2.523   1.790   4.677
 1856SOL    HW1 5586   2.477   1.878   4.664
 1856SOL    HW2 5587   2.622   1.802   4.670
 1857SOL     OW 5588   2.721   0.956   4.585
 1857SOL    HW1 5589   2.775   0.887   4.633
 1857SOL    HW2 5590   2.689   1.025   4.651
 1858SOL     OW 5591   2.945   0.984   3.811
 1858SOL    HW1 5592   2.922   1.037   3.729
 1858SOL    HW2 5593   3.026   0.928   3.792
 1859SOL     OW 5594   3.723   1.569   4.575
 1859SOL    HW1 5595   3.652   1.557   4.505
 1859SOL    HW2 5596   3.724   1.490   4.635
 1860SOL     OW 5597   1.941   1.240   4.377
 1860SOL    HW1 5598   1.940   1.193   4.465
 1860SOL    HW2 5599   2.023   1.212   4.326
 1861SOL     OW 5600   3.686   0.192   4.951
 1861SOL    HW1 5601   3.682   0.102   4.995
 1861SOL    HW2 5602   3.689   0.181   4.852
 1862SOL     OW 5603   2.290   0.424   4.244
 1862SOL    HW1 5604   2.320   0.352   4.182
 1862SOL    HW2 5605   2.251   0.384   4.327
 1863SOL     OW 5606   2.674   1.586   4.411
 1863SOL    HW1 5607   2.706   1.596   4.317
 1863SOL    HW2 5608   2.595   1.524   4.413
 1864SOL     OW 5609   2.632   1.330   4.025
 1864SOL    HW1 5610   2.586   1.243   4.042
 1864SOL    HW2 5611   2.723   1.327   4.066
 1865SOL     OW 5612   3.214   0.052   3.892
 1865SOL    HW1 5613   3.249   0.011   3.808
 1865SOL    HW2 5614   3.124   0.014   3.912
 1866SOL     OW 5615   3.162   0.453   4.415
 1866SOL    HW1 5616   3.103   0.533   4.419
 1866SOL    HW2 5617   3.177   0.418   4.508
 1867SOL     OW 5618   3.455   0.221   4.606
 1867SOL    HW1 5619   3.371   0.220   4.660
 1867SOL    HW2 5620   3.457   0.304   4.550
 1868SOL     OW 5621   1.901   1.077   4.024
 1868SOL    HW1 5622   2.000   1.066   4.015
 1868SOL    HW2 5623   1.861   0.991   4.056
 1869SOL     OW 5624   2.737   1.646   4.061
 1869SOL    HW1 5625   2.660   1.611   4.007
 1869SOL    HW2 5626   2.705   1.717   4.123
 1870SOL     OW 5627   2.092   2.490   0.113
 1870SOL    HW1 5628   1.999   2.488   0.150
 1870SOL    HW2 5629   2.093   2.451   0.021
 1871SOL     OW 5630   2.087   2.137   0.996
 1871SOL    HW1 5631   2.122   2.120   1.088
 1871SOL    HW2 5632   1.999   2.092   0.984
 1872SOL     OW 5633   1.881   2.230   0.647
 1872SOL    HW1 5634   1.799   2.273   0.686
 1872SOL    HW2 5635   1.853   2.157   0.584
 1873SOL     OW 5636   2.431   3.137   1.165
 1873SOL    HW1 5637   2.338   3.130   1.128
 1873SOL    HW2 5638   2.442   3.226   1.209
 1874SOL     OW 5639   3.417   3.373   0.703
 1874SOL    HW1 5640   3.360   3.357   0.784
 1874SOL    HW2 5641   3.358   3.383   0.623
 1875SOL     OW 5642   2.997   2.565   0.717
 1875SOL    HW1 5643   3.054   2.643   0.692
 1875SOL    HW2 5644   2.937   2.591   0.793
 1876SOL     OW 5645   3.617   2.469   0.231
 1876SOL    HW1 5646   3.605   2.456   0.132
 1876SOL    HW2 5647   3.587   2.388   0.280
 1877SOL     OW 5648   2.630   3.006   1.023
 1877SOL    HW1 5649   2.552   3.023   1.083
 1877SOL    HW2 5650   2.664   3.093   0.987
 1878SOL     OW 5651   2.712   2.660   1.823
 1878SOL    HW1 5652   2.708   2.736   1.888
 1878SOL    HW2 5653   2.734   2.696   1.732
 1879SOL     OW 5654   2.547   2.874   0.665
 1879SOL    HW1 5655   2.616   2.858   0.735
 1879SOL    HW2 5656   2.474   2.931   0.703
 1880SOL     OW 5657   2.548   3.023   1.803
 1880SOL    HW1 5658   2.608   3.102   1.817
 1880SOL    HW2 5659   2.462   3.054   1.762
 1881SOL     OW 5660   2.197   3.297   1.061
 1881SOL    HW1 5661   2.119   3.266   1.008
 1881SOL    HW2 5662   2.255   3.355   1.004
 1882SOL     OW 5663   3.322   3.367   1.339
 1882SOL    HW1 5664   3.346   3.461   1.365
 1882SOL    HW2 5665   3.306   3.313   1.421
 1883SOL     OW 5666   2.300   2.254   1.499
 1883SOL    HW1 5667   2.382   2.198   1.508
 1883SOL    HW2 5668   2.219   2.196   1.503
 1884SOL     OW 5669   3.465   2.309   0.737
 1884SOL    HW1 5670   3.391   2.355   0.687
 1884SOL    HW2 5671   3.516   2.377   0.790
 1885SOL     OW 5672   2.093   3.575   0.483
 1885SOL    HW1 5673   2.127   3.652   0.537
 1885SOL    HW2 5674   2.137   3.575   0.393
 1886SOL     OW 5675   2.989   3.203   1.690
 1886SOL    HW1 5676   3.036   3.203   1.778
 1886SOL    HW2 5677   2.941   3.116   1.679
 1887SOL     OW 5678   2.092   3.296   0.538
 1887SOL    HW1 5679   2.066   3.392   0.538
 1887SOL    HW2 5680   2.021   3.242   0.583
 1888SOL     OW 5681   2.102   2.953   0.886
 1888SOL    HW1 5682   2.116   2.869   0.938
 1888SOL    HW2 5683   2.047   3.017   0.941
 1889SOL     OW 5684   2.482   3.648   1.439
 1889SOL    HW1 5685   2.390   3.631   1.474
 1889SOL    HW2 5686   2.510   3.740   1.465
 1890SOL     OW 5687   2.468   2.826   0.123
 1890SOL    HW1 5688   2.475   2.910   0.069
 1890SOL    HW2 5689   2.514   2.839   0.211
 1891SOL     OW 5690   3.456   1.976   1.480
 1891SOL    HW1 5691   3.438   2.043   1.408
 1891SOL    HW2 5692   3.453   2.022   1.569
 1892SOL     OW 5693   1.984   2.505   0.563
 1892SOL    HW1 5694   1.939   2.417   0.580
 1892SOL    HW2 5695   1.983   2.559   0.647
 1893SOL     OW 5696   3.704   3.629   0.359
 1893SOL    HW1 5697   3.758   3.600   0.439
 1893SOL    HW2 5698   3.734   3.719   0.330
 1894SOL     OW 5699   3.551   2.784   0.612
 1894SOL    HW1 5700   3.646   2.755   0.620
 1894SOL    HW2 5701   3.543   2.849   0.537
 1895SOL     OW 5702   3.503   2.970   0.432
 1895SOL    HW1 5703   3.589   2.972   0.380
 1895SOL    HW2 5704   3.517   3.017   0.520
 1896SOL     OW 5705   1.975   2.599   1.597
 1896SOL    HW1 5706   2.063   2.586   1.642
 1896SOL    HW2 5707   1.962   2.696   1.575
 1897SOL     OW 5708   2.475   3.227   0.726
 1897SOL    HW1 5709   2.426   3.140   0.735
 1897SOL    HW2 5710   2.452   3.270   0.639
 1898SOL     OW 5711   3.155   3.090   1.423
 1898SOL    HW1 5712   3.192   3.017   1.365
 1898SOL    HW2 5713   3.207   3.095   1.508
 1899SOL     OW 5714   2.671   1.866   0.502
 1899SOL    HW1 5715   2.711   1.957   0.493
 1899SOL    HW2 5716   2.571   1.874   0.508
 1900SOL     OW 5717   2.059   2.838   1.264
 1900SOL    HW1 5718   2.148   2.793   1.250
 1900SOL    HW2 5719   1.986   2.773   1.245
 1901SOL     OW 5720   3.387   2.861   0.190
 1901SOL    HW1 5721   3.324   2.785   0.203
 1901SOL    HW2 5722   3.435   2.879   0.276
 1902SOL     OW 5723   3.049   3.654   1.616
 1902SOL    HW1 5724   3.073   3.714   1.540
 1902SOL    HW2 5725   3.056   3.559   1.586
 1903SOL     OW 5726   2.179   2.113   1.801
 1903SOL    HW1 5727   2.250   2.184   1.807
 1903SOL    HW2 5728   2.091   2.152   1.829
 1904SOL     OW 5729   3.328   3.279   0.953
 1904SOL    HW1 5730   3.269   3.285   1.033
 1904SOL    HW2 5731   3.313   3.191   0.907
 1905SOL     OW 5732   3.529   3.576   0.572
 1905SOL    HW1 5733   3.488   3.553   0.484
 1905SOL    HW2 5734   3.511   3.502   0.637
 1906SOL     OW 5735   2.460   2.591   0.270
 1906SOL    HW1 5736   2.484   2.660   0.202
 1906SOL    HW2 5737   2.382   2.624   0.324
 1907SOL     OW 5738   3.143   2.207   0.944
 1907SOL    HW1 5739   3.057   2.157   0.931
 1907SOL    HW2 5740   3.205   2.153   1.000
 1908SOL     OW 5741   3.438   3.524   0.307
 1908SOL    HW1 5742   3.527   3.570   0.310
 1908SOL    HW2 5743   3.417   3.500   0.212
 1909SOL     OW 5744   2.669   2.467   1.465
 1909SOL    HW1 5745   2.622   2.464   1.554
 1909SOL    HW2 5746   2.618   2.412   1.399
 1910SOL     OW 5747   3.256   2.331   1.674
 1910SOL    HW1 5748   3.236   2.374   1.762
 1910SOL    HW2 5749   3.334   2.269   1.683
 1911SOL     OW 5750   2.835   2.752   1.572
 1911SOL    HW1 5751   2.881   2.668   1.543
 1911SOL    HW2 5752   2.779   2.786   1.497
 1912SOL     OW 5753   2.853   2.272   1.242
 1912SOL    HW1 5754   2.776   2.306   1.296
 1912SOL    HW2 5755   2.819   2.221   1.163
 1913SOL     OW 5756   2.903   2.563   0.429
 1913SOL    HW1 5757   2.929   2.559   0.525
 1913SOL    HW2 5758   2.818   2.512   0.415
 1914SOL     OW 5759   1.938   2.673   0.789
 1914SOL    HW1 5760   2.037   2.661   0.798
 1914SOL    HW2 5761   1.914   2.768   0.810
 1915SOL     OW 5762   1.992   3.683   1.571
 1915SOL    HW1 5763   1.982   3.668   1.670
 1915SOL    HW2 5764   1.906   3.719   1.535
 1916SOL     OW 5765   2.727   2.210   0.195
 1916SOL    HW1 5766   2.786   2.273   0.146
 1916SOL    HW2 5767   2.746   2.116   0.166
 1917SOL     OW 5768   3.581   2.447   1.831
 1917SOL    HW1 5769   3.555   2.536   1.795
 1917SOL    HW2 5770   3.579   2.379   1.758
 1918SOL     OW 5771   3.224   3.006   0.545
 1918SOL    HW1 5772   3.307   2.977   0.497
 1918SOL    HW2 5773   3.175   3.073   0.489
 1919SOL     OW 5774   2.412   2.058   0.885
 1919SOL    HW1 5775   2.407   2.053   0.985
 1919SOL    HW2 5776   2.414   2.154   0.856
 1920SOL     OW 5777   2.870   3.318   0.477
 1920SOL    HW1 5778   2.824   3.390   0.425
 1920SOL    HW2 5779   2.866   3.338   0.575
 1921SOL     OW 5780   2.213   3.663   0.853
 1921SOL    HW1 5781   2.263   3.577   0.859
 1921SOL    HW2 5782   2.278   3.740   0.850
 1922SOL     OW 5783   3.657   2.928   0.873
 1922SOL    HW1 5784   3.595   2.913   0.797
 1922SOL    HW2 5785   3.605   2.939   0.958
 1923SOL     OW 5786   3.089   3.412   1.506
 1923SOL    HW1 5787   3.095   3.335   1.570
 1923SOL    HW2 5788   3.037   3.386   1.426
 1924SOL     OW 5789   2.183   2.805   0.242
 1924SOL    HW1 5790   2.265   2.844   0.200
 1924SOL    HW2 5791   2.156   2.723   0.193
 1925SOL     OW 5792   3.320   2.597   0.728
 1925SOL    HW1 5793   3.315   2.532   0.803
 1925SOL    HW2 5794   3.400   2.656   0.741
 1926SOL     OW 5795   2.323   3.128   1.727
 1926SOL    HW1 5796   2.273   3.129   1.641
 1926SOL    HW2 5797   2.260   3.110   1.803
 1927SOL     OW 5798   2.973   3.638   0.237
 1927SOL    HW1 5799   2.913   3.576   0.287
 1927SOL    HW2 5800   3.004   3.594   0.152
 1928SOL     OW 5801   2.064   2.147   1.498
 1928SOL    HW1 5802   1.984   2.207   1.485
 1928SOL    HW2 5803   2.054   2.098   1.584
 1929SOL     OW 5804   3.494   3.239   0.081
 1929SOL    HW1 5805   3.462   3.333   0.071
 1929SOL    HW2 5806   3.418   3.176   0.069
 1930SOL     OW 5807   2.326   3.605   0.323
 1930SOL    HW1 5808   2.359   3.644   0.409
 1930SOL    HW2 5809   2.402   3.598   0.258
 1931SOL     OW 5810   3.262   1.969   0.426
 1931SOL    HW1 5811   3.238   1.932   0.336
 1931SOL    HW2 5812   3.361   1.985   0.430
 1932SOL     OW 5813   2.111   3.647   1.241
 1932SOL    HW1 5814   2.168   3.582   1.291
 1932SOL    HW2 5815   2.095   3.614   1.148
 1933SOL     OW 5816   2.802   3.560   0.904
 1933SOL    HW1 5817   2.882   3.503   0.925
 1933SOL    HW2 5818   2.753   3.520   0.827
 1934SOL     OW 5819   2.244   2.562   0.480
 1934SOL    HW1 5820   2.289   2.472   0.477
 1934SOL    HW2 5821   2.150   2.551   0.513
 1935SOL     OW 5822   3.409   2.084   1.729
 1935SOL    HW1 5823   3.404   2.121   1.821
 1935SOL    HW2 5824   3.337   2.015   1.717
 1936SOL     OW 5825   2.643   2.126   1.749
 1936SOL    HW1 5826   2.710   2.065   1.792
 1936SOL    HW2 5827   2.570   2.145   1.814
 1937SOL     OW 5828   2.750   3.376   1.195
 1937SOL    HW1 5829   2.727   3.351   1.101
 1937SOL    HW2 5830   2.811   3.307   1.234
 1938SOL     OW 5831   3.213   2.452   1.433
 1938SOL    HW1 5832   3.241   2.409   1.518
 1938SOL    HW2 5833   3.238   2.548   1.434
 1939SOL     OW 5834   2.665   3.264   0.924
 1939SOL    HW1 5835   2.755   3.278   0.882
 1939SOL    HW2 5836   2.594   3.266   0.853
 1940SOL     OW 5837   2.784   2.365   0.899
 1940SOL    HW1 5838   2.759   2.356   0.803
 1940SOL    HW2 5839   2.832   2.283   0.930
 1941SOL     OW 5840   2.401   1.926   0.512
 1941SOL    HW1 5841   2.320   1.927   0.570
 1941SOL    HW2 5842   2.404   2.009   0.457
 1942SOL     OW 5843   3.296   3.050   0.041
 1942SOL    HW1 5844   3.328   2.974   0.098
 1942SOL    HW2 5845   3.204   3.077   0.071
 1943SOL     OW 5846   2.159   1.897   0.171
 1943SOL    HW1 5847   2.208   1.981   0.150
 1943SOL    HW2 5848   2.221   1.832   0.216
 1944SOL     OW 5849   2.797   2.098   0.480
 1944SOL    HW1 5850   2.749   2.139   0.402
 1944SOL    HW2 5851   2.896   2.096   0.461
 1945SOL     OW 5852   2.938   2.545   1.464
 1945SOL    HW1 5853   2.858   2.484   1.467
 1945SOL    HW2 5854   3.019   2.492   1.440
 1946SOL     OW 5855   3.089   3.432   0.793
 1946SOL    HW1 5856   3.110   3.506   0.728
 1946SOL    HW2 5857   3.157   3.432   0.866
 1947SOL     OW 5858   2.321   3.014   0.741
 1947SOL    HW1 5859   2.250   2.987   0.806
 1947SOL    HW2 5860   2.295   2.986   0.648
 1948SOL     OW 5861   3.133   3.659   0.591
 1948SOL    HW1 5862   3.177   3.723   0.527
 1948SOL    HW2 5863   3.083   3.711   0.661
 1949SOL     OW 5864   2.894   2.411   0.016
 1949SOL    HW1 5865   2.853   2.493  -0.023
 1949SOL    HW2 5866   2.958   2.437   0.089
 1950SOL     OW 5867   1.940   2.418   1.386
 1950SOL    HW1 5868   2.032   2.417   1.345
 1950SOL    HW2 5869   1.934   2.492   1.453
 1951SOL     OW 5870   2.423   2.084   1.147
 1951SOL    HW1 5871   2.461   2.000   1.184
 1951SOL    HW2 5872   2.335   2.103   1.191
 1952SOL     OW 5873   2.728   2.316   0.642
 1952SOL    HW1 5874   2.696   2.388   0.580
 1952SOL    HW2 5875   2.752   2.235   0.589
 1953SOL     OW 5876   2.879   1.901   0.753
 1953SOL    HW1 5877   2.807   1.906   0.684
 1953SOL    HW2 5878   2.855   1.832   0.822
 1954SOL     OW 5879   3.291   3.035   0.867
 1954SOL    HW1 5880   3.236   2.951   0.860
 1954SOL    HW2 5881   3.317   3.064   0.775
 1955SOL     OW 5882   3.328   2.452   0.992
 1955SOL    HW1 5883   3.298   2.357   0.999
 1955SOL    HW2 5884   3.401   2.468   1.058
 1956SOL     OW 5885   3.719   2.695   0.377
 1956SOL    HW1 5886   3.761   2.631   0.441
 1956SOL    HW2 5887   3.681   2.644   0.299
 1957SOL     OW 5888   2.350   3.247   0.174
 1957SOL    HW1 5889   2.263   3.232   0.221
 1957SOL    HW2 5890   2.333   3.273   0.079
 1958SOL     OW 5891   3.526   3.142   0.657
 1958SOL    HW1 5892   3.625   3.150   0.671
 1958SOL    HW2 5893   3.481   3.226   0.688
 1959SOL     OW 5894   3.252   2.437   0.078
 1959SOL    HW1 5895   3.198   2.416   0.159
 1959SOL    HW2 5896   3.343   2.396   0.087
 1960SOL     OW 5897   2.389   2.118   0.328
 1960SOL    HW1 5898   2.416   2.059   0.253
 1960SOL    HW2 5899   2.389   2.213   0.297
 1961SOL     OW 5900   3.616   3.085   1.588
 1961SOL    HW1 5901   3.707   3.046   1.575
 1961SOL    HW2 5902   3.624   3.181   1.612
 1962SOL     OW 5903   2.926   3.209   1.340
 1962SOL    HW1 5904   2.846   3.186   1.395
 1962SOL    HW2 5905   3.009   3.183   1.389
 1963SOL     OW 5906   3.454   3.491   1.625
 1963SOL    HW1 5907   3.481   3.525   1.535
 1963SOL    HW2 5908   3.533   3.453   1.671
 1964SOL     OW 5909   2.973   3.057   1.100
 1964SOL    HW1 5910   2.933   3.101   1.181
 1964SOL    HW2 5911   2.932   3.094   1.017
 1965SOL     OW 5912   3.500   2.961   1.079
 1965SOL    HW1 5913   3.505   3.042   1.138
 1965SOL    HW2 5914   3.414   2.963   1.028
 1966SOL     OW 5915   2.777   1.951   1.402
 1966SOL    HW1 5916   2.802   1.931   1.307
 1966SOL    HW2 5917   2.849   2.007   1.444
 1967SOL     OW 5918   2.842   2.978   1.719
 1967SOL    HW1 5919   2.743   2.984   1.729
 1967SOL    HW2 5920   2.865   2.898   1.663
 1968SOL     OW 5921   2.567   2.912   0.368
 1968SOL    HW1 5922   2.553   2.919   0.467
 1968SOL    HW2 5923   2.651   2.861   0.350
 1969SOL     OW 5924   2.272   2.675   1.251
 1969SOL    HW1 5925   2.358   2.687   1.301
 1969SOL    HW2 5926   2.230   2.588   1.278
 1970SOL     OW 5927   3.136   2.248   1.262
 1970SOL    HW1 5928   3.157   2.322   1.326
 1970SOL    HW2 5929   3.047   2.265   1.219
 1971SOL     OW 5930   1.926   3.426   1.331
 1971SOL    HW1 5931   1.880   3.508   1.297
 1971SOL    HW2 5932   2.024   3.445   1.340
 1972SOL     OW 5933   2.229   2.962   0.501
 1972SOL    HW1 5934   2.222   3.045   0.445
 1972SOL    HW2 5935   2.233   2.882   0.441
 1973SOL     OW 5936   2.428   2.399   0.865
 1973SOL    HW1 5937   2.440   2.465   0.791
 1973SOL    HW2 5938   2.474   2.433   0.948
 1974SOL     OW 5939   3.114   3.210   0.388
 1974SOL    HW1 5940   3.164   3.287   0.428
 1974SOL    HW2 5941   3.019   3.212   0.420
 1975SOL     OW 5942   3.134   3.307   1.142
 1975SOL    HW1 5943   3.181   3.320   1.229
 1975SOL    HW2 5944   3.068   3.233   1.151
 1976SOL     OW 5945   3.444   2.501   0.472
 1976SOL    HW1 5946   3.413   2.562   0.545
 1976SOL    HW2 5947   3.494   2.553   0.403
 1977SOL     OW 5948   2.216   3.372   1.329
 1977SOL    HW1 5949   2.195   3.328   1.242
 1977SOL    HW2 5950   2.313   3.398   1.332
 1978SOL     OW 5951   2.264   2.613   1.598
 1978SOL    HW1 5952   2.332   2.668   1.551
 1978SOL    HW2 5953   2.304   2.525   1.625
 1979SOL     OW 5954   3.449   2.641   1.670
 1979SOL    HW1 5955   3.357   2.679   1.665
 1979SOL    HW2 5956   3.509   2.688   1.605
 1980SOL     OW 5957   2.875   1.967   1.770
 1980SOL    HW1 5958   2.881   2.052   1.718
 1980SOL    HW2 5959   2.907   1.891   1.713
 1981SOL     OW 5960   2.366   1.912   1.740
 1981SOL    HW1 5961   2.324   1.855   1.670
 1981SOL    HW2 5962   2.300   1.981   1.772
 1982SOL     OW 5963   2.435   2.732   1.029
 1982SOL    HW1 5964   2.479   2.821   1.020
 1982SOL    HW2 5965   2.372   2.732   1.106
 1983SOL     OW 5966   3.222   2.724   1.045
 1983SOL    HW1 5967   3.147   2.724   0.979
 1983SOL    HW2 5968   3.259   2.632   1.054
 1984SOL     OW 5969   3.071   2.387   0.275
 1984SOL    HW1 5970   3.084   2.303   0.329
 1984SOL    HW2 5971   3.042   2.461   0.335
 1985SOL     OW 5972   2.169   2.075   1.231
 1985SOL    HW1 5973   2.146   2.112   1.321
 1985SOL    HW2 5974   2.139   1.980   1.225
 1986SOL     OW 5975   1.899   3.172   1.282
 1986SOL    HW1 5976   1.952   3.123   1.350
 1986SOL    HW2 5977   1.921   3.270   1.287
 1987SOL     OW 5978   2.594   2.496   1.064
 1987SOL    HW1 5979   2.653   2.470   0.988
 1987SOL    HW2 5980   2.566   2.592   1.053
 1988SOL     OW 5981   3.590   2.797   1.854
 1988SOL    HW1 5982   3.544   2.790   1.765
 1988SOL    HW2 5983   3.528   2.841   1.920
 1989SOL     OW 5984   2.169   1.925   0.618
 1989SOL    HW1 5985   2.158   2.019   0.651
 1989SOL    HW2 5986   2.164   1.862   0.695
 1990SOL     OW 5987   3.484   2.229   0.374
 1990SOL    HW1 5988   3.486   2.153   0.438
 1990SOL    HW2 5989   3.436   2.306   0.414
 1991SOL     OW 5990   2.885   2.628   0.966
 1991SOL    HW1 5991   2.900   2.649   1.062
 1991SOL    HW2 5992   2.855   2.533   0.957
 1992SOL     OW 5993   2.842   3.435   1.700
 1992SOL    HW1 5994   2.822   3.479   1.612
 1992SOL    HW2 5995   2.881   3.344   1.684
 1993SOL     OW 5996   3.721   3.380   1.605
 1993SOL    HW1 5997   3.735   3.407   1.510
 1993SOL    HW2 5998   3.804   3.402   1.658
 1994SOL     OW 5999   2.212   2.760   1.804
 1994SOL    HW1 6000   2.288   2.804   1.852
 1994SOL    HW2 6001   2.247   2.713   1.722
 1995SOL     OW 6002   3.402   2.136   0.125
 1995SOL    HW1 6003   3.341   2.061   0.148
 1995SOL    HW2 6004   3.424   2.188   0.208
 1996SOL     OW 6005   3.165   2.700   0.042
 1996SOL    HW1 6006   3.199   2.607   0.057
 1996SOL    HW2 6007   3.183   2.727  -0.053
 1997SOL     OW 6008   2.930   3.195   0.849
 1997SOL    HW1 6009   2.937   3.111   0.794
 1997SOL    HW2 6010   2.992   3.264   0.813
 1998SOL     OW 6011   2.181   2.672   0.949
 1998SOL    HW1 6012   2.274   2.708   0.954
 1998SOL    HW2 6013   2.175   2.587   1.001
 1999SOL     OW 6014   2.201   2.371   1.006
 1999SOL    HW1 6015   2.149   2.288   0.989
 1999SOL    HW2 6016   2.278   2.376   0.942
 2000SOL     OW 6017   3.000   2.242   1.678
 2000SOL    HW1 6018   2.955   2.305   1.742
 2000SOL    HW2 6019   3.093   2.273   1.661
 2001SOL     OW 6020   3.022   2.069   1.477
 2001SOL    HW1 6021   3.022   2.133   1.554
 2001SOL    HW2 6022   3.050   2.117   1.394
 2002SOL     OW 6023   1.870   3.188   0.200
 2002SOL    HW1 6024   1.777   3.209   0.169
 2002SOL    HW2 6025   1.880   3.089   0.213
 2003SOL     OW 6026   1.950   3.663   0.927
 2003SOL    HW1 6027   1.908   3.577   0.900
 2003SOL    HW2 6028   2.044   3.666   0.893
 2004SOL     OW 6029   2.366   3.430   0.910
 2004SOL    HW1 6030   2.432   3.504   0.919
 2004SOL    HW2 6031   2.410   3.351   0.868
 2005SOL     OW 6032   2.864   2.658   1.238
 2005SOL    HW1 6033   2.905   2.626   1.324
 2005SOL    HW2 6034   2.768   2.631   1.235
 2006SOL     OW 6035   1.902   2.406   1.114
 2006SOL    HW1 6036   1.987   2.373   1.073
 2006SOL    HW2 6037   1.915   2.421   1.212
 2007SOL     OW 6038   2.051   2.382   1.722
 2007SOL    HW1 6039   2.110   2.342   1.652
 2007SOL    HW2 6040   1.993   2.453   1.681
 2008SOL     OW 6041   3.231   2.812   1.660
 2008SOL    HW1 6042   3.270   2.901   1.680
 2008SOL    HW2 6043   3.241   2.792   1.563
 2009SOL     OW 6044   2.677   2.434   0.325
 2009SOL    HW1 6045   2.684   2.345   0.279
 2009SOL    HW2 6046   2.583   2.468   0.317
 2010SOL     OW 6047   3.519   2.466   1.206
 2010SOL    HW1 6048   3.481   2.397   1.268
 2010SOL    HW2 6049   3.601   2.430   1.162
 2011SOL     OW 6050   2.114   3.426   1.744
 2011SOL    HW1 6051   2.084   3.483   1.820
 2011SOL    HW2 6052   2.107   3.329   1.770
 2012SOL     OW 6053   2.533   2.326   1.269
 2012SOL    HW1 6054   2.499   2.237   1.239
 2012SOL    HW2 6055   2.559   2.380   1.189
 2013SOL     OW 6056   2.792   3.540   1.465
 2013SOL    HW1 6057   2.768   3.522   1.370
 2013SOL    HW2 6058   2.822   3.634   1.475
 2014SOL     OW 6059   2.335   2.362   0.191
 2014SOL    HW1 6060   2.396   2.442   0.195
 2014SOL    HW2 6061   2.240   2.393   0.198
 2015SOL     OW 6062   2.021   2.999   1.466
 2015SOL    HW1 6063   2.043   2.938   1.542
 2015SOL    HW2 6064   2.031   2.950   1.380
 2016SOL     OW 6065   3.209   2.921   1.234
 2016SOL    HW1 6066   3.233   2.858   1.160
 2016SOL    HW2 6067   3.119   2.961   1.216
 2017SOL     OW 6068   3.164   2.717   0.309
 2017SOL    HW1 6069   3.078   2.686   0.351
 2017SOL    HW2 6070   3.160   2.703   0.210
 2018SOL     OW 6071   3.621   3.609   1.154
 2018SOL    HW1 6072   3.682   3.639   1.081
 2018SOL    HW2 6073   3.583   3.520   1.132
 2019SOL     OW 6074   3.114   3.593   1.128
 2019SOL    HW1 6075   3.198   3.598   1.074
 2019SOL    HW2 6076   3.091   3.497   1.146
 2020SOL     OW 6077   1.945   3.120   1.022
 2020SOL    HW1 6078   1.940   3.119   1.122
 2020SOL    HW2 6079   1.862   3.079   0.984
 2021SOL     OW 6080   2.550   3.524   1.716
 2021SOL    HW1 6081   2.494   3.605   1.725
 2021SOL    HW2 6082   2.602   3.528   1.630
 2022SOL     OW 6083   2.765   1.948   0.133
 2022SOL    HW1 6084   2.816   1.949   0.047
 2022SOL    HW2 6085   2.821   1.906   0.204
 2023SOL     OW 6086   3.588   1.997   0.523
 2023SOL    HW1 6087   3.661   1.980   0.456
 2023SOL    HW2 6088   3.557   1.910   0.561
 2024SOL     OW 6089   3.250   3.435   0.477
 2024SOL    HW1 6090   3.317   3.447   0.403
 2024SOL    HW2 6091   3.210   3.524   0.500
 2025SOL     OW 6092   1.992   3.656   1.851
 2025SOL    HW1 6093   1.951   3.582   1.904
 2025SOL    HW2 6094   2.056   3.707   1.909
 2026SOL     OW 6095   3.142   2.789   0.672
 2026SOL    HW1 6096   3.202   2.708   0.674
 2026SOL    HW2 6097   3.182   2.858   0.612
 2027SOL     OW 6098   2.692   3.135   1.422
 2027SOL    HW1 6099   2.687   3.168   1.517
 2027SOL    HW2 6100   2.606   3.154   1.376
 2028SOL     OW 6101   2.534   3.478   0.154
 2028SOL    HW1 6102   2.543   3.488   0.055
 2028SOL    HW2 6103   2.494   3.389   0.175
 2029SOL     OW 6104   3.512   3.582   1.394
 2029SOL    HW1 6105   3.565   3.592   1.310
 2029SOL    HW2 6106   3.485   3.672   1.428
 2030SOL     OW 6107   3.703   2.037   0.963
 2030SOL    HW1 6108   3.742   1.952   0.927
 2030SOL    HW2 6109   3.605   2.039   0.944
 2031SOL     OW 6110   2.125   2.188   0.720
 2031SOL    HW1 6111   2.046   2.239   0.686
 2031SOL    HW2 6112   2.116   2.173   0.818
 2032SOL     OW 6113   3.056   3.474   0.031
 2032SOL    HW1 6114   3.062   3.381   0.068
 2032SOL    HW2 6115   2.997   3.474  -0.049
 2033SOL     OW 6116   2.684   2.864   1.372
 2033SOL    HW1 6117   2.724   2.863   1.280
 2033SOL    HW2 6118   2.694   2.956   1.412
 2034SOL     OW 6119   2.778   2.772   0.291
 2034SOL    HW1 6120   2.841   2.810   0.223
 2034SOL    HW2 6121   2.818   2.689   0.330
 2035SOL     OW 6122   3.366   3.469   0.044
 2035SOL    HW1 6123   3.274   3.506   0.051
 2035SOL    HW2 6124   3.404   3.489  -0.046
 2036SOL     OW 6125   2.234   3.150   1.490
 2036SOL    HW1 6126   2.221   3.243   1.456
 2036SOL    HW2 6127   2.150   3.098   1.477
 2037SOL     OW 6128   3.476   3.154   1.289
 2037SOL    HW1 6129   3.536   3.157   1.369
 2037SOL    HW2 6130   3.401   3.218   1.302
 2038SOL     OW 6131   2.901   2.960   0.696
 2038SOL    HW1 6132   2.831   2.913   0.750
 2038SOL    HW2 6133   2.960   2.892   0.653
 2039SOL     OW 6134   2.876   2.098   0.971
 2039SOL    HW1 6135   2.868   2.062   0.878
 2039SOL    HW2 6136   2.874   2.022   1.036
 2040SOL     OW 6137   2.452   3.349   0.491
 2040SOL    HW1 6138   2.494   3.291   0.421
 2040SOL    HW2 6139   2.408   3.428   0.447
 2041SOL     OW 6140   3.571   2.247   1.381
 2041SOL    HW1 6141   3.644   2.316   1.385
 2041SOL    HW2 6142   3.599   2.172   1.322
 2042SOL     OW 6143   2.117   3.210   0.290
 2042SOL    HW1 6144   2.021   3.211   0.263
 2042SOL    HW2 6145   2.129   3.263   0.374
 2043SOL     OW 6146   1.967   2.875   1.726
 2043SOL    HW1 6147   1.890   2.842   1.780
 2043SOL    HW2 6148   2.052   2.845   1.768
 2044SOL     OW 6149   2.534   2.065   1.489
 2044SOL    HW1 6150   2.624   2.049   1.449
 2044SOL    HW2 6151   2.542   2.070   1.588
 2045SOL     OW 6152   3.302   2.718   1.398
 2045SOL    HW1 6153   3.245   2.770   1.335
 2045SOL    HW2 6154   3.398   2.730   1.374
 2046SOL     OW 6155   1.934   2.028   0.318
 2046SOL    HW1 6156   1.917   2.111   0.264
 2046SOL    HW2 6157   2.024   1.991   0.296
 2047SOL     OW 6158   3.045   3.197   0.119
 2047SOL    HW1 6159   2.946   3.186   0.121
 2047SOL    HW2 6160   3.079   3.212   0.212
 2048SOL     OW 6161   2.475   2.704   1.431
 2048SOL    HW1 6162   2.531   2.785   1.414
 2048SOL    HW2 6163   2.534   2.624   1.434
 2049SOL     OW 6164   3.355   3.629   0.959
 2049SOL    HW1 6165   3.388   3.693   0.890
 2049SOL    HW2 6166   3.421   3.623   1.034
 2050SOL     OW 6167   2.578   2.427   1.708
 2050SOL    HW1 6168   2.597   2.492   1.782
 2050SOL    HW2 6169   2.638   2.347   1.717
 2051SOL     OW 6170   3.312   3.082   1.633
 2051SOL    HW1 6171   3.303   3.072   1.732
 2051SOL    HW2 6172   3.408   3.075   1.607
 2052SOL     OW 6173   2.252   3.603   1.560
 2052SOL    HW1 6174   2.161   3.644   1.558
 2052SOL    HW2 6175   2.245   3.509   1.592
 2053SOL     OW 6176   3.536   2.745   1.254
 2053SOL    HW1 6177   3.509   2.656   1.217
 2053SOL    HW2 6178   3.537   2.813   1.181
 2054SOL     OW 6179   3.087   2.187   0.449
 2054SOL    HW1 6180   3.152   2.113   0.438
 2054SOL    HW2 6181   3.107   2.237   0.533
 2055SOL     OW 6182   2.456   2.607   0.652
 2055SOL    HW1 6183   2.506   2.692   0.633
 2055SOL    HW2 6184   2.368   2.609   0.604
 2056SOL     OW 6185   3.639   2.204   1.642
 2056SOL    HW1 6186   3.622   2.235   1.548
 2056SOL    HW2 6187   3.555   2.167   1.680
 2057SOL     OW 6188   3.592   2.796   1.517
 2057SOL    HW1 6189   3.630   2.887   1.532
 2057SOL    HW2 6190   3.584   2.779   1.418
 2058SOL     OW 6191   2.721   3.236   0.016
 2058SOL    HW1 6192   2.675   3.251   0.104
 2058SOL    HW2 6193   2.765   3.321  -0.014
 2059SOL     OW 6194   2.523   3.652   0.953
 2059SOL    HW1 6195   2.477   3.740   0.940
 2059SOL    HW2 6196   2.622   3.664   0.946
 2060SOL     OW 6197   2.721   2.818   0.861
 2060SOL    HW1 6198   2.775   2.749   0.909
 2060SOL    HW2 6199   2.689   2.887   0.927
 2061SOL     OW 6200   2.945   2.846   0.087
 2061SOL    HW1 6201   2.922   2.899   0.005
 2061SOL    HW2 6202   3.026   2.790   0.068
 2062SOL     OW 6203   3.723   3.431   0.851
 2062SOL    HW1 6204   3.652   3.419   0.781
 2062SOL    HW2 6205   3.724   3.352   0.911
 2063SOL     OW 6206   2.083   3.176   1.844
 2063SOL    HW1 6207   2.018   3.103   1.823
 2063SOL    HW2 6208   2.087   3.190   1.942
 2064SOL     OW 6209   1.941   3.102   0.653
 2064SOL    HW1 6210   1.940   3.055   0.741
 2064SOL    HW2 6211   2.023   3.074   0.602
 2065SOL     OW 6212   2.534   3.253   1.624
 2065SOL    HW1 6213   2.456   3.203   1.662
 2065SOL    HW2 6214   2.531   3.348   1.655
 2066SOL     OW 6215   3.686   2.054   1.227
 2066SOL    HW1 6216   3.682   1.964   1.271
 2066SOL    HW2 6217   3.689   2.043   1.128
 2067SOL     OW 6218   2.290   2.286   0.520
 2067SOL    HW1 6219   2.320   2.214   0.458
 2067SOL    HW2 6220   2.251   2.246   0.603
 2068SOL     OW 6221   3.567   3.349   1.104
 2068SOL    HW1 6222   3.474   3.324   1.077
 2068SOL    HW2 6223   3.593   3.299   1.186
 2069SOL     OW 6224   2.179   2.409   1.280
 2069SOL    HW1 6225   2.217   2.350   1.352
 2069SOL    HW2 6226   2.219   2.383   1.192
 2070SOL     OW 6227   2.674   3.448   0.687
 2070SOL    HW1 6228   2.706   3.458   0.593
 2070SOL    HW2 6229   2.595   3.386   0.689
 2071SOL     OW 6230   3.286   2.076   1.112
 2071SOL    HW1 6231   3.338   2.011   1.167
 2071SOL    HW2 6232   3.237   2.139   1.173
 2072SOL     OW 6233   2.863   1.896   1.154
 2072SOL    HW1 6234   2.800   1.824   1.123
 2072SOL    HW2 6235   2.956   1.860   1.154
 2073SOL     OW 6236   2.632   3.192   0.301
 2073SOL    HW1 6237   2.586   3.105   0.318
 2073SOL    HW2 6238   2.723   3.189   0.342
 2074SOL     OW 6239   2.480   3.429   1.284
 2074SOL    HW1 6240   2.475   3.511   1.341
 2074SOL    HW2 6241   2.569   3.426   1.239
 2075SOL     OW 6242   3.214   1.914   0.168
 2075SOL    HW1 6243   3.249   1.873   0.084
 2075SOL    HW2 6244   3.124   1.876   0.188
 2076SOL     OW 6245   3.162   2.315   0.691
 2076SOL    HW1 6246   3.103   2.395   0.695
 2076SOL    HW2 6247   3.177   2.280   0.784
 2077SOL     OW 6248   3.455   2.083   0.882
 2077SOL    HW1 6249   3.371   2.082   0.936
 2077SOL    HW2 6250   3.457   2.166   0.826
 2078SOL     OW 6251   1.901   2.939   0.300
 2078SOL    HW1 6252   2.000   2.928   0.291
 2078SOL    HW2 6253   1.861   2.853   0.332
 2079SOL     OW 6254   2.737   3.508   0.337
 2079SOL    HW1 6255   2.660   3.473   0.283
 2079SOL    HW2 6256   2.705   3.579   0.399
 2080SOL     OW 6257   2.087   2.137   2.858
 2080SOL    HW1 6258   2.122   2.120   2.950
 2080SOL    HW2 6259   1.999   2.092   2.846
 2081SOL     OW 6260   1.881   2.230   2.509
 2081SOL    HW1 6261   1.799   2.273   2.548
 2081SOL    HW2 6262   1.853   2.157   2.446
 2082SOL     OW 6263   2.431   3.137   3.027
 2082SOL    HW1 6264   2.338   3.130   2.990
 2082SOL    HW2 6265   2.442   3.226   3.071
 2083SOL     OW 6266   3.417   3.373   2.565
 2083SOL    HW1 6267   3.360   3.357   2.646
 2083SOL    HW2 6268   3.358   3.383   2.485
 2084SOL     OW 6269   2.997   2.565   2.579
 2084SOL    HW1 6270   3.054   2.643   2.554
 2084SOL    HW2 6271   2.937   2.591   2.655
 2085SOL     OW 6272   3.617   2.469   2.093
 2085SOL    HW1 6273   3.605   2.456   1.994
 2085SOL    HW2 6274   3.587   2.388   2.142
 2086SOL     OW 6275   2.630   3.006   2.885
 2086SOL    HW1 6276   2.552   3.023   2.945
 2086SOL    HW2 6277   2.664   3.093   2.849
 2087SOL     OW 6278   2.712   2.660   3.685
 2087SOL    HW1 6279   2.708   2.736   3.750
 2087SOL    HW2 6280   2.734   2.696   3.594
 2088SOL     OW 6281   2.547   2.874   2.527
 2088SOL    HW1 6282   2.616   2.858   2.597
 2088SOL    HW2 6283   2.474   2.931   2.565
 2089SOL     OW 6284   2.548   3.023   3.665
 2089SOL    HW1 6285   2.608   3.102   3.679
 2089SOL    HW2 6286   2.462   3.054   3.624
 2090SOL     OW 6287   2.197   3.297   2.923
 2090SOL    HW1 6288   2.119   3.266   2.870
 2090SOL    HW2 6289   2.255   3.355   2.866
 2091SOL     OW 6290   3.322   3.367   3.201
 2091SOL    HW1 6291   3.346   3.461   3.227
 2091SOL    HW2 6292   3.306   3.313   3.283
 2092SOL     OW 6293   2.300   2.254   3.361
 2092SOL    HW1 6294   2.382   2.198   3.370
 2092SOL    HW2 6295   2.219   2.196   3.365
 2093SOL     OW 6296   3.465   2.309   2.599
 2093SOL    HW1 6297   3.391   2.355   2.549
 2093SOL    HW2 6298   3.516   2.377   2.652
 2094SOL     OW 6299   2.093   3.575   2.345
 2094SOL    HW1 6300   2.127   3.652   2.399
 2094SOL    HW2 6301   2.137   3.575   2.255
 2095SOL     OW 6302   2.989   3.203   3.552
 2095SOL    HW1 6303   3.036   3.203   3.640
 2095SOL    HW2 6304   2.941   3.116   3.541
 2096SOL     OW 6305   2.092   3.296   2.400
 2096SOL    HW1 6306   2.066   3.392   2.400
 2096SOL    HW2 6307   2.021   3.242   2.445
 2097SOL     OW 6308   2.102   2.953   2.748
 2097SOL    HW1 6309   2.116   2.869   2.800
 2097SOL    HW2 6310   2.047   3.017   2.803
 2098SOL     OW 6311   2.482   3.648   3.301
 2098SOL    HW1 6312   2.390   3.631   3.336
 2098SOL    HW2 6313   2.510   3.740   3.327
 2099SOL     OW 6314   2.468   2.826   1.985
 2099SOL    HW1 6315   2.475   2.910   1.931
 2099SOL    HW2 6316   2.514   2.839   2.073
 2100SOL     OW 6317   3.456   1.976   3.342
 2100SOL    HW1 6318   3.438   2.043   3.270
 2100SOL    HW2 6319   3.453   2.022   3.431
 2101SOL     OW 6320   1.984   2.505   2.425
 2101SOL    HW1 6321   1.939   2.417   2.442
 2101SOL    HW2 6322   1.983   2.559   2.509
 2102SOL     OW 6323   3.704   3.629   2.221
 2102SOL    HW1 6324   3.758   3.600   2.301
 2102SOL    HW2 6325   3.734   3.719   2.192
 2103SOL     OW 6326   1.889   3.458   1.979
 2103SOL    HW1 6327   1.870   3.362   2.000
 2103SOL    HW2 6328   1.856   3.516   2.054
 2104SOL     OW 6329   3.551   2.784   2.474
 2104SOL    HW1 6330   3.646   2.755   2.482
 2104SOL    HW2 6331   3.543   2.849   2.399
 2105SOL     OW 6332   3.503   2.970   2.294
 2105SOL    HW1 6333   3.589   2.972   2.242
 2105SOL    HW2 6334   3.517   3.017   2.382
 2106SOL     OW 6335   1.975   2.599   3.459
 2106SOL    HW1 6336   2.063   2.586   3.504
 2106SOL    HW2 6337   1.962   2.696   3.437
 2107SOL     OW 6338   2.475   3.227   2.588
 2107SOL    HW1 6339   2.426   3.140   2.597
 2107SOL    HW2 6340   2.452   3.270   2.501
 2108SOL     OW 6341   3.155   3.090   3.285
 2108SOL    HW1 6342   3.192   3.017   3.227
 2108SOL    HW2 6343   3.207   3.095   3.370
 2109SOL     OW 6344   2.671   1.866   2.364
 2109SOL    HW1 6345   2.711   1.957   2.355
 2109SOL    HW2 6346   2.571   1.874   2.370
 2110SOL     OW 6347   2.059   2.838   3.126
 2110SOL    HW1 6348   2.148   2.793   3.112
 2110SOL    HW2 6349   1.986   2.773   3.107
 2111SOL     OW 6350   3.387   2.861   2.052
 2111SOL    HW1 6351   3.324   2.785   2.065
 2111SOL    HW2 6352   3.435   2.879   2.138
 2112SOL     OW 6353   3.049   3.654   3.478
 2112SOL    HW1 6354   3.073   3.714   3.402
 2112SOL    HW2 6355   3.056   3.559   3.448
 2113SOL     OW 6356   2.179   2.113   3.663
 2113SOL    HW1 6357   2.250   2.184   3.669
 2113SOL    HW2 6358   2.091   2.152   3.691
 2114SOL     OW 6359   3.328   3.279   2.815
 2114SOL    HW1 6360   3.269   3.285   2.895
 2114SOL    HW2 6361   3.313   3.191   2.769
 2115SOL     OW 6362   3.529   3.576   2.434
 2115SOL    HW1 6363   3.488   3.553   2.346
 2115SOL    HW2 6364   3.511   3.502   2.499
 2116SOL     OW 6365   3.143   2.207   2.806
 2116SOL    HW1 6366   3.057   2.157   2.793
 2116SOL    HW2 6367   3.205   2.153   2.862
 2117SOL     OW 6368   3.438   3.524   2.169
 2117SOL    HW1 6369   3.527   3.570   2.172
 2117SOL    HW2 6370   3.417   3.500   2.074
 2118SOL     OW 6371   2.669   2.467   3.327
 2118SOL    HW1 6372   2.622   2.464   3.416
 2118SOL    HW2 6373   2.618   2.412   3.261
 2119SOL     OW 6374   3.256   2.331   3.536
 2119SOL    HW1 6375   3.236   2.374   3.624
 2119SOL    HW2 6376   3.334   2.269   3.545
 2120SOL     OW 6377   2.835   2.752   3.434
 2120SOL    HW1 6378   2.881   2.668   3.405
 2120SOL    HW2 6379   2.779   2.786   3.359
 2121SOL     OW 6380   2.853   2.272   3.104
 2121SOL    HW1 6381   2.776   2.306   3.158
 2121SOL    HW2 6382   2.819   2.221   3.025
 2122SOL     OW 6383   2.903   2.563   2.291
 2122SOL    HW1 6384   2.929   2.559   2.387
 2122SOL    HW2 6385   2.818   2.512   2.277
 2123SOL     OW 6386   1.938   2.673   2.651
 2123SOL    HW1 6387   2.037   2.661   2.660
 2123SOL    HW2 6388   1.914   2.768   2.672
 2124SOL     OW 6389   1.992   3.683   3.433
 2124SOL    HW1 6390   1.982   3.668   3.532
 2124SOL    HW2 6391   1.906   3.719   3.397
 2125SOL     OW 6392   2.727   2.210   2.057
 2125SOL    HW1 6393   2.786   2.273   2.008
 2125SOL    HW2 6394   2.746   2.116   2.028
 2126SOL     OW 6395   3.581   2.447   3.693
 2126SOL    HW1 6396   3.555   2.536   3.657
 2126SOL    HW2 6397   3.579   2.379   3.620
 2127SOL     OW 6398   3.224   3.006   2.407
 2127SOL    HW1 6399   3.307   2.977   2.359
 2127SOL    HW2 6400   3.175   3.073   2.351
 2128SOL     OW 6401   2.412   2.058   2.747
 2128SOL    HW1 6402   2.407   2.053   2.847
 2128SOL    HW2 6403   2.414   2.154   2.718
 2129SOL     OW 6404   2.870   3.318   2.339
 2129SOL    HW1 6405   2.824   3.390   2.287
 2129SOL    HW2 6406   2.866   3.338   2.437
 2130SOL     OW 6407   2.213   3.663   2.715
 2130SOL    HW1 6408   2.263   3.577   2.721
 2130SOL    HW2 6409   2.278   3.740   2.712
 2131SOL     OW 6410   3.657   2.928   2.735
 2131SOL    HW1 6411   3.595   2.913   2.659
 2131SOL    HW2 6412   3.605   2.939   2.820
 2132SOL     OW 6413   3.089   3.412   3.368
 2132SOL    HW1 6414   3.095   3.335   3.432
 2132SOL    HW2 6415   3.037   3.386   3.288
 2133SOL     OW 6416   2.183   2.805   2.104
 2133SOL    HW1 6417   2.265   2.844   2.062
 2133SOL    HW2 6418   2.156   2.723   2.055
 2134SOL     OW 6419   3.320   2.597   2.590
 2134SOL    HW1 6420   3.315   2.532   2.665
 2134SOL    HW2 6421   3.400   2.656   2.603
 2135SOL     OW 6422   2.323   3.128   3.589
 2135SOL    HW1 6423   2.273   3.129   3.503
 2135SOL    HW2 6424   2.260   3.110   3.665
 2136SOL     OW 6425   2.973   3.638   2.099
 2136SOL    HW1 6426   2.913   3.576   2.149
 2136SOL    HW2 6427   3.004   3.594   2.014
 2137SOL     OW 6428   2.064   2.147   3.360
 2137SOL    HW1 6429   1.984   2.207   3.347
 2137SOL    HW2 6430   2.054   2.098   3.446
 2138SOL     OW 6431   3.494   3.239   1.943
 2138SOL    HW1 6432   3.462   3.333   1.933
 2138SOL    HW2 6433   3.418   3.176   1.931
 2139SOL     OW 6434   2.326   3.605   2.185
 2139SOL    HW1 6435   2.359   3.644   2.271
 2139SOL    HW2 6436   2.402   3.598   2.120
 2140SOL     OW 6437   3.262   1.969   2.288
 2140SOL    HW1 6438   3.238   1.932   2.198
 2140SOL    HW2 6439   3.361   1.985   2.292
 2141SOL     OW 6440   2.111   3.647   3.103
 2141SOL    HW1 6441   2.168   3.582   3.153
 2141SOL    HW2 6442   2.095   3.614   3.010
 2142SOL     OW 6443   2.802   3.560   2.766
 2142SOL    HW1 6444   2.882   3.503   2.787
 2142SOL    HW2 6445   2.753   3.520   2.689
 2143SOL     OW 6446   3.409   2.084   3.591
 2143SOL    HW1 6447   3.404   2.121   3.683
 2143SOL    HW2 6448   3.337   2.015   3.579
 2144SOL     OW 6449   2.476   1.984   1.979
 2144SOL    HW1 6450   2.574   1.962   1.986
 2144SOL    HW2 6451   2.445   1.967   1.886
 2145SOL     OW 6452   2.643   2.126   3.611
 2145SOL    HW1 6453   2.710   2.065   3.654
 2145SOL    HW2 6454   2.570   2.145   3.676
 2146SOL     OW 6455   2.750   3.376   3.057
 2146SOL    HW1 6456   2.727   3.351   2.963
 2146SOL    HW2 6457   2.811   3.307   3.096
 2147SOL     OW 6458   3.213   2.452   3.295
 2147SOL    HW1 6459   3.241   2.409   3.380
 2147SOL    HW2 6460   3.238   2.548   3.296
 2148SOL     OW 6461   2.665   3.264   2.786
 2148SOL    HW1 6462   2.755   3.278   2.744
 2148SOL    HW2 6463   2.594   3.266   2.715
 2149SOL     OW 6464   2.784   2.365   2.761
 2149SOL    HW1 6465   2.759   2.356   2.665
 2149SOL    HW2 6466   2.832   2.283   2.792
 2150SOL     OW 6467   2.401   1.926   2.374
 2150SOL    HW1 6468   2.320   1.927   2.432
 2150SOL    HW2 6469   2.404   2.009   2.319
 2151SOL     OW 6470   3.296   3.050   1.903
 2151SOL    HW1 6471   3.328   2.974   1.960
 2151SOL    HW2 6472   3.204   3.077   1.933
 2152SOL     OW 6473   2.159   1.897   2.033
 2152SOL    HW1 6474   2.208   1.981   2.012
 2152SOL    HW2 6475   2.221   1.832   2.078
 2153SOL     OW 6476   2.797   2.098   2.342
 2153SOL    HW1 6477   2.749   2.139   2.264
 2153SOL    HW2 6478   2.896   2.096   2.323
 2154SOL     OW 6479   2.938   2.545   3.326
 2154SOL    HW1 6480   2.858   2.484   3.329
 2154SOL    HW2 6481   3.019   2.492   3.302
 2155SOL     OW 6482   3.089   3.432   2.655
 2155SOL    HW1 6483   3.110   3.506   2.590
 2155SOL    HW2 6484   3.157   3.432   2.728
 2156SOL     OW 6485   2.321   3.014   2.603
 2156SOL    HW1 6486   2.250   2.987   2.668
 2156SOL    HW2 6487   2.295   2.986   2.510
 2157SOL     OW 6488   3.133   3.659   2.453
 2157SOL    HW1 6489   3.177   3.723   2.389
 2157SOL    HW2 6490   3.083   3.711   2.523
 2158SOL     OW 6491   2.894   2.411   1.878
 2158SOL    HW1 6492   2.853   2.493   1.839
 2158SOL    HW2 6493   2.958   2.437   1.951
 2159SOL     OW 6494   1.940   2.418   3.248
 2159SOL    HW1 6495   2.032   2.417   3.207
 2159SOL    HW2 6496   1.934   2.492   3.315
 2160SOL     OW 6497   2.423   2.084   3.009
 2160SOL    HW1 6498   2.461   2.000   3.046
 2160SOL    HW2 6499   2.335   2.103   3.053
 2161SOL     OW 6500   2.728   2.316   2.504
 2161SOL    HW1 6501   2.696   2.388   2.442
 2161SOL    HW2 6502   2.752   2.235   2.451
 2162SOL     OW 6503   2.879   1.901   2.615
 2162SOL    HW1 6504   2.807   1.906   2.546
 2162SOL    HW2 6505   2.855   1.832   2.684
 2163SOL     OW 6506   3.291   3.035   2.729
 2163SOL    HW1 6507   3.236   2.951   2.722
 2163SOL    HW2 6508   3.317   3.064   2.637
 2164SOL     OW 6509   3.328   2.452   2.854
 2164SOL    HW1 6510   3.298   2.357   2.861
 2164SOL    HW2 6511   3.401   2.468   2.920
 2165SOL     OW 6512   3.719   2.695   2.239
 2165SOL    HW1 6513   3.761   2.631   2.303
 2165SOL    HW2 6514   3.681   2.644   2.161
 2166SOL     OW 6515   2.350   3.247   2.036
 2166SOL    HW1 6516   2.263   3.232   2.083
 2166SOL    HW2 6517   2.333   3.273   1.941
 2167SOL     OW 6518   3.526   3.142   2.519
 2167SOL    HW1 6519   3.625   3.150   2.533
 2167SOL    HW2 6520   3.481   3.226   2.550
 2168SOL     OW 6521   3.252   2.437   1.940
 2168SOL    HW1 6522   3.198   2.416   2.021
 2168SOL    HW2 6523   3.343   2.396   1.949
 2169SOL     OW 6524   2.389   2.118   2.190
 2169SOL    HW1 6525   2.416   2.059   2.115
 2169SOL    HW2 6526   2.389   2.213   2.159
 2170SOL     OW 6527   3.616   3.085   3.450
 2170SOL    HW1 6528   3.707   3.046   3.437
 2170SOL    HW2 6529   3.624   3.181   3.474
 2171SOL     OW 6530   2.926   3.209   3.202
 2171SOL    HW1 6531   2.846   3.186   3.257
 2171SOL    HW2 6532   3.009   3.183   3.251
 2172SOL     OW 6533   3.454   3.491   3.487
 2172SOL    HW1 6534   3.481   3.525   3.397
 2172SOL    HW2 6535   3.533   3.453   3.533
 2173SOL     OW 6536   2.973   3.057   2.962
 2173SOL    HW1 6537   2.933   3.101   3.043
 2173SOL    HW2 6538   2.932   3.094   2.879
 2174SOL     OW 6539   3.500   2.961   2.941
 2174SOL    HW1 6540   3.505   3.042   3.000
 2174SOL    HW2 6541   3.414   2.963   2.890
 2175SOL     OW 6542   2.777   1.951   3.264
 2175SOL    HW1 6543   2.802   1.931   3.169
 2175SOL    HW2 6544   2.849   2.007   3.306
 2176SOL     OW 6545   2.842   2.978   3.581
 2176SOL    HW1 6546   2.743   2.984   3.591
 2176SOL    HW2 6547   2.865   2.898   3.525
 2177SOL     OW 6548   2.567   2.912   2.230
 2177SOL    HW1 6549   2.553   2.919   2.329
 2177SOL    HW2 6550   2.651   2.861   2.212
 2178SOL     OW 6551   2.272   2.675   3.113
 2178SOL    HW1 6552   2.358   2.687   3.163
 2178SOL    HW2 6553   2.230   2.588   3.140
 2179SOL     OW 6554   3.136   2.248   3.124
 2179SOL    HW1 6555   3.157   2.322   3.188
 2179SOL    HW2 6556   3.047   2.265   3.081
 2180SOL     OW 6557   1.926   3.426   3.193
 2180SOL    HW1 6558   1.880   3.508   3.159
 2180SOL    HW2 6559   2.024   3.445   3.202
 2181SOL     OW 6560   2.229   2.962   2.363
 2181SOL    HW1 6561   2.222   3.045   2.307
 2181SOL    HW2 6562   2.233   2.882   2.303
 2182SOL     OW 6563   2.428   2.399   2.727
 2182SOL    HW1 6564   2.440   2.465   2.653
 2182SOL    HW2 6565   2.474   2.433   2.810
 2183SOL     OW 6566   3.114   3.210   2.250
 2183SOL    HW1 6567   3.164   3.287   2.290
 2183SOL    HW2 6568   3.019   3.212   2.282
 2184SOL     OW 6569   3.134   3.307   3.004
 2184SOL    HW1 6570   3.181   3.320   3.091
 2184SOL    HW2 6571   3.068   3.233   3.013
 2185SOL     OW 6572   3.444   2.501   2.334
 2185SOL    HW1 6573   3.413   2.562   2.407
 2185SOL    HW2 6574   3.494   2.553   2.265
 2186SOL     OW 6575   2.216   3.372   3.191
 2186SOL    HW1 6576   2.195   3.328   3.104
 2186SOL    HW2 6577   2.313   3.398   3.194
 2187SOL     OW 6578   2.264   2.613   3.460
 2187SOL    HW1 6579   2.332   2.668   3.413
 2187SOL    HW2 6580   2.304   2.525   3.487
 2188SOL     OW 6581   3.449   2.641   3.532
 2188SOL    HW1 6582   3.357   2.679   3.527
 2188SOL    HW2 6583   3.509   2.688   3.467
 2189SOL     OW 6584   2.875   1.967   3.632
 2189SOL    HW1 6585   2.881   2.052   3.580
 2189SOL    HW2 6586   2.907   1.891   3.575
 2190SOL     OW 6587   2.366   1.912   3.602
 2190SOL    HW1 6588   2.324   1.855   3.532
 2190SOL    HW2 6589   2.300   1.981   3.634
 2191SOL     OW 6590   2.435   2.732   2.891
 2191SOL    HW1 6591   2.479   2.821   2.882
 2191SOL    HW2 6592   2.372   2.732   2.968
 2192SOL     OW 6593   3.222   2.724   2.907
 2192SOL    HW1 6594   3.147   2.724   2.841
 2192SOL    HW2 6595   3.259   2.632   2.916
 2193SOL     OW 6596   3.071   2.387   2.137
 2193SOL    HW1 6597   3.084   2.303   2.191
 2193SOL    HW2 6598   3.042   2.461   2.197
 2194SOL     OW 6599   2.169   2.075   3.093
 2194SOL    HW1 6600   2.146   2.112   3.183
 2194SOL    HW2 6601   2.139   1.980   3.087
 2195SOL     OW 6602   1.899   3.172   3.144
 2195SOL    HW1 6603   1.952   3.123   3.212
 2195SOL    HW2 6604   1.921   3.270   3.149
 2196SOL     OW 6605   2.594   2.496   2.926
 2196SOL    HW1 6606   2.653   2.470   2.850
 2196SOL    HW2 6607   2.566   2.592   2.915
 2197SOL     OW 6608   3.590   2.797   3.716
 2197SOL    HW1 6609   3.544   2.790   3.627
 2197SOL    HW2 6610   3.528   2.841   3.782
 2198SOL     OW 6611   2.169   1.925   2.480
 2198SOL    HW1 6612   2.158   2.019   2.513
 2198SOL    HW2 6613   2.164   1.862   2.557
 2199SOL     OW 6614   3.484   2.229   2.236
 2199SOL    HW1 6615   3.486   2.153   2.300
 2199SOL    HW2 6616   3.436   2.306   2.276
 2200SOL     OW 6617   2.885   2.628   2.828
 2200SOL    HW1 6618   2.900   2.649   2.924
 2200SOL    HW2 6619   2.855   2.533   2.819
 2201SOL     OW 6620   2.842   3.435   3.562
 2201SOL    HW1 6621   2.822   3.479   3.474
 2201SOL    HW2 6622   2.881   3.344   3.546
 2202SOL     OW 6623   3.721   3.380   3.467
 2202SOL    HW1 6624   3.735   3.407   3.372
 2202SOL    HW2 6625   3.804   3.402   3.520
 2203SOL     OW 6626   2.212   2.760   3.666
 2203SOL    HW1 6627   2.288   2.804   3.714
 2203SOL    HW2 6628   2.247   2.713   3.584
 2204SOL     OW 6629   3.402   2.136   1.987
 2204SOL    HW1 6630   3.341   2.061   2.010
 2204SOL    HW2 6631   3.424   2.188   2.070
 2205SOL     OW 6632   3.165   2.700   1.904
 2205SOL    HW1 6633   3.199   2.607   1.919
 2205SOL    HW2 6634   3.183   2.727   1.809
 2206SOL     OW 6635   2.930   3.195   2.711
 2206SOL    HW1 6636   2.937   3.111   2.656
 2206SOL    HW2 6637   2.992   3.264   2.675
 2207SOL     OW 6638   2.181   2.672   2.811
 2207SOL    HW1 6639   2.274   2.708   2.816
 2207SOL    HW2 6640   2.175   2.587   2.863
 2208SOL     OW 6641   2.201   2.371   2.868
 2208SOL    HW1 6642   2.149   2.288   2.851
 2208SOL    HW2 6643   2.278   2.376   2.804
 2209SOL     OW 6644   3.000   2.242   3.540
 2209SOL    HW1 6645   2.955   2.305   3.604
 2209SOL    HW2 6646   3.093   2.273   3.523
 2210SOL     OW 6647   3.022   2.069   3.339
 2210SOL    HW1 6648   3.022   2.133   3.416
 2210SOL    HW2 6649   3.050   2.117   3.256
 2211SOL     OW 6650   1.870   3.188   2.062
 2211SOL    HW1 6651   1.777   3.209   2.031
 2211SOL    HW2 6652   1.880   3.089   2.075
 2212SOL     OW 6653   1.950   3.663   2.789
 2212SOL    HW1 6654   1.908   3.577   2.762
 2212SOL    HW2 6655   2.044   3.666   2.755
 2213SOL     OW 6656   2.366   3.430   2.772
 2213SOL    HW1 6657   2.432   3.504   2.781
 2213SOL    HW2 6658   2.410   3.351   2.730
 2214SOL     OW 6659   2.864   2.658   3.100
 2214SOL    HW1 6660   2.905   2.626   3.186
 2214SOL    HW2 6661   2.768   2.631   3.097
 2215SOL     OW 6662   1.902   2.406   2.976
 2215SOL    HW1 6663   1.987   2.373   2.935
 2215SOL    HW2 6664   1.915   2.421   3.074
 2216SOL     OW 6665   2.051   2.382   3.584
 2216SOL    HW1 6666   2.110   2.342   3.514
 2216SOL    HW2 6667   1.993   2.453   3.543
 2217SOL     OW 6668   3.231   2.812   3.522
 2217SOL    HW1 6669   3.270   2.901   3.542
 2217SOL    HW2 6670   3.241   2.792   3.425
 2218SOL     OW 6671   3.519   2.466   3.068
 2218SOL    HW1 6672   3.481   2.397   3.130
 2218SOL    HW2 6673   3.601   2.430   3.024
 2219SOL     OW 6674   2.114   3.426   3.606
 2219SOL    HW1 6675   2.084   3.483   3.682
 2219SOL    HW2 6676   2.107   3.329   3.632
 2220SOL     OW 6677   2.533   2.326   3.131
 2220SOL    HW1 6678   2.499   2.237   3.101
 2220SOL    HW2 6679   2.559   2.380   3.051
 2221SOL     OW 6680   2.792   3.540   3.327
 2221SOL    HW1 6681   2.768   3.522   3.232
 2221SOL    HW2 6682   2.822   3.634   3.337
 2222SOL     OW 6683   2.021   2.999   3.328
 2222SOL    HW1 6684   2.043   2.938   3.404
 2222SOL    HW2 6685   2.031   2.950   3.242
 2223SOL     OW 6686   3.209   2.921   3.096
 2223SOL    HW1 6687   3.233   2.858   3.022
 2223SOL    HW2 6688   3.119   2.961   3.078
 2224SOL     OW 6689   3.164   2.717   2.171
 2224SOL    HW1 6690   3.078   2.686   2.213
 2224SOL    HW2 6691   3.160   2.703   2.072
 2225SOL     OW 6692   3.621   3.609   3.016
 2225SOL    HW1 6693   3.682   3.639   2.943
 2225SOL    HW2 6694   3.583   3.520   2.994
 2226SOL     OW 6695   3.114   3.593   2.990
 2226SOL    HW1 6696   3.198   3.598   2.936
 2226SOL    HW2 6697   3.091   3.497   3.008
 2227SOL     OW 6698   1.945   3.120   2.884
 2227SOL    HW1 6699   1.940   3.119   2.984
 2227SOL    HW2 6700   1.862   3.079   2.846
 2228SOL     OW 6701   2.550   3.524   3.578
 2228SOL    HW1 6702   2.494   3.605   3.587
 2228SOL    HW2 6703   2.602   3.528   3.492
 2229SOL     OW 6704   3.588   1.997   2.385
 2229SOL    HW1 6705   3.661   1.980   2.318
 2229SOL    HW2 6706   3.557   1.910   2.423
 2230SOL     OW 6707   3.250   3.435   2.339
 2230SOL    HW1 6708   3.317   3.447   2.265
 2230SOL    HW2 6709   3.210   3.524   2.362
 2231SOL     OW 6710   1.992   3.656   3.713
 2231SOL    HW1 6711   1.951   3.582   3.766
 2231SOL    HW2 6712   2.056   3.707   3.771
 2232SOL     OW 6713   3.142   2.789   2.534
 2232SOL    HW1 6714   3.202   2.708   2.536
 2232SOL    HW2 6715   3.182   2.858   2.474
 2233SOL     OW 6716   2.692   3.135   3.284
 2233SOL    HW1 6717   2.687   3.168   3.379
 2233SOL    HW2 6718   2.606   3.154   3.238
 2234SOL     OW 6719   2.534   3.478   2.016
 2234SOL    HW1 6720   2.543   3.488   1.917
 2234SOL    HW2 6721   2.494   3.389   2.037
 2235SOL     OW 6722   3.512   3.582   3.256
 2235SOL    HW1 6723   3.565   3.592   3.172
 2235SOL    HW2 6724   3.485   3.672   3.290
 2236SOL     OW 6725   3.703   2.037   2.825
 2236SOL    HW1 6726   3.742   1.952   2.789
 2236SOL    HW2 6727   3.605   2.039   2.806
 2237SOL     OW 6728   3.056   3.474   1.893
 2237SOL    HW1 6729   3.062   3.381   1.930
 2237SOL    HW2 6730   2.997   3.474   1.813
 2238SOL     OW 6731   2.684   2.864   3.234
 2238SOL    HW1 6732   2.724   2.863   3.142
 2238SOL    HW2 6733   2.694   2.956   3.274
 2239SOL     OW 6734   2.778   2.772   2.153
 2239SOL    HW1 6735   2.841   2.810   2.085
 2239SOL    HW2 6736   2.818   2.689   2.192
 2240SOL     OW 6737   3.366   3.469   1.906
 2240SOL    HW1 6738   3.274   3.506   1.913
 2240SOL    HW2 6739   3.404   3.489   1.816
 2241SOL     OW 6740   2.234   3.150   3.352
 2241SOL    HW1 6741   2.221   3.243   3.318
 2241SOL    HW2 6742   2.150   3.098   3.339
 2242SOL     OW 6743   3.476   3.154   3.151
 2242SOL    HW1 6744   3.536   3.157   3.231
 2242SOL    HW2 6745   3.401   3.218   3.164
 2243SOL     OW 6746   2.901   2.960   2.558
 2243SOL    HW1 6747   2.831   2.913   2.612
 2243SOL    HW2 6748   2.960   2.892   2.515
 2244SOL     OW 6749   2.876   2.098   2.833
 2244SOL    HW1 6750   2.868   2.062   2.740
 2244SOL    HW2 6751   2.874   2.022   2.898
 2245SOL     OW 6752   2.452   3.349   2.353
 2245SOL    HW1 6753   2.494   3.291   2.283
 2245SOL    HW2 6754   2.408   3.428   2.309
 2246SOL     OW 6755   3.571   2.247   3.243
 2246SOL    HW1 6756   3.644   2.316   3.247
 2246SOL    HW2 6757   3.599   2.172   3.184
 2247SOL     OW 6758   2.117   3.210   2.152
 2247SOL    HW1 6759   2.021   3.211   2.125
 2247SOL    HW2 6760   2.129   3.263   2.236
 2248SOL     OW 6761   1.967   2.875   3.588
 2248SOL    HW1 6762   1.890   2.842   3.642
 2248SOL    HW2 6763   2.052   2.845   3.630
 2249SOL     OW 6764   2.534   2.065   3.351
 2249SOL    HW1 6765   2.624   2.049   3.311
 2249SOL    HW2 6766   2.542   2.070   3.450
 2250SOL     OW 6767   1.937   2.207   1.895
 2250SOL    HW1 6768   1.845   2.179   1.866
 2250SOL    HW2 6769   1.968   2.284   1.839
 2251SOL     OW 6770   3.302   2.718   3.260
 2251SOL    HW1 6771   3.245   2.770   3.197
 2251SOL    HW2 6772   3.398   2.730   3.236
 2252SOL     OW 6773   1.934   2.028   2.180
 2252SOL    HW1 6774   1.917   2.111   2.126
 2252SOL    HW2 6775   2.024   1.991   2.158
 2253SOL     OW 6776   3.045   3.197   1.981
 2253SOL    HW1 6777   2.946   3.186   1.983
 2253SOL    HW2 6778   3.079   3.212   2.074
 2254SOL     OW 6779   2.475   2.704   3.293
 2254SOL    HW1 6780   2.531   2.785   3.276
 2254SOL    HW2 6781   2.534   2.624   3.296
 2255SOL     OW 6782   3.355   3.629   2.821
 2255SOL    HW1 6783   3.388   3.693   2.752
 2255SOL    HW2 6784   3.421   3.623   2.896
 2256SOL     OW 6785   2.578   2.427   3.570
 2256SOL    HW1 6786   2.597   2.492   3.644
 2256SOL    HW2 6787   2.638   2.347   3.579
 2257SOL     OW 6788   3.312   3.082   3.495
 2257SOL    HW1 6789   3.303   3.072   3.594
 2257SOL    HW2 6790   3.408   3.075   3.469
 2258SOL     OW 6791   2.252   3.603   3.422
 2258SOL    HW1 6792   2.161   3.644   3.420
 2258SOL    HW2 6793   2.245   3.509   3.454
 2259SOL     OW 6794   3.536   2.745   3.116
 2259SOL    HW1 6795   3.509   2.656   3.079
 2259SOL    HW2 6796   3.537   2.813   3.043
 2260SOL     OW 6797   3.087   2.187   2.311
 2260SOL    HW1 6798   3.152   2.113   2.300
 2260SOL    HW2 6799   3.107   2.237   2.395
 2261SOL     OW 6800   2.456   2.607   2.514
 2261SOL    HW1 6801   2.506   2.692   2.495
 2261SOL    HW2 6802   2.368   2.609   2.466
 2262SOL     OW 6803   3.639   2.204   3.504
 2262SOL    HW1 6804   3.622   2.235   3.410
 2262SOL    HW2 6805   3.555   2.167   3.542
 2263SOL     OW 6806   3.592   2.796   3.379
 2263SOL    HW1 6807   3.630   2.887   3.394
 2263SOL    HW2 6808   3.584   2.779   3.280
 2264SOL     OW 6809   2.721   3.236   1.878
 2264SOL    HW1 6810   2.675   3.251   1.966
 2264SOL    HW2 6811   2.765   3.321   1.848
 2265SOL     OW 6812   2.523   3.652   2.815
 2265SOL    HW1 6813   2.477   3.740   2.802
 2265SOL    HW2 6814   2.622   3.664   2.808
 2266SOL     OW 6815   2.721   2.818   2.723
 2266SOL    HW1 6816   2.775   2.749   2.771
 2266SOL    HW2 6817   2.689   2.887   2.789
 2267SOL     OW 6818   2.945   2.846   1.949
 2267SOL    HW1 6819   2.922   2.899   1.867
 2267SOL    HW2 6820   3.026   2.790   1.930
 2268SOL     OW 6821   3.723   3.431   2.713
 2268SOL    HW1 6822   3.652   3.419   2.643
 2268SOL    HW2 6823   3.724   3.352   2.773
 2269SOL     OW 6824   2.083   3.176   3.706
 2269SOL    HW1 6825   2.018   3.103   3.685
 2269SOL    HW2 6826   2.087   3.190   3.804
 2270SOL     OW 6827   1.941   3.102   2.515
 2270SOL    HW1 6828   1.940   3.055   2.603
 2270SOL    HW2 6829   2.023   3.074   2.464
 2271SOL     OW 6830   2.534   3.253   3.486
 2271SOL    HW1 6831   2.456   3.203   3.524
 2271SOL    HW2 6832   2.531   3.348   3.517
 2272SOL     OW 6833   3.686   2.054   3.089
 2272SOL    HW1 6834   3.682   1.964   3.133
 2272SOL    HW2 6835   3.689   2.043   2.990
 2273SOL     OW 6836   3.567   3.349   2.966
 2273SOL    HW1 6837   3.474   3.324   2.939
 2273SOL    HW2 6838   3.593   3.299   3.048
 2274SOL     OW 6839   2.179   2.409   3.142
 2274SOL    HW1 6840   2.217   2.350   3.214
 2274SOL    HW2 6841   2.219   2.383   3.054
 2275SOL     OW 6842   2.674   3.448   2.549
 2275SOL    HW1 6843   2.706   3.458   2.455
 2275SOL    HW2 6844   2.595   3.386   2.551
 2276SOL     OW 6845   3.286   2.076   2.974
 2276SOL    HW1 6846   3.338   2.011   3.029
 2276SOL    HW2 6847   3.237   2.139   3.035
 2277SOL     OW 6848   2.863   1.896   3.016
 2277SOL    HW1 6849   2.800   1.824   2.985
 2277SOL    HW2 6850   2.956   1.860   3.016
 2278SOL     OW 6851   2.632   3.192   2.163
 2278SOL    HW1 6852   2.586   3.105   2.180
 2278SOL    HW2 6853   2.723   3.189   2.204
 2279SOL     OW 6854   2.480   3.429   3.146
 2279SOL    HW1 6855   2.475   3.511   3.203
 2279SOL    HW2 6856   2.569   3.426   3.101
 2280SOL     OW 6857   3.214   1.914   2.030
 2280SOL    HW1 6858   3.249   1.873   1.946
 2280SOL    HW2 6859   3.124   1.876   2.050
 2281SOL     OW 6860   3.162   2.315   2.553
 2281SOL    HW1 6861   3.103   2.395   2.557
 2281SOL    HW2 6862   3.177   2.280   2.646
 2282SOL     OW 6863   3.455   2.083   2.744
 2282SOL    HW1 6864   3.371   2.082   2.798
 2282SOL    HW2 6865   3.457   2.166   2.688
 2283SOL     OW 6866   1.901   2.939   2.162
 2283SOL    HW1 6867   2.000   2.928   2.153
 2283SOL    HW2 6868   1.861   2.853   2.194
 2284SOL     OW 6869   2.737   3.508   2.199
 2284SOL    HW1 6870   2.660   3.473   2.145
 2284SOL    HW2 6871   2.705   3.579   2.261
 2285SOL     OW 6872   2.092   2.490   3.837
 2285SOL    HW1 6873   1.999   2.488   3.874
 2285SOL    HW2 6874   2.093   2.451   3.745
 2286SOL     OW 6875   2.087   2.137   4.720
 2286SOL    HW1 6876   2.122   2.120   4.812
 2286SOL    HW2 6877   1.999   2.092   4.708
 2287SOL     OW 6878   1.881   2.230   4.371
 2287SOL    HW1 6879   1.799   2.273   4.410
 2287SOL    HW2 6880   1.853   2.157   4.308
 2288SOL     OW 6881   3.417   3.373   4.427
 2288SOL    HW1 6882   3.360   3.357   4.508
 2288SOL    HW2 6883   3.358   3.383   4.347
 2289SOL     OW 6884   2.997   2.565   4.441
 2289SOL    HW1 6885   3.054   2.643   4.416
 2289SOL    HW2 6886   2.937   2.591   4.517
 2290SOL     OW 6887   3.617   2.469   3.955
 2290SOL    HW1 6888   3.605   2.456   3.856
 2290SOL    HW2 6889   3.587   2.388   4.004
 2291SOL     OW 6890   2.547   2.874   4.389
 2291SOL    HW1 6891   2.616   2.858   4.459
 2291SOL    HW2 6892   2.474   2.931   4.427
 2292SOL     OW 6893   3.465   2.309   4.461
 2292SOL    HW1 6894   3.391   2.355   4.411
 2292SOL    HW2 6895   3.516   2.377   4.514
 2293SOL     OW 6896   2.093   3.575   4.207
 2293SOL    HW1 6897   2.127   3.652   4.261
 2293SOL    HW2 6898   2.137   3.575   4.117
 2294SOL     OW 6899   2.092   3.296   4.262
 2294SOL    HW1 6900   2.066   3.392   4.262
 2294SOL    HW2 6901   2.021   3.242   4.307
 2295SOL     OW 6902   2.102   2.953   4.610
 2295SOL    HW1 6903   2.116   2.869   4.662
 2295SOL    HW2 6904   2.047   3.017   4.665
 2296SOL     OW 6905   2.468   2.826   3.847
 2296SOL    HW1 6906   2.475   2.910   3.793
 2296SOL    HW2 6907   2.514   2.839   3.935
 2297SOL     OW 6908   1.984   2.505   4.287
 2297SOL    HW1 6909   1.939   2.417   4.304
 2297SOL    HW2 6910   1.983   2.559   4.371
 2298SOL     OW 6911   3.704   3.629   4.083
 2298SOL    HW1 6912   3.758   3.600   4.163
 2298SOL    HW2 6913   3.734   3.719   4.054
 2299SOL     OW 6914   1.889   3.458   3.841
 2299SOL    HW1 6915   1.870   3.362   3.862
 2299SOL    HW2 6916   1.856   3.516   3.916
 2300SOL     OW 6917   3.551   2.784   4.336
 2300SOL    HW1 6918   3.646   2.755   4.344
 2300SOL    HW2 6919   3.543   2.849   4.261
 2301SOL     OW 6920   3.503   2.970   4.156
 2301SOL    HW1 6921   3.589   2.972   4.104
 2301SOL    HW2 6922   3.517   3.017   4.244
 2302SOL     OW 6923   2.475   3.227   4.450
 2302SOL    HW1 6924   2.426   3.140   4.459
 2302SOL    HW2 6925   2.452   3.270   4.363
 2303SOL     OW 6926   2.671   1.866   4.226
 2303SOL    HW1 6927   2.711   1.957   4.217
 2303SOL    HW2 6928   2.571   1.874   4.232
 2304SOL     OW 6929   3.387   2.861   3.914
 2304SOL    HW1 6930   3.324   2.785   3.927
 2304SOL    HW2 6931   3.435   2.879   4.000
 2305SOL     OW 6932   3.328   3.279   4.677
 2305SOL    HW1 6933   3.269   3.285   4.757
 2305SOL    HW2 6934   3.313   3.191   4.631
 2306SOL     OW 6935   3.529   3.576   4.296
 2306SOL    HW1 6936   3.488   3.553   4.208
 2306SOL    HW2 6937   3.511   3.502   4.361
 2307SOL     OW 6938   2.460   2.591   3.994
 2307SOL    HW1 6939   2.484   2.660   3.926
 2307SOL    HW2 6940   2.382   2.624   4.048
 2308SOL     OW 6941   3.143   2.207   4.668
 2308SOL    HW1 6942   3.057   2.157   4.655
 2308SOL    HW2 6943   3.205   2.153   4.724
 2309SOL     OW 6944   3.438   3.524   4.031
 2309SOL    HW1 6945   3.527   3.570   4.034
 2309SOL    HW2 6946   3.417   3.500   3.936
 2310SOL     OW 6947   2.903   2.563   4.153
 2310SOL    HW1 6948   2.929   2.559   4.249
 2310SOL    HW2 6949   2.818   2.512   4.139
 2311SOL     OW 6950   1.938   2.673   4.513
 2311SOL    HW1 6951   2.037   2.661   4.522
 2311SOL    HW2 6952   1.914   2.768   4.534
 2312SOL     OW 6953   2.727   2.210   3.919
 2312SOL    HW1 6954   2.786   2.273   3.870
 2312SOL    HW2 6955   2.746   2.116   3.890
 2313SOL     OW 6956   3.224   3.006   4.269
 2313SOL    HW1 6957   3.307   2.977   4.221
 2313SOL    HW2 6958   3.175   3.073   4.213
 2314SOL     OW 6959   2.412   2.058   4.609
 2314SOL    HW1 6960   2.407   2.053   4.709
 2314SOL    HW2 6961   2.414   2.154   4.580
 2315SOL     OW 6962   2.870   3.318   4.201
 2315SOL    HW1 6963   2.824   3.390   4.149
 2315SOL    HW2 6964   2.866   3.338   4.299
 2316SOL     OW 6965   2.213   3.663   4.577
 2316SOL    HW1 6966   2.263   3.577   4.583
 2316SOL    HW2 6967   2.278   3.740   4.574
 2317SOL     OW 6968   3.657   2.928   4.597
 2317SOL    HW1 6969   3.595   2.913   4.521
 2317SOL    HW2 6970   3.605   2.939   4.682
 2318SOL     OW 6971   2.183   2.805   3.966
 2318SOL    HW1 6972   2.265   2.844   3.924
 2318SOL    HW2 6973   2.156   2.723   3.917
 2319SOL     OW 6974   3.320   2.597   4.452
 2319SOL    HW1 6975   3.315   2.532   4.527
 2319SOL    HW2 6976   3.400   2.656   4.465
 2320SOL     OW 6977   2.973   3.638   3.961
 2320SOL    HW1 6978   2.913   3.576   4.011
 2320SOL    HW2 6979   3.004   3.594   3.876
 2321SOL     OW 6980   3.494   3.239   3.805
 2321SOL    HW1 6981   3.462   3.333   3.795
 2321SOL    HW2 6982   3.418   3.176   3.793
 2322SOL     OW 6983   2.326   3.605   4.047
 2322SOL    HW1 6984   2.359   3.644   4.133
 2322SOL    HW2 6985   2.402   3.598   3.982
 2323SOL     OW 6986   3.262   1.969   4.150
 2323SOL    HW1 6987   3.238   1.932   4.060
 2323SOL    HW2 6988   3.361   1.985   4.154
 2324SOL     OW 6989   2.244   2.562   4.204
 2324SOL    HW1 6990   2.289   2.472   4.201
 2324SOL    HW2 6991   2.150   2.551   4.237
 2325SOL     OW 6992   2.476   1.984   3.841
 2325SOL    HW1 6993   2.574   1.962   3.848
 2325SOL    HW2 6994   2.445   1.967   3.748
 2326SOL     OW 6995   2.401   1.926   4.236
 2326SOL    HW1 6996   2.320   1.927   4.294
 2326SOL    HW2 6997   2.404   2.009   4.181
 2327SOL     OW 6998   3.296   3.050   3.765
 2327SOL    HW1 6999   3.328   2.974   3.822
 2327SOL    HW2 7000   3.204   3.077   3.795
 2328SOL     OW 7001   2.159   1.897   3.895
 2328SOL    HW1 7002   2.208   1.981   3.874
 2328SOL    HW2 7003   2.221   1.832   3.940
 2329SOL     OW 7004   2.797   2.098   4.204
 2329SOL    HW1 7005   2.749   2.139   4.126
 2329SOL    HW2 7006   2.896   2.096   4.185
 2330SOL     OW 7007   3.089   3.432   4.517
 2330SOL    HW1 7008   3.110   3.506   4.452
 2330SOL    HW2 7009   3.157   3.432   4.590
 2331SOL     OW 7010   2.321   3.014   4.465
 2331SOL    HW1 7011   2.250   2.987   4.530
 2331SOL    HW2 7012   2.295   2.986   4.372
 2332SOL     OW 7013   3.133   3.659   4.315
 2332SOL    HW1 7014   3.177   3.723   4.251
 2332SOL    HW2 7015   3.083   3.711   4.385
 2333SOL     OW 7016   2.894   2.411   3.740
 2333SOL    HW1 7017   2.853   2.493   3.701
 2333SOL    HW2 7018   2.958   2.437   3.813
 2334SOL     OW 7019   2.728   2.316   4.366
 2334SOL    HW1 7020   2.696   2.388   4.304
 2334SOL    HW2 7021   2.752   2.235   4.313
 2335SOL     OW 7022   2.879   1.901   4.477
 2335SOL    HW1 7023   2.807   1.906   4.408
 2335SOL    HW2 7024   2.855   1.832   4.546
 2336SOL     OW 7025   3.719   2.695   4.101
 2336SOL    HW1 7026   3.761   2.631   4.165
 2336SOL    HW2 7027   3.681   2.644   4.023
 2337SOL     OW 7028   2.350   3.247   3.898
 2337SOL    HW1 7029   2.263   3.232   3.945
 2337SOL    HW2 7030   2.333   3.273   3.803
 2338SOL     OW 7031   3.526   3.142   4.381
 2338SOL    HW1 7032   3.625   3.150   4.395
 2338SOL    HW2 7033   3.481   3.226   4.412
 2339SOL     OW 7034   3.252   2.437   3.802
 2339SOL    HW1 7035   3.198   2.416   3.883
 2339SOL    HW2 7036   3.343   2.396   3.811
 2340SOL     OW 7037   2.389   2.118   4.052
 2340SOL    HW1 7038   2.416   2.059   3.977
 2340SOL    HW2 7039   2.389   2.213   4.021
 2341SOL     OW 7040   2.567   2.912   4.092
 2341SOL    HW1 7041   2.553   2.919   4.191
 2341SOL    HW2 7042   2.651   2.861   4.074
 2342SOL     OW 7043   2.229   2.962   4.225
 2342SOL    HW1 7044   2.222   3.045   4.169
 2342SOL    HW2 7045   2.233   2.882   4.165
 2343SOL     OW 7046   2.428   2.399   4.589
 2343SOL    HW1 7047   2.440   2.465   4.515
 2343SOL    HW2 7048   2.474   2.433   4.672
 2344SOL     OW 7049   3.114   3.210   4.112
 2344SOL    HW1 7050   3.164   3.287   4.152
 2344SOL    HW2 7051   3.019   3.212   4.144
 2345SOL     OW 7052   3.444   2.501   4.196
 2345SOL    HW1 7053   3.413   2.562   4.269
 2345SOL    HW2 7054   3.494   2.553   4.127
 2346SOL     OW 7055   3.071   2.387   3.999
 2346SOL    HW1 7056   3.084   2.303   4.053
 2346SOL    HW2 7057   3.042   2.461   4.059
 2347SOL     OW 7058   2.594   2.496   4.788
 2347SOL    HW1 7059   2.653   2.470   4.712
 2347SOL    HW2 7060   2.566   2.592   4.777
 2348SOL     OW 7061   2.169   1.925   4.342
 2348SOL    HW1 7062   2.158   2.019   4.375
 2348SOL    HW2 7063   2.164   1.862   4.419
 2349SOL     OW 7064   3.484   2.229   4.098
 2349SOL    HW1 7065   3.486   2.153   4.162
 2349SOL    HW2 7066   3.436   2.306   4.138
 2350SOL     OW 7067   3.402   2.136   3.849
 2350SOL    HW1 7068   3.341   2.061   3.872
 2350SOL    HW2 7069   3.424   2.188   3.932
 2351SOL     OW 7070   3.165   2.700   3.766
 2351SOL    HW1 7071   3.199   2.607   3.781
 2351SOL    HW2 7072   3.183   2.727   3.671
 2352SOL     OW 7073   2.930   3.195   4.573
 2352SOL    HW1 7074   2.937   3.111   4.518
 2352SOL    HW2 7075   2.992   3.264   4.537
 2353SOL     OW 7076   2.181   2.672   4.673
 2353SOL    HW1 7077   2.274   2.708   4.678
 2353SOL    HW2 7078   2.175   2.587   4.725
 2354SOL     OW 7079   1.870   3.188   3.924
 2354SOL    HW1 7080   1.777   3.209   3.893
 2354SOL    HW2 7081   1.880   3.089   3.937
 2355SOL     OW 7082   1.950   3.663   4.651
 2355SOL    HW1 7083   1.908   3.577   4.624
 2355SOL    HW2 7084   2.044   3.666   4.617
 2356SOL     OW 7085   2.366   3.430   4.634
 2356SOL    HW1 7086   2.432   3.504   4.643
 2356SOL    HW2 7087   2.410   3.351   4.592
 2357SOL     OW 7088   2.677   2.434   4.049
 2357SOL    HW1 7089   2.684   2.345   4.003
 2357SOL    HW2 7090   2.583   2.468   4.041
 2358SOL     OW 7091   2.335   2.362   3.915
 2358SOL    HW1 7092   2.396   2.442   3.919
 2358SOL    HW2 7093   2.240   2.393   3.922
 2359SOL     OW 7094   3.164   2.717   4.033
 2359SOL    HW1 7095   3.078   2.686   4.075
 2359SOL    HW2 7096   3.160   2.703   3.934
 2360SOL     OW 7097   3.621   3.609   4.878
 2360SOL    HW1 7098   3.682   3.639   4.805
 2360SOL    HW2 7099   3.583   3.520   4.856
 2361SOL     OW 7100   3.588   1.997   4.247
 2361SOL    HW1 7101   3.661   1.980   4.180
 2361SOL    HW2 7102   3.557   1.910   4.285
 2362SOL     OW 7103   3.250   3.435   4.201
 2362SOL    HW1 7104   3.317   3.447   4.127
 2362SOL    HW2 7105   3.210   3.524   4.224
 2363SOL     OW 7106   3.142   2.789   4.396
 2363SOL    HW1 7107   3.202   2.708   4.398
 2363SOL    HW2 7108   3.182   2.858   4.336
 2364SOL     OW 7109   2.534   3.478   3.878
 2364SOL    HW1 7110   2.543   3.488   3.779
 2364SOL    HW2 7111   2.494   3.389   3.899
 2365SOL     OW 7112   3.703   2.037   4.687
 2365SOL    HW1 7113   3.742   1.952   4.651
 2365SOL    HW2 7114   3.605   2.039   4.668
 2366SOL     OW 7115   2.125   2.188   4.444
 2366SOL    HW1 7116   2.046   2.239   4.410
 2366SOL    HW2 7117   2.116   2.173   4.542
 2367SOL     OW 7118   3.056   3.474   3.755
 2367SOL    HW1 7119   3.062   3.381   3.792
 2367SOL    HW2 7120   2.997   3.474   3.675
 2368SOL     OW 7121   2.778   2.772   4.015
 2368SOL    HW1 7122   2.841   2.810   3.947
 2368SOL    HW2 7123   2.818   2.689   4.054
 2369SOL     OW 7124   3.366   3.469   3.768
 2369SOL    HW1 7125   3.274   3.506   3.775
 2369SOL    HW2 7126   3.404   3.489   3.678
 2370SOL     OW 7127   2.901   2.960   4.420
 2370SOL    HW1 7128   2.831   2.913   4.474
 2370SOL    HW2 7129   2.960   2.892   4.377
 2371SOL     OW 7130   2.452   3.349   4.215
 2371SOL    HW1 7131   2.494   3.291   4.145
 2371SOL    HW2 7132   2.408   3.428   4.171
 2372SOL     OW 7133   2.117   3.210   4.014
 2372SOL    HW1 7134   2.021   3.211   3.987
 2372SOL    HW2 7135   2.129   3.263   4.098
 2373SOL     OW 7136   1.937   2.207   3.757
 2373SOL    HW1 7137   1.845   2.179   3.728
 2373SOL    HW2 7138   1.968   2.284   3.701
 2374SOL     OW 7139   1.934   2.028   4.042
 2374SOL    HW1 7140   1.917   2.111   3.988
 2374SOL    HW2 7141   2.024   1.991   4.020
 2375SOL     OW 7142   3.045   3.197   3.843
 2375SOL    HW1 7143   2.946   3.186   3.845
 2375SOL    HW2 7144   3.079   3.212   3.936
 2376SOL     OW 7145   3.536   2.745   4.978
 2376SOL    HW1 7146   3.509   2.656   4.941
 2376SOL    HW2 7147   3.537   2.813   4.905
 2377SOL     OW 7148   3.087   2.187   4.173
 2377SOL    HW1 7149   3.152   2.113   4.162
 2377SOL    HW2 7150   3.107   2.237   4.257
 2378SOL     OW 7151   2.456   2.607   4.376
 2378SOL    HW1 7152   2.506   2.692   4.357
 2378SOL    HW2 7153   2.368   2.609   4.328
 2379SOL     OW 7154   2.721   3.236   3.740
 2379SOL    HW1 7155   2.675   3.251   3.828
 2379SOL    HW2 7156   2.765   3.321   3.710
 2380SOL     OW 7157   2.523   3.652   4.677
 2380SOL    HW1 7158   2.477   3.740   4.664
 2380SOL    HW2 7159   2.622   3.664   4.670
 2381SOL     OW 7160   2.721   2.818   4.585
 2381SOL    HW1 7161   2.775   2.749   4.633
 2381SOL    HW2 7162   2.689   2.887   4.651
 2382SOL     OW 7163   2.945   2.846   3.811
 2382SOL    HW1 7164   2.922   2.899   3.729
 2382SOL    HW2 7165   3.026   2.790   3.792
 2383SOL     OW 7166   3.723   3.431   4.575
 2383SOL    HW1 7167   3.652   3.419   4.505
 2383SOL    HW2 7168   3.724   3.352   4.635
 2384SOL     OW 7169   1.941   3.102   4.377
 2384SOL    HW1 7170   1.940   3.055   4.465
 2384SOL    HW2 7171   2.023   3.074   4.326
 2385SOL     OW 7172   2.290   2.286   4.244
 2385SOL    HW1 7173   2.320   2.214   4.182
 2385SOL    HW2 7174   2.251   2.246   4.327
 2386SOL     OW 7175   2.674   3.448   4.411
 2386SOL    HW1 7176   2.706   3.458   4.317
 2386SOL    HW2 7177   2.595   3.386   4.413
 2387SOL     OW 7178   2.632   3.192   4.025
 2387SOL    HW1 7179   2.586   3.105   4.042
 2387SOL    HW2 7180   2.723   3.189   4.066
 2388SOL     OW 7181   3.214   1.914   3.892
 2388SOL    HW1 7182   3.249   1.873   3.808
 2388SOL    HW2 7183   3.124   1.876   3.912
 2389SOL     OW 7184   3.162   2.315   4.415
 2389SOL    HW1 7185   3.103   2.395   4.419
 2389SOL    HW2 7186   3.177   2.280   4.508
 2390SOL     OW 7187   3.455   2.083   4.606
 2390SOL    HW1 7188   3.371   2.082   4.660
 2390SOL    HW2 7189   3.457   2.166   4.550
 2391SOL     OW 7190   1.901   2.939   4.024
 2391SOL    HW1 7191   2.000   2.928   4.015
 2391SOL    HW2 7192   1.861   2.853   4.056
 2392SOL     OW 7193   2.737   3.508   4.061
 2392SOL    HW1 7194   2.660   3.473   4.007
 2392SOL    HW2 7195   2.705   3.579   4.123
 2393SOL     OW 7196   2.092   4.352   0.113
 2393SOL    HW1 7197   1.999   4.350   0.150
 2393SOL    HW2 7198   2.093   4.313   0.021
 2394SOL     OW 7199   2.087   3.999   0.996
 2394SOL    HW1 7200   2.122   3.982   1.088
 2394SOL    HW2 7201   1.999   3.954   0.984
 2395SOL     OW 7202   1.881   4.092   0.647
 2395SOL    HW1 7203   1.799   4.135   0.686
 2395SOL    HW2 7204   1.853   4.019   0.584
 2396SOL     OW 7205   2.997   4.427   0.717
 2396SOL    HW1 7206   3.054   4.505   0.692
 2396SOL    HW2 7207   2.937   4.453   0.793
 2397SOL     OW 7208   3.617   4.331   0.231
 2397SOL    HW1 7209   3.605   4.318   0.132
 2397SOL    HW2 7210   3.587   4.250   0.280
 2398SOL     OW 7211   2.712   4.522   1.823
 2398SOL    HW1 7212   2.708   4.598   1.888
 2398SOL    HW2 7213   2.734   4.558   1.732
 2399SOL     OW 7214   2.547   4.736   0.665
 2399SOL    HW1 7215   2.616   4.720   0.735
 2399SOL    HW2 7216   2.474   4.793   0.703
 2400SOL     OW 7217   2.300   4.116   1.499
 2400SOL    HW1 7218   2.382   4.060   1.508
 2400SOL    HW2 7219   2.219   4.058   1.503
 2401SOL     OW 7220   3.465   4.171   0.737
 2401SOL    HW1 7221   3.391   4.217   0.687
 2401SOL    HW2 7222   3.516   4.239   0.790
 2402SOL     OW 7223   3.456   3.838   1.480
 2402SOL    HW1 7224   3.438   3.905   1.408
 2402SOL    HW2 7225   3.453   3.884   1.569
 2403SOL     OW 7226   1.984   4.367   0.563
 2403SOL    HW1 7227   1.939   4.279   0.580
 2403SOL    HW2 7228   1.983   4.421   0.647
 2404SOL     OW 7229   1.975   4.461   1.597
 2404SOL    HW1 7230   2.063   4.448   1.642
 2404SOL    HW2 7231   1.962   4.558   1.575
 2405SOL     OW 7232   2.671   3.728   0.502
 2405SOL    HW1 7233   2.711   3.819   0.493
 2405SOL    HW2 7234   2.571   3.736   0.508
 2406SOL     OW 7235   3.387   4.723   0.190
 2406SOL    HW1 7236   3.324   4.647   0.203
 2406SOL    HW2 7237   3.435   4.741   0.276
 2407SOL     OW 7238   2.179   3.975   1.801
 2407SOL    HW1 7239   2.250   4.046   1.807
 2407SOL    HW2 7240   2.091   4.014   1.829
 2408SOL     OW 7241   2.460   4.453   0.270
 2408SOL    HW1 7242   2.484   4.522   0.202
 2408SOL    HW2 7243   2.382   4.486   0.324
 2409SOL     OW 7244   3.143   4.069   0.944
 2409SOL    HW1 7245   3.057   4.019   0.931
 2409SOL    HW2 7246   3.205   4.015   1.000
 2410SOL     OW 7247   2.669   4.329   1.465
 2410SOL    HW1 7248   2.622   4.326   1.554
 2410SOL    HW2 7249   2.618   4.274   1.399
 2411SOL     OW 7250   3.256   4.193   1.674
 2411SOL    HW1 7251   3.236   4.236   1.762
 2411SOL    HW2 7252   3.334   4.131   1.683
 2412SOL     OW 7253   2.835   4.614   1.572
 2412SOL    HW1 7254   2.881   4.530   1.543
 2412SOL    HW2 7255   2.779   4.648   1.497
 2413SOL     OW 7256   2.853   4.134   1.242
 2413SOL    HW1 7257   2.776   4.168   1.296
 2413SOL    HW2 7258   2.819   4.083   1.163
 2414SOL     OW 7259   2.903   4.425   0.429
 2414SOL    HW1 7260   2.929   4.421   0.525
 2414SOL    HW2 7261   2.818   4.374   0.415
 2415SOL     OW 7262   1.938   4.535   0.789
 2415SOL    HW1 7263   2.037   4.523   0.798
 2415SOL    HW2 7264   1.914   4.630   0.810
 2416SOL     OW 7265   2.727   4.072   0.195
 2416SOL    HW1 7266   2.786   4.135   0.146
 2416SOL    HW2 7267   2.746   3.978   0.166
 2417SOL     OW 7268   3.581   4.309   1.831
 2417SOL    HW1 7269   3.555   4.398   1.795
 2417SOL    HW2 7270   3.579   4.241   1.758
 2418SOL     OW 7271   2.412   3.920   0.885
 2418SOL    HW1 7272   2.407   3.915   0.985
 2418SOL    HW2 7273   2.414   4.016   0.856
 2419SOL     OW 7274   3.320   4.459   0.728
 2419SOL    HW1 7275   3.315   4.394   0.803
 2419SOL    HW2 7276   3.400   4.518   0.741
 2420SOL     OW 7277   2.064   4.009   1.498
 2420SOL    HW1 7278   1.984   4.069   1.485
 2420SOL    HW2 7279   2.054   3.960   1.584
 2421SOL     OW 7280   3.262   3.831   0.426
 2421SOL    HW1 7281   3.238   3.794   0.336
 2421SOL    HW2 7282   3.361   3.847   0.430
 2422SOL     OW 7283   2.244   4.424   0.480
 2422SOL    HW1 7284   2.289   4.334   0.477
 2422SOL    HW2 7285   2.150   4.413   0.513
 2423SOL     OW 7286   3.409   3.946   1.729
 2423SOL    HW1 7287   3.404   3.983   1.821
 2423SOL    HW2 7288   3.337   3.877   1.717
 2424SOL     OW 7289   2.643   3.988   1.749
 2424SOL    HW1 7290   2.710   3.927   1.792
 2424SOL    HW2 7291   2.570   4.007   1.814
 2425SOL     OW 7292   3.213   4.314   1.433
 2425SOL    HW1 7293   3.241   4.271   1.518
 2425SOL    HW2 7294   3.238   4.410   1.434
 2426SOL     OW 7295   2.784   4.227   0.899
 2426SOL    HW1 7296   2.759   4.218   0.803
 2426SOL    HW2 7297   2.832   4.145   0.930
 2427SOL     OW 7298   2.401   3.788   0.512
 2427SOL    HW1 7299   2.320   3.789   0.570
 2427SOL    HW2 7300   2.404   3.871   0.457
 2428SOL     OW 7301   2.159   3.759   0.171
 2428SOL    HW1 7302   2.208   3.843   0.150
 2428SOL    HW2 7303   2.221   3.694   0.216
 2429SOL     OW 7304   2.797   3.960   0.480
 2429SOL    HW1 7305   2.749   4.001   0.402
 2429SOL    HW2 7306   2.896   3.958   0.461
 2430SOL     OW 7307   2.938   4.407   1.464
 2430SOL    HW1 7308   2.858   4.346   1.467
 2430SOL    HW2 7309   3.019   4.354   1.440
 2431SOL     OW 7310   2.894   4.273   0.016
 2431SOL    HW1 7311   2.853   4.355  -0.023
 2431SOL    HW2 7312   2.958   4.299   0.089
 2432SOL     OW 7313   1.940   4.280   1.386
 2432SOL    HW1 7314   2.032   4.279   1.345
 2432SOL    HW2 7315   1.934   4.354   1.453
 2433SOL     OW 7316   2.423   3.946   1.147
 2433SOL    HW1 7317   2.461   3.862   1.184
 2433SOL    HW2 7318   2.335   3.965   1.191
 2434SOL     OW 7319   2.728   4.178   0.642
 2434SOL    HW1 7320   2.696   4.250   0.580
 2434SOL    HW2 7321   2.752   4.097   0.589
 2435SOL     OW 7322   2.879   3.763   0.753
 2435SOL    HW1 7323   2.807   3.768   0.684
 2435SOL    HW2 7324   2.855   3.694   0.822
 2436SOL     OW 7325   3.328   4.314   0.992
 2436SOL    HW1 7326   3.298   4.219   0.999
 2436SOL    HW2 7327   3.401   4.330   1.058
 2437SOL     OW 7328   3.719   4.557   0.377
 2437SOL    HW1 7329   3.761   4.493   0.441
 2437SOL    HW2 7330   3.681   4.506   0.299
 2438SOL     OW 7331   3.252   4.299   0.078
 2438SOL    HW1 7332   3.198   4.278   0.159
 2438SOL    HW2 7333   3.343   4.258   0.087
 2439SOL     OW 7334   2.389   3.980   0.328
 2439SOL    HW1 7335   2.416   3.921   0.253
 2439SOL    HW2 7336   2.389   4.075   0.297
 2440SOL     OW 7337   3.500   4.823   1.079
 2440SOL    HW1 7338   3.505   4.904   1.138
 2440SOL    HW2 7339   3.414   4.825   1.028
 2441SOL     OW 7340   2.777   3.813   1.402
 2441SOL    HW1 7341   2.802   3.793   1.307
 2441SOL    HW2 7342   2.849   3.869   1.444
 2442SOL     OW 7343   2.272   4.537   1.251
 2442SOL    HW1 7344   2.358   4.549   1.301
 2442SOL    HW2 7345   2.230   4.450   1.278
 2443SOL     OW 7346   3.136   4.110   1.262
 2443SOL    HW1 7347   3.157   4.184   1.326
 2443SOL    HW2 7348   3.047   4.127   1.219
 2444SOL     OW 7349   2.428   4.261   0.865
 2444SOL    HW1 7350   2.440   4.327   0.791
 2444SOL    HW2 7351   2.474   4.295   0.948
 2445SOL     OW 7352   3.444   4.363   0.472
 2445SOL    HW1 7353   3.413   4.424   0.545
 2445SOL    HW2 7354   3.494   4.415   0.403
 2446SOL     OW 7355   2.264   4.475   1.598
 2446SOL    HW1 7356   2.332   4.530   1.551
 2446SOL    HW2 7357   2.304   4.387   1.625
 2447SOL     OW 7358   3.449   4.503   1.670
 2447SOL    HW1 7359   3.357   4.541   1.665
 2447SOL    HW2 7360   3.509   4.550   1.605
 2448SOL     OW 7361   2.875   3.829   1.770
 2448SOL    HW1 7362   2.881   3.914   1.718
 2448SOL    HW2 7363   2.907   3.753   1.713
 2449SOL     OW 7364   2.366   3.774   1.740
 2449SOL    HW1 7365   2.324   3.717   1.670
 2449SOL    HW2 7366   2.300   3.843   1.772
 2450SOL     OW 7367   2.435   4.594   1.029
 2450SOL    HW1 7368   2.479   4.683   1.020
 2450SOL    HW2 7369   2.372   4.594   1.106
 2451SOL     OW 7370   3.222   4.586   1.045
 2451SOL    HW1 7371   3.147   4.586   0.979
 2451SOL    HW2 7372   3.259   4.494   1.054
 2452SOL     OW 7373   3.071   4.249   0.275
 2452SOL    HW1 7374   3.084   4.165   0.329
 2452SOL    HW2 7375   3.042   4.323   0.335
 2453SOL     OW 7376   2.169   3.937   1.231
 2453SOL    HW1 7377   2.146   3.974   1.321
 2453SOL    HW2 7378   2.139   3.842   1.225
 2454SOL     OW 7379   2.594   4.358   1.064
 2454SOL    HW1 7380   2.653   4.332   0.988
 2454SOL    HW2 7381   2.566   4.454   1.053
 2455SOL     OW 7382   3.590   4.659   1.854
 2455SOL    HW1 7383   3.544   4.652   1.765
 2455SOL    HW2 7384   3.528   4.703   1.920
 2456SOL     OW 7385   2.169   3.787   0.618
 2456SOL    HW1 7386   2.158   3.881   0.651
 2456SOL    HW2 7387   2.164   3.724   0.695
 2457SOL     OW 7388   3.484   4.091   0.374
 2457SOL    HW1 7389   3.486   4.015   0.438
 2457SOL    HW2 7390   3.436   4.168   0.414
 2458SOL     OW 7391   2.885   4.490   0.966
 2458SOL    HW1 7392   2.900   4.511   1.062
 2458SOL    HW2 7393   2.855   4.395   0.957
 2459SOL     OW 7394   2.212   4.622   1.804
 2459SOL    HW1 7395   2.288   4.666   1.852
 2459SOL    HW2 7396   2.247   4.575   1.722
 2460SOL     OW 7397   3.402   3.998   0.125
 2460SOL    HW1 7398   3.341   3.923   0.148
 2460SOL    HW2 7399   3.424   4.050   0.208
 2461SOL     OW 7400   3.165   4.562   0.042
 2461SOL    HW1 7401   3.199   4.469   0.057
 2461SOL    HW2 7402   3.183   4.589  -0.053
 2462SOL     OW 7403   2.181   4.534   0.949
 2462SOL    HW1 7404   2.274   4.570   0.954
 2462SOL    HW2 7405   2.175   4.449   1.001
 2463SOL     OW 7406   2.201   4.233   1.006
 2463SOL    HW1 7407   2.149   4.150   0.989
 2463SOL    HW2 7408   2.278   4.238   0.942
 2464SOL     OW 7409   3.000   4.104   1.678
 2464SOL    HW1 7410   2.955   4.167   1.742
 2464SOL    HW2 7411   3.093   4.135   1.661
 2465SOL     OW 7412   3.022   3.931   1.477
 2465SOL    HW1 7413   3.022   3.995   1.554
 2465SOL    HW2 7414   3.050   3.979   1.394
 2466SOL     OW 7415   2.864   4.520   1.238
 2466SOL    HW1 7416   2.905   4.488   1.324
 2466SOL    HW2 7417   2.768   4.493   1.235
 2467SOL     OW 7418   1.902   4.268   1.114
 2467SOL    HW1 7419   1.987   4.235   1.073
 2467SOL    HW2 7420   1.915   4.283   1.212
 2468SOL     OW 7421   2.051   4.244   1.722
 2468SOL    HW1 7422   2.110   4.204   1.652
 2468SOL    HW2 7423   1.993   4.315   1.681
 2469SOL     OW 7424   2.677   4.296   0.325
 2469SOL    HW1 7425   2.684   4.207   0.279
 2469SOL    HW2 7426   2.583   4.330   0.317
 2470SOL     OW 7427   3.519   4.328   1.206
 2470SOL    HW1 7428   3.481   4.259   1.268
 2470SOL    HW2 7429   3.601   4.292   1.162
 2471SOL     OW 7430   2.533   4.188   1.269
 2471SOL    HW1 7431   2.499   4.099   1.239
 2471SOL    HW2 7432   2.559   4.242   1.189
 2472SOL     OW 7433   2.335   4.224   0.191
 2472SOL    HW1 7434   2.396   4.304   0.195
 2472SOL    HW2 7435   2.240   4.255   0.198
 2473SOL     OW 7436   3.209   4.783   1.234
 2473SOL    HW1 7437   3.233   4.720   1.160
 2473SOL    HW2 7438   3.119   4.823   1.216
 2474SOL     OW 7439   3.164   4.579   0.309
 2474SOL    HW1 7440   3.078   4.548   0.351
 2474SOL    HW2 7441   3.160   4.565   0.210
 2475SOL     OW 7442   2.765   3.810   0.133
 2475SOL    HW1 7443   2.816   3.811   0.047
 2475SOL    HW2 7444   2.821   3.768   0.204
 2476SOL     OW 7445   3.588   3.859   0.523
 2476SOL    HW1 7446   3.661   3.842   0.456
 2476SOL    HW2 7447   3.557   3.772   0.561
 2477SOL     OW 7448   3.142   4.651   0.672
 2477SOL    HW1 7449   3.202   4.570   0.674
 2477SOL    HW2 7450   3.182   4.720   0.612
 2478SOL     OW 7451   3.703   3.899   0.963
 2478SOL    HW1 7452   3.742   3.814   0.927
 2478SOL    HW2 7453   3.605   3.901   0.944
 2479SOL     OW 7454   2.125   4.050   0.720
 2479SOL    HW1 7455   2.046   4.101   0.686
 2479SOL    HW2 7456   2.116   4.035   0.818
 2480SOL     OW 7457   2.876   3.960   0.971
 2480SOL    HW1 7458   2.868   3.924   0.878
 2480SOL    HW2 7459   2.874   3.884   1.036
 2481SOL     OW 7460   3.571   4.109   1.381
 2481SOL    HW1 7461   3.644   4.178   1.385
 2481SOL    HW2 7462   3.599   4.034   1.322
 2482SOL     OW 7463   1.967   4.737   1.726
 2482SOL    HW1 7464   1.890   4.704   1.780
 2482SOL    HW2 7465   2.052   4.707   1.768
 2483SOL     OW 7466   2.534   3.927   1.489
 2483SOL    HW1 7467   2.624   3.911   1.449
 2483SOL    HW2 7468   2.542   3.932   1.588
 2484SOL     OW 7469   3.302   4.580   1.398
 2484SOL    HW1 7470   3.245   4.632   1.335
 2484SOL    HW2 7471   3.398   4.592   1.374
 2485SOL     OW 7472   1.934   3.890   0.318
 2485SOL    HW1 7473   1.917   3.973   0.264
 2485SOL    HW2 7474   2.024   3.853   0.296
 2486SOL     OW 7475   2.475   4.566   1.431
 2486SOL    HW1 7476   2.531   4.647   1.414
 2486SOL    HW2 7477   2.534   4.486   1.434
 2487SOL     OW 7478   2.578   4.289   1.708
 2487SOL    HW1 7479   2.597   4.354   1.782
 2487SOL    HW2 7480   2.638   4.209   1.717
 2488SOL     OW 7481   3.536   4.607   1.254
 2488SOL    HW1 7482   3.509   4.518   1.217
 2488SOL    HW2 7483   3.537   4.675   1.181
 2489SOL     OW 7484   3.087   4.049   0.449
 2489SOL    HW1 7485   3.152   3.975   0.438
 2489SOL    HW2 7486   3.107   4.099   0.533
 2490SOL     OW 7487   2.456   4.469   0.652
 2490SOL    HW1 7488   2.506   4.554   0.633
 2490SOL    HW2 7489   2.368   4.471   0.604
 2491SOL     OW 7490   3.639   4.066   1.642
 2491SOL    HW1 7491   3.622   4.097   1.548
 2491SOL    HW2 7492   3.555   4.029   1.680
 2492SOL     OW 7493   3.592   4.658   1.517
 2492SOL    HW1 7494   3.630   4.749   1.532
 2492SOL    HW2 7495   3.584   4.641   1.418
 2493SOL     OW 7496   3.686   3.916   1.227
 2493SOL    HW1 7497   3.682   3.826   1.271
 2493SOL    HW2 7498   3.689   3.905   1.128
 2494SOL     OW 7499   2.290   4.148   0.520
 2494SOL    HW1 7500   2.320   4.076   0.458
 2494SOL    HW2 7501   2.251   4.108   0.603
 2495SOL     OW 7502   2.179   4.271   1.280
 2495SOL    HW1 7503   2.217   4.212   1.352
 2495SOL    HW2 7504   2.219   4.245   1.192
 2496SOL     OW 7505   3.286   3.938   1.112
 2496SOL    HW1 7506   3.338   3.873   1.167
 2496SOL    HW2 7507   3.237   4.001   1.173
 2497SOL     OW 7508   2.863   3.758   1.154
 2497SOL    HW1 7509   2.800   3.686   1.123
 2497SOL    HW2 7510   2.956   3.722   1.154
 2498SOL     OW 7511   3.214   3.776   0.168
 2498SOL    HW1 7512   3.249   3.735   0.084
 2498SOL    HW2 7513   3.124   3.738   0.188
 2499SOL     OW 7514   3.162   4.177   0.691
 2499SOL    HW1 7515   3.103   4.257   0.695
 2499SOL    HW2 7516   3.177   4.142   0.784
 2500SOL     OW 7517   3.455   3.945   0.882
 2500SOL    HW1 7518   3.371   3.944   0.936
 2500SOL    HW2 7519   3.457   4.028   0.826
 2501SOL     OW 7520   2.092   4.352   1.975
 2501SOL    HW1 7521   1.999   4.350   2.012
 2501SOL    HW2 7522   2.093   4.313   1.883
 2502SOL     OW 7523   2.087   3.999   2.858
 2502SOL    HW1 7524   2.122   3.982   2.950
 2502SOL    HW2 7525   1.999   3.954   2.846
 2503SOL     OW 7526   1.881   4.092   2.509
 2503SOL    HW1 7527   1.799   4.135   2.548
 2503SOL    HW2 7528   1.853   4.019   2.446
 2504SOL     OW 7529   2.997   4.427   2.579
 2504SOL    HW1 7530   3.054   4.505   2.554
 2504SOL    HW2 7531   2.937   4.453   2.655
 2505SOL     OW 7532   3.617   4.331   2.093
 2505SOL    HW1 7533   3.605   4.318   1.994
 2505SOL    HW2 7534   3.587   4.250   2.142
 2506SOL     OW 7535   2.712   4.522   3.685
 2506SOL    HW1 7536   2.708   4.598   3.750
 2506SOL    HW2 7537   2.734   4.558   3.594
 2507SOL     OW 7538   2.547   4.736   2.527
 2507SOL    HW1 7539   2.616   4.720   2.597
 2507SOL    HW2 7540   2.474   4.793   2.565
 2508SOL     OW 7541   2.300   4.116   3.361
 2508SOL    HW1 7542   2.382   4.060   3.370
 2508SOL    HW2 7543   2.219   4.058   3.365
 2509SOL     OW 7544   3.465   4.171   2.599
 2509SOL    HW1 7545   3.391   4.217   2.549
 2509SOL    HW2 7546   3.516   4.239   2.652
 2510SOL     OW 7547   3.456   3.838   3.342
 2510SOL    HW1 7548   3.438   3.905   3.270
 2510SOL    HW2 7549   3.453   3.884   3.431
 2511SOL     OW 7550   1.984   4.367   2.425
 2511SOL    HW1 7551   1.939   4.279   2.442
 2511SOL    HW2 7552   1.983   4.421   2.509
 2512SOL     OW 7553   1.975   4.461   3.459
 2512SOL    HW1 7554   2.063   4.448   3.504
 2512SOL    HW2 7555   1.962   4.558   3.437
 2513SOL     OW 7556   2.671   3.728   2.364
 2513SOL    HW1 7557   2.711   3.819   2.355
 2513SOL    HW2 7558   2.571   3.736   2.370
 2514SOL     OW 7559   3.387   4.723   2.052
 2514SOL    HW1 7560   3.324   4.647   2.065
 2514SOL    HW2 7561   3.435   4.741   2.138
 2515SOL     OW 7562   2.179   3.975   3.663
 2515SOL    HW1 7563   2.250   4.046   3.669
 2515SOL    HW2 7564   2.091   4.014   3.691
 2516SOL     OW 7565   2.460   4.453   2.132
 2516SOL    HW1 7566   2.484   4.522   2.064
 2516SOL    HW2 7567   2.382   4.486   2.186
 2517SOL     OW 7568   3.143   4.069   2.806
 2517SOL    HW1 7569   3.057   4.019   2.793
 2517SOL    HW2 7570   3.205   4.015   2.862
 2518SOL     OW 7571   2.669   4.329   3.327
 2518SOL    HW1 7572   2.622   4.326   3.416
 2518SOL    HW2 7573   2.618   4.274   3.261
 2519SOL     OW 7574   3.256   4.193   3.536
 2519SOL    HW1 7575   3.236   4.236   3.624
 2519SOL    HW2 7576   3.334   4.131   3.545
 2520SOL     OW 7577   2.835   4.614   3.434
 2520SOL    HW1 7578   2.881   4.530   3.405
 2520SOL    HW2 7579   2.779   4.648   3.359
 2521SOL     OW 7580   2.853   4.134   3.104
 2521SOL    HW1 7581   2.776   4.168   3.158
 2521SOL    HW2 7582   2.819   4.083   3.025
 2522SOL     OW 7583   2.903   4.425   2.291
 2522SOL    HW1 7584   2.929   4.421   2.387
 2522SOL    HW2 7585   2.818   4.374   2.277
 2523SOL     OW 7586   1.938   4.535   2.651
 2523SOL    HW1 7587   2.037   4.523   2.660
 2523SOL    HW2 7588   1.914   4.630   2.672
 2524SOL     OW 7589   2.727   4.072   2.057
 2524SOL    HW1 7590   2.786   4.135   2.008
 2524SOL    HW2 7591   2.746   3.978   2.028
 2525SOL     OW 7592   3.581   4.309   3.693
 2525SOL    HW1 7593   3.555   4.398   3.657
 2525SOL    HW2 7594   3.579   4.241   3.620
 2526SOL     OW 7595   2.412   3.920   2.747
 2526SOL    HW1 7596   2.407   3.915   2.847
 2526SOL    HW2 7597   2.414   4.016   2.718
 2527SOL     OW 7598   3.320   4.459   2.590
 2527SOL    HW1 7599   3.315   4.394   2.665
 2527SOL    HW2 7600   3.400   4.518   2.603
 2528SOL     OW 7601   2.064   4.009   3.360
 2528SOL    HW1 7602   1.984   4.069   3.347
 2528SOL    HW2 7603   2.054   3.960   3.446
 2529SOL     OW 7604   3.262   3.831   2.288
 2529SOL    HW1 7605   3.238   3.794   2.198
 2529SOL    HW2 7606   3.361   3.847   2.292
 2530SOL     OW 7607   2.244   4.424   2.342
 2530SOL    HW1 7608   2.289   4.334   2.339
 2530SOL    HW2 7609   2.150   4.413   2.375
 2531SOL     OW 7610   3.409   3.946   3.591
 2531SOL    HW1 7611   3.404   3.983   3.683
 2531SOL    HW2 7612   3.337   3.877   3.579
 2532SOL     OW 7613   2.476   3.846   1.979
 2532SOL    HW1 7614   2.574   3.824   1.986
 2532SOL    HW2 7615   2.445   3.829   1.886
 2533SOL     OW 7616   2.643   3.988   3.611
 2533SOL    HW1 7617   2.710   3.927   3.654
 2533SOL    HW2 7618   2.570   4.007   3.676
 2534SOL     OW 7619   3.213   4.314   3.295
 2534SOL    HW1 7620   3.241   4.271   3.380
 2534SOL    HW2 7621   3.238   4.410   3.296
 2535SOL     OW 7622   2.784   4.227   2.761
 2535SOL    HW1 7623   2.759   4.218   2.665
 2535SOL    HW2 7624   2.832   4.145   2.792
 2536SOL     OW 7625   2.401   3.788   2.374
 2536SOL    HW1 7626   2.320   3.789   2.432
 2536SOL    HW2 7627   2.404   3.871   2.319
 2537SOL     OW 7628   2.159   3.759   2.033
 2537SOL    HW1 7629   2.208   3.843   2.012
 2537SOL    HW2 7630   2.221   3.694   2.078
 2538SOL     OW 7631   2.797   3.960   2.342
 2538SOL    HW1 7632   2.749   4.001   2.264
 2538SOL    HW2 7633   2.896   3.958   2.323
 2539SOL     OW 7634   2.938   4.407   3.326
 2539SOL    HW1 7635   2.858   4.346   3.329
 2539SOL    HW2 7636   3.019   4.354   3.302
 2540SOL     OW 7637   2.894   4.273   1.878
 2540SOL    HW1 7638   2.853   4.355   1.839
 2540SOL    HW2 7639   2.958   4.299   1.951
 2541SOL     OW 7640   1.940   4.280   3.248
 2541SOL    HW1 7641   2.032   4.279   3.207
 2541SOL    HW2 7642   1.934   4.354   3.315
 2542SOL     OW 7643   2.423   3.946   3.009
 2542SOL    HW1 7644   2.461   3.862   3.046
 2542SOL    HW2 7645   2.335   3.965   3.053
 2543SOL     OW 7646   2.728   4.178   2.504
 2543SOL    HW1 7647   2.696   4.250   2.442
 2543SOL    HW2 7648   2.752   4.097   2.451
 2544SOL     OW 7649   2.879   3.763   2.615
 2544SOL    HW1 7650   2.807   3.768   2.546
 2544SOL    HW2 7651   2.855   3.694   2.684
 2545SOL     OW 7652   3.328   4.314   2.854
 2545SOL    HW1 7653   3.298   4.219   2.861
 2545SOL    HW2 7654   3.401   4.330   2.920
 2546SOL     OW 7655   3.719   4.557   2.239
 2546SOL    HW1 7656   3.761   4.493   2.303
 2546SOL    HW2 7657   3.681   4.506   2.161
 2547SOL     OW 7658   3.252   4.299   1.940
 2547SOL    HW1 7659   3.198   4.278   2.021
 2547SOL    HW2 7660   3.343   4.258   1.949
 2548SOL     OW 7661   2.389   3.980   2.190
 2548SOL    HW1 7662   2.416   3.921   2.115
 2548SOL    HW2 7663   2.389   4.075   2.159
 2549SOL     OW 7664   3.500   4.823   2.941
 2549SOL    HW1 7665   3.505   4.904   3.000
 2549SOL    HW2 7666   3.414   4.825   2.890
 2550SOL     OW 7667   2.777   3.813   3.264
 2550SOL    HW1 7668   2.802   3.793   3.169
 2550SOL    HW2 7669   2.849   3.869   3.306
 2551SOL     OW 7670   2.272   4.537   3.113
 2551SOL    HW1 7671   2.358   4.549   3.163
 2551SOL    HW2 7672   2.230   4.450   3.140
 2552SOL     OW 7673   3.136   4.110   3.124
 2552SOL    HW1 7674   3.157   4.184   3.188
 2552SOL    HW2 7675   3.047   4.127   3.081
 2553SOL     OW 7676   2.428   4.261   2.727
 2553SOL    HW1 7677   2.440   4.327   2.653
 2553SOL    HW2 7678   2.474   4.295   2.810
 2554SOL     OW 7679   3.444   4.363   2.334
 2554SOL    HW1 7680   3.413   4.424   2.407
 2554SOL    HW2 7681   3.494   4.415   2.265
 2555SOL     OW 7682   2.264   4.475   3.460
 2555SOL    HW1 7683   2.332   4.530   3.413
 2555SOL    HW2 7684   2.304   4.387   3.487
 2556SOL     OW 7685   3.449   4.503   3.532
 2556SOL    HW1 7686   3.357   4.541   3.527
 2556SOL    HW2 7687   3.509   4.550   3.467
 2557SOL     OW 7688   2.875   3.829   3.632
 2557SOL    HW1 7689   2.881   3.914   3.580
 2557SOL    HW2 7690   2.907   3.753   3.575
 2558SOL     OW 7691   2.366   3.774   3.602
 2558SOL    HW1 7692   2.324   3.717   3.532
 2558SOL    HW2 7693   2.300   3.843   3.634
 2559SOL     OW 7694   2.435   4.594   2.891
 2559SOL    HW1 7695   2.479   4.683   2.882
 2559SOL    HW2 7696   2.372   4.594   2.968
 2560SOL     OW 7697   3.222   4.586   2.907
 2560SOL    HW1 7698   3.147   4.586   2.841
 2560SOL    HW2 7699   3.259   4.494   2.916
 2561SOL     OW 7700   3.071   4.249   2.137
 2561SOL    HW1 7701   3.084   4.165   2.191
 2561SOL    HW2 7702   3.042   4.323   2.197
 2562SOL     OW 7703   2.169   3.937   3.093
 2562SOL    HW1 7704   2.146   3.974   3.183
 2562SOL    HW2 7705   2.139   3.842   3.087
 2563SOL     OW 7706   2.594   4.358   2.926
 2563SOL    HW1 7707   2.653   4.332   2.850
 2563SOL    HW2 7708   2.566   4.454   2.915
 2564SOL     OW 7709   3.590   4.659   3.716
 2564SOL    HW1 7710   3.544   4.652   3.627
 2564SOL    HW2 7711   3.528   4.703   3.782
 2565SOL     OW 7712   2.169   3.787   2.480
 2565SOL    HW1 7713   2.158   3.881   2.513
 2565SOL    HW2 7714   2.164   3.724   2.557
 2566SOL     OW 7715   3.484   4.091   2.236
 2566SOL    HW1 7716   3.486   4.015   2.300
 2566SOL    HW2 7717   3.436   4.168   2.276
 2567SOL     OW 7718   2.885   4.490   2.828
 2567SOL    HW1 7719   2.900   4.511   2.924
 2567SOL    HW2 7720   2.855   4.395   2.819
 2568SOL     OW 7721   2.212   4.622   3.666
 2568SOL    HW1 7722   2.288   4.666   3.714
 2568SOL    HW2 7723   2.247   4.575   3.584
 2569SOL     OW 7724   3.402   3.998   1.987
 2569SOL    HW1 7725   3.341   3.923   2.010
 2569SOL    HW2 7726   3.424   4.050   2.070
 2570SOL     OW 7727   3.165   4.562   1.904
 2570SOL    HW1 7728   3.199   4.469   1.919
 2570SOL    HW2 7729   3.183   4.589   1.809
 2571SOL     OW 7730   2.181   4.534   2.811
 2571SOL    HW1 7731   2.274   4.570   2.816
 2571SOL    HW2 7732   2.175   4.449   2.863
 2572SOL     OW 7733   2.201   4.233   2.868
 2572SOL    HW1 7734   2.149   4.150   2.851
 2572SOL    HW2 7735   2.278   4.238   2.804
 2573SOL     OW 7736   3.000   4.104   3.540
 2573SOL    HW1 7737   2.955   4.167   3.604
 2573SOL    HW2 7738   3.093   4.135   3.523
 2574SOL     OW 7739   3.022   3.931   3.339
 2574SOL    HW1 7740   3.022   3.995   3.416
 2574SOL    HW2 7741   3.050   3.979   3.256
 2575SOL     OW 7742   2.864   4.520   3.100
 2575SOL    HW1 7743   2.905   4.488   3.186
 2575SOL    HW2 7744   2.768   4.493   3.097
 2576SOL     OW 7745   1.902   4.268   2.976
 2576SOL    HW1 7746   1.987   4.235   2.935
 2576SOL    HW2 7747   1.915   4.283   3.074
 2577SOL     OW 7748   2.051   4.244   3.584
 2577SOL    HW1 7749   2.110   4.204   3.514
 2577SOL    HW2 7750   1.993   4.315   3.543
 2578SOL     OW 7751   2.677   4.296   2.187
 2578SOL    HW1 7752   2.684   4.207   2.141
 2578SOL    HW2 7753   2.583   4.330   2.179
 2579SOL     OW 7754   3.519   4.328   3.068
 2579SOL    HW1 7755   3.481   4.259   3.130
 2579SOL    HW2 7756   3.601   4.292   3.024
 2580SOL     OW 7757   2.533   4.188   3.131
 2580SOL    HW1 7758   2.499   4.099   3.101
 2580SOL    HW2 7759   2.559   4.242   3.051
 2581SOL     OW 7760   2.335   4.224   2.053
 2581SOL    HW1 7761   2.396   4.304   2.057
 2581SOL    HW2 7762   2.240   4.255   2.060
 2582SOL     OW 7763   3.209   4.783   3.096
 2582SOL    HW1 7764   3.233   4.720   3.022
 2582SOL    HW2 7765   3.119   4.823   3.078
 2583SOL     OW 7766   3.164   4.579   2.171
 2583SOL    HW1 7767   3.078   4.548   2.213
 2583SOL    HW2 7768   3.160   4.565   2.072
 2584SOL     OW 7769   3.588   3.859   2.385
 2584SOL    HW1 7770   3.661   3.842   2.318
 2584SOL    HW2 7771   3.557   3.772   2.423
 2585SOL     OW 7772   3.142   4.651   2.534
 2585SOL    HW1 7773   3.202   4.570   2.536
 2585SOL    HW2 7774   3.182   4.720   2.474
 2586SOL     OW 7775   3.703   3.899   2.825
 2586SOL    HW1 7776   3.742   3.814   2.789
 2586SOL    HW2 7777   3.605   3.901   2.806
 2587SOL     OW 7778   2.125   4.050   2.582
 2587SOL    HW1 7779   2.046   4.101   2.548
 2587SOL    HW2 7780   2.116   4.035   2.680
 2588SOL     OW 7781   2.778   4.634   2.153
 2588SOL    HW1 7782   2.841   4.672   2.085
 2588SOL    HW2 7783   2.818   4.551   2.192
 2589SOL     OW 7784   2.876   3.960   2.833
 2589SOL    HW1 7785   2.868   3.924   2.740
 2589SOL    HW2 7786   2.874   3.884   2.898
 2590SOL     OW 7787   3.571   4.109   3.243
 2590SOL    HW1 7788   3.644   4.178   3.247
 2590SOL    HW2 7789   3.599   4.034   3.184
 2591SOL     OW 7790   1.967   4.737   3.588
 2591SOL    HW1 7791   1.890   4.704   3.642
 2591SOL    HW2 7792   2.052   4.707   3.630
 2592SOL     OW 7793   2.534   3.927   3.351
 2592SOL    HW1 7794   2.624   3.911   3.311
 2592SOL    HW2 7795   2.542   3.932   3.450
 2593SOL     OW 7796   1.937   4.069   1.895
 2593SOL    HW1 7797   1.845   4.041   1.866
 2593SOL    HW2 7798   1.968   4.146   1.839
 2594SOL     OW 7799   3.302   4.580   3.260
 2594SOL    HW1 7800   3.245   4.632   3.197
 2594SOL    HW2 7801   3.398   4.592   3.236
 2595SOL     OW 7802   1.934   3.890   2.180
 2595SOL    HW1 7803   1.917   3.973   2.126
 2595SOL    HW2 7804   2.024   3.853   2.158
 2596SOL     OW 7805   2.475   4.566   3.293
 2596SOL    HW1 7806   2.531   4.647   3.276
 2596SOL    HW2 7807   2.534   4.486   3.296
 2597SOL     OW 7808   2.578   4.289   3.570
 2597SOL    HW1 7809   2.597   4.354   3.644
 2597SOL    HW2 7810   2.638   4.209   3.579
 2598SOL     OW 7811   3.536   4.607   3.116
 2598SOL    HW1 7812   3.509   4.518   3.079
 2598SOL    HW2 7813   3.537   4.675   3.043
 2599SOL     OW 7814   3.087   4.049   2.311
 2599SOL    HW1 7815   3.152   3.975   2.300
 2599SOL    HW2 7816   3.107   4.099   2.395
 2600SOL     OW 7817   2.456   4.469   2.514
 2600SOL    HW1 7818   2.506   4.554   2.495
 2600SOL    HW2 7819   2.368   4.471   2.466
 2601SOL     OW 7820   3.639   4.066   3.504
 2601SOL    HW1 7821   3.622   4.097   3.410
 2601SOL    HW2 7822   3.555   4.029   3.542
 2602SOL     OW 7823   3.592   4.658   3.379
 2602SOL    HW1 7824   3.630   4.749   3.394
 2602SOL    HW2 7825   3.584   4.641   3.280
 2603SOL     OW 7826   3.686   3.916   3.089
 2603SOL    HW1 7827   3.682   3.826   3.133
 2603SOL    HW2 7828   3.689   3.905   2.990
 2604SOL     OW 7829   2.290   4.148   2.382
 2604SOL    HW1 7830   2.320   4.076   2.320
 2604SOL    HW2 7831   2.251   4.108   2.465
 2605SOL     OW 7832   2.179   4.271   3.142
 2605SOL    HW1 7833   2.217   4.212   3.214
 2605SOL    HW2 7834   2.219   4.245   3.054
 2606SOL     OW 7835   3.286   3.938   2.974
 2606SOL    HW1 7836   3.338   3.873   3.029
 2606SOL    HW2 7837   3.237   4.001   3.035
 2607SOL     OW 7838   2.863   3.758   3.016
 2607SOL    HW1 7839   2.800   3.686   2.985
 2607SOL    HW2 7840   2.956   3.722   3.016
 2608SOL     OW 7841   3.214   3.776   2.030
 2608SOL    HW1 7842   3.249   3.735   1.946
 2608SOL    HW2 7843   3.124   3.738   2.050
 2609SOL     OW 7844   3.162   4.177   2.553
 2609SOL    HW1 7845   3.103   4.257   2.557
 2609SOL    HW2 7846   3.177   4.142   2.646
 2610SOL     OW 7847   3.455   3.945   2.744
 2610SOL    HW1 7848   3.371   3.944   2.798
 2610SOL    HW2 7849   3.457   4.028   2.688
 2611SOL     OW 7850   2.092   4.352   3.837
 2611SOL    HW1 7851   1.999   4.350   3.874
 2611SOL    HW2 7852   2.093   4.313   3.745
 2612SOL     OW 7853   2.087   3.999   4.720
 2612SOL    HW1 7854   2.122   3.982   4.812
 2612SOL    HW2 7855   1.999   3.954   4.708
 2613SOL     OW 7856   1.881   4.092   4.371
 2613SOL    HW1 7857   1.799   4.135   4.410
 2613SOL    HW2 7858   1.853   4.019   4.308
 2614SOL     OW 7859   2.997   4.427   4.441
 2614SOL    HW1 7860   3.054   4.505   4.416
 2614SOL    HW2 7861   2.937   4.453   4.517
 2615SOL     OW 7862   3.617   4.331   3.955
 2615SOL    HW1 7863   3.605   4.318   3.856
 2615SOL    HW2 7864   3.587   4.250   4.004
 2616SOL     OW 7865   2.547   4.736   4.389
 2616SOL    HW1 7866   2.616   4.720   4.459
 2616SOL    HW2 7867   2.474   4.793   4.427
 2617SOL     OW 7868   3.465   4.171   4.461
 2617SOL    HW1 7869   3.391   4.217   4.411
 2617SOL    HW2 7870   3.516   4.239   4.514
 2618SOL     OW 7871   1.984   4.367   4.287
 2618SOL    HW1 7872   1.939   4.279   4.304
 2618SOL    HW2 7873   1.983   4.421   4.371
 2619SOL     OW 7874   2.671   3.728   4.226
 2619SOL    HW1 7875   2.711   3.819   4.217
 2619SOL    HW2 7876   2.571   3.736   4.232
 2620SOL     OW 7877   3.387   4.723   3.914
 2620SOL    HW1 7878   3.324   4.647   3.927
 2620SOL    HW2 7879   3.435   4.741   4.000
 2621SOL     OW 7880   2.460   4.453   3.994
 2621SOL    HW1 7881   2.484   4.522   3.926
 2621SOL    HW2 7882   2.382   4.486   4.048
 2622SOL     OW 7883   3.143   4.069   4.668
 2622SOL    HW1 7884   3.057   4.019   4.655
 2622SOL    HW2 7885   3.205   4.015   4.724
 2623SOL     OW 7886   2.903   4.425   4.153
 2623SOL    HW1 7887   2.929   4.421   4.249
 2623SOL    HW2 7888   2.818   4.374   4.139
 2624SOL     OW 7889   1.938   4.535   4.513
 2624SOL    HW1 7890   2.037   4.523   4.522
 2624SOL    HW2 7891   1.914   4.630   4.534
 2625SOL     OW 7892   2.727   4.072   3.919
 2625SOL    HW1 7893   2.786   4.135   3.870
 2625SOL    HW2 7894   2.746   3.978   3.890
 2626SOL     OW 7895   2.412   3.920   4.609
 2626SOL    HW1 7896   2.407   3.915   4.709
 2626SOL    HW2 7897   2.414   4.016   4.580
 2627SOL     OW 7898   3.320   4.459   4.452
 2627SOL    HW1 7899   3.315   4.394   4.527
 2627SOL    HW2 7900   3.400   4.518   4.465
 2628SOL     OW 7901   3.262   3.831   4.150
 2628SOL    HW1 7902   3.238   3.794   4.060
 2628SOL    HW2 7903   3.361   3.847   4.154
 2629SOL     OW 7904   2.244   4.424   4.204
 2629SOL    HW1 7905   2.289   4.334   4.201
 2629SOL    HW2 7906   2.150   4.413   4.237
 2630SOL     OW 7907   2.476   3.846   3.841
 2630SOL    HW1 7908   2.574   3.824   3.848
 2630SOL    HW2 7909   2.445   3.829   3.748
 2631SOL     OW 7910   2.401   3.788   4.236
 2631SOL    HW1 7911   2.320   3.789   4.294
 2631SOL    HW2 7912   2.404   3.871   4.181
 2632SOL     OW 7913   2.159   3.759   3.895
 2632SOL    HW1 7914   2.208   3.843   3.874
 2632SOL    HW2 7915   2.221   3.694   3.940
 2633SOL     OW 7916   2.797   3.960   4.204
 2633SOL    HW1 7917   2.749   4.001   4.126
 2633SOL    HW2 7918   2.896   3.958   4.185
 2634SOL     OW 7919   2.894   4.273   3.740
 2634SOL    HW1 7920   2.853   4.355   3.701
 2634SOL    HW2 7921   2.958   4.299   3.813
 2635SOL     OW 7922   2.728   4.178   4.366
 2635SOL    HW1 7923   2.696   4.250   4.304
 2635SOL    HW2 7924   2.752   4.097   4.313
 2636SOL     OW 7925   2.879   3.763   4.477
 2636SOL    HW1 7926   2.807   3.768   4.408
 2636SOL    HW2 7927   2.855   3.694   4.546
 2637SOL     OW 7928   3.719   4.557   4.101
 2637SOL    HW1 7929   3.761   4.493   4.165
 2637SOL    HW2 7930   3.681   4.506   4.023
 2638SOL     OW 7931   3.252   4.299   3.802
 2638SOL    HW1 7932   3.198   4.278   3.883
 2638SOL    HW2 7933   3.343   4.258   3.811
 2639SOL     OW 7934   2.389   3.980   4.052
 2639SOL    HW1 7935   2.416   3.921   3.977
 2639SOL    HW2 7936   2.389   4.075   4.021
 2640SOL     OW 7937   2.973   4.919   4.824
 2640SOL    HW1 7938   2.933   4.963   4.905
 2640SOL    HW2 7939   2.932   4.956   4.741
 2641SOL     OW 7940   2.428   4.261   4.589
 2641SOL    HW1 7941   2.440   4.327   4.515
 2641SOL    HW2 7942   2.474   4.295   4.672
 2642SOL     OW 7943   3.444   4.363   4.196
 2642SOL    HW1 7944   3.413   4.424   4.269
 2642SOL    HW2 7945   3.494   4.415   4.127
 2643SOL     OW 7946   3.071   4.249   3.999
 2643SOL    HW1 7947   3.084   4.165   4.053
 2643SOL    HW2 7948   3.042   4.323   4.059
 2644SOL     OW 7949   2.594   4.358   4.788
 2644SOL    HW1 7950   2.653   4.332   4.712
 2644SOL    HW2 7951   2.566   4.454   4.777
 2645SOL     OW 7952   2.169   3.787   4.342
 2645SOL    HW1 7953   2.158   3.881   4.375
 2645SOL    HW2 7954   2.164   3.724   4.419
 2646SOL     OW 7955   3.484   4.091   4.098
 2646SOL    HW1 7956   3.486   4.015   4.162
 2646SOL    HW2 7957   3.436   4.168   4.138
 2647SOL     OW 7958   3.402   3.998   3.849
 2647SOL    HW1 7959   3.341   3.923   3.872
 2647SOL    HW2 7960   3.424   4.050   3.932
 2648SOL     OW 7961   3.165   4.562   3.766
 2648SOL    HW1 7962   3.199   4.469   3.781
 2648SOL    HW2 7963   3.183   4.589   3.671
 2649SOL     OW 7964   2.181   4.534   4.673
 2649SOL    HW1 7965   2.274   4.570   4.678
 2649SOL    HW2 7966   2.175   4.449   4.725
 2650SOL     OW 7967   2.677   4.296   4.049
 2650SOL    HW1 7968   2.684   4.207   4.003
 2650SOL    HW2 7969   2.583   4.330   4.041
 2651SOL     OW 7970   2.335   4.224   3.915
 2651SOL    HW1 7971   2.396   4.304   3.919
 2651SOL    HW2 7972   2.240   4.255   3.922
 2652SOL     OW 7973   3.164   4.579   4.033
 2652SOL    HW1 7974   3.078   4.548   4.075
 2652SOL    HW2 7975   3.160   4.565   3.934
 2653SOL     OW 7976   3.588   3.859   4.247
 2653SOL    HW1 7977   3.661   3.842   4.180
 2653SOL    HW2 7978   3.557   3.772   4.285
 2654SOL     OW 7979   3.142   4.651   4.396
 2654SOL    HW1 7980   3.202   4.570   4.398
 2654SOL    HW2 7981   3.182   4.720   4.336
 2655SOL     OW 7982   3.703   3.899   4.687
 2655SOL    HW1 7983   3.742   3.814   4.651
 2655SOL    HW2 7984   3.605   3.901   4.668
 2656SOL     OW 7985   2.125   4.050   4.444
 2656SOL    HW1 7986   2.046   4.101   4.410
 2656SOL    HW2 7987   2.116   4.035   4.542
 2657SOL     OW 7988   2.778   4.634   4.015
 2657SOL    HW1 7989   2.841   4.672   3.947
 2657SOL    HW2 7990   2.818   4.551   4.054
 2658SOL     OW 7991   1.937   4.069   3.757
 2658SOL    HW1 7992   1.845   4.041   3.728
 2658SOL    HW2 7993   1.968   4.146   3.701
 2659SOL     OW 7994   1.934   3.890   4.042
 2659SOL    HW1 7995   1.917   3.973   3.988
 2659SOL    HW2 7996   2.024   3.853   4.020
 2660SOL     OW 7997   3.536   4.607   4.978
 2660SOL    HW1 7998   3.509   4.518   4.941
 2660SOL    HW2 7999   3.537   4.675   4.905
 2661SOL     OW 8000   3.087   4.049   4.173
 2661SOL    HW1 8001   3.152   3.975   4.162
 2661SOL    HW2 8002   3.107   4.099   4.257
 2662SOL     OW 8003   2.456   4.469   4.376
 2662SOL    HW1 8004   2.506   4.554   4.357
 2662SOL    HW2 8005   2.368   4.471   4.328
 2663SOL     OW 8006   2.290   4.148   4.244
 2663SOL    HW1 8007   2.320   4.076   4.182
 2663SOL    HW2 8008   2.251   4.108   4.327
 2664SOL     OW 8009   3.214   3.776   3.892
 2664SOL    HW1 8010   3.249   3.735   3.808
 2664SOL    HW2 8011   3.124   3.738   3.912
 2665SOL     OW 8012   3.162   4.177   4.415
 2665SOL    HW1 8013   3.103   4.257   4.419
 2665SOL    HW2 8014   3.177   4.142   4.508
 2666SOL     OW 8015   3.455   3.945   4.606
 2666SOL    HW1 8016   3.371   3.944   4.660
 2666SOL    HW2 8017   3.457   4.028   4.550
 2667SOL     OW 8018   3.954   0.628   0.113
 2667SOL    HW1 8019   3.861   0.626   0.150
 2667SOL    HW2 8020   3.955   0.589   0.021
 2668SOL     OW 8021   3.949   0.275   0.996
 2668SOL    HW1 8022   3.984   0.258   1.088
 2668SOL    HW2 8023   3.861   0.230   0.984
 2669SOL     OW 8024   3.743   0.368   0.647
 2669SOL    HW1 8025   3.661   0.411   0.686
 2669SOL    HW2 8026   3.715   0.295   0.584
 2670SOL     OW 8027   4.293   1.275   1.165
 2670SOL    HW1 8028   4.200   1.268   1.128
 2670SOL    HW2 8029   4.304   1.364   1.209
 2671SOL     OW 8030   4.492   1.144   1.023
 2671SOL    HW1 8031   4.414   1.161   1.083
 2671SOL    HW2 8032   4.526   1.231   0.987
 2672SOL     OW 8033   4.574   0.798   1.823
 2672SOL    HW1 8034   4.570   0.874   1.888
 2672SOL    HW2 8035   4.596   0.834   1.732
 2673SOL     OW 8036   4.409   1.012   0.665
 2673SOL    HW1 8037   4.478   0.996   0.735
 2673SOL    HW2 8038   4.336   1.069   0.703
 2674SOL     OW 8039   4.410   1.161   1.803
 2674SOL    HW1 8040   4.470   1.240   1.817
 2674SOL    HW2 8041   4.324   1.192   1.762
 2675SOL     OW 8042   4.059   1.435   1.061
 2675SOL    HW1 8043   3.981   1.404   1.008
 2675SOL    HW2 8044   4.117   1.493   1.004
 2676SOL     OW 8045   4.162   0.392   1.499
 2676SOL    HW1 8046   4.244   0.336   1.508
 2676SOL    HW2 8047   4.081   0.334   1.503
 2677SOL     OW 8048   3.955   1.713   0.483
 2677SOL    HW1 8049   3.989   1.790   0.537
 2677SOL    HW2 8050   3.999   1.713   0.393
 2678SOL     OW 8051   3.954   1.434   0.538
 2678SOL    HW1 8052   3.928   1.530   0.538
 2678SOL    HW2 8053   3.883   1.380   0.583
 2679SOL     OW 8054   3.964   1.091   0.886
 2679SOL    HW1 8055   3.978   1.007   0.938
 2679SOL    HW2 8056   3.909   1.155   0.941
 2680SOL     OW 8057   4.344   1.786   1.439
 2680SOL    HW1 8058   4.252   1.769   1.474
 2680SOL    HW2 8059   4.372   1.878   1.465
 2681SOL     OW 8060   4.330   0.964   0.123
 2681SOL    HW1 8061   4.337   1.048   0.069
 2681SOL    HW2 8062   4.376   0.977   0.211
 2682SOL     OW 8063   3.846   0.643   0.563
 2682SOL    HW1 8064   3.801   0.555   0.580
 2682SOL    HW2 8065   3.845   0.697   0.647
 2683SOL     OW 8066   3.837   0.737   1.597
 2683SOL    HW1 8067   3.925   0.724   1.642
 2683SOL    HW2 8068   3.824   0.834   1.575
 2684SOL     OW 8069   4.337   1.365   0.726
 2684SOL    HW1 8070   4.288   1.278   0.735
 2684SOL    HW2 8071   4.314   1.408   0.639
 2685SOL     OW 8072   4.533   0.004   0.502
 2685SOL    HW1 8073   4.573   0.095   0.493
 2685SOL    HW2 8074   4.433   0.012   0.508
 2686SOL     OW 8075   3.921   0.976   1.264
 2686SOL    HW1 8076   4.010   0.931   1.250
 2686SOL    HW2 8077   3.848   0.911   1.245
 2687SOL     OW 8078   4.041   0.251   1.801
 2687SOL    HW1 8079   4.112   0.322   1.807
 2687SOL    HW2 8080   3.953   0.290   1.829
 2688SOL     OW 8081   4.322   0.729   0.270
 2688SOL    HW1 8082   4.346   0.798   0.202
 2688SOL    HW2 8083   4.244   0.762   0.324
 2689SOL     OW 8084   4.531   0.605   1.465
 2689SOL    HW1 8085   4.484   0.602   1.554
 2689SOL    HW2 8086   4.480   0.550   1.399
 2690SOL     OW 8087   4.715   0.410   1.242
 2690SOL    HW1 8088   4.638   0.444   1.296
 2690SOL    HW2 8089   4.681   0.359   1.163
 2691SOL     OW 8090   3.800   0.811   0.789
 2691SOL    HW1 8091   3.899   0.799   0.798
 2691SOL    HW2 8092   3.776   0.906   0.810
 2692SOL     OW 8093   3.854   1.821   1.571
 2692SOL    HW1 8094   3.844   1.806   1.670
 2692SOL    HW2 8095   3.768   1.857   1.535
 2693SOL     OW 8096   4.589   0.348   0.195
 2693SOL    HW1 8097   4.648   0.411   0.146
 2693SOL    HW2 8098   4.608   0.254   0.166
 2694SOL     OW 8099   4.274   0.196   0.885
 2694SOL    HW1 8100   4.269   0.191   0.985
 2694SOL    HW2 8101   4.276   0.292   0.856
 2695SOL     OW 8102   4.732   1.456   0.477
 2695SOL    HW1 8103   4.686   1.528   0.425
 2695SOL    HW2 8104   4.728   1.476   0.575
 2696SOL     OW 8105   4.075   1.801   0.853
 2696SOL    HW1 8106   4.125   1.715   0.859
 2696SOL    HW2 8107   4.140   1.878   0.850
 2697SOL     OW 8108   4.045   0.943   0.242
 2697SOL    HW1 8109   4.127   0.982   0.200
 2697SOL    HW2 8110   4.018   0.861   0.193
 2698SOL     OW 8111   4.185   1.266   1.727
 2698SOL    HW1 8112   4.135   1.267   1.641
 2698SOL    HW2 8113   4.122   1.248   1.803
 2699SOL     OW 8114   3.926   0.285   1.498
 2699SOL    HW1 8115   3.846   0.345   1.485
 2699SOL    HW2 8116   3.916   0.236   1.584
 2700SOL     OW 8117   4.188   1.743   0.323
 2700SOL    HW1 8118   4.221   1.782   0.409
 2700SOL    HW2 8119   4.264   1.736   0.258
 2701SOL     OW 8120   3.973   1.785   1.241
 2701SOL    HW1 8121   4.030   1.720   1.291
 2701SOL    HW2 8122   3.957   1.752   1.148
 2702SOL     OW 8123   4.106   0.700   0.480
 2702SOL    HW1 8124   4.151   0.610   0.477
 2702SOL    HW2 8125   4.012   0.689   0.513
 2703SOL     OW 8126   4.338   0.122   0.117
 2703SOL    HW1 8127   4.436   0.100   0.124
 2703SOL    HW2 8128   4.307   0.105   0.024
 2704SOL     OW 8129   4.505   0.264   1.749
 2704SOL    HW1 8130   4.572   0.203   1.792
 2704SOL    HW2 8131   4.432   0.283   1.814
 2705SOL     OW 8132   4.527   1.402   0.924
 2705SOL    HW1 8133   4.617   1.416   0.882
 2705SOL    HW2 8134   4.456   1.404   0.853
 2706SOL     OW 8135   4.646   0.503   0.899
 2706SOL    HW1 8136   4.621   0.494   0.803
 2706SOL    HW2 8137   4.694   0.421   0.930
 2707SOL     OW 8138   4.263   0.064   0.512
 2707SOL    HW1 8139   4.182   0.065   0.570
 2707SOL    HW2 8140   4.266   0.147   0.457
 2708SOL     OW 8141   4.021   0.035   0.171
 2708SOL    HW1 8142   4.070   0.119   0.150
 2708SOL    HW2 8143   4.083  -0.030   0.216
 2709SOL     OW 8144   4.951   1.570   0.793
 2709SOL    HW1 8145   4.972   1.644   0.728
 2709SOL    HW2 8146   5.019   1.570   0.866
 2710SOL     OW 8147   4.183   1.152   0.741
 2710SOL    HW1 8148   4.112   1.125   0.806
 2710SOL    HW2 8149   4.157   1.124   0.648
 2711SOL     OW 8150   3.802   0.556   1.386
 2711SOL    HW1 8151   3.894   0.555   1.345
 2711SOL    HW2 8152   3.796   0.630   1.453
 2712SOL     OW 8153   4.285   0.222   1.147
 2712SOL    HW1 8154   4.323   0.138   1.184
 2712SOL    HW2 8155   4.197   0.241   1.191
 2713SOL     OW 8156   4.212   1.385   0.174
 2713SOL    HW1 8157   4.125   1.370   0.221
 2713SOL    HW2 8158   4.195   1.411   0.079
 2714SOL     OW 8159   4.251   0.256   0.328
 2714SOL    HW1 8160   4.278   0.197   0.253
 2714SOL    HW2 8161   4.251   0.351   0.297
 2715SOL     OW 8162   4.639   0.089   1.402
 2715SOL    HW1 8163   4.664   0.069   1.307
 2715SOL    HW2 8164   4.711   0.145   1.444
 2716SOL     OW 8165   4.429   1.050   0.368
 2716SOL    HW1 8166   4.415   1.057   0.467
 2716SOL    HW2 8167   4.513   0.999   0.350
 2717SOL     OW 8168   4.134   0.813   1.251
 2717SOL    HW1 8169   4.220   0.825   1.301
 2717SOL    HW2 8170   4.092   0.726   1.278
 2718SOL     OW 8171   3.788   1.564   1.331
 2718SOL    HW1 8172   3.742   1.646   1.297
 2718SOL    HW2 8173   3.886   1.583   1.340
 2719SOL     OW 8174   4.091   1.100   0.501
 2719SOL    HW1 8175   4.084   1.183   0.445
 2719SOL    HW2 8176   4.095   1.020   0.441
 2720SOL     OW 8177   4.290   0.537   0.865
 2720SOL    HW1 8178   4.302   0.603   0.791
 2720SOL    HW2 8179   4.336   0.571   0.948
 2721SOL     OW 8180   4.078   1.510   1.329
 2721SOL    HW1 8181   4.057   1.466   1.242
 2721SOL    HW2 8182   4.175   1.536   1.332
 2722SOL     OW 8183   4.126   0.751   1.598
 2722SOL    HW1 8184   4.194   0.806   1.551
 2722SOL    HW2 8185   4.166   0.663   1.625
 2723SOL     OW 8186   4.228   0.050   1.740
 2723SOL    HW1 8187   4.186  -0.007   1.670
 2723SOL    HW2 8188   4.162   0.119   1.772
 2724SOL     OW 8189   4.297   0.870   1.029
 2724SOL    HW1 8190   4.341   0.959   1.020
 2724SOL    HW2 8191   4.234   0.870   1.106
 2725SOL     OW 8192   4.933   0.525   0.275
 2725SOL    HW1 8193   4.946   0.441   0.329
 2725SOL    HW2 8194   4.904   0.599   0.335
 2726SOL     OW 8195   4.031   0.213   1.231
 2726SOL    HW1 8196   4.008   0.250   1.321
 2726SOL    HW2 8197   4.001   0.118   1.225
 2727SOL     OW 8198   3.761   1.310   1.282
 2727SOL    HW1 8199   3.814   1.261   1.350
 2727SOL    HW2 8200   3.783   1.408   1.287
 2728SOL     OW 8201   4.456   0.634   1.064
 2728SOL    HW1 8202   4.515   0.608   0.988
 2728SOL    HW2 8203   4.428   0.730   1.053
 2729SOL     OW 8204   4.031   0.063   0.618
 2729SOL    HW1 8205   4.020   0.157   0.651
 2729SOL    HW2 8206   4.026   0.000   0.695
 2730SOL     OW 8207   4.747   0.766   0.966
 2730SOL    HW1 8208   4.762   0.787   1.062
 2730SOL    HW2 8209   4.717   0.671   0.957
 2731SOL     OW 8210   4.704   1.573   1.700
 2731SOL    HW1 8211   4.684   1.617   1.612
 2731SOL    HW2 8212   4.743   1.482   1.684
 2732SOL     OW 8213   4.074   0.898   1.804
 2732SOL    HW1 8214   4.150   0.942   1.852
 2732SOL    HW2 8215   4.109   0.851   1.722
 2733SOL     OW 8216   4.043   0.810   0.949
 2733SOL    HW1 8217   4.136   0.846   0.954
 2733SOL    HW2 8218   4.037   0.725   1.001
 2734SOL     OW 8219   4.063   0.509   1.006
 2734SOL    HW1 8220   4.011   0.426   0.989
 2734SOL    HW2 8221   4.140   0.514   0.942
 2735SOL     OW 8222   3.732   1.326   0.200
 2735SOL    HW1 8223   3.639   1.347   0.169
 2735SOL    HW2 8224   3.742   1.227   0.213
 2736SOL     OW 8225   3.812   1.801   0.927
 2736SOL    HW1 8226   3.770   1.715   0.900
 2736SOL    HW2 8227   3.906   1.804   0.893
 2737SOL     OW 8228   4.228   1.568   0.910
 2737SOL    HW1 8229   4.294   1.642   0.919
 2737SOL    HW2 8230   4.272   1.489   0.868
 2738SOL     OW 8231   4.726   0.796   1.238
 2738SOL    HW1 8232   4.767   0.764   1.324
 2738SOL    HW2 8233   4.630   0.769   1.235
 2739SOL     OW 8234   3.764   0.544   1.114
 2739SOL    HW1 8235   3.849   0.511   1.073
 2739SOL    HW2 8236   3.777   0.559   1.212
 2740SOL     OW 8237   3.913   0.520   1.722
 2740SOL    HW1 8238   3.972   0.480   1.652
 2740SOL    HW2 8239   3.855   0.591   1.681
 2741SOL     OW 8240   4.539   0.572   0.325
 2741SOL    HW1 8241   4.546   0.483   0.279
 2741SOL    HW2 8242   4.445   0.606   0.317
 2742SOL     OW 8243   3.976   1.564   1.744
 2742SOL    HW1 8244   3.946   1.621   1.820
 2742SOL    HW2 8245   3.969   1.467   1.770
 2743SOL     OW 8246   4.395   0.464   1.269
 2743SOL    HW1 8247   4.361   0.375   1.239
 2743SOL    HW2 8248   4.421   0.518   1.189
 2744SOL     OW 8249   4.197   0.500   0.191
 2744SOL    HW1 8250   4.258   0.580   0.195
 2744SOL    HW2 8251   4.102   0.531   0.198
 2745SOL     OW 8252   3.883   1.137   1.466
 2745SOL    HW1 8253   3.905   1.076   1.542
 2745SOL    HW2 8254   3.893   1.088   1.380
 2746SOL     OW 8255   3.807   1.258   1.022
 2746SOL    HW1 8256   3.802   1.257   1.122
 2746SOL    HW2 8257   3.724   1.217   0.984
 2747SOL     OW 8258   4.412   1.662   1.716
 2747SOL    HW1 8259   4.356   1.743   1.725
 2747SOL    HW2 8260   4.464   1.666   1.630
 2748SOL     OW 8261   4.627   0.086   0.133
 2748SOL    HW1 8262   4.678   0.087   0.047
 2748SOL    HW2 8263   4.683   0.044   0.204
 2749SOL     OW 8264   3.854   1.794   1.851
 2749SOL    HW1 8265   3.813   1.720   1.904
 2749SOL    HW2 8266   3.918   1.845   1.909
 2750SOL     OW 8267   4.554   1.273   1.422
 2750SOL    HW1 8268   4.549   1.306   1.517
 2750SOL    HW2 8269   4.468   1.292   1.376
 2751SOL     OW 8270   4.396   1.616   0.154
 2751SOL    HW1 8271   4.405   1.626   0.055
 2751SOL    HW2 8272   4.356   1.527   0.175
 2752SOL     OW 8273   3.987   0.326   0.720
 2752SOL    HW1 8274   3.908   0.377   0.686
 2752SOL    HW2 8275   3.978   0.311   0.818
 2753SOL     OW 8276   4.918   1.612   0.031
 2753SOL    HW1 8277   4.924   1.519   0.068
 2753SOL    HW2 8278   4.859   1.612  -0.049
 2754SOL     OW 8279   4.546   1.002   1.372
 2754SOL    HW1 8280   4.586   1.001   1.280
 2754SOL    HW2 8281   4.556   1.094   1.412
 2755SOL     OW 8282   4.096   1.288   1.490
 2755SOL    HW1 8283   4.083   1.381   1.456
 2755SOL    HW2 8284   4.012   1.236   1.477
 2756SOL     OW 8285   4.314   1.487   0.491
 2756SOL    HW1 8286   4.356   1.429   0.421
 2756SOL    HW2 8287   4.270   1.566   0.447
 2757SOL     OW 8288   3.979   1.348   0.290
 2757SOL    HW1 8289   3.883   1.349   0.263
 2757SOL    HW2 8290   3.991   1.401   0.374
 2758SOL     OW 8291   3.829   1.013   1.726
 2758SOL    HW1 8292   3.752   0.980   1.780
 2758SOL    HW2 8293   3.914   0.983   1.768
 2759SOL     OW 8294   4.396   0.203   1.489
 2759SOL    HW1 8295   4.486   0.187   1.449
 2759SOL    HW2 8296   4.404   0.208   1.588
 2760SOL     OW 8297   4.337   0.842   1.431
 2760SOL    HW1 8298   4.393   0.923   1.414
 2760SOL    HW2 8299   4.396   0.762   1.434
 2761SOL     OW 8300   4.440   0.565   1.708
 2761SOL    HW1 8301   4.459   0.630   1.782
 2761SOL    HW2 8302   4.500   0.485   1.717
 2762SOL     OW 8303   4.114   1.741   1.560
 2762SOL    HW1 8304   4.023   1.782   1.558
 2762SOL    HW2 8305   4.107   1.647   1.592
 2763SOL     OW 8306   4.949   0.325   0.449
 2763SOL    HW1 8307   5.014   0.251   0.438
 2763SOL    HW2 8308   4.969   0.375   0.533
 2764SOL     OW 8309   4.318   0.745   0.652
 2764SOL    HW1 8310   4.368   0.830   0.633
 2764SOL    HW2 8311   4.230   0.747   0.604
 2765SOL     OW 8312   4.385   1.790   0.953
 2765SOL    HW1 8313   4.339   1.878   0.940
 2765SOL    HW2 8314   4.484   1.802   0.946
 2766SOL     OW 8315   4.583   0.956   0.861
 2766SOL    HW1 8316   4.637   0.887   0.909
 2766SOL    HW2 8317   4.551   1.025   0.927
 2767SOL     OW 8318   4.807   0.984   0.087
 2767SOL    HW1 8319   4.784   1.037   0.005
 2767SOL    HW2 8320   4.888   0.928   0.068
 2768SOL     OW 8321   3.945   1.314   1.844
 2768SOL    HW1 8322   3.880   1.241   1.823
 2768SOL    HW2 8323   3.949   1.328   1.942
 2769SOL     OW 8324   3.803   1.240   0.653
 2769SOL    HW1 8325   3.802   1.193   0.741
 2769SOL    HW2 8326   3.885   1.212   0.602
 2770SOL     OW 8327   4.396   1.391   1.624
 2770SOL    HW1 8328   4.318   1.341   1.662
 2770SOL    HW2 8329   4.393   1.486   1.655
 2771SOL     OW 8330   4.152   0.424   0.520
 2771SOL    HW1 8331   4.182   0.352   0.458
 2771SOL    HW2 8332   4.113   0.384   0.603
 2772SOL     OW 8333   4.041   0.547   1.280
 2772SOL    HW1 8334   4.079   0.488   1.352
 2772SOL    HW2 8335   4.081   0.521   1.192
 2773SOL     OW 8336   4.536   1.586   0.687
 2773SOL    HW1 8337   4.568   1.596   0.593
 2773SOL    HW2 8338   4.457   1.524   0.689
 2774SOL     OW 8339   4.725   0.034   1.154
 2774SOL    HW1 8340   4.662  -0.038   1.123
 2774SOL    HW2 8341   4.818  -0.002   1.154
 2775SOL     OW 8342   4.494   1.330   0.301
 2775SOL    HW1 8343   4.448   1.243   0.318
 2775SOL    HW2 8344   4.585   1.327   0.342
 2776SOL     OW 8345   4.342   1.567   1.284
 2776SOL    HW1 8346   4.337   1.649   1.341
 2776SOL    HW2 8347   4.431   1.564   1.239
 2777SOL     OW 8348   3.763   1.077   0.300
 2777SOL    HW1 8349   3.862   1.066   0.291
 2777SOL    HW2 8350   3.723   0.991   0.332
 2778SOL     OW 8351   4.599   1.646   0.337
 2778SOL    HW1 8352   4.522   1.611   0.283
 2778SOL    HW2 8353   4.567   1.717   0.399
 2779SOL     OW 8354   3.954   0.628   1.975
 2779SOL    HW1 8355   3.861   0.626   2.012
 2779SOL    HW2 8356   3.955   0.589   1.883
 2780SOL     OW 8357   3.949   0.275   2.858
 2780SOL    HW1 8358   3.984   0.258   2.950
 2780SOL    HW2 8359   3.861   0.230   2.846
 2781SOL     OW 8360   3.743   0.368   2.509
 2781SOL    HW1 8361   3.661   0.411   2.548
 2781SOL    HW2 8362   3.715   0.295   2.446
 2782SOL     OW 8363   4.293   1.275   3.027
 2782SOL    HW1 8364   4.200   1.268   2.990
 2782SOL    HW2 8365   4.304   1.364   3.071
 2783SOL     OW 8366   4.492   1.144   2.885
 2783SOL    HW1 8367   4.414   1.161   2.945
 2783SOL    HW2 8368   4.526   1.231   2.849
 2784SOL     OW 8369   4.574   0.798   3.685
 2784SOL    HW1 8370   4.570   0.874   3.750
 2784SOL    HW2 8371   4.596   0.834   3.594
 2785SOL     OW 8372   4.409   1.012   2.527
 2785SOL    HW1 8373   4.478   0.996   2.597
 2785SOL    HW2 8374   4.336   1.069   2.565
 2786SOL     OW 8375   4.410   1.161   3.665
 2786SOL    HW1 8376   4.470   1.240   3.679
 2786SOL    HW2 8377   4.324   1.192   3.624
 2787SOL     OW 8378   4.059   1.435   2.923
 2787SOL    HW1 8379   3.981   1.404   2.870
 2787SOL    HW2 8380   4.117   1.493   2.866
 2788SOL     OW 8381   4.162   0.392   3.361
 2788SOL    HW1 8382   4.244   0.336   3.370
 2788SOL    HW2 8383   4.081   0.334   3.365
 2789SOL     OW 8384   3.955   1.713   2.345
 2789SOL    HW1 8385   3.989   1.790   2.399
 2789SOL    HW2 8386   3.999   1.713   2.255
 2790SOL     OW 8387   3.954   1.434   2.400
 2790SOL    HW1 8388   3.928   1.530   2.400
 2790SOL    HW2 8389   3.883   1.380   2.445
 2791SOL     OW 8390   3.964   1.091   2.748
 2791SOL    HW1 8391   3.978   1.007   2.800
 2791SOL    HW2 8392   3.909   1.155   2.803
 2792SOL     OW 8393   4.344   1.786   3.301
 2792SOL    HW1 8394   4.252   1.769   3.336
 2792SOL    HW2 8395   4.372   1.878   3.327
 2793SOL     OW 8396   4.330   0.964   1.985
 2793SOL    HW1 8397   4.337   1.048   1.931
 2793SOL    HW2 8398   4.376   0.977   2.073
 2794SOL     OW 8399   3.846   0.643   2.425
 2794SOL    HW1 8400   3.801   0.555   2.442
 2794SOL    HW2 8401   3.845   0.697   2.509
 2795SOL     OW 8402   3.751   1.596   1.979
 2795SOL    HW1 8403   3.732   1.500   2.000
 2795SOL    HW2 8404   3.718   1.654   2.054
 2796SOL     OW 8405   3.837   0.737   3.459
 2796SOL    HW1 8406   3.925   0.724   3.504
 2796SOL    HW2 8407   3.824   0.834   3.437
 2797SOL     OW 8408   4.337   1.365   2.588
 2797SOL    HW1 8409   4.288   1.278   2.597
 2797SOL    HW2 8410   4.314   1.408   2.501
 2798SOL     OW 8411   4.533   0.004   2.364
 2798SOL    HW1 8412   4.573   0.095   2.355
 2798SOL    HW2 8413   4.433   0.012   2.370
 2799SOL     OW 8414   3.921   0.976   3.126
 2799SOL    HW1 8415   4.010   0.931   3.112
 2799SOL    HW2 8416   3.848   0.911   3.107
 2800SOL     OW 8417   4.041   0.251   3.663
 2800SOL    HW1 8418   4.112   0.322   3.669
 2800SOL    HW2 8419   3.953   0.290   3.691
 2801SOL     OW 8420   4.322   0.729   2.132
 2801SOL    HW1 8421   4.346   0.798   2.064
 2801SOL    HW2 8422   4.244   0.762   2.186
 2802SOL     OW 8423   4.531   0.605   3.327
 2802SOL    HW1 8424   4.484   0.602   3.416
 2802SOL    HW2 8425   4.480   0.550   3.261
 2803SOL     OW 8426   4.715   0.410   3.104
 2803SOL    HW1 8427   4.638   0.444   3.158
 2803SOL    HW2 8428   4.681   0.359   3.025
 2804SOL     OW 8429   3.800   0.811   2.651
 2804SOL    HW1 8430   3.899   0.799   2.660
 2804SOL    HW2 8431   3.776   0.906   2.672
 2805SOL     OW 8432   3.854   1.821   3.433
 2805SOL    HW1 8433   3.844   1.806   3.532
 2805SOL    HW2 8434   3.768   1.857   3.397
 2806SOL     OW 8435   4.589   0.348   2.057
 2806SOL    HW1 8436   4.648   0.411   2.008
 2806SOL    HW2 8437   4.608   0.254   2.028
 2807SOL     OW 8438   4.274   0.196   2.747
 2807SOL    HW1 8439   4.269   0.191   2.847
 2807SOL    HW2 8440   4.276   0.292   2.718
 2808SOL     OW 8441   4.732   1.456   2.339
 2808SOL    HW1 8442   4.686   1.528   2.287
 2808SOL    HW2 8443   4.728   1.476   2.437
 2809SOL     OW 8444   4.075   1.801   2.715
 2809SOL    HW1 8445   4.125   1.715   2.721
 2809SOL    HW2 8446   4.140   1.878   2.712
 2810SOL     OW 8447   4.045   0.943   2.104
 2810SOL    HW1 8448   4.127   0.982   2.062
 2810SOL    HW2 8449   4.018   0.861   2.055
 2811SOL     OW 8450   4.185   1.266   3.589
 2811SOL    HW1 8451   4.135   1.267   3.503
 2811SOL    HW2 8452   4.122   1.248   3.665
 2812SOL     OW 8453   3.926   0.285   3.360
 2812SOL    HW1 8454   3.846   0.345   3.347
 2812SOL    HW2 8455   3.916   0.236   3.446
 2813SOL     OW 8456   4.188   1.743   2.185
 2813SOL    HW1 8457   4.221   1.782   2.271
 2813SOL    HW2 8458   4.264   1.736   2.120
 2814SOL     OW 8459   3.973   1.785   3.103
 2814SOL    HW1 8460   4.030   1.720   3.153
 2814SOL    HW2 8461   3.957   1.752   3.010
 2815SOL     OW 8462   4.106   0.700   2.342
 2815SOL    HW1 8463   4.151   0.610   2.339
 2815SOL    HW2 8464   4.012   0.689   2.375
 2816SOL     OW 8465   4.338   0.122   1.979
 2816SOL    HW1 8466   4.436   0.100   1.986
 2816SOL    HW2 8467   4.307   0.105   1.886
 2817SOL     OW 8468   4.505   0.264   3.611
 2817SOL    HW1 8469   4.572   0.203   3.654
 2817SOL    HW2 8470   4.432   0.283   3.676
 2818SOL     OW 8471   4.527   1.402   2.786
 2818SOL    HW1 8472   4.617   1.416   2.744
 2818SOL    HW2 8473   4.456   1.404   2.715
 2819SOL     OW 8474   4.646   0.503   2.761
 2819SOL    HW1 8475   4.621   0.494   2.665
 2819SOL    HW2 8476   4.694   0.421   2.792
 2820SOL     OW 8477   4.263   0.064   2.374
 2820SOL    HW1 8478   4.182   0.065   2.432
 2820SOL    HW2 8479   4.266   0.147   2.319
 2821SOL     OW 8480   4.021   0.035   2.033
 2821SOL    HW1 8481   4.070   0.119   2.012
 2821SOL    HW2 8482   4.083  -0.030   2.078
 2822SOL     OW 8483   4.951   1.570   2.655
 2822SOL    HW1 8484   4.972   1.644   2.590
 2822SOL    HW2 8485   5.019   1.570   2.728
 2823SOL     OW 8486   4.183   1.152   2.603
 2823SOL    HW1 8487   4.112   1.125   2.668
 2823SOL    HW2 8488   4.157   1.124   2.510
 2824SOL     OW 8489   3.802   0.556   3.248
 2824SOL    HW1 8490   3.894   0.555   3.207
 2824SOL    HW2 8491   3.796   0.630   3.315
 2825SOL     OW 8492   4.285   0.222   3.009
 2825SOL    HW1 8493   4.323   0.138   3.046
 2825SOL    HW2 8494   4.197   0.241   3.053
 2826SOL     OW 8495   4.212   1.385   2.036
 2826SOL    HW1 8496   4.125   1.370   2.083
 2826SOL    HW2 8497   4.195   1.411   1.941
 2827SOL     OW 8498   4.251   0.256   2.190
 2827SOL    HW1 8499   4.278   0.197   2.115
 2827SOL    HW2 8500   4.251   0.351   2.159
 2828SOL     OW 8501   4.639   0.089   3.264
 2828SOL    HW1 8502   4.664   0.069   3.169
 2828SOL    HW2 8503   4.711   0.145   3.306
 2829SOL     OW 8504   4.429   1.050   2.230
 2829SOL    HW1 8505   4.415   1.057   2.329
 2829SOL    HW2 8506   4.513   0.999   2.212
 2830SOL     OW 8507   4.134   0.813   3.113
 2830SOL    HW1 8508   4.220   0.825   3.163
 2830SOL    HW2 8509   4.092   0.726   3.140
 2831SOL     OW 8510   3.788   1.564   3.193
 2831SOL    HW1 8511   3.742   1.646   3.159
 2831SOL    HW2 8512   3.886   1.583   3.202
 2832SOL     OW 8513   4.091   1.100   2.363
 2832SOL    HW1 8514   4.084   1.183   2.307
 2832SOL    HW2 8515   4.095   1.020   2.303
 2833SOL     OW 8516   4.290   0.537   2.727
 2833SOL    HW1 8517   4.302   0.603   2.653
 2833SOL    HW2 8518   4.336   0.571   2.810
 2834SOL     OW 8519   4.078   1.510   3.191
 2834SOL    HW1 8520   4.057   1.466   3.104
 2834SOL    HW2 8521   4.175   1.536   3.194
 2835SOL     OW 8522   4.126   0.751   3.460
 2835SOL    HW1 8523   4.194   0.806   3.413
 2835SOL    HW2 8524   4.166   0.663   3.487
 2836SOL     OW 8525   4.228   0.050   3.602
 2836SOL    HW1 8526   4.186  -0.007   3.532
 2836SOL    HW2 8527   4.162   0.119   3.634
 2837SOL     OW 8528   4.297   0.870   2.891
 2837SOL    HW1 8529   4.341   0.959   2.882
 2837SOL    HW2 8530   4.234   0.870   2.968
 2838SOL     OW 8531   4.933   0.525   2.137
 2838SOL    HW1 8532   4.946   0.441   2.191
 2838SOL    HW2 8533   4.904   0.599   2.197
 2839SOL     OW 8534   4.031   0.213   3.093
 2839SOL    HW1 8535   4.008   0.250   3.183
 2839SOL    HW2 8536   4.001   0.118   3.087
 2840SOL     OW 8537   3.761   1.310   3.144
 2840SOL    HW1 8538   3.814   1.261   3.212
 2840SOL    HW2 8539   3.783   1.408   3.149
 2841SOL     OW 8540   4.456   0.634   2.926
 2841SOL    HW1 8541   4.515   0.608   2.850
 2841SOL    HW2 8542   4.428   0.730   2.915
 2842SOL     OW 8543   4.031   0.063   2.480
 2842SOL    HW1 8544   4.020   0.157   2.513
 2842SOL    HW2 8545   4.026   0.000   2.557
 2843SOL     OW 8546   4.747   0.766   2.828
 2843SOL    HW1 8547   4.762   0.787   2.924
 2843SOL    HW2 8548   4.717   0.671   2.819
 2844SOL     OW 8549   4.704   1.573   3.562
 2844SOL    HW1 8550   4.684   1.617   3.474
 2844SOL    HW2 8551   4.743   1.482   3.546
 2845SOL     OW 8552   4.074   0.898   3.666
 2845SOL    HW1 8553   4.150   0.942   3.714
 2845SOL    HW2 8554   4.109   0.851   3.584
 2846SOL     OW 8555   4.043   0.810   2.811
 2846SOL    HW1 8556   4.136   0.846   2.816
 2846SOL    HW2 8557   4.037   0.725   2.863
 2847SOL     OW 8558   4.063   0.509   2.868
 2847SOL    HW1 8559   4.011   0.426   2.851
 2847SOL    HW2 8560   4.140   0.514   2.804
 2848SOL     OW 8561   3.732   1.326   2.062
 2848SOL    HW1 8562   3.639   1.347   2.031
 2848SOL    HW2 8563   3.742   1.227   2.075
 2849SOL     OW 8564   3.812   1.801   2.789
 2849SOL    HW1 8565   3.770   1.715   2.762
 2849SOL    HW2 8566   3.906   1.804   2.755
 2850SOL     OW 8567   4.228   1.568   2.772
 2850SOL    HW1 8568   4.294   1.642   2.781
 2850SOL    HW2 8569   4.272   1.489   2.730
 2851SOL     OW 8570   4.726   0.796   3.100
 2851SOL    HW1 8571   4.767   0.764   3.186
 2851SOL    HW2 8572   4.630   0.769   3.097
 2852SOL     OW 8573   3.764   0.544   2.976
 2852SOL    HW1 8574   3.849   0.511   2.935
 2852SOL    HW2 8575   3.777   0.559   3.074
 2853SOL     OW 8576   3.913   0.520   3.584
 2853SOL    HW1 8577   3.972   0.480   3.514
 2853SOL    HW2 8578   3.855   0.591   3.543
 2854SOL     OW 8579   4.539   0.572   2.187
 2854SOL    HW1 8580   4.546   0.483   2.141
 2854SOL    HW2 8581   4.445   0.606   2.179
 2855SOL     OW 8582   3.976   1.564   3.606
 2855SOL    HW1 8583   3.946   1.621   3.682
 2855SOL    HW2 8584   3.969   1.467   3.632
 2856SOL     OW 8585   4.395   0.464   3.131
 2856SOL    HW1 8586   4.361   0.375   3.101
 2856SOL    HW2 8587   4.421   0.518   3.051
 2857SOL     OW 8588   4.197   0.500   2.053
 2857SOL    HW1 8589   4.258   0.580   2.057
 2857SOL    HW2 8590   4.102   0.531   2.060
 2858SOL     OW 8591   3.883   1.137   3.328
 2858SOL    HW1 8592   3.905   1.076   3.404
 2858SOL    HW2 8593   3.893   1.088   3.242
 2859SOL     OW 8594   3.807   1.258   2.884
 2859SOL    HW1 8595   3.802   1.257   2.984
 2859SOL    HW2 8596   3.724   1.217   2.846
 2860SOL     OW 8597   4.412   1.662   3.578
 2860SOL    HW1 8598   4.356   1.743   3.587
 2860SOL    HW2 8599   4.464   1.666   3.492
 2861SOL     OW 8600   4.627   0.086   1.995
 2861SOL    HW1 8601   4.678   0.087   1.909
 2861SOL    HW2 8602   4.683   0.044   2.066
 2862SOL     OW 8603   3.854   1.794   3.713
 2862SOL    HW1 8604   3.813   1.720   3.766
 2862SOL    HW2 8605   3.918   1.845   3.771
 2863SOL     OW 8606   4.554   1.273   3.284
 2863SOL    HW1 8607   4.549   1.306   3.379
 2863SOL    HW2 8608   4.468   1.292   3.238
 2864SOL     OW 8609   4.396   1.616   2.016
 2864SOL    HW1 8610   4.405   1.626   1.917
 2864SOL    HW2 8611   4.356   1.527   2.037
 2865SOL     OW 8612   3.987   0.326   2.582
 2865SOL    HW1 8613   3.908   0.377   2.548
 2865SOL    HW2 8614   3.978   0.311   2.680
 2866SOL     OW 8615   4.546   1.002   3.234
 2866SOL    HW1 8616   4.586   1.001   3.142
 2866SOL    HW2 8617   4.556   1.094   3.274
 2867SOL     OW 8618   4.096   1.288   3.352
 2867SOL    HW1 8619   4.083   1.381   3.318
 2867SOL    HW2 8620   4.012   1.236   3.339
 2868SOL     OW 8621   4.314   1.487   2.353
 2868SOL    HW1 8622   4.356   1.429   2.283
 2868SOL    HW2 8623   4.270   1.566   2.309
 2869SOL     OW 8624   3.979   1.348   2.152
 2869SOL    HW1 8625   3.883   1.349   2.125
 2869SOL    HW2 8626   3.991   1.401   2.236
 2870SOL     OW 8627   3.829   1.013   3.588
 2870SOL    HW1 8628   3.752   0.980   3.642
 2870SOL    HW2 8629   3.914   0.983   3.630
 2871SOL     OW 8630   4.396   0.203   3.351
 2871SOL    HW1 8631   4.486   0.187   3.311
 2871SOL    HW2 8632   4.404   0.208   3.450
 2872SOL     OW 8633   3.799   0.345   1.895
 2872SOL    HW1 8634   3.707   0.317   1.866
 2872SOL    HW2 8635   3.830   0.422   1.839
 2873SOL     OW 8636   3.796   0.166   2.180
 2873SOL    HW1 8637   3.779   0.249   2.126
 2873SOL    HW2 8638   3.886   0.129   2.158
 2874SOL     OW 8639   4.337   0.842   3.293
 2874SOL    HW1 8640   4.393   0.923   3.276
 2874SOL    HW2 8641   4.396   0.762   3.296
 2875SOL     OW 8642   4.440   0.565   3.570
 2875SOL    HW1 8643   4.459   0.630   3.644
 2875SOL    HW2 8644   4.500   0.485   3.579
 2876SOL     OW 8645   4.114   1.741   3.422
 2876SOL    HW1 8646   4.023   1.782   3.420
 2876SOL    HW2 8647   4.107   1.647   3.454
 2877SOL     OW 8648   4.949   0.325   2.311
 2877SOL    HW1 8649   5.014   0.251   2.300
 2877SOL    HW2 8650   4.969   0.375   2.395
 2878SOL     OW 8651   4.318   0.745   2.514
 2878SOL    HW1 8652   4.368   0.830   2.495
 2878SOL    HW2 8653   4.230   0.747   2.466
 2879SOL     OW 8654   4.385   1.790   2.815
 2879SOL    HW1 8655   4.339   1.878   2.802
 2879SOL    HW2 8656   4.484   1.802   2.808
 2880SOL     OW 8657   4.583   0.956   2.723
 2880SOL    HW1 8658   4.637   0.887   2.771
 2880SOL    HW2 8659   4.551   1.025   2.789
 2881SOL     OW 8660   3.945   1.314   3.706
 2881SOL    HW1 8661   3.880   1.241   3.685
 2881SOL    HW2 8662   3.949   1.328   3.804
 2882SOL     OW 8663   3.803   1.240   2.515
 2882SOL    HW1 8664   3.802   1.193   2.603
 2882SOL    HW2 8665   3.885   1.212   2.464
 2883SOL     OW 8666   4.396   1.391   3.486
 2883SOL    HW1 8667   4.318   1.341   3.524
 2883SOL    HW2 8668   4.393   1.486   3.517
 2884SOL     OW 8669   4.152   0.424   2.382
 2884SOL    HW1 8670   4.182   0.352   2.320
 2884SOL    HW2 8671   4.113   0.384   2.465
 2885SOL     OW 8672   4.041   0.547   3.142
 2885SOL    HW1 8673   4.079   0.488   3.214
 2885SOL    HW2 8674   4.081   0.521   3.054
 2886SOL     OW 8675   4.536   1.586   2.549
 2886SOL    HW1 8676   4.568   1.596   2.455
 2886SOL    HW2 8677   4.457   1.524   2.551
 2887SOL     OW 8678   4.725   0.034   3.016
 2887SOL    HW1 8679   4.662  -0.038   2.985
 2887SOL    HW2 8680   4.818  -0.002   3.016
 2888SOL     OW 8681   4.494   1.330   2.163
 2888SOL    HW1 8682   4.448   1.243   2.180
 2888SOL    HW2 8683   4.585   1.327   2.204
 2889SOL     OW 8684   4.342   1.567   3.146
 2889SOL    HW1 8685   4.337   1.649   3.203
 2889SOL    HW2 8686   4.431   1.564   3.101
 2890SOL     OW 8687   3.763   1.077   2.162
 2890SOL    HW1 8688   3.862   1.066   2.153
 2890SOL    HW2 8689   3.723   0.991   2.194
 2891SOL     OW 8690   4.599   1.646   2.199
 2891SOL    HW1 8691   4.522   1.611   2.145
 2891SOL    HW2 8692   4.567   1.717   2.261
 2892SOL     OW 8693   3.954   0.628   3.837
 2892SOL    HW1 8694   3.861   0.626   3.874
 2892SOL    HW2 8695   3.955   0.589   3.745
 2893SOL     OW 8696   3.949   0.275   4.720
 2893SOL    HW1 8697   3.984   0.258   4.812
 2893SOL    HW2 8698   3.861   0.230   4.708
 2894SOL     OW 8699   3.743   0.368   4.371
 2894SOL    HW1 8700   3.661   0.411   4.410
 2894SOL    HW2 8701   3.715   0.295   4.308
 2895SOL     OW 8702   4.492   1.144   4.747
 2895SOL    HW1 8703   4.414   1.161   4.807
 2895SOL    HW2 8704   4.526   1.231   4.711
 2896SOL     OW 8705   4.409   1.012   4.389
 2896SOL    HW1 8706   4.478   0.996   4.459
 2896SOL    HW2 8707   4.336   1.069   4.427
 2897SOL     OW 8708   3.955   1.713   4.207
 2897SOL    HW1 8709   3.989   1.790   4.261
 2897SOL    HW2 8710   3.999   1.713   4.117
 2898SOL     OW 8711   3.954   1.434   4.262
 2898SOL    HW1 8712   3.928   1.530   4.262
 2898SOL    HW2 8713   3.883   1.380   4.307
 2899SOL     OW 8714   3.964   1.091   4.610
 2899SOL    HW1 8715   3.978   1.007   4.662
 2899SOL    HW2 8716   3.909   1.155   4.665
 2900SOL     OW 8717   4.330   0.964   3.847
 2900SOL    HW1 8718   4.337   1.048   3.793
 2900SOL    HW2 8719   4.376   0.977   3.935
 2901SOL     OW 8720   3.846   0.643   4.287
 2901SOL    HW1 8721   3.801   0.555   4.304
 2901SOL    HW2 8722   3.845   0.697   4.371
 2902SOL     OW 8723   3.751   1.596   3.841
 2902SOL    HW1 8724   3.732   1.500   3.862
 2902SOL    HW2 8725   3.718   1.654   3.916
 2903SOL     OW 8726   4.337   1.365   4.450
 2903SOL    HW1 8727   4.288   1.278   4.459
 2903SOL    HW2 8728   4.314   1.408   4.363
 2904SOL     OW 8729   4.533   0.004   4.226
 2904SOL    HW1 8730   4.573   0.095   4.217
 2904SOL    HW2 8731   4.433   0.012   4.232
 2905SOL     OW 8732   4.322   0.729   3.994
 2905SOL    HW1 8733   4.346   0.798   3.926
 2905SOL    HW2 8734   4.244   0.762   4.048
 2906SOL     OW 8735   3.800   0.811   4.513
 2906SOL    HW1 8736   3.899   0.799   4.522
 2906SOL    HW2 8737   3.776   0.906   4.534
 2907SOL     OW 8738   4.589   0.348   3.919
 2907SOL    HW1 8739   4.648   0.411   3.870
 2907SOL    HW2 8740   4.608   0.254   3.890
 2908SOL     OW 8741   4.732   1.456   4.201
 2908SOL    HW1 8742   4.686   1.528   4.149
 2908SOL    HW2 8743   4.728   1.476   4.299
 2909SOL     OW 8744   4.075   1.801   4.577
 2909SOL    HW1 8745   4.125   1.715   4.583
 2909SOL    HW2 8746   4.140   1.878   4.574
 2910SOL     OW 8747   4.045   0.943   3.966
 2910SOL    HW1 8748   4.127   0.982   3.924
 2910SOL    HW2 8749   4.018   0.861   3.917
 2911SOL     OW 8750   4.188   1.743   4.047
 2911SOL    HW1 8751   4.221   1.782   4.133
 2911SOL    HW2 8752   4.264   1.736   3.982
 2912SOL     OW 8753   4.106   0.700   4.204
 2912SOL    HW1 8754   4.151   0.610   4.201
 2912SOL    HW2 8755   4.012   0.689   4.237
 2913SOL     OW 8756   4.338   0.122   3.841
 2913SOL    HW1 8757   4.436   0.100   3.848
 2913SOL    HW2 8758   4.307   0.105   3.748
 2914SOL     OW 8759   4.527   1.402   4.648
 2914SOL    HW1 8760   4.617   1.416   4.606
 2914SOL    HW2 8761   4.456   1.404   4.577
 2915SOL     OW 8762   4.263   0.064   4.236
 2915SOL    HW1 8763   4.182   0.065   4.294
 2915SOL    HW2 8764   4.266   0.147   4.181
 2916SOL     OW 8765   4.021   0.035   3.895
 2916SOL    HW1 8766   4.070   0.119   3.874
 2916SOL    HW2 8767   4.083  -0.030   3.940
 2917SOL     OW 8768   4.951   1.570   4.517
 2917SOL    HW1 8769   4.972   1.644   4.452
 2917SOL    HW2 8770   5.019   1.570   4.590
 2918SOL     OW 8771   4.183   1.152   4.465
 2918SOL    HW1 8772   4.112   1.125   4.530
 2918SOL    HW2 8773   4.157   1.124   4.372
 2919SOL     OW 8774   4.212   1.385   3.898
 2919SOL    HW1 8775   4.125   1.370   3.945
 2919SOL    HW2 8776   4.195   1.411   3.803
 2920SOL     OW 8777   4.251   0.256   4.052
 2920SOL    HW1 8778   4.278   0.197   3.977
 2920SOL    HW2 8779   4.251   0.351   4.021
 2921SOL     OW 8780   4.429   1.050   4.092
 2921SOL    HW1 8781   4.415   1.057   4.191
 2921SOL    HW2 8782   4.513   0.999   4.074
 2922SOL     OW 8783   4.091   1.100   4.225
 2922SOL    HW1 8784   4.084   1.183   4.169
 2922SOL    HW2 8785   4.095   1.020   4.165
 2923SOL     OW 8786   4.290   0.537   4.589
 2923SOL    HW1 8787   4.302   0.603   4.515
 2923SOL    HW2 8788   4.336   0.571   4.672
 2924SOL     OW 8789   4.933   0.525   3.999
 2924SOL    HW1 8790   4.946   0.441   4.053
 2924SOL    HW2 8791   4.904   0.599   4.059
 2925SOL     OW 8792   4.456   0.634   4.788
 2925SOL    HW1 8793   4.515   0.608   4.712
 2925SOL    HW2 8794   4.428   0.730   4.777
 2926SOL     OW 8795   4.031   0.063   4.342
 2926SOL    HW1 8796   4.020   0.157   4.375
 2926SOL    HW2 8797   4.026   0.000   4.419
 2927SOL     OW 8798   4.747   0.766   4.690
 2927SOL    HW1 8799   4.762   0.787   4.786
 2927SOL    HW2 8800   4.717   0.671   4.681
 2928SOL     OW 8801   4.043   0.810   4.673
 2928SOL    HW1 8802   4.136   0.846   4.678
 2928SOL    HW2 8803   4.037   0.725   4.725
 2929SOL     OW 8804   3.732   1.326   3.924
 2929SOL    HW1 8805   3.639   1.347   3.893
 2929SOL    HW2 8806   3.742   1.227   3.937
 2930SOL     OW 8807   3.812   1.801   4.651
 2930SOL    HW1 8808   3.770   1.715   4.624
 2930SOL    HW2 8809   3.906   1.804   4.617
 2931SOL     OW 8810   4.228   1.568   4.634
 2931SOL    HW1 8811   4.294   1.642   4.643
 2931SOL    HW2 8812   4.272   1.489   4.592
 2932SOL     OW 8813   4.726   0.796   4.962
 2932SOL    HW1 8814   4.767   0.764   5.048
 2932SOL    HW2 8815   4.630   0.769   4.959
 2933SOL     OW 8816   4.539   0.572   4.049
 2933SOL    HW1 8817   4.546   0.483   4.003
 2933SOL    HW2 8818   4.445   0.606   4.041
 2934SOL     OW 8819   4.197   0.500   3.915
 2934SOL    HW1 8820   4.258   0.580   3.919
 2934SOL    HW2 8821   4.102   0.531   3.922
 2935SOL     OW 8822   4.627   0.086   3.857
 2935SOL    HW1 8823   4.678   0.087   3.771
 2935SOL    HW2 8824   4.683   0.044   3.928
 2936SOL     OW 8825   4.396   1.616   3.878
 2936SOL    HW1 8826   4.405   1.626   3.779
 2936SOL    HW2 8827   4.356   1.527   3.899
 2937SOL     OW 8828   3.987   0.326   4.444
 2937SOL    HW1 8829   3.908   0.377   4.410
 2937SOL    HW2 8830   3.978   0.311   4.542
 2938SOL     OW 8831   4.314   1.487   4.215
 2938SOL    HW1 8832   4.356   1.429   4.145
 2938SOL    HW2 8833   4.270   1.566   4.171
 2939SOL     OW 8834   3.979   1.348   4.014
 2939SOL    HW1 8835   3.883   1.349   3.987
 2939SOL    HW2 8836   3.991   1.401   4.098
 2940SOL     OW 8837   3.799   0.345   3.757
 2940SOL    HW1 8838   3.707   0.317   3.728
 2940SOL    HW2 8839   3.830   0.422   3.701
 2941SOL     OW 8840   3.796   0.166   4.042
 2941SOL    HW1 8841   3.779   0.249   3.988
 2941SOL    HW2 8842   3.886   0.129   4.020
 2942SOL     OW 8843   4.949   0.325   4.173
 2942SOL    HW1 8844   5.014   0.251   4.162
 2942SOL    HW2 8845   4.969   0.375   4.257
 2943SOL     OW 8846   4.318   0.745   4.376
 2943SOL    HW1 8847   4.368   0.830   4.357
 2943SOL    HW2 8848   4.230   0.747   4.328
 2944SOL     OW 8849   4.385   1.790   4.677
 2944SOL    HW1 8850   4.339   1.878   4.664
 2944SOL    HW2 8851   4.484   1.802   4.670
 2945SOL     OW 8852   4.583   0.956   4.585
 2945SOL    HW1 8853   4.637   0.887   4.633
 2945SOL    HW2 8854   4.551   1.025   4.651
 2946SOL     OW 8855   3.803   1.240   4.377
 2946SOL    HW1 8856   3.802   1.193   4.465
 2946SOL    HW2 8857   3.885   1.212   4.326
 2947SOL     OW 8858   4.152   0.424   4.244
 2947SOL    HW1 8859   4.182   0.352   4.182
 2947SOL    HW2 8860   4.113   0.384   4.327
 2948SOL     OW 8861   4.536   1.586   4.411
 2948SOL    HW1 8862   4.568   1.596   4.317
 2948SOL    HW2 8863   4.457   1.524   4.413
 2949SOL     OW 8864   4.494   1.330   4.025
 2949SOL    HW1 8865   4.448   1.243   4.042
 2949SOL    HW2 8866   4.585   1.327   4.066
 2950SOL     OW 8867   3.763   1.077   4.024
 2950SOL    HW1 8868   3.862   1.066   4.015
 2950SOL    HW2 8869   3.723   0.991   4.056
 2951SOL     OW 8870   4.599   1.646   4.061
 2951SOL    HW1 8871   4.522   1.611   4.007
 2951SOL    HW2 8872   4.567   1.717   4.123
 2952SOL     OW 8873   3.954   2.490   0.113
 2952SOL    HW1 8874   3.861   2.488   0.150
 2952SOL    HW2 8875   3.955   2.451   0.021
 2953SOL     OW 8876   3.949   2.137   0.996
 2953SOL    HW1 8877   3.984   2.120   1.088
 2953SOL    HW2 8878   3.861   2.092   0.984
 2954SOL     OW 8879   3.743   2.230   0.647
 2954SOL    HW1 8880   3.661   2.273   0.686
 2954SOL    HW2 8881   3.715   2.157   0.584
 2955SOL     OW 8882   4.293   3.137   1.165
 2955SOL    HW1 8883   4.200   3.130   1.128
 2955SOL    HW2 8884   4.304   3.226   1.209
 2956SOL     OW 8885   4.492   3.006   1.023
 2956SOL    HW1 8886   4.414   3.023   1.083
 2956SOL    HW2 8887   4.526   3.093   0.987
 2957SOL     OW 8888   4.574   2.660   1.823
 2957SOL    HW1 8889   4.570   2.736   1.888
 2957SOL    HW2 8890   4.596   2.696   1.732
 2958SOL     OW 8891   4.409   2.874   0.665
 2958SOL    HW1 8892   4.478   2.858   0.735
 2958SOL    HW2 8893   4.336   2.931   0.703
 2959SOL     OW 8894   4.410   3.023   1.803
 2959SOL    HW1 8895   4.470   3.102   1.817
 2959SOL    HW2 8896   4.324   3.054   1.762
 2960SOL     OW 8897   4.059   3.297   1.061
 2960SOL    HW1 8898   3.981   3.266   1.008
 2960SOL    HW2 8899   4.117   3.355   1.004
 2961SOL     OW 8900   4.162   2.254   1.499
 2961SOL    HW1 8901   4.244   2.198   1.508
 2961SOL    HW2 8902   4.081   2.196   1.503
 2962SOL     OW 8903   3.955   3.575   0.483
 2962SOL    HW1 8904   3.989   3.652   0.537
 2962SOL    HW2 8905   3.999   3.575   0.393
 2963SOL     OW 8906   3.954   3.296   0.538
 2963SOL    HW1 8907   3.928   3.392   0.538
 2963SOL    HW2 8908   3.883   3.242   0.583
 2964SOL     OW 8909   3.964   2.953   0.886
 2964SOL    HW1 8910   3.978   2.869   0.938
 2964SOL    HW2 8911   3.909   3.017   0.941
 2965SOL     OW 8912   4.344   3.648   1.439
 2965SOL    HW1 8913   4.252   3.631   1.474
 2965SOL    HW2 8914   4.372   3.740   1.465
 2966SOL     OW 8915   4.330   2.826   0.123
 2966SOL    HW1 8916   4.337   2.910   0.069
 2966SOL    HW2 8917   4.376   2.839   0.211
 2967SOL     OW 8918   3.846   2.505   0.563
 2967SOL    HW1 8919   3.801   2.417   0.580
 2967SOL    HW2 8920   3.845   2.559   0.647
 2968SOL     OW 8921   3.837   2.599   1.597
 2968SOL    HW1 8922   3.925   2.586   1.642
 2968SOL    HW2 8923   3.824   2.696   1.575
 2969SOL     OW 8924   4.337   3.227   0.726
 2969SOL    HW1 8925   4.288   3.140   0.735
 2969SOL    HW2 8926   4.314   3.270   0.639
 2970SOL     OW 8927   4.533   1.866   0.502
 2970SOL    HW1 8928   4.573   1.957   0.493
 2970SOL    HW2 8929   4.433   1.874   0.508
 2971SOL     OW 8930   3.921   2.838   1.264
 2971SOL    HW1 8931   4.010   2.793   1.250
 2971SOL    HW2 8932   3.848   2.773   1.245
 2972SOL     OW 8933   4.041   2.113   1.801
 2972SOL    HW1 8934   4.112   2.184   1.807
 2972SOL    HW2 8935   3.953   2.152   1.829
 2973SOL     OW 8936   4.322   2.591   0.270
 2973SOL    HW1 8937   4.346   2.660   0.202
 2973SOL    HW2 8938   4.244   2.624   0.324
 2974SOL     OW 8939   4.531   2.467   1.465
 2974SOL    HW1 8940   4.484   2.464   1.554
 2974SOL    HW2 8941   4.480   2.412   1.399
 2975SOL     OW 8942   4.715   2.272   1.242
 2975SOL    HW1 8943   4.638   2.306   1.296
 2975SOL    HW2 8944   4.681   2.221   1.163
 2976SOL     OW 8945   3.800   2.673   0.789
 2976SOL    HW1 8946   3.899   2.661   0.798
 2976SOL    HW2 8947   3.776   2.768   0.810
 2977SOL     OW 8948   3.854   3.683   1.571
 2977SOL    HW1 8949   3.844   3.668   1.670
 2977SOL    HW2 8950   3.768   3.719   1.535
 2978SOL     OW 8951   4.589   2.210   0.195
 2978SOL    HW1 8952   4.648   2.273   0.146
 2978SOL    HW2 8953   4.608   2.116   0.166
 2979SOL     OW 8954   4.274   2.058   0.885
 2979SOL    HW1 8955   4.269   2.053   0.985
 2979SOL    HW2 8956   4.276   2.154   0.856
 2980SOL     OW 8957   4.732   3.318   0.477
 2980SOL    HW1 8958   4.686   3.390   0.425
 2980SOL    HW2 8959   4.728   3.338   0.575
 2981SOL     OW 8960   4.075   3.663   0.853
 2981SOL    HW1 8961   4.125   3.577   0.859
 2981SOL    HW2 8962   4.140   3.740   0.850
 2982SOL     OW 8963   4.045   2.805   0.242
 2982SOL    HW1 8964   4.127   2.844   0.200
 2982SOL    HW2 8965   4.018   2.723   0.193
 2983SOL     OW 8966   4.185   3.128   1.727
 2983SOL    HW1 8967   4.135   3.129   1.641
 2983SOL    HW2 8968   4.122   3.110   1.803
 2984SOL     OW 8969   3.926   2.147   1.498
 2984SOL    HW1 8970   3.846   2.207   1.485
 2984SOL    HW2 8971   3.916   2.098   1.584
 2985SOL     OW 8972   4.188   3.605   0.323
 2985SOL    HW1 8973   4.221   3.644   0.409
 2985SOL    HW2 8974   4.264   3.598   0.258
 2986SOL     OW 8975   3.973   3.647   1.241
 2986SOL    HW1 8976   4.030   3.582   1.291
 2986SOL    HW2 8977   3.957   3.614   1.148
 2987SOL     OW 8978   4.106   2.562   0.480
 2987SOL    HW1 8979   4.151   2.472   0.477
 2987SOL    HW2 8980   4.012   2.551   0.513
 2988SOL     OW 8981   4.505   2.126   1.749
 2988SOL    HW1 8982   4.572   2.065   1.792
 2988SOL    HW2 8983   4.432   2.145   1.814
 2989SOL     OW 8984   4.527   3.264   0.924
 2989SOL    HW1 8985   4.617   3.278   0.882
 2989SOL    HW2 8986   4.456   3.266   0.853
 2990SOL     OW 8987   4.646   2.365   0.899
 2990SOL    HW1 8988   4.621   2.356   0.803
 2990SOL    HW2 8989   4.694   2.283   0.930
 2991SOL     OW 8990   4.263   1.926   0.512
 2991SOL    HW1 8991   4.182   1.927   0.570
 2991SOL    HW2 8992   4.266   2.009   0.457
 2992SOL     OW 8993   4.021   1.897   0.171
 2992SOL    HW1 8994   4.070   1.981   0.150
 2992SOL    HW2 8995   4.083   1.832   0.216
 2993SOL     OW 8996   4.951   3.432   0.793
 2993SOL    HW1 8997   4.972   3.506   0.728
 2993SOL    HW2 8998   5.019   3.432   0.866
 2994SOL     OW 8999   4.183   3.014   0.741
 2994SOL    HW1 9000   4.112   2.987   0.806
 2994SOL    HW2 9001   4.157   2.986   0.648
 2995SOL     OW 9002   3.802   2.418   1.386
 2995SOL    HW1 9003   3.894   2.417   1.345
 2995SOL    HW2 9004   3.796   2.492   1.453
 2996SOL     OW 9005   4.285   2.084   1.147
 2996SOL    HW1 9006   4.323   2.000   1.184
 2996SOL    HW2 9007   4.197   2.103   1.191
 2997SOL     OW 9008   4.212   3.247   0.174
 2997SOL    HW1 9009   4.125   3.232   0.221
 2997SOL    HW2 9010   4.195   3.273   0.079
 2998SOL     OW 9011   4.251   2.118   0.328
 2998SOL    HW1 9012   4.278   2.059   0.253
 2998SOL    HW2 9013   4.251   2.213   0.297
 2999SOL     OW 9014   4.639   1.951   1.402
 2999SOL    HW1 9015   4.664   1.931   1.307
 2999SOL    HW2 9016   4.711   2.007   1.444
 3000SOL     OW 9017   4.429   2.912   0.368
 3000SOL    HW1 9018   4.415   2.919   0.467
 3000SOL    HW2 9019   4.513   2.861   0.350
 3001SOL     OW 9020   4.134   2.675   1.251
 3001SOL    HW1 9021   4.220   2.687   1.301
 3001SOL    HW2 9022   4.092   2.588   1.278
 3002SOL     OW 9023   3.788   3.426   1.331
 3002SOL    HW1 9024   3.742   3.508   1.297
 3002SOL    HW2 9025   3.886   3.445   1.340
 3003SOL     OW 9026   4.091   2.962   0.501
 3003SOL    HW1 9027   4.084   3.045   0.445
 3003SOL    HW2 9028   4.095   2.882   0.441
 3004SOL     OW 9029   4.290   2.399   0.865
 3004SOL    HW1 9030   4.302   2.465   0.791
 3004SOL    HW2 9031   4.336   2.433   0.948
 3005SOL     OW 9032   4.078   3.372   1.329
 3005SOL    HW1 9033   4.057   3.328   1.242
 3005SOL    HW2 9034   4.175   3.398   1.332
 3006SOL     OW 9035   4.126   2.613   1.598
 3006SOL    HW1 9036   4.194   2.668   1.551
 3006SOL    HW2 9037   4.166   2.525   1.625
 3007SOL     OW 9038   4.228   1.912   1.740
 3007SOL    HW1 9039   4.186   1.855   1.670
 3007SOL    HW2 9040   4.162   1.981   1.772
 3008SOL     OW 9041   4.297   2.732   1.029
 3008SOL    HW1 9042   4.341   2.821   1.020
 3008SOL    HW2 9043   4.234   2.732   1.106
 3009SOL     OW 9044   4.933   2.387   0.275
 3009SOL    HW1 9045   4.946   2.303   0.329
 3009SOL    HW2 9046   4.904   2.461   0.335
 3010SOL     OW 9047   4.031   2.075   1.231
 3010SOL    HW1 9048   4.008   2.112   1.321
 3010SOL    HW2 9049   4.001   1.980   1.225
 3011SOL     OW 9050   3.761   3.172   1.282
 3011SOL    HW1 9051   3.814   3.123   1.350
 3011SOL    HW2 9052   3.783   3.270   1.287
 3012SOL     OW 9053   4.456   2.496   1.064
 3012SOL    HW1 9054   4.515   2.470   0.988
 3012SOL    HW2 9055   4.428   2.592   1.053
 3013SOL     OW 9056   4.031   1.925   0.618
 3013SOL    HW1 9057   4.020   2.019   0.651
 3013SOL    HW2 9058   4.026   1.862   0.695
 3014SOL     OW 9059   4.747   2.628   0.966
 3014SOL    HW1 9060   4.762   2.649   1.062
 3014SOL    HW2 9061   4.717   2.533   0.957
 3015SOL     OW 9062   4.704   3.435   1.700
 3015SOL    HW1 9063   4.684   3.479   1.612
 3015SOL    HW2 9064   4.743   3.344   1.684
 3016SOL     OW 9065   4.074   2.760   1.804
 3016SOL    HW1 9066   4.150   2.804   1.852
 3016SOL    HW2 9067   4.109   2.713   1.722
 3017SOL     OW 9068   4.043   2.672   0.949
 3017SOL    HW1 9069   4.136   2.708   0.954
 3017SOL    HW2 9070   4.037   2.587   1.001
 3018SOL     OW 9071   4.063   2.371   1.006
 3018SOL    HW1 9072   4.011   2.288   0.989
 3018SOL    HW2 9073   4.140   2.376   0.942
 3019SOL     OW 9074   3.732   3.188   0.200
 3019SOL    HW1 9075   3.639   3.209   0.169
 3019SOL    HW2 9076   3.742   3.089   0.213
 3020SOL     OW 9077   3.812   3.663   0.927
 3020SOL    HW1 9078   3.770   3.577   0.900
 3020SOL    HW2 9079   3.906   3.666   0.893
 3021SOL     OW 9080   4.228   3.430   0.910
 3021SOL    HW1 9081   4.294   3.504   0.919
 3021SOL    HW2 9082   4.272   3.351   0.868
 3022SOL     OW 9083   4.726   2.658   1.238
 3022SOL    HW1 9084   4.767   2.626   1.324
 3022SOL    HW2 9085   4.630   2.631   1.235
 3023SOL     OW 9086   3.764   2.406   1.114
 3023SOL    HW1 9087   3.849   2.373   1.073
 3023SOL    HW2 9088   3.777   2.421   1.212
 3024SOL     OW 9089   3.913   2.382   1.722
 3024SOL    HW1 9090   3.972   2.342   1.652
 3024SOL    HW2 9091   3.855   2.453   1.681
 3025SOL     OW 9092   4.539   2.434   0.325
 3025SOL    HW1 9093   4.546   2.345   0.279
 3025SOL    HW2 9094   4.445   2.468   0.317
 3026SOL     OW 9095   3.976   3.426   1.744
 3026SOL    HW1 9096   3.946   3.483   1.820
 3026SOL    HW2 9097   3.969   3.329   1.770
 3027SOL     OW 9098   4.395   2.326   1.269
 3027SOL    HW1 9099   4.361   2.237   1.239
 3027SOL    HW2 9100   4.421   2.380   1.189
 3028SOL     OW 9101   4.197   2.362   0.191
 3028SOL    HW1 9102   4.258   2.442   0.195
 3028SOL    HW2 9103   4.102   2.393   0.198
 3029SOL     OW 9104   3.883   2.999   1.466
 3029SOL    HW1 9105   3.905   2.938   1.542
 3029SOL    HW2 9106   3.893   2.950   1.380
 3030SOL     OW 9107   3.807   3.120   1.022
 3030SOL    HW1 9108   3.802   3.119   1.122
 3030SOL    HW2 9109   3.724   3.079   0.984
 3031SOL     OW 9110   4.412   3.524   1.716
 3031SOL    HW1 9111   4.356   3.605   1.725
 3031SOL    HW2 9112   4.464   3.528   1.630
 3032SOL     OW 9113   4.627   1.948   0.133
 3032SOL    HW1 9114   4.678   1.949   0.047
 3032SOL    HW2 9115   4.683   1.906   0.204
 3033SOL     OW 9116   3.854   3.656   1.851
 3033SOL    HW1 9117   3.813   3.582   1.904
 3033SOL    HW2 9118   3.918   3.707   1.909
 3034SOL     OW 9119   4.554   3.135   1.422
 3034SOL    HW1 9120   4.549   3.168   1.517
 3034SOL    HW2 9121   4.468   3.154   1.376
 3035SOL     OW 9122   4.396   3.478   0.154
 3035SOL    HW1 9123   4.405   3.488   0.055
 3035SOL    HW2 9124   4.356   3.389   0.175
 3036SOL     OW 9125   3.987   2.188   0.720
 3036SOL    HW1 9126   3.908   2.239   0.686
 3036SOL    HW2 9127   3.978   2.173   0.818
 3037SOL     OW 9128   4.918   3.474   0.031
 3037SOL    HW1 9129   4.924   3.381   0.068
 3037SOL    HW2 9130   4.859   3.474  -0.049
 3038SOL     OW 9131   4.546   2.864   1.372
 3038SOL    HW1 9132   4.586   2.863   1.280
 3038SOL    HW2 9133   4.556   2.956   1.412
 3039SOL     OW 9134   4.096   3.150   1.490
 3039SOL    HW1 9135   4.083   3.243   1.456
 3039SOL    HW2 9136   4.012   3.098   1.477
 3040SOL     OW 9137   4.314   3.349   0.491
 3040SOL    HW1 9138   4.356   3.291   0.421
 3040SOL    HW2 9139   4.270   3.428   0.447
 3041SOL     OW 9140   3.979   3.210   0.290
 3041SOL    HW1 9141   3.883   3.211   0.263
 3041SOL    HW2 9142   3.991   3.263   0.374
 3042SOL     OW 9143   3.829   2.875   1.726
 3042SOL    HW1 9144   3.752   2.842   1.780
 3042SOL    HW2 9145   3.914   2.845   1.768
 3043SOL     OW 9146   4.396   2.065   1.489
 3043SOL    HW1 9147   4.486   2.049   1.449
 3043SOL    HW2 9148   4.404   2.070   1.588
 3044SOL     OW 9149   3.796   2.028   0.318
 3044SOL    HW1 9150   3.779   2.111   0.264
 3044SOL    HW2 9151   3.886   1.991   0.296
 3045SOL     OW 9152   4.337   2.704   1.431
 3045SOL    HW1 9153   4.393   2.785   1.414
 3045SOL    HW2 9154   4.396   2.624   1.434
 3046SOL     OW 9155   4.440   2.427   1.708
 3046SOL    HW1 9156   4.459   2.492   1.782
 3046SOL    HW2 9157   4.500   2.347   1.717
 3047SOL     OW 9158   4.114   3.603   1.560
 3047SOL    HW1 9159   4.023   3.644   1.558
 3047SOL    HW2 9160   4.107   3.509   1.592
 3048SOL     OW 9161   4.949   2.187   0.449
 3048SOL    HW1 9162   5.014   2.113   0.438
 3048SOL    HW2 9163   4.969   2.237   0.533
 3049SOL     OW 9164   4.318   2.607   0.652
 3049SOL    HW1 9165   4.368   2.692   0.633
 3049SOL    HW2 9166   4.230   2.609   0.604
 3050SOL     OW 9167   4.385   3.652   0.953
 3050SOL    HW1 9168   4.339   3.740   0.940
 3050SOL    HW2 9169   4.484   3.664   0.946
 3051SOL     OW 9170   4.583   2.818   0.861
 3051SOL    HW1 9171   4.637   2.749   0.909
 3051SOL    HW2 9172   4.551   2.887   0.927
 3052SOL     OW 9173   4.807   2.846   0.087
 3052SOL    HW1 9174   4.784   2.899   0.005
 3052SOL    HW2 9175   4.888   2.790   0.068
 3053SOL     OW 9176   3.945   3.176   1.844
 3053SOL    HW1 9177   3.880   3.103   1.823
 3053SOL    HW2 9178   3.949   3.190   1.942
 3054SOL     OW 9179   3.803   3.102   0.653
 3054SOL    HW1 9180   3.802   3.055   0.741
 3054SOL    HW2 9181   3.885   3.074   0.602
 3055SOL     OW 9182   4.396   3.253   1.624
 3055SOL    HW1 9183   4.318   3.203   1.662
 3055SOL    HW2 9184   4.393   3.348   1.655
 3056SOL     OW 9185   4.152   2.286   0.520
 3056SOL    HW1 9186   4.182   2.214   0.458
 3056SOL    HW2 9187   4.113   2.246   0.603
 3057SOL     OW 9188   4.041   2.409   1.280
 3057SOL    HW1 9189   4.079   2.350   1.352
 3057SOL    HW2 9190   4.081   2.383   1.192
 3058SOL     OW 9191   4.536   3.448   0.687
 3058SOL    HW1 9192   4.568   3.458   0.593
 3058SOL    HW2 9193   4.457   3.386   0.689
 3059SOL     OW 9194   4.725   1.896   1.154
 3059SOL    HW1 9195   4.662   1.824   1.123
 3059SOL    HW2 9196   4.818   1.860   1.154
 3060SOL     OW 9197   4.494   3.192   0.301
 3060SOL    HW1 9198   4.448   3.105   0.318
 3060SOL    HW2 9199   4.585   3.189   0.342
 3061SOL     OW 9200   4.342   3.429   1.284
 3061SOL    HW1 9201   4.337   3.511   1.341
 3061SOL    HW2 9202   4.431   3.426   1.239
 3062SOL     OW 9203   3.763   2.939   0.300
 3062SOL    HW1 9204   3.862   2.928   0.291
 3062SOL    HW2 9205   3.723   2.853   0.332
 3063SOL     OW 9206   4.599   3.508   0.337
 3063SOL    HW1 9207   4.522   3.473   0.283
 3063SOL    HW2 9208   4.567   3.579   0.399
 3064SOL     OW 9209   3.954   2.490   1.975
 3064SOL    HW1 9210   3.861   2.488   2.012
 3064SOL    HW2 9211   3.955   2.451   1.883
 3065SOL     OW 9212   3.949   2.137   2.858
 3065SOL    HW1 9213   3.984   2.120   2.950
 3065SOL    HW2 9214   3.861   2.092   2.846
 3066SOL     OW 9215   3.743   2.230   2.509
 3066SOL    HW1 9216   3.661   2.273   2.548
 3066SOL    HW2 9217   3.715   2.157   2.446
 3067SOL     OW 9218   4.293   3.137   3.027
 3067SOL    HW1 9219   4.200   3.130   2.990
 3067SOL    HW2 9220   4.304   3.226   3.071
 3068SOL     OW 9221   4.492   3.006   2.885
 3068SOL    HW1 9222   4.414   3.023   2.945
 3068SOL    HW2 9223   4.526   3.093   2.849
 3069SOL     OW 9224   4.574   2.660   3.685
 3069SOL    HW1 9225   4.570   2.736   3.750
 3069SOL    HW2 9226   4.596   2.696   3.594
 3070SOL     OW 9227   4.409   2.874   2.527
 3070SOL    HW1 9228   4.478   2.858   2.597
 3070SOL    HW2 9229   4.336   2.931   2.565
 3071SOL     OW 9230   4.410   3.023   3.665
 3071SOL    HW1 9231   4.470   3.102   3.679
 3071SOL    HW2 9232   4.324   3.054   3.624
 3072SOL     OW 9233   4.059   3.297   2.923
 3072SOL    HW1 9234   3.981   3.266   2.870
 3072SOL    HW2 9235   4.117   3.355   2.866
 3073SOL     OW 9236   4.162   2.254   3.361
 3073SOL    HW1 9237   4.244   2.198   3.370
 3073SOL    HW2 9238   4.081   2.196   3.365
 3074SOL     OW 9239   3.955   3.575   2.345
 3074SOL    HW1 9240   3.989   3.652   2.399
 3074SOL    HW2 9241   3.999   3.575   2.255
 3075SOL     OW 9242   3.954   3.296   2.400
 3075SOL    HW1 9243   3.928   3.392   2.400
 3075SOL    HW2 9244   3.883   3.242   2.445
 3076SOL     OW 9245   3.964   2.953   2.748
 3076SOL    HW1 9246   3.978   2.869   2.800
 3076SOL    HW2 9247   3.909   3.017   2.803
 3077SOL     OW 9248   4.344   3.648   3.301
 3077SOL    HW1 9249   4.252   3.631   3.336
 3077SOL    HW2 9250   4.372   3.740   3.327
 3078SOL     OW 9251   4.330   2.826   1.985
 3078SOL    HW1 9252   4.337   2.910   1.931
 3078SOL    HW2 9253   4.376   2.839   2.073
 3079SOL     OW 9254   3.846   2.505   2.425
 3079SOL    HW1 9255   3.801   2.417   2.442
 3079SOL    HW2 9256   3.845   2.559   2.509
 3080SOL     OW 9257   3.751   3.458   1.979
 3080SOL    HW1 9258   3.732   3.362   2.000
 3080SOL    HW2 9259   3.718   3.516   2.054
 3081SOL     OW 9260   3.837   2.599   3.459
 3081SOL    HW1 9261   3.925   2.586   3.504
 3081SOL    HW2 9262   3.824   2.696   3.437
 3082SOL     OW 9263   4.337   3.227   2.588
 3082SOL    HW1 9264   4.288   3.140   2.597
 3082SOL    HW2 9265   4.314   3.270   2.501
 3083SOL     OW 9266   4.533   1.866   2.364
 3083SOL    HW1 9267   4.573   1.957   2.355
 3083SOL    HW2 9268   4.433   1.874   2.370
 3084SOL     OW 9269   3.921   2.838   3.126
 3084SOL    HW1 9270   4.010   2.793   3.112
 3084SOL    HW2 9271   3.848   2.773   3.107
 3085SOL     OW 9272   4.041   2.113   3.663
 3085SOL    HW1 9273   4.112   2.184   3.669
 3085SOL    HW2 9274   3.953   2.152   3.691
 3086SOL     OW 9275   4.322   2.591   2.132
 3086SOL    HW1 9276   4.346   2.660   2.064
 3086SOL    HW2 9277   4.244   2.624   2.186
 3087SOL     OW 9278   4.531   2.467   3.327
 3087SOL    HW1 9279   4.484   2.464   3.416
 3087SOL    HW2 9280   4.480   2.412   3.261
 3088SOL     OW 9281   4.715   2.272   3.104
 3088SOL    HW1 9282   4.638   2.306   3.158
 3088SOL    HW2 9283   4.681   2.221   3.025
 3089SOL     OW 9284   3.800   2.673   2.651
 3089SOL    HW1 9285   3.899   2.661   2.660
 3089SOL    HW2 9286   3.776   2.768   2.672
 3090SOL     OW 9287   3.854   3.683   3.433
 3090SOL    HW1 9288   3.844   3.668   3.532
 3090SOL    HW2 9289   3.768   3.719   3.397
 3091SOL     OW 9290   4.589   2.210   2.057
 3091SOL    HW1 9291   4.648   2.273   2.008
 3091SOL    HW2 9292   4.608   2.116   2.028
 3092SOL     OW 9293   4.274   2.058   2.747
 3092SOL    HW1 9294   4.269   2.053   2.847
 3092SOL    HW2 9295   4.276   2.154   2.718
 3093SOL     OW 9296   4.732   3.318   2.339
 3093SOL    HW1 9297   4.686   3.390   2.287
 3093SOL    HW2 9298   4.728   3.338   2.437
 3094SOL     OW 9299   4.075   3.663   2.715
 3094SOL    HW1 9300   4.125   3.577   2.721
 3094SOL    HW2 9301   4.140   3.740   2.712
 3095SOL     OW 9302   4.045   2.805   2.104
 3095SOL    HW1 9303   4.127   2.844   2.062
 3095SOL    HW2 9304   4.018   2.723   2.055
 3096SOL     OW 9305   4.185   3.128   3.589
 3096SOL    HW1 9306   4.135   3.129   3.503
 3096SOL    HW2 9307   4.122   3.110   3.665
 3097SOL     OW 9308   3.926   2.147   3.360
 3097SOL    HW1 9309   3.846   2.207   3.347
 3097SOL    HW2 9310   3.916   2.098   3.446
 3098SOL     OW 9311   4.188   3.605   2.185
 3098SOL    HW1 9312   4.221   3.644   2.271
 3098SOL    HW2 9313   4.264   3.598   2.120
 3099SOL     OW 9314   3.973   3.647   3.103
 3099SOL    HW1 9315   4.030   3.582   3.153
 3099SOL    HW2 9316   3.957   3.614   3.010
 3100SOL     OW 9317   4.106   2.562   2.342
 3100SOL    HW1 9318   4.151   2.472   2.339
 3100SOL    HW2 9319   4.012   2.551   2.375
 3101SOL     OW 9320   4.338   1.984   1.979
 3101SOL    HW1 9321   4.436   1.962   1.986
 3101SOL    HW2 9322   4.307   1.967   1.886
 3102SOL     OW 9323   4.505   2.126   3.611
 3102SOL    HW1 9324   4.572   2.065   3.654
 3102SOL    HW2 9325   4.432   2.145   3.676
 3103SOL     OW 9326   4.527   3.264   2.786
 3103SOL    HW1 9327   4.617   3.278   2.744
 3103SOL    HW2 9328   4.456   3.266   2.715
 3104SOL     OW 9329   4.646   2.365   2.761
 3104SOL    HW1 9330   4.621   2.356   2.665
 3104SOL    HW2 9331   4.694   2.283   2.792
 3105SOL     OW 9332   4.263   1.926   2.374
 3105SOL    HW1 9333   4.182   1.927   2.432
 3105SOL    HW2 9334   4.266   2.009   2.319
 3106SOL     OW 9335   4.021   1.897   2.033
 3106SOL    HW1 9336   4.070   1.981   2.012
 3106SOL    HW2 9337   4.083   1.832   2.078
 3107SOL     OW 9338   4.951   3.432   2.655
 3107SOL    HW1 9339   4.972   3.506   2.590
 3107SOL    HW2 9340   5.019   3.432   2.728
 3108SOL     OW 9341   4.183   3.014   2.603
 3108SOL    HW1 9342   4.112   2.987   2.668
 3108SOL    HW2 9343   4.157   2.986   2.510
 3109SOL     OW 9344   3.802   2.418   3.248
 3109SOL    HW1 9345   3.894   2.417   3.207
 3109SOL    HW2 9346   3.796   2.492   3.315
 3110SOL     OW 9347   4.285   2.084   3.009
 3110SOL    HW1 9348   4.323   2.000   3.046
 3110SOL    HW2 9349   4.197   2.103   3.053
 3111SOL     OW 9350   4.212   3.247   2.036
 3111SOL    HW1 9351   4.125   3.232   2.083
 3111SOL    HW2 9352   4.195   3.273   1.941
 3112SOL     OW 9353   4.251   2.118   2.190
 3112SOL    HW1 9354   4.278   2.059   2.115
 3112SOL    HW2 9355   4.251   2.213   2.159
 3113SOL     OW 9356   4.639   1.951   3.264
 3113SOL    HW1 9357   4.664   1.931   3.169
 3113SOL    HW2 9358   4.711   2.007   3.306
 3114SOL     OW 9359   4.429   2.912   2.230
 3114SOL    HW1 9360   4.415   2.919   2.329
 3114SOL    HW2 9361   4.513   2.861   2.212
 3115SOL     OW 9362   4.134   2.675   3.113
 3115SOL    HW1 9363   4.220   2.687   3.163
 3115SOL    HW2 9364   4.092   2.588   3.140
 3116SOL     OW 9365   3.788   3.426   3.193
 3116SOL    HW1 9366   3.742   3.508   3.159
 3116SOL    HW2 9367   3.886   3.445   3.202
 3117SOL     OW 9368   4.091   2.962   2.363
 3117SOL    HW1 9369   4.084   3.045   2.307
 3117SOL    HW2 9370   4.095   2.882   2.303
 3118SOL     OW 9371   4.290   2.399   2.727
 3118SOL    HW1 9372   4.302   2.465   2.653
 3118SOL    HW2 9373   4.336   2.433   2.810
 3119SOL     OW 9374   4.078   3.372   3.191
 3119SOL    HW1 9375   4.057   3.328   3.104
 3119SOL    HW2 9376   4.175   3.398   3.194
 3120SOL     OW 9377   4.126   2.613   3.460
 3120SOL    HW1 9378   4.194   2.668   3.413
 3120SOL    HW2 9379   4.166   2.525   3.487
 3121SOL     OW 9380   4.228   1.912   3.602
 3121SOL    HW1 9381   4.186   1.855   3.532
 3121SOL    HW2 9382   4.162   1.981   3.634
 3122SOL     OW 9383   4.297   2.732   2.891
 3122SOL    HW1 9384   4.341   2.821   2.882
 3122SOL    HW2 9385   4.234   2.732   2.968
 3123SOL     OW 9386   4.933   2.387   2.137
 3123SOL    HW1 9387   4.946   2.303   2.191
 3123SOL    HW2 9388   4.904   2.461   2.197
 3124SOL     OW 9389   4.031   2.075   3.093
 3124SOL    HW1 9390   4.008   2.112   3.183
 3124SOL    HW2 9391   4.001   1.980   3.087
 3125SOL     OW 9392   3.761   3.172   3.144
 3125SOL    HW1 9393   3.814   3.123   3.212
 3125SOL    HW2 9394   3.783   3.270   3.149
 3126SOL     OW 9395   4.456   2.496   2.926
 3126SOL    HW1 9396   4.515   2.470   2.850
 3126SOL    HW2 9397   4.428   2.592   2.915
 3127SOL     OW 9398   4.031   1.925   2.480
 3127SOL    HW1 9399   4.020   2.019   2.513
 3127SOL    HW2 9400   4.026   1.862   2.557
 3128SOL     OW 9401   4.747   2.628   2.828
 3128SOL    HW1 9402   4.762   2.649   2.924
 3128SOL    HW2 9403   4.717   2.533   2.819
 3129SOL     OW 9404   4.704   3.435   3.562
 3129SOL    HW1 9405   4.684   3.479   3.474
 3129SOL    HW2 9406   4.743   3.344   3.546
 3130SOL     OW 9407   4.074   2.760   3.666
 3130SOL    HW1 9408   4.150   2.804   3.714
 3130SOL    HW2 9409   4.109   2.713   3.584
 3131SOL     OW 9410   4.043   2.672   2.811
 3131SOL    HW1 9411   4.136   2.708   2.816
 3131SOL    HW2 9412   4.037   2.587   2.863
 3132SOL     OW 9413   4.063   2.371   2.868
 3132SOL    HW1 9414   4.011   2.288   2.851
 3132SOL    HW2 9415   4.140   2.376   2.804
 3133SOL     OW 9416   3.732   3.188   2.062
 3133SOL    HW1 9417   3.639   3.209   2.031
 3133SOL    HW2 9418   3.742   3.089   2.075
 3134SOL     OW 9419   3.812   3.663   2.789
 3134SOL    HW1 9420   3.770   3.577   2.762
 3134SOL    HW2 9421   3.906   3.666   2.755
 3135SOL     OW 9422   4.228   3.430   2.772
 3135SOL    HW1 9423   4.294   3.504   2.781
 3135SOL    HW2 9424   4.272   3.351   2.730
 3136SOL     OW 9425   4.726   2.658   3.100
 3136SOL    HW1 9426   4.767   2.626   3.186
 3136SOL    HW2 9427   4.630   2.631   3.097
 3137SOL     OW 9428   3.764   2.406   2.976
 3137SOL    HW1 9429   3.849   2.373   2.935
 3137SOL    HW2 9430   3.777   2.421   3.074
 3138SOL     OW 9431   3.913   2.382   3.584
 3138SOL    HW1 9432   3.972   2.342   3.514
 3138SOL    HW2 9433   3.855   2.453   3.543
 3139SOL     OW 9434   4.539   2.434   2.187
 3139SOL    HW1 9435   4.546   2.345   2.141
 3139SOL    HW2 9436   4.445   2.468   2.179
 3140SOL     OW 9437   3.976   3.426   3.606
 3140SOL    HW1 9438   3.946   3.483   3.682
 3140SOL    HW2 9439   3.969   3.329   3.632
 3141SOL     OW 9440   4.395   2.326   3.131
 3141SOL    HW1 9441   4.361   2.237   3.101
 3141SOL    HW2 9442   4.421   2.380   3.051
 3142SOL     OW 9443   4.197   2.362   2.053
 3142SOL    HW1 9444   4.258   2.442   2.057
 3142SOL    HW2 9445   4.102   2.393   2.060
 3143SOL     OW 9446   3.883   2.999   3.328
 3143SOL    HW1 9447   3.905   2.938   3.404
 3143SOL    HW2 9448   3.893   2.950   3.242
 3144SOL     OW 9449   3.807   3.120   2.884
 3144SOL    HW1 9450   3.802   3.119   2.984
 3144SOL    HW2 9451   3.724   3.079   2.846
 3145SOL     OW 9452   4.412   3.524   3.578
 3145SOL    HW1 9453   4.356   3.605   3.587
 3145SOL    HW2 9454   4.464   3.528   3.492
 3146SOL     OW 9455   4.627   1.948   1.995
 3146SOL    HW1 9456   4.678   1.949   1.909
 3146SOL    HW2 9457   4.683   1.906   2.066
 3147SOL     OW 9458   3.854   3.656   3.713
 3147SOL    HW1 9459   3.813   3.582   3.766
 3147SOL    HW2 9460   3.918   3.707   3.771
 3148SOL     OW 9461   4.554   3.135   3.284
 3148SOL    HW1 9462   4.549   3.168   3.379
 3148SOL    HW2 9463   4.468   3.154   3.238
 3149SOL     OW 9464   4.396   3.478   2.016
 3149SOL    HW1 9465   4.405   3.488   1.917
 3149SOL    HW2 9466   4.356   3.389   2.037
 3150SOL     OW 9467   3.987   2.188   2.582
 3150SOL    HW1 9468   3.908   2.239   2.548
 3150SOL    HW2 9469   3.978   2.173   2.680
 3151SOL     OW 9470   4.546   2.864   3.234
 3151SOL    HW1 9471   4.586   2.863   3.142
 3151SOL    HW2 9472   4.556   2.956   3.274
 3152SOL     OW 9473   4.096   3.150   3.352
 3152SOL    HW1 9474   4.083   3.243   3.318
 3152SOL    HW2 9475   4.012   3.098   3.339
 3153SOL     OW 9476   4.314   3.349   2.353
 3153SOL    HW1 9477   4.356   3.291   2.283
 3153SOL    HW2 9478   4.270   3.428   2.309
 3154SOL     OW 9479   3.979   3.210   2.152
 3154SOL    HW1 9480   3.883   3.211   2.125
 3154SOL    HW2 9481   3.991   3.263   2.236
 3155SOL     OW 9482   3.829   2.875   3.588
 3155SOL    HW1 9483   3.752   2.842   3.642
 3155SOL    HW2 9484   3.914   2.845   3.630
 3156SOL     OW 9485   4.396   2.065   3.351
 3156SOL    HW1 9486   4.486   2.049   3.311
 3156SOL    HW2 9487   4.404   2.070   3.450
 3157SOL     OW 9488   3.799   2.207   1.895
 3157SOL    HW1 9489   3.707   2.179   1.866
 3157SOL    HW2 9490   3.830   2.284   1.839
 3158SOL     OW 9491   3.796   2.028   2.180
 3158SOL    HW1 9492   3.779   2.111   2.126
 3158SOL    HW2 9493   3.886   1.991   2.158
 3159SOL     OW 9494   4.337   2.704   3.293
 3159SOL    HW1 9495   4.393   2.785   3.276
 3159SOL    HW2 9496   4.396   2.624   3.296
 3160SOL     OW 9497   4.440   2.427   3.570
 3160SOL    HW1 9498   4.459   2.492   3.644
 3160SOL    HW2 9499   4.500   2.347   3.579
 3161SOL     OW 9500   4.114   3.603   3.422
 3161SOL    HW1 9501   4.023   3.644   3.420
 3161SOL    HW2 9502   4.107   3.509   3.454
 3162SOL     OW 9503   4.949   2.187   2.311
 3162SOL    HW1 9504   5.014   2.113   2.300
 3162SOL    HW2 9505   4.969   2.237   2.395
 3163SOL     OW 9506   4.318   2.607   2.514
 3163SOL    HW1 9507   4.368   2.692   2.495
 3163SOL    HW2 9508   4.230   2.609   2.466
 3164SOL     OW 9509   4.385   3.652   2.815
 3164SOL    HW1 9510   4.339   3.740   2.802
 3164SOL    HW2 9511   4.484   3.664   2.808
 3165SOL     OW 9512   4.583   2.818   2.723
 3165SOL    HW1 9513   4.637   2.749   2.771
 3165SOL    HW2 9514   4.551   2.887   2.789
 3166SOL     OW 9515   3.945   3.176   3.706
 3166SOL    HW1 9516   3.880   3.103   3.685
 3166SOL    HW2 9517   3.949   3.190   3.804
 3167SOL     OW 9518   3.803   3.102   2.515
 3167SOL    HW1 9519   3.802   3.055   2.603
 3167SOL    HW2 9520   3.885   3.074   2.464
 3168SOL     OW 9521   4.396   3.253   3.486
 3168SOL    HW1 9522   4.318   3.203   3.524
 3168SOL    HW2 9523   4.393   3.348   3.517
 3169SOL     OW 9524   4.152   2.286   2.382
 3169SOL    HW1 9525   4.182   2.214   2.320
 3169SOL    HW2 9526   4.113   2.246   2.465
 3170SOL     OW 9527   4.041   2.409   3.142
 3170SOL    HW1 9528   4.079   2.350   3.214
 3170SOL    HW2 9529   4.081   2.383   3.054
 3171SOL     OW 9530   4.536   3.448   2.549
 3171SOL    HW1 9531   4.568   3.458   2.455
 3171SOL    HW2 9532   4.457   3.386   2.551
 3172SOL     OW 9533   4.725   1.896   3.016
 3172SOL    HW1 9534   4.662   1.824   2.985
 3172SOL    HW2 9535   4.818   1.860   3.016
 3173SOL     OW 9536   4.494   3.192   2.163
 3173SOL    HW1 9537   4.448   3.105   2.180
 3173SOL    HW2 9538   4.585   3.189   2.204
 3174SOL     OW 9539   4.342   3.429   3.146
 3174SOL    HW1 9540   4.337   3.511   3.203
 3174SOL    HW2 9541   4.431   3.426   3.101
 3175SOL     OW 9542   3.763   2.939   2.162
 3175SOL    HW1 9543   3.862   2.928   2.153
 3175SOL    HW2 9544   3.723   2.853   2.194
 3176SOL     OW 9545   4.599   3.508   2.199
 3176SOL    HW1 9546   4.522   3.473   2.145
 3176SOL    HW2 9547   4.567   3.579   2.261
 3177SOL     OW 9548   3.954   2.490   3.837
 3177SOL    HW1 9549   3.861   2.488   3.874
 3177SOL    HW2 9550   3.955   2.451   3.745
 3178SOL     OW 9551   3.949   2.137   4.720
 3178SOL    HW1 9552   3.984   2.120   4.812
 3178SOL    HW2 9553   3.861   2.092   4.708
 3179SOL     OW 9554   3.743   2.230   4.371
 3179SOL    HW1 9555   3.661   2.273   4.410
 3179SOL    HW2 9556   3.715   2.157   4.308
 3180SOL     OW 9557   4.492   3.006   4.747
 3180SOL    HW1 9558   4.414   3.023   4.807
 3180SOL    HW2 9559   4.526   3.093   4.711
 3181SOL     OW 9560   4.409   2.874   4.389
 3181SOL    HW1 9561   4.478   2.858   4.459
 3181SOL    HW2 9562   4.336   2.931   4.427
 3182SOL     OW 9563   3.955   3.575   4.207
 3182SOL    HW1 9564   3.989   3.652   4.261
 3182SOL    HW2 9565   3.999   3.575   4.117
 3183SOL     OW 9566   3.954   3.296   4.262
 3183SOL    HW1 9567   3.928   3.392   4.262
 3183SOL    HW2 9568   3.883   3.242   4.307
 3184SOL     OW 9569   3.964   2.953   4.610
 3184SOL    HW1 9570   3.978   2.869   4.662
 3184SOL    HW2 9571   3.909   3.017   4.665
 3185SOL     OW 9572   4.330   2.826   3.847
 3185SOL    HW1 9573   4.337   2.910   3.793
 3185SOL    HW2 9574   4.376   2.839   3.935
 3186SOL     OW 9575   3.846   2.505   4.287
 3186SOL    HW1 9576   3.801   2.417   4.304
 3186SOL    HW2 9577   3.845   2.559   4.371
 3187SOL     OW 9578   3.751   3.458   3.841
 3187SOL    HW1 9579   3.732   3.362   3.862
 3187SOL    HW2 9580   3.718   3.516   3.916
 3188SOL     OW 9581   4.337   3.227   4.450
 3188SOL    HW1 9582   4.288   3.140   4.459
 3188SOL    HW2 9583   4.314   3.270   4.363
 3189SOL     OW 9584   4.533   1.866   4.226
 3189SOL    HW1 9585   4.573   1.957   4.217
 3189SOL    HW2 9586   4.433   1.874   4.232
 3190SOL     OW 9587   4.322   2.591   3.994
 3190SOL    HW1 9588   4.346   2.660   3.926
 3190SOL    HW2 9589   4.244   2.624   4.048
 3191SOL     OW 9590   3.800   2.673   4.513
 3191SOL    HW1 9591   3.899   2.661   4.522
 3191SOL    HW2 9592   3.776   2.768   4.534
 3192SOL     OW 9593   4.589   2.210   3.919
 3192SOL    HW1 9594   4.648   2.273   3.870
 3192SOL    HW2 9595   4.608   2.116   3.890
 3193SOL     OW 9596   4.274   2.058   4.609
 3193SOL    HW1 9597   4.269   2.053   4.709
 3193SOL    HW2 9598   4.276   2.154   4.580
 3194SOL     OW 9599   4.732   3.318   4.201
 3194SOL    HW1 9600   4.686   3.390   4.149
 3194SOL    HW2 9601   4.728   3.338   4.299
 3195SOL     OW 9602   4.075   3.663   4.577
 3195SOL    HW1 9603   4.125   3.577   4.583
 3195SOL    HW2 9604   4.140   3.740   4.574
 3196SOL     OW 9605   4.045   2.805   3.966
 3196SOL    HW1 9606   4.127   2.844   3.924
 3196SOL    HW2 9607   4.018   2.723   3.917
 3197SOL     OW 9608   4.188   3.605   4.047
 3197SOL    HW1 9609   4.221   3.644   4.133
 3197SOL    HW2 9610   4.264   3.598   3.982
 3198SOL     OW 9611   4.106   2.562   4.204
 3198SOL    HW1 9612   4.151   2.472   4.201
 3198SOL    HW2 9613   4.012   2.551   4.237
 3199SOL     OW 9614   4.338   1.984   3.841
 3199SOL    HW1 9615   4.436   1.962   3.848
 3199SOL    HW2 9616   4.307   1.967   3.748
 3200SOL     OW 9617   4.527   3.264   4.648
 3200SOL    HW1 9618   4.617   3.278   4.606
 3200SOL    HW2 9619   4.456   3.266   4.577
 3201SOL     OW 9620   4.263   1.926   4.236
 3201SOL    HW1 9621   4.182   1.927   4.294
 3201SOL    HW2 9622   4.266   2.009   4.181
 3202SOL     OW 9623   4.021   1.897   3.895
 3202SOL    HW1 9624   4.070   1.981   3.874
 3202SOL    HW2 9625   4.083   1.832   3.940
 3203SOL     OW 9626   4.951   3.432   4.517
 3203SOL    HW1 9627   4.972   3.506   4.452
 3203SOL    HW2 9628   5.019   3.432   4.590
 3204SOL     OW 9629   4.183   3.014   4.465
 3204SOL    HW1 9630   4.112   2.987   4.530
 3204SOL    HW2 9631   4.157   2.986   4.372
 3205SOL     OW 9632   4.212   3.247   3.898
 3205SOL    HW1 9633   4.125   3.232   3.945
 3205SOL    HW2 9634   4.195   3.273   3.803
 3206SOL     OW 9635   4.251   2.118   4.052
 3206SOL    HW1 9636   4.278   2.059   3.977
 3206SOL    HW2 9637   4.251   2.213   4.021
 3207SOL     OW 9638   4.429   2.912   4.092
 3207SOL    HW1 9639   4.415   2.919   4.191
 3207SOL    HW2 9640   4.513   2.861   4.074
 3208SOL     OW 9641   4.091   2.962   4.225
 3208SOL    HW1 9642   4.084   3.045   4.169
 3208SOL    HW2 9643   4.095   2.882   4.165
 3209SOL     OW 9644   4.290   2.399   4.589
 3209SOL    HW1 9645   4.302   2.465   4.515
 3209SOL    HW2 9646   4.336   2.433   4.672
 3210SOL     OW 9647   4.933   2.387   3.999
 3210SOL    HW1 9648   4.946   2.303   4.053
 3210SOL    HW2 9649   4.904   2.461   4.059
 3211SOL     OW 9650   4.456   2.496   4.788
 3211SOL    HW1 9651   4.515   2.470   4.712
 3211SOL    HW2 9652   4.428   2.592   4.777
 3212SOL     OW 9653   4.031   1.925   4.342
 3212SOL    HW1 9654   4.020   2.019   4.375
 3212SOL    HW2 9655   4.026   1.862   4.419
 3213SOL     OW 9656   4.747   2.628   4.690
 3213SOL    HW1 9657   4.762   2.649   4.786
 3213SOL    HW2 9658   4.717   2.533   4.681
 3214SOL     OW 9659   4.043   2.672   4.673
 3214SOL    HW1 9660   4.136   2.708   4.678
 3214SOL    HW2 9661   4.037   2.587   4.725
 3215SOL     OW 9662   3.732   3.188   3.924
 3215SOL    HW1 9663   3.639   3.209   3.893
 3215SOL    HW2 9664   3.742   3.089   3.937
 3216SOL     OW 9665   3.812   3.663   4.651
 3216SOL    HW1 9666   3.770   3.577   4.624
 3216SOL    HW2 9667   3.906   3.666   4.617
 3217SOL     OW 9668   4.228   3.430   4.634
 3217SOL    HW1 9669   4.294   3.504   4.643
 3217SOL    HW2 9670   4.272   3.351   4.592
 3218SOL     OW 9671   4.726   2.658   4.962
 3218SOL    HW1 9672   4.767   2.626   5.048
 3218SOL    HW2 9673   4.630   2.631   4.959
 3219SOL     OW 9674   4.539   2.434   4.049
 3219SOL    HW1 9675   4.546   2.345   4.003
 3219SOL    HW2 9676   4.445   2.468   4.041
 3220SOL     OW 9677   4.197   2.362   3.915
 3220SOL    HW1 9678   4.258   2.442   3.919
 3220SOL    HW2 9679   4.102   2.393   3.922
 3221SOL     OW 9680   4.627   1.948   3.857
 3221SOL    HW1 9681   4.678   1.949   3.771
 3221SOL    HW2 9682   4.683   1.906   3.928
 3222SOL     OW 9683   4.396   3.478   3.878
 3222SOL    HW1 9684   4.405   3.488   3.779
 3222SOL    HW2 9685   4.356   3.389   3.899
 3223SOL     OW 9686   3.987   2.188   4.444
 3223SOL    HW1 9687   3.908   2.239   4.410
 3223SOL    HW2 9688   3.978   2.173   4.542
 3224SOL     OW 9689   4.314   3.349   4.215
 3224SOL    HW1 9690   4.356   3.291   4.145
 3224SOL    HW2 9691   4.270   3.428   4.171
 3225SOL     OW 9692   3.979   3.210   4.014
 3225SOL    HW1 9693   3.883   3.211   3.987
 3225SOL    HW2 9694   3.991   3.263   4.098
 3226SOL     OW 9695   3.799   2.207   3.757
 3226SOL    HW1 9696   3.707   2.179   3.728
 3226SOL    HW2 9697   3.830   2.284   3.701
 3227SOL     OW 9698   3.796   2.028   4.042
 3227SOL    HW1 9699   3.779   2.111   3.988
 3227SOL    HW2 9700   3.886   1.991   4.020
 3228SOL     OW 9701   4.949   2.187   4.173
 3228SOL    HW1 9702   5.014   2.113   4.162
 3228SOL    HW2 9703   4.969   2.237   4.257
 3229SOL     OW 9704   4.318   2.607   4.376
 3229SOL    HW1 9705   4.368   2.692   4.357
 3229SOL    HW2 9706   4.230   2.609   4.328
 3230SOL     OW 9707   4.385   3.652   4.677
 3230SOL    HW1 9708   4.339   3.740   4.664
 3230SOL    HW2 9709   4.484   3.664   4.670
 3231SOL     OW 9710   4.583   2.818   4.585
 3231SOL    HW1 9711   4.637   2.749   4.633
 3231SOL    HW2 9712   4.551   2.887   4.651
 3232SOL     OW 9713   3.803   3.102   4.377
 3232SOL    HW1 9714   3.802   3.055   4.465
 3232SOL    HW2 9715   3.885   3.074   4.326
 3233SOL     OW 9716   4.152   2.286   4.244
 3233SOL    HW1 9717   4.182   2.214   4.182
 3233SOL    HW2 9718   4.113   2.246   4.327
 3234SOL     OW 9719   4.536   3.448   4.411
 3234SOL    HW1 9720   4.568   3.458   4.317
 3234SOL    HW2 9721   4.457   3.386   4.413
 3235SOL     OW 9722   4.494   3.192   4.025
 3235SOL    HW1 9723   4.448   3.105   4.042
 3235SOL    HW2 9724   4.585   3.189   4.066
 3236SOL     OW 9725   3.763   2.939   4.024
 3236SOL    HW1 9726   3.862   2.928   4.015
 3236SOL    HW2 9727   3.723   2.853   4.056
 3237SOL     OW 9728   4.599   3.508   4.061
 3237SOL    HW1 9729   4.522   3.473   4.007
 3237SOL    HW2 9730   4.567   3.579   4.123
 3238SOL     OW 9731   3.954   4.352   0.113
 3238SOL    HW1 9732   3.861   4.350   0.150
 3238SOL    HW2 9733   3.955   4.313   0.021
 3239SOL     OW 9734   3.949   3.999   0.996
 3239SOL    HW1 9735   3.984   3.982   1.088
 3239SOL    HW2 9736   3.861   3.954   0.984
 3240SOL     OW 9737   3.743   4.092   0.647
 3240SOL    HW1 9738   3.661   4.135   0.686
 3240SOL    HW2 9739   3.715   4.019   0.584
 3241SOL     OW 9740   4.574   4.522   1.823
 3241SOL    HW1 9741   4.570   4.598   1.888
 3241SOL    HW2 9742   4.596   4.558   1.732
 3242SOL     OW 9743   4.409   4.736   0.665
 3242SOL    HW1 9744   4.478   4.720   0.735
 3242SOL    HW2 9745   4.336   4.793   0.703
 3243SOL     OW 9746   4.162   4.116   1.499
 3243SOL    HW1 9747   4.244   4.060   1.508
 3243SOL    HW2 9748   4.081   4.058   1.503
 3244SOL     OW 9749   3.846   4.367   0.563
 3244SOL    HW1 9750   3.801   4.279   0.580
 3244SOL    HW2 9751   3.845   4.421   0.647
 3245SOL     OW 9752   3.837   4.461   1.597
 3245SOL    HW1 9753   3.925   4.448   1.642
 3245SOL    HW2 9754   3.824   4.558   1.575
 3246SOL     OW 9755   4.533   3.728   0.502
 3246SOL    HW1 9756   4.573   3.819   0.493
 3246SOL    HW2 9757   4.433   3.736   0.508
 3247SOL     OW 9758   4.041   3.975   1.801
 3247SOL    HW1 9759   4.112   4.046   1.807
 3247SOL    HW2 9760   3.953   4.014   1.829
 3248SOL     OW 9761   4.322   4.453   0.270
 3248SOL    HW1 9762   4.346   4.522   0.202
 3248SOL    HW2 9763   4.244   4.486   0.324
 3249SOL     OW 9764   4.531   4.329   1.465
 3249SOL    HW1 9765   4.484   4.326   1.554
 3249SOL    HW2 9766   4.480   4.274   1.399
 3250SOL     OW 9767   4.715   4.134   1.242
 3250SOL    HW1 9768   4.638   4.168   1.296
 3250SOL    HW2 9769   4.681   4.083   1.163
 3251SOL     OW 9770   3.800   4.535   0.789
 3251SOL    HW1 9771   3.899   4.523   0.798
 3251SOL    HW2 9772   3.776   4.630   0.810
 3252SOL     OW 9773   4.589   4.072   0.195
 3252SOL    HW1 9774   4.648   4.135   0.146
 3252SOL    HW2 9775   4.608   3.978   0.166
 3253SOL     OW 9776   4.274   3.920   0.885
 3253SOL    HW1 9777   4.269   3.915   0.985
 3253SOL    HW2 9778   4.276   4.016   0.856
 3254SOL     OW 9779   3.926   4.009   1.498
 3254SOL    HW1 9780   3.846   4.069   1.485
 3254SOL    HW2 9781   3.916   3.960   1.584
 3255SOL     OW 9782   4.106   4.424   0.480
 3255SOL    HW1 9783   4.151   4.334   0.477
 3255SOL    HW2 9784   4.012   4.413   0.513
 3256SOL     OW 9785   4.505   3.988   1.749
 3256SOL    HW1 9786   4.572   3.927   1.792
 3256SOL    HW2 9787   4.432   4.007   1.814
 3257SOL     OW 9788   4.646   4.227   0.899
 3257SOL    HW1 9789   4.621   4.218   0.803
 3257SOL    HW2 9790   4.694   4.145   0.930
 3258SOL     OW 9791   4.263   3.788   0.512
 3258SOL    HW1 9792   4.182   3.789   0.570
 3258SOL    HW2 9793   4.266   3.871   0.457
 3259SOL     OW 9794   4.021   3.759   0.171
 3259SOL    HW1 9795   4.070   3.843   0.150
 3259SOL    HW2 9796   4.083   3.694   0.216
 3260SOL     OW 9797   3.802   4.280   1.386
 3260SOL    HW1 9798   3.894   4.279   1.345
 3260SOL    HW2 9799   3.796   4.354   1.453
 3261SOL     OW 9800   4.285   3.946   1.147
 3261SOL    HW1 9801   4.323   3.862   1.184
 3261SOL    HW2 9802   4.197   3.965   1.191
 3262SOL     OW 9803   4.251   3.980   0.328
 3262SOL    HW1 9804   4.278   3.921   0.253
 3262SOL    HW2 9805   4.251   4.075   0.297
 3263SOL     OW 9806   4.639   3.813   1.402
 3263SOL    HW1 9807   4.664   3.793   1.307
 3263SOL    HW2 9808   4.711   3.869   1.444
 3264SOL     OW 9809   4.134   4.537   1.251
 3264SOL    HW1 9810   4.220   4.549   1.301
 3264SOL    HW2 9811   4.092   4.450   1.278
 3265SOL     OW 9812   4.290   4.261   0.865
 3265SOL    HW1 9813   4.302   4.327   0.791
 3265SOL    HW2 9814   4.336   4.295   0.948
 3266SOL     OW 9815   4.126   4.475   1.598
 3266SOL    HW1 9816   4.194   4.530   1.551
 3266SOL    HW2 9817   4.166   4.387   1.625
 3267SOL     OW 9818   4.228   3.774   1.740
 3267SOL    HW1 9819   4.186   3.717   1.670
 3267SOL    HW2 9820   4.162   3.843   1.772
 3268SOL     OW 9821   4.297   4.594   1.029
 3268SOL    HW1 9822   4.341   4.683   1.020
 3268SOL    HW2 9823   4.234   4.594   1.106
 3269SOL     OW 9824   4.933   4.249   0.275
 3269SOL    HW1 9825   4.946   4.165   0.329
 3269SOL    HW2 9826   4.904   4.323   0.335
 3270SOL     OW 9827   4.031   3.937   1.231
 3270SOL    HW1 9828   4.008   3.974   1.321
 3270SOL    HW2 9829   4.001   3.842   1.225
 3271SOL     OW 9830   4.456   4.358   1.064
 3271SOL    HW1 9831   4.515   4.332   0.988
 3271SOL    HW2 9832   4.428   4.454   1.053
 3272SOL     OW 9833   4.031   3.787   0.618
 3272SOL    HW1 9834   4.020   3.881   0.651
 3272SOL    HW2 9835   4.026   3.724   0.695
 3273SOL     OW 9836   4.747   4.490   0.966
 3273SOL    HW1 9837   4.762   4.511   1.062
 3273SOL    HW2 9838   4.717   4.395   0.957
 3274SOL     OW 9839   4.074   4.622   1.804
 3274SOL    HW1 9840   4.150   4.666   1.852
 3274SOL    HW2 9841   4.109   4.575   1.722
 3275SOL     OW 9842   4.043   4.534   0.949
 3275SOL    HW1 9843   4.136   4.570   0.954
 3275SOL    HW2 9844   4.037   4.449   1.001
 3276SOL     OW 9845   4.063   4.233   1.006
 3276SOL    HW1 9846   4.011   4.150   0.989
 3276SOL    HW2 9847   4.140   4.238   0.942
 3277SOL     OW 9848   4.726   4.520   1.238
 3277SOL    HW1 9849   4.767   4.488   1.324
 3277SOL    HW2 9850   4.630   4.493   1.235
 3278SOL     OW 9851   3.764   4.268   1.114
 3278SOL    HW1 9852   3.849   4.235   1.073
 3278SOL    HW2 9853   3.777   4.283   1.212
 3279SOL     OW 9854   3.913   4.244   1.722
 3279SOL    HW1 9855   3.972   4.204   1.652
 3279SOL    HW2 9856   3.855   4.315   1.681
 3280SOL     OW 9857   4.539   4.296   0.325
 3280SOL    HW1 9858   4.546   4.207   0.279
 3280SOL    HW2 9859   4.445   4.330   0.317
 3281SOL     OW 9860   4.395   4.188   1.269
 3281SOL    HW1 9861   4.361   4.099   1.239
 3281SOL    HW2 9862   4.421   4.242   1.189
 3282SOL     OW 9863   4.197   4.224   0.191
 3282SOL    HW1 9864   4.258   4.304   0.195
 3282SOL    HW2 9865   4.102   4.255   0.198
 3283SOL     OW 9866   4.627   3.810   0.133
 3283SOL    HW1 9867   4.678   3.811   0.047
 3283SOL    HW2 9868   4.683   3.768   0.204
 3284SOL     OW 9869   3.987   4.050   0.720
 3284SOL    HW1 9870   3.908   4.101   0.686
 3284SOL    HW2 9871   3.978   4.035   0.818
 3285SOL     OW 9872   4.763   4.822   0.696
 3285SOL    HW1 9873   4.693   4.775   0.750
 3285SOL    HW2 9874   4.822   4.754   0.653
 3286SOL     OW 9875   3.829   4.737   1.726
 3286SOL    HW1 9876   3.752   4.704   1.780
 3286SOL    HW2 9877   3.914   4.707   1.768
 3287SOL     OW 9878   4.396   3.927   1.489
 3287SOL    HW1 9879   4.486   3.911   1.449
 3287SOL    HW2 9880   4.404   3.932   1.588
 3288SOL     OW 9881   3.796   3.890   0.318
 3288SOL    HW1 9882   3.779   3.973   0.264
 3288SOL    HW2 9883   3.886   3.853   0.296
 3289SOL     OW 9884   4.337   4.566   1.431
 3289SOL    HW1 9885   4.393   4.647   1.414
 3289SOL    HW2 9886   4.396   4.486   1.434
 3290SOL     OW 9887   4.440   4.289   1.708
 3290SOL    HW1 9888   4.459   4.354   1.782
 3290SOL    HW2 9889   4.500   4.209   1.717
 3291SOL     OW 9890   4.949   4.049   0.449
 3291SOL    HW1 9891   5.014   3.975   0.438
 3291SOL    HW2 9892   4.969   4.099   0.533
 3292SOL     OW 9893   4.318   4.469   0.652
 3292SOL    HW1 9894   4.368   4.554   0.633
 3292SOL    HW2 9895   4.230   4.471   0.604
 3293SOL     OW 9896   4.583   4.680   0.861
 3293SOL    HW1 9897   4.637   4.611   0.909
 3293SOL    HW2 9898   4.551   4.749   0.927
 3294SOL     OW 9899   4.152   4.148   0.520
 3294SOL    HW1 9900   4.182   4.076   0.458
 3294SOL    HW2 9901   4.113   4.108   0.603
 3295SOL     OW 9902   4.041   4.271   1.280
 3295SOL    HW1 9903   4.079   4.212   1.352
 3295SOL    HW2 9904   4.081   4.245   1.192
 3296SOL     OW 9905   4.725   3.758   1.154
 3296SOL    HW1 9906   4.662   3.686   1.123
 3296SOL    HW2 9907   4.818   3.722   1.154
 3297SOL     OW 9908   3.954   4.352   1.975
 3297SOL    HW1 9909   3.861   4.350   2.012
 3297SOL    HW2 9910   3.955   4.313   1.883
 3298SOL     OW 9911   3.949   3.999   2.858
 3298SOL    HW1 9912   3.984   3.982   2.950
 3298SOL    HW2 9913   3.861   3.954   2.846
 3299SOL     OW 9914   3.743   4.092   2.509
 3299SOL    HW1 9915   3.661   4.135   2.548
 3299SOL    HW2 9916   3.715   4.019   2.446
 3300SOL     OW 9917   4.574   4.522   3.685
 3300SOL    HW1 9918   4.570   4.598   3.750
 3300SOL    HW2 9919   4.596   4.558   3.594
 3301SOL     OW 9920   4.409   4.736   2.527
 3301SOL    HW1 9921   4.478   4.720   2.597
 3301SOL    HW2 9922   4.336   4.793   2.565
 3302SOL     OW 9923   4.162   4.116   3.361
 3302SOL    HW1 9924   4.244   4.060   3.370
 3302SOL    HW2 9925   4.081   4.058   3.365
 3303SOL     OW 9926   3.846   4.367   2.425
 3303SOL    HW1 9927   3.801   4.279   2.442
 3303SOL    HW2 9928   3.845   4.421   2.509
 3304SOL     OW 9929   3.837   4.461   3.459
 3304SOL    HW1 9930   3.925   4.448   3.504
 3304SOL    HW2 9931   3.824   4.558   3.437
 3305SOL     OW 9932   4.533   3.728   2.364
 3305SOL    HW1 9933   4.573   3.819   2.355
 3305SOL    HW2 9934   4.433   3.736   2.370
 3306SOL     OW 9935   4.041   3.975   3.663
 3306SOL    HW1 9936   4.112   4.046   3.669
 3306SOL    HW2 9937   3.953   4.014   3.691
 3307SOL     OW 9938   4.322   4.453   2.132
 3307SOL    HW1 9939   4.346   4.522   2.064
 3307SOL    HW2 9940   4.244   4.486   2.186
 3308SOL     OW 9941   4.531   4.329   3.327
 3308SOL    HW1 9942   4.484   4.326   3.416
 3308SOL    HW2 9943   4.480   4.274   3.261
 3309SOL     OW 9944   4.715   4.134   3.104
 3309SOL    HW1 9945   4.638   4.168   3.158
 3309SOL    HW2 9946   4.681   4.083   3.025
 3310SOL     OW 9947   3.800   4.535   2.651
 3310SOL    HW1 9948   3.899   4.523   2.660
 3310SOL    HW2 9949   3.776   4.630   2.672
 3311SOL     OW 9950   4.589   4.072   2.057
 3311SOL    HW1 9951   4.648   4.135   2.008
 3311SOL    HW2 9952   4.608   3.978   2.028
 3312SOL     OW 9953   4.274   3.920   2.747
 3312SOL    HW1 9954   4.269   3.915   2.847
 3312SOL    HW2 9955   4.276   4.016   2.718
 3313SOL     OW 9956   3.926   4.009   3.360
 3313SOL    HW1 9957   3.846   4.069   3.347
 3313SOL    HW2 9958   3.916   3.960   3.446
 3314SOL     OW 9959   4.106   4.424   2.342
 3314SOL    HW1 9960   4.151   4.334   2.339
 3314SOL    HW2 9961   4.012   4.413   2.375
 3315SOL     OW 9962   4.338   3.846   1.979
 3315SOL    HW1 9963   4.436   3.824   1.986
 3315SOL    HW2 9964   4.307   3.829   1.886
 3316SOL     OW 9965   4.505   3.988   3.611
 3316SOL    HW1 9966   4.572   3.927   3.654
 3316SOL    HW2 9967   4.432   4.007   3.676
 3317SOL     OW 9968   4.646   4.227   2.761
 3317SOL    HW1 9969   4.621   4.218   2.665
 3317SOL    HW2 9970   4.694   4.145   2.792
 3318SOL     OW 9971   4.263   3.788   2.374
 3318SOL    HW1 9972   4.182   3.789   2.432
 3318SOL    HW2 9973   4.266   3.871   2.319
 3319SOL     OW 9974   4.021   3.759   2.033
 3319SOL    HW1 9975   4.070   3.843   2.012
 3319SOL    HW2 9976   4.083   3.694   2.078
 3320SOL     OW 9977   3.802   4.280   3.248
 3320SOL    HW1 9978   3.894   4.279   3.207
 3320SOL    HW2 9979   3.796   4.354   3.315
 3321SOL     OW 9980   4.285   3.946   3.009
 3321SOL    HW1 9981   4.323   3.862   3.046
 3321SOL    HW2 9982   4.197   3.965   3.053
 3322SOL     OW 9983   4.251   3.980   2.190
 3322SOL    HW1 9984   4.278   3.921   2.115
 3322SOL    HW2 9985   4.251   4.075   2.159
 3323SOL     OW 9986   4.639   3.813   3.264
 3323SOL    HW1 9987   4.664   3.793   3.169
 3323SOL    HW2 9988   4.711   3.869   3.306
 3324SOL     OW 9989   4.134   4.537   3.113
 3324SOL    HW1 9990   4.220   4.549   3.163
 3324SOL    HW2 9991   4.092   4.450   3.140
 3325SOL     OW 9992   4.290   4.261   2.727
 3325SOL    HW1 9993   4.302   4.327   2.653
 3325SOL    HW2 9994   4.336   4.295   2.810
 3326SOL     OW 9995   4.126   4.475   3.460
 3326SOL    HW1 9996   4.194   4.530   3.413
 3326SOL    HW2 9997   4.166   4.387   3.487
 3327SOL     OW 9998   4.228   3.774   3.602
 3327SOL    HW1 9999   4.186   3.717   3.532
 3327SOL    HW210000   4.162   3.843   3.634
 3328SOL     OW10001   4.297   4.594   2.891
 3328SOL    HW110002   4.341   4.683   2.882
 3328SOL    HW210003   4.234   4.594   2.968
 3329SOL     OW10004   4.933   4.249   2.137
 3329SOL    HW110005   4.946   4.165   2.191
 3329SOL    HW210006   4.904   4.323   2.197
 3330SOL     OW10007   4.031   3.937   3.093
 3330SOL    HW110008   4.008   3.974   3.183
 3330SOL    HW210009   4.001   3.842   3.087
 3331SOL     OW10010   4.456   4.358   2.926
 3331SOL    HW110011   4.515   4.332   2.850
 3331SOL    HW210012   4.428   4.454   2.915
 3332SOL     OW10013   4.031   3.787   2.480
 3332SOL    HW110014   4.020   3.881   2.513
 3332SOL    HW210015   4.026   3.724   2.557
 3333SOL     OW10016   4.747   4.490   2.828
 3333SOL    HW110017   4.762   4.511   2.924
 3333SOL    HW210018   4.717   4.395   2.819
 3334SOL     OW10019   4.074   4.622   3.666
 3334SOL    HW110020   4.150   4.666   3.714
 3334SOL    HW210021   4.109   4.575   3.584
 3335SOL     OW10022   4.043   4.534   2.811
 3335SOL    HW110023   4.136   4.570   2.816
 3335SOL    HW210024   4.037   4.449   2.863
 3336SOL     OW10025   4.063   4.233   2.868
 3336SOL    HW110026   4.011   4.150   2.851
 3336SOL    HW210027   4.140   4.238   2.804
 3337SOL     OW10028   4.726   4.520   3.100
 3337SOL    HW110029   4.767   4.488   3.186
 3337SOL    HW210030   4.630   4.493   3.097
 3338SOL     OW10031   3.764   4.268   2.976
 3338SOL    HW110032   3.849   4.235   2.935
 3338SOL    HW210033   3.777   4.283   3.074
 3339SOL     OW10034   3.913   4.244   3.584
 3339SOL    HW110035   3.972   4.204   3.514
 3339SOL    HW210036   3.855   4.315   3.543
 3340SOL     OW10037   4.539   4.296   2.187
 3340SOL    HW110038   4.546   4.207   2.141
 3340SOL    HW210039   4.445   4.330   2.179
 3341SOL     OW10040   4.395   4.188   3.131
 3341SOL    HW110041   4.361   4.099   3.101
 3341SOL    HW210042   4.421   4.242   3.051
 3342SOL     OW10043   4.197   4.224   2.053
 3342SOL    HW110044   4.258   4.304   2.057
 3342SOL    HW210045   4.102   4.255   2.060
 3343SOL     OW10046   4.627   3.810   1.995
 3343SOL    HW110047   4.678   3.811   1.909
 3343SOL    HW210048   4.683   3.768   2.066
 3344SOL     OW10049   3.987   4.050   2.582
 3344SOL    HW110050   3.908   4.101   2.548
 3344SOL    HW210051   3.978   4.035   2.680
 3345SOL     OW10052   4.763   4.822   2.558
 3345SOL    HW110053   4.693   4.775   2.612
 3345SOL    HW210054   4.822   4.754   2.515
 3346SOL     OW10055   3.829   4.737   3.588
 3346SOL    HW110056   3.752   4.704   3.642
 3346SOL    HW210057   3.914   4.707   3.630
 3347SOL     OW10058   4.396   3.927   3.351
 3347SOL    HW110059   4.486   3.911   3.311
 3347SOL    HW210060   4.404   3.932   3.450
 3348SOL     OW10061   3.799   4.069   1.895
 3348SOL    HW110062   3.707   4.041   1.866
 3348SOL    HW210063   3.830   4.146   1.839
 3349SOL     OW10064   3.796   3.890   2.180
 3349SOL    HW110065   3.779   3.973   2.126
 3349SOL    HW210066   3.886   3.853   2.158
 3350SOL     OW10067   4.337   4.566   3.293
 3350SOL    HW110068   4.393   4.647   3.276
 3350SOL    HW210069   4.396   4.486   3.296
 3351SOL     OW10070   4.440   4.289   3.570
 3351SOL    HW110071   4.459   4.354   3.644
 3351SOL    HW210072   4.500   4.209   3.579
 3352SOL     OW10073   4.949   4.049   2.311
 3352SOL    HW110074   5.014   3.975   2.300
 3352SOL    HW210075   4.969   4.099   2.395
 3353SOL     OW10076   4.318   4.469   2.514
 3353SOL    HW110077   4.368   4.554   2.495
 3353SOL    HW210078   4.230   4.471   2.466
 3354SOL     OW10079   4.583   4.680   2.723
 3354SOL    HW110080   4.637   4.611   2.771
 3354SOL    HW210081   4.551   4.749   2.789
 3355SOL     OW10082   4.152   4.148   2.382
 3355SOL    HW110083   4.182   4.076   2.320
 3355SOL    HW210084   4.113   4.108   2.465
 3356SOL     OW10085   4.041   4.271   3.142
 3356SOL    HW110086   4.079   4.212   3.214
 3356SOL    HW210087   4.081   4.245   3.054
 3357SOL     OW10088   4.725   3.758   3.016
 3357SOL    HW110089   4.662   3.686   2.985
 3357SOL    HW210090   4.818   3.722   3.016
 3358SOL     OW10091   3.954   4.352   3.837
 3358SOL    HW110092   3.861   4.350   3.874
 3358SOL    HW210093   3.955   4.313   3.745
 3359SOL     OW10094   3.949   3.999   4.720
 3359SOL    HW110095   3.984   3.982   4.812
 3359SOL    HW210096   3.861   3.954   4.708
 3360SOL     OW10097   3.743   4.092   4.371
 3360SOL    HW110098   3.661   4.135   4.410
 3360SOL    HW210099   3.715   4.019   4.308
 3361SOL     OW10100   4.409   4.736   4.389
 3361SOL    HW110101   4.478   4.720   4.459
 3361SOL    HW210102   4.336   4.793   4.427
 3362SOL     OW10103   3.846   4.367   4.287
 3362SOL    HW110104   3.801   4.279   4.304
 3362SOL    HW210105   3.845   4.421   4.371
 3363SOL     OW10106   4.533   3.728   4.226
 3363SOL    HW110107   4.573   3.819   4.217
 3363SOL    HW210108   4.433   3.736   4.232
 3364SOL     OW10109   4.322   4.453   3.994
 3364SOL    HW110110   4.346   4.522   3.926
 3364SOL    HW210111   4.244   4.486   4.048
 3365SOL     OW10112   3.800   4.535   4.513
 3365SOL    HW110113   3.899   4.523   4.522
 3365SOL    HW210114   3.776   4.630   4.534
 3366SOL     OW10115   4.589   4.072   3.919
 3366SOL    HW110116   4.648   4.135   3.870
 3366SOL    HW210117   4.608   3.978   3.890
 3367SOL     OW10118   4.274   3.920   4.609
 3367SOL    HW110119   4.269   3.915   4.709
 3367SOL    HW210120   4.276   4.016   4.580
 3368SOL     OW10121   4.106   4.424   4.204
 3368SOL    HW110122   4.151   4.334   4.201
 3368SOL    HW210123   4.012   4.413   4.237
 3369SOL     OW10124   4.338   3.846   3.841
 3369SOL    HW110125   4.436   3.824   3.848
 3369SOL    HW210126   4.307   3.829   3.748
 3370SOL     OW10127   4.263   3.788   4.236
 3370SOL    HW110128   4.182   3.789   4.294
 3370SOL    HW210129   4.266   3.871   4.181
 3371SOL     OW10130   4.021   3.759   3.895
 3371SOL    HW110131   4.070   3.843   3.874
 3371SOL    HW210132   4.083   3.694   3.940
 3372SOL     OW10133   4.251   3.980   4.052
 3372SOL    HW110134   4.278   3.921   3.977
 3372SOL    HW210135   4.251   4.075   4.021
 3373SOL     OW10136   4.290   4.261   4.589
 3373SOL    HW110137   4.302   4.327   4.515
 3373SOL    HW210138   4.336   4.295   4.672
 3374SOL     OW10139   4.933   4.249   3.999
 3374SOL    HW110140   4.946   4.165   4.053
 3374SOL    HW210141   4.904   4.323   4.059
 3375SOL     OW10142   4.456   4.358   4.788
 3375SOL    HW110143   4.515   4.332   4.712
 3375SOL    HW210144   4.428   4.454   4.777
 3376SOL     OW10145   4.031   3.787   4.342
 3376SOL    HW110146   4.020   3.881   4.375
 3376SOL    HW210147   4.026   3.724   4.419
 3377SOL     OW10148   4.747   4.490   4.690
 3377SOL    HW110149   4.762   4.511   4.786
 3377SOL    HW210150   4.717   4.395   4.681
 3378SOL     OW10151   4.043   4.534   4.673
 3378SOL    HW110152   4.136   4.570   4.678
 3378SOL    HW210153   4.037   4.449   4.725
 3379SOL     OW10154   4.726   4.520   4.962
 3379SOL    HW110155   4.767   4.488   5.048
 3379SOL    HW210156   4.630   4.493   4.959
 3380SOL     OW10157   4.539   4.296   4.049
 3380SOL    HW110158   4.546   4.207   4.003
 3380SOL    HW210159   4.445   4.330   4.041
 3381SOL     OW10160   4.197   4.224   3.915
 3381SOL    HW110161   4.258   4.304   3.919
 3381SOL    HW210162   4.102   4.255   3.922
 3382SOL     OW10163   4.627   3.810   3.857
 3382SOL    HW110164   4.678   3.811   3.771
 3382SOL    HW210165   4.683   3.768   3.928
 3383SOL     OW10166   3.987   4.050   4.444
 3383SOL    HW110167   3.908   4.101   4.410
 3383SOL    HW210168   3.978   4.035   4.542
 3384SOL     OW10169   4.763   4.822   4.420
 3384SOL    HW110170   4.693   4.775   4.474
 3384SOL    HW210171   4.822   4.754   4.377
 3385SOL     OW10172   3.799   4.069   3.757
 3385SOL    HW110173   3.707   4.041   3.728
 3385SOL    HW210174   3.830   4.146   3.701
 3386SOL     OW10175   3.796   3.890   4.042
 3386SOL    HW110176   3.779   3.973   3.988
 3386SOL    HW210177   3.886   3.853   4.020
 3387SOL     OW10178   4.949   4.049   4.173
 3387SOL    HW110179   5.014   3.975   4.162
 3387SOL    HW210180   4.969   4.099   4.257
 3388SOL     OW10181   4.318   4.469   4.376
 3388SOL    HW110182   4.368   4.554   4.357
 3388SOL    HW210183   4.230   4.471   4.328
 3389SOL     OW10184   4.583   4.680   4.585
 3389SOL    HW110185   4.637   4.611   4.633
 3389SOL    HW210186   4.551   4.749   4.651
 3390SOL     OW10187   4.152   4.148   4.244
 3390SOL    HW110188   4.182   4.076   4.182
 3390SOL    HW210189   4.113   4.108   4.327
   4.70872   4.70872   4.70872
