%VERSION  VERSION_STAMP = V0001.000  DATE = 05/20/26  23:42:56                  
%FLAG TITLE                                                                     
%FORMAT(20a4)                                                                   
cyclohexanone                                                                   
%FLAG POINTERS                                                                  
%FORMAT(10I8)                                                                   
      17       4      10       7      25       8      44      17       0       0
      96       1       7       8      17       4       7      15       4       0
       0       0       0       0       0       0       0       0      17       0
       0
%FLAG ATOM_NAME                                                                 
%FORMAT(20a4)                                                                   
C1  C2  C3  C4  C5  C6  O1  H1  H2  H3  H4  H5  H6  H7  H8  H9  H10 
%FLAG CHARGE                                                                    
%FORMAT(5E16.8)                                                                 
  1.03885332E+01 -3.30552522E+00 -3.30552522E+00 -1.31929452E+00 -1.31929452E+00
 -1.51973982E+00 -9.71430813E+00  1.25187201E+00  1.25187201E+00  1.25187201E+00
  1.25187201E+00  8.60092560E-01  8.60092560E-01  8.60092560E-01  8.60092560E-01
  8.05425660E-01  8.05425660E-01
%FLAG ATOMIC_NUMBER                                                             
%FORMAT(10I8)                                                                   
       6       6       6       6       6       6       8       1       1       1
       1       1       1       1       1       1       1
%FLAG MASS                                                                      
%FORMAT(5E16.8)                                                                 
  1.20100000E+01  1.20100000E+01  1.20100000E+01  1.20100000E+01  1.20100000E+01
  1.20100000E+01  1.60000000E+01  1.00800000E+00  1.00800000E+00  1.00800000E+00
  1.00800000E+00  1.00800000E+00  1.00800000E+00  1.00800000E+00  1.00800000E+00
  1.00800000E+00  1.00800000E+00
%FLAG ATOM_TYPE_INDEX                                                           
%FORMAT(10I8)                                                                   
       1       2       2       2       2       2       3       4       4       4
       4       4       4       4       4       4       4
%FLAG NUMBER_EXCLUDED_ATOMS                                                     
%FORMAT(10I8)                                                                   
      14      13      12      11      10      10       4       3       2       3
       2       3       2       3       2       1       1
%FLAG NONBONDED_PARM_INDEX                                                      
%FORMAT(10I8)                                                                   
       1       2       4       7       2       3       5       8       4       5
       6       9       7       8       9      10
%FLAG RESIDUE_LABEL                                                             
%FORMAT(20a4)                                                                   
MOL 
%FLAG RESIDUE_POINTER                                                           
%FORMAT(10I8)                                                                   
       1
%FLAG BOND_FORCE_CONSTANT                                                       
%FORMAT(5E16.8)                                                                 
  2.33630000E+02  5.90600000E+02  2.26810000E+02  3.42750000E+02
%FLAG BOND_EQUIL_VALUE                                                          
%FORMAT(5E16.8)                                                                 
  1.52870000E+00  1.21900000E+00  1.53840000E+00  1.09790000E+00
%FLAG ANGLE_FORCE_CONSTANT                                                      
%FORMAT(5E16.8)                                                                 
  6.02700000E+01  4.38400000E+01  5.93400000E+01  7.65600000E+01  6.01800000E+01
  4.32300000E+01  3.59300000E+01
%FLAG ANGLE_EQUIL_VALUE                                                         
%FORMAT(5E16.8)                                                                 
  1.94482122E+00  1.87919681E+00  2.01864868E+00  2.13523672E+00  1.93836350E+00
  1.91026369E+00  1.86087085E+00
%FLAG DIHEDRAL_FORCE_CONSTANT                                                   
%FORMAT(5E16.8)                                                                 
  4.60000000E-01  4.00000000E-02  0.00000000E+00  1.55555556E-01  2.62000000E-01
  0.00000000E+00  5.20000000E-01  1.30000000E-01  1.17400000E+01  1.10000000E-01
  8.00000000E-02  4.03000000E+00  3.66000000E+00  1.20000000E-01  1.10000000E+00
%FLAG DIHEDRAL_PERIODICITY                                                      
%FORMAT(5E16.8)                                                                 
  1.00000000E+00  2.00000000E+00  3.00000000E+00  3.00000000E+00  2.00000000E+00
  3.00000000E+00  3.00000000E+00  3.00000000E+00  1.00000000E+00  2.00000000E+00
  3.00000000E+00  1.00000000E+00  2.00000000E+00  3.00000000E+00  2.00000000E+00
%FLAG DIHEDRAL_PHASE                                                            
%FORMAT(5E16.8)                                                                 
  3.14159400E+00  0.00000000E+00  0.00000000E+00  0.00000000E+00  3.14159400E+00
  3.14159400E+00  0.00000000E+00  0.00000000E+00  0.00000000E+00  0.00000000E+00
  3.14159400E+00  0.00000000E+00  3.14159400E+00  0.00000000E+00  3.14159400E+00
%FLAG SCEE_SCALE_FACTOR                                                         
%FORMAT(5E16.8)                                                                 
  1.20000000E+00  1.20000000E+00  1.20000000E+00  1.20000000E+00  1.20000000E+00
  1.20000000E+00  1.20000000E+00  1.20000000E+00  1.20000000E+00  1.20000000E+00
  1.20000000E+00  1.20000000E+00  1.20000000E+00  1.20000000E+00  0.00000000E+00
%FLAG SCNB_SCALE_FACTOR                                                         
%FORMAT(5E16.8)                                                                 
  2.00000000E+00  2.00000000E+00  2.00000000E+00  2.00000000E+00  2.00000000E+00
  2.00000000E+00  2.00000000E+00  2.00000000E+00  2.00000000E+00  2.00000000E+00
  2.00000000E+00  2.00000000E+00  2.00000000E+00  2.00000000E+00  0.00000000E+00
%FLAG SOLTY                                                                     
%FORMAT(5E16.8)                                                                 
  0.00000000E+00  0.00000000E+00  0.00000000E+00  0.00000000E+00
%FLAG LENNARD_JONES_ACOEF                                                       
%FORMAT(5E16.8)                                                                 
  6.96551276E+05  8.43969952E+05  1.02073671E+06  5.17507491E+05  6.30925504E+05
  3.76435470E+05  8.12662403E+04  1.00235148E+05  5.68021765E+04  7.94617769E+03
%FLAG LENNARD_JONES_BCOEF                                                       
%FORMAT(5E16.8)                                                                 
  5.24668528E+02  5.90251928E+02  6.63431737E+02  4.98871431E+02  5.62969425E+02
  4.69350655E+02  1.21392023E+02  1.37787728E+02  1.11953944E+02  2.57122925E+01
%FLAG BONDS_INC_HYDROGEN                                                        
%FORMAT(10I8)                                                                   
       3      21       4       3      24       4       6      27       4       6
      30       4       9      33       4       9      36       4      12      39
       4      12      42       4      15      45       4      15      48       4
%FLAG BONDS_WITHOUT_HYDROGEN                                                    
%FORMAT(10I8)                                                                   
       0       3       1       0       6       1       0      18       2       3
       9       3       6      12       3       9      15       3      12      15
       3
%FLAG ANGLES_INC_HYDROGEN                                                       
%FORMAT(10I8)                                                                   
       0       3      21       2       0       3      24       2       0       6
      27       2       0       6      30       2       3       9      33       6
       3       9      36       6       6      12      39       6       6      12
      42       6       9       3      21       6       9       3      24       6
       9      15      45       6       9      15      48       6      12       6
      27       6      12       6      30       6      12      15      45       6
      12      15      48       6      15       9      33       6      15       9
      36       6      15      12      39       6      15      12      42       6
      21       3      24       7      27       6      30       7      33       9
      36       7      39      12      42       7      45      15      48       7
%FLAG ANGLES_WITHOUT_HYDROGEN                                                   
%FORMAT(10I8)                                                                   
       0       3       9       1       0       6      12       1       3       0
       6       3       3       0      18       4       3       9      15       5
       6       0      18       4       6      12      15       5       9      15
      12       5
%FLAG DIHEDRALS_INC_HYDROGEN                                                    
%FORMAT(10I8)                                                                   
       0       3       9      33       4       0       3       9      36       4
       0       6      12      39       4       0       6      12      42       4
       3       0       6      27       6       3       0       6      30       6
       3       9      15      45       8       3       9      15      48       8
       6       0       3      21       6       6       0       3      24       6
       6      12      15      45       8       6      12      15      48       8
       9      15      12      39       8       9      15      12      42       8
      12      15       9      33       8      12      15       9      36       8
      15       9       3      21       8      15       9       3      24       8
      15      12       6      27       8      15      12       6      30       8
      18       0       3      21      12      18       0      -3      21      13
      18       0       3      24      12      18       0      -3      24      13
      18       0       6      27      12      18       0      -6      27      13
      18       0       6      30      12      18       0      -6      30      13
      21       3       9      33      14      21       3       9      36      14
      24       3       9      33      14      24       3       9      36      14
      27       6      12      39      14      27       6      12      42      14
      30       6      12      39      14      30       6      12      42      14
      33       9      15      45      14      33       9      15      48      14
      36       9      15      45      14      36       9      15      48      14
      39      12      15      45      14      39      12      15      48      14
      42      12      15      45      14      42      12      15      48      14
%FLAG DIHEDRALS_WITHOUT_HYDROGEN                                                
%FORMAT(10I8)                                                                   
       0       3       9      15       1       0       3      -9      15       2
       0       3      -9      15       3       0       6     -12      15       1
       0       6     -12      15       2       0       6     -12      15       3
       3       0       6      12       5       3       9     -15      12       7
       6       0       3       9       5       6      12     -15       9       7
      18       0       3       9       9      18       0      -3       9      10
      18       0      -3       9      11      18       0       6      12       9
      18       0      -6      12      10      18       0      -6      12      11
      18       0      -6      -3      15
%FLAG EXCLUDED_ATOMS_LIST                                                       
%FORMAT(10I8)                                                                   
       2       3       4       5       6       7       8       9      10      11
      12      13      14      15       3       4       5       6       7       8
       9      10      11      12      13      16      17       4       5       6
       7       8       9      10      11      14      15      16      17       5
       6       7       8       9      12      13      14      15      16      17
       6       7      10      11      12      13      14      15      16      17
       8       9      10      11      12      13      14      15      16      17
       8       9      10      11       9      12      13      12      13      11
      14      15      14      15      13      16      17      16      17      15
      16      17      16      17      17       0
%FLAG HBOND_ACOEF                                                               
%FORMAT(5E16.8)                                                                 

%FLAG HBOND_BCOEF                                                               
%FORMAT(5E16.8)                                                                 

%FLAG HBCUT                                                                     
%FORMAT(5E16.8)                                                                 

%FLAG AMBER_ATOM_TYPE                                                           
%FORMAT(20a4)                                                                   
c   c6  c6  c6  c6  c6  o   hc  hc  hc  hc  hc  hc  hc  hc  hc  hc  
%FLAG TREE_CHAIN_CLASSIFICATION                                                 
%FORMAT(20a4)                                                                   
BLA BLA BLA BLA BLA BLA BLA BLA BLA BLA BLA BLA BLA BLA BLA BLA BLA 
%FLAG JOIN_ARRAY                                                                
%FORMAT(10I8)                                                                   
       0       0       0       0       0       0       0       0       0       0
       0       0       0       0       0       0       0
%FLAG IROTAT                                                                    
%FORMAT(10I8)                                                                   
       0       0       0       0       0       0       0       0       0       0
       0       0       0       0       0       0       0
%FLAG RADIUS_SET                                                                
%FORMAT(1a80)                                                                   
modified Bondi radii (mbondi)                                                   
%FLAG RADII                                                                     
%FORMAT(5E16.8)                                                                 
  1.70000000E+00  1.70000000E+00  1.70000000E+00  1.70000000E+00  1.70000000E+00
  1.70000000E+00  1.50000000E+00  1.30000000E+00  1.30000000E+00  1.30000000E+00
  1.30000000E+00  1.30000000E+00  1.30000000E+00  1.30000000E+00  1.30000000E+00
  1.30000000E+00  1.30000000E+00
%FLAG SCREEN                                                                    
%FORMAT(5E16.8)                                                                 
  7.20000000E-01  7.20000000E-01  7.20000000E-01  7.20000000E-01  7.20000000E-01
  7.20000000E-01  8.50000000E-01  8.50000000E-01  8.50000000E-01  8.50000000E-01
  8.50000000E-01  8.50000000E-01  8.50000000E-01  8.50000000E-01  8.50000000E-01
  8.50000000E-01  8.50000000E-01
%FLAG IPOL                                                                      
%FORMAT(1I8)                                                                    
       0
