; mobley_3682850_GMX_OPLS.itp created by acpype (v: 2023.10.27) on Wed May 20 23:42:56 2026

; For OPLS atomtypes manual fine tuning
; AC_at:OPLS_at:OPLScode: Possible_Alternatives (see ffoplsaa.atp and ffoplsaanb.itp)
; c:C:opls_235: ['271']
; c6:x:opls_x: []
; o:O:opls_236: ['272']
; hc:HC:opls_140: []

[ moleculetype ]
;name            nrexcl
 mobley_3682850   3

[ atoms ]
;   nr  type  resi  res  atom  cgnr     charge      mass       ; qtot   bond_type
     1 opls_235     1   MOL    C1    1     0.572100     12.01100 ; qtot  0.572  C   
     2 opls_x     1   MOL    C2    2    -0.181400      0.00000 ; qtot  0.391  x   
     3 opls_x     1   MOL    C3    3    -0.181400      0.00000 ; qtot  0.209  x   
     4 opls_x     1   MOL    C4    4    -0.072400      0.00000 ; qtot  0.137  x   
     5 opls_x     1   MOL    C5    5    -0.072400      0.00000 ; qtot  0.064  x   
     6 opls_x     1   MOL    C6    6    -0.083400      0.00000 ; qtot -0.019  x   
     7 opls_236     1   MOL    O1    7    -0.533100     15.99940 ; qtot -0.552  O   
     8 opls_140     1   MOL    H1    8     0.068700      1.00800 ; qtot -0.483  HC  
     9 opls_140     1   MOL    H2    9     0.068700      1.00800 ; qtot -0.415  HC  
    10 opls_140     1   MOL    H3   10     0.068700      1.00800 ; qtot -0.346  HC  
    11 opls_140     1   MOL    H4   11     0.068700      1.00800 ; qtot -0.277  HC  
    12 opls_140     1   MOL    H5   12     0.047200      1.00800 ; qtot -0.230  HC  
    13 opls_140     1   MOL    H6   13     0.047200      1.00800 ; qtot -0.183  HC  
    14 opls_140     1   MOL    H7   14     0.047200      1.00800 ; qtot -0.136  HC  
    15 opls_140     1   MOL    H8   15     0.047200      1.00800 ; qtot -0.088  HC  
    16 opls_140     1   MOL    H9   16     0.044200      1.00800 ; qtot -0.044  HC  
    17 opls_140     1   MOL   H10   17     0.044200      1.00800 ; qtot -0.000  HC  

[ bonds ]
;   ai     aj funct   r             k
     1      2   1 ;    1.5287e-01    1.9550e+05 ;     C1 - C2          C - x     
     1      3   1 ;    1.5287e-01    1.9550e+05 ;     C1 - C3          C - x     
     1      7   1 ;    1.2190e-01    4.9421e+05 ;     C1 - O1          C - O     
     2      4   1 ;    1.5384e-01    1.8979e+05 ;     C2 - C4          x - x     
     2      8   1 ;    1.0979e-01    2.8681e+05 ;     C2 - H1          x - HC    
     2      9   1 ;    1.0979e-01    2.8681e+05 ;     C2 - H2          x - HC    
     3      5   1 ;    1.5384e-01    1.8979e+05 ;     C3 - C5          x - x     
     3     10   1 ;    1.0979e-01    2.8681e+05 ;     C3 - H3          x - HC    
     3     11   1 ;    1.0979e-01    2.8681e+05 ;     C3 - H4          x - HC    
     4      6   1 ;    1.5384e-01    1.8979e+05 ;     C4 - C6          x - x     
     4     12   1 ;    1.0979e-01    2.8681e+05 ;     C4 - H5          x - HC    
     4     13   1 ;    1.0979e-01    2.8681e+05 ;     C4 - H6          x - HC    
     5      6   1 ;    1.5384e-01    1.8979e+05 ;     C5 - C6          x - x     
     5     14   1 ;    1.0979e-01    2.8681e+05 ;     C5 - H7          x - HC    
     5     15   1 ;    1.0979e-01    2.8681e+05 ;     C5 - H8          x - HC    
     6     16   1 ;    1.0979e-01    2.8681e+05 ;     C6 - H9          x - HC    
     6     17   1 ;    1.0979e-01    2.8681e+05 ;     C6 - H10         x - HC    

[ pairs ]
;   ai     aj    funct
     1      6      1 ;     C1 - C6    
     1     12      1 ;     C1 - H5    
     1     13      1 ;     C1 - H6    
     1     14      1 ;     C1 - H7    
     1     15      1 ;     C1 - H8    
     2      5      1 ;     C2 - C5    
     2     10      1 ;     C2 - H3    
     2     11      1 ;     C2 - H4    
     2     16      1 ;     C2 - H9    
     2     17      1 ;     C2 - H10   
     3      4      1 ;     C3 - C4    
     3      8      1 ;     C3 - H1    
     3      9      1 ;     C3 - H2    
     3     16      1 ;     C3 - H9    
     3     17      1 ;     C3 - H10   
     4     14      1 ;     C4 - H7    
     4     15      1 ;     C4 - H8    
     5     12      1 ;     C5 - H5    
     5     13      1 ;     C5 - H6    
     6      8      1 ;     C6 - H1    
     6      9      1 ;     C6 - H2    
     6     10      1 ;     C6 - H3    
     6     11      1 ;     C6 - H4    
     7      4      1 ;     O1 - C4    
     7      5      1 ;     O1 - C5    
     7      8      1 ;     O1 - H1    
     7      9      1 ;     O1 - H2    
     7     10      1 ;     O1 - H3    
     7     11      1 ;     O1 - H4    
     8     12      1 ;     H1 - H5    
     8     13      1 ;     H1 - H6    
     9     12      1 ;     H2 - H5    
     9     13      1 ;     H2 - H6    
    10     14      1 ;     H3 - H7    
    10     15      1 ;     H3 - H8    
    11     14      1 ;     H4 - H7    
    11     15      1 ;     H4 - H8    
    12     16      1 ;     H5 - H9    
    12     17      1 ;     H5 - H10   
    13     16      1 ;     H6 - H9    
    13     17      1 ;     H6 - H10   
    14     16      1 ;     H7 - H9    
    14     17      1 ;     H7 - H10   
    15     16      1 ;     H8 - H9    
    15     17      1 ;     H8 - H10   

[ angles ]
;   ai     aj     ak    funct   theta         cth
     1      2      4      1 ;    1.1143e+02    5.0434e+02 ;     C1 - C2   - C4        C -    x - x   
     1      2      8      1 ;    1.0767e+02    3.6685e+02 ;     C1 - C2   - H1        C -    x - HC  
     1      2      9      1 ;    1.0767e+02    3.6685e+02 ;     C1 - C2   - H2        C -    x - HC  
     1      3      5      1 ;    1.1143e+02    5.0434e+02 ;     C1 - C3   - C5        C -    x - x   
     1      3     10      1 ;    1.0767e+02    3.6685e+02 ;     C1 - C3   - H3        C -    x - HC  
     1      3     11      1 ;    1.0767e+02    3.6685e+02 ;     C1 - C3   - H4        C -    x - HC  
     2      1      3      1 ;    1.1566e+02    4.9656e+02 ;     C2 - C1   - C3        x -    C - x   
     2      1      7      1 ;    1.2234e+02    6.4065e+02 ;     C2 - C1   - O1        x -    C - O   
     2      4      6      1 ;    1.1106e+02    5.0359e+02 ;     C2 - C4   - C6        x -    x - x   
     2      4     12      1 ;    1.0945e+02    3.6175e+02 ;     C2 - C4   - H5        x -    x - HC  
     2      4     13      1 ;    1.0945e+02    3.6175e+02 ;     C2 - C4   - H6        x -    x - HC  
     3      1      7      1 ;    1.2234e+02    6.4065e+02 ;     C3 - C1   - O1        x -    C - O   
     3      5      6      1 ;    1.1106e+02    5.0359e+02 ;     C3 - C5   - C6        x -    x - x   
     3      5     14      1 ;    1.0945e+02    3.6175e+02 ;     C3 - C5   - H7        x -    x - HC  
     3      5     15      1 ;    1.0945e+02    3.6175e+02 ;     C3 - C5   - H8        x -    x - HC  
     4      2      8      1 ;    1.0945e+02    3.6175e+02 ;     C4 - C2   - H1        x -    x - HC  
     4      2      9      1 ;    1.0945e+02    3.6175e+02 ;     C4 - C2   - H2        x -    x - HC  
     4      6      5      1 ;    1.1106e+02    5.0359e+02 ;     C4 - C6   - C5        x -    x - x   
     4      6     16      1 ;    1.0945e+02    3.6175e+02 ;     C4 - C6   - H9        x -    x - HC  
     4      6     17      1 ;    1.0945e+02    3.6175e+02 ;     C4 - C6   - H10       x -    x - HC  
     5      3     10      1 ;    1.0945e+02    3.6175e+02 ;     C5 - C3   - H3        x -    x - HC  
     5      3     11      1 ;    1.0945e+02    3.6175e+02 ;     C5 - C3   - H4        x -    x - HC  
     5      6     16      1 ;    1.0945e+02    3.6175e+02 ;     C5 - C6   - H9        x -    x - HC  
     5      6     17      1 ;    1.0945e+02    3.6175e+02 ;     C5 - C6   - H10       x -    x - HC  
     6      4     12      1 ;    1.0945e+02    3.6175e+02 ;     C6 - C4   - H5        x -    x - HC  
     6      4     13      1 ;    1.0945e+02    3.6175e+02 ;     C6 - C4   - H6        x -    x - HC  
     6      5     14      1 ;    1.0945e+02    3.6175e+02 ;     C6 - C5   - H7        x -    x - HC  
     6      5     15      1 ;    1.0945e+02    3.6175e+02 ;     C6 - C5   - H8        x -    x - HC  
     8      2      9      1 ;    1.0662e+02    3.0066e+02 ;     H1 - C2   - H2       HC -    x - HC  
    10      3     11      1 ;    1.0662e+02    3.0066e+02 ;     H3 - C3   - H4       HC -    x - HC  
    12      4     13      1 ;    1.0662e+02    3.0066e+02 ;     H5 - C4   - H6       HC -    x - HC  
    14      5     15      1 ;    1.0662e+02    3.0066e+02 ;     H7 - C5   - H8       HC -    x - HC  
    16      6     17      1 ;    1.0662e+02    3.0066e+02 ;     H9 - C6   - H10      HC -    x - HC  

[ dihedrals ] ; propers
; for gromacs 4.5 or higher, using funct 9
;    i      j      k      l   func   phase     kd      pn
     1      2      4      6      9 ;     0.00   0.00000   0 ;     C1-    C2-    C4-    C6
     1      2      4      6      9 ;     0.00   0.16736   2 ;     C1-    C2-    C4-    C6
     1      2      4      6      9 ;   180.00   1.92464   1 ;     C1-    C2-    C4-    C6
     1      2      4     12      9 ;     0.00   0.65084   3 ;     C1-    C2-    C4-    H5
     1      2      4     13      9 ;     0.00   0.65084   3 ;     C1-    C2-    C4-    H6
     1      3      5      6      9 ;     0.00   0.00000   0 ;     C1-    C3-    C5-    C6
     1      3      5      6      9 ;     0.00   0.16736   2 ;     C1-    C3-    C5-    C6
     1      3      5      6      9 ;   180.00   1.92464   1 ;     C1-    C3-    C5-    C6
     1      3      5     14      9 ;     0.00   0.65084   3 ;     C1-    C3-    C5-    H7
     1      3      5     15      9 ;     0.00   0.65084   3 ;     C1-    C3-    C5-    H8
     2      1      3      5      9 ;   180.00   1.09621   2 ;     C2-    C1-    C3-    C5
     2      1      3     10      9 ;   180.00   0.00000   3 ;     C2-    C1-    C3-    H3
     2      1      3     11      9 ;   180.00   0.00000   3 ;     C2-    C1-    C3-    H4
     2      4      6      5      9 ;     0.00   2.17568   3 ;     C2-    C4-    C6-    C5
     2      4      6     16      9 ;     0.00   0.54392   3 ;     C2-    C4-    C6-    H9
     2      4      6     17      9 ;     0.00   0.54392   3 ;     C2-    C4-    C6-   H10
     3      1      2      4      9 ;   180.00   1.09621   2 ;     C3-    C1-    C2-    C4
     3      1      2      8      9 ;   180.00   0.00000   3 ;     C3-    C1-    C2-    H1
     3      1      2      9      9 ;   180.00   0.00000   3 ;     C3-    C1-    C2-    H2
     3      5      6      4      9 ;     0.00   2.17568   3 ;     C3-    C5-    C6-    C4
     3      5      6     16      9 ;     0.00   0.54392   3 ;     C3-    C5-    C6-    H9
     3      5      6     17      9 ;     0.00   0.54392   3 ;     C3-    C5-    C6-   H10
     4      6      5     14      9 ;     0.00   0.54392   3 ;     C4-    C6-    C5-    H7
     4      6      5     15      9 ;     0.00   0.54392   3 ;     C4-    C6-    C5-    H8
     5      6      4     12      9 ;     0.00   0.54392   3 ;     C5-    C6-    C4-    H5
     5      6      4     13      9 ;     0.00   0.54392   3 ;     C5-    C6-    C4-    H6
     6      4      2      8      9 ;     0.00   0.54392   3 ;     C6-    C4-    C2-    H1
     6      4      2      9      9 ;     0.00   0.54392   3 ;     C6-    C4-    C2-    H2
     6      5      3     10      9 ;     0.00   0.54392   3 ;     C6-    C5-    C3-    H3
     6      5      3     11      9 ;     0.00   0.54392   3 ;     C6-    C5-    C3-    H4
     7      1      2      4      9 ;     0.00   0.46024   2 ;     O1-    C1-    C2-    C4
     7      1      2      4      9 ;     0.00  49.12016   1 ;     O1-    C1-    C2-    C4
     7      1      2      4      9 ;   180.00   0.33472   3 ;     O1-    C1-    C2-    C4
     7      1      2      8      9 ;     0.00  16.86152   1 ;     O1-    C1-    C2-    H1
     7      1      2      8      9 ;   180.00  15.31344   2 ;     O1-    C1-    C2-    H1
     7      1      2      9      9 ;     0.00  16.86152   1 ;     O1-    C1-    C2-    H2
     7      1      2      9      9 ;   180.00  15.31344   2 ;     O1-    C1-    C2-    H2
     7      1      3      5      9 ;     0.00   0.46024   2 ;     O1-    C1-    C3-    C5
     7      1      3      5      9 ;     0.00  49.12016   1 ;     O1-    C1-    C3-    C5
     7      1      3      5      9 ;   180.00   0.33472   3 ;     O1-    C1-    C3-    C5
     7      1      3     10      9 ;     0.00  16.86152   1 ;     O1-    C1-    C3-    H3
     7      1      3     10      9 ;   180.00  15.31344   2 ;     O1-    C1-    C3-    H3
     7      1      3     11      9 ;     0.00  16.86152   1 ;     O1-    C1-    C3-    H4
     7      1      3     11      9 ;   180.00  15.31344   2 ;     O1-    C1-    C3-    H4
     8      2      4     12      9 ;     0.00   0.50208   3 ;     H1-    C2-    C4-    H5
     8      2      4     13      9 ;     0.00   0.50208   3 ;     H1-    C2-    C4-    H6
     9      2      4     12      9 ;     0.00   0.50208   3 ;     H2-    C2-    C4-    H5
     9      2      4     13      9 ;     0.00   0.50208   3 ;     H2-    C2-    C4-    H6
    10      3      5     14      9 ;     0.00   0.50208   3 ;     H3-    C3-    C5-    H7
    10      3      5     15      9 ;     0.00   0.50208   3 ;     H3-    C3-    C5-    H8
    11      3      5     14      9 ;     0.00   0.50208   3 ;     H4-    C3-    C5-    H7
    11      3      5     15      9 ;     0.00   0.50208   3 ;     H4-    C3-    C5-    H8
    12      4      6     16      9 ;     0.00   0.50208   3 ;     H5-    C4-    C6-    H9
    12      4      6     17      9 ;     0.00   0.50208   3 ;     H5-    C4-    C6-   H10
    13      4      6     16      9 ;     0.00   0.50208   3 ;     H6-    C4-    C6-    H9
    13      4      6     17      9 ;     0.00   0.50208   3 ;     H6-    C4-    C6-   H10
    14      5      6     16      9 ;     0.00   0.50208   3 ;     H7-    C5-    C6-    H9
    14      5      6     17      9 ;     0.00   0.50208   3 ;     H7-    C5-    C6-   H10
    15      5      6     16      9 ;     0.00   0.50208   3 ;     H8-    C5-    C6-    H9
    15      5      6     17      9 ;     0.00   0.50208   3 ;     H8-    C5-    C6-   H10

[ dihedrals ] ; impropers
; treated as propers in GROMACS to use correct AMBER analytical function
;    i      j      k      l   func   phase     kd      pn
     7      1      3      2      4 ;   180.00   4.60240   2 ;     O1-    C1-    C3-    C2
