cyclohexanone
    17
  -0.6950000  -1.9190000  -0.6360000  -0.2070000  -0.5210000  -0.9410000
  -0.8240000  -2.8610000  -1.8120000   1.0520000  -0.5660000  -1.7950000
   0.4490000  -2.8550000  -2.6470000   0.8650000  -1.4380000  -3.0350000
  -1.0680000  -2.2410000   0.4910000  -1.0110000   0.0140000  -1.4580000
   0.0000000   0.0000000  -0.0000000  -1.0220000  -3.8730000  -1.4420000
  -1.6850000  -2.5420000  -2.4090000   1.3300000   0.4510000  -2.0960000
   1.8830000  -0.9630000  -1.2000000   1.2610000  -3.3250000  -2.0780000
   0.2990000  -3.4570000  -3.5500000   0.1050000  -0.9940000  -3.6900000
   1.8000000  -1.4720000  -3.6040000
