mobley_7415647_GMX.gro created by acpype (v: 2023.10.27) on Wed May 20 23:50:55 2026
   24
    1MOL     C1    1   2.318   2.459   2.520
    1MOL     C2    2   2.529   2.342   2.527
    1MOL     C3    3   2.317   2.468   2.659
    1MOL     C4    4   2.528   2.351   2.667
    1MOL     C5    5   2.423   2.397   2.454
    1MOL     C6    6   2.423   2.413   2.732
    1MOL     C7    7   2.424   2.388   2.309
    1MOL     C8    8   2.490   2.490   2.089
    1MOL     C9    9   2.544   2.608   2.299
    1MOL     N1   10   2.422   2.422   2.874
    1MOL     N2   11   2.484   2.492   2.234
    1MOL     O1   12   2.372   2.288   2.258
    1MOL     O2   13   2.326   2.479   2.931
    1MOL     O3   14   2.518   2.373   2.938
    1MOL     H1   15   2.235   2.502   2.463
    1MOL     H2   16   2.612   2.293   2.477
    1MOL     H3   17   2.234   2.517   2.709
    1MOL     H4   18   2.611   2.308   2.723
    1MOL     H5   19   2.592   2.509   2.058
    1MOL     H6   20   2.423   2.567   2.050
    1MOL     H7   21   2.458   2.391   2.054
    1MOL     H8   22   2.468   2.660   2.357
    1MOL     H9   23   2.584   2.674   2.221
    1MOL    H10   24   2.625   2.575   2.364
   4.91390   4.91390   4.91390
