mobley_5520946_GMX.gro created by acpype (v: 2023.10.27) on Wed May 20 23:56:17 2026
 9508
    1MOL     C1    1   2.310   2.290   2.129
    1MOL     C2    2   2.203   2.350   2.196
    1MOL     C3    3   2.415   2.234   2.201
    1MOL     C4    4   2.201   2.353   2.336
    1MOL     C5    5   2.413   2.237   2.341
    1MOL     C6    6   2.306   2.296   2.408
    1MOL     S1    7   2.304   2.300   2.586
    1MOL     H1    8   2.311   2.288   2.020
    1MOL     H2    9   2.121   2.394   2.140
    1MOL     H3   10   2.498   2.187   2.149
    1MOL     H4   11   2.117   2.400   2.386
    1MOL     H5   12   2.496   2.192   2.395
    1MOL     H6   13   2.189   2.367   2.600
    2SOL     OW   14   0.230   0.628   0.113
    2SOL    HW1   15   0.137   0.626   0.150
    2SOL    HW2   16   0.231   0.589   0.021
    3SOL     OW   17   0.225   0.275   0.996
    3SOL    HW1   18   0.260   0.258   1.088
    3SOL    HW2   19   0.137   0.230   0.984
    4SOL     OW   20   0.019   0.368   0.647
    4SOL    HW1   21  -0.063   0.411   0.686
    4SOL    HW2   22  -0.009   0.295   0.584
    5SOL     OW   23   0.569   1.275   1.165
    5SOL    HW1   24   0.476   1.268   1.128
    5SOL    HW2   25   0.580   1.364   1.209
    6SOL     OW   26   1.555   1.511   0.703
    6SOL    HW1   27   1.498   1.495   0.784
    6SOL    HW2   28   1.496   1.521   0.623
    7SOL     OW   29   1.135   0.703   0.717
    7SOL    HW1   30   1.192   0.781   0.692
    7SOL    HW2   31   1.075   0.729   0.793
    8SOL     OW   32   1.755   0.607   0.231
    8SOL    HW1   33   1.743   0.594   0.132
    8SOL    HW2   34   1.725   0.526   0.280
    9SOL     OW   35   0.768   1.144   1.023
    9SOL    HW1   36   0.690   1.161   1.083
    9SOL    HW2   37   0.802   1.231   0.987
   10SOL     OW   38   0.850   0.798   1.823
   10SOL    HW1   39   0.846   0.874   1.888
   10SOL    HW2   40   0.872   0.834   1.732
   11SOL     OW   41   0.685   1.012   0.665
   11SOL    HW1   42   0.754   0.996   0.735
   11SOL    HW2   43   0.612   1.069   0.703
   12SOL     OW   44   0.686   1.161   1.803
   12SOL    HW1   45   0.746   1.240   1.817
   12SOL    HW2   46   0.600   1.192   1.762
   13SOL     OW   47   0.335   1.435   1.061
   13SOL    HW1   48   0.257   1.404   1.008
   13SOL    HW2   49   0.393   1.493   1.004
   14SOL     OW   50   1.460   1.505   1.339
   14SOL    HW1   51   1.484   1.599   1.365
   14SOL    HW2   52   1.444   1.451   1.421
   15SOL     OW   53   0.438   0.392   1.499
   15SOL    HW1   54   0.520   0.336   1.508
   15SOL    HW2   55   0.357   0.334   1.503
   16SOL     OW   56   1.603   0.447   0.737
   16SOL    HW1   57   1.529   0.493   0.687
   16SOL    HW2   58   1.654   0.515   0.790
   17SOL     OW   59   0.231   1.713   0.483
   17SOL    HW1   60   0.265   1.790   0.537
   17SOL    HW2   61   0.275   1.713   0.393
   18SOL     OW   62   1.127   1.341   1.690
   18SOL    HW1   63   1.174   1.341   1.778
   18SOL    HW2   64   1.079   1.254   1.679
   19SOL     OW   65   0.230   1.434   0.538
   19SOL    HW1   66   0.204   1.530   0.538
   19SOL    HW2   67   0.159   1.380   0.583
   20SOL     OW   68   0.240   1.091   0.886
   20SOL    HW1   69   0.254   1.007   0.938
   20SOL    HW2   70   0.185   1.155   0.941
   21SOL     OW   71   0.620   1.786   1.439
   21SOL    HW1   72   0.528   1.769   1.474
   21SOL    HW2   73   0.648   1.878   1.465
   22SOL     OW   74   0.606   0.964   0.123
   22SOL    HW1   75   0.613   1.048   0.069
   22SOL    HW2   76   0.652   0.977   0.211
   23SOL     OW   77   1.594   0.114   1.480
   23SOL    HW1   78   1.576   0.181   1.408
   23SOL    HW2   79   1.591   0.160   1.569
   24SOL     OW   80   0.122   0.643   0.563
   24SOL    HW1   81   0.077   0.555   0.580
   24SOL    HW2   82   0.121   0.697   0.647
   25SOL     OW   83   1.842   1.767   0.359
   25SOL    HW1   84   1.896   1.738   0.439
   25SOL    HW2   85   1.872   1.857   0.330
   26SOL     OW   86   0.027   1.596   0.117
   26SOL    HW1   87   0.008   1.500   0.138
   26SOL    HW2   88  -0.006   1.654   0.192
   27SOL     OW   89   1.689   0.922   0.612
   27SOL    HW1   90   1.784   0.893   0.620
   27SOL    HW2   91   1.681   0.987   0.537
   28SOL     OW   92   1.641   1.108   0.432
   28SOL    HW1   93   1.727   1.110   0.380
   28SOL    HW2   94   1.655   1.155   0.520
   29SOL     OW   95   0.113   0.737   1.597
   29SOL    HW1   96   0.201   0.724   1.642
   29SOL    HW2   97   0.100   0.834   1.575
   30SOL     OW   98   0.613   1.365   0.726
   30SOL    HW1   99   0.564   1.278   0.735
   30SOL    HW2  100   0.590   1.408   0.639
   31SOL     OW  101   1.293   1.228   1.423
   31SOL    HW1  102   1.330   1.155   1.365
   31SOL    HW2  103   1.345   1.233   1.508
   32SOL     OW  104   0.809   0.004   0.502
   32SOL    HW1  105   0.849   0.095   0.493
   32SOL    HW2  106   0.709   0.012   0.508
   33SOL     OW  107   0.197   0.976   1.264
   33SOL    HW1  108   0.286   0.931   1.250
   33SOL    HW2  109   0.124   0.911   1.245
   34SOL     OW  110   1.525   0.999   0.190
   34SOL    HW1  111   1.462   0.923   0.203
   34SOL    HW2  112   1.573   1.017   0.276
   35SOL     OW  113   1.187   1.792   1.616
   35SOL    HW1  114   1.211   1.852   1.540
   35SOL    HW2  115   1.194   1.697   1.586
   36SOL     OW  116   0.317   0.251   1.801
   36SOL    HW1  117   0.388   0.322   1.807
   36SOL    HW2  118   0.229   0.290   1.829
   37SOL     OW  119   1.466   1.417   0.953
   37SOL    HW1  120   1.407   1.423   1.033
   37SOL    HW2  121   1.451   1.329   0.907
   38SOL     OW  122   1.667   1.714   0.572
   38SOL    HW1  123   1.626   1.691   0.484
   38SOL    HW2  124   1.649   1.640   0.637
   39SOL     OW  125   0.598   0.729   0.270
   39SOL    HW1  126   0.622   0.798   0.202
   39SOL    HW2  127   0.520   0.762   0.324
   40SOL     OW  128   1.281   0.345   0.944
   40SOL    HW1  129   1.195   0.295   0.931
   40SOL    HW2  130   1.343   0.291   1.000
   41SOL     OW  131   1.576   1.662   0.307
   41SOL    HW1  132   1.665   1.708   0.310
   41SOL    HW2  133   1.555   1.638   0.212
   42SOL     OW  134   0.807   0.605   1.465
   42SOL    HW1  135   0.760   0.602   1.554
   42SOL    HW2  136   0.756   0.550   1.399
   43SOL     OW  137   1.394   0.469   1.674
   43SOL    HW1  138   1.374   0.512   1.762
   43SOL    HW2  139   1.472   0.407   1.683
   44SOL     OW  140   0.973   0.890   1.572
   44SOL    HW1  141   1.019   0.806   1.543
   44SOL    HW2  142   0.917   0.924   1.497
   45SOL     OW  143   0.991   0.410   1.242
   45SOL    HW1  144   0.914   0.444   1.296
   45SOL    HW2  145   0.957   0.359   1.163
   46SOL     OW  146   1.041   0.701   0.429
   46SOL    HW1  147   1.067   0.697   0.525
   46SOL    HW2  148   0.956   0.650   0.415
   47SOL     OW  149   0.076   0.811   0.789
   47SOL    HW1  150   0.175   0.799   0.798
   47SOL    HW2  151   0.052   0.906   0.810
   48SOL     OW  152   0.130   1.821   1.571
   48SOL    HW1  153   0.120   1.806   1.670
   48SOL    HW2  154   0.044   1.857   1.535
   49SOL     OW  155   0.865   0.348   0.195
   49SOL    HW1  156   0.924   0.411   0.146
   49SOL    HW2  157   0.884   0.254   0.166
   50SOL     OW  158   1.719   0.585   1.831
   50SOL    HW1  159   1.693   0.674   1.795
   50SOL    HW2  160   1.717   0.517   1.758
   51SOL     OW  161   1.362   1.144   0.545
   51SOL    HW1  162   1.445   1.115   0.497
   51SOL    HW2  163   1.313   1.211   0.489
   52SOL     OW  164   0.550   0.196   0.885
   52SOL    HW1  165   0.545   0.191   0.985
   52SOL    HW2  166   0.552   0.292   0.856
   53SOL     OW  167   1.008   1.456   0.477
   53SOL    HW1  168   0.962   1.528   0.425
   53SOL    HW2  169   1.004   1.476   0.575
   54SOL     OW  170   0.351   1.801   0.853
   54SOL    HW1  171   0.401   1.715   0.859
   54SOL    HW2  172   0.416   1.878   0.850
   55SOL     OW  173   1.795   1.066   0.873
   55SOL    HW1  174   1.733   1.051   0.797
   55SOL    HW2  175   1.743   1.077   0.958
   56SOL     OW  176   1.227   1.550   1.506
   56SOL    HW1  177   1.233   1.473   1.570
   56SOL    HW2  178   1.175   1.524   1.426
   57SOL     OW  179   0.321   0.943   0.242
   57SOL    HW1  180   0.403   0.982   0.200
   57SOL    HW2  181   0.294   0.861   0.193
   58SOL     OW  182   1.458   0.735   0.728
   58SOL    HW1  183   1.453   0.670   0.803
   58SOL    HW2  184   1.538   0.794   0.741
   59SOL     OW  185   0.461   1.266   1.727
   59SOL    HW1  186   0.411   1.267   1.641
   59SOL    HW2  187   0.398   1.248   1.803
   60SOL     OW  188   1.111   1.776   0.237
   60SOL    HW1  189   1.051   1.714   0.287
   60SOL    HW2  190   1.142   1.732   0.152
   61SOL     OW  191   0.202   0.285   1.498
   61SOL    HW1  192   0.122   0.345   1.485
   61SOL    HW2  193   0.192   0.236   1.584
   62SOL     OW  194   1.632   1.377   0.081
   62SOL    HW1  195   1.600   1.471   0.071
   62SOL    HW2  196   1.556   1.314   0.069
   63SOL     OW  197   0.464   1.743   0.323
   63SOL    HW1  198   0.497   1.782   0.409
   63SOL    HW2  199   0.540   1.736   0.258
   64SOL     OW  200   1.400   0.107   0.426
   64SOL    HW1  201   1.376   0.070   0.336
   64SOL    HW2  202   1.499   0.123   0.430
   65SOL     OW  203   0.249   1.785   1.241
   65SOL    HW1  204   0.306   1.720   1.291
   65SOL    HW2  205   0.233   1.752   1.148
   66SOL     OW  206   0.940   1.698   0.904
   66SOL    HW1  207   1.020   1.641   0.925
   66SOL    HW2  208   0.891   1.658   0.827
   67SOL     OW  209   0.382   0.700   0.480
   67SOL    HW1  210   0.427   0.610   0.477
   67SOL    HW2  211   0.288   0.689   0.513
   68SOL     OW  212   1.547   0.222   1.729
   68SOL    HW1  213   1.542   0.259   1.821
   68SOL    HW2  214   1.475   0.153   1.717
   69SOL     OW  215   0.614   0.122   0.117
   69SOL    HW1  216   0.712   0.100   0.124
   69SOL    HW2  217   0.583   0.105   0.024
   70SOL     OW  218   0.781   0.264   1.749
   70SOL    HW1  219   0.848   0.203   1.792
   70SOL    HW2  220   0.708   0.283   1.814
   71SOL     OW  221   0.888   1.514   1.195
   71SOL    HW1  222   0.865   1.489   1.101
   71SOL    HW2  223   0.949   1.445   1.234
   72SOL     OW  224   1.351   0.590   1.433
   72SOL    HW1  225   1.379   0.547   1.518
   72SOL    HW2  226   1.376   0.686   1.434
   73SOL     OW  227   0.803   1.402   0.924
   73SOL    HW1  228   0.893   1.416   0.882
   73SOL    HW2  229   0.732   1.404   0.853
   74SOL     OW  230   0.922   0.503   0.899
   74SOL    HW1  231   0.897   0.494   0.803
   74SOL    HW2  232   0.970   0.421   0.930
   75SOL     OW  233   0.539   0.064   0.512
   75SOL    HW1  234   0.458   0.065   0.570
   75SOL    HW2  235   0.542   0.147   0.457
   76SOL     OW  236   1.434   1.188   0.041
   76SOL    HW1  237   1.466   1.112   0.098
   76SOL    HW2  238   1.342   1.215   0.071
   77SOL     OW  239   0.297   0.035   0.171
   77SOL    HW1  240   0.346   0.119   0.150
   77SOL    HW2  241   0.359  -0.030   0.216
   78SOL     OW  242   0.935   0.236   0.480
   78SOL    HW1  243   0.887   0.277   0.402
   78SOL    HW2  244   1.034   0.234   0.461
   79SOL     OW  245   1.076   0.683   1.464
   79SOL    HW1  246   0.996   0.622   1.467
   79SOL    HW2  247   1.157   0.630   1.440
   80SOL     OW  248   1.227   1.570   0.793
   80SOL    HW1  249   1.248   1.644   0.728
   80SOL    HW2  250   1.295   1.570   0.866
   81SOL     OW  251   0.459   1.152   0.741
   81SOL    HW1  252   0.388   1.125   0.806
   81SOL    HW2  253   0.433   1.124   0.648
   82SOL     OW  254   1.271   1.797   0.591
   82SOL    HW1  255   1.315   1.861   0.527
   82SOL    HW2  256   1.221   1.849   0.661
   83SOL     OW  257   1.032   0.549   0.016
   83SOL    HW1  258   0.991   0.631  -0.023
   83SOL    HW2  259   1.096   0.575   0.089
   84SOL     OW  260   0.078   0.556   1.386
   84SOL    HW1  261   0.170   0.555   1.345
   84SOL    HW2  262   0.072   0.630   1.453
   85SOL     OW  263   0.561   0.222   1.147
   85SOL    HW1  264   0.599   0.138   1.184
   85SOL    HW2  265   0.473   0.241   1.191
   86SOL     OW  266   0.866   0.454   0.642
   86SOL    HW1  267   0.834   0.526   0.580
   86SOL    HW2  268   0.890   0.373   0.589
   87SOL     OW  269   1.017   0.039   0.753
   87SOL    HW1  270   0.945   0.044   0.684
   87SOL    HW2  271   0.993  -0.030   0.822
   88SOL     OW  272   1.429   1.173   0.867
   88SOL    HW1  273   1.374   1.089   0.860
   88SOL    HW2  274   1.455   1.202   0.775
   89SOL     OW  275   1.466   0.590   0.992
   89SOL    HW1  276   1.436   0.495   0.999
   89SOL    HW2  277   1.539   0.606   1.058
   90SOL     OW  278   1.857   0.833   0.377
   90SOL    HW1  279   1.899   0.769   0.441
   90SOL    HW2  280   1.819   0.782   0.299
   91SOL     OW  281   0.488   1.385   0.174
   91SOL    HW1  282   0.401   1.370   0.221
   91SOL    HW2  283   0.471   1.411   0.079
   92SOL     OW  284   1.664   1.280   0.657
   92SOL    HW1  285   1.763   1.288   0.671
   92SOL    HW2  286   1.619   1.364   0.688
   93SOL     OW  287   1.390   0.575   0.078
   93SOL    HW1  288   1.336   0.554   0.159
   93SOL    HW2  289   1.481   0.534   0.087
   94SOL     OW  290   0.527   0.256   0.328
   94SOL    HW1  291   0.554   0.197   0.253
   94SOL    HW2  292   0.527   0.351   0.297
   95SOL     OW  293   1.754   1.223   1.588
   95SOL    HW1  294   1.845   1.184   1.575
   95SOL    HW2  295   1.762   1.319   1.612
   96SOL     OW  296   1.064   1.347   1.340
   96SOL    HW1  297   0.984   1.324   1.395
   96SOL    HW2  298   1.147   1.321   1.389
   97SOL     OW  299   1.592   1.629   1.625
   97SOL    HW1  300   1.619   1.663   1.535
   97SOL    HW2  301   1.671   1.591   1.671
   98SOL     OW  302   1.111   1.195   1.100
   98SOL    HW1  303   1.071   1.239   1.181
   98SOL    HW2  304   1.070   1.232   1.017
   99SOL     OW  305   1.638   1.099   1.079
   99SOL    HW1  306   1.643   1.180   1.138
   99SOL    HW2  307   1.552   1.101   1.028
  100SOL     OW  308   0.915   0.089   1.402
  100SOL    HW1  309   0.940   0.069   1.307
  100SOL    HW2  310   0.987   0.145   1.444
  101SOL     OW  311   0.980   1.116   1.719
  101SOL    HW1  312   0.881   1.122   1.729
  101SOL    HW2  313   1.003   1.036   1.663
  102SOL     OW  314   0.705   1.050   0.368
  102SOL    HW1  315   0.691   1.057   0.467
  102SOL    HW2  316   0.789   0.999   0.350
  103SOL     OW  317   0.410   0.813   1.251
  103SOL    HW1  318   0.496   0.825   1.301
  103SOL    HW2  319   0.368   0.726   1.278
  104SOL     OW  320   1.274   0.386   1.262
  104SOL    HW1  321   1.295   0.460   1.326
  104SOL    HW2  322   1.185   0.403   1.219
  105SOL     OW  323   0.064   1.564   1.331
  105SOL    HW1  324   0.018   1.646   1.297
  105SOL    HW2  325   0.162   1.583   1.340
  106SOL     OW  326   0.367   1.100   0.501
  106SOL    HW1  327   0.360   1.183   0.445
  106SOL    HW2  328   0.371   1.020   0.441
  107SOL     OW  329   0.566   0.537   0.865
  107SOL    HW1  330   0.578   0.603   0.791
  107SOL    HW2  331   0.612   0.571   0.948
  108SOL     OW  332   1.252   1.348   0.388
  108SOL    HW1  333   1.302   1.425   0.428
  108SOL    HW2  334   1.157   1.350   0.420
  109SOL     OW  335   1.272   1.445   1.142
  109SOL    HW1  336   1.319   1.458   1.229
  109SOL    HW2  337   1.206   1.371   1.151
  110SOL     OW  338   1.582   0.639   0.472
  110SOL    HW1  339   1.551   0.700   0.545
  110SOL    HW2  340   1.632   0.691   0.403
  111SOL     OW  341   0.354   1.510   1.329
  111SOL    HW1  342   0.333   1.466   1.242
  111SOL    HW2  343   0.451   1.536   1.332
  112SOL     OW  344   0.402   0.751   1.598
  112SOL    HW1  345   0.470   0.806   1.551
  112SOL    HW2  346   0.442   0.663   1.625
  113SOL     OW  347   1.587   0.779   1.670
  113SOL    HW1  348   1.495   0.817   1.665
  113SOL    HW2  349   1.647   0.826   1.605
  114SOL     OW  350   1.013   0.105   1.770
  114SOL    HW1  351   1.019   0.190   1.718
  114SOL    HW2  352   1.045   0.029   1.713
  115SOL     OW  353   0.504   0.050   1.740
  115SOL    HW1  354   0.462  -0.007   1.670
  115SOL    HW2  355   0.438   0.119   1.772
  116SOL     OW  356   0.573   0.870   1.029
  116SOL    HW1  357   0.617   0.959   1.020
  116SOL    HW2  358   0.510   0.870   1.106
  117SOL     OW  359   1.360   0.862   1.045
  117SOL    HW1  360   1.285   0.862   0.979
  117SOL    HW2  361   1.397   0.770   1.054
  118SOL     OW  362   1.209   0.525   0.275
  118SOL    HW1  363   1.222   0.441   0.329
  118SOL    HW2  364   1.180   0.599   0.335
  119SOL     OW  365   0.307   0.213   1.231
  119SOL    HW1  366   0.284   0.250   1.321
  119SOL    HW2  367   0.277   0.118   1.225
  120SOL     OW  368   0.037   1.310   1.282
  120SOL    HW1  369   0.090   1.261   1.350
  120SOL    HW2  370   0.059   1.408   1.287
  121SOL     OW  371   0.732   0.634   1.064
  121SOL    HW1  372   0.791   0.608   0.988
  121SOL    HW2  373   0.704   0.730   1.053
  122SOL     OW  374   1.728   0.935   1.854
  122SOL    HW1  375   1.682   0.928   1.765
  122SOL    HW2  376   1.666   0.979   1.920
  123SOL     OW  377   0.307   0.063   0.618
  123SOL    HW1  378   0.296   0.157   0.651
  123SOL    HW2  379   0.302   0.000   0.695
  124SOL     OW  380   1.622   0.367   0.374
  124SOL    HW1  381   1.624   0.291   0.438
  124SOL    HW2  382   1.574   0.444   0.414
  125SOL     OW  383   1.023   0.766   0.966
  125SOL    HW1  384   1.038   0.787   1.062
  125SOL    HW2  385   0.993   0.671   0.957
  126SOL     OW  386   0.980   1.573   1.700
  126SOL    HW1  387   0.960   1.617   1.612
  126SOL    HW2  388   1.019   1.482   1.684
  127SOL     OW  389   1.859   1.518   1.605
  127SOL    HW1  390   1.873   1.545   1.510
  127SOL    HW2  391   1.942   1.540   1.658
  128SOL     OW  392   0.350   0.898   1.804
  128SOL    HW1  393   0.426   0.942   1.852
  128SOL    HW2  394   0.385   0.851   1.722
  129SOL     OW  395   1.540   0.274   0.125
  129SOL    HW1  396   1.479   0.199   0.148
  129SOL    HW2  397   1.562   0.326   0.208
  130SOL     OW  398   1.303   0.838   0.042
  130SOL    HW1  399   1.337   0.745   0.057
  130SOL    HW2  400   1.321   0.865  -0.053
  131SOL     OW  401   1.068   1.333   0.849
  131SOL    HW1  402   1.075   1.249   0.794
  131SOL    HW2  403   1.130   1.402   0.813
  132SOL     OW  404   0.319   0.810   0.949
  132SOL    HW1  405   0.412   0.846   0.954
  132SOL    HW2  406   0.313   0.725   1.001
  133SOL     OW  407   0.339   0.509   1.006
  133SOL    HW1  408   0.287   0.426   0.989
  133SOL    HW2  409   0.416   0.514   0.942
  134SOL     OW  410   1.138   0.380   1.678
  134SOL    HW1  411   1.093   0.443   1.742
  134SOL    HW2  412   1.231   0.411   1.661
  135SOL     OW  413   1.160   0.207   1.477
  135SOL    HW1  414   1.160   0.271   1.554
  135SOL    HW2  415   1.188   0.255   1.394
  136SOL     OW  416   0.008   1.326   0.200
  136SOL    HW1  417  -0.085   1.347   0.169
  136SOL    HW2  418   0.018   1.227   0.213
  137SOL     OW  419   0.088   1.801   0.927
  137SOL    HW1  420   0.046   1.715   0.900
  137SOL    HW2  421   0.182   1.804   0.893
  138SOL     OW  422   0.504   1.568   0.910
  138SOL    HW1  423   0.570   1.642   0.919
  138SOL    HW2  424   0.548   1.489   0.868
  139SOL     OW  425   1.002   0.796   1.238
  139SOL    HW1  426   1.043   0.764   1.324
  139SOL    HW2  427   0.906   0.769   1.235
  140SOL     OW  428   0.040   0.544   1.114
  140SOL    HW1  429   0.125   0.511   1.073
  140SOL    HW2  430   0.053   0.559   1.212
  141SOL     OW  431   0.189   0.520   1.722
  141SOL    HW1  432   0.248   0.480   1.652
  141SOL    HW2  433   0.131   0.591   1.681
  142SOL     OW  434   1.369   0.950   1.660
  142SOL    HW1  435   1.408   1.039   1.680
  142SOL    HW2  436   1.379   0.930   1.563
  143SOL     OW  437   0.815   0.572   0.325
  143SOL    HW1  438   0.822   0.483   0.279
  143SOL    HW2  439   0.721   0.606   0.317
  144SOL     OW  440   1.657   0.604   1.206
  144SOL    HW1  441   1.619   0.535   1.268
  144SOL    HW2  442   1.739   0.568   1.162
  145SOL     OW  443   0.252   1.564   1.744
  145SOL    HW1  444   0.222   1.621   1.820
  145SOL    HW2  445   0.245   1.467   1.770
  146SOL     OW  446   0.671   0.464   1.269
  146SOL    HW1  447   0.637   0.375   1.239
  146SOL    HW2  448   0.697   0.518   1.189
  147SOL     OW  449   0.930   1.678   1.465
  147SOL    HW1  450   0.906   1.660   1.370
  147SOL    HW2  451   0.960   1.772   1.475
  148SOL     OW  452   0.473   0.500   0.191
  148SOL    HW1  453   0.534   0.580   0.195
  148SOL    HW2  454   0.378   0.531   0.198
  149SOL     OW  455   0.159   1.137   1.466
  149SOL    HW1  456   0.181   1.076   1.542
  149SOL    HW2  457   0.169   1.088   1.380
  150SOL     OW  458   1.347   1.059   1.234
  150SOL    HW1  459   1.371   0.996   1.160
  150SOL    HW2  460   1.257   1.099   1.216
  151SOL     OW  461   1.302   0.855   0.309
  151SOL    HW1  462   1.216   0.824   0.351
  151SOL    HW2  463   1.298   0.841   0.210
  152SOL     OW  464   1.759   1.747   1.154
  152SOL    HW1  465   1.820   1.777   1.081
  152SOL    HW2  466   1.721   1.658   1.132
  153SOL     OW  467   1.252   1.731   1.128
  153SOL    HW1  468   1.336   1.736   1.074
  153SOL    HW2  469   1.229   1.635   1.146
  154SOL     OW  470   0.083   1.258   1.022
  154SOL    HW1  471   0.078   1.257   1.122
  154SOL    HW2  472   0.000   1.217   0.984
  155SOL     OW  473   0.688   1.662   1.716
  155SOL    HW1  474   0.632   1.743   1.725
  155SOL    HW2  475   0.740   1.666   1.630
  156SOL     OW  476   0.903   0.086   0.133
  156SOL    HW1  477   0.954   0.087   0.047
  156SOL    HW2  478   0.959   0.044   0.204
  157SOL     OW  479   1.726   0.135   0.523
  157SOL    HW1  480   1.799   0.118   0.456
  157SOL    HW2  481   1.695   0.048   0.561
  158SOL     OW  482   1.388   1.573   0.477
  158SOL    HW1  483   1.455   1.585   0.403
  158SOL    HW2  484   1.348   1.662   0.500
  159SOL     OW  485   0.130   1.794   1.851
  159SOL    HW1  486   0.089   1.720   1.904
  159SOL    HW2  487   0.194   1.845   1.909
  160SOL     OW  488   1.280   0.927   0.672
  160SOL    HW1  489   1.340   0.846   0.674
  160SOL    HW2  490   1.320   0.996   0.612
  161SOL     OW  491   0.830   1.273   1.422
  161SOL    HW1  492   0.825   1.306   1.517
  161SOL    HW2  493   0.744   1.292   1.376
  162SOL     OW  494   0.672   1.616   0.154
  162SOL    HW1  495   0.681   1.626   0.055
  162SOL    HW2  496   0.632   1.527   0.175
  163SOL     OW  497   1.650   1.720   1.394
  163SOL    HW1  498   1.703   1.730   1.310
  163SOL    HW2  499   1.623   1.810   1.428
  164SOL     OW  500   1.841   0.175   0.963
  164SOL    HW1  501   1.880   0.090   0.927
  164SOL    HW2  502   1.743   0.177   0.944
  165SOL     OW  503   0.263   0.326   0.720
  165SOL    HW1  504   0.184   0.377   0.686
  165SOL    HW2  505   0.254   0.311   0.818
  166SOL     OW  506   1.194   1.612   0.031
  166SOL    HW1  507   1.200   1.519   0.068
  166SOL    HW2  508   1.135   1.612  -0.049
  167SOL     OW  509   0.822   1.002   1.372
  167SOL    HW1  510   0.862   1.001   1.280
  167SOL    HW2  511   0.832   1.094   1.412
  168SOL     OW  512   0.916   0.910   0.291
  168SOL    HW1  513   0.979   0.948   0.223
  168SOL    HW2  514   0.956   0.827   0.330
  169SOL     OW  515   1.504   1.607   0.044
  169SOL    HW1  516   1.412   1.644   0.051
  169SOL    HW2  517   1.542   1.627  -0.046
  170SOL     OW  518   0.372   1.288   1.490
  170SOL    HW1  519   0.359   1.381   1.456
  170SOL    HW2  520   0.288   1.236   1.477
  171SOL     OW  521   1.614   1.292   1.289
  171SOL    HW1  522   1.674   1.295   1.369
  171SOL    HW2  523   1.539   1.356   1.302
  172SOL     OW  524   1.039   1.098   0.696
  172SOL    HW1  525   0.969   1.051   0.750
  172SOL    HW2  526   1.098   1.030   0.653
  173SOL     OW  527   1.014   0.236   0.971
  173SOL    HW1  528   1.006   0.200   0.878
  173SOL    HW2  529   1.012   0.160   1.036
  174SOL     OW  530   0.590   1.487   0.491
  174SOL    HW1  531   0.632   1.429   0.421
  174SOL    HW2  532   0.546   1.566   0.447
  175SOL     OW  533   1.709   0.385   1.381
  175SOL    HW1  534   1.782   0.454   1.385
  175SOL    HW2  535   1.737   0.310   1.322
  176SOL     OW  536   0.255   1.348   0.290
  176SOL    HW1  537   0.159   1.349   0.263
  176SOL    HW2  538   0.267   1.401   0.374
  177SOL     OW  539   0.105   1.013   1.726
  177SOL    HW1  540   0.028   0.980   1.780
  177SOL    HW2  541   0.190   0.983   1.768
  178SOL     OW  542   0.672   0.203   1.489
  178SOL    HW1  543   0.762   0.187   1.449
  178SOL    HW2  544   0.680   0.208   1.588
  179SOL     OW  545   0.075   0.345   0.033
  179SOL    HW1  546  -0.017   0.317   0.004
  179SOL    HW2  547   0.106   0.422  -0.023
  180SOL     OW  548   1.440   0.856   1.398
  180SOL    HW1  549   1.383   0.908   1.335
  180SOL    HW2  550   1.536   0.868   1.374
  181SOL     OW  551   0.072   0.166   0.318
  181SOL    HW1  552   0.055   0.249   0.264
  181SOL    HW2  553   0.162   0.129   0.296
  182SOL     OW  554   1.183   1.335   0.119
  182SOL    HW1  555   1.084   1.324   0.121
  182SOL    HW2  556   1.217   1.350   0.212
  183SOL     OW  557   0.613   0.842   1.431
  183SOL    HW1  558   0.669   0.923   1.414
  183SOL    HW2  559   0.672   0.762   1.434
  184SOL     OW  560   1.493   1.767   0.959
  184SOL    HW1  561   1.526   1.831   0.890
  184SOL    HW2  562   1.559   1.761   1.034
  185SOL     OW  563   0.716   0.565   1.708
  185SOL    HW1  564   0.735   0.630   1.782
  185SOL    HW2  565   0.776   0.485   1.717
  186SOL     OW  566   1.450   1.220   1.633
  186SOL    HW1  567   1.441   1.210   1.732
  186SOL    HW2  568   1.546   1.213   1.607
  187SOL     OW  569   0.390   1.741   1.560
  187SOL    HW1  570   0.299   1.782   1.558
  187SOL    HW2  571   0.383   1.647   1.592
  188SOL     OW  572   1.674   0.883   1.254
  188SOL    HW1  573   1.647   0.794   1.217
  188SOL    HW2  574   1.675   0.951   1.181
  189SOL     OW  575   1.225   0.325   0.449
  189SOL    HW1  576   1.290   0.251   0.438
  189SOL    HW2  577   1.245   0.375   0.533
  190SOL     OW  578   0.594   0.745   0.652
  190SOL    HW1  579   0.644   0.830   0.633
  190SOL    HW2  580   0.506   0.747   0.604
  191SOL     OW  581   1.777   0.342   1.642
  191SOL    HW1  582   1.760   0.373   1.548
  191SOL    HW2  583   1.693   0.305   1.680
  192SOL     OW  584   1.730   0.934   1.517
  192SOL    HW1  585   1.768   1.025   1.532
  192SOL    HW2  586   1.722   0.917   1.418
  193SOL     OW  587   0.859   1.374   0.016
  193SOL    HW1  588   0.813   1.389   0.104
  193SOL    HW2  589   0.903   1.459  -0.014
  194SOL     OW  590   0.661   1.790   0.953
  194SOL    HW1  591   0.615   1.878   0.940
  194SOL    HW2  592   0.760   1.802   0.946
  195SOL     OW  593   0.859   0.956   0.861
  195SOL    HW1  594   0.913   0.887   0.909
  195SOL    HW2  595   0.827   1.025   0.927
  196SOL     OW  596   1.083   0.984   0.087
  196SOL    HW1  597   1.060   1.037   0.005
  196SOL    HW2  598   1.164   0.928   0.068
  197SOL     OW  599   1.861   1.569   0.851
  197SOL    HW1  600   1.790   1.557   0.781
  197SOL    HW2  601   1.862   1.490   0.911
  198SOL     OW  602   0.221   1.314   1.844
  198SOL    HW1  603   0.156   1.241   1.823
  198SOL    HW2  604   0.225   1.328   1.942
  199SOL     OW  605   0.079   1.240   0.653
  199SOL    HW1  606   0.078   1.193   0.741
  199SOL    HW2  607   0.161   1.212   0.602
  200SOL     OW  608   0.672   1.391   1.624
  200SOL    HW1  609   0.594   1.341   1.662
  200SOL    HW2  610   0.669   1.486   1.655
  201SOL     OW  611   1.824   0.192   1.227
  201SOL    HW1  612   1.820   0.102   1.271
  201SOL    HW2  613   1.827   0.181   1.128
  202SOL     OW  614   0.428   0.424   0.520
  202SOL    HW1  615   0.458   0.352   0.458
  202SOL    HW2  616   0.389   0.384   0.603
  203SOL     OW  617   1.705   1.487   1.104
  203SOL    HW1  618   1.612   1.462   1.077
  203SOL    HW2  619   1.731   1.437   1.186
  204SOL     OW  620   0.317   0.547   1.280
  204SOL    HW1  621   0.355   0.488   1.352
  204SOL    HW2  622   0.357   0.521   1.192
  205SOL     OW  623   0.812   1.586   0.687
  205SOL    HW1  624   0.844   1.596   0.593
  205SOL    HW2  625   0.733   1.524   0.689
  206SOL     OW  626   1.424   0.214   1.112
  206SOL    HW1  627   1.476   0.149   1.167
  206SOL    HW2  628   1.375   0.277   1.173
  207SOL     OW  629   1.001   0.034   1.154
  207SOL    HW1  630   0.938  -0.038   1.123
  207SOL    HW2  631   1.094  -0.002   1.154
  208SOL     OW  632   0.770   1.330   0.301
  208SOL    HW1  633   0.724   1.243   0.318
  208SOL    HW2  634   0.861   1.327   0.342
  209SOL     OW  635   0.618   1.567   1.284
  209SOL    HW1  636   0.613   1.649   1.341
  209SOL    HW2  637   0.707   1.564   1.239
  210SOL     OW  638   1.352   0.052   0.168
  210SOL    HW1  639   1.387   0.011   0.084
  210SOL    HW2  640   1.262   0.014   0.188
  211SOL     OW  641   1.300   0.453   0.691
  211SOL    HW1  642   1.241   0.533   0.695
  211SOL    HW2  643   1.315   0.418   0.784
  212SOL     OW  644   1.593   0.221   0.882
  212SOL    HW1  645   1.509   0.220   0.936
  212SOL    HW2  646   1.595   0.304   0.826
  213SOL     OW  647   0.039   1.077   0.300
  213SOL    HW1  648   0.138   1.066   0.291
  213SOL    HW2  649  -0.001   0.991   0.332
  214SOL     OW  650   0.875   1.646   0.337
  214SOL    HW1  651   0.798   1.611   0.283
  214SOL    HW2  652   0.843   1.717   0.399
  215SOL     OW  653   0.230   0.628   1.975
  215SOL    HW1  654   0.137   0.626   2.012
  215SOL    HW2  655   0.231   0.589   1.883
  216SOL     OW  656   0.225   0.275   2.858
  216SOL    HW1  657   0.260   0.258   2.950
  216SOL    HW2  658   0.137   0.230   2.846
  217SOL     OW  659   0.019   0.368   2.509
  217SOL    HW1  660  -0.063   0.411   2.548
  217SOL    HW2  661  -0.009   0.295   2.446
  218SOL     OW  662   0.569   1.275   3.027
  218SOL    HW1  663   0.476   1.268   2.990
  218SOL    HW2  664   0.580   1.364   3.071
  219SOL     OW  665   1.555   1.511   2.565
  219SOL    HW1  666   1.498   1.495   2.646
  219SOL    HW2  667   1.496   1.521   2.485
  220SOL     OW  668   1.135   0.703   2.579
  220SOL    HW1  669   1.192   0.781   2.554
  220SOL    HW2  670   1.075   0.729   2.655
  221SOL     OW  671   1.755   0.607   2.093
  221SOL    HW1  672   1.743   0.594   1.994
  221SOL    HW2  673   1.725   0.526   2.142
  222SOL     OW  674   0.768   1.144   2.885
  222SOL    HW1  675   0.690   1.161   2.945
  222SOL    HW2  676   0.802   1.231   2.849
  223SOL     OW  677   0.850   0.798   3.685
  223SOL    HW1  678   0.846   0.874   3.750
  223SOL    HW2  679   0.872   0.834   3.594
  224SOL     OW  680   0.685   1.012   2.527
  224SOL    HW1  681   0.754   0.996   2.597
  224SOL    HW2  682   0.612   1.069   2.565
  225SOL     OW  683   0.686   1.161   3.665
  225SOL    HW1  684   0.746   1.240   3.679
  225SOL    HW2  685   0.600   1.192   3.624
  226SOL     OW  686   0.335   1.435   2.923
  226SOL    HW1  687   0.257   1.404   2.870
  226SOL    HW2  688   0.393   1.493   2.866
  227SOL     OW  689   1.460   1.505   3.201
  227SOL    HW1  690   1.484   1.599   3.227
  227SOL    HW2  691   1.444   1.451   3.283
  228SOL     OW  692   0.438   0.392   3.361
  228SOL    HW1  693   0.520   0.336   3.370
  228SOL    HW2  694   0.357   0.334   3.365
  229SOL     OW  695   1.603   0.447   2.599
  229SOL    HW1  696   1.529   0.493   2.549
  229SOL    HW2  697   1.654   0.515   2.652
  230SOL     OW  698   0.231   1.713   2.345
  230SOL    HW1  699   0.265   1.790   2.399
  230SOL    HW2  700   0.275   1.713   2.255
  231SOL     OW  701   1.127   1.341   3.552
  231SOL    HW1  702   1.174   1.341   3.640
  231SOL    HW2  703   1.079   1.254   3.541
  232SOL     OW  704   0.230   1.434   2.400
  232SOL    HW1  705   0.204   1.530   2.400
  232SOL    HW2  706   0.159   1.380   2.445
  233SOL     OW  707   0.240   1.091   2.748
  233SOL    HW1  708   0.254   1.007   2.800
  233SOL    HW2  709   0.185   1.155   2.803
  234SOL     OW  710   0.620   1.786   3.301
  234SOL    HW1  711   0.528   1.769   3.336
  234SOL    HW2  712   0.648   1.878   3.327
  235SOL     OW  713   0.606   0.964   1.985
  235SOL    HW1  714   0.613   1.048   1.931
  235SOL    HW2  715   0.652   0.977   2.073
  236SOL     OW  716   1.594   0.114   3.342
  236SOL    HW1  717   1.576   0.181   3.270
  236SOL    HW2  718   1.591   0.160   3.431
  237SOL     OW  719   0.122   0.643   2.425
  237SOL    HW1  720   0.077   0.555   2.442
  237SOL    HW2  721   0.121   0.697   2.509
  238SOL     OW  722   1.842   1.767   2.221
  238SOL    HW1  723   1.896   1.738   2.301
  238SOL    HW2  724   1.872   1.857   2.192
  239SOL     OW  725   0.027   1.596   1.979
  239SOL    HW1  726   0.008   1.500   2.000
  239SOL    HW2  727  -0.006   1.654   2.054
  240SOL     OW  728   1.689   0.922   2.474
  240SOL    HW1  729   1.784   0.893   2.482
  240SOL    HW2  730   1.681   0.987   2.399
  241SOL     OW  731   1.641   1.108   2.294
  241SOL    HW1  732   1.727   1.110   2.242
  241SOL    HW2  733   1.655   1.155   2.382
  242SOL     OW  734   0.113   0.737   3.459
  242SOL    HW1  735   0.201   0.724   3.504
  242SOL    HW2  736   0.100   0.834   3.437
  243SOL     OW  737   0.613   1.365   2.588
  243SOL    HW1  738   0.564   1.278   2.597
  243SOL    HW2  739   0.590   1.408   2.501
  244SOL     OW  740   1.293   1.228   3.285
  244SOL    HW1  741   1.330   1.155   3.227
  244SOL    HW2  742   1.345   1.233   3.370
  245SOL     OW  743   0.809   0.004   2.364
  245SOL    HW1  744   0.849   0.095   2.355
  245SOL    HW2  745   0.709   0.012   2.370
  246SOL     OW  746   0.197   0.976   3.126
  246SOL    HW1  747   0.286   0.931   3.112
  246SOL    HW2  748   0.124   0.911   3.107
  247SOL     OW  749   1.525   0.999   2.052
  247SOL    HW1  750   1.462   0.923   2.065
  247SOL    HW2  751   1.573   1.017   2.138
  248SOL     OW  752   1.187   1.792   3.478
  248SOL    HW1  753   1.211   1.852   3.402
  248SOL    HW2  754   1.194   1.697   3.448
  249SOL     OW  755   0.317   0.251   3.663
  249SOL    HW1  756   0.388   0.322   3.669
  249SOL    HW2  757   0.229   0.290   3.691
  250SOL     OW  758   1.466   1.417   2.815
  250SOL    HW1  759   1.407   1.423   2.895
  250SOL    HW2  760   1.451   1.329   2.769
  251SOL     OW  761   1.667   1.714   2.434
  251SOL    HW1  762   1.626   1.691   2.346
  251SOL    HW2  763   1.649   1.640   2.499
  252SOL     OW  764   0.598   0.729   2.132
  252SOL    HW1  765   0.622   0.798   2.064
  252SOL    HW2  766   0.520   0.762   2.186
  253SOL     OW  767   1.281   0.345   2.806
  253SOL    HW1  768   1.195   0.295   2.793
  253SOL    HW2  769   1.343   0.291   2.862
  254SOL     OW  770   1.576   1.662   2.169
  254SOL    HW1  771   1.665   1.708   2.172
  254SOL    HW2  772   1.555   1.638   2.074
  255SOL     OW  773   0.807   0.605   3.327
  255SOL    HW1  774   0.760   0.602   3.416
  255SOL    HW2  775   0.756   0.550   3.261
  256SOL     OW  776   1.394   0.469   3.536
  256SOL    HW1  777   1.374   0.512   3.624
  256SOL    HW2  778   1.472   0.407   3.545
  257SOL     OW  779   0.973   0.890   3.434
  257SOL    HW1  780   1.019   0.806   3.405
  257SOL    HW2  781   0.917   0.924   3.359
  258SOL     OW  782   0.991   0.410   3.104
  258SOL    HW1  783   0.914   0.444   3.158
  258SOL    HW2  784   0.957   0.359   3.025
  259SOL     OW  785   1.041   0.701   2.291
  259SOL    HW1  786   1.067   0.697   2.387
  259SOL    HW2  787   0.956   0.650   2.277
  260SOL     OW  788   0.076   0.811   2.651
  260SOL    HW1  789   0.175   0.799   2.660
  260SOL    HW2  790   0.052   0.906   2.672
  261SOL     OW  791   0.130   1.821   3.433
  261SOL    HW1  792   0.120   1.806   3.532
  261SOL    HW2  793   0.044   1.857   3.397
  262SOL     OW  794   0.865   0.348   2.057
  262SOL    HW1  795   0.924   0.411   2.008
  262SOL    HW2  796   0.884   0.254   2.028
  263SOL     OW  797   1.719   0.585   3.693
  263SOL    HW1  798   1.693   0.674   3.657
  263SOL    HW2  799   1.717   0.517   3.620
  264SOL     OW  800   1.362   1.144   2.407
  264SOL    HW1  801   1.445   1.115   2.359
  264SOL    HW2  802   1.313   1.211   2.351
  265SOL     OW  803   0.550   0.196   2.747
  265SOL    HW1  804   0.545   0.191   2.847
  265SOL    HW2  805   0.552   0.292   2.718
  266SOL     OW  806   1.008   1.456   2.339
  266SOL    HW1  807   0.962   1.528   2.287
  266SOL    HW2  808   1.004   1.476   2.437
  267SOL     OW  809   0.351   1.801   2.715
  267SOL    HW1  810   0.401   1.715   2.721
  267SOL    HW2  811   0.416   1.878   2.712
  268SOL     OW  812   1.795   1.066   2.735
  268SOL    HW1  813   1.733   1.051   2.659
  268SOL    HW2  814   1.743   1.077   2.820
  269SOL     OW  815   1.227   1.550   3.368
  269SOL    HW1  816   1.233   1.473   3.432
  269SOL    HW2  817   1.175   1.524   3.288
  270SOL     OW  818   0.321   0.943   2.104
  270SOL    HW1  819   0.403   0.982   2.062
  270SOL    HW2  820   0.294   0.861   2.055
  271SOL     OW  821   1.458   0.735   2.590
  271SOL    HW1  822   1.453   0.670   2.665
  271SOL    HW2  823   1.538   0.794   2.603
  272SOL     OW  824   0.461   1.266   3.589
  272SOL    HW1  825   0.411   1.267   3.503
  272SOL    HW2  826   0.398   1.248   3.665
  273SOL     OW  827   1.111   1.776   2.099
  273SOL    HW1  828   1.051   1.714   2.149
  273SOL    HW2  829   1.142   1.732   2.014
  274SOL     OW  830   0.202   0.285   3.360
  274SOL    HW1  831   0.122   0.345   3.347
  274SOL    HW2  832   0.192   0.236   3.446
  275SOL     OW  833   1.632   1.377   1.943
  275SOL    HW1  834   1.600   1.471   1.933
  275SOL    HW2  835   1.556   1.314   1.931
  276SOL     OW  836   0.464   1.743   2.185
  276SOL    HW1  837   0.497   1.782   2.271
  276SOL    HW2  838   0.540   1.736   2.120
  277SOL     OW  839   1.400   0.107   2.288
  277SOL    HW1  840   1.376   0.070   2.198
  277SOL    HW2  841   1.499   0.123   2.292
  278SOL     OW  842   0.249   1.785   3.103
  278SOL    HW1  843   0.306   1.720   3.153
  278SOL    HW2  844   0.233   1.752   3.010
  279SOL     OW  845   0.940   1.698   2.766
  279SOL    HW1  846   1.020   1.641   2.787
  279SOL    HW2  847   0.891   1.658   2.689
  280SOL     OW  848   0.382   0.700   2.342
  280SOL    HW1  849   0.427   0.610   2.339
  280SOL    HW2  850   0.288   0.689   2.375
  281SOL     OW  851   1.547   0.222   3.591
  281SOL    HW1  852   1.542   0.259   3.683
  281SOL    HW2  853   1.475   0.153   3.579
  282SOL     OW  854   0.614   0.122   1.979
  282SOL    HW1  855   0.712   0.100   1.986
  282SOL    HW2  856   0.583   0.105   1.886
  283SOL     OW  857   0.781   0.264   3.611
  283SOL    HW1  858   0.848   0.203   3.654
  283SOL    HW2  859   0.708   0.283   3.676
  284SOL     OW  860   0.888   1.514   3.057
  284SOL    HW1  861   0.865   1.489   2.963
  284SOL    HW2  862   0.949   1.445   3.096
  285SOL     OW  863   1.351   0.590   3.295
  285SOL    HW1  864   1.379   0.547   3.380
  285SOL    HW2  865   1.376   0.686   3.296
  286SOL     OW  866   0.803   1.402   2.786
  286SOL    HW1  867   0.893   1.416   2.744
  286SOL    HW2  868   0.732   1.404   2.715
  287SOL     OW  869   0.922   0.503   2.761
  287SOL    HW1  870   0.897   0.494   2.665
  287SOL    HW2  871   0.970   0.421   2.792
  288SOL     OW  872   0.539   0.064   2.374
  288SOL    HW1  873   0.458   0.065   2.432
  288SOL    HW2  874   0.542   0.147   2.319
  289SOL     OW  875   1.434   1.188   1.903
  289SOL    HW1  876   1.466   1.112   1.960
  289SOL    HW2  877   1.342   1.215   1.933
  290SOL     OW  878   0.297   0.035   2.033
  290SOL    HW1  879   0.346   0.119   2.012
  290SOL    HW2  880   0.359  -0.030   2.078
  291SOL     OW  881   0.935   0.236   2.342
  291SOL    HW1  882   0.887   0.277   2.264
  291SOL    HW2  883   1.034   0.234   2.323
  292SOL     OW  884   1.076   0.683   3.326
  292SOL    HW1  885   0.996   0.622   3.329
  292SOL    HW2  886   1.157   0.630   3.302
  293SOL     OW  887   1.227   1.570   2.655
  293SOL    HW1  888   1.248   1.644   2.590
  293SOL    HW2  889   1.295   1.570   2.728
  294SOL     OW  890   0.459   1.152   2.603
  294SOL    HW1  891   0.388   1.125   2.668
  294SOL    HW2  892   0.433   1.124   2.510
  295SOL     OW  893   1.271   1.797   2.453
  295SOL    HW1  894   1.315   1.861   2.389
  295SOL    HW2  895   1.221   1.849   2.523
  296SOL     OW  896   1.032   0.549   1.878
  296SOL    HW1  897   0.991   0.631   1.839
  296SOL    HW2  898   1.096   0.575   1.951
  297SOL     OW  899   0.078   0.556   3.248
  297SOL    HW1  900   0.170   0.555   3.207
  297SOL    HW2  901   0.072   0.630   3.315
  298SOL     OW  902   0.561   0.222   3.009
  298SOL    HW1  903   0.599   0.138   3.046
  298SOL    HW2  904   0.473   0.241   3.053
  299SOL     OW  905   0.866   0.454   2.504
  299SOL    HW1  906   0.834   0.526   2.442
  299SOL    HW2  907   0.890   0.373   2.451
  300SOL     OW  908   1.017   0.039   2.615
  300SOL    HW1  909   0.945   0.044   2.546
  300SOL    HW2  910   0.993  -0.030   2.684
  301SOL     OW  911   1.429   1.173   2.729
  301SOL    HW1  912   1.374   1.089   2.722
  301SOL    HW2  913   1.455   1.202   2.637
  302SOL     OW  914   1.466   0.590   2.854
  302SOL    HW1  915   1.436   0.495   2.861
  302SOL    HW2  916   1.539   0.606   2.920
  303SOL     OW  917   1.857   0.833   2.239
  303SOL    HW1  918   1.899   0.769   2.303
  303SOL    HW2  919   1.819   0.782   2.161
  304SOL     OW  920   0.488   1.385   2.036
  304SOL    HW1  921   0.401   1.370   2.083
  304SOL    HW2  922   0.471   1.411   1.941
  305SOL     OW  923   1.664   1.280   2.519
  305SOL    HW1  924   1.763   1.288   2.533
  305SOL    HW2  925   1.619   1.364   2.550
  306SOL     OW  926   1.390   0.575   1.940
  306SOL    HW1  927   1.336   0.554   2.021
  306SOL    HW2  928   1.481   0.534   1.949
  307SOL     OW  929   0.527   0.256   2.190
  307SOL    HW1  930   0.554   0.197   2.115
  307SOL    HW2  931   0.527   0.351   2.159
  308SOL     OW  932   1.754   1.223   3.450
  308SOL    HW1  933   1.845   1.184   3.437
  308SOL    HW2  934   1.762   1.319   3.474
  309SOL     OW  935   1.064   1.347   3.202
  309SOL    HW1  936   0.984   1.324   3.257
  309SOL    HW2  937   1.147   1.321   3.251
  310SOL     OW  938   1.592   1.629   3.487
  310SOL    HW1  939   1.619   1.663   3.397
  310SOL    HW2  940   1.671   1.591   3.533
  311SOL     OW  941   1.111   1.195   2.962
  311SOL    HW1  942   1.071   1.239   3.043
  311SOL    HW2  943   1.070   1.232   2.879
  312SOL     OW  944   1.638   1.099   2.941
  312SOL    HW1  945   1.643   1.180   3.000
  312SOL    HW2  946   1.552   1.101   2.890
  313SOL     OW  947   0.915   0.089   3.264
  313SOL    HW1  948   0.940   0.069   3.169
  313SOL    HW2  949   0.987   0.145   3.306
  314SOL     OW  950   0.980   1.116   3.581
  314SOL    HW1  951   0.881   1.122   3.591
  314SOL    HW2  952   1.003   1.036   3.525
  315SOL     OW  953   0.705   1.050   2.230
  315SOL    HW1  954   0.691   1.057   2.329
  315SOL    HW2  955   0.789   0.999   2.212
  316SOL     OW  956   0.410   0.813   3.113
  316SOL    HW1  957   0.496   0.825   3.163
  316SOL    HW2  958   0.368   0.726   3.140
  317SOL     OW  959   1.274   0.386   3.124
  317SOL    HW1  960   1.295   0.460   3.188
  317SOL    HW2  961   1.185   0.403   3.081
  318SOL     OW  962   0.064   1.564   3.193
  318SOL    HW1  963   0.018   1.646   3.159
  318SOL    HW2  964   0.162   1.583   3.202
  319SOL     OW  965   0.367   1.100   2.363
  319SOL    HW1  966   0.360   1.183   2.307
  319SOL    HW2  967   0.371   1.020   2.303
  320SOL     OW  968   0.566   0.537   2.727
  320SOL    HW1  969   0.578   0.603   2.653
  320SOL    HW2  970   0.612   0.571   2.810
  321SOL     OW  971   1.252   1.348   2.250
  321SOL    HW1  972   1.302   1.425   2.290
  321SOL    HW2  973   1.157   1.350   2.282
  322SOL     OW  974   1.272   1.445   3.004
  322SOL    HW1  975   1.319   1.458   3.091
  322SOL    HW2  976   1.206   1.371   3.013
  323SOL     OW  977   1.582   0.639   2.334
  323SOL    HW1  978   1.551   0.700   2.407
  323SOL    HW2  979   1.632   0.691   2.265
  324SOL     OW  980   0.354   1.510   3.191
  324SOL    HW1  981   0.333   1.466   3.104
  324SOL    HW2  982   0.451   1.536   3.194
  325SOL     OW  983   0.402   0.751   3.460
  325SOL    HW1  984   0.470   0.806   3.413
  325SOL    HW2  985   0.442   0.663   3.487
  326SOL     OW  986   1.587   0.779   3.532
  326SOL    HW1  987   1.495   0.817   3.527
  326SOL    HW2  988   1.647   0.826   3.467
  327SOL     OW  989   1.013   0.105   3.632
  327SOL    HW1  990   1.019   0.190   3.580
  327SOL    HW2  991   1.045   0.029   3.575
  328SOL     OW  992   0.504   0.050   3.602
  328SOL    HW1  993   0.462  -0.007   3.532
  328SOL    HW2  994   0.438   0.119   3.634
  329SOL     OW  995   0.573   0.870   2.891
  329SOL    HW1  996   0.617   0.959   2.882
  329SOL    HW2  997   0.510   0.870   2.968
  330SOL     OW  998   1.360   0.862   2.907
  330SOL    HW1  999   1.285   0.862   2.841
  330SOL    HW2 1000   1.397   0.770   2.916
  331SOL     OW 1001   1.209   0.525   2.137
  331SOL    HW1 1002   1.222   0.441   2.191
  331SOL    HW2 1003   1.180   0.599   2.197
  332SOL     OW 1004   0.307   0.213   3.093
  332SOL    HW1 1005   0.284   0.250   3.183
  332SOL    HW2 1006   0.277   0.118   3.087
  333SOL     OW 1007   0.037   1.310   3.144
  333SOL    HW1 1008   0.090   1.261   3.212
  333SOL    HW2 1009   0.059   1.408   3.149
  334SOL     OW 1010   0.732   0.634   2.926
  334SOL    HW1 1011   0.791   0.608   2.850
  334SOL    HW2 1012   0.704   0.730   2.915
  335SOL     OW 1013   1.728   0.935   3.716
  335SOL    HW1 1014   1.682   0.928   3.627
  335SOL    HW2 1015   1.666   0.979   3.782
  336SOL     OW 1016   0.307   0.063   2.480
  336SOL    HW1 1017   0.296   0.157   2.513
  336SOL    HW2 1018   0.302   0.000   2.557
  337SOL     OW 1019   1.622   0.367   2.236
  337SOL    HW1 1020   1.624   0.291   2.300
  337SOL    HW2 1021   1.574   0.444   2.276
  338SOL     OW 1022   1.023   0.766   2.828
  338SOL    HW1 1023   1.038   0.787   2.924
  338SOL    HW2 1024   0.993   0.671   2.819
  339SOL     OW 1025   0.980   1.573   3.562
  339SOL    HW1 1026   0.960   1.617   3.474
  339SOL    HW2 1027   1.019   1.482   3.546
  340SOL     OW 1028   1.859   1.518   3.467
  340SOL    HW1 1029   1.873   1.545   3.372
  340SOL    HW2 1030   1.942   1.540   3.520
  341SOL     OW 1031   0.350   0.898   3.666
  341SOL    HW1 1032   0.426   0.942   3.714
  341SOL    HW2 1033   0.385   0.851   3.584
  342SOL     OW 1034   1.540   0.274   1.987
  342SOL    HW1 1035   1.479   0.199   2.010
  342SOL    HW2 1036   1.562   0.326   2.070
  343SOL     OW 1037   1.303   0.838   1.904
  343SOL    HW1 1038   1.337   0.745   1.919
  343SOL    HW2 1039   1.321   0.865   1.809
  344SOL     OW 1040   1.068   1.333   2.711
  344SOL    HW1 1041   1.075   1.249   2.656
  344SOL    HW2 1042   1.130   1.402   2.675
  345SOL     OW 1043   0.319   0.810   2.811
  345SOL    HW1 1044   0.412   0.846   2.816
  345SOL    HW2 1045   0.313   0.725   2.863
  346SOL     OW 1046   0.339   0.509   2.868
  346SOL    HW1 1047   0.287   0.426   2.851
  346SOL    HW2 1048   0.416   0.514   2.804
  347SOL     OW 1049   1.138   0.380   3.540
  347SOL    HW1 1050   1.093   0.443   3.604
  347SOL    HW2 1051   1.231   0.411   3.523
  348SOL     OW 1052   1.160   0.207   3.339
  348SOL    HW1 1053   1.160   0.271   3.416
  348SOL    HW2 1054   1.188   0.255   3.256
  349SOL     OW 1055   0.008   1.326   2.062
  349SOL    HW1 1056  -0.085   1.347   2.031
  349SOL    HW2 1057   0.018   1.227   2.075
  350SOL     OW 1058   0.088   1.801   2.789
  350SOL    HW1 1059   0.046   1.715   2.762
  350SOL    HW2 1060   0.182   1.804   2.755
  351SOL     OW 1061   0.504   1.568   2.772
  351SOL    HW1 1062   0.570   1.642   2.781
  351SOL    HW2 1063   0.548   1.489   2.730
  352SOL     OW 1064   1.002   0.796   3.100
  352SOL    HW1 1065   1.043   0.764   3.186
  352SOL    HW2 1066   0.906   0.769   3.097
  353SOL     OW 1067   0.040   0.544   2.976
  353SOL    HW1 1068   0.125   0.511   2.935
  353SOL    HW2 1069   0.053   0.559   3.074
  354SOL     OW 1070   0.189   0.520   3.584
  354SOL    HW1 1071   0.248   0.480   3.514
  354SOL    HW2 1072   0.131   0.591   3.543
  355SOL     OW 1073   1.369   0.950   3.522
  355SOL    HW1 1074   1.408   1.039   3.542
  355SOL    HW2 1075   1.379   0.930   3.425
  356SOL     OW 1076   0.815   0.572   2.187
  356SOL    HW1 1077   0.822   0.483   2.141
  356SOL    HW2 1078   0.721   0.606   2.179
  357SOL     OW 1079   1.657   0.604   3.068
  357SOL    HW1 1080   1.619   0.535   3.130
  357SOL    HW2 1081   1.739   0.568   3.024
  358SOL     OW 1082   0.252   1.564   3.606
  358SOL    HW1 1083   0.222   1.621   3.682
  358SOL    HW2 1084   0.245   1.467   3.632
  359SOL     OW 1085   0.671   0.464   3.131
  359SOL    HW1 1086   0.637   0.375   3.101
  359SOL    HW2 1087   0.697   0.518   3.051
  360SOL     OW 1088   0.930   1.678   3.327
  360SOL    HW1 1089   0.906   1.660   3.232
  360SOL    HW2 1090   0.960   1.772   3.337
  361SOL     OW 1091   0.473   0.500   2.053
  361SOL    HW1 1092   0.534   0.580   2.057
  361SOL    HW2 1093   0.378   0.531   2.060
  362SOL     OW 1094   0.159   1.137   3.328
  362SOL    HW1 1095   0.181   1.076   3.404
  362SOL    HW2 1096   0.169   1.088   3.242
  363SOL     OW 1097   1.347   1.059   3.096
  363SOL    HW1 1098   1.371   0.996   3.022
  363SOL    HW2 1099   1.257   1.099   3.078
  364SOL     OW 1100   1.302   0.855   2.171
  364SOL    HW1 1101   1.216   0.824   2.213
  364SOL    HW2 1102   1.298   0.841   2.072
  365SOL     OW 1103   1.759   1.747   3.016
  365SOL    HW1 1104   1.820   1.777   2.943
  365SOL    HW2 1105   1.721   1.658   2.994
  366SOL     OW 1106   1.252   1.731   2.990
  366SOL    HW1 1107   1.336   1.736   2.936
  366SOL    HW2 1108   1.229   1.635   3.008
  367SOL     OW 1109   0.083   1.258   2.884
  367SOL    HW1 1110   0.078   1.257   2.984
  367SOL    HW2 1111   0.000   1.217   2.846
  368SOL     OW 1112   0.688   1.662   3.578
  368SOL    HW1 1113   0.632   1.743   3.587
  368SOL    HW2 1114   0.740   1.666   3.492
  369SOL     OW 1115   1.726   0.135   2.385
  369SOL    HW1 1116   1.799   0.118   2.318
  369SOL    HW2 1117   1.695   0.048   2.423
  370SOL     OW 1118   1.388   1.573   2.339
  370SOL    HW1 1119   1.455   1.585   2.265
  370SOL    HW2 1120   1.348   1.662   2.362
  371SOL     OW 1121   0.130   1.794   3.713
  371SOL    HW1 1122   0.089   1.720   3.766
  371SOL    HW2 1123   0.194   1.845   3.771
  372SOL     OW 1124   1.280   0.927   2.534
  372SOL    HW1 1125   1.340   0.846   2.536
  372SOL    HW2 1126   1.320   0.996   2.474
  373SOL     OW 1127   0.830   1.273   3.284
  373SOL    HW1 1128   0.825   1.306   3.379
  373SOL    HW2 1129   0.744   1.292   3.238
  374SOL     OW 1130   0.672   1.616   2.016
  374SOL    HW1 1131   0.681   1.626   1.917
  374SOL    HW2 1132   0.632   1.527   2.037
  375SOL     OW 1133   1.650   1.720   3.256
  375SOL    HW1 1134   1.703   1.730   3.172
  375SOL    HW2 1135   1.623   1.810   3.290
  376SOL     OW 1136   1.841   0.175   2.825
  376SOL    HW1 1137   1.880   0.090   2.789
  376SOL    HW2 1138   1.743   0.177   2.806
  377SOL     OW 1139   0.263   0.326   2.582
  377SOL    HW1 1140   0.184   0.377   2.548
  377SOL    HW2 1141   0.254   0.311   2.680
  378SOL     OW 1142   1.194   1.612   1.893
  378SOL    HW1 1143   1.200   1.519   1.930
  378SOL    HW2 1144   1.135   1.612   1.813
  379SOL     OW 1145   0.822   1.002   3.234
  379SOL    HW1 1146   0.862   1.001   3.142
  379SOL    HW2 1147   0.832   1.094   3.274
  380SOL     OW 1148   0.916   0.910   2.153
  380SOL    HW1 1149   0.979   0.948   2.085
  380SOL    HW2 1150   0.956   0.827   2.192
  381SOL     OW 1151   1.504   1.607   1.906
  381SOL    HW1 1152   1.412   1.644   1.913
  381SOL    HW2 1153   1.542   1.627   1.816
  382SOL     OW 1154   0.372   1.288   3.352
  382SOL    HW1 1155   0.359   1.381   3.318
  382SOL    HW2 1156   0.288   1.236   3.339
  383SOL     OW 1157   1.614   1.292   3.151
  383SOL    HW1 1158   1.674   1.295   3.231
  383SOL    HW2 1159   1.539   1.356   3.164
  384SOL     OW 1160   1.039   1.098   2.558
  384SOL    HW1 1161   0.969   1.051   2.612
  384SOL    HW2 1162   1.098   1.030   2.515
  385SOL     OW 1163   1.014   0.236   2.833
  385SOL    HW1 1164   1.006   0.200   2.740
  385SOL    HW2 1165   1.012   0.160   2.898
  386SOL     OW 1166   0.590   1.487   2.353
  386SOL    HW1 1167   0.632   1.429   2.283
  386SOL    HW2 1168   0.546   1.566   2.309
  387SOL     OW 1169   1.709   0.385   3.243
  387SOL    HW1 1170   1.782   0.454   3.247
  387SOL    HW2 1171   1.737   0.310   3.184
  388SOL     OW 1172   0.255   1.348   2.152
  388SOL    HW1 1173   0.159   1.349   2.125
  388SOL    HW2 1174   0.267   1.401   2.236
  389SOL     OW 1175   0.105   1.013   3.588
  389SOL    HW1 1176   0.028   0.980   3.642
  389SOL    HW2 1177   0.190   0.983   3.630
  390SOL     OW 1178   0.672   0.203   3.351
  390SOL    HW1 1179   0.762   0.187   3.311
  390SOL    HW2 1180   0.680   0.208   3.450
  391SOL     OW 1181   0.075   0.345   1.895
  391SOL    HW1 1182  -0.017   0.317   1.866
  391SOL    HW2 1183   0.106   0.422   1.839
  392SOL     OW 1184   1.440   0.856   3.260
  392SOL    HW1 1185   1.383   0.908   3.197
  392SOL    HW2 1186   1.536   0.868   3.236
  393SOL     OW 1187   0.072   0.166   2.180
  393SOL    HW1 1188   0.055   0.249   2.126
  393SOL    HW2 1189   0.162   0.129   2.158
  394SOL     OW 1190   1.183   1.335   1.981
  394SOL    HW1 1191   1.084   1.324   1.983
  394SOL    HW2 1192   1.217   1.350   2.074
  395SOL     OW 1193   0.613   0.842   3.293
  395SOL    HW1 1194   0.669   0.923   3.276
  395SOL    HW2 1195   0.672   0.762   3.296
  396SOL     OW 1196   1.493   1.767   2.821
  396SOL    HW1 1197   1.526   1.831   2.752
  396SOL    HW2 1198   1.559   1.761   2.896
  397SOL     OW 1199   0.716   0.565   3.570
  397SOL    HW1 1200   0.735   0.630   3.644
  397SOL    HW2 1201   0.776   0.485   3.579
  398SOL     OW 1202   1.450   1.220   3.495
  398SOL    HW1 1203   1.441   1.210   3.594
  398SOL    HW2 1204   1.546   1.213   3.469
  399SOL     OW 1205   0.390   1.741   3.422
  399SOL    HW1 1206   0.299   1.782   3.420
  399SOL    HW2 1207   0.383   1.647   3.454
  400SOL     OW 1208   1.674   0.883   3.116
  400SOL    HW1 1209   1.647   0.794   3.079
  400SOL    HW2 1210   1.675   0.951   3.043
  401SOL     OW 1211   1.225   0.325   2.311
  401SOL    HW1 1212   1.290   0.251   2.300
  401SOL    HW2 1213   1.245   0.375   2.395
  402SOL     OW 1214   0.594   0.745   2.514
  402SOL    HW1 1215   0.644   0.830   2.495
  402SOL    HW2 1216   0.506   0.747   2.466
  403SOL     OW 1217   1.777   0.342   3.504
  403SOL    HW1 1218   1.760   0.373   3.410
  403SOL    HW2 1219   1.693   0.305   3.542
  404SOL     OW 1220   1.730   0.934   3.379
  404SOL    HW1 1221   1.768   1.025   3.394
  404SOL    HW2 1222   1.722   0.917   3.280
  405SOL     OW 1223   0.859   1.374   1.878
  405SOL    HW1 1224   0.813   1.389   1.966
  405SOL    HW2 1225   0.903   1.459   1.848
  406SOL     OW 1226   0.661   1.790   2.815
  406SOL    HW1 1227   0.615   1.878   2.802
  406SOL    HW2 1228   0.760   1.802   2.808
  407SOL     OW 1229   0.859   0.956   2.723
  407SOL    HW1 1230   0.913   0.887   2.771
  407SOL    HW2 1231   0.827   1.025   2.789
  408SOL     OW 1232   1.083   0.984   1.949
  408SOL    HW1 1233   1.060   1.037   1.867
  408SOL    HW2 1234   1.164   0.928   1.930
  409SOL     OW 1235   1.861   1.569   2.713
  409SOL    HW1 1236   1.790   1.557   2.643
  409SOL    HW2 1237   1.862   1.490   2.773
  410SOL     OW 1238   0.221   1.314   3.706
  410SOL    HW1 1239   0.156   1.241   3.685
  410SOL    HW2 1240   0.225   1.328   3.804
  411SOL     OW 1241   0.079   1.240   2.515
  411SOL    HW1 1242   0.078   1.193   2.603
  411SOL    HW2 1243   0.161   1.212   2.464
  412SOL     OW 1244   0.672   1.391   3.486
  412SOL    HW1 1245   0.594   1.341   3.524
  412SOL    HW2 1246   0.669   1.486   3.517
  413SOL     OW 1247   1.824   0.192   3.089
  413SOL    HW1 1248   1.820   0.102   3.133
  413SOL    HW2 1249   1.827   0.181   2.990
  414SOL     OW 1250   0.428   0.424   2.382
  414SOL    HW1 1251   0.458   0.352   2.320
  414SOL    HW2 1252   0.389   0.384   2.465
  415SOL     OW 1253   1.705   1.487   2.966
  415SOL    HW1 1254   1.612   1.462   2.939
  415SOL    HW2 1255   1.731   1.437   3.048
  416SOL     OW 1256   0.317   0.547   3.142
  416SOL    HW1 1257   0.355   0.488   3.214
  416SOL    HW2 1258   0.357   0.521   3.054
  417SOL     OW 1259   0.812   1.586   2.549
  417SOL    HW1 1260   0.844   1.596   2.455
  417SOL    HW2 1261   0.733   1.524   2.551
  418SOL     OW 1262   1.424   0.214   2.974
  418SOL    HW1 1263   1.476   0.149   3.029
  418SOL    HW2 1264   1.375   0.277   3.035
  419SOL     OW 1265   1.001   0.034   3.016
  419SOL    HW1 1266   0.938  -0.038   2.985
  419SOL    HW2 1267   1.094  -0.002   3.016
  420SOL     OW 1268   0.770   1.330   2.163
  420SOL    HW1 1269   0.724   1.243   2.180
  420SOL    HW2 1270   0.861   1.327   2.204
  421SOL     OW 1271   0.618   1.567   3.146
  421SOL    HW1 1272   0.613   1.649   3.203
  421SOL    HW2 1273   0.707   1.564   3.101
  422SOL     OW 1274   1.352   0.052   2.030
  422SOL    HW1 1275   1.387   0.011   1.946
  422SOL    HW2 1276   1.262   0.014   2.050
  423SOL     OW 1277   1.300   0.453   2.553
  423SOL    HW1 1278   1.241   0.533   2.557
  423SOL    HW2 1279   1.315   0.418   2.646
  424SOL     OW 1280   1.593   0.221   2.744
  424SOL    HW1 1281   1.509   0.220   2.798
  424SOL    HW2 1282   1.595   0.304   2.688
  425SOL     OW 1283   0.039   1.077   2.162
  425SOL    HW1 1284   0.138   1.066   2.153
  425SOL    HW2 1285  -0.001   0.991   2.194
  426SOL     OW 1286   0.875   1.646   2.199
  426SOL    HW1 1287   0.798   1.611   2.145
  426SOL    HW2 1288   0.843   1.717   2.261
  427SOL     OW 1289   0.230   0.628   3.837
  427SOL    HW1 1290   0.137   0.626   3.874
  427SOL    HW2 1291   0.231   0.589   3.745
  428SOL     OW 1292   0.019   0.368   4.371
  428SOL    HW1 1293  -0.063   0.411   4.410
  428SOL    HW2 1294  -0.009   0.295   4.308
  429SOL     OW 1295   1.555   1.511   4.427
  429SOL    HW1 1296   1.498   1.495   4.508
  429SOL    HW2 1297   1.496   1.521   4.347
  430SOL     OW 1298   1.135   0.703   4.441
  430SOL    HW1 1299   1.192   0.781   4.416
  430SOL    HW2 1300   1.075   0.729   4.517
  431SOL     OW 1301   1.755   0.607   3.955
  431SOL    HW1 1302   1.743   0.594   3.856
  431SOL    HW2 1303   1.725   0.526   4.004
  432SOL     OW 1304   0.768   1.144   4.747
  432SOL    HW1 1305   0.690   1.161   4.807
  432SOL    HW2 1306   0.802   1.231   4.711
  433SOL     OW 1307   0.685   1.012   4.389
  433SOL    HW1 1308   0.754   0.996   4.459
  433SOL    HW2 1309   0.612   1.069   4.427
  434SOL     OW 1310   1.603   0.447   4.461
  434SOL    HW1 1311   1.529   0.493   4.411
  434SOL    HW2 1312   1.654   0.515   4.514
  435SOL     OW 1313   0.231   1.713   4.207
  435SOL    HW1 1314   0.265   1.790   4.261
  435SOL    HW2 1315   0.275   1.713   4.117
  436SOL     OW 1316   0.230   1.434   4.262
  436SOL    HW1 1317   0.204   1.530   4.262
  436SOL    HW2 1318   0.159   1.380   4.307
  437SOL     OW 1319   0.240   1.091   4.610
  437SOL    HW1 1320   0.254   1.007   4.662
  437SOL    HW2 1321   0.185   1.155   4.665
  438SOL     OW 1322   0.606   0.964   3.847
  438SOL    HW1 1323   0.613   1.048   3.793
  438SOL    HW2 1324   0.652   0.977   3.935
  439SOL     OW 1325   0.122   0.643   4.287
  439SOL    HW1 1326   0.077   0.555   4.304
  439SOL    HW2 1327   0.121   0.697   4.371
  440SOL     OW 1328   1.842   1.767   4.083
  440SOL    HW1 1329   1.896   1.738   4.163
  440SOL    HW2 1330   1.872   1.857   4.054
  441SOL     OW 1331   0.027   1.596   3.841
  441SOL    HW1 1332   0.008   1.500   3.862
  441SOL    HW2 1333  -0.006   1.654   3.916
  442SOL     OW 1334   1.689   0.922   4.336
  442SOL    HW1 1335   1.784   0.893   4.344
  442SOL    HW2 1336   1.681   0.987   4.261
  443SOL     OW 1337   1.641   1.108   4.156
  443SOL    HW1 1338   1.727   1.110   4.104
  443SOL    HW2 1339   1.655   1.155   4.244
  444SOL     OW 1340   0.613   1.365   4.450
  444SOL    HW1 1341   0.564   1.278   4.459
  444SOL    HW2 1342   0.590   1.408   4.363
  445SOL     OW 1343   0.809   0.004   4.226
  445SOL    HW1 1344   0.849   0.095   4.217
  445SOL    HW2 1345   0.709   0.012   4.232
  446SOL     OW 1346   1.525   0.999   3.914
  446SOL    HW1 1347   1.462   0.923   3.927
  446SOL    HW2 1348   1.573   1.017   4.000
  447SOL     OW 1349   1.667   1.714   4.296
  447SOL    HW1 1350   1.626   1.691   4.208
  447SOL    HW2 1351   1.649   1.640   4.361
  448SOL     OW 1352   0.598   0.729   3.994
  448SOL    HW1 1353   0.622   0.798   3.926
  448SOL    HW2 1354   0.520   0.762   4.048
  449SOL     OW 1355   1.281   0.345   4.668
  449SOL    HW1 1356   1.195   0.295   4.655
  449SOL    HW2 1357   1.343   0.291   4.724
  450SOL     OW 1358   1.576   1.662   4.031
  450SOL    HW1 1359   1.665   1.708   4.034
  450SOL    HW2 1360   1.555   1.638   3.936
  451SOL     OW 1361   1.041   0.701   4.153
  451SOL    HW1 1362   1.067   0.697   4.249
  451SOL    HW2 1363   0.956   0.650   4.139
  452SOL     OW 1364   0.076   0.811   4.513
  452SOL    HW1 1365   0.175   0.799   4.522
  452SOL    HW2 1366   0.052   0.906   4.534
  453SOL     OW 1367   0.865   0.348   3.919
  453SOL    HW1 1368   0.924   0.411   3.870
  453SOL    HW2 1369   0.884   0.254   3.890
  454SOL     OW 1370   1.362   1.144   4.269
  454SOL    HW1 1371   1.445   1.115   4.221
  454SOL    HW2 1372   1.313   1.211   4.213
  455SOL     OW 1373   1.008   1.456   4.201
  455SOL    HW1 1374   0.962   1.528   4.149
  455SOL    HW2 1375   1.004   1.476   4.299
  456SOL     OW 1376   0.351   1.801   4.577
  456SOL    HW1 1377   0.401   1.715   4.583
  456SOL    HW2 1378   0.416   1.878   4.574
  457SOL     OW 1379   1.795   1.066   4.597
  457SOL    HW1 1380   1.733   1.051   4.521
  457SOL    HW2 1381   1.743   1.077   4.682
  458SOL     OW 1382   0.321   0.943   3.966
  458SOL    HW1 1383   0.403   0.982   3.924
  458SOL    HW2 1384   0.294   0.861   3.917
  459SOL     OW 1385   1.458   0.735   4.452
  459SOL    HW1 1386   1.453   0.670   4.527
  459SOL    HW2 1387   1.538   0.794   4.465
  460SOL     OW 1388   1.111   1.776   3.961
  460SOL    HW1 1389   1.051   1.714   4.011
  460SOL    HW2 1390   1.142   1.732   3.876
  461SOL     OW 1391   1.632   1.377   3.805
  461SOL    HW1 1392   1.600   1.471   3.795
  461SOL    HW2 1393   1.556   1.314   3.793
  462SOL     OW 1394   0.464   1.743   4.047
  462SOL    HW1 1395   0.497   1.782   4.133
  462SOL    HW2 1396   0.540   1.736   3.982
  463SOL     OW 1397   1.400   0.107   4.150
  463SOL    HW1 1398   1.376   0.070   4.060
  463SOL    HW2 1399   1.499   0.123   4.154
  464SOL     OW 1400   0.940   1.698   4.628
  464SOL    HW1 1401   1.020   1.641   4.649
  464SOL    HW2 1402   0.891   1.658   4.551
  465SOL     OW 1403   0.382   0.700   4.204
  465SOL    HW1 1404   0.427   0.610   4.201
  465SOL    HW2 1405   0.288   0.689   4.237
  466SOL     OW 1406   0.614   0.122   3.841
  466SOL    HW1 1407   0.712   0.100   3.848
  466SOL    HW2 1408   0.583   0.105   3.748
  467SOL     OW 1409   0.539   0.064   4.236
  467SOL    HW1 1410   0.458   0.065   4.294
  467SOL    HW2 1411   0.542   0.147   4.181
  468SOL     OW 1412   1.434   1.188   3.765
  468SOL    HW1 1413   1.466   1.112   3.822
  468SOL    HW2 1414   1.342   1.215   3.795
  469SOL     OW 1415   0.297   0.035   3.895
  469SOL    HW1 1416   0.346   0.119   3.874
  469SOL    HW2 1417   0.359  -0.030   3.940
  470SOL     OW 1418   0.935   0.236   4.204
  470SOL    HW1 1419   0.887   0.277   4.126
  470SOL    HW2 1420   1.034   0.234   4.185
  471SOL     OW 1421   0.459   1.152   4.465
  471SOL    HW1 1422   0.388   1.125   4.530
  471SOL    HW2 1423   0.433   1.124   4.372
  472SOL     OW 1424   1.271   1.797   4.315
  472SOL    HW1 1425   1.315   1.861   4.251
  472SOL    HW2 1426   1.221   1.849   4.385
  473SOL     OW 1427   1.032   0.549   3.740
  473SOL    HW1 1428   0.991   0.631   3.701
  473SOL    HW2 1429   1.096   0.575   3.813
  474SOL     OW 1430   0.866   0.454   4.366
  474SOL    HW1 1431   0.834   0.526   4.304
  474SOL    HW2 1432   0.890   0.373   4.313
  475SOL     OW 1433   1.017   0.039   4.477
  475SOL    HW1 1434   0.945   0.044   4.408
  475SOL    HW2 1435   0.993  -0.030   4.546
  476SOL     OW 1436   1.857   0.833   4.101
  476SOL    HW1 1437   1.899   0.769   4.165
  476SOL    HW2 1438   1.819   0.782   4.023
  477SOL     OW 1439   0.488   1.385   3.898
  477SOL    HW1 1440   0.401   1.370   3.945
  477SOL    HW2 1441   0.471   1.411   3.803
  478SOL     OW 1442   1.664   1.280   4.381
  478SOL    HW1 1443   1.763   1.288   4.395
  478SOL    HW2 1444   1.619   1.364   4.412
  479SOL     OW 1445   1.390   0.575   3.802
  479SOL    HW1 1446   1.336   0.554   3.883
  479SOL    HW2 1447   1.481   0.534   3.811
  480SOL     OW 1448   0.527   0.256   4.052
  480SOL    HW1 1449   0.554   0.197   3.977
  480SOL    HW2 1450   0.527   0.351   4.021
  481SOL     OW 1451   0.705   1.050   4.092
  481SOL    HW1 1452   0.691   1.057   4.191
  481SOL    HW2 1453   0.789   0.999   4.074
  482SOL     OW 1454   0.367   1.100   4.225
  482SOL    HW1 1455   0.360   1.183   4.169
  482SOL    HW2 1456   0.371   1.020   4.165
  483SOL     OW 1457   0.566   0.537   4.589
  483SOL    HW1 1458   0.578   0.603   4.515
  483SOL    HW2 1459   0.612   0.571   4.672
  484SOL     OW 1460   1.252   1.348   4.112
  484SOL    HW1 1461   1.302   1.425   4.152
  484SOL    HW2 1462   1.157   1.350   4.144
  485SOL     OW 1463   1.582   0.639   4.196
  485SOL    HW1 1464   1.551   0.700   4.269
  485SOL    HW2 1465   1.632   0.691   4.127
  486SOL     OW 1466   1.209   0.525   3.999
  486SOL    HW1 1467   1.222   0.441   4.053
  486SOL    HW2 1468   1.180   0.599   4.059
  487SOL     OW 1469   0.307   0.063   4.342
  487SOL    HW1 1470   0.296   0.157   4.375
  487SOL    HW2 1471   0.302   0.000   4.419
  488SOL     OW 1472   1.622   0.367   4.098
  488SOL    HW1 1473   1.624   0.291   4.162
  488SOL    HW2 1474   1.574   0.444   4.138
  489SOL     OW 1475   1.540   0.274   3.849
  489SOL    HW1 1476   1.479   0.199   3.872
  489SOL    HW2 1477   1.562   0.326   3.932
  490SOL     OW 1478   1.303   0.838   3.766
  490SOL    HW1 1479   1.337   0.745   3.781
  490SOL    HW2 1480   1.321   0.865   3.671
  491SOL     OW 1481   0.008   1.326   3.924
  491SOL    HW1 1482  -0.085   1.347   3.893
  491SOL    HW2 1483   0.018   1.227   3.937
  492SOL     OW 1484   0.815   0.572   4.049
  492SOL    HW1 1485   0.822   0.483   4.003
  492SOL    HW2 1486   0.721   0.606   4.041
  493SOL     OW 1487   0.473   0.500   3.915
  493SOL    HW1 1488   0.534   0.580   3.919
  493SOL    HW2 1489   0.378   0.531   3.922
  494SOL     OW 1490   1.302   0.855   4.033
  494SOL    HW1 1491   1.216   0.824   4.075
  494SOL    HW2 1492   1.298   0.841   3.934
  495SOL     OW 1493   1.726   0.135   4.247
  495SOL    HW1 1494   1.799   0.118   4.180
  495SOL    HW2 1495   1.695   0.048   4.285
  496SOL     OW 1496   1.388   1.573   4.201
  496SOL    HW1 1497   1.455   1.585   4.127
  496SOL    HW2 1498   1.348   1.662   4.224
  497SOL     OW 1499   1.280   0.927   4.396
  497SOL    HW1 1500   1.340   0.846   4.398
  497SOL    HW2 1501   1.320   0.996   4.336
  498SOL     OW 1502   0.672   1.616   3.878
  498SOL    HW1 1503   0.681   1.626   3.779
  498SOL    HW2 1504   0.632   1.527   3.899
  499SOL     OW 1505   1.841   0.175   4.687
  499SOL    HW1 1506   1.880   0.090   4.651
  499SOL    HW2 1507   1.743   0.177   4.668
  500SOL     OW 1508   0.263   0.326   4.444
  500SOL    HW1 1509   0.184   0.377   4.410
  500SOL    HW2 1510   0.254   0.311   4.542
  501SOL     OW 1511   1.194   1.612   3.755
  501SOL    HW1 1512   1.200   1.519   3.792
  501SOL    HW2 1513   1.135   1.612   3.675
  502SOL     OW 1514   0.916   0.910   4.015
  502SOL    HW1 1515   0.979   0.948   3.947
  502SOL    HW2 1516   0.956   0.827   4.054
  503SOL     OW 1517   1.504   1.607   3.768
  503SOL    HW1 1518   1.412   1.644   3.775
  503SOL    HW2 1519   1.542   1.627   3.678
  504SOL     OW 1520   1.039   1.098   4.420
  504SOL    HW1 1521   0.969   1.051   4.474
  504SOL    HW2 1522   1.098   1.030   4.377
  505SOL     OW 1523   0.590   1.487   4.215
  505SOL    HW1 1524   0.632   1.429   4.145
  505SOL    HW2 1525   0.546   1.566   4.171
  506SOL     OW 1526   0.255   1.348   4.014
  506SOL    HW1 1527   0.159   1.349   3.987
  506SOL    HW2 1528   0.267   1.401   4.098
  507SOL     OW 1529   0.075   0.345   3.757
  507SOL    HW1 1530  -0.017   0.317   3.728
  507SOL    HW2 1531   0.106   0.422   3.701
  508SOL     OW 1532   0.072   0.166   4.042
  508SOL    HW1 1533   0.055   0.249   3.988
  508SOL    HW2 1534   0.162   0.129   4.020
  509SOL     OW 1535   1.183   1.335   3.843
  509SOL    HW1 1536   1.084   1.324   3.845
  509SOL    HW2 1537   1.217   1.350   3.936
  510SOL     OW 1538   1.225   0.325   4.173
  510SOL    HW1 1539   1.290   0.251   4.162
  510SOL    HW2 1540   1.245   0.375   4.257
  511SOL     OW 1541   0.594   0.745   4.376
  511SOL    HW1 1542   0.644   0.830   4.357
  511SOL    HW2 1543   0.506   0.747   4.328
  512SOL     OW 1544   0.859   1.374   3.740
  512SOL    HW1 1545   0.813   1.389   3.828
  512SOL    HW2 1546   0.903   1.459   3.710
  513SOL     OW 1547   0.661   1.790   4.677
  513SOL    HW1 1548   0.615   1.878   4.664
  513SOL    HW2 1549   0.760   1.802   4.670
  514SOL     OW 1550   0.859   0.956   4.585
  514SOL    HW1 1551   0.913   0.887   4.633
  514SOL    HW2 1552   0.827   1.025   4.651
  515SOL     OW 1553   1.083   0.984   3.811
  515SOL    HW1 1554   1.060   1.037   3.729
  515SOL    HW2 1555   1.164   0.928   3.792
  516SOL     OW 1556   0.079   1.240   4.377
  516SOL    HW1 1557   0.078   1.193   4.465
  516SOL    HW2 1558   0.161   1.212   4.326
  517SOL     OW 1559   0.428   0.424   4.244
  517SOL    HW1 1560   0.458   0.352   4.182
  517SOL    HW2 1561   0.389   0.384   4.327
  518SOL     OW 1562   0.812   1.586   4.411
  518SOL    HW1 1563   0.844   1.596   4.317
  518SOL    HW2 1564   0.733   1.524   4.413
  519SOL     OW 1565   0.770   1.330   4.025
  519SOL    HW1 1566   0.724   1.243   4.042
  519SOL    HW2 1567   0.861   1.327   4.066
  520SOL     OW 1568   1.352   0.052   3.892
  520SOL    HW1 1569   1.387   0.011   3.808
  520SOL    HW2 1570   1.262   0.014   3.912
  521SOL     OW 1571   1.300   0.453   4.415
  521SOL    HW1 1572   1.241   0.533   4.419
  521SOL    HW2 1573   1.315   0.418   4.508
  522SOL     OW 1574   0.039   1.077   4.024
  522SOL    HW1 1575   0.138   1.066   4.015
  522SOL    HW2 1576  -0.001   0.991   4.056
  523SOL     OW 1577   0.875   1.646   4.061
  523SOL    HW1 1578   0.798   1.611   4.007
  523SOL    HW2 1579   0.843   1.717   4.123
  524SOL     OW 1580   0.230   2.490   0.113
  524SOL    HW1 1581   0.137   2.488   0.150
  524SOL    HW2 1582   0.231   2.451   0.021
  525SOL     OW 1583   0.225   2.137   0.996
  525SOL    HW1 1584   0.260   2.120   1.088
  525SOL    HW2 1585   0.137   2.092   0.984
  526SOL     OW 1586   0.019   2.230   0.647
  526SOL    HW1 1587  -0.063   2.273   0.686
  526SOL    HW2 1588  -0.009   2.157   0.584
  527SOL     OW 1589   0.569   3.137   1.165
  527SOL    HW1 1590   0.476   3.130   1.128
  527SOL    HW2 1591   0.580   3.226   1.209
  528SOL     OW 1592   1.555   3.373   0.703
  528SOL    HW1 1593   1.498   3.357   0.784
  528SOL    HW2 1594   1.496   3.383   0.623
  529SOL     OW 1595   1.135   2.565   0.717
  529SOL    HW1 1596   1.192   2.643   0.692
  529SOL    HW2 1597   1.075   2.591   0.793
  530SOL     OW 1598   1.755   2.469   0.231
  530SOL    HW1 1599   1.743   2.456   0.132
  530SOL    HW2 1600   1.725   2.388   0.280
  531SOL     OW 1601   0.768   3.006   1.023
  531SOL    HW1 1602   0.690   3.023   1.083
  531SOL    HW2 1603   0.802   3.093   0.987
  532SOL     OW 1604   0.850   2.660   1.823
  532SOL    HW1 1605   0.846   2.736   1.888
  532SOL    HW2 1606   0.872   2.696   1.732
  533SOL     OW 1607   0.685   2.874   0.665
  533SOL    HW1 1608   0.754   2.858   0.735
  533SOL    HW2 1609   0.612   2.931   0.703
  534SOL     OW 1610   0.686   3.023   1.803
  534SOL    HW1 1611   0.746   3.102   1.817
  534SOL    HW2 1612   0.600   3.054   1.762
  535SOL     OW 1613   0.335   3.297   1.061
  535SOL    HW1 1614   0.257   3.266   1.008
  535SOL    HW2 1615   0.393   3.355   1.004
  536SOL     OW 1616   1.460   3.367   1.339
  536SOL    HW1 1617   1.484   3.461   1.365
  536SOL    HW2 1618   1.444   3.313   1.421
  537SOL     OW 1619   0.438   2.254   1.499
  537SOL    HW1 1620   0.520   2.198   1.508
  537SOL    HW2 1621   0.357   2.196   1.503
  538SOL     OW 1622   1.603   2.309   0.737
  538SOL    HW1 1623   1.529   2.355   0.687
  538SOL    HW2 1624   1.654   2.377   0.790
  539SOL     OW 1625   0.231   3.575   0.483
  539SOL    HW1 1626   0.265   3.652   0.537
  539SOL    HW2 1627   0.275   3.575   0.393
  540SOL     OW 1628   1.127   3.203   1.690
  540SOL    HW1 1629   1.174   3.203   1.778
  540SOL    HW2 1630   1.079   3.116   1.679
  541SOL     OW 1631   0.230   3.296   0.538
  541SOL    HW1 1632   0.204   3.392   0.538
  541SOL    HW2 1633   0.159   3.242   0.583
  542SOL     OW 1634   0.240   2.953   0.886
  542SOL    HW1 1635   0.254   2.869   0.938
  542SOL    HW2 1636   0.185   3.017   0.941
  543SOL     OW 1637   0.620   3.648   1.439
  543SOL    HW1 1638   0.528   3.631   1.474
  543SOL    HW2 1639   0.648   3.740   1.465
  544SOL     OW 1640   0.606   2.826   0.123
  544SOL    HW1 1641   0.613   2.910   0.069
  544SOL    HW2 1642   0.652   2.839   0.211
  545SOL     OW 1643   1.594   1.976   1.480
  545SOL    HW1 1644   1.576   2.043   1.408
  545SOL    HW2 1645   1.591   2.022   1.569
  546SOL     OW 1646   0.122   2.505   0.563
  546SOL    HW1 1647   0.077   2.417   0.580
  546SOL    HW2 1648   0.121   2.559   0.647
  547SOL     OW 1649   1.842   3.629   0.359
  547SOL    HW1 1650   1.896   3.600   0.439
  547SOL    HW2 1651   1.872   3.719   0.330
  548SOL     OW 1652   0.027   3.458   0.117
  548SOL    HW1 1653   0.008   3.362   0.138
  548SOL    HW2 1654  -0.006   3.516   0.192
  549SOL     OW 1655   1.689   2.784   0.612
  549SOL    HW1 1656   1.784   2.755   0.620
  549SOL    HW2 1657   1.681   2.849   0.537
  550SOL     OW 1658   1.641   2.970   0.432
  550SOL    HW1 1659   1.727   2.972   0.380
  550SOL    HW2 1660   1.655   3.017   0.520
  551SOL     OW 1661   0.113   2.599   1.597
  551SOL    HW1 1662   0.201   2.586   1.642
  551SOL    HW2 1663   0.100   2.696   1.575
  552SOL     OW 1664   0.613   3.227   0.726
  552SOL    HW1 1665   0.564   3.140   0.735
  552SOL    HW2 1666   0.590   3.270   0.639
  553SOL     OW 1667   1.293   3.090   1.423
  553SOL    HW1 1668   1.330   3.017   1.365
  553SOL    HW2 1669   1.345   3.095   1.508
  554SOL     OW 1670   0.809   1.866   0.502
  554SOL    HW1 1671   0.849   1.957   0.493
  554SOL    HW2 1672   0.709   1.874   0.508
  555SOL     OW 1673   0.197   2.838   1.264
  555SOL    HW1 1674   0.286   2.793   1.250
  555SOL    HW2 1675   0.124   2.773   1.245
  556SOL     OW 1676   1.525   2.861   0.190
  556SOL    HW1 1677   1.462   2.785   0.203
  556SOL    HW2 1678   1.573   2.879   0.276
  557SOL     OW 1679   1.187   3.654   1.616
  557SOL    HW1 1680   1.211   3.714   1.540
  557SOL    HW2 1681   1.194   3.559   1.586
  558SOL     OW 1682   0.317   2.113   1.801
  558SOL    HW1 1683   0.388   2.184   1.807
  558SOL    HW2 1684   0.229   2.152   1.829
  559SOL     OW 1685   1.466   3.279   0.953
  559SOL    HW1 1686   1.407   3.285   1.033
  559SOL    HW2 1687   1.451   3.191   0.907
  560SOL     OW 1688   1.667   3.576   0.572
  560SOL    HW1 1689   1.626   3.553   0.484
  560SOL    HW2 1690   1.649   3.502   0.637
  561SOL     OW 1691   0.598   2.591   0.270
  561SOL    HW1 1692   0.622   2.660   0.202
  561SOL    HW2 1693   0.520   2.624   0.324
  562SOL     OW 1694   1.281   2.207   0.944
  562SOL    HW1 1695   1.195   2.157   0.931
  562SOL    HW2 1696   1.343   2.153   1.000
  563SOL     OW 1697   1.576   3.524   0.307
  563SOL    HW1 1698   1.665   3.570   0.310
  563SOL    HW2 1699   1.555   3.500   0.212
  564SOL     OW 1700   0.807   2.467   1.465
  564SOL    HW1 1701   0.760   2.464   1.554
  564SOL    HW2 1702   0.756   2.412   1.399
  565SOL     OW 1703   1.394   2.331   1.674
  565SOL    HW1 1704   1.374   2.374   1.762
  565SOL    HW2 1705   1.472   2.269   1.683
  566SOL     OW 1706   0.973   2.752   1.572
  566SOL    HW1 1707   1.019   2.668   1.543
  566SOL    HW2 1708   0.917   2.786   1.497
  567SOL     OW 1709   0.991   2.272   1.242
  567SOL    HW1 1710   0.914   2.306   1.296
  567SOL    HW2 1711   0.957   2.221   1.163
  568SOL     OW 1712   1.041   2.563   0.429
  568SOL    HW1 1713   1.067   2.559   0.525
  568SOL    HW2 1714   0.956   2.512   0.415
  569SOL     OW 1715   0.076   2.673   0.789
  569SOL    HW1 1716   0.175   2.661   0.798
  569SOL    HW2 1717   0.052   2.768   0.810
  570SOL     OW 1718   0.130   3.683   1.571
  570SOL    HW1 1719   0.120   3.668   1.670
  570SOL    HW2 1720   0.044   3.719   1.535
  571SOL     OW 1721   0.865   2.210   0.195
  571SOL    HW1 1722   0.924   2.273   0.146
  571SOL    HW2 1723   0.884   2.116   0.166
  572SOL     OW 1724   1.719   2.447   1.831
  572SOL    HW1 1725   1.693   2.536   1.795
  572SOL    HW2 1726   1.717   2.379   1.758
  573SOL     OW 1727   1.362   3.006   0.545
  573SOL    HW1 1728   1.445   2.977   0.497
  573SOL    HW2 1729   1.313   3.073   0.489
  574SOL     OW 1730   0.550   2.058   0.885
  574SOL    HW1 1731   0.545   2.053   0.985
  574SOL    HW2 1732   0.552   2.154   0.856
  575SOL     OW 1733   1.008   3.318   0.477
  575SOL    HW1 1734   0.962   3.390   0.425
  575SOL    HW2 1735   1.004   3.338   0.575
  576SOL     OW 1736   0.351   3.663   0.853
  576SOL    HW1 1737   0.401   3.577   0.859
  576SOL    HW2 1738   0.416   3.740   0.850
  577SOL     OW 1739   1.795   2.928   0.873
  577SOL    HW1 1740   1.733   2.913   0.797
  577SOL    HW2 1741   1.743   2.939   0.958
  578SOL     OW 1742   1.227   3.412   1.506
  578SOL    HW1 1743   1.233   3.335   1.570
  578SOL    HW2 1744   1.175   3.386   1.426
  579SOL     OW 1745   0.321   2.805   0.242
  579SOL    HW1 1746   0.403   2.844   0.200
  579SOL    HW2 1747   0.294   2.723   0.193
  580SOL     OW 1748   1.458   2.597   0.728
  580SOL    HW1 1749   1.453   2.532   0.803
  580SOL    HW2 1750   1.538   2.656   0.741
  581SOL     OW 1751   0.461   3.128   1.727
  581SOL    HW1 1752   0.411   3.129   1.641
  581SOL    HW2 1753   0.398   3.110   1.803
  582SOL     OW 1754   1.111   3.638   0.237
  582SOL    HW1 1755   1.051   3.576   0.287
  582SOL    HW2 1756   1.142   3.594   0.152
  583SOL     OW 1757   0.202   2.147   1.498
  583SOL    HW1 1758   0.122   2.207   1.485
  583SOL    HW2 1759   0.192   2.098   1.584
  584SOL     OW 1760   1.632   3.239   0.081
  584SOL    HW1 1761   1.600   3.333   0.071
  584SOL    HW2 1762   1.556   3.176   0.069
  585SOL     OW 1763   0.464   3.605   0.323
  585SOL    HW1 1764   0.497   3.644   0.409
  585SOL    HW2 1765   0.540   3.598   0.258
  586SOL     OW 1766   1.400   1.969   0.426
  586SOL    HW1 1767   1.376   1.932   0.336
  586SOL    HW2 1768   1.499   1.985   0.430
  587SOL     OW 1769   0.249   3.647   1.241
  587SOL    HW1 1770   0.306   3.582   1.291
  587SOL    HW2 1771   0.233   3.614   1.148
  588SOL     OW 1772   0.940   3.560   0.904
  588SOL    HW1 1773   1.020   3.503   0.925
  588SOL    HW2 1774   0.891   3.520   0.827
  589SOL     OW 1775   0.382   2.562   0.480
  589SOL    HW1 1776   0.427   2.472   0.477
  589SOL    HW2 1777   0.288   2.551   0.513
  590SOL     OW 1778   1.547   2.084   1.729
  590SOL    HW1 1779   1.542   2.121   1.821
  590SOL    HW2 1780   1.475   2.015   1.717
  591SOL     OW 1781   0.781   2.126   1.749
  591SOL    HW1 1782   0.848   2.065   1.792
  591SOL    HW2 1783   0.708   2.145   1.814
  592SOL     OW 1784   0.888   3.376   1.195
  592SOL    HW1 1785   0.865   3.351   1.101
  592SOL    HW2 1786   0.949   3.307   1.234
  593SOL     OW 1787   1.351   2.452   1.433
  593SOL    HW1 1788   1.379   2.409   1.518
  593SOL    HW2 1789   1.376   2.548   1.434
  594SOL     OW 1790   0.803   3.264   0.924
  594SOL    HW1 1791   0.893   3.278   0.882
  594SOL    HW2 1792   0.732   3.266   0.853
  595SOL     OW 1793   0.922   2.365   0.899
  595SOL    HW1 1794   0.897   2.356   0.803
  595SOL    HW2 1795   0.970   2.283   0.930
  596SOL     OW 1796   0.539   1.926   0.512
  596SOL    HW1 1797   0.458   1.927   0.570
  596SOL    HW2 1798   0.542   2.009   0.457
  597SOL     OW 1799   1.434   3.050   0.041
  597SOL    HW1 1800   1.466   2.974   0.098
  597SOL    HW2 1801   1.342   3.077   0.071
  598SOL     OW 1802   0.297   1.897   0.171
  598SOL    HW1 1803   0.346   1.981   0.150
  598SOL    HW2 1804   0.359   1.832   0.216
  599SOL     OW 1805   0.935   2.098   0.480
  599SOL    HW1 1806   0.887   2.139   0.402
  599SOL    HW2 1807   1.034   2.096   0.461
  600SOL     OW 1808   1.076   2.545   1.464
  600SOL    HW1 1809   0.996   2.484   1.467
  600SOL    HW2 1810   1.157   2.492   1.440
  601SOL     OW 1811   1.227   3.432   0.793
  601SOL    HW1 1812   1.248   3.506   0.728
  601SOL    HW2 1813   1.295   3.432   0.866
  602SOL     OW 1814   0.459   3.014   0.741
  602SOL    HW1 1815   0.388   2.987   0.806
  602SOL    HW2 1816   0.433   2.986   0.648
  603SOL     OW 1817   1.271   3.659   0.591
  603SOL    HW1 1818   1.315   3.723   0.527
  603SOL    HW2 1819   1.221   3.711   0.661
  604SOL     OW 1820   1.032   2.411   0.016
  604SOL    HW1 1821   0.991   2.493  -0.023
  604SOL    HW2 1822   1.096   2.437   0.089
  605SOL     OW 1823   0.078   2.418   1.386
  605SOL    HW1 1824   0.170   2.417   1.345
  605SOL    HW2 1825   0.072   2.492   1.453
  606SOL     OW 1826   0.561   2.084   1.147
  606SOL    HW1 1827   0.599   2.000   1.184
  606SOL    HW2 1828   0.473   2.103   1.191
  607SOL     OW 1829   0.866   2.316   0.642
  607SOL    HW1 1830   0.834   2.388   0.580
  607SOL    HW2 1831   0.890   2.235   0.589
  608SOL     OW 1832   1.017   1.901   0.753
  608SOL    HW1 1833   0.945   1.906   0.684
  608SOL    HW2 1834   0.993   1.832   0.822
  609SOL     OW 1835   1.429   3.035   0.867
  609SOL    HW1 1836   1.374   2.951   0.860
  609SOL    HW2 1837   1.455   3.064   0.775
  610SOL     OW 1838   1.466   2.452   0.992
  610SOL    HW1 1839   1.436   2.357   0.999
  610SOL    HW2 1840   1.539   2.468   1.058
  611SOL     OW 1841   1.857   2.695   0.377
  611SOL    HW1 1842   1.899   2.631   0.441
  611SOL    HW2 1843   1.819   2.644   0.299
  612SOL     OW 1844   0.488   3.247   0.174
  612SOL    HW1 1845   0.401   3.232   0.221
  612SOL    HW2 1846   0.471   3.273   0.079
  613SOL     OW 1847   1.664   3.142   0.657
  613SOL    HW1 1848   1.763   3.150   0.671
  613SOL    HW2 1849   1.619   3.226   0.688
  614SOL     OW 1850   1.390   2.437   0.078
  614SOL    HW1 1851   1.336   2.416   0.159
  614SOL    HW2 1852   1.481   2.396   0.087
  615SOL     OW 1853   0.527   2.118   0.328
  615SOL    HW1 1854   0.554   2.059   0.253
  615SOL    HW2 1855   0.527   2.213   0.297
  616SOL     OW 1856   1.754   3.085   1.588
  616SOL    HW1 1857   1.845   3.046   1.575
  616SOL    HW2 1858   1.762   3.181   1.612
  617SOL     OW 1859   1.064   3.209   1.340
  617SOL    HW1 1860   0.984   3.186   1.395
  617SOL    HW2 1861   1.147   3.183   1.389
  618SOL     OW 1862   1.592   3.491   1.625
  618SOL    HW1 1863   1.619   3.525   1.535
  618SOL    HW2 1864   1.671   3.453   1.671
  619SOL     OW 1865   1.111   3.057   1.100
  619SOL    HW1 1866   1.071   3.101   1.181
  619SOL    HW2 1867   1.070   3.094   1.017
  620SOL     OW 1868   1.638   2.961   1.079
  620SOL    HW1 1869   1.643   3.042   1.138
  620SOL    HW2 1870   1.552   2.963   1.028
  621SOL     OW 1871   0.915   1.951   1.402
  621SOL    HW1 1872   0.940   1.931   1.307
  621SOL    HW2 1873   0.987   2.007   1.444
  622SOL     OW 1874   0.980   2.978   1.719
  622SOL    HW1 1875   0.881   2.984   1.729
  622SOL    HW2 1876   1.003   2.898   1.663
  623SOL     OW 1877   0.705   2.912   0.368
  623SOL    HW1 1878   0.691   2.919   0.467
  623SOL    HW2 1879   0.789   2.861   0.350
  624SOL     OW 1880   0.410   2.675   1.251
  624SOL    HW1 1881   0.496   2.687   1.301
  624SOL    HW2 1882   0.368   2.588   1.278
  625SOL     OW 1883   1.274   2.248   1.262
  625SOL    HW1 1884   1.295   2.322   1.326
  625SOL    HW2 1885   1.185   2.265   1.219
  626SOL     OW 1886   0.064   3.426   1.331
  626SOL    HW1 1887   0.018   3.508   1.297
  626SOL    HW2 1888   0.162   3.445   1.340
  627SOL     OW 1889   0.367   2.962   0.501
  627SOL    HW1 1890   0.360   3.045   0.445
  627SOL    HW2 1891   0.371   2.882   0.441
  628SOL     OW 1892   0.566   2.399   0.865
  628SOL    HW1 1893   0.578   2.465   0.791
  628SOL    HW2 1894   0.612   2.433   0.948
  629SOL     OW 1895   1.252   3.210   0.388
  629SOL    HW1 1896   1.302   3.287   0.428
  629SOL    HW2 1897   1.157   3.212   0.420
  630SOL     OW 1898   1.272   3.307   1.142
  630SOL    HW1 1899   1.319   3.320   1.229
  630SOL    HW2 1900   1.206   3.233   1.151
  631SOL     OW 1901   1.582   2.501   0.472
  631SOL    HW1 1902   1.551   2.562   0.545
  631SOL    HW2 1903   1.632   2.553   0.403
  632SOL     OW 1904   0.354   3.372   1.329
  632SOL    HW1 1905   0.333   3.328   1.242
  632SOL    HW2 1906   0.451   3.398   1.332
  633SOL     OW 1907   0.402   2.613   1.598
  633SOL    HW1 1908   0.470   2.668   1.551
  633SOL    HW2 1909   0.442   2.525   1.625
  634SOL     OW 1910   1.587   2.641   1.670
  634SOL    HW1 1911   1.495   2.679   1.665
  634SOL    HW2 1912   1.647   2.688   1.605
  635SOL     OW 1913   1.013   1.967   1.770
  635SOL    HW1 1914   1.019   2.052   1.718
  635SOL    HW2 1915   1.045   1.891   1.713
  636SOL     OW 1916   0.504   1.912   1.740
  636SOL    HW1 1917   0.462   1.855   1.670
  636SOL    HW2 1918   0.438   1.981   1.772
  637SOL     OW 1919   0.573   2.732   1.029
  637SOL    HW1 1920   0.617   2.821   1.020
  637SOL    HW2 1921   0.510   2.732   1.106
  638SOL     OW 1922   1.360   2.724   1.045
  638SOL    HW1 1923   1.285   2.724   0.979
  638SOL    HW2 1924   1.397   2.632   1.054
  639SOL     OW 1925   1.209   2.387   0.275
  639SOL    HW1 1926   1.222   2.303   0.329
  639SOL    HW2 1927   1.180   2.461   0.335
  640SOL     OW 1928   0.307   2.075   1.231
  640SOL    HW1 1929   0.284   2.112   1.321
  640SOL    HW2 1930   0.277   1.980   1.225
  641SOL     OW 1931   0.037   3.172   1.282
  641SOL    HW1 1932   0.090   3.123   1.350
  641SOL    HW2 1933   0.059   3.270   1.287
  642SOL     OW 1934   0.732   2.496   1.064
  642SOL    HW1 1935   0.791   2.470   0.988
  642SOL    HW2 1936   0.704   2.592   1.053
  643SOL     OW 1937   1.728   2.797   1.854
  643SOL    HW1 1938   1.682   2.790   1.765
  643SOL    HW2 1939   1.666   2.841   1.920
  644SOL     OW 1940   0.307   1.925   0.618
  644SOL    HW1 1941   0.296   2.019   0.651
  644SOL    HW2 1942   0.302   1.862   0.695
  645SOL     OW 1943   1.622   2.229   0.374
  645SOL    HW1 1944   1.624   2.153   0.438
  645SOL    HW2 1945   1.574   2.306   0.414
  646SOL     OW 1946   1.023   2.628   0.966
  646SOL    HW1 1947   1.038   2.649   1.062
  646SOL    HW2 1948   0.993   2.533   0.957
  647SOL     OW 1949   0.980   3.435   1.700
  647SOL    HW1 1950   0.960   3.479   1.612
  647SOL    HW2 1951   1.019   3.344   1.684
  648SOL     OW 1952   1.859   3.380   1.605
  648SOL    HW1 1953   1.873   3.407   1.510
  648SOL    HW2 1954   1.942   3.402   1.658
  649SOL     OW 1955   0.350   2.760   1.804
  649SOL    HW1 1956   0.426   2.804   1.852
  649SOL    HW2 1957   0.385   2.713   1.722
  650SOL     OW 1958   1.540   2.136   0.125
  650SOL    HW1 1959   1.479   2.061   0.148
  650SOL    HW2 1960   1.562   2.188   0.208
  651SOL     OW 1961   1.303   2.700   0.042
  651SOL    HW1 1962   1.337   2.607   0.057
  651SOL    HW2 1963   1.321   2.727  -0.053
  652SOL     OW 1964   1.068   3.195   0.849
  652SOL    HW1 1965   1.075   3.111   0.794
  652SOL    HW2 1966   1.130   3.264   0.813
  653SOL     OW 1967   0.319   2.672   0.949
  653SOL    HW1 1968   0.412   2.708   0.954
  653SOL    HW2 1969   0.313   2.587   1.001
  654SOL     OW 1970   0.339   2.371   1.006
  654SOL    HW1 1971   0.287   2.288   0.989
  654SOL    HW2 1972   0.416   2.376   0.942
  655SOL     OW 1973   1.138   2.242   1.678
  655SOL    HW1 1974   1.093   2.305   1.742
  655SOL    HW2 1975   1.231   2.273   1.661
  656SOL     OW 1976   1.160   2.069   1.477
  656SOL    HW1 1977   1.160   2.133   1.554
  656SOL    HW2 1978   1.188   2.117   1.394
  657SOL     OW 1979   0.008   3.188   0.200
  657SOL    HW1 1980  -0.085   3.209   0.169
  657SOL    HW2 1981   0.018   3.089   0.213
  658SOL     OW 1982   0.088   3.663   0.927
  658SOL    HW1 1983   0.046   3.577   0.900
  658SOL    HW2 1984   0.182   3.666   0.893
  659SOL     OW 1985   0.504   3.430   0.910
  659SOL    HW1 1986   0.570   3.504   0.919
  659SOL    HW2 1987   0.548   3.351   0.868
  660SOL     OW 1988   1.002   2.658   1.238
  660SOL    HW1 1989   1.043   2.626   1.324
  660SOL    HW2 1990   0.906   2.631   1.235
  661SOL     OW 1991   0.040   2.406   1.114
  661SOL    HW1 1992   0.125   2.373   1.073
  661SOL    HW2 1993   0.053   2.421   1.212
  662SOL     OW 1994   0.189   2.382   1.722
  662SOL    HW1 1995   0.248   2.342   1.652
  662SOL    HW2 1996   0.131   2.453   1.681
  663SOL     OW 1997   1.369   2.812   1.660
  663SOL    HW1 1998   1.408   2.901   1.680
  663SOL    HW2 1999   1.379   2.792   1.563
  664SOL     OW 2000   0.815   2.434   0.325
  664SOL    HW1 2001   0.822   2.345   0.279
  664SOL    HW2 2002   0.721   2.468   0.317
  665SOL     OW 2003   1.657   2.466   1.206
  665SOL    HW1 2004   1.619   2.397   1.268
  665SOL    HW2 2005   1.739   2.430   1.162
  666SOL     OW 2006   0.252   3.426   1.744
  666SOL    HW1 2007   0.222   3.483   1.820
  666SOL    HW2 2008   0.245   3.329   1.770
  667SOL     OW 2009   0.671   2.326   1.269
  667SOL    HW1 2010   0.637   2.237   1.239
  667SOL    HW2 2011   0.697   2.380   1.189
  668SOL     OW 2012   0.930   3.540   1.465
  668SOL    HW1 2013   0.906   3.522   1.370
  668SOL    HW2 2014   0.960   3.634   1.475
  669SOL     OW 2015   0.473   2.362   0.191
  669SOL    HW1 2016   0.534   2.442   0.195
  669SOL    HW2 2017   0.378   2.393   0.198
  670SOL     OW 2018   0.159   2.999   1.466
  670SOL    HW1 2019   0.181   2.938   1.542
  670SOL    HW2 2020   0.169   2.950   1.380
  671SOL     OW 2021   1.347   2.921   1.234
  671SOL    HW1 2022   1.371   2.858   1.160
  671SOL    HW2 2023   1.257   2.961   1.216
  672SOL     OW 2024   1.302   2.717   0.309
  672SOL    HW1 2025   1.216   2.686   0.351
  672SOL    HW2 2026   1.298   2.703   0.210
  673SOL     OW 2027   1.759   3.609   1.154
  673SOL    HW1 2028   1.820   3.639   1.081
  673SOL    HW2 2029   1.721   3.520   1.132
  674SOL     OW 2030   1.252   3.593   1.128
  674SOL    HW1 2031   1.336   3.598   1.074
  674SOL    HW2 2032   1.229   3.497   1.146
  675SOL     OW 2033   0.083   3.120   1.022
  675SOL    HW1 2034   0.078   3.119   1.122
  675SOL    HW2 2035   0.000   3.079   0.984
  676SOL     OW 2036   0.688   3.524   1.716
  676SOL    HW1 2037   0.632   3.605   1.725
  676SOL    HW2 2038   0.740   3.528   1.630
  677SOL     OW 2039   0.903   1.948   0.133
  677SOL    HW1 2040   0.954   1.949   0.047
  677SOL    HW2 2041   0.959   1.906   0.204
  678SOL     OW 2042   1.726   1.997   0.523
  678SOL    HW1 2043   1.799   1.980   0.456
  678SOL    HW2 2044   1.695   1.910   0.561
  679SOL     OW 2045   1.388   3.435   0.477
  679SOL    HW1 2046   1.455   3.447   0.403
  679SOL    HW2 2047   1.348   3.524   0.500
  680SOL     OW 2048   0.130   3.656   1.851
  680SOL    HW1 2049   0.089   3.582   1.904
  680SOL    HW2 2050   0.194   3.707   1.909
  681SOL     OW 2051   1.280   2.789   0.672
  681SOL    HW1 2052   1.340   2.708   0.674
  681SOL    HW2 2053   1.320   2.858   0.612
  682SOL     OW 2054   0.830   3.135   1.422
  682SOL    HW1 2055   0.825   3.168   1.517
  682SOL    HW2 2056   0.744   3.154   1.376
  683SOL     OW 2057   0.672   3.478   0.154
  683SOL    HW1 2058   0.681   3.488   0.055
  683SOL    HW2 2059   0.632   3.389   0.175
  684SOL     OW 2060   1.650   3.582   1.394
  684SOL    HW1 2061   1.703   3.592   1.310
  684SOL    HW2 2062   1.623   3.672   1.428
  685SOL     OW 2063   1.841   2.037   0.963
  685SOL    HW1 2064   1.880   1.952   0.927
  685SOL    HW2 2065   1.743   2.039   0.944
  686SOL     OW 2066   0.263   2.188   0.720
  686SOL    HW1 2067   0.184   2.239   0.686
  686SOL    HW2 2068   0.254   2.173   0.818
  687SOL     OW 2069   1.194   3.474   0.031
  687SOL    HW1 2070   1.200   3.381   0.068
  687SOL    HW2 2071   1.135   3.474  -0.049
  688SOL     OW 2072   0.822   2.864   1.372
  688SOL    HW1 2073   0.862   2.863   1.280
  688SOL    HW2 2074   0.832   2.956   1.412
  689SOL     OW 2075   0.916   2.772   0.291
  689SOL    HW1 2076   0.979   2.810   0.223
  689SOL    HW2 2077   0.956   2.689   0.330
  690SOL     OW 2078   1.504   3.469   0.044
  690SOL    HW1 2079   1.412   3.506   0.051
  690SOL    HW2 2080   1.542   3.489  -0.046
  691SOL     OW 2081   0.372   3.150   1.490
  691SOL    HW1 2082   0.359   3.243   1.456
  691SOL    HW2 2083   0.288   3.098   1.477
  692SOL     OW 2084   1.614   3.154   1.289
  692SOL    HW1 2085   1.674   3.157   1.369
  692SOL    HW2 2086   1.539   3.218   1.302
  693SOL     OW 2087   1.039   2.960   0.696
  693SOL    HW1 2088   0.969   2.913   0.750
  693SOL    HW2 2089   1.098   2.892   0.653
  694SOL     OW 2090   1.014   2.098   0.971
  694SOL    HW1 2091   1.006   2.062   0.878
  694SOL    HW2 2092   1.012   2.022   1.036
  695SOL     OW 2093   0.590   3.349   0.491
  695SOL    HW1 2094   0.632   3.291   0.421
  695SOL    HW2 2095   0.546   3.428   0.447
  696SOL     OW 2096   1.709   2.247   1.381
  696SOL    HW1 2097   1.782   2.316   1.385
  696SOL    HW2 2098   1.737   2.172   1.322
  697SOL     OW 2099   0.255   3.210   0.290
  697SOL    HW1 2100   0.159   3.211   0.263
  697SOL    HW2 2101   0.267   3.263   0.374
  698SOL     OW 2102   0.105   2.875   1.726
  698SOL    HW1 2103   0.028   2.842   1.780
  698SOL    HW2 2104   0.190   2.845   1.768
  699SOL     OW 2105   0.672   2.065   1.489
  699SOL    HW1 2106   0.762   2.049   1.449
  699SOL    HW2 2107   0.680   2.070   1.588
  700SOL     OW 2108   0.075   2.207   0.033
  700SOL    HW1 2109  -0.017   2.179   0.004
  700SOL    HW2 2110   0.106   2.284  -0.023
  701SOL     OW 2111   1.440   2.718   1.398
  701SOL    HW1 2112   1.383   2.770   1.335
  701SOL    HW2 2113   1.536   2.730   1.374
  702SOL     OW 2114   0.072   2.028   0.318
  702SOL    HW1 2115   0.055   2.111   0.264
  702SOL    HW2 2116   0.162   1.991   0.296
  703SOL     OW 2117   1.183   3.197   0.119
  703SOL    HW1 2118   1.084   3.186   0.121
  703SOL    HW2 2119   1.217   3.212   0.212
  704SOL     OW 2120   0.613   2.704   1.431
  704SOL    HW1 2121   0.669   2.785   1.414
  704SOL    HW2 2122   0.672   2.624   1.434
  705SOL     OW 2123   1.493   3.629   0.959
  705SOL    HW1 2124   1.526   3.693   0.890
  705SOL    HW2 2125   1.559   3.623   1.034
  706SOL     OW 2126   0.716   2.427   1.708
  706SOL    HW1 2127   0.735   2.492   1.782
  706SOL    HW2 2128   0.776   2.347   1.717
  707SOL     OW 2129   1.450   3.082   1.633
  707SOL    HW1 2130   1.441   3.072   1.732
  707SOL    HW2 2131   1.546   3.075   1.607
  708SOL     OW 2132   0.390   3.603   1.560
  708SOL    HW1 2133   0.299   3.644   1.558
  708SOL    HW2 2134   0.383   3.509   1.592
  709SOL     OW 2135   1.674   2.745   1.254
  709SOL    HW1 2136   1.647   2.656   1.217
  709SOL    HW2 2137   1.675   2.813   1.181
  710SOL     OW 2138   1.225   2.187   0.449
  710SOL    HW1 2139   1.290   2.113   0.438
  710SOL    HW2 2140   1.245   2.237   0.533
  711SOL     OW 2141   0.594   2.607   0.652
  711SOL    HW1 2142   0.644   2.692   0.633
  711SOL    HW2 2143   0.506   2.609   0.604
  712SOL     OW 2144   1.777   2.204   1.642
  712SOL    HW1 2145   1.760   2.235   1.548
  712SOL    HW2 2146   1.693   2.167   1.680
  713SOL     OW 2147   1.730   2.796   1.517
  713SOL    HW1 2148   1.768   2.887   1.532
  713SOL    HW2 2149   1.722   2.779   1.418
  714SOL     OW 2150   0.859   3.236   0.016
  714SOL    HW1 2151   0.813   3.251   0.104
  714SOL    HW2 2152   0.903   3.321  -0.014
  715SOL     OW 2153   0.661   3.652   0.953
  715SOL    HW1 2154   0.615   3.740   0.940
  715SOL    HW2 2155   0.760   3.664   0.946
  716SOL     OW 2156   0.859   2.818   0.861
  716SOL    HW1 2157   0.913   2.749   0.909
  716SOL    HW2 2158   0.827   2.887   0.927
  717SOL     OW 2159   1.083   2.846   0.087
  717SOL    HW1 2160   1.060   2.899   0.005
  717SOL    HW2 2161   1.164   2.790   0.068
  718SOL     OW 2162   1.861   3.431   0.851
  718SOL    HW1 2163   1.790   3.419   0.781
  718SOL    HW2 2164   1.862   3.352   0.911
  719SOL     OW 2165   0.221   3.176   1.844
  719SOL    HW1 2166   0.156   3.103   1.823
  719SOL    HW2 2167   0.225   3.190   1.942
  720SOL     OW 2168   0.079   3.102   0.653
  720SOL    HW1 2169   0.078   3.055   0.741
  720SOL    HW2 2170   0.161   3.074   0.602
  721SOL     OW 2171   0.672   3.253   1.624
  721SOL    HW1 2172   0.594   3.203   1.662
  721SOL    HW2 2173   0.669   3.348   1.655
  722SOL     OW 2174   1.824   2.054   1.227
  722SOL    HW1 2175   1.820   1.964   1.271
  722SOL    HW2 2176   1.827   2.043   1.128
  723SOL     OW 2177   0.428   2.286   0.520
  723SOL    HW1 2178   0.458   2.214   0.458
  723SOL    HW2 2179   0.389   2.246   0.603
  724SOL     OW 2180   1.705   3.349   1.104
  724SOL    HW1 2181   1.612   3.324   1.077
  724SOL    HW2 2182   1.731   3.299   1.186
  725SOL     OW 2183   0.317   2.409   1.280
  725SOL    HW1 2184   0.355   2.350   1.352
  725SOL    HW2 2185   0.357   2.383   1.192
  726SOL     OW 2186   0.812   3.448   0.687
  726SOL    HW1 2187   0.844   3.458   0.593
  726SOL    HW2 2188   0.733   3.386   0.689
  727SOL     OW 2189   1.424   2.076   1.112
  727SOL    HW1 2190   1.476   2.011   1.167
  727SOL    HW2 2191   1.375   2.139   1.173
  728SOL     OW 2192   1.001   1.896   1.154
  728SOL    HW1 2193   0.938   1.824   1.123
  728SOL    HW2 2194   1.094   1.860   1.154
  729SOL     OW 2195   0.770   3.192   0.301
  729SOL    HW1 2196   0.724   3.105   0.318
  729SOL    HW2 2197   0.861   3.189   0.342
  730SOL     OW 2198   0.618   3.429   1.284
  730SOL    HW1 2199   0.613   3.511   1.341
  730SOL    HW2 2200   0.707   3.426   1.239
  731SOL     OW 2201   1.352   1.914   0.168
  731SOL    HW1 2202   1.387   1.873   0.084
  731SOL    HW2 2203   1.262   1.876   0.188
  732SOL     OW 2204   1.300   2.315   0.691
  732SOL    HW1 2205   1.241   2.395   0.695
  732SOL    HW2 2206   1.315   2.280   0.784
  733SOL     OW 2207   1.593   2.083   0.882
  733SOL    HW1 2208   1.509   2.082   0.936
  733SOL    HW2 2209   1.595   2.166   0.826
  734SOL     OW 2210   0.039   2.939   0.300
  734SOL    HW1 2211   0.138   2.928   0.291
  734SOL    HW2 2212  -0.001   2.853   0.332
  735SOL     OW 2213   0.875   3.508   0.337
  735SOL    HW1 2214   0.798   3.473   0.283
  735SOL    HW2 2215   0.843   3.579   0.399
  736SOL     OW 2216   0.230   2.490   1.975
  736SOL    HW1 2217   0.137   2.488   2.012
  736SOL    HW2 2218   0.231   2.451   1.883
  737SOL     OW 2219   0.225   2.137   2.858
  737SOL    HW1 2220   0.260   2.120   2.950
  737SOL    HW2 2221   0.137   2.092   2.846
  738SOL     OW 2222   0.019   2.230   2.509
  738SOL    HW1 2223  -0.063   2.273   2.548
  738SOL    HW2 2224  -0.009   2.157   2.446
  739SOL     OW 2225   0.569   3.137   3.027
  739SOL    HW1 2226   0.476   3.130   2.990
  739SOL    HW2 2227   0.580   3.226   3.071
  740SOL     OW 2228   1.555   3.373   2.565
  740SOL    HW1 2229   1.498   3.357   2.646
  740SOL    HW2 2230   1.496   3.383   2.485
  741SOL     OW 2231   1.135   2.565   2.579
  741SOL    HW1 2232   1.192   2.643   2.554
  741SOL    HW2 2233   1.075   2.591   2.655
  742SOL     OW 2234   1.755   2.469   2.093
  742SOL    HW1 2235   1.743   2.456   1.994
  742SOL    HW2 2236   1.725   2.388   2.142
  743SOL     OW 2237   0.768   3.006   2.885
  743SOL    HW1 2238   0.690   3.023   2.945
  743SOL    HW2 2239   0.802   3.093   2.849
  744SOL     OW 2240   0.850   2.660   3.685
  744SOL    HW1 2241   0.846   2.736   3.750
  744SOL    HW2 2242   0.872   2.696   3.594
  745SOL     OW 2243   0.685   2.874   2.527
  745SOL    HW1 2244   0.754   2.858   2.597
  745SOL    HW2 2245   0.612   2.931   2.565
  746SOL     OW 2246   0.686   3.023   3.665
  746SOL    HW1 2247   0.746   3.102   3.679
  746SOL    HW2 2248   0.600   3.054   3.624
  747SOL     OW 2249   0.335   3.297   2.923
  747SOL    HW1 2250   0.257   3.266   2.870
  747SOL    HW2 2251   0.393   3.355   2.866
  748SOL     OW 2252   1.460   3.367   3.201
  748SOL    HW1 2253   1.484   3.461   3.227
  748SOL    HW2 2254   1.444   3.313   3.283
  749SOL     OW 2255   0.438   2.254   3.361
  749SOL    HW1 2256   0.520   2.198   3.370
  749SOL    HW2 2257   0.357   2.196   3.365
  750SOL     OW 2258   1.603   2.309   2.599
  750SOL    HW1 2259   1.529   2.355   2.549
  750SOL    HW2 2260   1.654   2.377   2.652
  751SOL     OW 2261   0.231   3.575   2.345
  751SOL    HW1 2262   0.265   3.652   2.399
  751SOL    HW2 2263   0.275   3.575   2.255
  752SOL     OW 2264   1.127   3.203   3.552
  752SOL    HW1 2265   1.174   3.203   3.640
  752SOL    HW2 2266   1.079   3.116   3.541
  753SOL     OW 2267   0.230   3.296   2.400
  753SOL    HW1 2268   0.204   3.392   2.400
  753SOL    HW2 2269   0.159   3.242   2.445
  754SOL     OW 2270   0.240   2.953   2.748
  754SOL    HW1 2271   0.254   2.869   2.800
  754SOL    HW2 2272   0.185   3.017   2.803
  755SOL     OW 2273   0.620   3.648   3.301
  755SOL    HW1 2274   0.528   3.631   3.336
  755SOL    HW2 2275   0.648   3.740   3.327
  756SOL     OW 2276   0.606   2.826   1.985
  756SOL    HW1 2277   0.613   2.910   1.931
  756SOL    HW2 2278   0.652   2.839   2.073
  757SOL     OW 2279   1.594   1.976   3.342
  757SOL    HW1 2280   1.576   2.043   3.270
  757SOL    HW2 2281   1.591   2.022   3.431
  758SOL     OW 2282   0.122   2.505   2.425
  758SOL    HW1 2283   0.077   2.417   2.442
  758SOL    HW2 2284   0.121   2.559   2.509
  759SOL     OW 2285   1.842   3.629   2.221
  759SOL    HW1 2286   1.896   3.600   2.301
  759SOL    HW2 2287   1.872   3.719   2.192
  760SOL     OW 2288   0.027   3.458   1.979
  760SOL    HW1 2289   0.008   3.362   2.000
  760SOL    HW2 2290  -0.006   3.516   2.054
  761SOL     OW 2291   1.689   2.784   2.474
  761SOL    HW1 2292   1.784   2.755   2.482
  761SOL    HW2 2293   1.681   2.849   2.399
  762SOL     OW 2294   1.641   2.970   2.294
  762SOL    HW1 2295   1.727   2.972   2.242
  762SOL    HW2 2296   1.655   3.017   2.382
  763SOL     OW 2297   0.113   2.599   3.459
  763SOL    HW1 2298   0.201   2.586   3.504
  763SOL    HW2 2299   0.100   2.696   3.437
  764SOL     OW 2300   0.613   3.227   2.588
  764SOL    HW1 2301   0.564   3.140   2.597
  764SOL    HW2 2302   0.590   3.270   2.501
  765SOL     OW 2303   1.293   3.090   3.285
  765SOL    HW1 2304   1.330   3.017   3.227
  765SOL    HW2 2305   1.345   3.095   3.370
  766SOL     OW 2306   0.809   1.866   2.364
  766SOL    HW1 2307   0.849   1.957   2.355
  766SOL    HW2 2308   0.709   1.874   2.370
  767SOL     OW 2309   0.197   2.838   3.126
  767SOL    HW1 2310   0.286   2.793   3.112
  767SOL    HW2 2311   0.124   2.773   3.107
  768SOL     OW 2312   1.525   2.861   2.052
  768SOL    HW1 2313   1.462   2.785   2.065
  768SOL    HW2 2314   1.573   2.879   2.138
  769SOL     OW 2315   1.187   3.654   3.478
  769SOL    HW1 2316   1.211   3.714   3.402
  769SOL    HW2 2317   1.194   3.559   3.448
  770SOL     OW 2318   0.317   2.113   3.663
  770SOL    HW1 2319   0.388   2.184   3.669
  770SOL    HW2 2320   0.229   2.152   3.691
  771SOL     OW 2321   1.466   3.279   2.815
  771SOL    HW1 2322   1.407   3.285   2.895
  771SOL    HW2 2323   1.451   3.191   2.769
  772SOL     OW 2324   1.667   3.576   2.434
  772SOL    HW1 2325   1.626   3.553   2.346
  772SOL    HW2 2326   1.649   3.502   2.499
  773SOL     OW 2327   0.598   2.591   2.132
  773SOL    HW1 2328   0.622   2.660   2.064
  773SOL    HW2 2329   0.520   2.624   2.186
  774SOL     OW 2330   1.281   2.207   2.806
  774SOL    HW1 2331   1.195   2.157   2.793
  774SOL    HW2 2332   1.343   2.153   2.862
  775SOL     OW 2333   1.576   3.524   2.169
  775SOL    HW1 2334   1.665   3.570   2.172
  775SOL    HW2 2335   1.555   3.500   2.074
  776SOL     OW 2336   0.807   2.467   3.327
  776SOL    HW1 2337   0.760   2.464   3.416
  776SOL    HW2 2338   0.756   2.412   3.261
  777SOL     OW 2339   1.394   2.331   3.536
  777SOL    HW1 2340   1.374   2.374   3.624
  777SOL    HW2 2341   1.472   2.269   3.545
  778SOL     OW 2342   0.973   2.752   3.434
  778SOL    HW1 2343   1.019   2.668   3.405
  778SOL    HW2 2344   0.917   2.786   3.359
  779SOL     OW 2345   0.991   2.272   3.104
  779SOL    HW1 2346   0.914   2.306   3.158
  779SOL    HW2 2347   0.957   2.221   3.025
  780SOL     OW 2348   1.041   2.563   2.291
  780SOL    HW1 2349   1.067   2.559   2.387
  780SOL    HW2 2350   0.956   2.512   2.277
  781SOL     OW 2351   0.076   2.673   2.651
  781SOL    HW1 2352   0.175   2.661   2.660
  781SOL    HW2 2353   0.052   2.768   2.672
  782SOL     OW 2354   0.130   3.683   3.433
  782SOL    HW1 2355   0.120   3.668   3.532
  782SOL    HW2 2356   0.044   3.719   3.397
  783SOL     OW 2357   0.865   2.210   2.057
  783SOL    HW1 2358   0.924   2.273   2.008
  783SOL    HW2 2359   0.884   2.116   2.028
  784SOL     OW 2360   1.719   2.447   3.693
  784SOL    HW1 2361   1.693   2.536   3.657
  784SOL    HW2 2362   1.717   2.379   3.620
  785SOL     OW 2363   1.362   3.006   2.407
  785SOL    HW1 2364   1.445   2.977   2.359
  785SOL    HW2 2365   1.313   3.073   2.351
  786SOL     OW 2366   0.550   2.058   2.747
  786SOL    HW1 2367   0.545   2.053   2.847
  786SOL    HW2 2368   0.552   2.154   2.718
  787SOL     OW 2369   1.008   3.318   2.339
  787SOL    HW1 2370   0.962   3.390   2.287
  787SOL    HW2 2371   1.004   3.338   2.437
  788SOL     OW 2372   0.351   3.663   2.715
  788SOL    HW1 2373   0.401   3.577   2.721
  788SOL    HW2 2374   0.416   3.740   2.712
  789SOL     OW 2375   1.795   2.928   2.735
  789SOL    HW1 2376   1.733   2.913   2.659
  789SOL    HW2 2377   1.743   2.939   2.820
  790SOL     OW 2378   1.227   3.412   3.368
  790SOL    HW1 2379   1.233   3.335   3.432
  790SOL    HW2 2380   1.175   3.386   3.288
  791SOL     OW 2381   0.321   2.805   2.104
  791SOL    HW1 2382   0.403   2.844   2.062
  791SOL    HW2 2383   0.294   2.723   2.055
  792SOL     OW 2384   1.458   2.597   2.590
  792SOL    HW1 2385   1.453   2.532   2.665
  792SOL    HW2 2386   1.538   2.656   2.603
  793SOL     OW 2387   0.461   3.128   3.589
  793SOL    HW1 2388   0.411   3.129   3.503
  793SOL    HW2 2389   0.398   3.110   3.665
  794SOL     OW 2390   1.111   3.638   2.099
  794SOL    HW1 2391   1.051   3.576   2.149
  794SOL    HW2 2392   1.142   3.594   2.014
  795SOL     OW 2393   0.202   2.147   3.360
  795SOL    HW1 2394   0.122   2.207   3.347
  795SOL    HW2 2395   0.192   2.098   3.446
  796SOL     OW 2396   1.632   3.239   1.943
  796SOL    HW1 2397   1.600   3.333   1.933
  796SOL    HW2 2398   1.556   3.176   1.931
  797SOL     OW 2399   0.464   3.605   2.185
  797SOL    HW1 2400   0.497   3.644   2.271
  797SOL    HW2 2401   0.540   3.598   2.120
  798SOL     OW 2402   1.400   1.969   2.288
  798SOL    HW1 2403   1.376   1.932   2.198
  798SOL    HW2 2404   1.499   1.985   2.292
  799SOL     OW 2405   0.249   3.647   3.103
  799SOL    HW1 2406   0.306   3.582   3.153
  799SOL    HW2 2407   0.233   3.614   3.010
  800SOL     OW 2408   0.940   3.560   2.766
  800SOL    HW1 2409   1.020   3.503   2.787
  800SOL    HW2 2410   0.891   3.520   2.689
  801SOL     OW 2411   0.382   2.562   2.342
  801SOL    HW1 2412   0.427   2.472   2.339
  801SOL    HW2 2413   0.288   2.551   2.375
  802SOL     OW 2414   1.547   2.084   3.591
  802SOL    HW1 2415   1.542   2.121   3.683
  802SOL    HW2 2416   1.475   2.015   3.579
  803SOL     OW 2417   0.614   1.984   1.979
  803SOL    HW1 2418   0.712   1.962   1.986
  803SOL    HW2 2419   0.583   1.967   1.886
  804SOL     OW 2420   0.781   2.126   3.611
  804SOL    HW1 2421   0.848   2.065   3.654
  804SOL    HW2 2422   0.708   2.145   3.676
  805SOL     OW 2423   0.888   3.376   3.057
  805SOL    HW1 2424   0.865   3.351   2.963
  805SOL    HW2 2425   0.949   3.307   3.096
  806SOL     OW 2426   1.351   2.452   3.295
  806SOL    HW1 2427   1.379   2.409   3.380
  806SOL    HW2 2428   1.376   2.548   3.296
  807SOL     OW 2429   0.803   3.264   2.786
  807SOL    HW1 2430   0.893   3.278   2.744
  807SOL    HW2 2431   0.732   3.266   2.715
  808SOL     OW 2432   0.922   2.365   2.761
  808SOL    HW1 2433   0.897   2.356   2.665
  808SOL    HW2 2434   0.970   2.283   2.792
  809SOL     OW 2435   0.539   1.926   2.374
  809SOL    HW1 2436   0.458   1.927   2.432
  809SOL    HW2 2437   0.542   2.009   2.319
  810SOL     OW 2438   1.434   3.050   1.903
  810SOL    HW1 2439   1.466   2.974   1.960
  810SOL    HW2 2440   1.342   3.077   1.933
  811SOL     OW 2441   0.297   1.897   2.033
  811SOL    HW1 2442   0.346   1.981   2.012
  811SOL    HW2 2443   0.359   1.832   2.078
  812SOL     OW 2444   0.935   2.098   2.342
  812SOL    HW1 2445   0.887   2.139   2.264
  812SOL    HW2 2446   1.034   2.096   2.323
  813SOL     OW 2447   1.076   2.545   3.326
  813SOL    HW1 2448   0.996   2.484   3.329
  813SOL    HW2 2449   1.157   2.492   3.302
  814SOL     OW 2450   1.227   3.432   2.655
  814SOL    HW1 2451   1.248   3.506   2.590
  814SOL    HW2 2452   1.295   3.432   2.728
  815SOL     OW 2453   0.459   3.014   2.603
  815SOL    HW1 2454   0.388   2.987   2.668
  815SOL    HW2 2455   0.433   2.986   2.510
  816SOL     OW 2456   1.271   3.659   2.453
  816SOL    HW1 2457   1.315   3.723   2.389
  816SOL    HW2 2458   1.221   3.711   2.523
  817SOL     OW 2459   1.032   2.411   1.878
  817SOL    HW1 2460   0.991   2.493   1.839
  817SOL    HW2 2461   1.096   2.437   1.951
  818SOL     OW 2462   0.078   2.418   3.248
  818SOL    HW1 2463   0.170   2.417   3.207
  818SOL    HW2 2464   0.072   2.492   3.315
  819SOL     OW 2465   0.561   2.084   3.009
  819SOL    HW1 2466   0.599   2.000   3.046
  819SOL    HW2 2467   0.473   2.103   3.053
  820SOL     OW 2468   0.866   2.316   2.504
  820SOL    HW1 2469   0.834   2.388   2.442
  820SOL    HW2 2470   0.890   2.235   2.451
  821SOL     OW 2471   1.017   1.901   2.615
  821SOL    HW1 2472   0.945   1.906   2.546
  821SOL    HW2 2473   0.993   1.832   2.684
  822SOL     OW 2474   1.429   3.035   2.729
  822SOL    HW1 2475   1.374   2.951   2.722
  822SOL    HW2 2476   1.455   3.064   2.637
  823SOL     OW 2477   1.466   2.452   2.854
  823SOL    HW1 2478   1.436   2.357   2.861
  823SOL    HW2 2479   1.539   2.468   2.920
  824SOL     OW 2480   1.857   2.695   2.239
  824SOL    HW1 2481   1.899   2.631   2.303
  824SOL    HW2 2482   1.819   2.644   2.161
  825SOL     OW 2483   0.488   3.247   2.036
  825SOL    HW1 2484   0.401   3.232   2.083
  825SOL    HW2 2485   0.471   3.273   1.941
  826SOL     OW 2486   1.664   3.142   2.519
  826SOL    HW1 2487   1.763   3.150   2.533
  826SOL    HW2 2488   1.619   3.226   2.550
  827SOL     OW 2489   1.390   2.437   1.940
  827SOL    HW1 2490   1.336   2.416   2.021
  827SOL    HW2 2491   1.481   2.396   1.949
  828SOL     OW 2492   0.527   2.118   2.190
  828SOL    HW1 2493   0.554   2.059   2.115
  828SOL    HW2 2494   0.527   2.213   2.159
  829SOL     OW 2495   1.754   3.085   3.450
  829SOL    HW1 2496   1.845   3.046   3.437
  829SOL    HW2 2497   1.762   3.181   3.474
  830SOL     OW 2498   1.064   3.209   3.202
  830SOL    HW1 2499   0.984   3.186   3.257
  830SOL    HW2 2500   1.147   3.183   3.251
  831SOL     OW 2501   1.592   3.491   3.487
  831SOL    HW1 2502   1.619   3.525   3.397
  831SOL    HW2 2503   1.671   3.453   3.533
  832SOL     OW 2504   1.111   3.057   2.962
  832SOL    HW1 2505   1.071   3.101   3.043
  832SOL    HW2 2506   1.070   3.094   2.879
  833SOL     OW 2507   1.638   2.961   2.941
  833SOL    HW1 2508   1.643   3.042   3.000
  833SOL    HW2 2509   1.552   2.963   2.890
  834SOL     OW 2510   0.915   1.951   3.264
  834SOL    HW1 2511   0.940   1.931   3.169
  834SOL    HW2 2512   0.987   2.007   3.306
  835SOL     OW 2513   0.980   2.978   3.581
  835SOL    HW1 2514   0.881   2.984   3.591
  835SOL    HW2 2515   1.003   2.898   3.525
  836SOL     OW 2516   0.705   2.912   2.230
  836SOL    HW1 2517   0.691   2.919   2.329
  836SOL    HW2 2518   0.789   2.861   2.212
  837SOL     OW 2519   0.410   2.675   3.113
  837SOL    HW1 2520   0.496   2.687   3.163
  837SOL    HW2 2521   0.368   2.588   3.140
  838SOL     OW 2522   1.274   2.248   3.124
  838SOL    HW1 2523   1.295   2.322   3.188
  838SOL    HW2 2524   1.185   2.265   3.081
  839SOL     OW 2525   0.064   3.426   3.193
  839SOL    HW1 2526   0.018   3.508   3.159
  839SOL    HW2 2527   0.162   3.445   3.202
  840SOL     OW 2528   0.367   2.962   2.363
  840SOL    HW1 2529   0.360   3.045   2.307
  840SOL    HW2 2530   0.371   2.882   2.303
  841SOL     OW 2531   0.566   2.399   2.727
  841SOL    HW1 2532   0.578   2.465   2.653
  841SOL    HW2 2533   0.612   2.433   2.810
  842SOL     OW 2534   1.252   3.210   2.250
  842SOL    HW1 2535   1.302   3.287   2.290
  842SOL    HW2 2536   1.157   3.212   2.282
  843SOL     OW 2537   1.272   3.307   3.004
  843SOL    HW1 2538   1.319   3.320   3.091
  843SOL    HW2 2539   1.206   3.233   3.013
  844SOL     OW 2540   1.582   2.501   2.334
  844SOL    HW1 2541   1.551   2.562   2.407
  844SOL    HW2 2542   1.632   2.553   2.265
  845SOL     OW 2543   0.354   3.372   3.191
  845SOL    HW1 2544   0.333   3.328   3.104
  845SOL    HW2 2545   0.451   3.398   3.194
  846SOL     OW 2546   0.402   2.613   3.460
  846SOL    HW1 2547   0.470   2.668   3.413
  846SOL    HW2 2548   0.442   2.525   3.487
  847SOL     OW 2549   1.587   2.641   3.532
  847SOL    HW1 2550   1.495   2.679   3.527
  847SOL    HW2 2551   1.647   2.688   3.467
  848SOL     OW 2552   1.013   1.967   3.632
  848SOL    HW1 2553   1.019   2.052   3.580
  848SOL    HW2 2554   1.045   1.891   3.575
  849SOL     OW 2555   0.504   1.912   3.602
  849SOL    HW1 2556   0.462   1.855   3.532
  849SOL    HW2 2557   0.438   1.981   3.634
  850SOL     OW 2558   0.573   2.732   2.891
  850SOL    HW1 2559   0.617   2.821   2.882
  850SOL    HW2 2560   0.510   2.732   2.968
  851SOL     OW 2561   1.360   2.724   2.907
  851SOL    HW1 2562   1.285   2.724   2.841
  851SOL    HW2 2563   1.397   2.632   2.916
  852SOL     OW 2564   1.209   2.387   2.137
  852SOL    HW1 2565   1.222   2.303   2.191
  852SOL    HW2 2566   1.180   2.461   2.197
  853SOL     OW 2567   0.307   2.075   3.093
  853SOL    HW1 2568   0.284   2.112   3.183
  853SOL    HW2 2569   0.277   1.980   3.087
  854SOL     OW 2570   0.037   3.172   3.144
  854SOL    HW1 2571   0.090   3.123   3.212
  854SOL    HW2 2572   0.059   3.270   3.149
  855SOL     OW 2573   0.732   2.496   2.926
  855SOL    HW1 2574   0.791   2.470   2.850
  855SOL    HW2 2575   0.704   2.592   2.915
  856SOL     OW 2576   1.728   2.797   3.716
  856SOL    HW1 2577   1.682   2.790   3.627
  856SOL    HW2 2578   1.666   2.841   3.782
  857SOL     OW 2579   0.307   1.925   2.480
  857SOL    HW1 2580   0.296   2.019   2.513
  857SOL    HW2 2581   0.302   1.862   2.557
  858SOL     OW 2582   1.622   2.229   2.236
  858SOL    HW1 2583   1.624   2.153   2.300
  858SOL    HW2 2584   1.574   2.306   2.276
  859SOL     OW 2585   1.023   2.628   2.828
  859SOL    HW1 2586   1.038   2.649   2.924
  859SOL    HW2 2587   0.993   2.533   2.819
  860SOL     OW 2588   0.980   3.435   3.562
  860SOL    HW1 2589   0.960   3.479   3.474
  860SOL    HW2 2590   1.019   3.344   3.546
  861SOL     OW 2591   1.859   3.380   3.467
  861SOL    HW1 2592   1.873   3.407   3.372
  861SOL    HW2 2593   1.942   3.402   3.520
  862SOL     OW 2594   0.350   2.760   3.666
  862SOL    HW1 2595   0.426   2.804   3.714
  862SOL    HW2 2596   0.385   2.713   3.584
  863SOL     OW 2597   1.540   2.136   1.987
  863SOL    HW1 2598   1.479   2.061   2.010
  863SOL    HW2 2599   1.562   2.188   2.070
  864SOL     OW 2600   1.303   2.700   1.904
  864SOL    HW1 2601   1.337   2.607   1.919
  864SOL    HW2 2602   1.321   2.727   1.809
  865SOL     OW 2603   1.068   3.195   2.711
  865SOL    HW1 2604   1.075   3.111   2.656
  865SOL    HW2 2605   1.130   3.264   2.675
  866SOL     OW 2606   0.319   2.672   2.811
  866SOL    HW1 2607   0.412   2.708   2.816
  866SOL    HW2 2608   0.313   2.587   2.863
  867SOL     OW 2609   0.339   2.371   2.868
  867SOL    HW1 2610   0.287   2.288   2.851
  867SOL    HW2 2611   0.416   2.376   2.804
  868SOL     OW 2612   1.138   2.242   3.540
  868SOL    HW1 2613   1.093   2.305   3.604
  868SOL    HW2 2614   1.231   2.273   3.523
  869SOL     OW 2615   1.160   2.069   3.339
  869SOL    HW1 2616   1.160   2.133   3.416
  869SOL    HW2 2617   1.188   2.117   3.256
  870SOL     OW 2618   0.008   3.188   2.062
  870SOL    HW1 2619  -0.085   3.209   2.031
  870SOL    HW2 2620   0.018   3.089   2.075
  871SOL     OW 2621   0.088   3.663   2.789
  871SOL    HW1 2622   0.046   3.577   2.762
  871SOL    HW2 2623   0.182   3.666   2.755
  872SOL     OW 2624   0.504   3.430   2.772
  872SOL    HW1 2625   0.570   3.504   2.781
  872SOL    HW2 2626   0.548   3.351   2.730
  873SOL     OW 2627   1.002   2.658   3.100
  873SOL    HW1 2628   1.043   2.626   3.186
  873SOL    HW2 2629   0.906   2.631   3.097
  874SOL     OW 2630   0.040   2.406   2.976
  874SOL    HW1 2631   0.125   2.373   2.935
  874SOL    HW2 2632   0.053   2.421   3.074
  875SOL     OW 2633   0.189   2.382   3.584
  875SOL    HW1 2634   0.248   2.342   3.514
  875SOL    HW2 2635   0.131   2.453   3.543
  876SOL     OW 2636   1.369   2.812   3.522
  876SOL    HW1 2637   1.408   2.901   3.542
  876SOL    HW2 2638   1.379   2.792   3.425
  877SOL     OW 2639   0.815   2.434   2.187
  877SOL    HW1 2640   0.822   2.345   2.141
  877SOL    HW2 2641   0.721   2.468   2.179
  878SOL     OW 2642   1.657   2.466   3.068
  878SOL    HW1 2643   1.619   2.397   3.130
  878SOL    HW2 2644   1.739   2.430   3.024
  879SOL     OW 2645   0.252   3.426   3.606
  879SOL    HW1 2646   0.222   3.483   3.682
  879SOL    HW2 2647   0.245   3.329   3.632
  880SOL     OW 2648   0.671   2.326   3.131
  880SOL    HW1 2649   0.637   2.237   3.101
  880SOL    HW2 2650   0.697   2.380   3.051
  881SOL     OW 2651   0.930   3.540   3.327
  881SOL    HW1 2652   0.906   3.522   3.232
  881SOL    HW2 2653   0.960   3.634   3.337
  882SOL     OW 2654   0.473   2.362   2.053
  882SOL    HW1 2655   0.534   2.442   2.057
  882SOL    HW2 2656   0.378   2.393   2.060
  883SOL     OW 2657   0.159   2.999   3.328
  883SOL    HW1 2658   0.181   2.938   3.404
  883SOL    HW2 2659   0.169   2.950   3.242
  884SOL     OW 2660   1.347   2.921   3.096
  884SOL    HW1 2661   1.371   2.858   3.022
  884SOL    HW2 2662   1.257   2.961   3.078
  885SOL     OW 2663   1.302   2.717   2.171
  885SOL    HW1 2664   1.216   2.686   2.213
  885SOL    HW2 2665   1.298   2.703   2.072
  886SOL     OW 2666   1.759   3.609   3.016
  886SOL    HW1 2667   1.820   3.639   2.943
  886SOL    HW2 2668   1.721   3.520   2.994
  887SOL     OW 2669   1.252   3.593   2.990
  887SOL    HW1 2670   1.336   3.598   2.936
  887SOL    HW2 2671   1.229   3.497   3.008
  888SOL     OW 2672   0.083   3.120   2.884
  888SOL    HW1 2673   0.078   3.119   2.984
  888SOL    HW2 2674   0.000   3.079   2.846
  889SOL     OW 2675   0.688   3.524   3.578
  889SOL    HW1 2676   0.632   3.605   3.587
  889SOL    HW2 2677   0.740   3.528   3.492
  890SOL     OW 2678   1.726   1.997   2.385
  890SOL    HW1 2679   1.799   1.980   2.318
  890SOL    HW2 2680   1.695   1.910   2.423
  891SOL     OW 2681   1.388   3.435   2.339
  891SOL    HW1 2682   1.455   3.447   2.265
  891SOL    HW2 2683   1.348   3.524   2.362
  892SOL     OW 2684   0.130   3.656   3.713
  892SOL    HW1 2685   0.089   3.582   3.766
  892SOL    HW2 2686   0.194   3.707   3.771
  893SOL     OW 2687   1.280   2.789   2.534
  893SOL    HW1 2688   1.340   2.708   2.536
  893SOL    HW2 2689   1.320   2.858   2.474
  894SOL     OW 2690   0.830   3.135   3.284
  894SOL    HW1 2691   0.825   3.168   3.379
  894SOL    HW2 2692   0.744   3.154   3.238
  895SOL     OW 2693   0.672   3.478   2.016
  895SOL    HW1 2694   0.681   3.488   1.917
  895SOL    HW2 2695   0.632   3.389   2.037
  896SOL     OW 2696   1.650   3.582   3.256
  896SOL    HW1 2697   1.703   3.592   3.172
  896SOL    HW2 2698   1.623   3.672   3.290
  897SOL     OW 2699   1.841   2.037   2.825
  897SOL    HW1 2700   1.880   1.952   2.789
  897SOL    HW2 2701   1.743   2.039   2.806
  898SOL     OW 2702   0.263   2.188   2.582
  898SOL    HW1 2703   0.184   2.239   2.548
  898SOL    HW2 2704   0.254   2.173   2.680
  899SOL     OW 2705   1.194   3.474   1.893
  899SOL    HW1 2706   1.200   3.381   1.930
  899SOL    HW2 2707   1.135   3.474   1.813
  900SOL     OW 2708   0.822   2.864   3.234
  900SOL    HW1 2709   0.862   2.863   3.142
  900SOL    HW2 2710   0.832   2.956   3.274
  901SOL     OW 2711   0.916   2.772   2.153
  901SOL    HW1 2712   0.979   2.810   2.085
  901SOL    HW2 2713   0.956   2.689   2.192
  902SOL     OW 2714   1.504   3.469   1.906
  902SOL    HW1 2715   1.412   3.506   1.913
  902SOL    HW2 2716   1.542   3.489   1.816
  903SOL     OW 2717   0.372   3.150   3.352
  903SOL    HW1 2718   0.359   3.243   3.318
  903SOL    HW2 2719   0.288   3.098   3.339
  904SOL     OW 2720   1.614   3.154   3.151
  904SOL    HW1 2721   1.674   3.157   3.231
  904SOL    HW2 2722   1.539   3.218   3.164
  905SOL     OW 2723   1.039   2.960   2.558
  905SOL    HW1 2724   0.969   2.913   2.612
  905SOL    HW2 2725   1.098   2.892   2.515
  906SOL     OW 2726   1.014   2.098   2.833
  906SOL    HW1 2727   1.006   2.062   2.740
  906SOL    HW2 2728   1.012   2.022   2.898
  907SOL     OW 2729   0.590   3.349   2.353
  907SOL    HW1 2730   0.632   3.291   2.283
  907SOL    HW2 2731   0.546   3.428   2.309
  908SOL     OW 2732   1.709   2.247   3.243
  908SOL    HW1 2733   1.782   2.316   3.247
  908SOL    HW2 2734   1.737   2.172   3.184
  909SOL     OW 2735   0.255   3.210   2.152
  909SOL    HW1 2736   0.159   3.211   2.125
  909SOL    HW2 2737   0.267   3.263   2.236
  910SOL     OW 2738   0.105   2.875   3.588
  910SOL    HW1 2739   0.028   2.842   3.642
  910SOL    HW2 2740   0.190   2.845   3.630
  911SOL     OW 2741   0.672   2.065   3.351
  911SOL    HW1 2742   0.762   2.049   3.311
  911SOL    HW2 2743   0.680   2.070   3.450
  912SOL     OW 2744   0.075   2.207   1.895
  912SOL    HW1 2745  -0.017   2.179   1.866
  912SOL    HW2 2746   0.106   2.284   1.839
  913SOL     OW 2747   1.440   2.718   3.260
  913SOL    HW1 2748   1.383   2.770   3.197
  913SOL    HW2 2749   1.536   2.730   3.236
  914SOL     OW 2750   0.072   2.028   2.180
  914SOL    HW1 2751   0.055   2.111   2.126
  914SOL    HW2 2752   0.162   1.991   2.158
  915SOL     OW 2753   1.183   3.197   1.981
  915SOL    HW1 2754   1.084   3.186   1.983
  915SOL    HW2 2755   1.217   3.212   2.074
  916SOL     OW 2756   0.613   2.704   3.293
  916SOL    HW1 2757   0.669   2.785   3.276
  916SOL    HW2 2758   0.672   2.624   3.296
  917SOL     OW 2759   1.493   3.629   2.821
  917SOL    HW1 2760   1.526   3.693   2.752
  917SOL    HW2 2761   1.559   3.623   2.896
  918SOL     OW 2762   0.716   2.427   3.570
  918SOL    HW1 2763   0.735   2.492   3.644
  918SOL    HW2 2764   0.776   2.347   3.579
  919SOL     OW 2765   1.450   3.082   3.495
  919SOL    HW1 2766   1.441   3.072   3.594
  919SOL    HW2 2767   1.546   3.075   3.469
  920SOL     OW 2768   0.390   3.603   3.422
  920SOL    HW1 2769   0.299   3.644   3.420
  920SOL    HW2 2770   0.383   3.509   3.454
  921SOL     OW 2771   1.674   2.745   3.116
  921SOL    HW1 2772   1.647   2.656   3.079
  921SOL    HW2 2773   1.675   2.813   3.043
  922SOL     OW 2774   1.225   2.187   2.311
  922SOL    HW1 2775   1.290   2.113   2.300
  922SOL    HW2 2776   1.245   2.237   2.395
  923SOL     OW 2777   0.594   2.607   2.514
  923SOL    HW1 2778   0.644   2.692   2.495
  923SOL    HW2 2779   0.506   2.609   2.466
  924SOL     OW 2780   1.777   2.204   3.504
  924SOL    HW1 2781   1.760   2.235   3.410
  924SOL    HW2 2782   1.693   2.167   3.542
  925SOL     OW 2783   1.730   2.796   3.379
  925SOL    HW1 2784   1.768   2.887   3.394
  925SOL    HW2 2785   1.722   2.779   3.280
  926SOL     OW 2786   0.859   3.236   1.878
  926SOL    HW1 2787   0.813   3.251   1.966
  926SOL    HW2 2788   0.903   3.321   1.848
  927SOL     OW 2789   0.661   3.652   2.815
  927SOL    HW1 2790   0.615   3.740   2.802
  927SOL    HW2 2791   0.760   3.664   2.808
  928SOL     OW 2792   0.859   2.818   2.723
  928SOL    HW1 2793   0.913   2.749   2.771
  928SOL    HW2 2794   0.827   2.887   2.789
  929SOL     OW 2795   1.083   2.846   1.949
  929SOL    HW1 2796   1.060   2.899   1.867
  929SOL    HW2 2797   1.164   2.790   1.930
  930SOL     OW 2798   1.861   3.431   2.713
  930SOL    HW1 2799   1.790   3.419   2.643
  930SOL    HW2 2800   1.862   3.352   2.773
  931SOL     OW 2801   0.221   3.176   3.706
  931SOL    HW1 2802   0.156   3.103   3.685
  931SOL    HW2 2803   0.225   3.190   3.804
  932SOL     OW 2804   0.079   3.102   2.515
  932SOL    HW1 2805   0.078   3.055   2.603
  932SOL    HW2 2806   0.161   3.074   2.464
  933SOL     OW 2807   0.672   3.253   3.486
  933SOL    HW1 2808   0.594   3.203   3.524
  933SOL    HW2 2809   0.669   3.348   3.517
  934SOL     OW 2810   1.824   2.054   3.089
  934SOL    HW1 2811   1.820   1.964   3.133
  934SOL    HW2 2812   1.827   2.043   2.990
  935SOL     OW 2813   0.428   2.286   2.382
  935SOL    HW1 2814   0.458   2.214   2.320
  935SOL    HW2 2815   0.389   2.246   2.465
  936SOL     OW 2816   1.705   3.349   2.966
  936SOL    HW1 2817   1.612   3.324   2.939
  936SOL    HW2 2818   1.731   3.299   3.048
  937SOL     OW 2819   0.317   2.409   3.142
  937SOL    HW1 2820   0.355   2.350   3.214
  937SOL    HW2 2821   0.357   2.383   3.054
  938SOL     OW 2822   0.812   3.448   2.549
  938SOL    HW1 2823   0.844   3.458   2.455
  938SOL    HW2 2824   0.733   3.386   2.551
  939SOL     OW 2825   1.424   2.076   2.974
  939SOL    HW1 2826   1.476   2.011   3.029
  939SOL    HW2 2827   1.375   2.139   3.035
  940SOL     OW 2828   1.001   1.896   3.016
  940SOL    HW1 2829   0.938   1.824   2.985
  940SOL    HW2 2830   1.094   1.860   3.016
  941SOL     OW 2831   0.770   3.192   2.163
  941SOL    HW1 2832   0.724   3.105   2.180
  941SOL    HW2 2833   0.861   3.189   2.204
  942SOL     OW 2834   0.618   3.429   3.146
  942SOL    HW1 2835   0.613   3.511   3.203
  942SOL    HW2 2836   0.707   3.426   3.101
  943SOL     OW 2837   1.352   1.914   2.030
  943SOL    HW1 2838   1.387   1.873   1.946
  943SOL    HW2 2839   1.262   1.876   2.050
  944SOL     OW 2840   1.300   2.315   2.553
  944SOL    HW1 2841   1.241   2.395   2.557
  944SOL    HW2 2842   1.315   2.280   2.646
  945SOL     OW 2843   1.593   2.083   2.744
  945SOL    HW1 2844   1.509   2.082   2.798
  945SOL    HW2 2845   1.595   2.166   2.688
  946SOL     OW 2846   0.039   2.939   2.162
  946SOL    HW1 2847   0.138   2.928   2.153
  946SOL    HW2 2848  -0.001   2.853   2.194
  947SOL     OW 2849   0.875   3.508   2.199
  947SOL    HW1 2850   0.798   3.473   2.145
  947SOL    HW2 2851   0.843   3.579   2.261
  948SOL     OW 2852   0.230   2.490   3.837
  948SOL    HW1 2853   0.137   2.488   3.874
  948SOL    HW2 2854   0.231   2.451   3.745
  949SOL     OW 2855   0.019   2.230   4.371
  949SOL    HW1 2856  -0.063   2.273   4.410
  949SOL    HW2 2857  -0.009   2.157   4.308
  950SOL     OW 2858   1.555   3.373   4.427
  950SOL    HW1 2859   1.498   3.357   4.508
  950SOL    HW2 2860   1.496   3.383   4.347
  951SOL     OW 2861   1.135   2.565   4.441
  951SOL    HW1 2862   1.192   2.643   4.416
  951SOL    HW2 2863   1.075   2.591   4.517
  952SOL     OW 2864   1.755   2.469   3.955
  952SOL    HW1 2865   1.743   2.456   3.856
  952SOL    HW2 2866   1.725   2.388   4.004
  953SOL     OW 2867   0.768   3.006   4.747
  953SOL    HW1 2868   0.690   3.023   4.807
  953SOL    HW2 2869   0.802   3.093   4.711
  954SOL     OW 2870   0.685   2.874   4.389
  954SOL    HW1 2871   0.754   2.858   4.459
  954SOL    HW2 2872   0.612   2.931   4.427
  955SOL     OW 2873   1.603   2.309   4.461
  955SOL    HW1 2874   1.529   2.355   4.411
  955SOL    HW2 2875   1.654   2.377   4.514
  956SOL     OW 2876   0.231   3.575   4.207
  956SOL    HW1 2877   0.265   3.652   4.261
  956SOL    HW2 2878   0.275   3.575   4.117
  957SOL     OW 2879   0.230   3.296   4.262
  957SOL    HW1 2880   0.204   3.392   4.262
  957SOL    HW2 2881   0.159   3.242   4.307
  958SOL     OW 2882   0.240   2.953   4.610
  958SOL    HW1 2883   0.254   2.869   4.662
  958SOL    HW2 2884   0.185   3.017   4.665
  959SOL     OW 2885   0.606   2.826   3.847
  959SOL    HW1 2886   0.613   2.910   3.793
  959SOL    HW2 2887   0.652   2.839   3.935
  960SOL     OW 2888   0.122   2.505   4.287
  960SOL    HW1 2889   0.077   2.417   4.304
  960SOL    HW2 2890   0.121   2.559   4.371
  961SOL     OW 2891   1.842   3.629   4.083
  961SOL    HW1 2892   1.896   3.600   4.163
  961SOL    HW2 2893   1.872   3.719   4.054
  962SOL     OW 2894   0.027   3.458   3.841
  962SOL    HW1 2895   0.008   3.362   3.862
  962SOL    HW2 2896  -0.006   3.516   3.916
  963SOL     OW 2897   1.689   2.784   4.336
  963SOL    HW1 2898   1.784   2.755   4.344
  963SOL    HW2 2899   1.681   2.849   4.261
  964SOL     OW 2900   1.641   2.970   4.156
  964SOL    HW1 2901   1.727   2.972   4.104
  964SOL    HW2 2902   1.655   3.017   4.244
  965SOL     OW 2903   0.613   3.227   4.450
  965SOL    HW1 2904   0.564   3.140   4.459
  965SOL    HW2 2905   0.590   3.270   4.363
  966SOL     OW 2906   0.809   1.866   4.226
  966SOL    HW1 2907   0.849   1.957   4.217
  966SOL    HW2 2908   0.709   1.874   4.232
  967SOL     OW 2909   1.525   2.861   3.914
  967SOL    HW1 2910   1.462   2.785   3.927
  967SOL    HW2 2911   1.573   2.879   4.000
  968SOL     OW 2912   1.667   3.576   4.296
  968SOL    HW1 2913   1.626   3.553   4.208
  968SOL    HW2 2914   1.649   3.502   4.361
  969SOL     OW 2915   0.598   2.591   3.994
  969SOL    HW1 2916   0.622   2.660   3.926
  969SOL    HW2 2917   0.520   2.624   4.048
  970SOL     OW 2918   1.281   2.207   4.668
  970SOL    HW1 2919   1.195   2.157   4.655
  970SOL    HW2 2920   1.343   2.153   4.724
  971SOL     OW 2921   1.576   3.524   4.031
  971SOL    HW1 2922   1.665   3.570   4.034
  971SOL    HW2 2923   1.555   3.500   3.936
  972SOL     OW 2924   1.041   2.563   4.153
  972SOL    HW1 2925   1.067   2.559   4.249
  972SOL    HW2 2926   0.956   2.512   4.139
  973SOL     OW 2927   0.076   2.673   4.513
  973SOL    HW1 2928   0.175   2.661   4.522
  973SOL    HW2 2929   0.052   2.768   4.534
  974SOL     OW 2930   0.865   2.210   3.919
  974SOL    HW1 2931   0.924   2.273   3.870
  974SOL    HW2 2932   0.884   2.116   3.890
  975SOL     OW 2933   1.362   3.006   4.269
  975SOL    HW1 2934   1.445   2.977   4.221
  975SOL    HW2 2935   1.313   3.073   4.213
  976SOL     OW 2936   0.550   2.058   4.609
  976SOL    HW1 2937   0.545   2.053   4.709
  976SOL    HW2 2938   0.552   2.154   4.580
  977SOL     OW 2939   1.008   3.318   4.201
  977SOL    HW1 2940   0.962   3.390   4.149
  977SOL    HW2 2941   1.004   3.338   4.299
  978SOL     OW 2942   0.351   3.663   4.577
  978SOL    HW1 2943   0.401   3.577   4.583
  978SOL    HW2 2944   0.416   3.740   4.574
  979SOL     OW 2945   1.795   2.928   4.597
  979SOL    HW1 2946   1.733   2.913   4.521
  979SOL    HW2 2947   1.743   2.939   4.682
  980SOL     OW 2948   0.321   2.805   3.966
  980SOL    HW1 2949   0.403   2.844   3.924
  980SOL    HW2 2950   0.294   2.723   3.917
  981SOL     OW 2951   1.458   2.597   4.452
  981SOL    HW1 2952   1.453   2.532   4.527
  981SOL    HW2 2953   1.538   2.656   4.465
  982SOL     OW 2954   1.111   3.638   3.961
  982SOL    HW1 2955   1.051   3.576   4.011
  982SOL    HW2 2956   1.142   3.594   3.876
  983SOL     OW 2957   1.632   3.239   3.805
  983SOL    HW1 2958   1.600   3.333   3.795
  983SOL    HW2 2959   1.556   3.176   3.793
  984SOL     OW 2960   0.464   3.605   4.047
  984SOL    HW1 2961   0.497   3.644   4.133
  984SOL    HW2 2962   0.540   3.598   3.982
  985SOL     OW 2963   1.400   1.969   4.150
  985SOL    HW1 2964   1.376   1.932   4.060
  985SOL    HW2 2965   1.499   1.985   4.154
  986SOL     OW 2966   0.940   3.560   4.628
  986SOL    HW1 2967   1.020   3.503   4.649
  986SOL    HW2 2968   0.891   3.520   4.551
  987SOL     OW 2969   0.382   2.562   4.204
  987SOL    HW1 2970   0.427   2.472   4.201
  987SOL    HW2 2971   0.288   2.551   4.237
  988SOL     OW 2972   0.614   1.984   3.841
  988SOL    HW1 2973   0.712   1.962   3.848
  988SOL    HW2 2974   0.583   1.967   3.748
  989SOL     OW 2975   0.539   1.926   4.236
  989SOL    HW1 2976   0.458   1.927   4.294
  989SOL    HW2 2977   0.542   2.009   4.181
  990SOL     OW 2978   1.434   3.050   3.765
  990SOL    HW1 2979   1.466   2.974   3.822
  990SOL    HW2 2980   1.342   3.077   3.795
  991SOL     OW 2981   0.297   1.897   3.895
  991SOL    HW1 2982   0.346   1.981   3.874
  991SOL    HW2 2983   0.359   1.832   3.940
  992SOL     OW 2984   0.935   2.098   4.204
  992SOL    HW1 2985   0.887   2.139   4.126
  992SOL    HW2 2986   1.034   2.096   4.185
  993SOL     OW 2987   0.459   3.014   4.465
  993SOL    HW1 2988   0.388   2.987   4.530
  993SOL    HW2 2989   0.433   2.986   4.372
  994SOL     OW 2990   1.271   3.659   4.315
  994SOL    HW1 2991   1.315   3.723   4.251
  994SOL    HW2 2992   1.221   3.711   4.385
  995SOL     OW 2993   1.032   2.411   3.740
  995SOL    HW1 2994   0.991   2.493   3.701
  995SOL    HW2 2995   1.096   2.437   3.813
  996SOL     OW 2996   0.866   2.316   4.366
  996SOL    HW1 2997   0.834   2.388   4.304
  996SOL    HW2 2998   0.890   2.235   4.313
  997SOL     OW 2999   1.017   1.901   4.477
  997SOL    HW1 3000   0.945   1.906   4.408
  997SOL    HW2 3001   0.993   1.832   4.546
  998SOL     OW 3002   1.857   2.695   4.101
  998SOL    HW1 3003   1.899   2.631   4.165
  998SOL    HW2 3004   1.819   2.644   4.023
  999SOL     OW 3005   0.488   3.247   3.898
  999SOL    HW1 3006   0.401   3.232   3.945
  999SOL    HW2 3007   0.471   3.273   3.803
 1000SOL     OW 3008   1.664   3.142   4.381
 1000SOL    HW1 3009   1.763   3.150   4.395
 1000SOL    HW2 3010   1.619   3.226   4.412
 1001SOL     OW 3011   1.390   2.437   3.802
 1001SOL    HW1 3012   1.336   2.416   3.883
 1001SOL    HW2 3013   1.481   2.396   3.811
 1002SOL     OW 3014   0.527   2.118   4.052
 1002SOL    HW1 3015   0.554   2.059   3.977
 1002SOL    HW2 3016   0.527   2.213   4.021
 1003SOL     OW 3017   0.705   2.912   4.092
 1003SOL    HW1 3018   0.691   2.919   4.191
 1003SOL    HW2 3019   0.789   2.861   4.074
 1004SOL     OW 3020   0.367   2.962   4.225
 1004SOL    HW1 3021   0.360   3.045   4.169
 1004SOL    HW2 3022   0.371   2.882   4.165
 1005SOL     OW 3023   0.566   2.399   4.589
 1005SOL    HW1 3024   0.578   2.465   4.515
 1005SOL    HW2 3025   0.612   2.433   4.672
 1006SOL     OW 3026   1.252   3.210   4.112
 1006SOL    HW1 3027   1.302   3.287   4.152
 1006SOL    HW2 3028   1.157   3.212   4.144
 1007SOL     OW 3029   1.582   2.501   4.196
 1007SOL    HW1 3030   1.551   2.562   4.269
 1007SOL    HW2 3031   1.632   2.553   4.127
 1008SOL     OW 3032   1.209   2.387   3.999
 1008SOL    HW1 3033   1.222   2.303   4.053
 1008SOL    HW2 3034   1.180   2.461   4.059
 1009SOL     OW 3035   0.307   1.925   4.342
 1009SOL    HW1 3036   0.296   2.019   4.375
 1009SOL    HW2 3037   0.302   1.862   4.419
 1010SOL     OW 3038   1.622   2.229   4.098
 1010SOL    HW1 3039   1.624   2.153   4.162
 1010SOL    HW2 3040   1.574   2.306   4.138
 1011SOL     OW 3041   1.540   2.136   3.849
 1011SOL    HW1 3042   1.479   2.061   3.872
 1011SOL    HW2 3043   1.562   2.188   3.932
 1012SOL     OW 3044   1.303   2.700   3.766
 1012SOL    HW1 3045   1.337   2.607   3.781
 1012SOL    HW2 3046   1.321   2.727   3.671
 1013SOL     OW 3047   0.008   3.188   3.924
 1013SOL    HW1 3048  -0.085   3.209   3.893
 1013SOL    HW2 3049   0.018   3.089   3.937
 1014SOL     OW 3050   0.815   2.434   4.049
 1014SOL    HW1 3051   0.822   2.345   4.003
 1014SOL    HW2 3052   0.721   2.468   4.041
 1015SOL     OW 3053   0.473   2.362   3.915
 1015SOL    HW1 3054   0.534   2.442   3.919
 1015SOL    HW2 3055   0.378   2.393   3.922
 1016SOL     OW 3056   1.302   2.717   4.033
 1016SOL    HW1 3057   1.216   2.686   4.075
 1016SOL    HW2 3058   1.298   2.703   3.934
 1017SOL     OW 3059   1.726   1.997   4.247
 1017SOL    HW1 3060   1.799   1.980   4.180
 1017SOL    HW2 3061   1.695   1.910   4.285
 1018SOL     OW 3062   1.388   3.435   4.201
 1018SOL    HW1 3063   1.455   3.447   4.127
 1018SOL    HW2 3064   1.348   3.524   4.224
 1019SOL     OW 3065   1.280   2.789   4.396
 1019SOL    HW1 3066   1.340   2.708   4.398
 1019SOL    HW2 3067   1.320   2.858   4.336
 1020SOL     OW 3068   0.672   3.478   3.878
 1020SOL    HW1 3069   0.681   3.488   3.779
 1020SOL    HW2 3070   0.632   3.389   3.899
 1021SOL     OW 3071   1.841   2.037   4.687
 1021SOL    HW1 3072   1.880   1.952   4.651
 1021SOL    HW2 3073   1.743   2.039   4.668
 1022SOL     OW 3074   0.263   2.188   4.444
 1022SOL    HW1 3075   0.184   2.239   4.410
 1022SOL    HW2 3076   0.254   2.173   4.542
 1023SOL     OW 3077   1.194   3.474   3.755
 1023SOL    HW1 3078   1.200   3.381   3.792
 1023SOL    HW2 3079   1.135   3.474   3.675
 1024SOL     OW 3080   0.916   2.772   4.015
 1024SOL    HW1 3081   0.979   2.810   3.947
 1024SOL    HW2 3082   0.956   2.689   4.054
 1025SOL     OW 3083   1.504   3.469   3.768
 1025SOL    HW1 3084   1.412   3.506   3.775
 1025SOL    HW2 3085   1.542   3.489   3.678
 1026SOL     OW 3086   1.039   2.960   4.420
 1026SOL    HW1 3087   0.969   2.913   4.474
 1026SOL    HW2 3088   1.098   2.892   4.377
 1027SOL     OW 3089   0.590   3.349   4.215
 1027SOL    HW1 3090   0.632   3.291   4.145
 1027SOL    HW2 3091   0.546   3.428   4.171
 1028SOL     OW 3092   0.255   3.210   4.014
 1028SOL    HW1 3093   0.159   3.211   3.987
 1028SOL    HW2 3094   0.267   3.263   4.098
 1029SOL     OW 3095   0.075   2.207   3.757
 1029SOL    HW1 3096  -0.017   2.179   3.728
 1029SOL    HW2 3097   0.106   2.284   3.701
 1030SOL     OW 3098   0.072   2.028   4.042
 1030SOL    HW1 3099   0.055   2.111   3.988
 1030SOL    HW2 3100   0.162   1.991   4.020
 1031SOL     OW 3101   1.183   3.197   3.843
 1031SOL    HW1 3102   1.084   3.186   3.845
 1031SOL    HW2 3103   1.217   3.212   3.936
 1032SOL     OW 3104   1.225   2.187   4.173
 1032SOL    HW1 3105   1.290   2.113   4.162
 1032SOL    HW2 3106   1.245   2.237   4.257
 1033SOL     OW 3107   0.594   2.607   4.376
 1033SOL    HW1 3108   0.644   2.692   4.357
 1033SOL    HW2 3109   0.506   2.609   4.328
 1034SOL     OW 3110   0.859   3.236   3.740
 1034SOL    HW1 3111   0.813   3.251   3.828
 1034SOL    HW2 3112   0.903   3.321   3.710
 1035SOL     OW 3113   0.661   3.652   4.677
 1035SOL    HW1 3114   0.615   3.740   4.664
 1035SOL    HW2 3115   0.760   3.664   4.670
 1036SOL     OW 3116   0.859   2.818   4.585
 1036SOL    HW1 3117   0.913   2.749   4.633
 1036SOL    HW2 3118   0.827   2.887   4.651
 1037SOL     OW 3119   1.083   2.846   3.811
 1037SOL    HW1 3120   1.060   2.899   3.729
 1037SOL    HW2 3121   1.164   2.790   3.792
 1038SOL     OW 3122   0.079   3.102   4.377
 1038SOL    HW1 3123   0.078   3.055   4.465
 1038SOL    HW2 3124   0.161   3.074   4.326
 1039SOL     OW 3125   0.428   2.286   4.244
 1039SOL    HW1 3126   0.458   2.214   4.182
 1039SOL    HW2 3127   0.389   2.246   4.327
 1040SOL     OW 3128   0.812   3.448   4.411
 1040SOL    HW1 3129   0.844   3.458   4.317
 1040SOL    HW2 3130   0.733   3.386   4.413
 1041SOL     OW 3131   0.770   3.192   4.025
 1041SOL    HW1 3132   0.724   3.105   4.042
 1041SOL    HW2 3133   0.861   3.189   4.066
 1042SOL     OW 3134   1.352   1.914   3.892
 1042SOL    HW1 3135   1.387   1.873   3.808
 1042SOL    HW2 3136   1.262   1.876   3.912
 1043SOL     OW 3137   1.300   2.315   4.415
 1043SOL    HW1 3138   1.241   2.395   4.419
 1043SOL    HW2 3139   1.315   2.280   4.508
 1044SOL     OW 3140   0.039   2.939   4.024
 1044SOL    HW1 3141   0.138   2.928   4.015
 1044SOL    HW2 3142  -0.001   2.853   4.056
 1045SOL     OW 3143   0.875   3.508   4.061
 1045SOL    HW1 3144   0.798   3.473   4.007
 1045SOL    HW2 3145   0.843   3.579   4.123
 1046SOL     OW 3146   0.230   4.352   0.113
 1046SOL    HW1 3147   0.137   4.350   0.150
 1046SOL    HW2 3148   0.231   4.313   0.021
 1047SOL     OW 3149   0.225   3.999   0.996
 1047SOL    HW1 3150   0.260   3.982   1.088
 1047SOL    HW2 3151   0.137   3.954   0.984
 1048SOL     OW 3152   0.019   4.092   0.647
 1048SOL    HW1 3153  -0.063   4.135   0.686
 1048SOL    HW2 3154  -0.009   4.019   0.584
 1049SOL     OW 3155   1.135   4.427   0.717
 1049SOL    HW1 3156   1.192   4.505   0.692
 1049SOL    HW2 3157   1.075   4.453   0.793
 1050SOL     OW 3158   1.755   4.331   0.231
 1050SOL    HW1 3159   1.743   4.318   0.132
 1050SOL    HW2 3160   1.725   4.250   0.280
 1051SOL     OW 3161   0.850   4.522   1.823
 1051SOL    HW1 3162   0.846   4.598   1.888
 1051SOL    HW2 3163   0.872   4.558   1.732
 1052SOL     OW 3164   0.685   4.736   0.665
 1052SOL    HW1 3165   0.754   4.720   0.735
 1052SOL    HW2 3166   0.612   4.793   0.703
 1053SOL     OW 3167   0.438   4.116   1.499
 1053SOL    HW1 3168   0.520   4.060   1.508
 1053SOL    HW2 3169   0.357   4.058   1.503
 1054SOL     OW 3170   1.603   4.171   0.737
 1054SOL    HW1 3171   1.529   4.217   0.687
 1054SOL    HW2 3172   1.654   4.239   0.790
 1055SOL     OW 3173   1.594   3.838   1.480
 1055SOL    HW1 3174   1.576   3.905   1.408
 1055SOL    HW2 3175   1.591   3.884   1.569
 1056SOL     OW 3176   0.122   4.367   0.563
 1056SOL    HW1 3177   0.077   4.279   0.580
 1056SOL    HW2 3178   0.121   4.421   0.647
 1057SOL     OW 3179   0.113   4.461   1.597
 1057SOL    HW1 3180   0.201   4.448   1.642
 1057SOL    HW2 3181   0.100   4.558   1.575
 1058SOL     OW 3182   0.809   3.728   0.502
 1058SOL    HW1 3183   0.849   3.819   0.493
 1058SOL    HW2 3184   0.709   3.736   0.508
 1059SOL     OW 3185   0.317   3.975   1.801
 1059SOL    HW1 3186   0.388   4.046   1.807
 1059SOL    HW2 3187   0.229   4.014   1.829
 1060SOL     OW 3188   0.598   4.453   0.270
 1060SOL    HW1 3189   0.622   4.522   0.202
 1060SOL    HW2 3190   0.520   4.486   0.324
 1061SOL     OW 3191   1.281   4.069   0.944
 1061SOL    HW1 3192   1.195   4.019   0.931
 1061SOL    HW2 3193   1.343   4.015   1.000
 1062SOL     OW 3194   0.807   4.329   1.465
 1062SOL    HW1 3195   0.760   4.326   1.554
 1062SOL    HW2 3196   0.756   4.274   1.399
 1063SOL     OW 3197   1.394   4.193   1.674
 1063SOL    HW1 3198   1.374   4.236   1.762
 1063SOL    HW2 3199   1.472   4.131   1.683
 1064SOL     OW 3200   0.991   4.134   1.242
 1064SOL    HW1 3201   0.914   4.168   1.296
 1064SOL    HW2 3202   0.957   4.083   1.163
 1065SOL     OW 3203   1.041   4.425   0.429
 1065SOL    HW1 3204   1.067   4.421   0.525
 1065SOL    HW2 3205   0.956   4.374   0.415
 1066SOL     OW 3206   0.076   4.535   0.789
 1066SOL    HW1 3207   0.175   4.523   0.798
 1066SOL    HW2 3208   0.052   4.630   0.810
 1067SOL     OW 3209   0.865   4.072   0.195
 1067SOL    HW1 3210   0.924   4.135   0.146
 1067SOL    HW2 3211   0.884   3.978   0.166
 1068SOL     OW 3212   1.719   4.309   1.831
 1068SOL    HW1 3213   1.693   4.398   1.795
 1068SOL    HW2 3214   1.717   4.241   1.758
 1069SOL     OW 3215   0.550   3.920   0.885
 1069SOL    HW1 3216   0.545   3.915   0.985
 1069SOL    HW2 3217   0.552   4.016   0.856
 1070SOL     OW 3218   1.458   4.459   0.728
 1070SOL    HW1 3219   1.453   4.394   0.803
 1070SOL    HW2 3220   1.538   4.518   0.741
 1071SOL     OW 3221   0.202   4.009   1.498
 1071SOL    HW1 3222   0.122   4.069   1.485
 1071SOL    HW2 3223   0.192   3.960   1.584
 1072SOL     OW 3224   1.400   3.831   0.426
 1072SOL    HW1 3225   1.376   3.794   0.336
 1072SOL    HW2 3226   1.499   3.847   0.430
 1073SOL     OW 3227   0.382   4.424   0.480
 1073SOL    HW1 3228   0.427   4.334   0.477
 1073SOL    HW2 3229   0.288   4.413   0.513
 1074SOL     OW 3230   1.547   3.946   1.729
 1074SOL    HW1 3231   1.542   3.983   1.821
 1074SOL    HW2 3232   1.475   3.877   1.717
 1075SOL     OW 3233   0.781   3.988   1.749
 1075SOL    HW1 3234   0.848   3.927   1.792
 1075SOL    HW2 3235   0.708   4.007   1.814
 1076SOL     OW 3236   1.351   4.314   1.433
 1076SOL    HW1 3237   1.379   4.271   1.518
 1076SOL    HW2 3238   1.376   4.410   1.434
 1077SOL     OW 3239   0.922   4.227   0.899
 1077SOL    HW1 3240   0.897   4.218   0.803
 1077SOL    HW2 3241   0.970   4.145   0.930
 1078SOL     OW 3242   0.539   3.788   0.512
 1078SOL    HW1 3243   0.458   3.789   0.570
 1078SOL    HW2 3244   0.542   3.871   0.457
 1079SOL     OW 3245   0.297   3.759   0.171
 1079SOL    HW1 3246   0.346   3.843   0.150
 1079SOL    HW2 3247   0.359   3.694   0.216
 1080SOL     OW 3248   0.935   3.960   0.480
 1080SOL    HW1 3249   0.887   4.001   0.402
 1080SOL    HW2 3250   1.034   3.958   0.461
 1081SOL     OW 3251   1.076   4.407   1.464
 1081SOL    HW1 3252   0.996   4.346   1.467
 1081SOL    HW2 3253   1.157   4.354   1.440
 1082SOL     OW 3254   1.032   4.273   0.016
 1082SOL    HW1 3255   0.991   4.355  -0.023
 1082SOL    HW2 3256   1.096   4.299   0.089
 1083SOL     OW 3257   0.078   4.280   1.386
 1083SOL    HW1 3258   0.170   4.279   1.345
 1083SOL    HW2 3259   0.072   4.354   1.453
 1084SOL     OW 3260   0.561   3.946   1.147
 1084SOL    HW1 3261   0.599   3.862   1.184
 1084SOL    HW2 3262   0.473   3.965   1.191
 1085SOL     OW 3263   0.866   4.178   0.642
 1085SOL    HW1 3264   0.834   4.250   0.580
 1085SOL    HW2 3265   0.890   4.097   0.589
 1086SOL     OW 3266   1.017   3.763   0.753
 1086SOL    HW1 3267   0.945   3.768   0.684
 1086SOL    HW2 3268   0.993   3.694   0.822
 1087SOL     OW 3269   1.466   4.314   0.992
 1087SOL    HW1 3270   1.436   4.219   0.999
 1087SOL    HW2 3271   1.539   4.330   1.058
 1088SOL     OW 3272   1.857   4.557   0.377
 1088SOL    HW1 3273   1.899   4.493   0.441
 1088SOL    HW2 3274   1.819   4.506   0.299
 1089SOL     OW 3275   1.390   4.299   0.078
 1089SOL    HW1 3276   1.336   4.278   0.159
 1089SOL    HW2 3277   1.481   4.258   0.087
 1090SOL     OW 3278   0.527   3.980   0.328
 1090SOL    HW1 3279   0.554   3.921   0.253
 1090SOL    HW2 3280   0.527   4.075   0.297
 1091SOL     OW 3281   0.915   3.813   1.402
 1091SOL    HW1 3282   0.940   3.793   1.307
 1091SOL    HW2 3283   0.987   3.869   1.444
 1092SOL     OW 3284   0.705   4.774   0.368
 1092SOL    HW1 3285   0.691   4.781   0.467
 1092SOL    HW2 3286   0.789   4.723   0.350
 1093SOL     OW 3287   0.410   4.537   1.251
 1093SOL    HW1 3288   0.496   4.549   1.301
 1093SOL    HW2 3289   0.368   4.450   1.278
 1094SOL     OW 3290   1.274   4.110   1.262
 1094SOL    HW1 3291   1.295   4.184   1.326
 1094SOL    HW2 3292   1.185   4.127   1.219
 1095SOL     OW 3293   0.566   4.261   0.865
 1095SOL    HW1 3294   0.578   4.327   0.791
 1095SOL    HW2 3295   0.612   4.295   0.948
 1096SOL     OW 3296   1.582   4.363   0.472
 1096SOL    HW1 3297   1.551   4.424   0.545
 1096SOL    HW2 3298   1.632   4.415   0.403
 1097SOL     OW 3299   1.587   4.503   1.670
 1097SOL    HW1 3300   1.495   4.541   1.665
 1097SOL    HW2 3301   1.647   4.550   1.605
 1098SOL     OW 3302   1.013   3.829   1.770
 1098SOL    HW1 3303   1.019   3.914   1.718
 1098SOL    HW2 3304   1.045   3.753   1.713
 1099SOL     OW 3305   0.504   3.774   1.740
 1099SOL    HW1 3306   0.462   3.717   1.670
 1099SOL    HW2 3307   0.438   3.843   1.772
 1100SOL     OW 3308   1.360   4.586   1.045
 1100SOL    HW1 3309   1.285   4.586   0.979
 1100SOL    HW2 3310   1.397   4.494   1.054
 1101SOL     OW 3311   1.209   4.249   0.275
 1101SOL    HW1 3312   1.222   4.165   0.329
 1101SOL    HW2 3313   1.180   4.323   0.335
 1102SOL     OW 3314   0.307   3.937   1.231
 1102SOL    HW1 3315   0.284   3.974   1.321
 1102SOL    HW2 3316   0.277   3.842   1.225
 1103SOL     OW 3317   0.732   4.358   1.064
 1103SOL    HW1 3318   0.791   4.332   0.988
 1103SOL    HW2 3319   0.704   4.454   1.053
 1104SOL     OW 3320   1.728   4.659   1.854
 1104SOL    HW1 3321   1.682   4.652   1.765
 1104SOL    HW2 3322   1.666   4.703   1.920
 1105SOL     OW 3323   0.307   3.787   0.618
 1105SOL    HW1 3324   0.296   3.881   0.651
 1105SOL    HW2 3325   0.302   3.724   0.695
 1106SOL     OW 3326   1.622   4.091   0.374
 1106SOL    HW1 3327   1.624   4.015   0.438
 1106SOL    HW2 3328   1.574   4.168   0.414
 1107SOL     OW 3329   1.540   3.998   0.125
 1107SOL    HW1 3330   1.479   3.923   0.148
 1107SOL    HW2 3331   1.562   4.050   0.208
 1108SOL     OW 3332   0.319   4.534   0.949
 1108SOL    HW1 3333   0.412   4.570   0.954
 1108SOL    HW2 3334   0.313   4.449   1.001
 1109SOL     OW 3335   0.339   4.233   1.006
 1109SOL    HW1 3336   0.287   4.150   0.989
 1109SOL    HW2 3337   0.416   4.238   0.942
 1110SOL     OW 3338   1.138   4.104   1.678
 1110SOL    HW1 3339   1.093   4.167   1.742
 1110SOL    HW2 3340   1.231   4.135   1.661
 1111SOL     OW 3341   1.160   3.931   1.477
 1111SOL    HW1 3342   1.160   3.995   1.554
 1111SOL    HW2 3343   1.188   3.979   1.394
 1112SOL     OW 3344   0.040   4.268   1.114
 1112SOL    HW1 3345   0.125   4.235   1.073
 1112SOL    HW2 3346   0.053   4.283   1.212
 1113SOL     OW 3347   0.189   4.244   1.722
 1113SOL    HW1 3348   0.248   4.204   1.652
 1113SOL    HW2 3349   0.131   4.315   1.681
 1114SOL     OW 3350   0.815   4.296   0.325
 1114SOL    HW1 3351   0.822   4.207   0.279
 1114SOL    HW2 3352   0.721   4.330   0.317
 1115SOL     OW 3353   1.657   4.328   1.206
 1115SOL    HW1 3354   1.619   4.259   1.268
 1115SOL    HW2 3355   1.739   4.292   1.162
 1116SOL     OW 3356   0.671   4.188   1.269
 1116SOL    HW1 3357   0.637   4.099   1.239
 1116SOL    HW2 3358   0.697   4.242   1.189
 1117SOL     OW 3359   0.473   4.224   0.191
 1117SOL    HW1 3360   0.534   4.304   0.195
 1117SOL    HW2 3361   0.378   4.255   0.198
 1118SOL     OW 3362   0.903   3.810   0.133
 1118SOL    HW1 3363   0.954   3.811   0.047
 1118SOL    HW2 3364   0.959   3.768   0.204
 1119SOL     OW 3365   1.726   3.859   0.523
 1119SOL    HW1 3366   1.799   3.842   0.456
 1119SOL    HW2 3367   1.695   3.772   0.561
 1120SOL     OW 3368   1.280   4.651   0.672
 1120SOL    HW1 3369   1.340   4.570   0.674
 1120SOL    HW2 3370   1.320   4.720   0.612
 1121SOL     OW 3371   1.841   3.899   0.963
 1121SOL    HW1 3372   1.880   3.814   0.927
 1121SOL    HW2 3373   1.743   3.901   0.944
 1122SOL     OW 3374   0.263   4.050   0.720
 1122SOL    HW1 3375   0.184   4.101   0.686
 1122SOL    HW2 3376   0.254   4.035   0.818
 1123SOL     OW 3377   1.014   3.960   0.971
 1123SOL    HW1 3378   1.006   3.924   0.878
 1123SOL    HW2 3379   1.012   3.884   1.036
 1124SOL     OW 3380   1.709   4.109   1.381
 1124SOL    HW1 3381   1.782   4.178   1.385
 1124SOL    HW2 3382   1.737   4.034   1.322
 1125SOL     OW 3383   0.105   4.737   1.726
 1125SOL    HW1 3384   0.028   4.704   1.780
 1125SOL    HW2 3385   0.190   4.707   1.768
 1126SOL     OW 3386   0.672   3.927   1.489
 1126SOL    HW1 3387   0.762   3.911   1.449
 1126SOL    HW2 3388   0.680   3.932   1.588
 1127SOL     OW 3389   0.075   4.069   0.033
 1127SOL    HW1 3390  -0.017   4.041   0.004
 1127SOL    HW2 3391   0.106   4.146  -0.023
 1128SOL     OW 3392   1.440   4.580   1.398
 1128SOL    HW1 3393   1.383   4.632   1.335
 1128SOL    HW2 3394   1.536   4.592   1.374
 1129SOL     OW 3395   0.072   3.890   0.318
 1129SOL    HW1 3396   0.055   3.973   0.264
 1129SOL    HW2 3397   0.162   3.853   0.296
 1130SOL     OW 3398   0.613   4.566   1.431
 1130SOL    HW1 3399   0.669   4.647   1.414
 1130SOL    HW2 3400   0.672   4.486   1.434
 1131SOL     OW 3401   0.716   4.289   1.708
 1131SOL    HW1 3402   0.735   4.354   1.782
 1131SOL    HW2 3403   0.776   4.209   1.717
 1132SOL     OW 3404   1.674   4.607   1.254
 1132SOL    HW1 3405   1.647   4.518   1.217
 1132SOL    HW2 3406   1.675   4.675   1.181
 1133SOL     OW 3407   1.225   4.049   0.449
 1133SOL    HW1 3408   1.290   3.975   0.438
 1133SOL    HW2 3409   1.245   4.099   0.533
 1134SOL     OW 3410   0.594   4.469   0.652
 1134SOL    HW1 3411   0.644   4.554   0.633
 1134SOL    HW2 3412   0.506   4.471   0.604
 1135SOL     OW 3413   1.777   4.066   1.642
 1135SOL    HW1 3414   1.760   4.097   1.548
 1135SOL    HW2 3415   1.693   4.029   1.680
 1136SOL     OW 3416   1.824   3.916   1.227
 1136SOL    HW1 3417   1.820   3.826   1.271
 1136SOL    HW2 3418   1.827   3.905   1.128
 1137SOL     OW 3419   0.428   4.148   0.520
 1137SOL    HW1 3420   0.458   4.076   0.458
 1137SOL    HW2 3421   0.389   4.108   0.603
 1138SOL     OW 3422   0.317   4.271   1.280
 1138SOL    HW1 3423   0.355   4.212   1.352
 1138SOL    HW2 3424   0.357   4.245   1.192
 1139SOL     OW 3425   1.424   3.938   1.112
 1139SOL    HW1 3426   1.476   3.873   1.167
 1139SOL    HW2 3427   1.375   4.001   1.173
 1140SOL     OW 3428   1.001   3.758   1.154
 1140SOL    HW1 3429   0.938   3.686   1.123
 1140SOL    HW2 3430   1.094   3.722   1.154
 1141SOL     OW 3431   1.352   3.776   0.168
 1141SOL    HW1 3432   1.387   3.735   0.084
 1141SOL    HW2 3433   1.262   3.738   0.188
 1142SOL     OW 3434   1.300   4.177   0.691
 1142SOL    HW1 3435   1.241   4.257   0.695
 1142SOL    HW2 3436   1.315   4.142   0.784
 1143SOL     OW 3437   1.593   3.945   0.882
 1143SOL    HW1 3438   1.509   3.944   0.936
 1143SOL    HW2 3439   1.595   4.028   0.826
 1144SOL     OW 3440   0.230   4.352   1.975
 1144SOL    HW1 3441   0.137   4.350   2.012
 1144SOL    HW2 3442   0.231   4.313   1.883
 1145SOL     OW 3443   0.225   3.999   2.858
 1145SOL    HW1 3444   0.260   3.982   2.950
 1145SOL    HW2 3445   0.137   3.954   2.846
 1146SOL     OW 3446   0.019   4.092   2.509
 1146SOL    HW1 3447  -0.063   4.135   2.548
 1146SOL    HW2 3448  -0.009   4.019   2.446
 1147SOL     OW 3449   1.135   4.427   2.579
 1147SOL    HW1 3450   1.192   4.505   2.554
 1147SOL    HW2 3451   1.075   4.453   2.655
 1148SOL     OW 3452   1.755   4.331   2.093
 1148SOL    HW1 3453   1.743   4.318   1.994
 1148SOL    HW2 3454   1.725   4.250   2.142
 1149SOL     OW 3455   0.850   4.522   3.685
 1149SOL    HW1 3456   0.846   4.598   3.750
 1149SOL    HW2 3457   0.872   4.558   3.594
 1150SOL     OW 3458   0.685   4.736   2.527
 1150SOL    HW1 3459   0.754   4.720   2.597
 1150SOL    HW2 3460   0.612   4.793   2.565
 1151SOL     OW 3461   0.438   4.116   3.361
 1151SOL    HW1 3462   0.520   4.060   3.370
 1151SOL    HW2 3463   0.357   4.058   3.365
 1152SOL     OW 3464   1.603   4.171   2.599
 1152SOL    HW1 3465   1.529   4.217   2.549
 1152SOL    HW2 3466   1.654   4.239   2.652
 1153SOL     OW 3467   1.594   3.838   3.342
 1153SOL    HW1 3468   1.576   3.905   3.270
 1153SOL    HW2 3469   1.591   3.884   3.431
 1154SOL     OW 3470   0.122   4.367   2.425
 1154SOL    HW1 3471   0.077   4.279   2.442
 1154SOL    HW2 3472   0.121   4.421   2.509
 1155SOL     OW 3473   0.113   4.461   3.459
 1155SOL    HW1 3474   0.201   4.448   3.504
 1155SOL    HW2 3475   0.100   4.558   3.437
 1156SOL     OW 3476   0.809   3.728   2.364
 1156SOL    HW1 3477   0.849   3.819   2.355
 1156SOL    HW2 3478   0.709   3.736   2.370
 1157SOL     OW 3479   0.317   3.975   3.663
 1157SOL    HW1 3480   0.388   4.046   3.669
 1157SOL    HW2 3481   0.229   4.014   3.691
 1158SOL     OW 3482   0.598   4.453   2.132
 1158SOL    HW1 3483   0.622   4.522   2.064
 1158SOL    HW2 3484   0.520   4.486   2.186
 1159SOL     OW 3485   1.281   4.069   2.806
 1159SOL    HW1 3486   1.195   4.019   2.793
 1159SOL    HW2 3487   1.343   4.015   2.862
 1160SOL     OW 3488   0.807   4.329   3.327
 1160SOL    HW1 3489   0.760   4.326   3.416
 1160SOL    HW2 3490   0.756   4.274   3.261
 1161SOL     OW 3491   1.394   4.193   3.536
 1161SOL    HW1 3492   1.374   4.236   3.624
 1161SOL    HW2 3493   1.472   4.131   3.545
 1162SOL     OW 3494   0.991   4.134   3.104
 1162SOL    HW1 3495   0.914   4.168   3.158
 1162SOL    HW2 3496   0.957   4.083   3.025
 1163SOL     OW 3497   1.041   4.425   2.291
 1163SOL    HW1 3498   1.067   4.421   2.387
 1163SOL    HW2 3499   0.956   4.374   2.277
 1164SOL     OW 3500   0.076   4.535   2.651
 1164SOL    HW1 3501   0.175   4.523   2.660
 1164SOL    HW2 3502   0.052   4.630   2.672
 1165SOL     OW 3503   0.865   4.072   2.057
 1165SOL    HW1 3504   0.924   4.135   2.008
 1165SOL    HW2 3505   0.884   3.978   2.028
 1166SOL     OW 3506   1.719   4.309   3.693
 1166SOL    HW1 3507   1.693   4.398   3.657
 1166SOL    HW2 3508   1.717   4.241   3.620
 1167SOL     OW 3509   0.550   3.920   2.747
 1167SOL    HW1 3510   0.545   3.915   2.847
 1167SOL    HW2 3511   0.552   4.016   2.718
 1168SOL     OW 3512   1.458   4.459   2.590
 1168SOL    HW1 3513   1.453   4.394   2.665
 1168SOL    HW2 3514   1.538   4.518   2.603
 1169SOL     OW 3515   0.202   4.009   3.360
 1169SOL    HW1 3516   0.122   4.069   3.347
 1169SOL    HW2 3517   0.192   3.960   3.446
 1170SOL     OW 3518   1.400   3.831   2.288
 1170SOL    HW1 3519   1.376   3.794   2.198
 1170SOL    HW2 3520   1.499   3.847   2.292
 1171SOL     OW 3521   0.382   4.424   2.342
 1171SOL    HW1 3522   0.427   4.334   2.339
 1171SOL    HW2 3523   0.288   4.413   2.375
 1172SOL     OW 3524   1.547   3.946   3.591
 1172SOL    HW1 3525   1.542   3.983   3.683
 1172SOL    HW2 3526   1.475   3.877   3.579
 1173SOL     OW 3527   0.614   3.846   1.979
 1173SOL    HW1 3528   0.712   3.824   1.986
 1173SOL    HW2 3529   0.583   3.829   1.886
 1174SOL     OW 3530   0.781   3.988   3.611
 1174SOL    HW1 3531   0.848   3.927   3.654
 1174SOL    HW2 3532   0.708   4.007   3.676
 1175SOL     OW 3533   1.351   4.314   3.295
 1175SOL    HW1 3534   1.379   4.271   3.380
 1175SOL    HW2 3535   1.376   4.410   3.296
 1176SOL     OW 3536   0.922   4.227   2.761
 1176SOL    HW1 3537   0.897   4.218   2.665
 1176SOL    HW2 3538   0.970   4.145   2.792
 1177SOL     OW 3539   0.539   3.788   2.374
 1177SOL    HW1 3540   0.458   3.789   2.432
 1177SOL    HW2 3541   0.542   3.871   2.319
 1178SOL     OW 3542   0.297   3.759   2.033
 1178SOL    HW1 3543   0.346   3.843   2.012
 1178SOL    HW2 3544   0.359   3.694   2.078
 1179SOL     OW 3545   0.935   3.960   2.342
 1179SOL    HW1 3546   0.887   4.001   2.264
 1179SOL    HW2 3547   1.034   3.958   2.323
 1180SOL     OW 3548   1.076   4.407   3.326
 1180SOL    HW1 3549   0.996   4.346   3.329
 1180SOL    HW2 3550   1.157   4.354   3.302
 1181SOL     OW 3551   1.032   4.273   1.878
 1181SOL    HW1 3552   0.991   4.355   1.839
 1181SOL    HW2 3553   1.096   4.299   1.951
 1182SOL     OW 3554   0.078   4.280   3.248
 1182SOL    HW1 3555   0.170   4.279   3.207
 1182SOL    HW2 3556   0.072   4.354   3.315
 1183SOL     OW 3557   0.561   3.946   3.009
 1183SOL    HW1 3558   0.599   3.862   3.046
 1183SOL    HW2 3559   0.473   3.965   3.053
 1184SOL     OW 3560   0.866   4.178   2.504
 1184SOL    HW1 3561   0.834   4.250   2.442
 1184SOL    HW2 3562   0.890   4.097   2.451
 1185SOL     OW 3563   1.017   3.763   2.615
 1185SOL    HW1 3564   0.945   3.768   2.546
 1185SOL    HW2 3565   0.993   3.694   2.684
 1186SOL     OW 3566   1.466   4.314   2.854
 1186SOL    HW1 3567   1.436   4.219   2.861
 1186SOL    HW2 3568   1.539   4.330   2.920
 1187SOL     OW 3569   1.857   4.557   2.239
 1187SOL    HW1 3570   1.899   4.493   2.303
 1187SOL    HW2 3571   1.819   4.506   2.161
 1188SOL     OW 3572   1.390   4.299   1.940
 1188SOL    HW1 3573   1.336   4.278   2.021
 1188SOL    HW2 3574   1.481   4.258   1.949
 1189SOL     OW 3575   0.527   3.980   2.190
 1189SOL    HW1 3576   0.554   3.921   2.115
 1189SOL    HW2 3577   0.527   4.075   2.159
 1190SOL     OW 3578   0.915   3.813   3.264
 1190SOL    HW1 3579   0.940   3.793   3.169
 1190SOL    HW2 3580   0.987   3.869   3.306
 1191SOL     OW 3581   0.705   4.774   2.230
 1191SOL    HW1 3582   0.691   4.781   2.329
 1191SOL    HW2 3583   0.789   4.723   2.212
 1192SOL     OW 3584   0.410   4.537   3.113
 1192SOL    HW1 3585   0.496   4.549   3.163
 1192SOL    HW2 3586   0.368   4.450   3.140
 1193SOL     OW 3587   1.274   4.110   3.124
 1193SOL    HW1 3588   1.295   4.184   3.188
 1193SOL    HW2 3589   1.185   4.127   3.081
 1194SOL     OW 3590   0.566   4.261   2.727
 1194SOL    HW1 3591   0.578   4.327   2.653
 1194SOL    HW2 3592   0.612   4.295   2.810
 1195SOL     OW 3593   1.582   4.363   2.334
 1195SOL    HW1 3594   1.551   4.424   2.407
 1195SOL    HW2 3595   1.632   4.415   2.265
 1196SOL     OW 3596   1.587   4.503   3.532
 1196SOL    HW1 3597   1.495   4.541   3.527
 1196SOL    HW2 3598   1.647   4.550   3.467
 1197SOL     OW 3599   1.013   3.829   3.632
 1197SOL    HW1 3600   1.019   3.914   3.580
 1197SOL    HW2 3601   1.045   3.753   3.575
 1198SOL     OW 3602   0.504   3.774   3.602
 1198SOL    HW1 3603   0.462   3.717   3.532
 1198SOL    HW2 3604   0.438   3.843   3.634
 1199SOL     OW 3605   1.360   4.586   2.907
 1199SOL    HW1 3606   1.285   4.586   2.841
 1199SOL    HW2 3607   1.397   4.494   2.916
 1200SOL     OW 3608   1.209   4.249   2.137
 1200SOL    HW1 3609   1.222   4.165   2.191
 1200SOL    HW2 3610   1.180   4.323   2.197
 1201SOL     OW 3611   0.307   3.937   3.093
 1201SOL    HW1 3612   0.284   3.974   3.183
 1201SOL    HW2 3613   0.277   3.842   3.087
 1202SOL     OW 3614   0.732   4.358   2.926
 1202SOL    HW1 3615   0.791   4.332   2.850
 1202SOL    HW2 3616   0.704   4.454   2.915
 1203SOL     OW 3617   1.728   4.659   3.716
 1203SOL    HW1 3618   1.682   4.652   3.627
 1203SOL    HW2 3619   1.666   4.703   3.782
 1204SOL     OW 3620   0.307   3.787   2.480
 1204SOL    HW1 3621   0.296   3.881   2.513
 1204SOL    HW2 3622   0.302   3.724   2.557
 1205SOL     OW 3623   1.622   4.091   2.236
 1205SOL    HW1 3624   1.624   4.015   2.300
 1205SOL    HW2 3625   1.574   4.168   2.276
 1206SOL     OW 3626   1.540   3.998   1.987
 1206SOL    HW1 3627   1.479   3.923   2.010
 1206SOL    HW2 3628   1.562   4.050   2.070
 1207SOL     OW 3629   0.319   4.534   2.811
 1207SOL    HW1 3630   0.412   4.570   2.816
 1207SOL    HW2 3631   0.313   4.449   2.863
 1208SOL     OW 3632   0.339   4.233   2.868
 1208SOL    HW1 3633   0.287   4.150   2.851
 1208SOL    HW2 3634   0.416   4.238   2.804
 1209SOL     OW 3635   1.138   4.104   3.540
 1209SOL    HW1 3636   1.093   4.167   3.604
 1209SOL    HW2 3637   1.231   4.135   3.523
 1210SOL     OW 3638   1.160   3.931   3.339
 1210SOL    HW1 3639   1.160   3.995   3.416
 1210SOL    HW2 3640   1.188   3.979   3.256
 1211SOL     OW 3641   0.040   4.268   2.976
 1211SOL    HW1 3642   0.125   4.235   2.935
 1211SOL    HW2 3643   0.053   4.283   3.074
 1212SOL     OW 3644   0.189   4.244   3.584
 1212SOL    HW1 3645   0.248   4.204   3.514
 1212SOL    HW2 3646   0.131   4.315   3.543
 1213SOL     OW 3647   0.815   4.296   2.187
 1213SOL    HW1 3648   0.822   4.207   2.141
 1213SOL    HW2 3649   0.721   4.330   2.179
 1214SOL     OW 3650   1.657   4.328   3.068
 1214SOL    HW1 3651   1.619   4.259   3.130
 1214SOL    HW2 3652   1.739   4.292   3.024
 1215SOL     OW 3653   0.671   4.188   3.131
 1215SOL    HW1 3654   0.637   4.099   3.101
 1215SOL    HW2 3655   0.697   4.242   3.051
 1216SOL     OW 3656   0.473   4.224   2.053
 1216SOL    HW1 3657   0.534   4.304   2.057
 1216SOL    HW2 3658   0.378   4.255   2.060
 1217SOL     OW 3659   1.726   3.859   2.385
 1217SOL    HW1 3660   1.799   3.842   2.318
 1217SOL    HW2 3661   1.695   3.772   2.423
 1218SOL     OW 3662   1.280   4.651   2.534
 1218SOL    HW1 3663   1.340   4.570   2.536
 1218SOL    HW2 3664   1.320   4.720   2.474
 1219SOL     OW 3665   1.841   3.899   2.825
 1219SOL    HW1 3666   1.880   3.814   2.789
 1219SOL    HW2 3667   1.743   3.901   2.806
 1220SOL     OW 3668   0.263   4.050   2.582
 1220SOL    HW1 3669   0.184   4.101   2.548
 1220SOL    HW2 3670   0.254   4.035   2.680
 1221SOL     OW 3671   0.916   4.634   2.153
 1221SOL    HW1 3672   0.979   4.672   2.085
 1221SOL    HW2 3673   0.956   4.551   2.192
 1222SOL     OW 3674   1.014   3.960   2.833
 1222SOL    HW1 3675   1.006   3.924   2.740
 1222SOL    HW2 3676   1.012   3.884   2.898
 1223SOL     OW 3677   1.709   4.109   3.243
 1223SOL    HW1 3678   1.782   4.178   3.247
 1223SOL    HW2 3679   1.737   4.034   3.184
 1224SOL     OW 3680   0.105   4.737   3.588
 1224SOL    HW1 3681   0.028   4.704   3.642
 1224SOL    HW2 3682   0.190   4.707   3.630
 1225SOL     OW 3683   0.672   3.927   3.351
 1225SOL    HW1 3684   0.762   3.911   3.311
 1225SOL    HW2 3685   0.680   3.932   3.450
 1226SOL     OW 3686   0.075   4.069   1.895
 1226SOL    HW1 3687  -0.017   4.041   1.866
 1226SOL    HW2 3688   0.106   4.146   1.839
 1227SOL     OW 3689   1.440   4.580   3.260
 1227SOL    HW1 3690   1.383   4.632   3.197
 1227SOL    HW2 3691   1.536   4.592   3.236
 1228SOL     OW 3692   0.072   3.890   2.180
 1228SOL    HW1 3693   0.055   3.973   2.126
 1228SOL    HW2 3694   0.162   3.853   2.158
 1229SOL     OW 3695   0.613   4.566   3.293
 1229SOL    HW1 3696   0.669   4.647   3.276
 1229SOL    HW2 3697   0.672   4.486   3.296
 1230SOL     OW 3698   0.716   4.289   3.570
 1230SOL    HW1 3699   0.735   4.354   3.644
 1230SOL    HW2 3700   0.776   4.209   3.579
 1231SOL     OW 3701   1.674   4.607   3.116
 1231SOL    HW1 3702   1.647   4.518   3.079
 1231SOL    HW2 3703   1.675   4.675   3.043
 1232SOL     OW 3704   1.225   4.049   2.311
 1232SOL    HW1 3705   1.290   3.975   2.300
 1232SOL    HW2 3706   1.245   4.099   2.395
 1233SOL     OW 3707   0.594   4.469   2.514
 1233SOL    HW1 3708   0.644   4.554   2.495
 1233SOL    HW2 3709   0.506   4.471   2.466
 1234SOL     OW 3710   1.777   4.066   3.504
 1234SOL    HW1 3711   1.760   4.097   3.410
 1234SOL    HW2 3712   1.693   4.029   3.542
 1235SOL     OW 3713   1.824   3.916   3.089
 1235SOL    HW1 3714   1.820   3.826   3.133
 1235SOL    HW2 3715   1.827   3.905   2.990
 1236SOL     OW 3716   0.428   4.148   2.382
 1236SOL    HW1 3717   0.458   4.076   2.320
 1236SOL    HW2 3718   0.389   4.108   2.465
 1237SOL     OW 3719   0.317   4.271   3.142
 1237SOL    HW1 3720   0.355   4.212   3.214
 1237SOL    HW2 3721   0.357   4.245   3.054
 1238SOL     OW 3722   1.424   3.938   2.974
 1238SOL    HW1 3723   1.476   3.873   3.029
 1238SOL    HW2 3724   1.375   4.001   3.035
 1239SOL     OW 3725   1.001   3.758   3.016
 1239SOL    HW1 3726   0.938   3.686   2.985
 1239SOL    HW2 3727   1.094   3.722   3.016
 1240SOL     OW 3728   1.352   3.776   2.030
 1240SOL    HW1 3729   1.387   3.735   1.946
 1240SOL    HW2 3730   1.262   3.738   2.050
 1241SOL     OW 3731   1.300   4.177   2.553
 1241SOL    HW1 3732   1.241   4.257   2.557
 1241SOL    HW2 3733   1.315   4.142   2.646
 1242SOL     OW 3734   1.593   3.945   2.744
 1242SOL    HW1 3735   1.509   3.944   2.798
 1242SOL    HW2 3736   1.595   4.028   2.688
 1243SOL     OW 3737   0.230   4.352   3.837
 1243SOL    HW1 3738   0.137   4.350   3.874
 1243SOL    HW2 3739   0.231   4.313   3.745
 1244SOL     OW 3740   0.019   4.092   4.371
 1244SOL    HW1 3741  -0.063   4.135   4.410
 1244SOL    HW2 3742  -0.009   4.019   4.308
 1245SOL     OW 3743   1.135   4.427   4.441
 1245SOL    HW1 3744   1.192   4.505   4.416
 1245SOL    HW2 3745   1.075   4.453   4.517
 1246SOL     OW 3746   1.755   4.331   3.955
 1246SOL    HW1 3747   1.743   4.318   3.856
 1246SOL    HW2 3748   1.725   4.250   4.004
 1247SOL     OW 3749   0.685   4.736   4.389
 1247SOL    HW1 3750   0.754   4.720   4.459
 1247SOL    HW2 3751   0.612   4.793   4.427
 1248SOL     OW 3752   1.603   4.171   4.461
 1248SOL    HW1 3753   1.529   4.217   4.411
 1248SOL    HW2 3754   1.654   4.239   4.514
 1249SOL     OW 3755   0.122   4.367   4.287
 1249SOL    HW1 3756   0.077   4.279   4.304
 1249SOL    HW2 3757   0.121   4.421   4.371
 1250SOL     OW 3758   0.809   3.728   4.226
 1250SOL    HW1 3759   0.849   3.819   4.217
 1250SOL    HW2 3760   0.709   3.736   4.232
 1251SOL     OW 3761   0.598   4.453   3.994
 1251SOL    HW1 3762   0.622   4.522   3.926
 1251SOL    HW2 3763   0.520   4.486   4.048
 1252SOL     OW 3764   1.281   4.069   4.668
 1252SOL    HW1 3765   1.195   4.019   4.655
 1252SOL    HW2 3766   1.343   4.015   4.724
 1253SOL     OW 3767   1.041   4.425   4.153
 1253SOL    HW1 3768   1.067   4.421   4.249
 1253SOL    HW2 3769   0.956   4.374   4.139
 1254SOL     OW 3770   0.076   4.535   4.513
 1254SOL    HW1 3771   0.175   4.523   4.522
 1254SOL    HW2 3772   0.052   4.630   4.534
 1255SOL     OW 3773   0.865   4.072   3.919
 1255SOL    HW1 3774   0.924   4.135   3.870
 1255SOL    HW2 3775   0.884   3.978   3.890
 1256SOL     OW 3776   0.550   3.920   4.609
 1256SOL    HW1 3777   0.545   3.915   4.709
 1256SOL    HW2 3778   0.552   4.016   4.580
 1257SOL     OW 3779   1.458   4.459   4.452
 1257SOL    HW1 3780   1.453   4.394   4.527
 1257SOL    HW2 3781   1.538   4.518   4.465
 1258SOL     OW 3782   1.400   3.831   4.150
 1258SOL    HW1 3783   1.376   3.794   4.060
 1258SOL    HW2 3784   1.499   3.847   4.154
 1259SOL     OW 3785   0.382   4.424   4.204
 1259SOL    HW1 3786   0.427   4.334   4.201
 1259SOL    HW2 3787   0.288   4.413   4.237
 1260SOL     OW 3788   0.614   3.846   3.841
 1260SOL    HW1 3789   0.712   3.824   3.848
 1260SOL    HW2 3790   0.583   3.829   3.748
 1261SOL     OW 3791   0.539   3.788   4.236
 1261SOL    HW1 3792   0.458   3.789   4.294
 1261SOL    HW2 3793   0.542   3.871   4.181
 1262SOL     OW 3794   0.297   3.759   3.895
 1262SOL    HW1 3795   0.346   3.843   3.874
 1262SOL    HW2 3796   0.359   3.694   3.940
 1263SOL     OW 3797   0.935   3.960   4.204
 1263SOL    HW1 3798   0.887   4.001   4.126
 1263SOL    HW2 3799   1.034   3.958   4.185
 1264SOL     OW 3800   0.459   4.876   4.465
 1264SOL    HW1 3801   0.388   4.849   4.530
 1264SOL    HW2 3802   0.433   4.848   4.372
 1265SOL     OW 3803   1.032   4.273   3.740
 1265SOL    HW1 3804   0.991   4.355   3.701
 1265SOL    HW2 3805   1.096   4.299   3.813
 1266SOL     OW 3806   0.866   4.178   4.366
 1266SOL    HW1 3807   0.834   4.250   4.304
 1266SOL    HW2 3808   0.890   4.097   4.313
 1267SOL     OW 3809   1.017   3.763   4.477
 1267SOL    HW1 3810   0.945   3.768   4.408
 1267SOL    HW2 3811   0.993   3.694   4.546
 1268SOL     OW 3812   1.857   4.557   4.101
 1268SOL    HW1 3813   1.899   4.493   4.165
 1268SOL    HW2 3814   1.819   4.506   4.023
 1269SOL     OW 3815   1.390   4.299   3.802
 1269SOL    HW1 3816   1.336   4.278   3.883
 1269SOL    HW2 3817   1.481   4.258   3.811
 1270SOL     OW 3818   0.527   3.980   4.052
 1270SOL    HW1 3819   0.554   3.921   3.977
 1270SOL    HW2 3820   0.527   4.075   4.021
 1271SOL     OW 3821   0.705   4.774   4.092
 1271SOL    HW1 3822   0.691   4.781   4.191
 1271SOL    HW2 3823   0.789   4.723   4.074
 1272SOL     OW 3824   0.566   4.261   4.589
 1272SOL    HW1 3825   0.578   4.327   4.515
 1272SOL    HW2 3826   0.612   4.295   4.672
 1273SOL     OW 3827   1.582   4.363   4.196
 1273SOL    HW1 3828   1.551   4.424   4.269
 1273SOL    HW2 3829   1.632   4.415   4.127
 1274SOL     OW 3830   1.209   4.249   3.999
 1274SOL    HW1 3831   1.222   4.165   4.053
 1274SOL    HW2 3832   1.180   4.323   4.059
 1275SOL     OW 3833   0.307   3.787   4.342
 1275SOL    HW1 3834   0.296   3.881   4.375
 1275SOL    HW2 3835   0.302   3.724   4.419
 1276SOL     OW 3836   1.622   4.091   4.098
 1276SOL    HW1 3837   1.624   4.015   4.162
 1276SOL    HW2 3838   1.574   4.168   4.138
 1277SOL     OW 3839   1.540   3.998   3.849
 1277SOL    HW1 3840   1.479   3.923   3.872
 1277SOL    HW2 3841   1.562   4.050   3.932
 1278SOL     OW 3842   0.815   4.296   4.049
 1278SOL    HW1 3843   0.822   4.207   4.003
 1278SOL    HW2 3844   0.721   4.330   4.041
 1279SOL     OW 3845   0.473   4.224   3.915
 1279SOL    HW1 3846   0.534   4.304   3.919
 1279SOL    HW2 3847   0.378   4.255   3.922
 1280SOL     OW 3848   1.726   3.859   4.247
 1280SOL    HW1 3849   1.799   3.842   4.180
 1280SOL    HW2 3850   1.695   3.772   4.285
 1281SOL     OW 3851   1.280   4.651   4.396
 1281SOL    HW1 3852   1.340   4.570   4.398
 1281SOL    HW2 3853   1.320   4.720   4.336
 1282SOL     OW 3854   1.841   3.899   4.687
 1282SOL    HW1 3855   1.880   3.814   4.651
 1282SOL    HW2 3856   1.743   3.901   4.668
 1283SOL     OW 3857   0.263   4.050   4.444
 1283SOL    HW1 3858   0.184   4.101   4.410
 1283SOL    HW2 3859   0.254   4.035   4.542
 1284SOL     OW 3860   0.916   4.634   4.015
 1284SOL    HW1 3861   0.979   4.672   3.947
 1284SOL    HW2 3862   0.956   4.551   4.054
 1285SOL     OW 3863   0.075   4.069   3.757
 1285SOL    HW1 3864  -0.017   4.041   3.728
 1285SOL    HW2 3865   0.106   4.146   3.701
 1286SOL     OW 3866   0.072   3.890   4.042
 1286SOL    HW1 3867   0.055   3.973   3.988
 1286SOL    HW2 3868   0.162   3.853   4.020
 1287SOL     OW 3869   1.225   4.049   4.173
 1287SOL    HW1 3870   1.290   3.975   4.162
 1287SOL    HW2 3871   1.245   4.099   4.257
 1288SOL     OW 3872   0.594   4.469   4.376
 1288SOL    HW1 3873   0.644   4.554   4.357
 1288SOL    HW2 3874   0.506   4.471   4.328
 1289SOL     OW 3875   0.428   4.148   4.244
 1289SOL    HW1 3876   0.458   4.076   4.182
 1289SOL    HW2 3877   0.389   4.108   4.327
 1290SOL     OW 3878   1.352   3.776   3.892
 1290SOL    HW1 3879   1.387   3.735   3.808
 1290SOL    HW2 3880   1.262   3.738   3.912
 1291SOL     OW 3881   1.300   4.177   4.415
 1291SOL    HW1 3882   1.241   4.257   4.419
 1291SOL    HW2 3883   1.315   4.142   4.508
 1292SOL     OW 3884   2.092   0.628   0.113
 1292SOL    HW1 3885   1.999   0.626   0.150
 1292SOL    HW2 3886   2.093   0.589   0.021
 1293SOL     OW 3887   2.087   0.275   0.996
 1293SOL    HW1 3888   2.122   0.258   1.088
 1293SOL    HW2 3889   1.999   0.230   0.984
 1294SOL     OW 3890   1.881   0.368   0.647
 1294SOL    HW1 3891   1.799   0.411   0.686
 1294SOL    HW2 3892   1.853   0.295   0.584
 1295SOL     OW 3893   2.431   1.275   1.165
 1295SOL    HW1 3894   2.338   1.268   1.128
 1295SOL    HW2 3895   2.442   1.364   1.209
 1296SOL     OW 3896   3.417   1.511   0.703
 1296SOL    HW1 3897   3.360   1.495   0.784
 1296SOL    HW2 3898   3.358   1.521   0.623
 1297SOL     OW 3899   2.997   0.703   0.717
 1297SOL    HW1 3900   3.054   0.781   0.692
 1297SOL    HW2 3901   2.937   0.729   0.793
 1298SOL     OW 3902   3.617   0.607   0.231
 1298SOL    HW1 3903   3.605   0.594   0.132
 1298SOL    HW2 3904   3.587   0.526   0.280
 1299SOL     OW 3905   2.630   1.144   1.023
 1299SOL    HW1 3906   2.552   1.161   1.083
 1299SOL    HW2 3907   2.664   1.231   0.987
 1300SOL     OW 3908   2.712   0.798   1.823
 1300SOL    HW1 3909   2.708   0.874   1.888
 1300SOL    HW2 3910   2.734   0.834   1.732
 1301SOL     OW 3911   2.547   1.012   0.665
 1301SOL    HW1 3912   2.616   0.996   0.735
 1301SOL    HW2 3913   2.474   1.069   0.703
 1302SOL     OW 3914   2.548   1.161   1.803
 1302SOL    HW1 3915   2.608   1.240   1.817
 1302SOL    HW2 3916   2.462   1.192   1.762
 1303SOL     OW 3917   2.197   1.435   1.061
 1303SOL    HW1 3918   2.119   1.404   1.008
 1303SOL    HW2 3919   2.255   1.493   1.004
 1304SOL     OW 3920   3.322   1.505   1.339
 1304SOL    HW1 3921   3.346   1.599   1.365
 1304SOL    HW2 3922   3.306   1.451   1.421
 1305SOL     OW 3923   2.300   0.392   1.499
 1305SOL    HW1 3924   2.382   0.336   1.508
 1305SOL    HW2 3925   2.219   0.334   1.503
 1306SOL     OW 3926   3.465   0.447   0.737
 1306SOL    HW1 3927   3.391   0.493   0.687
 1306SOL    HW2 3928   3.516   0.515   0.790
 1307SOL     OW 3929   2.093   1.713   0.483
 1307SOL    HW1 3930   2.127   1.790   0.537
 1307SOL    HW2 3931   2.137   1.713   0.393
 1308SOL     OW 3932   2.989   1.341   1.690
 1308SOL    HW1 3933   3.036   1.341   1.778
 1308SOL    HW2 3934   2.941   1.254   1.679
 1309SOL     OW 3935   2.092   1.434   0.538
 1309SOL    HW1 3936   2.066   1.530   0.538
 1309SOL    HW2 3937   2.021   1.380   0.583
 1310SOL     OW 3938   2.102   1.091   0.886
 1310SOL    HW1 3939   2.116   1.007   0.938
 1310SOL    HW2 3940   2.047   1.155   0.941
 1311SOL     OW 3941   2.482   1.786   1.439
 1311SOL    HW1 3942   2.390   1.769   1.474
 1311SOL    HW2 3943   2.510   1.878   1.465
 1312SOL     OW 3944   2.468   0.964   0.123
 1312SOL    HW1 3945   2.475   1.048   0.069
 1312SOL    HW2 3946   2.514   0.977   0.211
 1313SOL     OW 3947   3.456   0.114   1.480
 1313SOL    HW1 3948   3.438   0.181   1.408
 1313SOL    HW2 3949   3.453   0.160   1.569
 1314SOL     OW 3950   1.984   0.643   0.563
 1314SOL    HW1 3951   1.939   0.555   0.580
 1314SOL    HW2 3952   1.983   0.697   0.647
 1315SOL     OW 3953   3.704   1.767   0.359
 1315SOL    HW1 3954   3.758   1.738   0.439
 1315SOL    HW2 3955   3.734   1.857   0.330
 1316SOL     OW 3956   1.889   1.596   0.117
 1316SOL    HW1 3957   1.870   1.500   0.138
 1316SOL    HW2 3958   1.856   1.654   0.192
 1317SOL     OW 3959   3.551   0.922   0.612
 1317SOL    HW1 3960   3.646   0.893   0.620
 1317SOL    HW2 3961   3.543   0.987   0.537
 1318SOL     OW 3962   3.503   1.108   0.432
 1318SOL    HW1 3963   3.589   1.110   0.380
 1318SOL    HW2 3964   3.517   1.155   0.520
 1319SOL     OW 3965   1.975   0.737   1.597
 1319SOL    HW1 3966   2.063   0.724   1.642
 1319SOL    HW2 3967   1.962   0.834   1.575
 1320SOL     OW 3968   2.475   1.365   0.726
 1320SOL    HW1 3969   2.426   1.278   0.735
 1320SOL    HW2 3970   2.452   1.408   0.639
 1321SOL     OW 3971   3.155   1.228   1.423
 1321SOL    HW1 3972   3.192   1.155   1.365
 1321SOL    HW2 3973   3.207   1.233   1.508
 1322SOL     OW 3974   2.671   0.004   0.502
 1322SOL    HW1 3975   2.711   0.095   0.493
 1322SOL    HW2 3976   2.571   0.012   0.508
 1323SOL     OW 3977   2.059   0.976   1.264
 1323SOL    HW1 3978   2.148   0.931   1.250
 1323SOL    HW2 3979   1.986   0.911   1.245
 1324SOL     OW 3980   3.387   0.999   0.190
 1324SOL    HW1 3981   3.324   0.923   0.203
 1324SOL    HW2 3982   3.435   1.017   0.276
 1325SOL     OW 3983   3.049   1.792   1.616
 1325SOL    HW1 3984   3.073   1.852   1.540
 1325SOL    HW2 3985   3.056   1.697   1.586
 1326SOL     OW 3986   2.179   0.251   1.801
 1326SOL    HW1 3987   2.250   0.322   1.807
 1326SOL    HW2 3988   2.091   0.290   1.829
 1327SOL     OW 3989   3.328   1.417   0.953
 1327SOL    HW1 3990   3.269   1.423   1.033
 1327SOL    HW2 3991   3.313   1.329   0.907
 1328SOL     OW 3992   3.529   1.714   0.572
 1328SOL    HW1 3993   3.488   1.691   0.484
 1328SOL    HW2 3994   3.511   1.640   0.637
 1329SOL     OW 3995   2.460   0.729   0.270
 1329SOL    HW1 3996   2.484   0.798   0.202
 1329SOL    HW2 3997   2.382   0.762   0.324
 1330SOL     OW 3998   3.143   0.345   0.944
 1330SOL    HW1 3999   3.057   0.295   0.931
 1330SOL    HW2 4000   3.205   0.291   1.000
 1331SOL     OW 4001   3.438   1.662   0.307
 1331SOL    HW1 4002   3.527   1.708   0.310
 1331SOL    HW2 4003   3.417   1.638   0.212
 1332SOL     OW 4004   2.669   0.605   1.465
 1332SOL    HW1 4005   2.622   0.602   1.554
 1332SOL    HW2 4006   2.618   0.550   1.399
 1333SOL     OW 4007   3.256   0.469   1.674
 1333SOL    HW1 4008   3.236   0.512   1.762
 1333SOL    HW2 4009   3.334   0.407   1.683
 1334SOL     OW 4010   2.835   0.890   1.572
 1334SOL    HW1 4011   2.881   0.806   1.543
 1334SOL    HW2 4012   2.779   0.924   1.497
 1335SOL     OW 4013   2.853   0.410   1.242
 1335SOL    HW1 4014   2.776   0.444   1.296
 1335SOL    HW2 4015   2.819   0.359   1.163
 1336SOL     OW 4016   2.903   0.701   0.429
 1336SOL    HW1 4017   2.929   0.697   0.525
 1336SOL    HW2 4018   2.818   0.650   0.415
 1337SOL     OW 4019   1.938   0.811   0.789
 1337SOL    HW1 4020   2.037   0.799   0.798
 1337SOL    HW2 4021   1.914   0.906   0.810
 1338SOL     OW 4022   1.992   1.821   1.571
 1338SOL    HW1 4023   1.982   1.806   1.670
 1338SOL    HW2 4024   1.906   1.857   1.535
 1339SOL     OW 4025   2.727   0.348   0.195
 1339SOL    HW1 4026   2.786   0.411   0.146
 1339SOL    HW2 4027   2.746   0.254   0.166
 1340SOL     OW 4028   3.581   0.585   1.831
 1340SOL    HW1 4029   3.555   0.674   1.795
 1340SOL    HW2 4030   3.579   0.517   1.758
 1341SOL     OW 4031   3.224   1.144   0.545
 1341SOL    HW1 4032   3.307   1.115   0.497
 1341SOL    HW2 4033   3.175   1.211   0.489
 1342SOL     OW 4034   2.412   0.196   0.885
 1342SOL    HW1 4035   2.407   0.191   0.985
 1342SOL    HW2 4036   2.414   0.292   0.856
 1343SOL     OW 4037   2.870   1.456   0.477
 1343SOL    HW1 4038   2.824   1.528   0.425
 1343SOL    HW2 4039   2.866   1.476   0.575
 1344SOL     OW 4040   2.213   1.801   0.853
 1344SOL    HW1 4041   2.263   1.715   0.859
 1344SOL    HW2 4042   2.278   1.878   0.850
 1345SOL     OW 4043   3.657   1.066   0.873
 1345SOL    HW1 4044   3.595   1.051   0.797
 1345SOL    HW2 4045   3.605   1.077   0.958
 1346SOL     OW 4046   3.089   1.550   1.506
 1346SOL    HW1 4047   3.095   1.473   1.570
 1346SOL    HW2 4048   3.037   1.524   1.426
 1347SOL     OW 4049   2.183   0.943   0.242
 1347SOL    HW1 4050   2.265   0.982   0.200
 1347SOL    HW2 4051   2.156   0.861   0.193
 1348SOL     OW 4052   3.320   0.735   0.728
 1348SOL    HW1 4053   3.315   0.670   0.803
 1348SOL    HW2 4054   3.400   0.794   0.741
 1349SOL     OW 4055   2.323   1.266   1.727
 1349SOL    HW1 4056   2.273   1.267   1.641
 1349SOL    HW2 4057   2.260   1.248   1.803
 1350SOL     OW 4058   2.973   1.776   0.237
 1350SOL    HW1 4059   2.913   1.714   0.287
 1350SOL    HW2 4060   3.004   1.732   0.152
 1351SOL     OW 4061   2.064   0.285   1.498
 1351SOL    HW1 4062   1.984   0.345   1.485
 1351SOL    HW2 4063   2.054   0.236   1.584
 1352SOL     OW 4064   3.494   1.377   0.081
 1352SOL    HW1 4065   3.462   1.471   0.071
 1352SOL    HW2 4066   3.418   1.314   0.069
 1353SOL     OW 4067   2.326   1.743   0.323
 1353SOL    HW1 4068   2.359   1.782   0.409
 1353SOL    HW2 4069   2.402   1.736   0.258
 1354SOL     OW 4070   3.262   0.107   0.426
 1354SOL    HW1 4071   3.238   0.070   0.336
 1354SOL    HW2 4072   3.361   0.123   0.430
 1355SOL     OW 4073   2.111   1.785   1.241
 1355SOL    HW1 4074   2.168   1.720   1.291
 1355SOL    HW2 4075   2.095   1.752   1.148
 1356SOL     OW 4076   2.802   1.698   0.904
 1356SOL    HW1 4077   2.882   1.641   0.925
 1356SOL    HW2 4078   2.753   1.658   0.827
 1357SOL     OW 4079   2.244   0.700   0.480
 1357SOL    HW1 4080   2.289   0.610   0.477
 1357SOL    HW2 4081   2.150   0.689   0.513
 1358SOL     OW 4082   3.409   0.222   1.729
 1358SOL    HW1 4083   3.404   0.259   1.821
 1358SOL    HW2 4084   3.337   0.153   1.717
 1359SOL     OW 4085   2.476   0.122   0.117
 1359SOL    HW1 4086   2.574   0.100   0.124
 1359SOL    HW2 4087   2.445   0.105   0.024
 1360SOL     OW 4088   2.643   0.264   1.749
 1360SOL    HW1 4089   2.710   0.203   1.792
 1360SOL    HW2 4090   2.570   0.283   1.814
 1361SOL     OW 4091   2.750   1.514   1.195
 1361SOL    HW1 4092   2.727   1.489   1.101
 1361SOL    HW2 4093   2.811   1.445   1.234
 1362SOL     OW 4094   3.213   0.590   1.433
 1362SOL    HW1 4095   3.241   0.547   1.518
 1362SOL    HW2 4096   3.238   0.686   1.434
 1363SOL     OW 4097   2.665   1.402   0.924
 1363SOL    HW1 4098   2.755   1.416   0.882
 1363SOL    HW2 4099   2.594   1.404   0.853
 1364SOL     OW 4100   2.784   0.503   0.899
 1364SOL    HW1 4101   2.759   0.494   0.803
 1364SOL    HW2 4102   2.832   0.421   0.930
 1365SOL     OW 4103   2.401   0.064   0.512
 1365SOL    HW1 4104   2.320   0.065   0.570
 1365SOL    HW2 4105   2.404   0.147   0.457
 1366SOL     OW 4106   3.296   1.188   0.041
 1366SOL    HW1 4107   3.328   1.112   0.098
 1366SOL    HW2 4108   3.204   1.215   0.071
 1367SOL     OW 4109   2.159   0.035   0.171
 1367SOL    HW1 4110   2.208   0.119   0.150
 1367SOL    HW2 4111   2.221  -0.030   0.216
 1368SOL     OW 4112   2.797   0.236   0.480
 1368SOL    HW1 4113   2.749   0.277   0.402
 1368SOL    HW2 4114   2.896   0.234   0.461
 1369SOL     OW 4115   2.938   0.683   1.464
 1369SOL    HW1 4116   2.858   0.622   1.467
 1369SOL    HW2 4117   3.019   0.630   1.440
 1370SOL     OW 4118   3.089   1.570   0.793
 1370SOL    HW1 4119   3.110   1.644   0.728
 1370SOL    HW2 4120   3.157   1.570   0.866
 1371SOL     OW 4121   2.321   1.152   0.741
 1371SOL    HW1 4122   2.250   1.125   0.806
 1371SOL    HW2 4123   2.295   1.124   0.648
 1372SOL     OW 4124   3.133   1.797   0.591
 1372SOL    HW1 4125   3.177   1.861   0.527
 1372SOL    HW2 4126   3.083   1.849   0.661
 1373SOL     OW 4127   2.894   0.549   0.016
 1373SOL    HW1 4128   2.853   0.631  -0.023
 1373SOL    HW2 4129   2.958   0.575   0.089
 1374SOL     OW 4130   1.940   0.556   1.386
 1374SOL    HW1 4131   2.032   0.555   1.345
 1374SOL    HW2 4132   1.934   0.630   1.453
 1375SOL     OW 4133   2.423   0.222   1.147
 1375SOL    HW1 4134   2.461   0.138   1.184
 1375SOL    HW2 4135   2.335   0.241   1.191
 1376SOL     OW 4136   2.728   0.454   0.642
 1376SOL    HW1 4137   2.696   0.526   0.580
 1376SOL    HW2 4138   2.752   0.373   0.589
 1377SOL     OW 4139   2.879   0.039   0.753
 1377SOL    HW1 4140   2.807   0.044   0.684
 1377SOL    HW2 4141   2.855  -0.030   0.822
 1378SOL     OW 4142   3.291   1.173   0.867
 1378SOL    HW1 4143   3.236   1.089   0.860
 1378SOL    HW2 4144   3.317   1.202   0.775
 1379SOL     OW 4145   3.328   0.590   0.992
 1379SOL    HW1 4146   3.298   0.495   0.999
 1379SOL    HW2 4147   3.401   0.606   1.058
 1380SOL     OW 4148   3.719   0.833   0.377
 1380SOL    HW1 4149   3.761   0.769   0.441
 1380SOL    HW2 4150   3.681   0.782   0.299
 1381SOL     OW 4151   2.350   1.385   0.174
 1381SOL    HW1 4152   2.263   1.370   0.221
 1381SOL    HW2 4153   2.333   1.411   0.079
 1382SOL     OW 4154   3.526   1.280   0.657
 1382SOL    HW1 4155   3.625   1.288   0.671
 1382SOL    HW2 4156   3.481   1.364   0.688
 1383SOL     OW 4157   3.252   0.575   0.078
 1383SOL    HW1 4158   3.198   0.554   0.159
 1383SOL    HW2 4159   3.343   0.534   0.087
 1384SOL     OW 4160   2.389   0.256   0.328
 1384SOL    HW1 4161   2.416   0.197   0.253
 1384SOL    HW2 4162   2.389   0.351   0.297
 1385SOL     OW 4163   3.616   1.223   1.588
 1385SOL    HW1 4164   3.707   1.184   1.575
 1385SOL    HW2 4165   3.624   1.319   1.612
 1386SOL     OW 4166   2.926   1.347   1.340
 1386SOL    HW1 4167   2.846   1.324   1.395
 1386SOL    HW2 4168   3.009   1.321   1.389
 1387SOL     OW 4169   3.454   1.629   1.625
 1387SOL    HW1 4170   3.481   1.663   1.535
 1387SOL    HW2 4171   3.533   1.591   1.671
 1388SOL     OW 4172   2.973   1.195   1.100
 1388SOL    HW1 4173   2.933   1.239   1.181
 1388SOL    HW2 4174   2.932   1.232   1.017
 1389SOL     OW 4175   3.500   1.099   1.079
 1389SOL    HW1 4176   3.505   1.180   1.138
 1389SOL    HW2 4177   3.414   1.101   1.028
 1390SOL     OW 4178   2.777   0.089   1.402
 1390SOL    HW1 4179   2.802   0.069   1.307
 1390SOL    HW2 4180   2.849   0.145   1.444
 1391SOL     OW 4181   2.842   1.116   1.719
 1391SOL    HW1 4182   2.743   1.122   1.729
 1391SOL    HW2 4183   2.865   1.036   1.663
 1392SOL     OW 4184   2.567   1.050   0.368
 1392SOL    HW1 4185   2.553   1.057   0.467
 1392SOL    HW2 4186   2.651   0.999   0.350
 1393SOL     OW 4187   2.272   0.813   1.251
 1393SOL    HW1 4188   2.358   0.825   1.301
 1393SOL    HW2 4189   2.230   0.726   1.278
 1394SOL     OW 4190   3.136   0.386   1.262
 1394SOL    HW1 4191   3.157   0.460   1.326
 1394SOL    HW2 4192   3.047   0.403   1.219
 1395SOL     OW 4193   1.926   1.564   1.331
 1395SOL    HW1 4194   1.880   1.646   1.297
 1395SOL    HW2 4195   2.024   1.583   1.340
 1396SOL     OW 4196   2.229   1.100   0.501
 1396SOL    HW1 4197   2.222   1.183   0.445
 1396SOL    HW2 4198   2.233   1.020   0.441
 1397SOL     OW 4199   2.428   0.537   0.865
 1397SOL    HW1 4200   2.440   0.603   0.791
 1397SOL    HW2 4201   2.474   0.571   0.948
 1398SOL     OW 4202   3.114   1.348   0.388
 1398SOL    HW1 4203   3.164   1.425   0.428
 1398SOL    HW2 4204   3.019   1.350   0.420
 1399SOL     OW 4205   3.134   1.445   1.142
 1399SOL    HW1 4206   3.181   1.458   1.229
 1399SOL    HW2 4207   3.068   1.371   1.151
 1400SOL     OW 4208   3.444   0.639   0.472
 1400SOL    HW1 4209   3.413   0.700   0.545
 1400SOL    HW2 4210   3.494   0.691   0.403
 1401SOL     OW 4211   2.216   1.510   1.329
 1401SOL    HW1 4212   2.195   1.466   1.242
 1401SOL    HW2 4213   2.313   1.536   1.332
 1402SOL     OW 4214   2.264   0.751   1.598
 1402SOL    HW1 4215   2.332   0.806   1.551
 1402SOL    HW2 4216   2.304   0.663   1.625
 1403SOL     OW 4217   3.449   0.779   1.670
 1403SOL    HW1 4218   3.357   0.817   1.665
 1403SOL    HW2 4219   3.509   0.826   1.605
 1404SOL     OW 4220   2.875   0.105   1.770
 1404SOL    HW1 4221   2.881   0.190   1.718
 1404SOL    HW2 4222   2.907   0.029   1.713
 1405SOL     OW 4223   2.366   0.050   1.740
 1405SOL    HW1 4224   2.324  -0.007   1.670
 1405SOL    HW2 4225   2.300   0.119   1.772
 1406SOL     OW 4226   2.435   0.870   1.029
 1406SOL    HW1 4227   2.479   0.959   1.020
 1406SOL    HW2 4228   2.372   0.870   1.106
 1407SOL     OW 4229   3.222   0.862   1.045
 1407SOL    HW1 4230   3.147   0.862   0.979
 1407SOL    HW2 4231   3.259   0.770   1.054
 1408SOL     OW 4232   3.071   0.525   0.275
 1408SOL    HW1 4233   3.084   0.441   0.329
 1408SOL    HW2 4234   3.042   0.599   0.335
 1409SOL     OW 4235   2.169   0.213   1.231
 1409SOL    HW1 4236   2.146   0.250   1.321
 1409SOL    HW2 4237   2.139   0.118   1.225
 1410SOL     OW 4238   1.899   1.310   1.282
 1410SOL    HW1 4239   1.952   1.261   1.350
 1410SOL    HW2 4240   1.921   1.408   1.287
 1411SOL     OW 4241   2.594   0.634   1.064
 1411SOL    HW1 4242   2.653   0.608   0.988
 1411SOL    HW2 4243   2.566   0.730   1.053
 1412SOL     OW 4244   3.590   0.935   1.854
 1412SOL    HW1 4245   3.544   0.928   1.765
 1412SOL    HW2 4246   3.528   0.979   1.920
 1413SOL     OW 4247   2.169   0.063   0.618
 1413SOL    HW1 4248   2.158   0.157   0.651
 1413SOL    HW2 4249   2.164   0.000   0.695
 1414SOL     OW 4250   3.484   0.367   0.374
 1414SOL    HW1 4251   3.486   0.291   0.438
 1414SOL    HW2 4252   3.436   0.444   0.414
 1415SOL     OW 4253   2.885   0.766   0.966
 1415SOL    HW1 4254   2.900   0.787   1.062
 1415SOL    HW2 4255   2.855   0.671   0.957
 1416SOL     OW 4256   2.842   1.573   1.700
 1416SOL    HW1 4257   2.822   1.617   1.612
 1416SOL    HW2 4258   2.881   1.482   1.684
 1417SOL     OW 4259   3.721   1.518   1.605
 1417SOL    HW1 4260   3.735   1.545   1.510
 1417SOL    HW2 4261   3.804   1.540   1.658
 1418SOL     OW 4262   2.212   0.898   1.804
 1418SOL    HW1 4263   2.288   0.942   1.852
 1418SOL    HW2 4264   2.247   0.851   1.722
 1419SOL     OW 4265   3.402   0.274   0.125
 1419SOL    HW1 4266   3.341   0.199   0.148
 1419SOL    HW2 4267   3.424   0.326   0.208
 1420SOL     OW 4268   3.165   0.838   0.042
 1420SOL    HW1 4269   3.199   0.745   0.057
 1420SOL    HW2 4270   3.183   0.865  -0.053
 1421SOL     OW 4271   2.930   1.333   0.849
 1421SOL    HW1 4272   2.937   1.249   0.794
 1421SOL    HW2 4273   2.992   1.402   0.813
 1422SOL     OW 4274   2.181   0.810   0.949
 1422SOL    HW1 4275   2.274   0.846   0.954
 1422SOL    HW2 4276   2.175   0.725   1.001
 1423SOL     OW 4277   2.201   0.509   1.006
 1423SOL    HW1 4278   2.149   0.426   0.989
 1423SOL    HW2 4279   2.278   0.514   0.942
 1424SOL     OW 4280   3.000   0.380   1.678
 1424SOL    HW1 4281   2.955   0.443   1.742
 1424SOL    HW2 4282   3.093   0.411   1.661
 1425SOL     OW 4283   3.022   0.207   1.477
 1425SOL    HW1 4284   3.022   0.271   1.554
 1425SOL    HW2 4285   3.050   0.255   1.394
 1426SOL     OW 4286   1.870   1.326   0.200
 1426SOL    HW1 4287   1.777   1.347   0.169
 1426SOL    HW2 4288   1.880   1.227   0.213
 1427SOL     OW 4289   1.950   1.801   0.927
 1427SOL    HW1 4290   1.908   1.715   0.900
 1427SOL    HW2 4291   2.044   1.804   0.893
 1428SOL     OW 4292   2.366   1.568   0.910
 1428SOL    HW1 4293   2.432   1.642   0.919
 1428SOL    HW2 4294   2.410   1.489   0.868
 1429SOL     OW 4295   2.864   0.796   1.238
 1429SOL    HW1 4296   2.905   0.764   1.324
 1429SOL    HW2 4297   2.768   0.769   1.235
 1430SOL     OW 4298   1.902   0.544   1.114
 1430SOL    HW1 4299   1.987   0.511   1.073
 1430SOL    HW2 4300   1.915   0.559   1.212
 1431SOL     OW 4301   2.051   0.520   1.722
 1431SOL    HW1 4302   2.110   0.480   1.652
 1431SOL    HW2 4303   1.993   0.591   1.681
 1432SOL     OW 4304   3.231   0.950   1.660
 1432SOL    HW1 4305   3.270   1.039   1.680
 1432SOL    HW2 4306   3.241   0.930   1.563
 1433SOL     OW 4307   2.677   0.572   0.325
 1433SOL    HW1 4308   2.684   0.483   0.279
 1433SOL    HW2 4309   2.583   0.606   0.317
 1434SOL     OW 4310   3.519   0.604   1.206
 1434SOL    HW1 4311   3.481   0.535   1.268
 1434SOL    HW2 4312   3.601   0.568   1.162
 1435SOL     OW 4313   2.114   1.564   1.744
 1435SOL    HW1 4314   2.084   1.621   1.820
 1435SOL    HW2 4315   2.107   1.467   1.770
 1436SOL     OW 4316   2.533   0.464   1.269
 1436SOL    HW1 4317   2.499   0.375   1.239
 1436SOL    HW2 4318   2.559   0.518   1.189
 1437SOL     OW 4319   2.792   1.678   1.465
 1437SOL    HW1 4320   2.768   1.660   1.370
 1437SOL    HW2 4321   2.822   1.772   1.475
 1438SOL     OW 4322   2.335   0.500   0.191
 1438SOL    HW1 4323   2.396   0.580   0.195
 1438SOL    HW2 4324   2.240   0.531   0.198
 1439SOL     OW 4325   2.021   1.137   1.466
 1439SOL    HW1 4326   2.043   1.076   1.542
 1439SOL    HW2 4327   2.031   1.088   1.380
 1440SOL     OW 4328   3.209   1.059   1.234
 1440SOL    HW1 4329   3.233   0.996   1.160
 1440SOL    HW2 4330   3.119   1.099   1.216
 1441SOL     OW 4331   3.164   0.855   0.309
 1441SOL    HW1 4332   3.078   0.824   0.351
 1441SOL    HW2 4333   3.160   0.841   0.210
 1442SOL     OW 4334   3.621   1.747   1.154
 1442SOL    HW1 4335   3.682   1.777   1.081
 1442SOL    HW2 4336   3.583   1.658   1.132
 1443SOL     OW 4337   3.114   1.731   1.128
 1443SOL    HW1 4338   3.198   1.736   1.074
 1443SOL    HW2 4339   3.091   1.635   1.146
 1444SOL     OW 4340   1.945   1.258   1.022
 1444SOL    HW1 4341   1.940   1.257   1.122
 1444SOL    HW2 4342   1.862   1.217   0.984
 1445SOL     OW 4343   2.550   1.662   1.716
 1445SOL    HW1 4344   2.494   1.743   1.725
 1445SOL    HW2 4345   2.602   1.666   1.630
 1446SOL     OW 4346   2.765   0.086   0.133
 1446SOL    HW1 4347   2.816   0.087   0.047
 1446SOL    HW2 4348   2.821   0.044   0.204
 1447SOL     OW 4349   3.588   0.135   0.523
 1447SOL    HW1 4350   3.661   0.118   0.456
 1447SOL    HW2 4351   3.557   0.048   0.561
 1448SOL     OW 4352   3.250   1.573   0.477
 1448SOL    HW1 4353   3.317   1.585   0.403
 1448SOL    HW2 4354   3.210   1.662   0.500
 1449SOL     OW 4355   1.992   1.794   1.851
 1449SOL    HW1 4356   1.951   1.720   1.904
 1449SOL    HW2 4357   2.056   1.845   1.909
 1450SOL     OW 4358   3.142   0.927   0.672
 1450SOL    HW1 4359   3.202   0.846   0.674
 1450SOL    HW2 4360   3.182   0.996   0.612
 1451SOL     OW 4361   2.692   1.273   1.422
 1451SOL    HW1 4362   2.687   1.306   1.517
 1451SOL    HW2 4363   2.606   1.292   1.376
 1452SOL     OW 4364   2.534   1.616   0.154
 1452SOL    HW1 4365   2.543   1.626   0.055
 1452SOL    HW2 4366   2.494   1.527   0.175
 1453SOL     OW 4367   3.512   1.720   1.394
 1453SOL    HW1 4368   3.565   1.730   1.310
 1453SOL    HW2 4369   3.485   1.810   1.428
 1454SOL     OW 4370   3.703   0.175   0.963
 1454SOL    HW1 4371   3.742   0.090   0.927
 1454SOL    HW2 4372   3.605   0.177   0.944
 1455SOL     OW 4373   2.125   0.326   0.720
 1455SOL    HW1 4374   2.046   0.377   0.686
 1455SOL    HW2 4375   2.116   0.311   0.818
 1456SOL     OW 4376   3.056   1.612   0.031
 1456SOL    HW1 4377   3.062   1.519   0.068
 1456SOL    HW2 4378   2.997   1.612  -0.049
 1457SOL     OW 4379   2.684   1.002   1.372
 1457SOL    HW1 4380   2.724   1.001   1.280
 1457SOL    HW2 4381   2.694   1.094   1.412
 1458SOL     OW 4382   2.778   0.910   0.291
 1458SOL    HW1 4383   2.841   0.948   0.223
 1458SOL    HW2 4384   2.818   0.827   0.330
 1459SOL     OW 4385   3.366   1.607   0.044
 1459SOL    HW1 4386   3.274   1.644   0.051
 1459SOL    HW2 4387   3.404   1.627  -0.046
 1460SOL     OW 4388   2.234   1.288   1.490
 1460SOL    HW1 4389   2.221   1.381   1.456
 1460SOL    HW2 4390   2.150   1.236   1.477
 1461SOL     OW 4391   3.476   1.292   1.289
 1461SOL    HW1 4392   3.536   1.295   1.369
 1461SOL    HW2 4393   3.401   1.356   1.302
 1462SOL     OW 4394   2.901   1.098   0.696
 1462SOL    HW1 4395   2.831   1.051   0.750
 1462SOL    HW2 4396   2.960   1.030   0.653
 1463SOL     OW 4397   2.876   0.236   0.971
 1463SOL    HW1 4398   2.868   0.200   0.878
 1463SOL    HW2 4399   2.874   0.160   1.036
 1464SOL     OW 4400   2.452   1.487   0.491
 1464SOL    HW1 4401   2.494   1.429   0.421
 1464SOL    HW2 4402   2.408   1.566   0.447
 1465SOL     OW 4403   3.571   0.385   1.381
 1465SOL    HW1 4404   3.644   0.454   1.385
 1465SOL    HW2 4405   3.599   0.310   1.322
 1466SOL     OW 4406   2.117   1.348   0.290
 1466SOL    HW1 4407   2.021   1.349   0.263
 1466SOL    HW2 4408   2.129   1.401   0.374
 1467SOL     OW 4409   1.967   1.013   1.726
 1467SOL    HW1 4410   1.890   0.980   1.780
 1467SOL    HW2 4411   2.052   0.983   1.768
 1468SOL     OW 4412   2.534   0.203   1.489
 1468SOL    HW1 4413   2.624   0.187   1.449
 1468SOL    HW2 4414   2.542   0.208   1.588
 1469SOL     OW 4415   1.937   0.345   0.033
 1469SOL    HW1 4416   1.845   0.317   0.004
 1469SOL    HW2 4417   1.968   0.422  -0.023
 1470SOL     OW 4418   3.302   0.856   1.398
 1470SOL    HW1 4419   3.245   0.908   1.335
 1470SOL    HW2 4420   3.398   0.868   1.374
 1471SOL     OW 4421   1.934   0.166   0.318
 1471SOL    HW1 4422   1.917   0.249   0.264
 1471SOL    HW2 4423   2.024   0.129   0.296
 1472SOL     OW 4424   3.045   1.335   0.119
 1472SOL    HW1 4425   2.946   1.324   0.121
 1472SOL    HW2 4426   3.079   1.350   0.212
 1473SOL     OW 4427   2.475   0.842   1.431
 1473SOL    HW1 4428   2.531   0.923   1.414
 1473SOL    HW2 4429   2.534   0.762   1.434
 1474SOL     OW 4430   3.355   1.767   0.959
 1474SOL    HW1 4431   3.388   1.831   0.890
 1474SOL    HW2 4432   3.421   1.761   1.034
 1475SOL     OW 4433   2.578   0.565   1.708
 1475SOL    HW1 4434   2.597   0.630   1.782
 1475SOL    HW2 4435   2.638   0.485   1.717
 1476SOL     OW 4436   3.312   1.220   1.633
 1476SOL    HW1 4437   3.303   1.210   1.732
 1476SOL    HW2 4438   3.408   1.213   1.607
 1477SOL     OW 4439   2.252   1.741   1.560
 1477SOL    HW1 4440   2.161   1.782   1.558
 1477SOL    HW2 4441   2.245   1.647   1.592
 1478SOL     OW 4442   3.536   0.883   1.254
 1478SOL    HW1 4443   3.509   0.794   1.217
 1478SOL    HW2 4444   3.537   0.951   1.181
 1479SOL     OW 4445   3.087   0.325   0.449
 1479SOL    HW1 4446   3.152   0.251   0.438
 1479SOL    HW2 4447   3.107   0.375   0.533
 1480SOL     OW 4448   2.456   0.745   0.652
 1480SOL    HW1 4449   2.506   0.830   0.633
 1480SOL    HW2 4450   2.368   0.747   0.604
 1481SOL     OW 4451   3.639   0.342   1.642
 1481SOL    HW1 4452   3.622   0.373   1.548
 1481SOL    HW2 4453   3.555   0.305   1.680
 1482SOL     OW 4454   3.592   0.934   1.517
 1482SOL    HW1 4455   3.630   1.025   1.532
 1482SOL    HW2 4456   3.584   0.917   1.418
 1483SOL     OW 4457   2.721   1.374   0.016
 1483SOL    HW1 4458   2.675   1.389   0.104
 1483SOL    HW2 4459   2.765   1.459  -0.014
 1484SOL     OW 4460   2.523   1.790   0.953
 1484SOL    HW1 4461   2.477   1.878   0.940
 1484SOL    HW2 4462   2.622   1.802   0.946
 1485SOL     OW 4463   2.721   0.956   0.861
 1485SOL    HW1 4464   2.775   0.887   0.909
 1485SOL    HW2 4465   2.689   1.025   0.927
 1486SOL     OW 4466   2.945   0.984   0.087
 1486SOL    HW1 4467   2.922   1.037   0.005
 1486SOL    HW2 4468   3.026   0.928   0.068
 1487SOL     OW 4469   3.723   1.569   0.851
 1487SOL    HW1 4470   3.652   1.557   0.781
 1487SOL    HW2 4471   3.724   1.490   0.911
 1488SOL     OW 4472   2.083   1.314   1.844
 1488SOL    HW1 4473   2.018   1.241   1.823
 1488SOL    HW2 4474   2.087   1.328   1.942
 1489SOL     OW 4475   1.941   1.240   0.653
 1489SOL    HW1 4476   1.940   1.193   0.741
 1489SOL    HW2 4477   2.023   1.212   0.602
 1490SOL     OW 4478   2.534   1.391   1.624
 1490SOL    HW1 4479   2.456   1.341   1.662
 1490SOL    HW2 4480   2.531   1.486   1.655
 1491SOL     OW 4481   3.686   0.192   1.227
 1491SOL    HW1 4482   3.682   0.102   1.271
 1491SOL    HW2 4483   3.689   0.181   1.128
 1492SOL     OW 4484   2.290   0.424   0.520
 1492SOL    HW1 4485   2.320   0.352   0.458
 1492SOL    HW2 4486   2.251   0.384   0.603
 1493SOL     OW 4487   3.567   1.487   1.104
 1493SOL    HW1 4488   3.474   1.462   1.077
 1493SOL    HW2 4489   3.593   1.437   1.186
 1494SOL     OW 4490   2.179   0.547   1.280
 1494SOL    HW1 4491   2.217   0.488   1.352
 1494SOL    HW2 4492   2.219   0.521   1.192
 1495SOL     OW 4493   2.674   1.586   0.687
 1495SOL    HW1 4494   2.706   1.596   0.593
 1495SOL    HW2 4495   2.595   1.524   0.689
 1496SOL     OW 4496   3.286   0.214   1.112
 1496SOL    HW1 4497   3.338   0.149   1.167
 1496SOL    HW2 4498   3.237   0.277   1.173
 1497SOL     OW 4499   2.863   0.034   1.154
 1497SOL    HW1 4500   2.800  -0.038   1.123
 1497SOL    HW2 4501   2.956  -0.002   1.154
 1498SOL     OW 4502   2.632   1.330   0.301
 1498SOL    HW1 4503   2.586   1.243   0.318
 1498SOL    HW2 4504   2.723   1.327   0.342
 1499SOL     OW 4505   2.480   1.567   1.284
 1499SOL    HW1 4506   2.475   1.649   1.341
 1499SOL    HW2 4507   2.569   1.564   1.239
 1500SOL     OW 4508   3.214   0.052   0.168
 1500SOL    HW1 4509   3.249   0.011   0.084
 1500SOL    HW2 4510   3.124   0.014   0.188
 1501SOL     OW 4511   3.162   0.453   0.691
 1501SOL    HW1 4512   3.103   0.533   0.695
 1501SOL    HW2 4513   3.177   0.418   0.784
 1502SOL     OW 4514   3.455   0.221   0.882
 1502SOL    HW1 4515   3.371   0.220   0.936
 1502SOL    HW2 4516   3.457   0.304   0.826
 1503SOL     OW 4517   1.901   1.077   0.300
 1503SOL    HW1 4518   2.000   1.066   0.291
 1503SOL    HW2 4519   1.861   0.991   0.332
 1504SOL     OW 4520   2.737   1.646   0.337
 1504SOL    HW1 4521   2.660   1.611   0.283
 1504SOL    HW2 4522   2.705   1.717   0.399
 1505SOL     OW 4523   2.092   0.628   1.975
 1505SOL    HW1 4524   1.999   0.626   2.012
 1505SOL    HW2 4525   2.093   0.589   1.883
 1506SOL     OW 4526   2.087   0.275   2.858
 1506SOL    HW1 4527   2.122   0.258   2.950
 1506SOL    HW2 4528   1.999   0.230   2.846
 1507SOL     OW 4529   1.881   0.368   2.509
 1507SOL    HW1 4530   1.799   0.411   2.548
 1507SOL    HW2 4531   1.853   0.295   2.446
 1508SOL     OW 4532   2.431   1.275   3.027
 1508SOL    HW1 4533   2.338   1.268   2.990
 1508SOL    HW2 4534   2.442   1.364   3.071
 1509SOL     OW 4535   3.417   1.511   2.565
 1509SOL    HW1 4536   3.360   1.495   2.646
 1509SOL    HW2 4537   3.358   1.521   2.485
 1510SOL     OW 4538   2.997   0.703   2.579
 1510SOL    HW1 4539   3.054   0.781   2.554
 1510SOL    HW2 4540   2.937   0.729   2.655
 1511SOL     OW 4541   3.617   0.607   2.093
 1511SOL    HW1 4542   3.605   0.594   1.994
 1511SOL    HW2 4543   3.587   0.526   2.142
 1512SOL     OW 4544   2.630   1.144   2.885
 1512SOL    HW1 4545   2.552   1.161   2.945
 1512SOL    HW2 4546   2.664   1.231   2.849
 1513SOL     OW 4547   2.712   0.798   3.685
 1513SOL    HW1 4548   2.708   0.874   3.750
 1513SOL    HW2 4549   2.734   0.834   3.594
 1514SOL     OW 4550   2.547   1.012   2.527
 1514SOL    HW1 4551   2.616   0.996   2.597
 1514SOL    HW2 4552   2.474   1.069   2.565
 1515SOL     OW 4553   2.548   1.161   3.665
 1515SOL    HW1 4554   2.608   1.240   3.679
 1515SOL    HW2 4555   2.462   1.192   3.624
 1516SOL     OW 4556   2.197   1.435   2.923
 1516SOL    HW1 4557   2.119   1.404   2.870
 1516SOL    HW2 4558   2.255   1.493   2.866
 1517SOL     OW 4559   3.322   1.505   3.201
 1517SOL    HW1 4560   3.346   1.599   3.227
 1517SOL    HW2 4561   3.306   1.451   3.283
 1518SOL     OW 4562   2.300   0.392   3.361
 1518SOL    HW1 4563   2.382   0.336   3.370
 1518SOL    HW2 4564   2.219   0.334   3.365
 1519SOL     OW 4565   3.465   0.447   2.599
 1519SOL    HW1 4566   3.391   0.493   2.549
 1519SOL    HW2 4567   3.516   0.515   2.652
 1520SOL     OW 4568   2.093   1.713   2.345
 1520SOL    HW1 4569   2.127   1.790   2.399
 1520SOL    HW2 4570   2.137   1.713   2.255
 1521SOL     OW 4571   2.989   1.341   3.552
 1521SOL    HW1 4572   3.036   1.341   3.640
 1521SOL    HW2 4573   2.941   1.254   3.541
 1522SOL     OW 4574   2.092   1.434   2.400
 1522SOL    HW1 4575   2.066   1.530   2.400
 1522SOL    HW2 4576   2.021   1.380   2.445
 1523SOL     OW 4577   2.102   1.091   2.748
 1523SOL    HW1 4578   2.116   1.007   2.800
 1523SOL    HW2 4579   2.047   1.155   2.803
 1524SOL     OW 4580   2.482   1.786   3.301
 1524SOL    HW1 4581   2.390   1.769   3.336
 1524SOL    HW2 4582   2.510   1.878   3.327
 1525SOL     OW 4583   2.468   0.964   1.985
 1525SOL    HW1 4584   2.475   1.048   1.931
 1525SOL    HW2 4585   2.514   0.977   2.073
 1526SOL     OW 4586   3.456   0.114   3.342
 1526SOL    HW1 4587   3.438   0.181   3.270
 1526SOL    HW2 4588   3.453   0.160   3.431
 1527SOL     OW 4589   1.984   0.643   2.425
 1527SOL    HW1 4590   1.939   0.555   2.442
 1527SOL    HW2 4591   1.983   0.697   2.509
 1528SOL     OW 4592   3.704   1.767   2.221
 1528SOL    HW1 4593   3.758   1.738   2.301
 1528SOL    HW2 4594   3.734   1.857   2.192
 1529SOL     OW 4595   1.889   1.596   1.979
 1529SOL    HW1 4596   1.870   1.500   2.000
 1529SOL    HW2 4597   1.856   1.654   2.054
 1530SOL     OW 4598   3.551   0.922   2.474
 1530SOL    HW1 4599   3.646   0.893   2.482
 1530SOL    HW2 4600   3.543   0.987   2.399
 1531SOL     OW 4601   3.503   1.108   2.294
 1531SOL    HW1 4602   3.589   1.110   2.242
 1531SOL    HW2 4603   3.517   1.155   2.382
 1532SOL     OW 4604   1.975   0.737   3.459
 1532SOL    HW1 4605   2.063   0.724   3.504
 1532SOL    HW2 4606   1.962   0.834   3.437
 1533SOL     OW 4607   2.475   1.365   2.588
 1533SOL    HW1 4608   2.426   1.278   2.597
 1533SOL    HW2 4609   2.452   1.408   2.501
 1534SOL     OW 4610   3.155   1.228   3.285
 1534SOL    HW1 4611   3.192   1.155   3.227
 1534SOL    HW2 4612   3.207   1.233   3.370
 1535SOL     OW 4613   2.671   0.004   2.364
 1535SOL    HW1 4614   2.711   0.095   2.355
 1535SOL    HW2 4615   2.571   0.012   2.370
 1536SOL     OW 4616   2.059   0.976   3.126
 1536SOL    HW1 4617   2.148   0.931   3.112
 1536SOL    HW2 4618   1.986   0.911   3.107
 1537SOL     OW 4619   3.387   0.999   2.052
 1537SOL    HW1 4620   3.324   0.923   2.065
 1537SOL    HW2 4621   3.435   1.017   2.138
 1538SOL     OW 4622   3.049   1.792   3.478
 1538SOL    HW1 4623   3.073   1.852   3.402
 1538SOL    HW2 4624   3.056   1.697   3.448
 1539SOL     OW 4625   2.179   0.251   3.663
 1539SOL    HW1 4626   2.250   0.322   3.669
 1539SOL    HW2 4627   2.091   0.290   3.691
 1540SOL     OW 4628   3.328   1.417   2.815
 1540SOL    HW1 4629   3.269   1.423   2.895
 1540SOL    HW2 4630   3.313   1.329   2.769
 1541SOL     OW 4631   3.529   1.714   2.434
 1541SOL    HW1 4632   3.488   1.691   2.346
 1541SOL    HW2 4633   3.511   1.640   2.499
 1542SOL     OW 4634   2.460   0.729   2.132
 1542SOL    HW1 4635   2.484   0.798   2.064
 1542SOL    HW2 4636   2.382   0.762   2.186
 1543SOL     OW 4637   3.143   0.345   2.806
 1543SOL    HW1 4638   3.057   0.295   2.793
 1543SOL    HW2 4639   3.205   0.291   2.862
 1544SOL     OW 4640   3.438   1.662   2.169
 1544SOL    HW1 4641   3.527   1.708   2.172
 1544SOL    HW2 4642   3.417   1.638   2.074
 1545SOL     OW 4643   2.669   0.605   3.327
 1545SOL    HW1 4644   2.622   0.602   3.416
 1545SOL    HW2 4645   2.618   0.550   3.261
 1546SOL     OW 4646   3.256   0.469   3.536
 1546SOL    HW1 4647   3.236   0.512   3.624
 1546SOL    HW2 4648   3.334   0.407   3.545
 1547SOL     OW 4649   2.835   0.890   3.434
 1547SOL    HW1 4650   2.881   0.806   3.405
 1547SOL    HW2 4651   2.779   0.924   3.359
 1548SOL     OW 4652   2.853   0.410   3.104
 1548SOL    HW1 4653   2.776   0.444   3.158
 1548SOL    HW2 4654   2.819   0.359   3.025
 1549SOL     OW 4655   2.903   0.701   2.291
 1549SOL    HW1 4656   2.929   0.697   2.387
 1549SOL    HW2 4657   2.818   0.650   2.277
 1550SOL     OW 4658   1.938   0.811   2.651
 1550SOL    HW1 4659   2.037   0.799   2.660
 1550SOL    HW2 4660   1.914   0.906   2.672
 1551SOL     OW 4661   1.992   1.821   3.433
 1551SOL    HW1 4662   1.982   1.806   3.532
 1551SOL    HW2 4663   1.906   1.857   3.397
 1552SOL     OW 4664   2.727   0.348   2.057
 1552SOL    HW1 4665   2.786   0.411   2.008
 1552SOL    HW2 4666   2.746   0.254   2.028
 1553SOL     OW 4667   3.581   0.585   3.693
 1553SOL    HW1 4668   3.555   0.674   3.657
 1553SOL    HW2 4669   3.579   0.517   3.620
 1554SOL     OW 4670   3.224   1.144   2.407
 1554SOL    HW1 4671   3.307   1.115   2.359
 1554SOL    HW2 4672   3.175   1.211   2.351
 1555SOL     OW 4673   2.412   0.196   2.747
 1555SOL    HW1 4674   2.407   0.191   2.847
 1555SOL    HW2 4675   2.414   0.292   2.718
 1556SOL     OW 4676   2.870   1.456   2.339
 1556SOL    HW1 4677   2.824   1.528   2.287
 1556SOL    HW2 4678   2.866   1.476   2.437
 1557SOL     OW 4679   2.213   1.801   2.715
 1557SOL    HW1 4680   2.263   1.715   2.721
 1557SOL    HW2 4681   2.278   1.878   2.712
 1558SOL     OW 4682   3.657   1.066   2.735
 1558SOL    HW1 4683   3.595   1.051   2.659
 1558SOL    HW2 4684   3.605   1.077   2.820
 1559SOL     OW 4685   3.089   1.550   3.368
 1559SOL    HW1 4686   3.095   1.473   3.432
 1559SOL    HW2 4687   3.037   1.524   3.288
 1560SOL     OW 4688   2.183   0.943   2.104
 1560SOL    HW1 4689   2.265   0.982   2.062
 1560SOL    HW2 4690   2.156   0.861   2.055
 1561SOL     OW 4691   3.320   0.735   2.590
 1561SOL    HW1 4692   3.315   0.670   2.665
 1561SOL    HW2 4693   3.400   0.794   2.603
 1562SOL     OW 4694   2.323   1.266   3.589
 1562SOL    HW1 4695   2.273   1.267   3.503
 1562SOL    HW2 4696   2.260   1.248   3.665
 1563SOL     OW 4697   2.973   1.776   2.099
 1563SOL    HW1 4698   2.913   1.714   2.149
 1563SOL    HW2 4699   3.004   1.732   2.014
 1564SOL     OW 4700   2.064   0.285   3.360
 1564SOL    HW1 4701   1.984   0.345   3.347
 1564SOL    HW2 4702   2.054   0.236   3.446
 1565SOL     OW 4703   3.494   1.377   1.943
 1565SOL    HW1 4704   3.462   1.471   1.933
 1565SOL    HW2 4705   3.418   1.314   1.931
 1566SOL     OW 4706   2.326   1.743   2.185
 1566SOL    HW1 4707   2.359   1.782   2.271
 1566SOL    HW2 4708   2.402   1.736   2.120
 1567SOL     OW 4709   3.262   0.107   2.288
 1567SOL    HW1 4710   3.238   0.070   2.198
 1567SOL    HW2 4711   3.361   0.123   2.292
 1568SOL     OW 4712   2.111   1.785   3.103
 1568SOL    HW1 4713   2.168   1.720   3.153
 1568SOL    HW2 4714   2.095   1.752   3.010
 1569SOL     OW 4715   2.802   1.698   2.766
 1569SOL    HW1 4716   2.882   1.641   2.787
 1569SOL    HW2 4717   2.753   1.658   2.689
 1570SOL     OW 4718   2.244   0.700   2.342
 1570SOL    HW1 4719   2.289   0.610   2.339
 1570SOL    HW2 4720   2.150   0.689   2.375
 1571SOL     OW 4721   3.409   0.222   3.591
 1571SOL    HW1 4722   3.404   0.259   3.683
 1571SOL    HW2 4723   3.337   0.153   3.579
 1572SOL     OW 4724   2.476   0.122   1.979
 1572SOL    HW1 4725   2.574   0.100   1.986
 1572SOL    HW2 4726   2.445   0.105   1.886
 1573SOL     OW 4727   2.643   0.264   3.611
 1573SOL    HW1 4728   2.710   0.203   3.654
 1573SOL    HW2 4729   2.570   0.283   3.676
 1574SOL     OW 4730   2.750   1.514   3.057
 1574SOL    HW1 4731   2.727   1.489   2.963
 1574SOL    HW2 4732   2.811   1.445   3.096
 1575SOL     OW 4733   3.213   0.590   3.295
 1575SOL    HW1 4734   3.241   0.547   3.380
 1575SOL    HW2 4735   3.238   0.686   3.296
 1576SOL     OW 4736   2.665   1.402   2.786
 1576SOL    HW1 4737   2.755   1.416   2.744
 1576SOL    HW2 4738   2.594   1.404   2.715
 1577SOL     OW 4739   2.784   0.503   2.761
 1577SOL    HW1 4740   2.759   0.494   2.665
 1577SOL    HW2 4741   2.832   0.421   2.792
 1578SOL     OW 4742   2.401   0.064   2.374
 1578SOL    HW1 4743   2.320   0.065   2.432
 1578SOL    HW2 4744   2.404   0.147   2.319
 1579SOL     OW 4745   3.296   1.188   1.903
 1579SOL    HW1 4746   3.328   1.112   1.960
 1579SOL    HW2 4747   3.204   1.215   1.933
 1580SOL     OW 4748   2.159   0.035   2.033
 1580SOL    HW1 4749   2.208   0.119   2.012
 1580SOL    HW2 4750   2.221  -0.030   2.078
 1581SOL     OW 4751   2.797   0.236   2.342
 1581SOL    HW1 4752   2.749   0.277   2.264
 1581SOL    HW2 4753   2.896   0.234   2.323
 1582SOL     OW 4754   2.938   0.683   3.326
 1582SOL    HW1 4755   2.858   0.622   3.329
 1582SOL    HW2 4756   3.019   0.630   3.302
 1583SOL     OW 4757   3.089   1.570   2.655
 1583SOL    HW1 4758   3.110   1.644   2.590
 1583SOL    HW2 4759   3.157   1.570   2.728
 1584SOL     OW 4760   2.321   1.152   2.603
 1584SOL    HW1 4761   2.250   1.125   2.668
 1584SOL    HW2 4762   2.295   1.124   2.510
 1585SOL     OW 4763   3.133   1.797   2.453
 1585SOL    HW1 4764   3.177   1.861   2.389
 1585SOL    HW2 4765   3.083   1.849   2.523
 1586SOL     OW 4766   2.894   0.549   1.878
 1586SOL    HW1 4767   2.853   0.631   1.839
 1586SOL    HW2 4768   2.958   0.575   1.951
 1587SOL     OW 4769   1.940   0.556   3.248
 1587SOL    HW1 4770   2.032   0.555   3.207
 1587SOL    HW2 4771   1.934   0.630   3.315
 1588SOL     OW 4772   2.423   0.222   3.009
 1588SOL    HW1 4773   2.461   0.138   3.046
 1588SOL    HW2 4774   2.335   0.241   3.053
 1589SOL     OW 4775   2.728   0.454   2.504
 1589SOL    HW1 4776   2.696   0.526   2.442
 1589SOL    HW2 4777   2.752   0.373   2.451
 1590SOL     OW 4778   2.879   0.039   2.615
 1590SOL    HW1 4779   2.807   0.044   2.546
 1590SOL    HW2 4780   2.855  -0.030   2.684
 1591SOL     OW 4781   3.291   1.173   2.729
 1591SOL    HW1 4782   3.236   1.089   2.722
 1591SOL    HW2 4783   3.317   1.202   2.637
 1592SOL     OW 4784   3.328   0.590   2.854
 1592SOL    HW1 4785   3.298   0.495   2.861
 1592SOL    HW2 4786   3.401   0.606   2.920
 1593SOL     OW 4787   3.719   0.833   2.239
 1593SOL    HW1 4788   3.761   0.769   2.303
 1593SOL    HW2 4789   3.681   0.782   2.161
 1594SOL     OW 4790   2.350   1.385   2.036
 1594SOL    HW1 4791   2.263   1.370   2.083
 1594SOL    HW2 4792   2.333   1.411   1.941
 1595SOL     OW 4793   3.526   1.280   2.519
 1595SOL    HW1 4794   3.625   1.288   2.533
 1595SOL    HW2 4795   3.481   1.364   2.550
 1596SOL     OW 4796   3.252   0.575   1.940
 1596SOL    HW1 4797   3.198   0.554   2.021
 1596SOL    HW2 4798   3.343   0.534   1.949
 1597SOL     OW 4799   2.389   0.256   2.190
 1597SOL    HW1 4800   2.416   0.197   2.115
 1597SOL    HW2 4801   2.389   0.351   2.159
 1598SOL     OW 4802   3.616   1.223   3.450
 1598SOL    HW1 4803   3.707   1.184   3.437
 1598SOL    HW2 4804   3.624   1.319   3.474
 1599SOL     OW 4805   2.926   1.347   3.202
 1599SOL    HW1 4806   2.846   1.324   3.257
 1599SOL    HW2 4807   3.009   1.321   3.251
 1600SOL     OW 4808   3.454   1.629   3.487
 1600SOL    HW1 4809   3.481   1.663   3.397
 1600SOL    HW2 4810   3.533   1.591   3.533
 1601SOL     OW 4811   2.973   1.195   2.962
 1601SOL    HW1 4812   2.933   1.239   3.043
 1601SOL    HW2 4813   2.932   1.232   2.879
 1602SOL     OW 4814   3.500   1.099   2.941
 1602SOL    HW1 4815   3.505   1.180   3.000
 1602SOL    HW2 4816   3.414   1.101   2.890
 1603SOL     OW 4817   2.777   0.089   3.264
 1603SOL    HW1 4818   2.802   0.069   3.169
 1603SOL    HW2 4819   2.849   0.145   3.306
 1604SOL     OW 4820   2.842   1.116   3.581
 1604SOL    HW1 4821   2.743   1.122   3.591
 1604SOL    HW2 4822   2.865   1.036   3.525
 1605SOL     OW 4823   2.567   1.050   2.230
 1605SOL    HW1 4824   2.553   1.057   2.329
 1605SOL    HW2 4825   2.651   0.999   2.212
 1606SOL     OW 4826   2.272   0.813   3.113
 1606SOL    HW1 4827   2.358   0.825   3.163
 1606SOL    HW2 4828   2.230   0.726   3.140
 1607SOL     OW 4829   3.136   0.386   3.124
 1607SOL    HW1 4830   3.157   0.460   3.188
 1607SOL    HW2 4831   3.047   0.403   3.081
 1608SOL     OW 4832   1.926   1.564   3.193
 1608SOL    HW1 4833   1.880   1.646   3.159
 1608SOL    HW2 4834   2.024   1.583   3.202
 1609SOL     OW 4835   2.229   1.100   2.363
 1609SOL    HW1 4836   2.222   1.183   2.307
 1609SOL    HW2 4837   2.233   1.020   2.303
 1610SOL     OW 4838   2.428   0.537   2.727
 1610SOL    HW1 4839   2.440   0.603   2.653
 1610SOL    HW2 4840   2.474   0.571   2.810
 1611SOL     OW 4841   3.114   1.348   2.250
 1611SOL    HW1 4842   3.164   1.425   2.290
 1611SOL    HW2 4843   3.019   1.350   2.282
 1612SOL     OW 4844   3.134   1.445   3.004
 1612SOL    HW1 4845   3.181   1.458   3.091
 1612SOL    HW2 4846   3.068   1.371   3.013
 1613SOL     OW 4847   3.444   0.639   2.334
 1613SOL    HW1 4848   3.413   0.700   2.407
 1613SOL    HW2 4849   3.494   0.691   2.265
 1614SOL     OW 4850   2.216   1.510   3.191
 1614SOL    HW1 4851   2.195   1.466   3.104
 1614SOL    HW2 4852   2.313   1.536   3.194
 1615SOL     OW 4853   2.264   0.751   3.460
 1615SOL    HW1 4854   2.332   0.806   3.413
 1615SOL    HW2 4855   2.304   0.663   3.487
 1616SOL     OW 4856   3.449   0.779   3.532
 1616SOL    HW1 4857   3.357   0.817   3.527
 1616SOL    HW2 4858   3.509   0.826   3.467
 1617SOL     OW 4859   2.875   0.105   3.632
 1617SOL    HW1 4860   2.881   0.190   3.580
 1617SOL    HW2 4861   2.907   0.029   3.575
 1618SOL     OW 4862   2.366   0.050   3.602
 1618SOL    HW1 4863   2.324  -0.007   3.532
 1618SOL    HW2 4864   2.300   0.119   3.634
 1619SOL     OW 4865   2.435   0.870   2.891
 1619SOL    HW1 4866   2.479   0.959   2.882
 1619SOL    HW2 4867   2.372   0.870   2.968
 1620SOL     OW 4868   3.222   0.862   2.907
 1620SOL    HW1 4869   3.147   0.862   2.841
 1620SOL    HW2 4870   3.259   0.770   2.916
 1621SOL     OW 4871   3.071   0.525   2.137
 1621SOL    HW1 4872   3.084   0.441   2.191
 1621SOL    HW2 4873   3.042   0.599   2.197
 1622SOL     OW 4874   2.169   0.213   3.093
 1622SOL    HW1 4875   2.146   0.250   3.183
 1622SOL    HW2 4876   2.139   0.118   3.087
 1623SOL     OW 4877   1.899   1.310   3.144
 1623SOL    HW1 4878   1.952   1.261   3.212
 1623SOL    HW2 4879   1.921   1.408   3.149
 1624SOL     OW 4880   2.594   0.634   2.926
 1624SOL    HW1 4881   2.653   0.608   2.850
 1624SOL    HW2 4882   2.566   0.730   2.915
 1625SOL     OW 4883   3.590   0.935   3.716
 1625SOL    HW1 4884   3.544   0.928   3.627
 1625SOL    HW2 4885   3.528   0.979   3.782
 1626SOL     OW 4886   2.169   0.063   2.480
 1626SOL    HW1 4887   2.158   0.157   2.513
 1626SOL    HW2 4888   2.164   0.000   2.557
 1627SOL     OW 4889   3.484   0.367   2.236
 1627SOL    HW1 4890   3.486   0.291   2.300
 1627SOL    HW2 4891   3.436   0.444   2.276
 1628SOL     OW 4892   2.885   0.766   2.828
 1628SOL    HW1 4893   2.900   0.787   2.924
 1628SOL    HW2 4894   2.855   0.671   2.819
 1629SOL     OW 4895   2.842   1.573   3.562
 1629SOL    HW1 4896   2.822   1.617   3.474
 1629SOL    HW2 4897   2.881   1.482   3.546
 1630SOL     OW 4898   3.721   1.518   3.467
 1630SOL    HW1 4899   3.735   1.545   3.372
 1630SOL    HW2 4900   3.804   1.540   3.520
 1631SOL     OW 4901   2.212   0.898   3.666
 1631SOL    HW1 4902   2.288   0.942   3.714
 1631SOL    HW2 4903   2.247   0.851   3.584
 1632SOL     OW 4904   3.402   0.274   1.987
 1632SOL    HW1 4905   3.341   0.199   2.010
 1632SOL    HW2 4906   3.424   0.326   2.070
 1633SOL     OW 4907   3.165   0.838   1.904
 1633SOL    HW1 4908   3.199   0.745   1.919
 1633SOL    HW2 4909   3.183   0.865   1.809
 1634SOL     OW 4910   2.930   1.333   2.711
 1634SOL    HW1 4911   2.937   1.249   2.656
 1634SOL    HW2 4912   2.992   1.402   2.675
 1635SOL     OW 4913   2.181   0.810   2.811
 1635SOL    HW1 4914   2.274   0.846   2.816
 1635SOL    HW2 4915   2.175   0.725   2.863
 1636SOL     OW 4916   2.201   0.509   2.868
 1636SOL    HW1 4917   2.149   0.426   2.851
 1636SOL    HW2 4918   2.278   0.514   2.804
 1637SOL     OW 4919   3.000   0.380   3.540
 1637SOL    HW1 4920   2.955   0.443   3.604
 1637SOL    HW2 4921   3.093   0.411   3.523
 1638SOL     OW 4922   3.022   0.207   3.339
 1638SOL    HW1 4923   3.022   0.271   3.416
 1638SOL    HW2 4924   3.050   0.255   3.256
 1639SOL     OW 4925   1.870   1.326   2.062
 1639SOL    HW1 4926   1.777   1.347   2.031
 1639SOL    HW2 4927   1.880   1.227   2.075
 1640SOL     OW 4928   1.950   1.801   2.789
 1640SOL    HW1 4929   1.908   1.715   2.762
 1640SOL    HW2 4930   2.044   1.804   2.755
 1641SOL     OW 4931   2.366   1.568   2.772
 1641SOL    HW1 4932   2.432   1.642   2.781
 1641SOL    HW2 4933   2.410   1.489   2.730
 1642SOL     OW 4934   2.864   0.796   3.100
 1642SOL    HW1 4935   2.905   0.764   3.186
 1642SOL    HW2 4936   2.768   0.769   3.097
 1643SOL     OW 4937   1.902   0.544   2.976
 1643SOL    HW1 4938   1.987   0.511   2.935
 1643SOL    HW2 4939   1.915   0.559   3.074
 1644SOL     OW 4940   2.051   0.520   3.584
 1644SOL    HW1 4941   2.110   0.480   3.514
 1644SOL    HW2 4942   1.993   0.591   3.543
 1645SOL     OW 4943   3.231   0.950   3.522
 1645SOL    HW1 4944   3.270   1.039   3.542
 1645SOL    HW2 4945   3.241   0.930   3.425
 1646SOL     OW 4946   2.677   0.572   2.187
 1646SOL    HW1 4947   2.684   0.483   2.141
 1646SOL    HW2 4948   2.583   0.606   2.179
 1647SOL     OW 4949   3.519   0.604   3.068
 1647SOL    HW1 4950   3.481   0.535   3.130
 1647SOL    HW2 4951   3.601   0.568   3.024
 1648SOL     OW 4952   2.114   1.564   3.606
 1648SOL    HW1 4953   2.084   1.621   3.682
 1648SOL    HW2 4954   2.107   1.467   3.632
 1649SOL     OW 4955   2.533   0.464   3.131
 1649SOL    HW1 4956   2.499   0.375   3.101
 1649SOL    HW2 4957   2.559   0.518   3.051
 1650SOL     OW 4958   2.792   1.678   3.327
 1650SOL    HW1 4959   2.768   1.660   3.232
 1650SOL    HW2 4960   2.822   1.772   3.337
 1651SOL     OW 4961   2.335   0.500   2.053
 1651SOL    HW1 4962   2.396   0.580   2.057
 1651SOL    HW2 4963   2.240   0.531   2.060
 1652SOL     OW 4964   2.021   1.137   3.328
 1652SOL    HW1 4965   2.043   1.076   3.404
 1652SOL    HW2 4966   2.031   1.088   3.242
 1653SOL     OW 4967   3.209   1.059   3.096
 1653SOL    HW1 4968   3.233   0.996   3.022
 1653SOL    HW2 4969   3.119   1.099   3.078
 1654SOL     OW 4970   3.164   0.855   2.171
 1654SOL    HW1 4971   3.078   0.824   2.213
 1654SOL    HW2 4972   3.160   0.841   2.072
 1655SOL     OW 4973   3.621   1.747   3.016
 1655SOL    HW1 4974   3.682   1.777   2.943
 1655SOL    HW2 4975   3.583   1.658   2.994
 1656SOL     OW 4976   3.114   1.731   2.990
 1656SOL    HW1 4977   3.198   1.736   2.936
 1656SOL    HW2 4978   3.091   1.635   3.008
 1657SOL     OW 4979   1.945   1.258   2.884
 1657SOL    HW1 4980   1.940   1.257   2.984
 1657SOL    HW2 4981   1.862   1.217   2.846
 1658SOL     OW 4982   2.550   1.662   3.578
 1658SOL    HW1 4983   2.494   1.743   3.587
 1658SOL    HW2 4984   2.602   1.666   3.492
 1659SOL     OW 4985   3.588   0.135   2.385
 1659SOL    HW1 4986   3.661   0.118   2.318
 1659SOL    HW2 4987   3.557   0.048   2.423
 1660SOL     OW 4988   3.250   1.573   2.339
 1660SOL    HW1 4989   3.317   1.585   2.265
 1660SOL    HW2 4990   3.210   1.662   2.362
 1661SOL     OW 4991   1.992   1.794   3.713
 1661SOL    HW1 4992   1.951   1.720   3.766
 1661SOL    HW2 4993   2.056   1.845   3.771
 1662SOL     OW 4994   3.142   0.927   2.534
 1662SOL    HW1 4995   3.202   0.846   2.536
 1662SOL    HW2 4996   3.182   0.996   2.474
 1663SOL     OW 4997   2.692   1.273   3.284
 1663SOL    HW1 4998   2.687   1.306   3.379
 1663SOL    HW2 4999   2.606   1.292   3.238
 1664SOL     OW 5000   2.534   1.616   2.016
 1664SOL    HW1 5001   2.543   1.626   1.917
 1664SOL    HW2 5002   2.494   1.527   2.037
 1665SOL     OW 5003   3.512   1.720   3.256
 1665SOL    HW1 5004   3.565   1.730   3.172
 1665SOL    HW2 5005   3.485   1.810   3.290
 1666SOL     OW 5006   3.703   0.175   2.825
 1666SOL    HW1 5007   3.742   0.090   2.789
 1666SOL    HW2 5008   3.605   0.177   2.806
 1667SOL     OW 5009   2.125   0.326   2.582
 1667SOL    HW1 5010   2.046   0.377   2.548
 1667SOL    HW2 5011   2.116   0.311   2.680
 1668SOL     OW 5012   3.056   1.612   1.893
 1668SOL    HW1 5013   3.062   1.519   1.930
 1668SOL    HW2 5014   2.997   1.612   1.813
 1669SOL     OW 5015   2.684   1.002   3.234
 1669SOL    HW1 5016   2.724   1.001   3.142
 1669SOL    HW2 5017   2.694   1.094   3.274
 1670SOL     OW 5018   2.778   0.910   2.153
 1670SOL    HW1 5019   2.841   0.948   2.085
 1670SOL    HW2 5020   2.818   0.827   2.192
 1671SOL     OW 5021   3.366   1.607   1.906
 1671SOL    HW1 5022   3.274   1.644   1.913
 1671SOL    HW2 5023   3.404   1.627   1.816
 1672SOL     OW 5024   2.234   1.288   3.352
 1672SOL    HW1 5025   2.221   1.381   3.318
 1672SOL    HW2 5026   2.150   1.236   3.339
 1673SOL     OW 5027   3.476   1.292   3.151
 1673SOL    HW1 5028   3.536   1.295   3.231
 1673SOL    HW2 5029   3.401   1.356   3.164
 1674SOL     OW 5030   2.901   1.098   2.558
 1674SOL    HW1 5031   2.831   1.051   2.612
 1674SOL    HW2 5032   2.960   1.030   2.515
 1675SOL     OW 5033   2.876   0.236   2.833
 1675SOL    HW1 5034   2.868   0.200   2.740
 1675SOL    HW2 5035   2.874   0.160   2.898
 1676SOL     OW 5036   2.452   1.487   2.353
 1676SOL    HW1 5037   2.494   1.429   2.283
 1676SOL    HW2 5038   2.408   1.566   2.309
 1677SOL     OW 5039   3.571   0.385   3.243
 1677SOL    HW1 5040   3.644   0.454   3.247
 1677SOL    HW2 5041   3.599   0.310   3.184
 1678SOL     OW 5042   2.117   1.348   2.152
 1678SOL    HW1 5043   2.021   1.349   2.125
 1678SOL    HW2 5044   2.129   1.401   2.236
 1679SOL     OW 5045   1.967   1.013   3.588
 1679SOL    HW1 5046   1.890   0.980   3.642
 1679SOL    HW2 5047   2.052   0.983   3.630
 1680SOL     OW 5048   2.534   0.203   3.351
 1680SOL    HW1 5049   2.624   0.187   3.311
 1680SOL    HW2 5050   2.542   0.208   3.450
 1681SOL     OW 5051   1.937   0.345   1.895
 1681SOL    HW1 5052   1.845   0.317   1.866
 1681SOL    HW2 5053   1.968   0.422   1.839
 1682SOL     OW 5054   3.302   0.856   3.260
 1682SOL    HW1 5055   3.245   0.908   3.197
 1682SOL    HW2 5056   3.398   0.868   3.236
 1683SOL     OW 5057   1.934   0.166   2.180
 1683SOL    HW1 5058   1.917   0.249   2.126
 1683SOL    HW2 5059   2.024   0.129   2.158
 1684SOL     OW 5060   3.045   1.335   1.981
 1684SOL    HW1 5061   2.946   1.324   1.983
 1684SOL    HW2 5062   3.079   1.350   2.074
 1685SOL     OW 5063   2.475   0.842   3.293
 1685SOL    HW1 5064   2.531   0.923   3.276
 1685SOL    HW2 5065   2.534   0.762   3.296
 1686SOL     OW 5066   3.355   1.767   2.821
 1686SOL    HW1 5067   3.388   1.831   2.752
 1686SOL    HW2 5068   3.421   1.761   2.896
 1687SOL     OW 5069   2.578   0.565   3.570
 1687SOL    HW1 5070   2.597   0.630   3.644
 1687SOL    HW2 5071   2.638   0.485   3.579
 1688SOL     OW 5072   3.312   1.220   3.495
 1688SOL    HW1 5073   3.303   1.210   3.594
 1688SOL    HW2 5074   3.408   1.213   3.469
 1689SOL     OW 5075   2.252   1.741   3.422
 1689SOL    HW1 5076   2.161   1.782   3.420
 1689SOL    HW2 5077   2.245   1.647   3.454
 1690SOL     OW 5078   3.536   0.883   3.116
 1690SOL    HW1 5079   3.509   0.794   3.079
 1690SOL    HW2 5080   3.537   0.951   3.043
 1691SOL     OW 5081   3.087   0.325   2.311
 1691SOL    HW1 5082   3.152   0.251   2.300
 1691SOL    HW2 5083   3.107   0.375   2.395
 1692SOL     OW 5084   2.456   0.745   2.514
 1692SOL    HW1 5085   2.506   0.830   2.495
 1692SOL    HW2 5086   2.368   0.747   2.466
 1693SOL     OW 5087   3.639   0.342   3.504
 1693SOL    HW1 5088   3.622   0.373   3.410
 1693SOL    HW2 5089   3.555   0.305   3.542
 1694SOL     OW 5090   3.592   0.934   3.379
 1694SOL    HW1 5091   3.630   1.025   3.394
 1694SOL    HW2 5092   3.584   0.917   3.280
 1695SOL     OW 5093   2.721   1.374   1.878
 1695SOL    HW1 5094   2.675   1.389   1.966
 1695SOL    HW2 5095   2.765   1.459   1.848
 1696SOL     OW 5096   2.523   1.790   2.815
 1696SOL    HW1 5097   2.477   1.878   2.802
 1696SOL    HW2 5098   2.622   1.802   2.808
 1697SOL     OW 5099   2.721   0.956   2.723
 1697SOL    HW1 5100   2.775   0.887   2.771
 1697SOL    HW2 5101   2.689   1.025   2.789
 1698SOL     OW 5102   2.945   0.984   1.949
 1698SOL    HW1 5103   2.922   1.037   1.867
 1698SOL    HW2 5104   3.026   0.928   1.930
 1699SOL     OW 5105   3.723   1.569   2.713
 1699SOL    HW1 5106   3.652   1.557   2.643
 1699SOL    HW2 5107   3.724   1.490   2.773
 1700SOL     OW 5108   2.083   1.314   3.706
 1700SOL    HW1 5109   2.018   1.241   3.685
 1700SOL    HW2 5110   2.087   1.328   3.804
 1701SOL     OW 5111   1.941   1.240   2.515
 1701SOL    HW1 5112   1.940   1.193   2.603
 1701SOL    HW2 5113   2.023   1.212   2.464
 1702SOL     OW 5114   2.534   1.391   3.486
 1702SOL    HW1 5115   2.456   1.341   3.524
 1702SOL    HW2 5116   2.531   1.486   3.517
 1703SOL     OW 5117   3.686   0.192   3.089
 1703SOL    HW1 5118   3.682   0.102   3.133
 1703SOL    HW2 5119   3.689   0.181   2.990
 1704SOL     OW 5120   2.290   0.424   2.382
 1704SOL    HW1 5121   2.320   0.352   2.320
 1704SOL    HW2 5122   2.251   0.384   2.465
 1705SOL     OW 5123   3.567   1.487   2.966
 1705SOL    HW1 5124   3.474   1.462   2.939
 1705SOL    HW2 5125   3.593   1.437   3.048
 1706SOL     OW 5126   2.179   0.547   3.142
 1706SOL    HW1 5127   2.217   0.488   3.214
 1706SOL    HW2 5128   2.219   0.521   3.054
 1707SOL     OW 5129   2.674   1.586   2.549
 1707SOL    HW1 5130   2.706   1.596   2.455
 1707SOL    HW2 5131   2.595   1.524   2.551
 1708SOL     OW 5132   3.286   0.214   2.974
 1708SOL    HW1 5133   3.338   0.149   3.029
 1708SOL    HW2 5134   3.237   0.277   3.035
 1709SOL     OW 5135   2.863   0.034   3.016
 1709SOL    HW1 5136   2.800  -0.038   2.985
 1709SOL    HW2 5137   2.956  -0.002   3.016
 1710SOL     OW 5138   2.632   1.330   2.163
 1710SOL    HW1 5139   2.586   1.243   2.180
 1710SOL    HW2 5140   2.723   1.327   2.204
 1711SOL     OW 5141   2.480   1.567   3.146
 1711SOL    HW1 5142   2.475   1.649   3.203
 1711SOL    HW2 5143   2.569   1.564   3.101
 1712SOL     OW 5144   3.214   0.052   2.030
 1712SOL    HW1 5145   3.249   0.011   1.946
 1712SOL    HW2 5146   3.124   0.014   2.050
 1713SOL     OW 5147   3.162   0.453   2.553
 1713SOL    HW1 5148   3.103   0.533   2.557
 1713SOL    HW2 5149   3.177   0.418   2.646
 1714SOL     OW 5150   3.455   0.221   2.744
 1714SOL    HW1 5151   3.371   0.220   2.798
 1714SOL    HW2 5152   3.457   0.304   2.688
 1715SOL     OW 5153   1.901   1.077   2.162
 1715SOL    HW1 5154   2.000   1.066   2.153
 1715SOL    HW2 5155   1.861   0.991   2.194
 1716SOL     OW 5156   2.737   1.646   2.199
 1716SOL    HW1 5157   2.660   1.611   2.145
 1716SOL    HW2 5158   2.705   1.717   2.261
 1717SOL     OW 5159   2.092   0.628   3.837
 1717SOL    HW1 5160   1.999   0.626   3.874
 1717SOL    HW2 5161   2.093   0.589   3.745
 1718SOL     OW 5162   1.881   0.368   4.371
 1718SOL    HW1 5163   1.799   0.411   4.410
 1718SOL    HW2 5164   1.853   0.295   4.308
 1719SOL     OW 5165   3.417   1.511   4.427
 1719SOL    HW1 5166   3.360   1.495   4.508
 1719SOL    HW2 5167   3.358   1.521   4.347
 1720SOL     OW 5168   2.997   0.703   4.441
 1720SOL    HW1 5169   3.054   0.781   4.416
 1720SOL    HW2 5170   2.937   0.729   4.517
 1721SOL     OW 5171   3.617   0.607   3.955
 1721SOL    HW1 5172   3.605   0.594   3.856
 1721SOL    HW2 5173   3.587   0.526   4.004
 1722SOL     OW 5174   2.630   1.144   4.747
 1722SOL    HW1 5175   2.552   1.161   4.807
 1722SOL    HW2 5176   2.664   1.231   4.711
 1723SOL     OW 5177   2.547   1.012   4.389
 1723SOL    HW1 5178   2.616   0.996   4.459
 1723SOL    HW2 5179   2.474   1.069   4.427
 1724SOL     OW 5180   3.465   0.447   4.461
 1724SOL    HW1 5181   3.391   0.493   4.411
 1724SOL    HW2 5182   3.516   0.515   4.514
 1725SOL     OW 5183   2.093   1.713   4.207
 1725SOL    HW1 5184   2.127   1.790   4.261
 1725SOL    HW2 5185   2.137   1.713   4.117
 1726SOL     OW 5186   2.092   1.434   4.262
 1726SOL    HW1 5187   2.066   1.530   4.262
 1726SOL    HW2 5188   2.021   1.380   4.307
 1727SOL     OW 5189   2.102   1.091   4.610
 1727SOL    HW1 5190   2.116   1.007   4.662
 1727SOL    HW2 5191   2.047   1.155   4.665
 1728SOL     OW 5192   2.468   0.964   3.847
 1728SOL    HW1 5193   2.475   1.048   3.793
 1728SOL    HW2 5194   2.514   0.977   3.935
 1729SOL     OW 5195   1.984   0.643   4.287
 1729SOL    HW1 5196   1.939   0.555   4.304
 1729SOL    HW2 5197   1.983   0.697   4.371
 1730SOL     OW 5198   3.704   1.767   4.083
 1730SOL    HW1 5199   3.758   1.738   4.163
 1730SOL    HW2 5200   3.734   1.857   4.054
 1731SOL     OW 5201   1.889   1.596   3.841
 1731SOL    HW1 5202   1.870   1.500   3.862
 1731SOL    HW2 5203   1.856   1.654   3.916
 1732SOL     OW 5204   3.551   0.922   4.336
 1732SOL    HW1 5205   3.646   0.893   4.344
 1732SOL    HW2 5206   3.543   0.987   4.261
 1733SOL     OW 5207   3.503   1.108   4.156
 1733SOL    HW1 5208   3.589   1.110   4.104
 1733SOL    HW2 5209   3.517   1.155   4.244
 1734SOL     OW 5210   2.475   1.365   4.450
 1734SOL    HW1 5211   2.426   1.278   4.459
 1734SOL    HW2 5212   2.452   1.408   4.363
 1735SOL     OW 5213   2.671   0.004   4.226
 1735SOL    HW1 5214   2.711   0.095   4.217
 1735SOL    HW2 5215   2.571   0.012   4.232
 1736SOL     OW 5216   3.387   0.999   3.914
 1736SOL    HW1 5217   3.324   0.923   3.927
 1736SOL    HW2 5218   3.435   1.017   4.000
 1737SOL     OW 5219   3.529   1.714   4.296
 1737SOL    HW1 5220   3.488   1.691   4.208
 1737SOL    HW2 5221   3.511   1.640   4.361
 1738SOL     OW 5222   2.460   0.729   3.994
 1738SOL    HW1 5223   2.484   0.798   3.926
 1738SOL    HW2 5224   2.382   0.762   4.048
 1739SOL     OW 5225   3.143   0.345   4.668
 1739SOL    HW1 5226   3.057   0.295   4.655
 1739SOL    HW2 5227   3.205   0.291   4.724
 1740SOL     OW 5228   3.438   1.662   4.031
 1740SOL    HW1 5229   3.527   1.708   4.034
 1740SOL    HW2 5230   3.417   1.638   3.936
 1741SOL     OW 5231   2.903   0.701   4.153
 1741SOL    HW1 5232   2.929   0.697   4.249
 1741SOL    HW2 5233   2.818   0.650   4.139
 1742SOL     OW 5234   1.938   0.811   4.513
 1742SOL    HW1 5235   2.037   0.799   4.522
 1742SOL    HW2 5236   1.914   0.906   4.534
 1743SOL     OW 5237   2.727   0.348   3.919
 1743SOL    HW1 5238   2.786   0.411   3.870
 1743SOL    HW2 5239   2.746   0.254   3.890
 1744SOL     OW 5240   3.224   1.144   4.269
 1744SOL    HW1 5241   3.307   1.115   4.221
 1744SOL    HW2 5242   3.175   1.211   4.213
 1745SOL     OW 5243   2.870   1.456   4.201
 1745SOL    HW1 5244   2.824   1.528   4.149
 1745SOL    HW2 5245   2.866   1.476   4.299
 1746SOL     OW 5246   2.213   1.801   4.577
 1746SOL    HW1 5247   2.263   1.715   4.583
 1746SOL    HW2 5248   2.278   1.878   4.574
 1747SOL     OW 5249   3.657   1.066   4.597
 1747SOL    HW1 5250   3.595   1.051   4.521
 1747SOL    HW2 5251   3.605   1.077   4.682
 1748SOL     OW 5252   2.183   0.943   3.966
 1748SOL    HW1 5253   2.265   0.982   3.924
 1748SOL    HW2 5254   2.156   0.861   3.917
 1749SOL     OW 5255   3.320   0.735   4.452
 1749SOL    HW1 5256   3.315   0.670   4.527
 1749SOL    HW2 5257   3.400   0.794   4.465
 1750SOL     OW 5258   2.973   1.776   3.961
 1750SOL    HW1 5259   2.913   1.714   4.011
 1750SOL    HW2 5260   3.004   1.732   3.876
 1751SOL     OW 5261   3.494   1.377   3.805
 1751SOL    HW1 5262   3.462   1.471   3.795
 1751SOL    HW2 5263   3.418   1.314   3.793
 1752SOL     OW 5264   2.326   1.743   4.047
 1752SOL    HW1 5265   2.359   1.782   4.133
 1752SOL    HW2 5266   2.402   1.736   3.982
 1753SOL     OW 5267   3.262   0.107   4.150
 1753SOL    HW1 5268   3.238   0.070   4.060
 1753SOL    HW2 5269   3.361   0.123   4.154
 1754SOL     OW 5270   2.802   1.698   4.628
 1754SOL    HW1 5271   2.882   1.641   4.649
 1754SOL    HW2 5272   2.753   1.658   4.551
 1755SOL     OW 5273   2.244   0.700   4.204
 1755SOL    HW1 5274   2.289   0.610   4.201
 1755SOL    HW2 5275   2.150   0.689   4.237
 1756SOL     OW 5276   2.476   0.122   3.841
 1756SOL    HW1 5277   2.574   0.100   3.848
 1756SOL    HW2 5278   2.445   0.105   3.748
 1757SOL     OW 5279   2.401   0.064   4.236
 1757SOL    HW1 5280   2.320   0.065   4.294
 1757SOL    HW2 5281   2.404   0.147   4.181
 1758SOL     OW 5282   3.296   1.188   3.765
 1758SOL    HW1 5283   3.328   1.112   3.822
 1758SOL    HW2 5284   3.204   1.215   3.795
 1759SOL     OW 5285   2.159   0.035   3.895
 1759SOL    HW1 5286   2.208   0.119   3.874
 1759SOL    HW2 5287   2.221  -0.030   3.940
 1760SOL     OW 5288   2.797   0.236   4.204
 1760SOL    HW1 5289   2.749   0.277   4.126
 1760SOL    HW2 5290   2.896   0.234   4.185
 1761SOL     OW 5291   2.321   1.152   4.465
 1761SOL    HW1 5292   2.250   1.125   4.530
 1761SOL    HW2 5293   2.295   1.124   4.372
 1762SOL     OW 5294   3.133   1.797   4.315
 1762SOL    HW1 5295   3.177   1.861   4.251
 1762SOL    HW2 5296   3.083   1.849   4.385
 1763SOL     OW 5297   2.894   0.549   3.740
 1763SOL    HW1 5298   2.853   0.631   3.701
 1763SOL    HW2 5299   2.958   0.575   3.813
 1764SOL     OW 5300   2.728   0.454   4.366
 1764SOL    HW1 5301   2.696   0.526   4.304
 1764SOL    HW2 5302   2.752   0.373   4.313
 1765SOL     OW 5303   2.879   0.039   4.477
 1765SOL    HW1 5304   2.807   0.044   4.408
 1765SOL    HW2 5305   2.855  -0.030   4.546
 1766SOL     OW 5306   3.719   0.833   4.101
 1766SOL    HW1 5307   3.761   0.769   4.165
 1766SOL    HW2 5308   3.681   0.782   4.023
 1767SOL     OW 5309   2.350   1.385   3.898
 1767SOL    HW1 5310   2.263   1.370   3.945
 1767SOL    HW2 5311   2.333   1.411   3.803
 1768SOL     OW 5312   3.526   1.280   4.381
 1768SOL    HW1 5313   3.625   1.288   4.395
 1768SOL    HW2 5314   3.481   1.364   4.412
 1769SOL     OW 5315   3.252   0.575   3.802
 1769SOL    HW1 5316   3.198   0.554   3.883
 1769SOL    HW2 5317   3.343   0.534   3.811
 1770SOL     OW 5318   2.389   0.256   4.052
 1770SOL    HW1 5319   2.416   0.197   3.977
 1770SOL    HW2 5320   2.389   0.351   4.021
 1771SOL     OW 5321   2.567   1.050   4.092
 1771SOL    HW1 5322   2.553   1.057   4.191
 1771SOL    HW2 5323   2.651   0.999   4.074
 1772SOL     OW 5324   2.229   1.100   4.225
 1772SOL    HW1 5325   2.222   1.183   4.169
 1772SOL    HW2 5326   2.233   1.020   4.165
 1773SOL     OW 5327   2.428   0.537   4.589
 1773SOL    HW1 5328   2.440   0.603   4.515
 1773SOL    HW2 5329   2.474   0.571   4.672
 1774SOL     OW 5330   3.114   1.348   4.112
 1774SOL    HW1 5331   3.164   1.425   4.152
 1774SOL    HW2 5332   3.019   1.350   4.144
 1775SOL     OW 5333   3.444   0.639   4.196
 1775SOL    HW1 5334   3.413   0.700   4.269
 1775SOL    HW2 5335   3.494   0.691   4.127
 1776SOL     OW 5336   3.071   0.525   3.999
 1776SOL    HW1 5337   3.084   0.441   4.053
 1776SOL    HW2 5338   3.042   0.599   4.059
 1777SOL     OW 5339   2.169   0.063   4.342
 1777SOL    HW1 5340   2.158   0.157   4.375
 1777SOL    HW2 5341   2.164   0.000   4.419
 1778SOL     OW 5342   3.484   0.367   4.098
 1778SOL    HW1 5343   3.486   0.291   4.162
 1778SOL    HW2 5344   3.436   0.444   4.138
 1779SOL     OW 5345   3.402   0.274   3.849
 1779SOL    HW1 5346   3.341   0.199   3.872
 1779SOL    HW2 5347   3.424   0.326   3.932
 1780SOL     OW 5348   3.165   0.838   3.766
 1780SOL    HW1 5349   3.199   0.745   3.781
 1780SOL    HW2 5350   3.183   0.865   3.671
 1781SOL     OW 5351   1.870   1.326   3.924
 1781SOL    HW1 5352   1.777   1.347   3.893
 1781SOL    HW2 5353   1.880   1.227   3.937
 1782SOL     OW 5354   2.677   0.572   4.049
 1782SOL    HW1 5355   2.684   0.483   4.003
 1782SOL    HW2 5356   2.583   0.606   4.041
 1783SOL     OW 5357   2.335   0.500   3.915
 1783SOL    HW1 5358   2.396   0.580   3.919
 1783SOL    HW2 5359   2.240   0.531   3.922
 1784SOL     OW 5360   3.164   0.855   4.033
 1784SOL    HW1 5361   3.078   0.824   4.075
 1784SOL    HW2 5362   3.160   0.841   3.934
 1785SOL     OW 5363   3.588   0.135   4.247
 1785SOL    HW1 5364   3.661   0.118   4.180
 1785SOL    HW2 5365   3.557   0.048   4.285
 1786SOL     OW 5366   3.250   1.573   4.201
 1786SOL    HW1 5367   3.317   1.585   4.127
 1786SOL    HW2 5368   3.210   1.662   4.224
 1787SOL     OW 5369   3.142   0.927   4.396
 1787SOL    HW1 5370   3.202   0.846   4.398
 1787SOL    HW2 5371   3.182   0.996   4.336
 1788SOL     OW 5372   2.534   1.616   3.878
 1788SOL    HW1 5373   2.543   1.626   3.779
 1788SOL    HW2 5374   2.494   1.527   3.899
 1789SOL     OW 5375   3.703   0.175   4.687
 1789SOL    HW1 5376   3.742   0.090   4.651
 1789SOL    HW2 5377   3.605   0.177   4.668
 1790SOL     OW 5378   2.125   0.326   4.444
 1790SOL    HW1 5379   2.046   0.377   4.410
 1790SOL    HW2 5380   2.116   0.311   4.542
 1791SOL     OW 5381   3.056   1.612   3.755
 1791SOL    HW1 5382   3.062   1.519   3.792
 1791SOL    HW2 5383   2.997   1.612   3.675
 1792SOL     OW 5384   2.778   0.910   4.015
 1792SOL    HW1 5385   2.841   0.948   3.947
 1792SOL    HW2 5386   2.818   0.827   4.054
 1793SOL     OW 5387   3.366   1.607   3.768
 1793SOL    HW1 5388   3.274   1.644   3.775
 1793SOL    HW2 5389   3.404   1.627   3.678
 1794SOL     OW 5390   2.901   1.098   4.420
 1794SOL    HW1 5391   2.831   1.051   4.474
 1794SOL    HW2 5392   2.960   1.030   4.377
 1795SOL     OW 5393   2.452   1.487   4.215
 1795SOL    HW1 5394   2.494   1.429   4.145
 1795SOL    HW2 5395   2.408   1.566   4.171
 1796SOL     OW 5396   2.117   1.348   4.014
 1796SOL    HW1 5397   2.021   1.349   3.987
 1796SOL    HW2 5398   2.129   1.401   4.098
 1797SOL     OW 5399   1.937   0.345   3.757
 1797SOL    HW1 5400   1.845   0.317   3.728
 1797SOL    HW2 5401   1.968   0.422   3.701
 1798SOL     OW 5402   1.934   0.166   4.042
 1798SOL    HW1 5403   1.917   0.249   3.988
 1798SOL    HW2 5404   2.024   0.129   4.020
 1799SOL     OW 5405   3.045   1.335   3.843
 1799SOL    HW1 5406   2.946   1.324   3.845
 1799SOL    HW2 5407   3.079   1.350   3.936
 1800SOL     OW 5408   3.087   0.325   4.173
 1800SOL    HW1 5409   3.152   0.251   4.162
 1800SOL    HW2 5410   3.107   0.375   4.257
 1801SOL     OW 5411   2.456   0.745   4.376
 1801SOL    HW1 5412   2.506   0.830   4.357
 1801SOL    HW2 5413   2.368   0.747   4.328
 1802SOL     OW 5414   2.721   1.374   3.740
 1802SOL    HW1 5415   2.675   1.389   3.828
 1802SOL    HW2 5416   2.765   1.459   3.710
 1803SOL     OW 5417   2.523   1.790   4.677
 1803SOL    HW1 5418   2.477   1.878   4.664
 1803SOL    HW2 5419   2.622   1.802   4.670
 1804SOL     OW 5420   2.721   0.956   4.585
 1804SOL    HW1 5421   2.775   0.887   4.633
 1804SOL    HW2 5422   2.689   1.025   4.651
 1805SOL     OW 5423   2.945   0.984   3.811
 1805SOL    HW1 5424   2.922   1.037   3.729
 1805SOL    HW2 5425   3.026   0.928   3.792
 1806SOL     OW 5426   1.941   1.240   4.377
 1806SOL    HW1 5427   1.940   1.193   4.465
 1806SOL    HW2 5428   2.023   1.212   4.326
 1807SOL     OW 5429   2.290   0.424   4.244
 1807SOL    HW1 5430   2.320   0.352   4.182
 1807SOL    HW2 5431   2.251   0.384   4.327
 1808SOL     OW 5432   2.674   1.586   4.411
 1808SOL    HW1 5433   2.706   1.596   4.317
 1808SOL    HW2 5434   2.595   1.524   4.413
 1809SOL     OW 5435   2.632   1.330   4.025
 1809SOL    HW1 5436   2.586   1.243   4.042
 1809SOL    HW2 5437   2.723   1.327   4.066
 1810SOL     OW 5438   3.214   0.052   3.892
 1810SOL    HW1 5439   3.249   0.011   3.808
 1810SOL    HW2 5440   3.124   0.014   3.912
 1811SOL     OW 5441   3.162   0.453   4.415
 1811SOL    HW1 5442   3.103   0.533   4.419
 1811SOL    HW2 5443   3.177   0.418   4.508
 1812SOL     OW 5444   1.901   1.077   4.024
 1812SOL    HW1 5445   2.000   1.066   4.015
 1812SOL    HW2 5446   1.861   0.991   4.056
 1813SOL     OW 5447   2.737   1.646   4.061
 1813SOL    HW1 5448   2.660   1.611   4.007
 1813SOL    HW2 5449   2.705   1.717   4.123
 1814SOL     OW 5450   2.092   2.490   0.113
 1814SOL    HW1 5451   1.999   2.488   0.150
 1814SOL    HW2 5452   2.093   2.451   0.021
 1815SOL     OW 5453   2.087   2.137   0.996
 1815SOL    HW1 5454   2.122   2.120   1.088
 1815SOL    HW2 5455   1.999   2.092   0.984
 1816SOL     OW 5456   1.881   2.230   0.647
 1816SOL    HW1 5457   1.799   2.273   0.686
 1816SOL    HW2 5458   1.853   2.157   0.584
 1817SOL     OW 5459   2.431   3.137   1.165
 1817SOL    HW1 5460   2.338   3.130   1.128
 1817SOL    HW2 5461   2.442   3.226   1.209
 1818SOL     OW 5462   3.417   3.373   0.703
 1818SOL    HW1 5463   3.360   3.357   0.784
 1818SOL    HW2 5464   3.358   3.383   0.623
 1819SOL     OW 5465   2.997   2.565   0.717
 1819SOL    HW1 5466   3.054   2.643   0.692
 1819SOL    HW2 5467   2.937   2.591   0.793
 1820SOL     OW 5468   3.617   2.469   0.231
 1820SOL    HW1 5469   3.605   2.456   0.132
 1820SOL    HW2 5470   3.587   2.388   0.280
 1821SOL     OW 5471   2.630   3.006   1.023
 1821SOL    HW1 5472   2.552   3.023   1.083
 1821SOL    HW2 5473   2.664   3.093   0.987
 1822SOL     OW 5474   2.712   2.660   1.823
 1822SOL    HW1 5475   2.708   2.736   1.888
 1822SOL    HW2 5476   2.734   2.696   1.732
 1823SOL     OW 5477   2.547   2.874   0.665
 1823SOL    HW1 5478   2.616   2.858   0.735
 1823SOL    HW2 5479   2.474   2.931   0.703
 1824SOL     OW 5480   2.548   3.023   1.803
 1824SOL    HW1 5481   2.608   3.102   1.817
 1824SOL    HW2 5482   2.462   3.054   1.762
 1825SOL     OW 5483   2.197   3.297   1.061
 1825SOL    HW1 5484   2.119   3.266   1.008
 1825SOL    HW2 5485   2.255   3.355   1.004
 1826SOL     OW 5486   3.322   3.367   1.339
 1826SOL    HW1 5487   3.346   3.461   1.365
 1826SOL    HW2 5488   3.306   3.313   1.421
 1827SOL     OW 5489   2.300   2.254   1.499
 1827SOL    HW1 5490   2.382   2.198   1.508
 1827SOL    HW2 5491   2.219   2.196   1.503
 1828SOL     OW 5492   3.465   2.309   0.737
 1828SOL    HW1 5493   3.391   2.355   0.687
 1828SOL    HW2 5494   3.516   2.377   0.790
 1829SOL     OW 5495   2.093   3.575   0.483
 1829SOL    HW1 5496   2.127   3.652   0.537
 1829SOL    HW2 5497   2.137   3.575   0.393
 1830SOL     OW 5498   2.989   3.203   1.690
 1830SOL    HW1 5499   3.036   3.203   1.778
 1830SOL    HW2 5500   2.941   3.116   1.679
 1831SOL     OW 5501   2.092   3.296   0.538
 1831SOL    HW1 5502   2.066   3.392   0.538
 1831SOL    HW2 5503   2.021   3.242   0.583
 1832SOL     OW 5504   2.102   2.953   0.886
 1832SOL    HW1 5505   2.116   2.869   0.938
 1832SOL    HW2 5506   2.047   3.017   0.941
 1833SOL     OW 5507   2.482   3.648   1.439
 1833SOL    HW1 5508   2.390   3.631   1.474
 1833SOL    HW2 5509   2.510   3.740   1.465
 1834SOL     OW 5510   2.468   2.826   0.123
 1834SOL    HW1 5511   2.475   2.910   0.069
 1834SOL    HW2 5512   2.514   2.839   0.211
 1835SOL     OW 5513   3.456   1.976   1.480
 1835SOL    HW1 5514   3.438   2.043   1.408
 1835SOL    HW2 5515   3.453   2.022   1.569
 1836SOL     OW 5516   1.984   2.505   0.563
 1836SOL    HW1 5517   1.939   2.417   0.580
 1836SOL    HW2 5518   1.983   2.559   0.647
 1837SOL     OW 5519   3.704   3.629   0.359
 1837SOL    HW1 5520   3.758   3.600   0.439
 1837SOL    HW2 5521   3.734   3.719   0.330
 1838SOL     OW 5522   1.889   3.458   0.117
 1838SOL    HW1 5523   1.870   3.362   0.138
 1838SOL    HW2 5524   1.856   3.516   0.192
 1839SOL     OW 5525   3.551   2.784   0.612
 1839SOL    HW1 5526   3.646   2.755   0.620
 1839SOL    HW2 5527   3.543   2.849   0.537
 1840SOL     OW 5528   3.503   2.970   0.432
 1840SOL    HW1 5529   3.589   2.972   0.380
 1840SOL    HW2 5530   3.517   3.017   0.520
 1841SOL     OW 5531   1.975   2.599   1.597
 1841SOL    HW1 5532   2.063   2.586   1.642
 1841SOL    HW2 5533   1.962   2.696   1.575
 1842SOL     OW 5534   2.475   3.227   0.726
 1842SOL    HW1 5535   2.426   3.140   0.735
 1842SOL    HW2 5536   2.452   3.270   0.639
 1843SOL     OW 5537   3.155   3.090   1.423
 1843SOL    HW1 5538   3.192   3.017   1.365
 1843SOL    HW2 5539   3.207   3.095   1.508
 1844SOL     OW 5540   2.671   1.866   0.502
 1844SOL    HW1 5541   2.711   1.957   0.493
 1844SOL    HW2 5542   2.571   1.874   0.508
 1845SOL     OW 5543   2.059   2.838   1.264
 1845SOL    HW1 5544   2.148   2.793   1.250
 1845SOL    HW2 5545   1.986   2.773   1.245
 1846SOL     OW 5546   3.387   2.861   0.190
 1846SOL    HW1 5547   3.324   2.785   0.203
 1846SOL    HW2 5548   3.435   2.879   0.276
 1847SOL     OW 5549   3.049   3.654   1.616
 1847SOL    HW1 5550   3.073   3.714   1.540
 1847SOL    HW2 5551   3.056   3.559   1.586
 1848SOL     OW 5552   2.179   2.113   1.801
 1848SOL    HW1 5553   2.250   2.184   1.807
 1848SOL    HW2 5554   2.091   2.152   1.829
 1849SOL     OW 5555   3.328   3.279   0.953
 1849SOL    HW1 5556   3.269   3.285   1.033
 1849SOL    HW2 5557   3.313   3.191   0.907
 1850SOL     OW 5558   3.529   3.576   0.572
 1850SOL    HW1 5559   3.488   3.553   0.484
 1850SOL    HW2 5560   3.511   3.502   0.637
 1851SOL     OW 5561   2.460   2.591   0.270
 1851SOL    HW1 5562   2.484   2.660   0.202
 1851SOL    HW2 5563   2.382   2.624   0.324
 1852SOL     OW 5564   3.143   2.207   0.944
 1852SOL    HW1 5565   3.057   2.157   0.931
 1852SOL    HW2 5566   3.205   2.153   1.000
 1853SOL     OW 5567   3.438   3.524   0.307
 1853SOL    HW1 5568   3.527   3.570   0.310
 1853SOL    HW2 5569   3.417   3.500   0.212
 1854SOL     OW 5570   2.669   2.467   1.465
 1854SOL    HW1 5571   2.622   2.464   1.554
 1854SOL    HW2 5572   2.618   2.412   1.399
 1855SOL     OW 5573   3.256   2.331   1.674
 1855SOL    HW1 5574   3.236   2.374   1.762
 1855SOL    HW2 5575   3.334   2.269   1.683
 1856SOL     OW 5576   2.835   2.752   1.572
 1856SOL    HW1 5577   2.881   2.668   1.543
 1856SOL    HW2 5578   2.779   2.786   1.497
 1857SOL     OW 5579   2.853   2.272   1.242
 1857SOL    HW1 5580   2.776   2.306   1.296
 1857SOL    HW2 5581   2.819   2.221   1.163
 1858SOL     OW 5582   2.903   2.563   0.429
 1858SOL    HW1 5583   2.929   2.559   0.525
 1858SOL    HW2 5584   2.818   2.512   0.415
 1859SOL     OW 5585   1.938   2.673   0.789
 1859SOL    HW1 5586   2.037   2.661   0.798
 1859SOL    HW2 5587   1.914   2.768   0.810
 1860SOL     OW 5588   1.992   3.683   1.571
 1860SOL    HW1 5589   1.982   3.668   1.670
 1860SOL    HW2 5590   1.906   3.719   1.535
 1861SOL     OW 5591   2.727   2.210   0.195
 1861SOL    HW1 5592   2.786   2.273   0.146
 1861SOL    HW2 5593   2.746   2.116   0.166
 1862SOL     OW 5594   3.581   2.447   1.831
 1862SOL    HW1 5595   3.555   2.536   1.795
 1862SOL    HW2 5596   3.579   2.379   1.758
 1863SOL     OW 5597   3.224   3.006   0.545
 1863SOL    HW1 5598   3.307   2.977   0.497
 1863SOL    HW2 5599   3.175   3.073   0.489
 1864SOL     OW 5600   2.412   2.058   0.885
 1864SOL    HW1 5601   2.407   2.053   0.985
 1864SOL    HW2 5602   2.414   2.154   0.856
 1865SOL     OW 5603   2.870   3.318   0.477
 1865SOL    HW1 5604   2.824   3.390   0.425
 1865SOL    HW2 5605   2.866   3.338   0.575
 1866SOL     OW 5606   2.213   3.663   0.853
 1866SOL    HW1 5607   2.263   3.577   0.859
 1866SOL    HW2 5608   2.278   3.740   0.850
 1867SOL     OW 5609   3.657   2.928   0.873
 1867SOL    HW1 5610   3.595   2.913   0.797
 1867SOL    HW2 5611   3.605   2.939   0.958
 1868SOL     OW 5612   3.089   3.412   1.506
 1868SOL    HW1 5613   3.095   3.335   1.570
 1868SOL    HW2 5614   3.037   3.386   1.426
 1869SOL     OW 5615   2.183   2.805   0.242
 1869SOL    HW1 5616   2.265   2.844   0.200
 1869SOL    HW2 5617   2.156   2.723   0.193
 1870SOL     OW 5618   3.320   2.597   0.728
 1870SOL    HW1 5619   3.315   2.532   0.803
 1870SOL    HW2 5620   3.400   2.656   0.741
 1871SOL     OW 5621   2.323   3.128   1.727
 1871SOL    HW1 5622   2.273   3.129   1.641
 1871SOL    HW2 5623   2.260   3.110   1.803
 1872SOL     OW 5624   2.973   3.638   0.237
 1872SOL    HW1 5625   2.913   3.576   0.287
 1872SOL    HW2 5626   3.004   3.594   0.152
 1873SOL     OW 5627   2.064   2.147   1.498
 1873SOL    HW1 5628   1.984   2.207   1.485
 1873SOL    HW2 5629   2.054   2.098   1.584
 1874SOL     OW 5630   3.494   3.239   0.081
 1874SOL    HW1 5631   3.462   3.333   0.071
 1874SOL    HW2 5632   3.418   3.176   0.069
 1875SOL     OW 5633   2.326   3.605   0.323
 1875SOL    HW1 5634   2.359   3.644   0.409
 1875SOL    HW2 5635   2.402   3.598   0.258
 1876SOL     OW 5636   3.262   1.969   0.426
 1876SOL    HW1 5637   3.238   1.932   0.336
 1876SOL    HW2 5638   3.361   1.985   0.430
 1877SOL     OW 5639   2.111   3.647   1.241
 1877SOL    HW1 5640   2.168   3.582   1.291
 1877SOL    HW2 5641   2.095   3.614   1.148
 1878SOL     OW 5642   2.802   3.560   0.904
 1878SOL    HW1 5643   2.882   3.503   0.925
 1878SOL    HW2 5644   2.753   3.520   0.827
 1879SOL     OW 5645   2.244   2.562   0.480
 1879SOL    HW1 5646   2.289   2.472   0.477
 1879SOL    HW2 5647   2.150   2.551   0.513
 1880SOL     OW 5648   3.409   2.084   1.729
 1880SOL    HW1 5649   3.404   2.121   1.821
 1880SOL    HW2 5650   3.337   2.015   1.717
 1881SOL     OW 5651   2.643   2.126   1.749
 1881SOL    HW1 5652   2.710   2.065   1.792
 1881SOL    HW2 5653   2.570   2.145   1.814
 1882SOL     OW 5654   2.750   3.376   1.195
 1882SOL    HW1 5655   2.727   3.351   1.101
 1882SOL    HW2 5656   2.811   3.307   1.234
 1883SOL     OW 5657   3.213   2.452   1.433
 1883SOL    HW1 5658   3.241   2.409   1.518
 1883SOL    HW2 5659   3.238   2.548   1.434
 1884SOL     OW 5660   2.665   3.264   0.924
 1884SOL    HW1 5661   2.755   3.278   0.882
 1884SOL    HW2 5662   2.594   3.266   0.853
 1885SOL     OW 5663   2.784   2.365   0.899
 1885SOL    HW1 5664   2.759   2.356   0.803
 1885SOL    HW2 5665   2.832   2.283   0.930
 1886SOL     OW 5666   2.401   1.926   0.512
 1886SOL    HW1 5667   2.320   1.927   0.570
 1886SOL    HW2 5668   2.404   2.009   0.457
 1887SOL     OW 5669   3.296   3.050   0.041
 1887SOL    HW1 5670   3.328   2.974   0.098
 1887SOL    HW2 5671   3.204   3.077   0.071
 1888SOL     OW 5672   2.159   1.897   0.171
 1888SOL    HW1 5673   2.208   1.981   0.150
 1888SOL    HW2 5674   2.221   1.832   0.216
 1889SOL     OW 5675   2.797   2.098   0.480
 1889SOL    HW1 5676   2.749   2.139   0.402
 1889SOL    HW2 5677   2.896   2.096   0.461
 1890SOL     OW 5678   2.938   2.545   1.464
 1890SOL    HW1 5679   2.858   2.484   1.467
 1890SOL    HW2 5680   3.019   2.492   1.440
 1891SOL     OW 5681   3.089   3.432   0.793
 1891SOL    HW1 5682   3.110   3.506   0.728
 1891SOL    HW2 5683   3.157   3.432   0.866
 1892SOL     OW 5684   2.321   3.014   0.741
 1892SOL    HW1 5685   2.250   2.987   0.806
 1892SOL    HW2 5686   2.295   2.986   0.648
 1893SOL     OW 5687   3.133   3.659   0.591
 1893SOL    HW1 5688   3.177   3.723   0.527
 1893SOL    HW2 5689   3.083   3.711   0.661
 1894SOL     OW 5690   2.894   2.411   0.016
 1894SOL    HW1 5691   2.853   2.493  -0.023
 1894SOL    HW2 5692   2.958   2.437   0.089
 1895SOL     OW 5693   1.940   2.418   1.386
 1895SOL    HW1 5694   2.032   2.417   1.345
 1895SOL    HW2 5695   1.934   2.492   1.453
 1896SOL     OW 5696   2.423   2.084   1.147
 1896SOL    HW1 5697   2.461   2.000   1.184
 1896SOL    HW2 5698   2.335   2.103   1.191
 1897SOL     OW 5699   2.728   2.316   0.642
 1897SOL    HW1 5700   2.696   2.388   0.580
 1897SOL    HW2 5701   2.752   2.235   0.589
 1898SOL     OW 5702   2.879   1.901   0.753
 1898SOL    HW1 5703   2.807   1.906   0.684
 1898SOL    HW2 5704   2.855   1.832   0.822
 1899SOL     OW 5705   3.291   3.035   0.867
 1899SOL    HW1 5706   3.236   2.951   0.860
 1899SOL    HW2 5707   3.317   3.064   0.775
 1900SOL     OW 5708   3.328   2.452   0.992
 1900SOL    HW1 5709   3.298   2.357   0.999
 1900SOL    HW2 5710   3.401   2.468   1.058
 1901SOL     OW 5711   3.719   2.695   0.377
 1901SOL    HW1 5712   3.761   2.631   0.441
 1901SOL    HW2 5713   3.681   2.644   0.299
 1902SOL     OW 5714   2.350   3.247   0.174
 1902SOL    HW1 5715   2.263   3.232   0.221
 1902SOL    HW2 5716   2.333   3.273   0.079
 1903SOL     OW 5717   3.526   3.142   0.657
 1903SOL    HW1 5718   3.625   3.150   0.671
 1903SOL    HW2 5719   3.481   3.226   0.688
 1904SOL     OW 5720   3.252   2.437   0.078
 1904SOL    HW1 5721   3.198   2.416   0.159
 1904SOL    HW2 5722   3.343   2.396   0.087
 1905SOL     OW 5723   2.389   2.118   0.328
 1905SOL    HW1 5724   2.416   2.059   0.253
 1905SOL    HW2 5725   2.389   2.213   0.297
 1906SOL     OW 5726   3.616   3.085   1.588
 1906SOL    HW1 5727   3.707   3.046   1.575
 1906SOL    HW2 5728   3.624   3.181   1.612
 1907SOL     OW 5729   2.926   3.209   1.340
 1907SOL    HW1 5730   2.846   3.186   1.395
 1907SOL    HW2 5731   3.009   3.183   1.389
 1908SOL     OW 5732   3.454   3.491   1.625
 1908SOL    HW1 5733   3.481   3.525   1.535
 1908SOL    HW2 5734   3.533   3.453   1.671
 1909SOL     OW 5735   2.973   3.057   1.100
 1909SOL    HW1 5736   2.933   3.101   1.181
 1909SOL    HW2 5737   2.932   3.094   1.017
 1910SOL     OW 5738   3.500   2.961   1.079
 1910SOL    HW1 5739   3.505   3.042   1.138
 1910SOL    HW2 5740   3.414   2.963   1.028
 1911SOL     OW 5741   2.777   1.951   1.402
 1911SOL    HW1 5742   2.802   1.931   1.307
 1911SOL    HW2 5743   2.849   2.007   1.444
 1912SOL     OW 5744   2.842   2.978   1.719
 1912SOL    HW1 5745   2.743   2.984   1.729
 1912SOL    HW2 5746   2.865   2.898   1.663
 1913SOL     OW 5747   2.567   2.912   0.368
 1913SOL    HW1 5748   2.553   2.919   0.467
 1913SOL    HW2 5749   2.651   2.861   0.350
 1914SOL     OW 5750   2.272   2.675   1.251
 1914SOL    HW1 5751   2.358   2.687   1.301
 1914SOL    HW2 5752   2.230   2.588   1.278
 1915SOL     OW 5753   3.136   2.248   1.262
 1915SOL    HW1 5754   3.157   2.322   1.326
 1915SOL    HW2 5755   3.047   2.265   1.219
 1916SOL     OW 5756   1.926   3.426   1.331
 1916SOL    HW1 5757   1.880   3.508   1.297
 1916SOL    HW2 5758   2.024   3.445   1.340
 1917SOL     OW 5759   2.229   2.962   0.501
 1917SOL    HW1 5760   2.222   3.045   0.445
 1917SOL    HW2 5761   2.233   2.882   0.441
 1918SOL     OW 5762   2.428   2.399   0.865
 1918SOL    HW1 5763   2.440   2.465   0.791
 1918SOL    HW2 5764   2.474   2.433   0.948
 1919SOL     OW 5765   3.114   3.210   0.388
 1919SOL    HW1 5766   3.164   3.287   0.428
 1919SOL    HW2 5767   3.019   3.212   0.420
 1920SOL     OW 5768   3.134   3.307   1.142
 1920SOL    HW1 5769   3.181   3.320   1.229
 1920SOL    HW2 5770   3.068   3.233   1.151
 1921SOL     OW 5771   3.444   2.501   0.472
 1921SOL    HW1 5772   3.413   2.562   0.545
 1921SOL    HW2 5773   3.494   2.553   0.403
 1922SOL     OW 5774   2.216   3.372   1.329
 1922SOL    HW1 5775   2.195   3.328   1.242
 1922SOL    HW2 5776   2.313   3.398   1.332
 1923SOL     OW 5777   2.264   2.613   1.598
 1923SOL    HW1 5778   2.332   2.668   1.551
 1923SOL    HW2 5779   2.304   2.525   1.625
 1924SOL     OW 5780   3.449   2.641   1.670
 1924SOL    HW1 5781   3.357   2.679   1.665
 1924SOL    HW2 5782   3.509   2.688   1.605
 1925SOL     OW 5783   2.875   1.967   1.770
 1925SOL    HW1 5784   2.881   2.052   1.718
 1925SOL    HW2 5785   2.907   1.891   1.713
 1926SOL     OW 5786   2.366   1.912   1.740
 1926SOL    HW1 5787   2.324   1.855   1.670
 1926SOL    HW2 5788   2.300   1.981   1.772
 1927SOL     OW 5789   2.435   2.732   1.029
 1927SOL    HW1 5790   2.479   2.821   1.020
 1927SOL    HW2 5791   2.372   2.732   1.106
 1928SOL     OW 5792   3.222   2.724   1.045
 1928SOL    HW1 5793   3.147   2.724   0.979
 1928SOL    HW2 5794   3.259   2.632   1.054
 1929SOL     OW 5795   3.071   2.387   0.275
 1929SOL    HW1 5796   3.084   2.303   0.329
 1929SOL    HW2 5797   3.042   2.461   0.335
 1930SOL     OW 5798   2.169   2.075   1.231
 1930SOL    HW1 5799   2.146   2.112   1.321
 1930SOL    HW2 5800   2.139   1.980   1.225
 1931SOL     OW 5801   1.899   3.172   1.282
 1931SOL    HW1 5802   1.952   3.123   1.350
 1931SOL    HW2 5803   1.921   3.270   1.287
 1932SOL     OW 5804   2.594   2.496   1.064
 1932SOL    HW1 5805   2.653   2.470   0.988
 1932SOL    HW2 5806   2.566   2.592   1.053
 1933SOL     OW 5807   3.590   2.797   1.854
 1933SOL    HW1 5808   3.544   2.790   1.765
 1933SOL    HW2 5809   3.528   2.841   1.920
 1934SOL     OW 5810   2.169   1.925   0.618
 1934SOL    HW1 5811   2.158   2.019   0.651
 1934SOL    HW2 5812   2.164   1.862   0.695
 1935SOL     OW 5813   3.484   2.229   0.374
 1935SOL    HW1 5814   3.486   2.153   0.438
 1935SOL    HW2 5815   3.436   2.306   0.414
 1936SOL     OW 5816   2.885   2.628   0.966
 1936SOL    HW1 5817   2.900   2.649   1.062
 1936SOL    HW2 5818   2.855   2.533   0.957
 1937SOL     OW 5819   2.842   3.435   1.700
 1937SOL    HW1 5820   2.822   3.479   1.612
 1937SOL    HW2 5821   2.881   3.344   1.684
 1938SOL     OW 5822   3.721   3.380   1.605
 1938SOL    HW1 5823   3.735   3.407   1.510
 1938SOL    HW2 5824   3.804   3.402   1.658
 1939SOL     OW 5825   2.212   2.760   1.804
 1939SOL    HW1 5826   2.288   2.804   1.852
 1939SOL    HW2 5827   2.247   2.713   1.722
 1940SOL     OW 5828   3.402   2.136   0.125
 1940SOL    HW1 5829   3.341   2.061   0.148
 1940SOL    HW2 5830   3.424   2.188   0.208
 1941SOL     OW 5831   3.165   2.700   0.042
 1941SOL    HW1 5832   3.199   2.607   0.057
 1941SOL    HW2 5833   3.183   2.727  -0.053
 1942SOL     OW 5834   2.930   3.195   0.849
 1942SOL    HW1 5835   2.937   3.111   0.794
 1942SOL    HW2 5836   2.992   3.264   0.813
 1943SOL     OW 5837   2.181   2.672   0.949
 1943SOL    HW1 5838   2.274   2.708   0.954
 1943SOL    HW2 5839   2.175   2.587   1.001
 1944SOL     OW 5840   2.201   2.371   1.006
 1944SOL    HW1 5841   2.149   2.288   0.989
 1944SOL    HW2 5842   2.278   2.376   0.942
 1945SOL     OW 5843   3.000   2.242   1.678
 1945SOL    HW1 5844   2.955   2.305   1.742
 1945SOL    HW2 5845   3.093   2.273   1.661
 1946SOL     OW 5846   3.022   2.069   1.477
 1946SOL    HW1 5847   3.022   2.133   1.554
 1946SOL    HW2 5848   3.050   2.117   1.394
 1947SOL     OW 5849   1.870   3.188   0.200
 1947SOL    HW1 5850   1.777   3.209   0.169
 1947SOL    HW2 5851   1.880   3.089   0.213
 1948SOL     OW 5852   1.950   3.663   0.927
 1948SOL    HW1 5853   1.908   3.577   0.900
 1948SOL    HW2 5854   2.044   3.666   0.893
 1949SOL     OW 5855   2.366   3.430   0.910
 1949SOL    HW1 5856   2.432   3.504   0.919
 1949SOL    HW2 5857   2.410   3.351   0.868
 1950SOL     OW 5858   2.864   2.658   1.238
 1950SOL    HW1 5859   2.905   2.626   1.324
 1950SOL    HW2 5860   2.768   2.631   1.235
 1951SOL     OW 5861   1.902   2.406   1.114
 1951SOL    HW1 5862   1.987   2.373   1.073
 1951SOL    HW2 5863   1.915   2.421   1.212
 1952SOL     OW 5864   2.051   2.382   1.722
 1952SOL    HW1 5865   2.110   2.342   1.652
 1952SOL    HW2 5866   1.993   2.453   1.681
 1953SOL     OW 5867   3.231   2.812   1.660
 1953SOL    HW1 5868   3.270   2.901   1.680
 1953SOL    HW2 5869   3.241   2.792   1.563
 1954SOL     OW 5870   2.677   2.434   0.325
 1954SOL    HW1 5871   2.684   2.345   0.279
 1954SOL    HW2 5872   2.583   2.468   0.317
 1955SOL     OW 5873   3.519   2.466   1.206
 1955SOL    HW1 5874   3.481   2.397   1.268
 1955SOL    HW2 5875   3.601   2.430   1.162
 1956SOL     OW 5876   2.114   3.426   1.744
 1956SOL    HW1 5877   2.084   3.483   1.820
 1956SOL    HW2 5878   2.107   3.329   1.770
 1957SOL     OW 5879   2.533   2.326   1.269
 1957SOL    HW1 5880   2.499   2.237   1.239
 1957SOL    HW2 5881   2.559   2.380   1.189
 1958SOL     OW 5882   2.792   3.540   1.465
 1958SOL    HW1 5883   2.768   3.522   1.370
 1958SOL    HW2 5884   2.822   3.634   1.475
 1959SOL     OW 5885   2.335   2.362   0.191
 1959SOL    HW1 5886   2.396   2.442   0.195
 1959SOL    HW2 5887   2.240   2.393   0.198
 1960SOL     OW 5888   2.021   2.999   1.466
 1960SOL    HW1 5889   2.043   2.938   1.542
 1960SOL    HW2 5890   2.031   2.950   1.380
 1961SOL     OW 5891   3.209   2.921   1.234
 1961SOL    HW1 5892   3.233   2.858   1.160
 1961SOL    HW2 5893   3.119   2.961   1.216
 1962SOL     OW 5894   3.164   2.717   0.309
 1962SOL    HW1 5895   3.078   2.686   0.351
 1962SOL    HW2 5896   3.160   2.703   0.210
 1963SOL     OW 5897   3.621   3.609   1.154
 1963SOL    HW1 5898   3.682   3.639   1.081
 1963SOL    HW2 5899   3.583   3.520   1.132
 1964SOL     OW 5900   3.114   3.593   1.128
 1964SOL    HW1 5901   3.198   3.598   1.074
 1964SOL    HW2 5902   3.091   3.497   1.146
 1965SOL     OW 5903   1.945   3.120   1.022
 1965SOL    HW1 5904   1.940   3.119   1.122
 1965SOL    HW2 5905   1.862   3.079   0.984
 1966SOL     OW 5906   2.550   3.524   1.716
 1966SOL    HW1 5907   2.494   3.605   1.725
 1966SOL    HW2 5908   2.602   3.528   1.630
 1967SOL     OW 5909   2.765   1.948   0.133
 1967SOL    HW1 5910   2.816   1.949   0.047
 1967SOL    HW2 5911   2.821   1.906   0.204
 1968SOL     OW 5912   3.588   1.997   0.523
 1968SOL    HW1 5913   3.661   1.980   0.456
 1968SOL    HW2 5914   3.557   1.910   0.561
 1969SOL     OW 5915   3.250   3.435   0.477
 1969SOL    HW1 5916   3.317   3.447   0.403
 1969SOL    HW2 5917   3.210   3.524   0.500
 1970SOL     OW 5918   1.992   3.656   1.851
 1970SOL    HW1 5919   1.951   3.582   1.904
 1970SOL    HW2 5920   2.056   3.707   1.909
 1971SOL     OW 5921   3.142   2.789   0.672
 1971SOL    HW1 5922   3.202   2.708   0.674
 1971SOL    HW2 5923   3.182   2.858   0.612
 1972SOL     OW 5924   2.692   3.135   1.422
 1972SOL    HW1 5925   2.687   3.168   1.517
 1972SOL    HW2 5926   2.606   3.154   1.376
 1973SOL     OW 5927   2.534   3.478   0.154
 1973SOL    HW1 5928   2.543   3.488   0.055
 1973SOL    HW2 5929   2.494   3.389   0.175
 1974SOL     OW 5930   3.512   3.582   1.394
 1974SOL    HW1 5931   3.565   3.592   1.310
 1974SOL    HW2 5932   3.485   3.672   1.428
 1975SOL     OW 5933   3.703   2.037   0.963
 1975SOL    HW1 5934   3.742   1.952   0.927
 1975SOL    HW2 5935   3.605   2.039   0.944
 1976SOL     OW 5936   2.125   2.188   0.720
 1976SOL    HW1 5937   2.046   2.239   0.686
 1976SOL    HW2 5938   2.116   2.173   0.818
 1977SOL     OW 5939   3.056   3.474   0.031
 1977SOL    HW1 5940   3.062   3.381   0.068
 1977SOL    HW2 5941   2.997   3.474  -0.049
 1978SOL     OW 5942   2.684   2.864   1.372
 1978SOL    HW1 5943   2.724   2.863   1.280
 1978SOL    HW2 5944   2.694   2.956   1.412
 1979SOL     OW 5945   2.778   2.772   0.291
 1979SOL    HW1 5946   2.841   2.810   0.223
 1979SOL    HW2 5947   2.818   2.689   0.330
 1980SOL     OW 5948   3.366   3.469   0.044
 1980SOL    HW1 5949   3.274   3.506   0.051
 1980SOL    HW2 5950   3.404   3.489  -0.046
 1981SOL     OW 5951   2.234   3.150   1.490
 1981SOL    HW1 5952   2.221   3.243   1.456
 1981SOL    HW2 5953   2.150   3.098   1.477
 1982SOL     OW 5954   3.476   3.154   1.289
 1982SOL    HW1 5955   3.536   3.157   1.369
 1982SOL    HW2 5956   3.401   3.218   1.302
 1983SOL     OW 5957   2.901   2.960   0.696
 1983SOL    HW1 5958   2.831   2.913   0.750
 1983SOL    HW2 5959   2.960   2.892   0.653
 1984SOL     OW 5960   2.876   2.098   0.971
 1984SOL    HW1 5961   2.868   2.062   0.878
 1984SOL    HW2 5962   2.874   2.022   1.036
 1985SOL     OW 5963   2.452   3.349   0.491
 1985SOL    HW1 5964   2.494   3.291   0.421
 1985SOL    HW2 5965   2.408   3.428   0.447
 1986SOL     OW 5966   3.571   2.247   1.381
 1986SOL    HW1 5967   3.644   2.316   1.385
 1986SOL    HW2 5968   3.599   2.172   1.322
 1987SOL     OW 5969   2.117   3.210   0.290
 1987SOL    HW1 5970   2.021   3.211   0.263
 1987SOL    HW2 5971   2.129   3.263   0.374
 1988SOL     OW 5972   1.967   2.875   1.726
 1988SOL    HW1 5973   1.890   2.842   1.780
 1988SOL    HW2 5974   2.052   2.845   1.768
 1989SOL     OW 5975   2.534   2.065   1.489
 1989SOL    HW1 5976   2.624   2.049   1.449
 1989SOL    HW2 5977   2.542   2.070   1.588
 1990SOL     OW 5978   1.937   2.207   0.033
 1990SOL    HW1 5979   1.845   2.179   0.004
 1990SOL    HW2 5980   1.968   2.284  -0.023
 1991SOL     OW 5981   3.302   2.718   1.398
 1991SOL    HW1 5982   3.245   2.770   1.335
 1991SOL    HW2 5983   3.398   2.730   1.374
 1992SOL     OW 5984   1.934   2.028   0.318
 1992SOL    HW1 5985   1.917   2.111   0.264
 1992SOL    HW2 5986   2.024   1.991   0.296
 1993SOL     OW 5987   3.045   3.197   0.119
 1993SOL    HW1 5988   2.946   3.186   0.121
 1993SOL    HW2 5989   3.079   3.212   0.212
 1994SOL     OW 5990   2.475   2.704   1.431
 1994SOL    HW1 5991   2.531   2.785   1.414
 1994SOL    HW2 5992   2.534   2.624   1.434
 1995SOL     OW 5993   3.355   3.629   0.959
 1995SOL    HW1 5994   3.388   3.693   0.890
 1995SOL    HW2 5995   3.421   3.623   1.034
 1996SOL     OW 5996   2.578   2.427   1.708
 1996SOL    HW1 5997   2.597   2.492   1.782
 1996SOL    HW2 5998   2.638   2.347   1.717
 1997SOL     OW 5999   3.312   3.082   1.633
 1997SOL    HW1 6000   3.303   3.072   1.732
 1997SOL    HW2 6001   3.408   3.075   1.607
 1998SOL     OW 6002   2.252   3.603   1.560
 1998SOL    HW1 6003   2.161   3.644   1.558
 1998SOL    HW2 6004   2.245   3.509   1.592
 1999SOL     OW 6005   3.536   2.745   1.254
 1999SOL    HW1 6006   3.509   2.656   1.217
 1999SOL    HW2 6007   3.537   2.813   1.181
 2000SOL     OW 6008   3.087   2.187   0.449
 2000SOL    HW1 6009   3.152   2.113   0.438
 2000SOL    HW2 6010   3.107   2.237   0.533
 2001SOL     OW 6011   2.456   2.607   0.652
 2001SOL    HW1 6012   2.506   2.692   0.633
 2001SOL    HW2 6013   2.368   2.609   0.604
 2002SOL     OW 6014   3.639   2.204   1.642
 2002SOL    HW1 6015   3.622   2.235   1.548
 2002SOL    HW2 6016   3.555   2.167   1.680
 2003SOL     OW 6017   3.592   2.796   1.517
 2003SOL    HW1 6018   3.630   2.887   1.532
 2003SOL    HW2 6019   3.584   2.779   1.418
 2004SOL     OW 6020   2.721   3.236   0.016
 2004SOL    HW1 6021   2.675   3.251   0.104
 2004SOL    HW2 6022   2.765   3.321  -0.014
 2005SOL     OW 6023   2.523   3.652   0.953
 2005SOL    HW1 6024   2.477   3.740   0.940
 2005SOL    HW2 6025   2.622   3.664   0.946
 2006SOL     OW 6026   2.721   2.818   0.861
 2006SOL    HW1 6027   2.775   2.749   0.909
 2006SOL    HW2 6028   2.689   2.887   0.927
 2007SOL     OW 6029   2.945   2.846   0.087
 2007SOL    HW1 6030   2.922   2.899   0.005
 2007SOL    HW2 6031   3.026   2.790   0.068
 2008SOL     OW 6032   3.723   3.431   0.851
 2008SOL    HW1 6033   3.652   3.419   0.781
 2008SOL    HW2 6034   3.724   3.352   0.911
 2009SOL     OW 6035   2.083   3.176   1.844
 2009SOL    HW1 6036   2.018   3.103   1.823
 2009SOL    HW2 6037   2.087   3.190   1.942
 2010SOL     OW 6038   1.941   3.102   0.653
 2010SOL    HW1 6039   1.940   3.055   0.741
 2010SOL    HW2 6040   2.023   3.074   0.602
 2011SOL     OW 6041   2.534   3.253   1.624
 2011SOL    HW1 6042   2.456   3.203   1.662
 2011SOL    HW2 6043   2.531   3.348   1.655
 2012SOL     OW 6044   3.686   2.054   1.227
 2012SOL    HW1 6045   3.682   1.964   1.271
 2012SOL    HW2 6046   3.689   2.043   1.128
 2013SOL     OW 6047   2.290   2.286   0.520
 2013SOL    HW1 6048   2.320   2.214   0.458
 2013SOL    HW2 6049   2.251   2.246   0.603
 2014SOL     OW 6050   3.567   3.349   1.104
 2014SOL    HW1 6051   3.474   3.324   1.077
 2014SOL    HW2 6052   3.593   3.299   1.186
 2015SOL     OW 6053   2.179   2.409   1.280
 2015SOL    HW1 6054   2.217   2.350   1.352
 2015SOL    HW2 6055   2.219   2.383   1.192
 2016SOL     OW 6056   2.674   3.448   0.687
 2016SOL    HW1 6057   2.706   3.458   0.593
 2016SOL    HW2 6058   2.595   3.386   0.689
 2017SOL     OW 6059   3.286   2.076   1.112
 2017SOL    HW1 6060   3.338   2.011   1.167
 2017SOL    HW2 6061   3.237   2.139   1.173
 2018SOL     OW 6062   2.863   1.896   1.154
 2018SOL    HW1 6063   2.800   1.824   1.123
 2018SOL    HW2 6064   2.956   1.860   1.154
 2019SOL     OW 6065   2.632   3.192   0.301
 2019SOL    HW1 6066   2.586   3.105   0.318
 2019SOL    HW2 6067   2.723   3.189   0.342
 2020SOL     OW 6068   2.480   3.429   1.284
 2020SOL    HW1 6069   2.475   3.511   1.341
 2020SOL    HW2 6070   2.569   3.426   1.239
 2021SOL     OW 6071   3.214   1.914   0.168
 2021SOL    HW1 6072   3.249   1.873   0.084
 2021SOL    HW2 6073   3.124   1.876   0.188
 2022SOL     OW 6074   3.162   2.315   0.691
 2022SOL    HW1 6075   3.103   2.395   0.695
 2022SOL    HW2 6076   3.177   2.280   0.784
 2023SOL     OW 6077   3.455   2.083   0.882
 2023SOL    HW1 6078   3.371   2.082   0.936
 2023SOL    HW2 6079   3.457   2.166   0.826
 2024SOL     OW 6080   1.901   2.939   0.300
 2024SOL    HW1 6081   2.000   2.928   0.291
 2024SOL    HW2 6082   1.861   2.853   0.332
 2025SOL     OW 6083   2.737   3.508   0.337
 2025SOL    HW1 6084   2.660   3.473   0.283
 2025SOL    HW2 6085   2.705   3.579   0.399
 2026SOL     OW 6086   2.092   2.490   1.975
 2026SOL    HW1 6087   1.999   2.488   2.012
 2026SOL    HW2 6088   2.093   2.451   1.883
 2027SOL     OW 6089   2.087   2.137   2.858
 2027SOL    HW1 6090   2.122   2.120   2.950
 2027SOL    HW2 6091   1.999   2.092   2.846
 2028SOL     OW 6092   1.881   2.230   2.509
 2028SOL    HW1 6093   1.799   2.273   2.548
 2028SOL    HW2 6094   1.853   2.157   2.446
 2029SOL     OW 6095   2.431   3.137   3.027
 2029SOL    HW1 6096   2.338   3.130   2.990
 2029SOL    HW2 6097   2.442   3.226   3.071
 2030SOL     OW 6098   3.417   3.373   2.565
 2030SOL    HW1 6099   3.360   3.357   2.646
 2030SOL    HW2 6100   3.358   3.383   2.485
 2031SOL     OW 6101   2.997   2.565   2.579
 2031SOL    HW1 6102   3.054   2.643   2.554
 2031SOL    HW2 6103   2.937   2.591   2.655
 2032SOL     OW 6104   3.617   2.469   2.093
 2032SOL    HW1 6105   3.605   2.456   1.994
 2032SOL    HW2 6106   3.587   2.388   2.142
 2033SOL     OW 6107   2.630   3.006   2.885
 2033SOL    HW1 6108   2.552   3.023   2.945
 2033SOL    HW2 6109   2.664   3.093   2.849
 2034SOL     OW 6110   2.712   2.660   3.685
 2034SOL    HW1 6111   2.708   2.736   3.750
 2034SOL    HW2 6112   2.734   2.696   3.594
 2035SOL     OW 6113   2.547   2.874   2.527
 2035SOL    HW1 6114   2.616   2.858   2.597
 2035SOL    HW2 6115   2.474   2.931   2.565
 2036SOL     OW 6116   2.548   3.023   3.665
 2036SOL    HW1 6117   2.608   3.102   3.679
 2036SOL    HW2 6118   2.462   3.054   3.624
 2037SOL     OW 6119   2.197   3.297   2.923
 2037SOL    HW1 6120   2.119   3.266   2.870
 2037SOL    HW2 6121   2.255   3.355   2.866
 2038SOL     OW 6122   3.322   3.367   3.201
 2038SOL    HW1 6123   3.346   3.461   3.227
 2038SOL    HW2 6124   3.306   3.313   3.283
 2039SOL     OW 6125   2.300   2.254   3.361
 2039SOL    HW1 6126   2.382   2.198   3.370
 2039SOL    HW2 6127   2.219   2.196   3.365
 2040SOL     OW 6128   3.465   2.309   2.599
 2040SOL    HW1 6129   3.391   2.355   2.549
 2040SOL    HW2 6130   3.516   2.377   2.652
 2041SOL     OW 6131   2.093   3.575   2.345
 2041SOL    HW1 6132   2.127   3.652   2.399
 2041SOL    HW2 6133   2.137   3.575   2.255
 2042SOL     OW 6134   2.989   3.203   3.552
 2042SOL    HW1 6135   3.036   3.203   3.640
 2042SOL    HW2 6136   2.941   3.116   3.541
 2043SOL     OW 6137   2.092   3.296   2.400
 2043SOL    HW1 6138   2.066   3.392   2.400
 2043SOL    HW2 6139   2.021   3.242   2.445
 2044SOL     OW 6140   2.102   2.953   2.748
 2044SOL    HW1 6141   2.116   2.869   2.800
 2044SOL    HW2 6142   2.047   3.017   2.803
 2045SOL     OW 6143   2.482   3.648   3.301
 2045SOL    HW1 6144   2.390   3.631   3.336
 2045SOL    HW2 6145   2.510   3.740   3.327
 2046SOL     OW 6146   2.468   2.826   1.985
 2046SOL    HW1 6147   2.475   2.910   1.931
 2046SOL    HW2 6148   2.514   2.839   2.073
 2047SOL     OW 6149   3.456   1.976   3.342
 2047SOL    HW1 6150   3.438   2.043   3.270
 2047SOL    HW2 6151   3.453   2.022   3.431
 2048SOL     OW 6152   1.984   2.505   2.425
 2048SOL    HW1 6153   1.939   2.417   2.442
 2048SOL    HW2 6154   1.983   2.559   2.509
 2049SOL     OW 6155   3.704   3.629   2.221
 2049SOL    HW1 6156   3.758   3.600   2.301
 2049SOL    HW2 6157   3.734   3.719   2.192
 2050SOL     OW 6158   1.889   3.458   1.979
 2050SOL    HW1 6159   1.870   3.362   2.000
 2050SOL    HW2 6160   1.856   3.516   2.054
 2051SOL     OW 6161   3.551   2.784   2.474
 2051SOL    HW1 6162   3.646   2.755   2.482
 2051SOL    HW2 6163   3.543   2.849   2.399
 2052SOL     OW 6164   3.503   2.970   2.294
 2052SOL    HW1 6165   3.589   2.972   2.242
 2052SOL    HW2 6166   3.517   3.017   2.382
 2053SOL     OW 6167   1.975   2.599   3.459
 2053SOL    HW1 6168   2.063   2.586   3.504
 2053SOL    HW2 6169   1.962   2.696   3.437
 2054SOL     OW 6170   2.475   3.227   2.588
 2054SOL    HW1 6171   2.426   3.140   2.597
 2054SOL    HW2 6172   2.452   3.270   2.501
 2055SOL     OW 6173   3.155   3.090   3.285
 2055SOL    HW1 6174   3.192   3.017   3.227
 2055SOL    HW2 6175   3.207   3.095   3.370
 2056SOL     OW 6176   2.671   1.866   2.364
 2056SOL    HW1 6177   2.711   1.957   2.355
 2056SOL    HW2 6178   2.571   1.874   2.370
 2057SOL     OW 6179   2.059   2.838   3.126
 2057SOL    HW1 6180   2.148   2.793   3.112
 2057SOL    HW2 6181   1.986   2.773   3.107
 2058SOL     OW 6182   3.387   2.861   2.052
 2058SOL    HW1 6183   3.324   2.785   2.065
 2058SOL    HW2 6184   3.435   2.879   2.138
 2059SOL     OW 6185   3.049   3.654   3.478
 2059SOL    HW1 6186   3.073   3.714   3.402
 2059SOL    HW2 6187   3.056   3.559   3.448
 2060SOL     OW 6188   2.179   2.113   3.663
 2060SOL    HW1 6189   2.250   2.184   3.669
 2060SOL    HW2 6190   2.091   2.152   3.691
 2061SOL     OW 6191   3.328   3.279   2.815
 2061SOL    HW1 6192   3.269   3.285   2.895
 2061SOL    HW2 6193   3.313   3.191   2.769
 2062SOL     OW 6194   3.529   3.576   2.434
 2062SOL    HW1 6195   3.488   3.553   2.346
 2062SOL    HW2 6196   3.511   3.502   2.499
 2063SOL     OW 6197   2.460   2.591   2.132
 2063SOL    HW1 6198   2.484   2.660   2.064
 2063SOL    HW2 6199   2.382   2.624   2.186
 2064SOL     OW 6200   3.143   2.207   2.806
 2064SOL    HW1 6201   3.057   2.157   2.793
 2064SOL    HW2 6202   3.205   2.153   2.862
 2065SOL     OW 6203   3.438   3.524   2.169
 2065SOL    HW1 6204   3.527   3.570   2.172
 2065SOL    HW2 6205   3.417   3.500   2.074
 2066SOL     OW 6206   2.669   2.467   3.327
 2066SOL    HW1 6207   2.622   2.464   3.416
 2066SOL    HW2 6208   2.618   2.412   3.261
 2067SOL     OW 6209   3.256   2.331   3.536
 2067SOL    HW1 6210   3.236   2.374   3.624
 2067SOL    HW2 6211   3.334   2.269   3.545
 2068SOL     OW 6212   2.835   2.752   3.434
 2068SOL    HW1 6213   2.881   2.668   3.405
 2068SOL    HW2 6214   2.779   2.786   3.359
 2069SOL     OW 6215   2.853   2.272   3.104
 2069SOL    HW1 6216   2.776   2.306   3.158
 2069SOL    HW2 6217   2.819   2.221   3.025
 2070SOL     OW 6218   2.903   2.563   2.291
 2070SOL    HW1 6219   2.929   2.559   2.387
 2070SOL    HW2 6220   2.818   2.512   2.277
 2071SOL     OW 6221   1.938   2.673   2.651
 2071SOL    HW1 6222   2.037   2.661   2.660
 2071SOL    HW2 6223   1.914   2.768   2.672
 2072SOL     OW 6224   1.992   3.683   3.433
 2072SOL    HW1 6225   1.982   3.668   3.532
 2072SOL    HW2 6226   1.906   3.719   3.397
 2073SOL     OW 6227   2.727   2.210   2.057
 2073SOL    HW1 6228   2.786   2.273   2.008
 2073SOL    HW2 6229   2.746   2.116   2.028
 2074SOL     OW 6230   3.581   2.447   3.693
 2074SOL    HW1 6231   3.555   2.536   3.657
 2074SOL    HW2 6232   3.579   2.379   3.620
 2075SOL     OW 6233   3.224   3.006   2.407
 2075SOL    HW1 6234   3.307   2.977   2.359
 2075SOL    HW2 6235   3.175   3.073   2.351
 2076SOL     OW 6236   2.412   2.058   2.747
 2076SOL    HW1 6237   2.407   2.053   2.847
 2076SOL    HW2 6238   2.414   2.154   2.718
 2077SOL     OW 6239   2.870   3.318   2.339
 2077SOL    HW1 6240   2.824   3.390   2.287
 2077SOL    HW2 6241   2.866   3.338   2.437
 2078SOL     OW 6242   2.213   3.663   2.715
 2078SOL    HW1 6243   2.263   3.577   2.721
 2078SOL    HW2 6244   2.278   3.740   2.712
 2079SOL     OW 6245   3.657   2.928   2.735
 2079SOL    HW1 6246   3.595   2.913   2.659
 2079SOL    HW2 6247   3.605   2.939   2.820
 2080SOL     OW 6248   3.089   3.412   3.368
 2080SOL    HW1 6249   3.095   3.335   3.432
 2080SOL    HW2 6250   3.037   3.386   3.288
 2081SOL     OW 6251   2.183   2.805   2.104
 2081SOL    HW1 6252   2.265   2.844   2.062
 2081SOL    HW2 6253   2.156   2.723   2.055
 2082SOL     OW 6254   3.320   2.597   2.590
 2082SOL    HW1 6255   3.315   2.532   2.665
 2082SOL    HW2 6256   3.400   2.656   2.603
 2083SOL     OW 6257   2.323   3.128   3.589
 2083SOL    HW1 6258   2.273   3.129   3.503
 2083SOL    HW2 6259   2.260   3.110   3.665
 2084SOL     OW 6260   2.973   3.638   2.099
 2084SOL    HW1 6261   2.913   3.576   2.149
 2084SOL    HW2 6262   3.004   3.594   2.014
 2085SOL     OW 6263   2.064   2.147   3.360
 2085SOL    HW1 6264   1.984   2.207   3.347
 2085SOL    HW2 6265   2.054   2.098   3.446
 2086SOL     OW 6266   3.494   3.239   1.943
 2086SOL    HW1 6267   3.462   3.333   1.933
 2086SOL    HW2 6268   3.418   3.176   1.931
 2087SOL     OW 6269   2.326   3.605   2.185
 2087SOL    HW1 6270   2.359   3.644   2.271
 2087SOL    HW2 6271   2.402   3.598   2.120
 2088SOL     OW 6272   3.262   1.969   2.288
 2088SOL    HW1 6273   3.238   1.932   2.198
 2088SOL    HW2 6274   3.361   1.985   2.292
 2089SOL     OW 6275   2.111   3.647   3.103
 2089SOL    HW1 6276   2.168   3.582   3.153
 2089SOL    HW2 6277   2.095   3.614   3.010
 2090SOL     OW 6278   2.802   3.560   2.766
 2090SOL    HW1 6279   2.882   3.503   2.787
 2090SOL    HW2 6280   2.753   3.520   2.689
 2091SOL     OW 6281   3.409   2.084   3.591
 2091SOL    HW1 6282   3.404   2.121   3.683
 2091SOL    HW2 6283   3.337   2.015   3.579
 2092SOL     OW 6284   2.476   1.984   1.979
 2092SOL    HW1 6285   2.574   1.962   1.986
 2092SOL    HW2 6286   2.445   1.967   1.886
 2093SOL     OW 6287   2.643   2.126   3.611
 2093SOL    HW1 6288   2.710   2.065   3.654
 2093SOL    HW2 6289   2.570   2.145   3.676
 2094SOL     OW 6290   2.750   3.376   3.057
 2094SOL    HW1 6291   2.727   3.351   2.963
 2094SOL    HW2 6292   2.811   3.307   3.096
 2095SOL     OW 6293   3.213   2.452   3.295
 2095SOL    HW1 6294   3.241   2.409   3.380
 2095SOL    HW2 6295   3.238   2.548   3.296
 2096SOL     OW 6296   2.665   3.264   2.786
 2096SOL    HW1 6297   2.755   3.278   2.744
 2096SOL    HW2 6298   2.594   3.266   2.715
 2097SOL     OW 6299   2.784   2.365   2.761
 2097SOL    HW1 6300   2.759   2.356   2.665
 2097SOL    HW2 6301   2.832   2.283   2.792
 2098SOL     OW 6302   2.401   1.926   2.374
 2098SOL    HW1 6303   2.320   1.927   2.432
 2098SOL    HW2 6304   2.404   2.009   2.319
 2099SOL     OW 6305   3.296   3.050   1.903
 2099SOL    HW1 6306   3.328   2.974   1.960
 2099SOL    HW2 6307   3.204   3.077   1.933
 2100SOL     OW 6308   2.159   1.897   2.033
 2100SOL    HW1 6309   2.208   1.981   2.012
 2100SOL    HW2 6310   2.221   1.832   2.078
 2101SOL     OW 6311   2.797   2.098   2.342
 2101SOL    HW1 6312   2.749   2.139   2.264
 2101SOL    HW2 6313   2.896   2.096   2.323
 2102SOL     OW 6314   2.938   2.545   3.326
 2102SOL    HW1 6315   2.858   2.484   3.329
 2102SOL    HW2 6316   3.019   2.492   3.302
 2103SOL     OW 6317   3.089   3.432   2.655
 2103SOL    HW1 6318   3.110   3.506   2.590
 2103SOL    HW2 6319   3.157   3.432   2.728
 2104SOL     OW 6320   2.321   3.014   2.603
 2104SOL    HW1 6321   2.250   2.987   2.668
 2104SOL    HW2 6322   2.295   2.986   2.510
 2105SOL     OW 6323   3.133   3.659   2.453
 2105SOL    HW1 6324   3.177   3.723   2.389
 2105SOL    HW2 6325   3.083   3.711   2.523
 2106SOL     OW 6326   2.894   2.411   1.878
 2106SOL    HW1 6327   2.853   2.493   1.839
 2106SOL    HW2 6328   2.958   2.437   1.951
 2107SOL     OW 6329   1.940   2.418   3.248
 2107SOL    HW1 6330   2.032   2.417   3.207
 2107SOL    HW2 6331   1.934   2.492   3.315
 2108SOL     OW 6332   2.423   2.084   3.009
 2108SOL    HW1 6333   2.461   2.000   3.046
 2108SOL    HW2 6334   2.335   2.103   3.053
 2109SOL     OW 6335   2.728   2.316   2.504
 2109SOL    HW1 6336   2.696   2.388   2.442
 2109SOL    HW2 6337   2.752   2.235   2.451
 2110SOL     OW 6338   2.879   1.901   2.615
 2110SOL    HW1 6339   2.807   1.906   2.546
 2110SOL    HW2 6340   2.855   1.832   2.684
 2111SOL     OW 6341   3.291   3.035   2.729
 2111SOL    HW1 6342   3.236   2.951   2.722
 2111SOL    HW2 6343   3.317   3.064   2.637
 2112SOL     OW 6344   3.328   2.452   2.854
 2112SOL    HW1 6345   3.298   2.357   2.861
 2112SOL    HW2 6346   3.401   2.468   2.920
 2113SOL     OW 6347   3.719   2.695   2.239
 2113SOL    HW1 6348   3.761   2.631   2.303
 2113SOL    HW2 6349   3.681   2.644   2.161
 2114SOL     OW 6350   2.350   3.247   2.036
 2114SOL    HW1 6351   2.263   3.232   2.083
 2114SOL    HW2 6352   2.333   3.273   1.941
 2115SOL     OW 6353   3.526   3.142   2.519
 2115SOL    HW1 6354   3.625   3.150   2.533
 2115SOL    HW2 6355   3.481   3.226   2.550
 2116SOL     OW 6356   3.252   2.437   1.940
 2116SOL    HW1 6357   3.198   2.416   2.021
 2116SOL    HW2 6358   3.343   2.396   1.949
 2117SOL     OW 6359   3.616   3.085   3.450
 2117SOL    HW1 6360   3.707   3.046   3.437
 2117SOL    HW2 6361   3.624   3.181   3.474
 2118SOL     OW 6362   2.926   3.209   3.202
 2118SOL    HW1 6363   2.846   3.186   3.257
 2118SOL    HW2 6364   3.009   3.183   3.251
 2119SOL     OW 6365   3.454   3.491   3.487
 2119SOL    HW1 6366   3.481   3.525   3.397
 2119SOL    HW2 6367   3.533   3.453   3.533
 2120SOL     OW 6368   2.973   3.057   2.962
 2120SOL    HW1 6369   2.933   3.101   3.043
 2120SOL    HW2 6370   2.932   3.094   2.879
 2121SOL     OW 6371   3.500   2.961   2.941
 2121SOL    HW1 6372   3.505   3.042   3.000
 2121SOL    HW2 6373   3.414   2.963   2.890
 2122SOL     OW 6374   2.777   1.951   3.264
 2122SOL    HW1 6375   2.802   1.931   3.169
 2122SOL    HW2 6376   2.849   2.007   3.306
 2123SOL     OW 6377   2.842   2.978   3.581
 2123SOL    HW1 6378   2.743   2.984   3.591
 2123SOL    HW2 6379   2.865   2.898   3.525
 2124SOL     OW 6380   2.567   2.912   2.230
 2124SOL    HW1 6381   2.553   2.919   2.329
 2124SOL    HW2 6382   2.651   2.861   2.212
 2125SOL     OW 6383   2.272   2.675   3.113
 2125SOL    HW1 6384   2.358   2.687   3.163
 2125SOL    HW2 6385   2.230   2.588   3.140
 2126SOL     OW 6386   3.136   2.248   3.124
 2126SOL    HW1 6387   3.157   2.322   3.188
 2126SOL    HW2 6388   3.047   2.265   3.081
 2127SOL     OW 6389   1.926   3.426   3.193
 2127SOL    HW1 6390   1.880   3.508   3.159
 2127SOL    HW2 6391   2.024   3.445   3.202
 2128SOL     OW 6392   2.229   2.962   2.363
 2128SOL    HW1 6393   2.222   3.045   2.307
 2128SOL    HW2 6394   2.233   2.882   2.303
 2129SOL     OW 6395   2.428   2.399   2.727
 2129SOL    HW1 6396   2.440   2.465   2.653
 2129SOL    HW2 6397   2.474   2.433   2.810
 2130SOL     OW 6398   3.114   3.210   2.250
 2130SOL    HW1 6399   3.164   3.287   2.290
 2130SOL    HW2 6400   3.019   3.212   2.282
 2131SOL     OW 6401   3.134   3.307   3.004
 2131SOL    HW1 6402   3.181   3.320   3.091
 2131SOL    HW2 6403   3.068   3.233   3.013
 2132SOL     OW 6404   3.444   2.501   2.334
 2132SOL    HW1 6405   3.413   2.562   2.407
 2132SOL    HW2 6406   3.494   2.553   2.265
 2133SOL     OW 6407   2.216   3.372   3.191
 2133SOL    HW1 6408   2.195   3.328   3.104
 2133SOL    HW2 6409   2.313   3.398   3.194
 2134SOL     OW 6410   2.264   2.613   3.460
 2134SOL    HW1 6411   2.332   2.668   3.413
 2134SOL    HW2 6412   2.304   2.525   3.487
 2135SOL     OW 6413   3.449   2.641   3.532
 2135SOL    HW1 6414   3.357   2.679   3.527
 2135SOL    HW2 6415   3.509   2.688   3.467
 2136SOL     OW 6416   2.875   1.967   3.632
 2136SOL    HW1 6417   2.881   2.052   3.580
 2136SOL    HW2 6418   2.907   1.891   3.575
 2137SOL     OW 6419   2.366   1.912   3.602
 2137SOL    HW1 6420   2.324   1.855   3.532
 2137SOL    HW2 6421   2.300   1.981   3.634
 2138SOL     OW 6422   2.435   2.732   2.891
 2138SOL    HW1 6423   2.479   2.821   2.882
 2138SOL    HW2 6424   2.372   2.732   2.968
 2139SOL     OW 6425   3.222   2.724   2.907
 2139SOL    HW1 6426   3.147   2.724   2.841
 2139SOL    HW2 6427   3.259   2.632   2.916
 2140SOL     OW 6428   3.071   2.387   2.137
 2140SOL    HW1 6429   3.084   2.303   2.191
 2140SOL    HW2 6430   3.042   2.461   2.197
 2141SOL     OW 6431   2.169   2.075   3.093
 2141SOL    HW1 6432   2.146   2.112   3.183
 2141SOL    HW2 6433   2.139   1.980   3.087
 2142SOL     OW 6434   1.899   3.172   3.144
 2142SOL    HW1 6435   1.952   3.123   3.212
 2142SOL    HW2 6436   1.921   3.270   3.149
 2143SOL     OW 6437   2.594   2.496   2.926
 2143SOL    HW1 6438   2.653   2.470   2.850
 2143SOL    HW2 6439   2.566   2.592   2.915
 2144SOL     OW 6440   3.590   2.797   3.716
 2144SOL    HW1 6441   3.544   2.790   3.627
 2144SOL    HW2 6442   3.528   2.841   3.782
 2145SOL     OW 6443   2.169   1.925   2.480
 2145SOL    HW1 6444   2.158   2.019   2.513
 2145SOL    HW2 6445   2.164   1.862   2.557
 2146SOL     OW 6446   3.484   2.229   2.236
 2146SOL    HW1 6447   3.486   2.153   2.300
 2146SOL    HW2 6448   3.436   2.306   2.276
 2147SOL     OW 6449   2.885   2.628   2.828
 2147SOL    HW1 6450   2.900   2.649   2.924
 2147SOL    HW2 6451   2.855   2.533   2.819
 2148SOL     OW 6452   2.842   3.435   3.562
 2148SOL    HW1 6453   2.822   3.479   3.474
 2148SOL    HW2 6454   2.881   3.344   3.546
 2149SOL     OW 6455   3.721   3.380   3.467
 2149SOL    HW1 6456   3.735   3.407   3.372
 2149SOL    HW2 6457   3.804   3.402   3.520
 2150SOL     OW 6458   2.212   2.760   3.666
 2150SOL    HW1 6459   2.288   2.804   3.714
 2150SOL    HW2 6460   2.247   2.713   3.584
 2151SOL     OW 6461   3.402   2.136   1.987
 2151SOL    HW1 6462   3.341   2.061   2.010
 2151SOL    HW2 6463   3.424   2.188   2.070
 2152SOL     OW 6464   3.165   2.700   1.904
 2152SOL    HW1 6465   3.199   2.607   1.919
 2152SOL    HW2 6466   3.183   2.727   1.809
 2153SOL     OW 6467   2.930   3.195   2.711
 2153SOL    HW1 6468   2.937   3.111   2.656
 2153SOL    HW2 6469   2.992   3.264   2.675
 2154SOL     OW 6470   2.181   2.672   2.811
 2154SOL    HW1 6471   2.274   2.708   2.816
 2154SOL    HW2 6472   2.175   2.587   2.863
 2155SOL     OW 6473   2.201   2.371   2.868
 2155SOL    HW1 6474   2.149   2.288   2.851
 2155SOL    HW2 6475   2.278   2.376   2.804
 2156SOL     OW 6476   3.000   2.242   3.540
 2156SOL    HW1 6477   2.955   2.305   3.604
 2156SOL    HW2 6478   3.093   2.273   3.523
 2157SOL     OW 6479   3.022   2.069   3.339
 2157SOL    HW1 6480   3.022   2.133   3.416
 2157SOL    HW2 6481   3.050   2.117   3.256
 2158SOL     OW 6482   1.870   3.188   2.062
 2158SOL    HW1 6483   1.777   3.209   2.031
 2158SOL    HW2 6484   1.880   3.089   2.075
 2159SOL     OW 6485   1.950   3.663   2.789
 2159SOL    HW1 6486   1.908   3.577   2.762
 2159SOL    HW2 6487   2.044   3.666   2.755
 2160SOL     OW 6488   2.366   3.430   2.772
 2160SOL    HW1 6489   2.432   3.504   2.781
 2160SOL    HW2 6490   2.410   3.351   2.730
 2161SOL     OW 6491   2.864   2.658   3.100
 2161SOL    HW1 6492   2.905   2.626   3.186
 2161SOL    HW2 6493   2.768   2.631   3.097
 2162SOL     OW 6494   1.902   2.406   2.976
 2162SOL    HW1 6495   1.987   2.373   2.935
 2162SOL    HW2 6496   1.915   2.421   3.074
 2163SOL     OW 6497   2.051   2.382   3.584
 2163SOL    HW1 6498   2.110   2.342   3.514
 2163SOL    HW2 6499   1.993   2.453   3.543
 2164SOL     OW 6500   3.231   2.812   3.522
 2164SOL    HW1 6501   3.270   2.901   3.542
 2164SOL    HW2 6502   3.241   2.792   3.425
 2165SOL     OW 6503   2.677   2.434   2.187
 2165SOL    HW1 6504   2.684   2.345   2.141
 2165SOL    HW2 6505   2.583   2.468   2.179
 2166SOL     OW 6506   3.519   2.466   3.068
 2166SOL    HW1 6507   3.481   2.397   3.130
 2166SOL    HW2 6508   3.601   2.430   3.024
 2167SOL     OW 6509   2.114   3.426   3.606
 2167SOL    HW1 6510   2.084   3.483   3.682
 2167SOL    HW2 6511   2.107   3.329   3.632
 2168SOL     OW 6512   2.533   2.326   3.131
 2168SOL    HW1 6513   2.499   2.237   3.101
 2168SOL    HW2 6514   2.559   2.380   3.051
 2169SOL     OW 6515   2.792   3.540   3.327
 2169SOL    HW1 6516   2.768   3.522   3.232
 2169SOL    HW2 6517   2.822   3.634   3.337
 2170SOL     OW 6518   2.021   2.999   3.328
 2170SOL    HW1 6519   2.043   2.938   3.404
 2170SOL    HW2 6520   2.031   2.950   3.242
 2171SOL     OW 6521   3.209   2.921   3.096
 2171SOL    HW1 6522   3.233   2.858   3.022
 2171SOL    HW2 6523   3.119   2.961   3.078
 2172SOL     OW 6524   3.164   2.717   2.171
 2172SOL    HW1 6525   3.078   2.686   2.213
 2172SOL    HW2 6526   3.160   2.703   2.072
 2173SOL     OW 6527   3.621   3.609   3.016
 2173SOL    HW1 6528   3.682   3.639   2.943
 2173SOL    HW2 6529   3.583   3.520   2.994
 2174SOL     OW 6530   3.114   3.593   2.990
 2174SOL    HW1 6531   3.198   3.598   2.936
 2174SOL    HW2 6532   3.091   3.497   3.008
 2175SOL     OW 6533   1.945   3.120   2.884
 2175SOL    HW1 6534   1.940   3.119   2.984
 2175SOL    HW2 6535   1.862   3.079   2.846
 2176SOL     OW 6536   2.550   3.524   3.578
 2176SOL    HW1 6537   2.494   3.605   3.587
 2176SOL    HW2 6538   2.602   3.528   3.492
 2177SOL     OW 6539   3.588   1.997   2.385
 2177SOL    HW1 6540   3.661   1.980   2.318
 2177SOL    HW2 6541   3.557   1.910   2.423
 2178SOL     OW 6542   3.250   3.435   2.339
 2178SOL    HW1 6543   3.317   3.447   2.265
 2178SOL    HW2 6544   3.210   3.524   2.362
 2179SOL     OW 6545   1.992   3.656   3.713
 2179SOL    HW1 6546   1.951   3.582   3.766
 2179SOL    HW2 6547   2.056   3.707   3.771
 2180SOL     OW 6548   3.142   2.789   2.534
 2180SOL    HW1 6549   3.202   2.708   2.536
 2180SOL    HW2 6550   3.182   2.858   2.474
 2181SOL     OW 6551   2.692   3.135   3.284
 2181SOL    HW1 6552   2.687   3.168   3.379
 2181SOL    HW2 6553   2.606   3.154   3.238
 2182SOL     OW 6554   2.534   3.478   2.016
 2182SOL    HW1 6555   2.543   3.488   1.917
 2182SOL    HW2 6556   2.494   3.389   2.037
 2183SOL     OW 6557   3.512   3.582   3.256
 2183SOL    HW1 6558   3.565   3.592   3.172
 2183SOL    HW2 6559   3.485   3.672   3.290
 2184SOL     OW 6560   3.703   2.037   2.825
 2184SOL    HW1 6561   3.742   1.952   2.789
 2184SOL    HW2 6562   3.605   2.039   2.806
 2185SOL     OW 6563   2.125   2.188   2.582
 2185SOL    HW1 6564   2.046   2.239   2.548
 2185SOL    HW2 6565   2.116   2.173   2.680
 2186SOL     OW 6566   3.056   3.474   1.893
 2186SOL    HW1 6567   3.062   3.381   1.930
 2186SOL    HW2 6568   2.997   3.474   1.813
 2187SOL     OW 6569   2.684   2.864   3.234
 2187SOL    HW1 6570   2.724   2.863   3.142
 2187SOL    HW2 6571   2.694   2.956   3.274
 2188SOL     OW 6572   2.778   2.772   2.153
 2188SOL    HW1 6573   2.841   2.810   2.085
 2188SOL    HW2 6574   2.818   2.689   2.192
 2189SOL     OW 6575   3.366   3.469   1.906
 2189SOL    HW1 6576   3.274   3.506   1.913
 2189SOL    HW2 6577   3.404   3.489   1.816
 2190SOL     OW 6578   2.234   3.150   3.352
 2190SOL    HW1 6579   2.221   3.243   3.318
 2190SOL    HW2 6580   2.150   3.098   3.339
 2191SOL     OW 6581   3.476   3.154   3.151
 2191SOL    HW1 6582   3.536   3.157   3.231
 2191SOL    HW2 6583   3.401   3.218   3.164
 2192SOL     OW 6584   2.901   2.960   2.558
 2192SOL    HW1 6585   2.831   2.913   2.612
 2192SOL    HW2 6586   2.960   2.892   2.515
 2193SOL     OW 6587   2.876   2.098   2.833
 2193SOL    HW1 6588   2.868   2.062   2.740
 2193SOL    HW2 6589   2.874   2.022   2.898
 2194SOL     OW 6590   2.452   3.349   2.353
 2194SOL    HW1 6591   2.494   3.291   2.283
 2194SOL    HW2 6592   2.408   3.428   2.309
 2195SOL     OW 6593   3.571   2.247   3.243
 2195SOL    HW1 6594   3.644   2.316   3.247
 2195SOL    HW2 6595   3.599   2.172   3.184
 2196SOL     OW 6596   2.117   3.210   2.152
 2196SOL    HW1 6597   2.021   3.211   2.125
 2196SOL    HW2 6598   2.129   3.263   2.236
 2197SOL     OW 6599   1.967   2.875   3.588
 2197SOL    HW1 6600   1.890   2.842   3.642
 2197SOL    HW2 6601   2.052   2.845   3.630
 2198SOL     OW 6602   2.534   2.065   3.351
 2198SOL    HW1 6603   2.624   2.049   3.311
 2198SOL    HW2 6604   2.542   2.070   3.450
 2199SOL     OW 6605   1.937   2.207   1.895
 2199SOL    HW1 6606   1.845   2.179   1.866
 2199SOL    HW2 6607   1.968   2.284   1.839
 2200SOL     OW 6608   3.302   2.718   3.260
 2200SOL    HW1 6609   3.245   2.770   3.197
 2200SOL    HW2 6610   3.398   2.730   3.236
 2201SOL     OW 6611   1.934   2.028   2.180
 2201SOL    HW1 6612   1.917   2.111   2.126
 2201SOL    HW2 6613   2.024   1.991   2.158
 2202SOL     OW 6614   3.045   3.197   1.981
 2202SOL    HW1 6615   2.946   3.186   1.983
 2202SOL    HW2 6616   3.079   3.212   2.074
 2203SOL     OW 6617   2.475   2.704   3.293
 2203SOL    HW1 6618   2.531   2.785   3.276
 2203SOL    HW2 6619   2.534   2.624   3.296
 2204SOL     OW 6620   3.355   3.629   2.821
 2204SOL    HW1 6621   3.388   3.693   2.752
 2204SOL    HW2 6622   3.421   3.623   2.896
 2205SOL     OW 6623   2.578   2.427   3.570
 2205SOL    HW1 6624   2.597   2.492   3.644
 2205SOL    HW2 6625   2.638   2.347   3.579
 2206SOL     OW 6626   3.312   3.082   3.495
 2206SOL    HW1 6627   3.303   3.072   3.594
 2206SOL    HW2 6628   3.408   3.075   3.469
 2207SOL     OW 6629   2.252   3.603   3.422
 2207SOL    HW1 6630   2.161   3.644   3.420
 2207SOL    HW2 6631   2.245   3.509   3.454
 2208SOL     OW 6632   3.536   2.745   3.116
 2208SOL    HW1 6633   3.509   2.656   3.079
 2208SOL    HW2 6634   3.537   2.813   3.043
 2209SOL     OW 6635   3.087   2.187   2.311
 2209SOL    HW1 6636   3.152   2.113   2.300
 2209SOL    HW2 6637   3.107   2.237   2.395
 2210SOL     OW 6638   2.456   2.607   2.514
 2210SOL    HW1 6639   2.506   2.692   2.495
 2210SOL    HW2 6640   2.368   2.609   2.466
 2211SOL     OW 6641   3.639   2.204   3.504
 2211SOL    HW1 6642   3.622   2.235   3.410
 2211SOL    HW2 6643   3.555   2.167   3.542
 2212SOL     OW 6644   3.592   2.796   3.379
 2212SOL    HW1 6645   3.630   2.887   3.394
 2212SOL    HW2 6646   3.584   2.779   3.280
 2213SOL     OW 6647   2.721   3.236   1.878
 2213SOL    HW1 6648   2.675   3.251   1.966
 2213SOL    HW2 6649   2.765   3.321   1.848
 2214SOL     OW 6650   2.523   3.652   2.815
 2214SOL    HW1 6651   2.477   3.740   2.802
 2214SOL    HW2 6652   2.622   3.664   2.808
 2215SOL     OW 6653   2.721   2.818   2.723
 2215SOL    HW1 6654   2.775   2.749   2.771
 2215SOL    HW2 6655   2.689   2.887   2.789
 2216SOL     OW 6656   2.945   2.846   1.949
 2216SOL    HW1 6657   2.922   2.899   1.867
 2216SOL    HW2 6658   3.026   2.790   1.930
 2217SOL     OW 6659   3.723   3.431   2.713
 2217SOL    HW1 6660   3.652   3.419   2.643
 2217SOL    HW2 6661   3.724   3.352   2.773
 2218SOL     OW 6662   2.083   3.176   3.706
 2218SOL    HW1 6663   2.018   3.103   3.685
 2218SOL    HW2 6664   2.087   3.190   3.804
 2219SOL     OW 6665   1.941   3.102   2.515
 2219SOL    HW1 6666   1.940   3.055   2.603
 2219SOL    HW2 6667   2.023   3.074   2.464
 2220SOL     OW 6668   2.534   3.253   3.486
 2220SOL    HW1 6669   2.456   3.203   3.524
 2220SOL    HW2 6670   2.531   3.348   3.517
 2221SOL     OW 6671   3.686   2.054   3.089
 2221SOL    HW1 6672   3.682   1.964   3.133
 2221SOL    HW2 6673   3.689   2.043   2.990
 2222SOL     OW 6674   3.567   3.349   2.966
 2222SOL    HW1 6675   3.474   3.324   2.939
 2222SOL    HW2 6676   3.593   3.299   3.048
 2223SOL     OW 6677   2.179   2.409   3.142
 2223SOL    HW1 6678   2.217   2.350   3.214
 2223SOL    HW2 6679   2.219   2.383   3.054
 2224SOL     OW 6680   2.674   3.448   2.549
 2224SOL    HW1 6681   2.706   3.458   2.455
 2224SOL    HW2 6682   2.595   3.386   2.551
 2225SOL     OW 6683   3.286   2.076   2.974
 2225SOL    HW1 6684   3.338   2.011   3.029
 2225SOL    HW2 6685   3.237   2.139   3.035
 2226SOL     OW 6686   2.863   1.896   3.016
 2226SOL    HW1 6687   2.800   1.824   2.985
 2226SOL    HW2 6688   2.956   1.860   3.016
 2227SOL     OW 6689   2.632   3.192   2.163
 2227SOL    HW1 6690   2.586   3.105   2.180
 2227SOL    HW2 6691   2.723   3.189   2.204
 2228SOL     OW 6692   2.480   3.429   3.146
 2228SOL    HW1 6693   2.475   3.511   3.203
 2228SOL    HW2 6694   2.569   3.426   3.101
 2229SOL     OW 6695   3.214   1.914   2.030
 2229SOL    HW1 6696   3.249   1.873   1.946
 2229SOL    HW2 6697   3.124   1.876   2.050
 2230SOL     OW 6698   3.162   2.315   2.553
 2230SOL    HW1 6699   3.103   2.395   2.557
 2230SOL    HW2 6700   3.177   2.280   2.646
 2231SOL     OW 6701   3.455   2.083   2.744
 2231SOL    HW1 6702   3.371   2.082   2.798
 2231SOL    HW2 6703   3.457   2.166   2.688
 2232SOL     OW 6704   1.901   2.939   2.162
 2232SOL    HW1 6705   2.000   2.928   2.153
 2232SOL    HW2 6706   1.861   2.853   2.194
 2233SOL     OW 6707   2.737   3.508   2.199
 2233SOL    HW1 6708   2.660   3.473   2.145
 2233SOL    HW2 6709   2.705   3.579   2.261
 2234SOL     OW 6710   2.092   2.490   3.837
 2234SOL    HW1 6711   1.999   2.488   3.874
 2234SOL    HW2 6712   2.093   2.451   3.745
 2235SOL     OW 6713   1.881   2.230   4.371
 2235SOL    HW1 6714   1.799   2.273   4.410
 2235SOL    HW2 6715   1.853   2.157   4.308
 2236SOL     OW 6716   3.417   3.373   4.427
 2236SOL    HW1 6717   3.360   3.357   4.508
 2236SOL    HW2 6718   3.358   3.383   4.347
 2237SOL     OW 6719   2.997   2.565   4.441
 2237SOL    HW1 6720   3.054   2.643   4.416
 2237SOL    HW2 6721   2.937   2.591   4.517
 2238SOL     OW 6722   3.617   2.469   3.955
 2238SOL    HW1 6723   3.605   2.456   3.856
 2238SOL    HW2 6724   3.587   2.388   4.004
 2239SOL     OW 6725   2.630   3.006   4.747
 2239SOL    HW1 6726   2.552   3.023   4.807
 2239SOL    HW2 6727   2.664   3.093   4.711
 2240SOL     OW 6728   2.547   2.874   4.389
 2240SOL    HW1 6729   2.616   2.858   4.459
 2240SOL    HW2 6730   2.474   2.931   4.427
 2241SOL     OW 6731   3.465   2.309   4.461
 2241SOL    HW1 6732   3.391   2.355   4.411
 2241SOL    HW2 6733   3.516   2.377   4.514
 2242SOL     OW 6734   2.093   3.575   4.207
 2242SOL    HW1 6735   2.127   3.652   4.261
 2242SOL    HW2 6736   2.137   3.575   4.117
 2243SOL     OW 6737   2.092   3.296   4.262
 2243SOL    HW1 6738   2.066   3.392   4.262
 2243SOL    HW2 6739   2.021   3.242   4.307
 2244SOL     OW 6740   2.102   2.953   4.610
 2244SOL    HW1 6741   2.116   2.869   4.662
 2244SOL    HW2 6742   2.047   3.017   4.665
 2245SOL     OW 6743   2.468   2.826   3.847
 2245SOL    HW1 6744   2.475   2.910   3.793
 2245SOL    HW2 6745   2.514   2.839   3.935
 2246SOL     OW 6746   1.984   2.505   4.287
 2246SOL    HW1 6747   1.939   2.417   4.304
 2246SOL    HW2 6748   1.983   2.559   4.371
 2247SOL     OW 6749   3.704   3.629   4.083
 2247SOL    HW1 6750   3.758   3.600   4.163
 2247SOL    HW2 6751   3.734   3.719   4.054
 2248SOL     OW 6752   1.889   3.458   3.841
 2248SOL    HW1 6753   1.870   3.362   3.862
 2248SOL    HW2 6754   1.856   3.516   3.916
 2249SOL     OW 6755   3.551   2.784   4.336
 2249SOL    HW1 6756   3.646   2.755   4.344
 2249SOL    HW2 6757   3.543   2.849   4.261
 2250SOL     OW 6758   3.503   2.970   4.156
 2250SOL    HW1 6759   3.589   2.972   4.104
 2250SOL    HW2 6760   3.517   3.017   4.244
 2251SOL     OW 6761   2.475   3.227   4.450
 2251SOL    HW1 6762   2.426   3.140   4.459
 2251SOL    HW2 6763   2.452   3.270   4.363
 2252SOL     OW 6764   2.671   1.866   4.226
 2252SOL    HW1 6765   2.711   1.957   4.217
 2252SOL    HW2 6766   2.571   1.874   4.232
 2253SOL     OW 6767   3.387   2.861   3.914
 2253SOL    HW1 6768   3.324   2.785   3.927
 2253SOL    HW2 6769   3.435   2.879   4.000
 2254SOL     OW 6770   3.529   3.576   4.296
 2254SOL    HW1 6771   3.488   3.553   4.208
 2254SOL    HW2 6772   3.511   3.502   4.361
 2255SOL     OW 6773   2.460   2.591   3.994
 2255SOL    HW1 6774   2.484   2.660   3.926
 2255SOL    HW2 6775   2.382   2.624   4.048
 2256SOL     OW 6776   3.143   2.207   4.668
 2256SOL    HW1 6777   3.057   2.157   4.655
 2256SOL    HW2 6778   3.205   2.153   4.724
 2257SOL     OW 6779   3.438   3.524   4.031
 2257SOL    HW1 6780   3.527   3.570   4.034
 2257SOL    HW2 6781   3.417   3.500   3.936
 2258SOL     OW 6782   2.903   2.563   4.153
 2258SOL    HW1 6783   2.929   2.559   4.249
 2258SOL    HW2 6784   2.818   2.512   4.139
 2259SOL     OW 6785   1.938   2.673   4.513
 2259SOL    HW1 6786   2.037   2.661   4.522
 2259SOL    HW2 6787   1.914   2.768   4.534
 2260SOL     OW 6788   2.727   2.210   3.919
 2260SOL    HW1 6789   2.786   2.273   3.870
 2260SOL    HW2 6790   2.746   2.116   3.890
 2261SOL     OW 6791   3.224   3.006   4.269
 2261SOL    HW1 6792   3.307   2.977   4.221
 2261SOL    HW2 6793   3.175   3.073   4.213
 2262SOL     OW 6794   2.412   2.058   4.609
 2262SOL    HW1 6795   2.407   2.053   4.709
 2262SOL    HW2 6796   2.414   2.154   4.580
 2263SOL     OW 6797   2.870   3.318   4.201
 2263SOL    HW1 6798   2.824   3.390   4.149
 2263SOL    HW2 6799   2.866   3.338   4.299
 2264SOL     OW 6800   2.213   3.663   4.577
 2264SOL    HW1 6801   2.263   3.577   4.583
 2264SOL    HW2 6802   2.278   3.740   4.574
 2265SOL     OW 6803   3.657   2.928   4.597
 2265SOL    HW1 6804   3.595   2.913   4.521
 2265SOL    HW2 6805   3.605   2.939   4.682
 2266SOL     OW 6806   2.183   2.805   3.966
 2266SOL    HW1 6807   2.265   2.844   3.924
 2266SOL    HW2 6808   2.156   2.723   3.917
 2267SOL     OW 6809   3.320   2.597   4.452
 2267SOL    HW1 6810   3.315   2.532   4.527
 2267SOL    HW2 6811   3.400   2.656   4.465
 2268SOL     OW 6812   2.973   3.638   3.961
 2268SOL    HW1 6813   2.913   3.576   4.011
 2268SOL    HW2 6814   3.004   3.594   3.876
 2269SOL     OW 6815   3.494   3.239   3.805
 2269SOL    HW1 6816   3.462   3.333   3.795
 2269SOL    HW2 6817   3.418   3.176   3.793
 2270SOL     OW 6818   2.326   3.605   4.047
 2270SOL    HW1 6819   2.359   3.644   4.133
 2270SOL    HW2 6820   2.402   3.598   3.982
 2271SOL     OW 6821   3.262   1.969   4.150
 2271SOL    HW1 6822   3.238   1.932   4.060
 2271SOL    HW2 6823   3.361   1.985   4.154
 2272SOL     OW 6824   2.802   3.560   4.628
 2272SOL    HW1 6825   2.882   3.503   4.649
 2272SOL    HW2 6826   2.753   3.520   4.551
 2273SOL     OW 6827   2.244   2.562   4.204
 2273SOL    HW1 6828   2.289   2.472   4.201
 2273SOL    HW2 6829   2.150   2.551   4.237
 2274SOL     OW 6830   2.476   1.984   3.841
 2274SOL    HW1 6831   2.574   1.962   3.848
 2274SOL    HW2 6832   2.445   1.967   3.748
 2275SOL     OW 6833   2.401   1.926   4.236
 2275SOL    HW1 6834   2.320   1.927   4.294
 2275SOL    HW2 6835   2.404   2.009   4.181
 2276SOL     OW 6836   3.296   3.050   3.765
 2276SOL    HW1 6837   3.328   2.974   3.822
 2276SOL    HW2 6838   3.204   3.077   3.795
 2277SOL     OW 6839   2.159   1.897   3.895
 2277SOL    HW1 6840   2.208   1.981   3.874
 2277SOL    HW2 6841   2.221   1.832   3.940
 2278SOL     OW 6842   2.797   2.098   4.204
 2278SOL    HW1 6843   2.749   2.139   4.126
 2278SOL    HW2 6844   2.896   2.096   4.185
 2279SOL     OW 6845   2.321   3.014   4.465
 2279SOL    HW1 6846   2.250   2.987   4.530
 2279SOL    HW2 6847   2.295   2.986   4.372
 2280SOL     OW 6848   3.133   3.659   4.315
 2280SOL    HW1 6849   3.177   3.723   4.251
 2280SOL    HW2 6850   3.083   3.711   4.385
 2281SOL     OW 6851   2.894   2.411   3.740
 2281SOL    HW1 6852   2.853   2.493   3.701
 2281SOL    HW2 6853   2.958   2.437   3.813
 2282SOL     OW 6854   2.728   2.316   4.366
 2282SOL    HW1 6855   2.696   2.388   4.304
 2282SOL    HW2 6856   2.752   2.235   4.313
 2283SOL     OW 6857   2.879   1.901   4.477
 2283SOL    HW1 6858   2.807   1.906   4.408
 2283SOL    HW2 6859   2.855   1.832   4.546
 2284SOL     OW 6860   3.719   2.695   4.101
 2284SOL    HW1 6861   3.761   2.631   4.165
 2284SOL    HW2 6862   3.681   2.644   4.023
 2285SOL     OW 6863   2.350   3.247   3.898
 2285SOL    HW1 6864   2.263   3.232   3.945
 2285SOL    HW2 6865   2.333   3.273   3.803
 2286SOL     OW 6866   3.526   3.142   4.381
 2286SOL    HW1 6867   3.625   3.150   4.395
 2286SOL    HW2 6868   3.481   3.226   4.412
 2287SOL     OW 6869   3.252   2.437   3.802
 2287SOL    HW1 6870   3.198   2.416   3.883
 2287SOL    HW2 6871   3.343   2.396   3.811
 2288SOL     OW 6872   2.389   2.118   4.052
 2288SOL    HW1 6873   2.416   2.059   3.977
 2288SOL    HW2 6874   2.389   2.213   4.021
 2289SOL     OW 6875   2.567   2.912   4.092
 2289SOL    HW1 6876   2.553   2.919   4.191
 2289SOL    HW2 6877   2.651   2.861   4.074
 2290SOL     OW 6878   2.229   2.962   4.225
 2290SOL    HW1 6879   2.222   3.045   4.169
 2290SOL    HW2 6880   2.233   2.882   4.165
 2291SOL     OW 6881   2.428   2.399   4.589
 2291SOL    HW1 6882   2.440   2.465   4.515
 2291SOL    HW2 6883   2.474   2.433   4.672
 2292SOL     OW 6884   3.114   3.210   4.112
 2292SOL    HW1 6885   3.164   3.287   4.152
 2292SOL    HW2 6886   3.019   3.212   4.144
 2293SOL     OW 6887   3.444   2.501   4.196
 2293SOL    HW1 6888   3.413   2.562   4.269
 2293SOL    HW2 6889   3.494   2.553   4.127
 2294SOL     OW 6890   3.071   2.387   3.999
 2294SOL    HW1 6891   3.084   2.303   4.053
 2294SOL    HW2 6892   3.042   2.461   4.059
 2295SOL     OW 6893   2.169   1.925   4.342
 2295SOL    HW1 6894   2.158   2.019   4.375
 2295SOL    HW2 6895   2.164   1.862   4.419
 2296SOL     OW 6896   3.484   2.229   4.098
 2296SOL    HW1 6897   3.486   2.153   4.162
 2296SOL    HW2 6898   3.436   2.306   4.138
 2297SOL     OW 6899   3.402   2.136   3.849
 2297SOL    HW1 6900   3.341   2.061   3.872
 2297SOL    HW2 6901   3.424   2.188   3.932
 2298SOL     OW 6902   3.165   2.700   3.766
 2298SOL    HW1 6903   3.199   2.607   3.781
 2298SOL    HW2 6904   3.183   2.727   3.671
 2299SOL     OW 6905   1.870   3.188   3.924
 2299SOL    HW1 6906   1.777   3.209   3.893
 2299SOL    HW2 6907   1.880   3.089   3.937
 2300SOL     OW 6908   2.677   2.434   4.049
 2300SOL    HW1 6909   2.684   2.345   4.003
 2300SOL    HW2 6910   2.583   2.468   4.041
 2301SOL     OW 6911   2.335   2.362   3.915
 2301SOL    HW1 6912   2.396   2.442   3.919
 2301SOL    HW2 6913   2.240   2.393   3.922
 2302SOL     OW 6914   3.164   2.717   4.033
 2302SOL    HW1 6915   3.078   2.686   4.075
 2302SOL    HW2 6916   3.160   2.703   3.934
 2303SOL     OW 6917   3.588   1.997   4.247
 2303SOL    HW1 6918   3.661   1.980   4.180
 2303SOL    HW2 6919   3.557   1.910   4.285
 2304SOL     OW 6920   3.250   3.435   4.201
 2304SOL    HW1 6921   3.317   3.447   4.127
 2304SOL    HW2 6922   3.210   3.524   4.224
 2305SOL     OW 6923   3.142   2.789   4.396
 2305SOL    HW1 6924   3.202   2.708   4.398
 2305SOL    HW2 6925   3.182   2.858   4.336
 2306SOL     OW 6926   2.534   3.478   3.878
 2306SOL    HW1 6927   2.543   3.488   3.779
 2306SOL    HW2 6928   2.494   3.389   3.899
 2307SOL     OW 6929   3.703   2.037   4.687
 2307SOL    HW1 6930   3.742   1.952   4.651
 2307SOL    HW2 6931   3.605   2.039   4.668
 2308SOL     OW 6932   2.125   2.188   4.444
 2308SOL    HW1 6933   2.046   2.239   4.410
 2308SOL    HW2 6934   2.116   2.173   4.542
 2309SOL     OW 6935   3.056   3.474   3.755
 2309SOL    HW1 6936   3.062   3.381   3.792
 2309SOL    HW2 6937   2.997   3.474   3.675
 2310SOL     OW 6938   2.778   2.772   4.015
 2310SOL    HW1 6939   2.841   2.810   3.947
 2310SOL    HW2 6940   2.818   2.689   4.054
 2311SOL     OW 6941   3.366   3.469   3.768
 2311SOL    HW1 6942   3.274   3.506   3.775
 2311SOL    HW2 6943   3.404   3.489   3.678
 2312SOL     OW 6944   2.901   2.960   4.420
 2312SOL    HW1 6945   2.831   2.913   4.474
 2312SOL    HW2 6946   2.960   2.892   4.377
 2313SOL     OW 6947   2.452   3.349   4.215
 2313SOL    HW1 6948   2.494   3.291   4.145
 2313SOL    HW2 6949   2.408   3.428   4.171
 2314SOL     OW 6950   2.117   3.210   4.014
 2314SOL    HW1 6951   2.021   3.211   3.987
 2314SOL    HW2 6952   2.129   3.263   4.098
 2315SOL     OW 6953   1.937   2.207   3.757
 2315SOL    HW1 6954   1.845   2.179   3.728
 2315SOL    HW2 6955   1.968   2.284   3.701
 2316SOL     OW 6956   1.934   2.028   4.042
 2316SOL    HW1 6957   1.917   2.111   3.988
 2316SOL    HW2 6958   2.024   1.991   4.020
 2317SOL     OW 6959   3.045   3.197   3.843
 2317SOL    HW1 6960   2.946   3.186   3.845
 2317SOL    HW2 6961   3.079   3.212   3.936
 2318SOL     OW 6962   3.087   2.187   4.173
 2318SOL    HW1 6963   3.152   2.113   4.162
 2318SOL    HW2 6964   3.107   2.237   4.257
 2319SOL     OW 6965   2.456   2.607   4.376
 2319SOL    HW1 6966   2.506   2.692   4.357
 2319SOL    HW2 6967   2.368   2.609   4.328
 2320SOL     OW 6968   2.721   3.236   3.740
 2320SOL    HW1 6969   2.675   3.251   3.828
 2320SOL    HW2 6970   2.765   3.321   3.710
 2321SOL     OW 6971   2.523   3.652   4.677
 2321SOL    HW1 6972   2.477   3.740   4.664
 2321SOL    HW2 6973   2.622   3.664   4.670
 2322SOL     OW 6974   2.721   2.818   4.585
 2322SOL    HW1 6975   2.775   2.749   4.633
 2322SOL    HW2 6976   2.689   2.887   4.651
 2323SOL     OW 6977   2.945   2.846   3.811
 2323SOL    HW1 6978   2.922   2.899   3.729
 2323SOL    HW2 6979   3.026   2.790   3.792
 2324SOL     OW 6980   1.941   3.102   4.377
 2324SOL    HW1 6981   1.940   3.055   4.465
 2324SOL    HW2 6982   2.023   3.074   4.326
 2325SOL     OW 6983   2.290   2.286   4.244
 2325SOL    HW1 6984   2.320   2.214   4.182
 2325SOL    HW2 6985   2.251   2.246   4.327
 2326SOL     OW 6986   2.674   3.448   4.411
 2326SOL    HW1 6987   2.706   3.458   4.317
 2326SOL    HW2 6988   2.595   3.386   4.413
 2327SOL     OW 6989   2.632   3.192   4.025
 2327SOL    HW1 6990   2.586   3.105   4.042
 2327SOL    HW2 6991   2.723   3.189   4.066
 2328SOL     OW 6992   3.214   1.914   3.892
 2328SOL    HW1 6993   3.249   1.873   3.808
 2328SOL    HW2 6994   3.124   1.876   3.912
 2329SOL     OW 6995   3.162   2.315   4.415
 2329SOL    HW1 6996   3.103   2.395   4.419
 2329SOL    HW2 6997   3.177   2.280   4.508
 2330SOL     OW 6998   1.901   2.939   4.024
 2330SOL    HW1 6999   2.000   2.928   4.015
 2330SOL    HW2 7000   1.861   2.853   4.056
 2331SOL     OW 7001   2.737   3.508   4.061
 2331SOL    HW1 7002   2.660   3.473   4.007
 2331SOL    HW2 7003   2.705   3.579   4.123
 2332SOL     OW 7004   2.092   4.352   0.113
 2332SOL    HW1 7005   1.999   4.350   0.150
 2332SOL    HW2 7006   2.093   4.313   0.021
 2333SOL     OW 7007   2.087   3.999   0.996
 2333SOL    HW1 7008   2.122   3.982   1.088
 2333SOL    HW2 7009   1.999   3.954   0.984
 2334SOL     OW 7010   1.881   4.092   0.647
 2334SOL    HW1 7011   1.799   4.135   0.686
 2334SOL    HW2 7012   1.853   4.019   0.584
 2335SOL     OW 7013   2.997   4.427   0.717
 2335SOL    HW1 7014   3.054   4.505   0.692
 2335SOL    HW2 7015   2.937   4.453   0.793
 2336SOL     OW 7016   3.617   4.331   0.231
 2336SOL    HW1 7017   3.605   4.318   0.132
 2336SOL    HW2 7018   3.587   4.250   0.280
 2337SOL     OW 7019   2.712   4.522   1.823
 2337SOL    HW1 7020   2.708   4.598   1.888
 2337SOL    HW2 7021   2.734   4.558   1.732
 2338SOL     OW 7022   2.547   4.736   0.665
 2338SOL    HW1 7023   2.616   4.720   0.735
 2338SOL    HW2 7024   2.474   4.793   0.703
 2339SOL     OW 7025   2.300   4.116   1.499
 2339SOL    HW1 7026   2.382   4.060   1.508
 2339SOL    HW2 7027   2.219   4.058   1.503
 2340SOL     OW 7028   3.465   4.171   0.737
 2340SOL    HW1 7029   3.391   4.217   0.687
 2340SOL    HW2 7030   3.516   4.239   0.790
 2341SOL     OW 7031   3.456   3.838   1.480
 2341SOL    HW1 7032   3.438   3.905   1.408
 2341SOL    HW2 7033   3.453   3.884   1.569
 2342SOL     OW 7034   1.984   4.367   0.563
 2342SOL    HW1 7035   1.939   4.279   0.580
 2342SOL    HW2 7036   1.983   4.421   0.647
 2343SOL     OW 7037   1.975   4.461   1.597
 2343SOL    HW1 7038   2.063   4.448   1.642
 2343SOL    HW2 7039   1.962   4.558   1.575
 2344SOL     OW 7040   2.671   3.728   0.502
 2344SOL    HW1 7041   2.711   3.819   0.493
 2344SOL    HW2 7042   2.571   3.736   0.508
 2345SOL     OW 7043   2.179   3.975   1.801
 2345SOL    HW1 7044   2.250   4.046   1.807
 2345SOL    HW2 7045   2.091   4.014   1.829
 2346SOL     OW 7046   2.460   4.453   0.270
 2346SOL    HW1 7047   2.484   4.522   0.202
 2346SOL    HW2 7048   2.382   4.486   0.324
 2347SOL     OW 7049   3.143   4.069   0.944
 2347SOL    HW1 7050   3.057   4.019   0.931
 2347SOL    HW2 7051   3.205   4.015   1.000
 2348SOL     OW 7052   2.669   4.329   1.465
 2348SOL    HW1 7053   2.622   4.326   1.554
 2348SOL    HW2 7054   2.618   4.274   1.399
 2349SOL     OW 7055   3.256   4.193   1.674
 2349SOL    HW1 7056   3.236   4.236   1.762
 2349SOL    HW2 7057   3.334   4.131   1.683
 2350SOL     OW 7058   2.853   4.134   1.242
 2350SOL    HW1 7059   2.776   4.168   1.296
 2350SOL    HW2 7060   2.819   4.083   1.163
 2351SOL     OW 7061   2.903   4.425   0.429
 2351SOL    HW1 7062   2.929   4.421   0.525
 2351SOL    HW2 7063   2.818   4.374   0.415
 2352SOL     OW 7064   2.727   4.072   0.195
 2352SOL    HW1 7065   2.786   4.135   0.146
 2352SOL    HW2 7066   2.746   3.978   0.166
 2353SOL     OW 7067   3.581   4.309   1.831
 2353SOL    HW1 7068   3.555   4.398   1.795
 2353SOL    HW2 7069   3.579   4.241   1.758
 2354SOL     OW 7070   2.412   3.920   0.885
 2354SOL    HW1 7071   2.407   3.915   0.985
 2354SOL    HW2 7072   2.414   4.016   0.856
 2355SOL     OW 7073   3.320   4.459   0.728
 2355SOL    HW1 7074   3.315   4.394   0.803
 2355SOL    HW2 7075   3.400   4.518   0.741
 2356SOL     OW 7076   2.064   4.009   1.498
 2356SOL    HW1 7077   1.984   4.069   1.485
 2356SOL    HW2 7078   2.054   3.960   1.584
 2357SOL     OW 7079   3.262   3.831   0.426
 2357SOL    HW1 7080   3.238   3.794   0.336
 2357SOL    HW2 7081   3.361   3.847   0.430
 2358SOL     OW 7082   2.244   4.424   0.480
 2358SOL    HW1 7083   2.289   4.334   0.477
 2358SOL    HW2 7084   2.150   4.413   0.513
 2359SOL     OW 7085   3.409   3.946   1.729
 2359SOL    HW1 7086   3.404   3.983   1.821
 2359SOL    HW2 7087   3.337   3.877   1.717
 2360SOL     OW 7088   2.643   3.988   1.749
 2360SOL    HW1 7089   2.710   3.927   1.792
 2360SOL    HW2 7090   2.570   4.007   1.814
 2361SOL     OW 7091   3.213   4.314   1.433
 2361SOL    HW1 7092   3.241   4.271   1.518
 2361SOL    HW2 7093   3.238   4.410   1.434
 2362SOL     OW 7094   2.784   4.227   0.899
 2362SOL    HW1 7095   2.759   4.218   0.803
 2362SOL    HW2 7096   2.832   4.145   0.930
 2363SOL     OW 7097   2.401   3.788   0.512
 2363SOL    HW1 7098   2.320   3.789   0.570
 2363SOL    HW2 7099   2.404   3.871   0.457
 2364SOL     OW 7100   2.159   3.759   0.171
 2364SOL    HW1 7101   2.208   3.843   0.150
 2364SOL    HW2 7102   2.221   3.694   0.216
 2365SOL     OW 7103   2.797   3.960   0.480
 2365SOL    HW1 7104   2.749   4.001   0.402
 2365SOL    HW2 7105   2.896   3.958   0.461
 2366SOL     OW 7106   2.938   4.407   1.464
 2366SOL    HW1 7107   2.858   4.346   1.467
 2366SOL    HW2 7108   3.019   4.354   1.440
 2367SOL     OW 7109   2.894   4.273   0.016
 2367SOL    HW1 7110   2.853   4.355  -0.023
 2367SOL    HW2 7111   2.958   4.299   0.089
 2368SOL     OW 7112   1.940   4.280   1.386
 2368SOL    HW1 7113   2.032   4.279   1.345
 2368SOL    HW2 7114   1.934   4.354   1.453
 2369SOL     OW 7115   2.423   3.946   1.147
 2369SOL    HW1 7116   2.461   3.862   1.184
 2369SOL    HW2 7117   2.335   3.965   1.191
 2370SOL     OW 7118   2.728   4.178   0.642
 2370SOL    HW1 7119   2.696   4.250   0.580
 2370SOL    HW2 7120   2.752   4.097   0.589
 2371SOL     OW 7121   2.879   3.763   0.753
 2371SOL    HW1 7122   2.807   3.768   0.684
 2371SOL    HW2 7123   2.855   3.694   0.822
 2372SOL     OW 7124   3.328   4.314   0.992
 2372SOL    HW1 7125   3.298   4.219   0.999
 2372SOL    HW2 7126   3.401   4.330   1.058
 2373SOL     OW 7127   3.719   4.557   0.377
 2373SOL    HW1 7128   3.761   4.493   0.441
 2373SOL    HW2 7129   3.681   4.506   0.299
 2374SOL     OW 7130   3.252   4.299   0.078
 2374SOL    HW1 7131   3.198   4.278   0.159
 2374SOL    HW2 7132   3.343   4.258   0.087
 2375SOL     OW 7133   2.389   3.980   0.328
 2375SOL    HW1 7134   2.416   3.921   0.253
 2375SOL    HW2 7135   2.389   4.075   0.297
 2376SOL     OW 7136   2.777   3.813   1.402
 2376SOL    HW1 7137   2.802   3.793   1.307
 2376SOL    HW2 7138   2.849   3.869   1.444
 2377SOL     OW 7139   2.567   4.774   0.368
 2377SOL    HW1 7140   2.553   4.781   0.467
 2377SOL    HW2 7141   2.651   4.723   0.350
 2378SOL     OW 7142   2.272   4.537   1.251
 2378SOL    HW1 7143   2.358   4.549   1.301
 2378SOL    HW2 7144   2.230   4.450   1.278
 2379SOL     OW 7145   3.136   4.110   1.262
 2379SOL    HW1 7146   3.157   4.184   1.326
 2379SOL    HW2 7147   3.047   4.127   1.219
 2380SOL     OW 7148   2.428   4.261   0.865
 2380SOL    HW1 7149   2.440   4.327   0.791
 2380SOL    HW2 7150   2.474   4.295   0.948
 2381SOL     OW 7151   3.444   4.363   0.472
 2381SOL    HW1 7152   3.413   4.424   0.545
 2381SOL    HW2 7153   3.494   4.415   0.403
 2382SOL     OW 7154   3.449   4.503   1.670
 2382SOL    HW1 7155   3.357   4.541   1.665
 2382SOL    HW2 7156   3.509   4.550   1.605
 2383SOL     OW 7157   2.875   3.829   1.770
 2383SOL    HW1 7158   2.881   3.914   1.718
 2383SOL    HW2 7159   2.907   3.753   1.713
 2384SOL     OW 7160   2.366   3.774   1.740
 2384SOL    HW1 7161   2.324   3.717   1.670
 2384SOL    HW2 7162   2.300   3.843   1.772
 2385SOL     OW 7163   3.222   4.586   1.045
 2385SOL    HW1 7164   3.147   4.586   0.979
 2385SOL    HW2 7165   3.259   4.494   1.054
 2386SOL     OW 7166   3.071   4.249   0.275
 2386SOL    HW1 7167   3.084   4.165   0.329
 2386SOL    HW2 7168   3.042   4.323   0.335
 2387SOL     OW 7169   2.169   3.937   1.231
 2387SOL    HW1 7170   2.146   3.974   1.321
 2387SOL    HW2 7171   2.139   3.842   1.225
 2388SOL     OW 7172   2.594   4.358   1.064
 2388SOL    HW1 7173   2.653   4.332   0.988
 2388SOL    HW2 7174   2.566   4.454   1.053
 2389SOL     OW 7175   3.590   4.659   1.854
 2389SOL    HW1 7176   3.544   4.652   1.765
 2389SOL    HW2 7177   3.528   4.703   1.920
 2390SOL     OW 7178   2.169   3.787   0.618
 2390SOL    HW1 7179   2.158   3.881   0.651
 2390SOL    HW2 7180   2.164   3.724   0.695
 2391SOL     OW 7181   3.484   4.091   0.374
 2391SOL    HW1 7182   3.486   4.015   0.438
 2391SOL    HW2 7183   3.436   4.168   0.414
 2392SOL     OW 7184   3.402   3.998   0.125
 2392SOL    HW1 7185   3.341   3.923   0.148
 2392SOL    HW2 7186   3.424   4.050   0.208
 2393SOL     OW 7187   2.181   4.534   0.949
 2393SOL    HW1 7188   2.274   4.570   0.954
 2393SOL    HW2 7189   2.175   4.449   1.001
 2394SOL     OW 7190   2.201   4.233   1.006
 2394SOL    HW1 7191   2.149   4.150   0.989
 2394SOL    HW2 7192   2.278   4.238   0.942
 2395SOL     OW 7193   3.000   4.104   1.678
 2395SOL    HW1 7194   2.955   4.167   1.742
 2395SOL    HW2 7195   3.093   4.135   1.661
 2396SOL     OW 7196   3.022   3.931   1.477
 2396SOL    HW1 7197   3.022   3.995   1.554
 2396SOL    HW2 7198   3.050   3.979   1.394
 2397SOL     OW 7199   1.902   4.268   1.114
 2397SOL    HW1 7200   1.987   4.235   1.073
 2397SOL    HW2 7201   1.915   4.283   1.212
 2398SOL     OW 7202   2.051   4.244   1.722
 2398SOL    HW1 7203   2.110   4.204   1.652
 2398SOL    HW2 7204   1.993   4.315   1.681
 2399SOL     OW 7205   2.677   4.296   0.325
 2399SOL    HW1 7206   2.684   4.207   0.279
 2399SOL    HW2 7207   2.583   4.330   0.317
 2400SOL     OW 7208   3.519   4.328   1.206
 2400SOL    HW1 7209   3.481   4.259   1.268
 2400SOL    HW2 7210   3.601   4.292   1.162
 2401SOL     OW 7211   2.533   4.188   1.269
 2401SOL    HW1 7212   2.499   4.099   1.239
 2401SOL    HW2 7213   2.559   4.242   1.189
 2402SOL     OW 7214   2.335   4.224   0.191
 2402SOL    HW1 7215   2.396   4.304   0.195
 2402SOL    HW2 7216   2.240   4.255   0.198
 2403SOL     OW 7217   2.765   3.810   0.133
 2403SOL    HW1 7218   2.816   3.811   0.047
 2403SOL    HW2 7219   2.821   3.768   0.204
 2404SOL     OW 7220   3.588   3.859   0.523
 2404SOL    HW1 7221   3.661   3.842   0.456
 2404SOL    HW2 7222   3.557   3.772   0.561
 2405SOL     OW 7223   3.142   4.651   0.672
 2405SOL    HW1 7224   3.202   4.570   0.674
 2405SOL    HW2 7225   3.182   4.720   0.612
 2406SOL     OW 7226   3.703   3.899   0.963
 2406SOL    HW1 7227   3.742   3.814   0.927
 2406SOL    HW2 7228   3.605   3.901   0.944
 2407SOL     OW 7229   2.125   4.050   0.720
 2407SOL    HW1 7230   2.046   4.101   0.686
 2407SOL    HW2 7231   2.116   4.035   0.818
 2408SOL     OW 7232   2.876   3.960   0.971
 2408SOL    HW1 7233   2.868   3.924   0.878
 2408SOL    HW2 7234   2.874   3.884   1.036
 2409SOL     OW 7235   3.571   4.109   1.381
 2409SOL    HW1 7236   3.644   4.178   1.385
 2409SOL    HW2 7237   3.599   4.034   1.322
 2410SOL     OW 7238   1.967   4.737   1.726
 2410SOL    HW1 7239   1.890   4.704   1.780
 2410SOL    HW2 7240   2.052   4.707   1.768
 2411SOL     OW 7241   2.534   3.927   1.489
 2411SOL    HW1 7242   2.624   3.911   1.449
 2411SOL    HW2 7243   2.542   3.932   1.588
 2412SOL     OW 7244   1.937   4.069   0.033
 2412SOL    HW1 7245   1.845   4.041   0.004
 2412SOL    HW2 7246   1.968   4.146  -0.023
 2413SOL     OW 7247   3.302   4.580   1.398
 2413SOL    HW1 7248   3.245   4.632   1.335
 2413SOL    HW2 7249   3.398   4.592   1.374
 2414SOL     OW 7250   1.934   3.890   0.318
 2414SOL    HW1 7251   1.917   3.973   0.264
 2414SOL    HW2 7252   2.024   3.853   0.296
 2415SOL     OW 7253   2.475   4.566   1.431
 2415SOL    HW1 7254   2.531   4.647   1.414
 2415SOL    HW2 7255   2.534   4.486   1.434
 2416SOL     OW 7256   2.578   4.289   1.708
 2416SOL    HW1 7257   2.597   4.354   1.782
 2416SOL    HW2 7258   2.638   4.209   1.717
 2417SOL     OW 7259   3.536   4.607   1.254
 2417SOL    HW1 7260   3.509   4.518   1.217
 2417SOL    HW2 7261   3.537   4.675   1.181
 2418SOL     OW 7262   3.087   4.049   0.449
 2418SOL    HW1 7263   3.152   3.975   0.438
 2418SOL    HW2 7264   3.107   4.099   0.533
 2419SOL     OW 7265   2.456   4.469   0.652
 2419SOL    HW1 7266   2.506   4.554   0.633
 2419SOL    HW2 7267   2.368   4.471   0.604
 2420SOL     OW 7268   3.639   4.066   1.642
 2420SOL    HW1 7269   3.622   4.097   1.548
 2420SOL    HW2 7270   3.555   4.029   1.680
 2421SOL     OW 7271   3.686   3.916   1.227
 2421SOL    HW1 7272   3.682   3.826   1.271
 2421SOL    HW2 7273   3.689   3.905   1.128
 2422SOL     OW 7274   2.290   4.148   0.520
 2422SOL    HW1 7275   2.320   4.076   0.458
 2422SOL    HW2 7276   2.251   4.108   0.603
 2423SOL     OW 7277   2.179   4.271   1.280
 2423SOL    HW1 7278   2.217   4.212   1.352
 2423SOL    HW2 7279   2.219   4.245   1.192
 2424SOL     OW 7280   3.286   3.938   1.112
 2424SOL    HW1 7281   3.338   3.873   1.167
 2424SOL    HW2 7282   3.237   4.001   1.173
 2425SOL     OW 7283   2.863   3.758   1.154
 2425SOL    HW1 7284   2.800   3.686   1.123
 2425SOL    HW2 7285   2.956   3.722   1.154
 2426SOL     OW 7286   3.214   3.776   0.168
 2426SOL    HW1 7287   3.249   3.735   0.084
 2426SOL    HW2 7288   3.124   3.738   0.188
 2427SOL     OW 7289   3.162   4.177   0.691
 2427SOL    HW1 7290   3.103   4.257   0.695
 2427SOL    HW2 7291   3.177   4.142   0.784
 2428SOL     OW 7292   3.455   3.945   0.882
 2428SOL    HW1 7293   3.371   3.944   0.936
 2428SOL    HW2 7294   3.457   4.028   0.826
 2429SOL     OW 7295   2.092   4.352   1.975
 2429SOL    HW1 7296   1.999   4.350   2.012
 2429SOL    HW2 7297   2.093   4.313   1.883
 2430SOL     OW 7298   2.087   3.999   2.858
 2430SOL    HW1 7299   2.122   3.982   2.950
 2430SOL    HW2 7300   1.999   3.954   2.846
 2431SOL     OW 7301   1.881   4.092   2.509
 2431SOL    HW1 7302   1.799   4.135   2.548
 2431SOL    HW2 7303   1.853   4.019   2.446
 2432SOL     OW 7304   2.997   4.427   2.579
 2432SOL    HW1 7305   3.054   4.505   2.554
 2432SOL    HW2 7306   2.937   4.453   2.655
 2433SOL     OW 7307   3.617   4.331   2.093
 2433SOL    HW1 7308   3.605   4.318   1.994
 2433SOL    HW2 7309   3.587   4.250   2.142
 2434SOL     OW 7310   2.712   4.522   3.685
 2434SOL    HW1 7311   2.708   4.598   3.750
 2434SOL    HW2 7312   2.734   4.558   3.594
 2435SOL     OW 7313   2.547   4.736   2.527
 2435SOL    HW1 7314   2.616   4.720   2.597
 2435SOL    HW2 7315   2.474   4.793   2.565
 2436SOL     OW 7316   2.300   4.116   3.361
 2436SOL    HW1 7317   2.382   4.060   3.370
 2436SOL    HW2 7318   2.219   4.058   3.365
 2437SOL     OW 7319   3.465   4.171   2.599
 2437SOL    HW1 7320   3.391   4.217   2.549
 2437SOL    HW2 7321   3.516   4.239   2.652
 2438SOL     OW 7322   3.456   3.838   3.342
 2438SOL    HW1 7323   3.438   3.905   3.270
 2438SOL    HW2 7324   3.453   3.884   3.431
 2439SOL     OW 7325   1.984   4.367   2.425
 2439SOL    HW1 7326   1.939   4.279   2.442
 2439SOL    HW2 7327   1.983   4.421   2.509
 2440SOL     OW 7328   1.975   4.461   3.459
 2440SOL    HW1 7329   2.063   4.448   3.504
 2440SOL    HW2 7330   1.962   4.558   3.437
 2441SOL     OW 7331   2.671   3.728   2.364
 2441SOL    HW1 7332   2.711   3.819   2.355
 2441SOL    HW2 7333   2.571   3.736   2.370
 2442SOL     OW 7334   2.179   3.975   3.663
 2442SOL    HW1 7335   2.250   4.046   3.669
 2442SOL    HW2 7336   2.091   4.014   3.691
 2443SOL     OW 7337   2.460   4.453   2.132
 2443SOL    HW1 7338   2.484   4.522   2.064
 2443SOL    HW2 7339   2.382   4.486   2.186
 2444SOL     OW 7340   3.143   4.069   2.806
 2444SOL    HW1 7341   3.057   4.019   2.793
 2444SOL    HW2 7342   3.205   4.015   2.862
 2445SOL     OW 7343   2.669   4.329   3.327
 2445SOL    HW1 7344   2.622   4.326   3.416
 2445SOL    HW2 7345   2.618   4.274   3.261
 2446SOL     OW 7346   3.256   4.193   3.536
 2446SOL    HW1 7347   3.236   4.236   3.624
 2446SOL    HW2 7348   3.334   4.131   3.545
 2447SOL     OW 7349   2.853   4.134   3.104
 2447SOL    HW1 7350   2.776   4.168   3.158
 2447SOL    HW2 7351   2.819   4.083   3.025
 2448SOL     OW 7352   2.903   4.425   2.291
 2448SOL    HW1 7353   2.929   4.421   2.387
 2448SOL    HW2 7354   2.818   4.374   2.277
 2449SOL     OW 7355   2.727   4.072   2.057
 2449SOL    HW1 7356   2.786   4.135   2.008
 2449SOL    HW2 7357   2.746   3.978   2.028
 2450SOL     OW 7358   3.581   4.309   3.693
 2450SOL    HW1 7359   3.555   4.398   3.657
 2450SOL    HW2 7360   3.579   4.241   3.620
 2451SOL     OW 7361   2.412   3.920   2.747
 2451SOL    HW1 7362   2.407   3.915   2.847
 2451SOL    HW2 7363   2.414   4.016   2.718
 2452SOL     OW 7364   3.320   4.459   2.590
 2452SOL    HW1 7365   3.315   4.394   2.665
 2452SOL    HW2 7366   3.400   4.518   2.603
 2453SOL     OW 7367   2.064   4.009   3.360
 2453SOL    HW1 7368   1.984   4.069   3.347
 2453SOL    HW2 7369   2.054   3.960   3.446
 2454SOL     OW 7370   3.262   3.831   2.288
 2454SOL    HW1 7371   3.238   3.794   2.198
 2454SOL    HW2 7372   3.361   3.847   2.292
 2455SOL     OW 7373   2.244   4.424   2.342
 2455SOL    HW1 7374   2.289   4.334   2.339
 2455SOL    HW2 7375   2.150   4.413   2.375
 2456SOL     OW 7376   3.409   3.946   3.591
 2456SOL    HW1 7377   3.404   3.983   3.683
 2456SOL    HW2 7378   3.337   3.877   3.579
 2457SOL     OW 7379   2.476   3.846   1.979
 2457SOL    HW1 7380   2.574   3.824   1.986
 2457SOL    HW2 7381   2.445   3.829   1.886
 2458SOL     OW 7382   2.643   3.988   3.611
 2458SOL    HW1 7383   2.710   3.927   3.654
 2458SOL    HW2 7384   2.570   4.007   3.676
 2459SOL     OW 7385   3.213   4.314   3.295
 2459SOL    HW1 7386   3.241   4.271   3.380
 2459SOL    HW2 7387   3.238   4.410   3.296
 2460SOL     OW 7388   2.784   4.227   2.761
 2460SOL    HW1 7389   2.759   4.218   2.665
 2460SOL    HW2 7390   2.832   4.145   2.792
 2461SOL     OW 7391   2.401   3.788   2.374
 2461SOL    HW1 7392   2.320   3.789   2.432
 2461SOL    HW2 7393   2.404   3.871   2.319
 2462SOL     OW 7394   2.159   3.759   2.033
 2462SOL    HW1 7395   2.208   3.843   2.012
 2462SOL    HW2 7396   2.221   3.694   2.078
 2463SOL     OW 7397   2.797   3.960   2.342
 2463SOL    HW1 7398   2.749   4.001   2.264
 2463SOL    HW2 7399   2.896   3.958   2.323
 2464SOL     OW 7400   2.938   4.407   3.326
 2464SOL    HW1 7401   2.858   4.346   3.329
 2464SOL    HW2 7402   3.019   4.354   3.302
 2465SOL     OW 7403   2.894   4.273   1.878
 2465SOL    HW1 7404   2.853   4.355   1.839
 2465SOL    HW2 7405   2.958   4.299   1.951
 2466SOL     OW 7406   1.940   4.280   3.248
 2466SOL    HW1 7407   2.032   4.279   3.207
 2466SOL    HW2 7408   1.934   4.354   3.315
 2467SOL     OW 7409   2.423   3.946   3.009
 2467SOL    HW1 7410   2.461   3.862   3.046
 2467SOL    HW2 7411   2.335   3.965   3.053
 2468SOL     OW 7412   2.728   4.178   2.504
 2468SOL    HW1 7413   2.696   4.250   2.442
 2468SOL    HW2 7414   2.752   4.097   2.451
 2469SOL     OW 7415   2.879   3.763   2.615
 2469SOL    HW1 7416   2.807   3.768   2.546
 2469SOL    HW2 7417   2.855   3.694   2.684
 2470SOL     OW 7418   3.328   4.314   2.854
 2470SOL    HW1 7419   3.298   4.219   2.861
 2470SOL    HW2 7420   3.401   4.330   2.920
 2471SOL     OW 7421   3.719   4.557   2.239
 2471SOL    HW1 7422   3.761   4.493   2.303
 2471SOL    HW2 7423   3.681   4.506   2.161
 2472SOL     OW 7424   3.252   4.299   1.940
 2472SOL    HW1 7425   3.198   4.278   2.021
 2472SOL    HW2 7426   3.343   4.258   1.949
 2473SOL     OW 7427   2.389   3.980   2.190
 2473SOL    HW1 7428   2.416   3.921   2.115
 2473SOL    HW2 7429   2.389   4.075   2.159
 2474SOL     OW 7430   2.777   3.813   3.264
 2474SOL    HW1 7431   2.802   3.793   3.169
 2474SOL    HW2 7432   2.849   3.869   3.306
 2475SOL     OW 7433   2.567   4.774   2.230
 2475SOL    HW1 7434   2.553   4.781   2.329
 2475SOL    HW2 7435   2.651   4.723   2.212
 2476SOL     OW 7436   2.272   4.537   3.113
 2476SOL    HW1 7437   2.358   4.549   3.163
 2476SOL    HW2 7438   2.230   4.450   3.140
 2477SOL     OW 7439   3.136   4.110   3.124
 2477SOL    HW1 7440   3.157   4.184   3.188
 2477SOL    HW2 7441   3.047   4.127   3.081
 2478SOL     OW 7442   2.428   4.261   2.727
 2478SOL    HW1 7443   2.440   4.327   2.653
 2478SOL    HW2 7444   2.474   4.295   2.810
 2479SOL     OW 7445   3.444   4.363   2.334
 2479SOL    HW1 7446   3.413   4.424   2.407
 2479SOL    HW2 7447   3.494   4.415   2.265
 2480SOL     OW 7448   3.449   4.503   3.532
 2480SOL    HW1 7449   3.357   4.541   3.527
 2480SOL    HW2 7450   3.509   4.550   3.467
 2481SOL     OW 7451   2.875   3.829   3.632
 2481SOL    HW1 7452   2.881   3.914   3.580
 2481SOL    HW2 7453   2.907   3.753   3.575
 2482SOL     OW 7454   2.366   3.774   3.602
 2482SOL    HW1 7455   2.324   3.717   3.532
 2482SOL    HW2 7456   2.300   3.843   3.634
 2483SOL     OW 7457   3.222   4.586   2.907
 2483SOL    HW1 7458   3.147   4.586   2.841
 2483SOL    HW2 7459   3.259   4.494   2.916
 2484SOL     OW 7460   3.071   4.249   2.137
 2484SOL    HW1 7461   3.084   4.165   2.191
 2484SOL    HW2 7462   3.042   4.323   2.197
 2485SOL     OW 7463   2.169   3.937   3.093
 2485SOL    HW1 7464   2.146   3.974   3.183
 2485SOL    HW2 7465   2.139   3.842   3.087
 2486SOL     OW 7466   2.594   4.358   2.926
 2486SOL    HW1 7467   2.653   4.332   2.850
 2486SOL    HW2 7468   2.566   4.454   2.915
 2487SOL     OW 7469   3.590   4.659   3.716
 2487SOL    HW1 7470   3.544   4.652   3.627
 2487SOL    HW2 7471   3.528   4.703   3.782
 2488SOL     OW 7472   2.169   3.787   2.480
 2488SOL    HW1 7473   2.158   3.881   2.513
 2488SOL    HW2 7474   2.164   3.724   2.557
 2489SOL     OW 7475   3.484   4.091   2.236
 2489SOL    HW1 7476   3.486   4.015   2.300
 2489SOL    HW2 7477   3.436   4.168   2.276
 2490SOL     OW 7478   3.402   3.998   1.987
 2490SOL    HW1 7479   3.341   3.923   2.010
 2490SOL    HW2 7480   3.424   4.050   2.070
 2491SOL     OW 7481   2.181   4.534   2.811
 2491SOL    HW1 7482   2.274   4.570   2.816
 2491SOL    HW2 7483   2.175   4.449   2.863
 2492SOL     OW 7484   2.201   4.233   2.868
 2492SOL    HW1 7485   2.149   4.150   2.851
 2492SOL    HW2 7486   2.278   4.238   2.804
 2493SOL     OW 7487   3.000   4.104   3.540
 2493SOL    HW1 7488   2.955   4.167   3.604
 2493SOL    HW2 7489   3.093   4.135   3.523
 2494SOL     OW 7490   3.022   3.931   3.339
 2494SOL    HW1 7491   3.022   3.995   3.416
 2494SOL    HW2 7492   3.050   3.979   3.256
 2495SOL     OW 7493   1.902   4.268   2.976
 2495SOL    HW1 7494   1.987   4.235   2.935
 2495SOL    HW2 7495   1.915   4.283   3.074
 2496SOL     OW 7496   2.051   4.244   3.584
 2496SOL    HW1 7497   2.110   4.204   3.514
 2496SOL    HW2 7498   1.993   4.315   3.543
 2497SOL     OW 7499   2.677   4.296   2.187
 2497SOL    HW1 7500   2.684   4.207   2.141
 2497SOL    HW2 7501   2.583   4.330   2.179
 2498SOL     OW 7502   3.519   4.328   3.068
 2498SOL    HW1 7503   3.481   4.259   3.130
 2498SOL    HW2 7504   3.601   4.292   3.024
 2499SOL     OW 7505   2.533   4.188   3.131
 2499SOL    HW1 7506   2.499   4.099   3.101
 2499SOL    HW2 7507   2.559   4.242   3.051
 2500SOL     OW 7508   2.335   4.224   2.053
 2500SOL    HW1 7509   2.396   4.304   2.057
 2500SOL    HW2 7510   2.240   4.255   2.060
 2501SOL     OW 7511   3.588   3.859   2.385
 2501SOL    HW1 7512   3.661   3.842   2.318
 2501SOL    HW2 7513   3.557   3.772   2.423
 2502SOL     OW 7514   3.142   4.651   2.534
 2502SOL    HW1 7515   3.202   4.570   2.536
 2502SOL    HW2 7516   3.182   4.720   2.474
 2503SOL     OW 7517   3.703   3.899   2.825
 2503SOL    HW1 7518   3.742   3.814   2.789
 2503SOL    HW2 7519   3.605   3.901   2.806
 2504SOL     OW 7520   2.125   4.050   2.582
 2504SOL    HW1 7521   2.046   4.101   2.548
 2504SOL    HW2 7522   2.116   4.035   2.680
 2505SOL     OW 7523   2.778   4.634   2.153
 2505SOL    HW1 7524   2.841   4.672   2.085
 2505SOL    HW2 7525   2.818   4.551   2.192
 2506SOL     OW 7526   2.876   3.960   2.833
 2506SOL    HW1 7527   2.868   3.924   2.740
 2506SOL    HW2 7528   2.874   3.884   2.898
 2507SOL     OW 7529   3.571   4.109   3.243
 2507SOL    HW1 7530   3.644   4.178   3.247
 2507SOL    HW2 7531   3.599   4.034   3.184
 2508SOL     OW 7532   1.967   4.737   3.588
 2508SOL    HW1 7533   1.890   4.704   3.642
 2508SOL    HW2 7534   2.052   4.707   3.630
 2509SOL     OW 7535   2.534   3.927   3.351
 2509SOL    HW1 7536   2.624   3.911   3.311
 2509SOL    HW2 7537   2.542   3.932   3.450
 2510SOL     OW 7538   1.937   4.069   1.895
 2510SOL    HW1 7539   1.845   4.041   1.866
 2510SOL    HW2 7540   1.968   4.146   1.839
 2511SOL     OW 7541   3.302   4.580   3.260
 2511SOL    HW1 7542   3.245   4.632   3.197
 2511SOL    HW2 7543   3.398   4.592   3.236
 2512SOL     OW 7544   1.934   3.890   2.180
 2512SOL    HW1 7545   1.917   3.973   2.126
 2512SOL    HW2 7546   2.024   3.853   2.158
 2513SOL     OW 7547   2.475   4.566   3.293
 2513SOL    HW1 7548   2.531   4.647   3.276
 2513SOL    HW2 7549   2.534   4.486   3.296
 2514SOL     OW 7550   2.578   4.289   3.570
 2514SOL    HW1 7551   2.597   4.354   3.644
 2514SOL    HW2 7552   2.638   4.209   3.579
 2515SOL     OW 7553   3.536   4.607   3.116
 2515SOL    HW1 7554   3.509   4.518   3.079
 2515SOL    HW2 7555   3.537   4.675   3.043
 2516SOL     OW 7556   3.087   4.049   2.311
 2516SOL    HW1 7557   3.152   3.975   2.300
 2516SOL    HW2 7558   3.107   4.099   2.395
 2517SOL     OW 7559   2.456   4.469   2.514
 2517SOL    HW1 7560   2.506   4.554   2.495
 2517SOL    HW2 7561   2.368   4.471   2.466
 2518SOL     OW 7562   3.639   4.066   3.504
 2518SOL    HW1 7563   3.622   4.097   3.410
 2518SOL    HW2 7564   3.555   4.029   3.542
 2519SOL     OW 7565   3.686   3.916   3.089
 2519SOL    HW1 7566   3.682   3.826   3.133
 2519SOL    HW2 7567   3.689   3.905   2.990
 2520SOL     OW 7568   2.290   4.148   2.382
 2520SOL    HW1 7569   2.320   4.076   2.320
 2520SOL    HW2 7570   2.251   4.108   2.465
 2521SOL     OW 7571   2.179   4.271   3.142
 2521SOL    HW1 7572   2.217   4.212   3.214
 2521SOL    HW2 7573   2.219   4.245   3.054
 2522SOL     OW 7574   3.286   3.938   2.974
 2522SOL    HW1 7575   3.338   3.873   3.029
 2522SOL    HW2 7576   3.237   4.001   3.035
 2523SOL     OW 7577   2.863   3.758   3.016
 2523SOL    HW1 7578   2.800   3.686   2.985
 2523SOL    HW2 7579   2.956   3.722   3.016
 2524SOL     OW 7580   3.214   3.776   2.030
 2524SOL    HW1 7581   3.249   3.735   1.946
 2524SOL    HW2 7582   3.124   3.738   2.050
 2525SOL     OW 7583   3.162   4.177   2.553
 2525SOL    HW1 7584   3.103   4.257   2.557
 2525SOL    HW2 7585   3.177   4.142   2.646
 2526SOL     OW 7586   3.455   3.945   2.744
 2526SOL    HW1 7587   3.371   3.944   2.798
 2526SOL    HW2 7588   3.457   4.028   2.688
 2527SOL     OW 7589   2.092   4.352   3.837
 2527SOL    HW1 7590   1.999   4.350   3.874
 2527SOL    HW2 7591   2.093   4.313   3.745
 2528SOL     OW 7592   1.881   4.092   4.371
 2528SOL    HW1 7593   1.799   4.135   4.410
 2528SOL    HW2 7594   1.853   4.019   4.308
 2529SOL     OW 7595   2.997   4.427   4.441
 2529SOL    HW1 7596   3.054   4.505   4.416
 2529SOL    HW2 7597   2.937   4.453   4.517
 2530SOL     OW 7598   3.617   4.331   3.955
 2530SOL    HW1 7599   3.605   4.318   3.856
 2530SOL    HW2 7600   3.587   4.250   4.004
 2531SOL     OW 7601   2.547   4.736   4.389
 2531SOL    HW1 7602   2.616   4.720   4.459
 2531SOL    HW2 7603   2.474   4.793   4.427
 2532SOL     OW 7604   3.465   4.171   4.461
 2532SOL    HW1 7605   3.391   4.217   4.411
 2532SOL    HW2 7606   3.516   4.239   4.514
 2533SOL     OW 7607   1.984   4.367   4.287
 2533SOL    HW1 7608   1.939   4.279   4.304
 2533SOL    HW2 7609   1.983   4.421   4.371
 2534SOL     OW 7610   2.671   3.728   4.226
 2534SOL    HW1 7611   2.711   3.819   4.217
 2534SOL    HW2 7612   2.571   3.736   4.232
 2535SOL     OW 7613   2.460   4.453   3.994
 2535SOL    HW1 7614   2.484   4.522   3.926
 2535SOL    HW2 7615   2.382   4.486   4.048
 2536SOL     OW 7616   3.143   4.069   4.668
 2536SOL    HW1 7617   3.057   4.019   4.655
 2536SOL    HW2 7618   3.205   4.015   4.724
 2537SOL     OW 7619   2.903   4.425   4.153
 2537SOL    HW1 7620   2.929   4.421   4.249
 2537SOL    HW2 7621   2.818   4.374   4.139
 2538SOL     OW 7622   2.727   4.072   3.919
 2538SOL    HW1 7623   2.786   4.135   3.870
 2538SOL    HW2 7624   2.746   3.978   3.890
 2539SOL     OW 7625   2.412   3.920   4.609
 2539SOL    HW1 7626   2.407   3.915   4.709
 2539SOL    HW2 7627   2.414   4.016   4.580
 2540SOL     OW 7628   3.320   4.459   4.452
 2540SOL    HW1 7629   3.315   4.394   4.527
 2540SOL    HW2 7630   3.400   4.518   4.465
 2541SOL     OW 7631   3.262   3.831   4.150
 2541SOL    HW1 7632   3.238   3.794   4.060
 2541SOL    HW2 7633   3.361   3.847   4.154
 2542SOL     OW 7634   2.244   4.424   4.204
 2542SOL    HW1 7635   2.289   4.334   4.201
 2542SOL    HW2 7636   2.150   4.413   4.237
 2543SOL     OW 7637   2.476   3.846   3.841
 2543SOL    HW1 7638   2.574   3.824   3.848
 2543SOL    HW2 7639   2.445   3.829   3.748
 2544SOL     OW 7640   2.401   3.788   4.236
 2544SOL    HW1 7641   2.320   3.789   4.294
 2544SOL    HW2 7642   2.404   3.871   4.181
 2545SOL     OW 7643   2.159   3.759   3.895
 2545SOL    HW1 7644   2.208   3.843   3.874
 2545SOL    HW2 7645   2.221   3.694   3.940
 2546SOL     OW 7646   2.797   3.960   4.204
 2546SOL    HW1 7647   2.749   4.001   4.126
 2546SOL    HW2 7648   2.896   3.958   4.185
 2547SOL     OW 7649   2.321   4.876   4.465
 2547SOL    HW1 7650   2.250   4.849   4.530
 2547SOL    HW2 7651   2.295   4.848   4.372
 2548SOL     OW 7652   2.894   4.273   3.740
 2548SOL    HW1 7653   2.853   4.355   3.701
 2548SOL    HW2 7654   2.958   4.299   3.813
 2549SOL     OW 7655   2.728   4.178   4.366
 2549SOL    HW1 7656   2.696   4.250   4.304
 2549SOL    HW2 7657   2.752   4.097   4.313
 2550SOL     OW 7658   2.879   3.763   4.477
 2550SOL    HW1 7659   2.807   3.768   4.408
 2550SOL    HW2 7660   2.855   3.694   4.546
 2551SOL     OW 7661   3.719   4.557   4.101
 2551SOL    HW1 7662   3.761   4.493   4.165
 2551SOL    HW2 7663   3.681   4.506   4.023
 2552SOL     OW 7664   3.252   4.299   3.802
 2552SOL    HW1 7665   3.198   4.278   3.883
 2552SOL    HW2 7666   3.343   4.258   3.811
 2553SOL     OW 7667   2.389   3.980   4.052
 2553SOL    HW1 7668   2.416   3.921   3.977
 2553SOL    HW2 7669   2.389   4.075   4.021
 2554SOL     OW 7670   2.567   4.774   4.092
 2554SOL    HW1 7671   2.553   4.781   4.191
 2554SOL    HW2 7672   2.651   4.723   4.074
 2555SOL     OW 7673   2.428   4.261   4.589
 2555SOL    HW1 7674   2.440   4.327   4.515
 2555SOL    HW2 7675   2.474   4.295   4.672
 2556SOL     OW 7676   3.444   4.363   4.196
 2556SOL    HW1 7677   3.413   4.424   4.269
 2556SOL    HW2 7678   3.494   4.415   4.127
 2557SOL     OW 7679   3.071   4.249   3.999
 2557SOL    HW1 7680   3.084   4.165   4.053
 2557SOL    HW2 7681   3.042   4.323   4.059
 2558SOL     OW 7682   2.169   3.787   4.342
 2558SOL    HW1 7683   2.158   3.881   4.375
 2558SOL    HW2 7684   2.164   3.724   4.419
 2559SOL     OW 7685   3.484   4.091   4.098
 2559SOL    HW1 7686   3.486   4.015   4.162
 2559SOL    HW2 7687   3.436   4.168   4.138
 2560SOL     OW 7688   3.402   3.998   3.849
 2560SOL    HW1 7689   3.341   3.923   3.872
 2560SOL    HW2 7690   3.424   4.050   3.932
 2561SOL     OW 7691   2.677   4.296   4.049
 2561SOL    HW1 7692   2.684   4.207   4.003
 2561SOL    HW2 7693   2.583   4.330   4.041
 2562SOL     OW 7694   2.335   4.224   3.915
 2562SOL    HW1 7695   2.396   4.304   3.919
 2562SOL    HW2 7696   2.240   4.255   3.922
 2563SOL     OW 7697   3.588   3.859   4.247
 2563SOL    HW1 7698   3.661   3.842   4.180
 2563SOL    HW2 7699   3.557   3.772   4.285
 2564SOL     OW 7700   3.142   4.651   4.396
 2564SOL    HW1 7701   3.202   4.570   4.398
 2564SOL    HW2 7702   3.182   4.720   4.336
 2565SOL     OW 7703   3.703   3.899   4.687
 2565SOL    HW1 7704   3.742   3.814   4.651
 2565SOL    HW2 7705   3.605   3.901   4.668
 2566SOL     OW 7706   2.125   4.050   4.444
 2566SOL    HW1 7707   2.046   4.101   4.410
 2566SOL    HW2 7708   2.116   4.035   4.542
 2567SOL     OW 7709   2.778   4.634   4.015
 2567SOL    HW1 7710   2.841   4.672   3.947
 2567SOL    HW2 7711   2.818   4.551   4.054
 2568SOL     OW 7712   1.937   4.069   3.757
 2568SOL    HW1 7713   1.845   4.041   3.728
 2568SOL    HW2 7714   1.968   4.146   3.701
 2569SOL     OW 7715   1.934   3.890   4.042
 2569SOL    HW1 7716   1.917   3.973   3.988
 2569SOL    HW2 7717   2.024   3.853   4.020
 2570SOL     OW 7718   3.087   4.049   4.173
 2570SOL    HW1 7719   3.152   3.975   4.162
 2570SOL    HW2 7720   3.107   4.099   4.257
 2571SOL     OW 7721   2.456   4.469   4.376
 2571SOL    HW1 7722   2.506   4.554   4.357
 2571SOL    HW2 7723   2.368   4.471   4.328
 2572SOL     OW 7724   2.290   4.148   4.244
 2572SOL    HW1 7725   2.320   4.076   4.182
 2572SOL    HW2 7726   2.251   4.108   4.327
 2573SOL     OW 7727   3.214   3.776   3.892
 2573SOL    HW1 7728   3.249   3.735   3.808
 2573SOL    HW2 7729   3.124   3.738   3.912
 2574SOL     OW 7730   3.162   4.177   4.415
 2574SOL    HW1 7731   3.103   4.257   4.419
 2574SOL    HW2 7732   3.177   4.142   4.508
 2575SOL     OW 7733   3.954   0.628   0.113
 2575SOL    HW1 7734   3.861   0.626   0.150
 2575SOL    HW2 7735   3.955   0.589   0.021
 2576SOL     OW 7736   3.949   0.275   0.996
 2576SOL    HW1 7737   3.984   0.258   1.088
 2576SOL    HW2 7738   3.861   0.230   0.984
 2577SOL     OW 7739   3.743   0.368   0.647
 2577SOL    HW1 7740   3.661   0.411   0.686
 2577SOL    HW2 7741   3.715   0.295   0.584
 2578SOL     OW 7742   4.293   1.275   1.165
 2578SOL    HW1 7743   4.200   1.268   1.128
 2578SOL    HW2 7744   4.304   1.364   1.209
 2579SOL     OW 7745   4.574   0.798   1.823
 2579SOL    HW1 7746   4.570   0.874   1.888
 2579SOL    HW2 7747   4.596   0.834   1.732
 2580SOL     OW 7748   4.409   1.012   0.665
 2580SOL    HW1 7749   4.478   0.996   0.735
 2580SOL    HW2 7750   4.336   1.069   0.703
 2581SOL     OW 7751   4.410   1.161   1.803
 2581SOL    HW1 7752   4.470   1.240   1.817
 2581SOL    HW2 7753   4.324   1.192   1.762
 2582SOL     OW 7754   4.059   1.435   1.061
 2582SOL    HW1 7755   3.981   1.404   1.008
 2582SOL    HW2 7756   4.117   1.493   1.004
 2583SOL     OW 7757   4.162   0.392   1.499
 2583SOL    HW1 7758   4.244   0.336   1.508
 2583SOL    HW2 7759   4.081   0.334   1.503
 2584SOL     OW 7760   3.955   1.713   0.483
 2584SOL    HW1 7761   3.989   1.790   0.537
 2584SOL    HW2 7762   3.999   1.713   0.393
 2585SOL     OW 7763   3.954   1.434   0.538
 2585SOL    HW1 7764   3.928   1.530   0.538
 2585SOL    HW2 7765   3.883   1.380   0.583
 2586SOL     OW 7766   3.964   1.091   0.886
 2586SOL    HW1 7767   3.978   1.007   0.938
 2586SOL    HW2 7768   3.909   1.155   0.941
 2587SOL     OW 7769   4.344   1.786   1.439
 2587SOL    HW1 7770   4.252   1.769   1.474
 2587SOL    HW2 7771   4.372   1.878   1.465
 2588SOL     OW 7772   4.330   0.964   0.123
 2588SOL    HW1 7773   4.337   1.048   0.069
 2588SOL    HW2 7774   4.376   0.977   0.211
 2589SOL     OW 7775   3.846   0.643   0.563
 2589SOL    HW1 7776   3.801   0.555   0.580
 2589SOL    HW2 7777   3.845   0.697   0.647
 2590SOL     OW 7778   3.751   1.596   0.117
 2590SOL    HW1 7779   3.732   1.500   0.138
 2590SOL    HW2 7780   3.718   1.654   0.192
 2591SOL     OW 7781   3.837   0.737   1.597
 2591SOL    HW1 7782   3.925   0.724   1.642
 2591SOL    HW2 7783   3.824   0.834   1.575
 2592SOL     OW 7784   4.337   1.365   0.726
 2592SOL    HW1 7785   4.288   1.278   0.735
 2592SOL    HW2 7786   4.314   1.408   0.639
 2593SOL     OW 7787   4.533   0.004   0.502
 2593SOL    HW1 7788   4.573   0.095   0.493
 2593SOL    HW2 7789   4.433   0.012   0.508
 2594SOL     OW 7790   3.921   0.976   1.264
 2594SOL    HW1 7791   4.010   0.931   1.250
 2594SOL    HW2 7792   3.848   0.911   1.245
 2595SOL     OW 7793   4.041   0.251   1.801
 2595SOL    HW1 7794   4.112   0.322   1.807
 2595SOL    HW2 7795   3.953   0.290   1.829
 2596SOL     OW 7796   4.322   0.729   0.270
 2596SOL    HW1 7797   4.346   0.798   0.202
 2596SOL    HW2 7798   4.244   0.762   0.324
 2597SOL     OW 7799   3.800   0.811   0.789
 2597SOL    HW1 7800   3.899   0.799   0.798
 2597SOL    HW2 7801   3.776   0.906   0.810
 2598SOL     OW 7802   3.854   1.821   1.571
 2598SOL    HW1 7803   3.844   1.806   1.670
 2598SOL    HW2 7804   3.768   1.857   1.535
 2599SOL     OW 7805   4.274   0.196   0.885
 2599SOL    HW1 7806   4.269   0.191   0.985
 2599SOL    HW2 7807   4.276   0.292   0.856
 2600SOL     OW 7808   4.075   1.801   0.853
 2600SOL    HW1 7809   4.125   1.715   0.859
 2600SOL    HW2 7810   4.140   1.878   0.850
 2601SOL     OW 7811   4.045   0.943   0.242
 2601SOL    HW1 7812   4.127   0.982   0.200
 2601SOL    HW2 7813   4.018   0.861   0.193
 2602SOL     OW 7814   4.185   1.266   1.727
 2602SOL    HW1 7815   4.135   1.267   1.641
 2602SOL    HW2 7816   4.122   1.248   1.803
 2603SOL     OW 7817   3.926   0.285   1.498
 2603SOL    HW1 7818   3.846   0.345   1.485
 2603SOL    HW2 7819   3.916   0.236   1.584
 2604SOL     OW 7820   4.188   1.743   0.323
 2604SOL    HW1 7821   4.221   1.782   0.409
 2604SOL    HW2 7822   4.264   1.736   0.258
 2605SOL     OW 7823   3.973   1.785   1.241
 2605SOL    HW1 7824   4.030   1.720   1.291
 2605SOL    HW2 7825   3.957   1.752   1.148
 2606SOL     OW 7826   4.106   0.700   0.480
 2606SOL    HW1 7827   4.151   0.610   0.477
 2606SOL    HW2 7828   4.012   0.689   0.513
 2607SOL     OW 7829   4.338   0.122   0.117
 2607SOL    HW1 7830   4.436   0.100   0.124
 2607SOL    HW2 7831   4.307   0.105   0.024
 2608SOL     OW 7832   4.527   1.402   0.924
 2608SOL    HW1 7833   4.617   1.416   0.882
 2608SOL    HW2 7834   4.456   1.404   0.853
 2609SOL     OW 7835   4.646   0.503   0.899
 2609SOL    HW1 7836   4.621   0.494   0.803
 2609SOL    HW2 7837   4.694   0.421   0.930
 2610SOL     OW 7838   4.263   0.064   0.512
 2610SOL    HW1 7839   4.182   0.065   0.570
 2610SOL    HW2 7840   4.266   0.147   0.457
 2611SOL     OW 7841   4.021   0.035   0.171
 2611SOL    HW1 7842   4.070   0.119   0.150
 2611SOL    HW2 7843   4.083  -0.030   0.216
 2612SOL     OW 7844   4.183   1.152   0.741
 2612SOL    HW1 7845   4.112   1.125   0.806
 2612SOL    HW2 7846   4.157   1.124   0.648
 2613SOL     OW 7847   3.802   0.556   1.386
 2613SOL    HW1 7848   3.894   0.555   1.345
 2613SOL    HW2 7849   3.796   0.630   1.453
 2614SOL     OW 7850   4.285   0.222   1.147
 2614SOL    HW1 7851   4.323   0.138   1.184
 2614SOL    HW2 7852   4.197   0.241   1.191
 2615SOL     OW 7853   4.212   1.385   0.174
 2615SOL    HW1 7854   4.125   1.370   0.221
 2615SOL    HW2 7855   4.195   1.411   0.079
 2616SOL     OW 7856   4.251   0.256   0.328
 2616SOL    HW1 7857   4.278   0.197   0.253
 2616SOL    HW2 7858   4.251   0.351   0.297
 2617SOL     OW 7859   4.639   0.089   1.402
 2617SOL    HW1 7860   4.664   0.069   1.307
 2617SOL    HW2 7861   4.711   0.145   1.444
 2618SOL     OW 7862   4.134   0.813   1.251
 2618SOL    HW1 7863   4.220   0.825   1.301
 2618SOL    HW2 7864   4.092   0.726   1.278
 2619SOL     OW 7865   3.788   1.564   1.331
 2619SOL    HW1 7866   3.742   1.646   1.297
 2619SOL    HW2 7867   3.886   1.583   1.340
 2620SOL     OW 7868   4.091   1.100   0.501
 2620SOL    HW1 7869   4.084   1.183   0.445
 2620SOL    HW2 7870   4.095   1.020   0.441
 2621SOL     OW 7871   4.290   0.537   0.865
 2621SOL    HW1 7872   4.302   0.603   0.791
 2621SOL    HW2 7873   4.336   0.571   0.948
 2622SOL     OW 7874   4.078   1.510   1.329
 2622SOL    HW1 7875   4.057   1.466   1.242
 2622SOL    HW2 7876   4.175   1.536   1.332
 2623SOL     OW 7877   4.126   0.751   1.598
 2623SOL    HW1 7878   4.194   0.806   1.551
 2623SOL    HW2 7879   4.166   0.663   1.625
 2624SOL     OW 7880   4.228   0.050   1.740
 2624SOL    HW1 7881   4.186  -0.007   1.670
 2624SOL    HW2 7882   4.162   0.119   1.772
 2625SOL     OW 7883   4.297   0.870   1.029
 2625SOL    HW1 7884   4.341   0.959   1.020
 2625SOL    HW2 7885   4.234   0.870   1.106
 2626SOL     OW 7886   4.031   0.213   1.231
 2626SOL    HW1 7887   4.008   0.250   1.321
 2626SOL    HW2 7888   4.001   0.118   1.225
 2627SOL     OW 7889   3.761   1.310   1.282
 2627SOL    HW1 7890   3.814   1.261   1.350
 2627SOL    HW2 7891   3.783   1.408   1.287
 2628SOL     OW 7892   4.456   0.634   1.064
 2628SOL    HW1 7893   4.515   0.608   0.988
 2628SOL    HW2 7894   4.428   0.730   1.053
 2629SOL     OW 7895   4.031   0.063   0.618
 2629SOL    HW1 7896   4.020   0.157   0.651
 2629SOL    HW2 7897   4.026   0.000   0.695
 2630SOL     OW 7898   4.747   0.766   0.966
 2630SOL    HW1 7899   4.762   0.787   1.062
 2630SOL    HW2 7900   4.717   0.671   0.957
 2631SOL     OW 7901   4.074   0.898   1.804
 2631SOL    HW1 7902   4.150   0.942   1.852
 2631SOL    HW2 7903   4.109   0.851   1.722
 2632SOL     OW 7904   4.792   1.333   0.849
 2632SOL    HW1 7905   4.799   1.249   0.794
 2632SOL    HW2 7906   4.854   1.402   0.813
 2633SOL     OW 7907   4.043   0.810   0.949
 2633SOL    HW1 7908   4.136   0.846   0.954
 2633SOL    HW2 7909   4.037   0.725   1.001
 2634SOL     OW 7910   4.063   0.509   1.006
 2634SOL    HW1 7911   4.011   0.426   0.989
 2634SOL    HW2 7912   4.140   0.514   0.942
 2635SOL     OW 7913   3.732   1.326   0.200
 2635SOL    HW1 7914   3.639   1.347   0.169
 2635SOL    HW2 7915   3.742   1.227   0.213
 2636SOL     OW 7916   3.812   1.801   0.927
 2636SOL    HW1 7917   3.770   1.715   0.900
 2636SOL    HW2 7918   3.906   1.804   0.893
 2637SOL     OW 7919   4.228   1.568   0.910
 2637SOL    HW1 7920   4.294   1.642   0.919
 2637SOL    HW2 7921   4.272   1.489   0.868
 2638SOL     OW 7922   3.764   0.544   1.114
 2638SOL    HW1 7923   3.849   0.511   1.073
 2638SOL    HW2 7924   3.777   0.559   1.212
 2639SOL     OW 7925   3.913   0.520   1.722
 2639SOL    HW1 7926   3.972   0.480   1.652
 2639SOL    HW2 7927   3.855   0.591   1.681
 2640SOL     OW 7928   4.539   0.572   0.325
 2640SOL    HW1 7929   4.546   0.483   0.279
 2640SOL    HW2 7930   4.445   0.606   0.317
 2641SOL     OW 7931   3.976   1.564   1.744
 2641SOL    HW1 7932   3.946   1.621   1.820
 2641SOL    HW2 7933   3.969   1.467   1.770
 2642SOL     OW 7934   4.395   0.464   1.269
 2642SOL    HW1 7935   4.361   0.375   1.239
 2642SOL    HW2 7936   4.421   0.518   1.189
 2643SOL     OW 7937   4.197   0.500   0.191
 2643SOL    HW1 7938   4.258   0.580   0.195
 2643SOL    HW2 7939   4.102   0.531   0.198
 2644SOL     OW 7940   3.883   1.137   1.466
 2644SOL    HW1 7941   3.905   1.076   1.542
 2644SOL    HW2 7942   3.893   1.088   1.380
 2645SOL     OW 7943   3.807   1.258   1.022
 2645SOL    HW1 7944   3.802   1.257   1.122
 2645SOL    HW2 7945   3.724   1.217   0.984
 2646SOL     OW 7946   4.412   1.662   1.716
 2646SOL    HW1 7947   4.356   1.743   1.725
 2646SOL    HW2 7948   4.464   1.666   1.630
 2647SOL     OW 7949   3.854   1.794   1.851
 2647SOL    HW1 7950   3.813   1.720   1.904
 2647SOL    HW2 7951   3.918   1.845   1.909
 2648SOL     OW 7952   4.396   1.616   0.154
 2648SOL    HW1 7953   4.405   1.626   0.055
 2648SOL    HW2 7954   4.356   1.527   0.175
 2649SOL     OW 7955   3.987   0.326   0.720
 2649SOL    HW1 7956   3.908   0.377   0.686
 2649SOL    HW2 7957   3.978   0.311   0.818
 2650SOL     OW 7958   4.546   1.002   1.372
 2650SOL    HW1 7959   4.586   1.001   1.280
 2650SOL    HW2 7960   4.556   1.094   1.412
 2651SOL     OW 7961   4.096   1.288   1.490
 2651SOL    HW1 7962   4.083   1.381   1.456
 2651SOL    HW2 7963   4.012   1.236   1.477
 2652SOL     OW 7964   4.314   1.487   0.491
 2652SOL    HW1 7965   4.356   1.429   0.421
 2652SOL    HW2 7966   4.270   1.566   0.447
 2653SOL     OW 7967   3.979   1.348   0.290
 2653SOL    HW1 7968   3.883   1.349   0.263
 2653SOL    HW2 7969   3.991   1.401   0.374
 2654SOL     OW 7970   3.829   1.013   1.726
 2654SOL    HW1 7971   3.752   0.980   1.780
 2654SOL    HW2 7972   3.914   0.983   1.768
 2655SOL     OW 7973   4.396   0.203   1.489
 2655SOL    HW1 7974   4.486   0.187   1.449
 2655SOL    HW2 7975   4.404   0.208   1.588
 2656SOL     OW 7976   3.799   0.345   0.033
 2656SOL    HW1 7977   3.707   0.317   0.004
 2656SOL    HW2 7978   3.830   0.422  -0.023
 2657SOL     OW 7979   3.796   0.166   0.318
 2657SOL    HW1 7980   3.779   0.249   0.264
 2657SOL    HW2 7981   3.886   0.129   0.296
 2658SOL     OW 7982   4.337   0.842   1.431
 2658SOL    HW1 7983   4.393   0.923   1.414
 2658SOL    HW2 7984   4.396   0.762   1.434
 2659SOL     OW 7985   4.440   0.565   1.708
 2659SOL    HW1 7986   4.459   0.630   1.782
 2659SOL    HW2 7987   4.500   0.485   1.717
 2660SOL     OW 7988   4.114   1.741   1.560
 2660SOL    HW1 7989   4.023   1.782   1.558
 2660SOL    HW2 7990   4.107   1.647   1.592
 2661SOL     OW 7991   4.318   0.745   0.652
 2661SOL    HW1 7992   4.368   0.830   0.633
 2661SOL    HW2 7993   4.230   0.747   0.604
 2662SOL     OW 7994   4.385   1.790   0.953
 2662SOL    HW1 7995   4.339   1.878   0.940
 2662SOL    HW2 7996   4.484   1.802   0.946
 2663SOL     OW 7997   3.945   1.314   1.844
 2663SOL    HW1 7998   3.880   1.241   1.823
 2663SOL    HW2 7999   3.949   1.328   1.942
 2664SOL     OW 8000   3.803   1.240   0.653
 2664SOL    HW1 8001   3.802   1.193   0.741
 2664SOL    HW2 8002   3.885   1.212   0.602
 2665SOL     OW 8003   4.396   1.391   1.624
 2665SOL    HW1 8004   4.318   1.341   1.662
 2665SOL    HW2 8005   4.393   1.486   1.655
 2666SOL     OW 8006   4.152   0.424   0.520
 2666SOL    HW1 8007   4.182   0.352   0.458
 2666SOL    HW2 8008   4.113   0.384   0.603
 2667SOL     OW 8009   4.041   0.547   1.280
 2667SOL    HW1 8010   4.079   0.488   1.352
 2667SOL    HW2 8011   4.081   0.521   1.192
 2668SOL     OW 8012   4.536   1.586   0.687
 2668SOL    HW1 8013   4.568   1.596   0.593
 2668SOL    HW2 8014   4.457   1.524   0.689
 2669SOL     OW 8015   4.725   0.034   1.154
 2669SOL    HW1 8016   4.662  -0.038   1.123
 2669SOL    HW2 8017   4.818  -0.002   1.154
 2670SOL     OW 8018   4.342   1.567   1.284
 2670SOL    HW1 8019   4.337   1.649   1.341
 2670SOL    HW2 8020   4.431   1.564   1.239
 2671SOL     OW 8021   3.763   1.077   0.300
 2671SOL    HW1 8022   3.862   1.066   0.291
 2671SOL    HW2 8023   3.723   0.991   0.332
 2672SOL     OW 8024   3.954   0.628   1.975
 2672SOL    HW1 8025   3.861   0.626   2.012
 2672SOL    HW2 8026   3.955   0.589   1.883
 2673SOL     OW 8027   3.949   0.275   2.858
 2673SOL    HW1 8028   3.984   0.258   2.950
 2673SOL    HW2 8029   3.861   0.230   2.846
 2674SOL     OW 8030   3.743   0.368   2.509
 2674SOL    HW1 8031   3.661   0.411   2.548
 2674SOL    HW2 8032   3.715   0.295   2.446
 2675SOL     OW 8033   4.293   1.275   3.027
 2675SOL    HW1 8034   4.200   1.268   2.990
 2675SOL    HW2 8035   4.304   1.364   3.071
 2676SOL     OW 8036   4.574   0.798   3.685
 2676SOL    HW1 8037   4.570   0.874   3.750
 2676SOL    HW2 8038   4.596   0.834   3.594
 2677SOL     OW 8039   4.409   1.012   2.527
 2677SOL    HW1 8040   4.478   0.996   2.597
 2677SOL    HW2 8041   4.336   1.069   2.565
 2678SOL     OW 8042   4.410   1.161   3.665
 2678SOL    HW1 8043   4.470   1.240   3.679
 2678SOL    HW2 8044   4.324   1.192   3.624
 2679SOL     OW 8045   4.059   1.435   2.923
 2679SOL    HW1 8046   3.981   1.404   2.870
 2679SOL    HW2 8047   4.117   1.493   2.866
 2680SOL     OW 8048   4.162   0.392   3.361
 2680SOL    HW1 8049   4.244   0.336   3.370
 2680SOL    HW2 8050   4.081   0.334   3.365
 2681SOL     OW 8051   3.955   1.713   2.345
 2681SOL    HW1 8052   3.989   1.790   2.399
 2681SOL    HW2 8053   3.999   1.713   2.255
 2682SOL     OW 8054   3.954   1.434   2.400
 2682SOL    HW1 8055   3.928   1.530   2.400
 2682SOL    HW2 8056   3.883   1.380   2.445
 2683SOL     OW 8057   3.964   1.091   2.748
 2683SOL    HW1 8058   3.978   1.007   2.800
 2683SOL    HW2 8059   3.909   1.155   2.803
 2684SOL     OW 8060   4.344   1.786   3.301
 2684SOL    HW1 8061   4.252   1.769   3.336
 2684SOL    HW2 8062   4.372   1.878   3.327
 2685SOL     OW 8063   4.330   0.964   1.985
 2685SOL    HW1 8064   4.337   1.048   1.931
 2685SOL    HW2 8065   4.376   0.977   2.073
 2686SOL     OW 8066   3.846   0.643   2.425
 2686SOL    HW1 8067   3.801   0.555   2.442
 2686SOL    HW2 8068   3.845   0.697   2.509
 2687SOL     OW 8069   3.751   1.596   1.979
 2687SOL    HW1 8070   3.732   1.500   2.000
 2687SOL    HW2 8071   3.718   1.654   2.054
 2688SOL     OW 8072   3.837   0.737   3.459
 2688SOL    HW1 8073   3.925   0.724   3.504
 2688SOL    HW2 8074   3.824   0.834   3.437
 2689SOL     OW 8075   4.337   1.365   2.588
 2689SOL    HW1 8076   4.288   1.278   2.597
 2689SOL    HW2 8077   4.314   1.408   2.501
 2690SOL     OW 8078   4.533   0.004   2.364
 2690SOL    HW1 8079   4.573   0.095   2.355
 2690SOL    HW2 8080   4.433   0.012   2.370
 2691SOL     OW 8081   3.921   0.976   3.126
 2691SOL    HW1 8082   4.010   0.931   3.112
 2691SOL    HW2 8083   3.848   0.911   3.107
 2692SOL     OW 8084   4.041   0.251   3.663
 2692SOL    HW1 8085   4.112   0.322   3.669
 2692SOL    HW2 8086   3.953   0.290   3.691
 2693SOL     OW 8087   4.322   0.729   2.132
 2693SOL    HW1 8088   4.346   0.798   2.064
 2693SOL    HW2 8089   4.244   0.762   2.186
 2694SOL     OW 8090   3.800   0.811   2.651
 2694SOL    HW1 8091   3.899   0.799   2.660
 2694SOL    HW2 8092   3.776   0.906   2.672
 2695SOL     OW 8093   3.854   1.821   3.433
 2695SOL    HW1 8094   3.844   1.806   3.532
 2695SOL    HW2 8095   3.768   1.857   3.397
 2696SOL     OW 8096   4.274   0.196   2.747
 2696SOL    HW1 8097   4.269   0.191   2.847
 2696SOL    HW2 8098   4.276   0.292   2.718
 2697SOL     OW 8099   4.075   1.801   2.715
 2697SOL    HW1 8100   4.125   1.715   2.721
 2697SOL    HW2 8101   4.140   1.878   2.712
 2698SOL     OW 8102   4.045   0.943   2.104
 2698SOL    HW1 8103   4.127   0.982   2.062
 2698SOL    HW2 8104   4.018   0.861   2.055
 2699SOL     OW 8105   4.185   1.266   3.589
 2699SOL    HW1 8106   4.135   1.267   3.503
 2699SOL    HW2 8107   4.122   1.248   3.665
 2700SOL     OW 8108   3.926   0.285   3.360
 2700SOL    HW1 8109   3.846   0.345   3.347
 2700SOL    HW2 8110   3.916   0.236   3.446
 2701SOL     OW 8111   4.188   1.743   2.185
 2701SOL    HW1 8112   4.221   1.782   2.271
 2701SOL    HW2 8113   4.264   1.736   2.120
 2702SOL     OW 8114   3.973   1.785   3.103
 2702SOL    HW1 8115   4.030   1.720   3.153
 2702SOL    HW2 8116   3.957   1.752   3.010
 2703SOL     OW 8117   4.106   0.700   2.342
 2703SOL    HW1 8118   4.151   0.610   2.339
 2703SOL    HW2 8119   4.012   0.689   2.375
 2704SOL     OW 8120   4.338   0.122   1.979
 2704SOL    HW1 8121   4.436   0.100   1.986
 2704SOL    HW2 8122   4.307   0.105   1.886
 2705SOL     OW 8123   4.527   1.402   2.786
 2705SOL    HW1 8124   4.617   1.416   2.744
 2705SOL    HW2 8125   4.456   1.404   2.715
 2706SOL     OW 8126   4.646   0.503   2.761
 2706SOL    HW1 8127   4.621   0.494   2.665
 2706SOL    HW2 8128   4.694   0.421   2.792
 2707SOL     OW 8129   4.263   0.064   2.374
 2707SOL    HW1 8130   4.182   0.065   2.432
 2707SOL    HW2 8131   4.266   0.147   2.319
 2708SOL     OW 8132   4.021   0.035   2.033
 2708SOL    HW1 8133   4.070   0.119   2.012
 2708SOL    HW2 8134   4.083  -0.030   2.078
 2709SOL     OW 8135   4.183   1.152   2.603
 2709SOL    HW1 8136   4.112   1.125   2.668
 2709SOL    HW2 8137   4.157   1.124   2.510
 2710SOL     OW 8138   3.802   0.556   3.248
 2710SOL    HW1 8139   3.894   0.555   3.207
 2710SOL    HW2 8140   3.796   0.630   3.315
 2711SOL     OW 8141   4.285   0.222   3.009
 2711SOL    HW1 8142   4.323   0.138   3.046
 2711SOL    HW2 8143   4.197   0.241   3.053
 2712SOL     OW 8144   4.212   1.385   2.036
 2712SOL    HW1 8145   4.125   1.370   2.083
 2712SOL    HW2 8146   4.195   1.411   1.941
 2713SOL     OW 8147   4.251   0.256   2.190
 2713SOL    HW1 8148   4.278   0.197   2.115
 2713SOL    HW2 8149   4.251   0.351   2.159
 2714SOL     OW 8150   4.639   0.089   3.264
 2714SOL    HW1 8151   4.664   0.069   3.169
 2714SOL    HW2 8152   4.711   0.145   3.306
 2715SOL     OW 8153   4.134   0.813   3.113
 2715SOL    HW1 8154   4.220   0.825   3.163
 2715SOL    HW2 8155   4.092   0.726   3.140
 2716SOL     OW 8156   3.788   1.564   3.193
 2716SOL    HW1 8157   3.742   1.646   3.159
 2716SOL    HW2 8158   3.886   1.583   3.202
 2717SOL     OW 8159   4.091   1.100   2.363
 2717SOL    HW1 8160   4.084   1.183   2.307
 2717SOL    HW2 8161   4.095   1.020   2.303
 2718SOL     OW 8162   4.290   0.537   2.727
 2718SOL    HW1 8163   4.302   0.603   2.653
 2718SOL    HW2 8164   4.336   0.571   2.810
 2719SOL     OW 8165   4.078   1.510   3.191
 2719SOL    HW1 8166   4.057   1.466   3.104
 2719SOL    HW2 8167   4.175   1.536   3.194
 2720SOL     OW 8168   4.126   0.751   3.460
 2720SOL    HW1 8169   4.194   0.806   3.413
 2720SOL    HW2 8170   4.166   0.663   3.487
 2721SOL     OW 8171   4.228   0.050   3.602
 2721SOL    HW1 8172   4.186  -0.007   3.532
 2721SOL    HW2 8173   4.162   0.119   3.634
 2722SOL     OW 8174   4.297   0.870   2.891
 2722SOL    HW1 8175   4.341   0.959   2.882
 2722SOL    HW2 8176   4.234   0.870   2.968
 2723SOL     OW 8177   4.031   0.213   3.093
 2723SOL    HW1 8178   4.008   0.250   3.183
 2723SOL    HW2 8179   4.001   0.118   3.087
 2724SOL     OW 8180   3.761   1.310   3.144
 2724SOL    HW1 8181   3.814   1.261   3.212
 2724SOL    HW2 8182   3.783   1.408   3.149
 2725SOL     OW 8183   4.456   0.634   2.926
 2725SOL    HW1 8184   4.515   0.608   2.850
 2725SOL    HW2 8185   4.428   0.730   2.915
 2726SOL     OW 8186   4.031   0.063   2.480
 2726SOL    HW1 8187   4.020   0.157   2.513
 2726SOL    HW2 8188   4.026   0.000   2.557
 2727SOL     OW 8189   4.747   0.766   2.828
 2727SOL    HW1 8190   4.762   0.787   2.924
 2727SOL    HW2 8191   4.717   0.671   2.819
 2728SOL     OW 8192   4.074   0.898   3.666
 2728SOL    HW1 8193   4.150   0.942   3.714
 2728SOL    HW2 8194   4.109   0.851   3.584
 2729SOL     OW 8195   4.792   1.333   2.711
 2729SOL    HW1 8196   4.799   1.249   2.656
 2729SOL    HW2 8197   4.854   1.402   2.675
 2730SOL     OW 8198   4.043   0.810   2.811
 2730SOL    HW1 8199   4.136   0.846   2.816
 2730SOL    HW2 8200   4.037   0.725   2.863
 2731SOL     OW 8201   4.063   0.509   2.868
 2731SOL    HW1 8202   4.011   0.426   2.851
 2731SOL    HW2 8203   4.140   0.514   2.804
 2732SOL     OW 8204   3.732   1.326   2.062
 2732SOL    HW1 8205   3.639   1.347   2.031
 2732SOL    HW2 8206   3.742   1.227   2.075
 2733SOL     OW 8207   3.812   1.801   2.789
 2733SOL    HW1 8208   3.770   1.715   2.762
 2733SOL    HW2 8209   3.906   1.804   2.755
 2734SOL     OW 8210   4.228   1.568   2.772
 2734SOL    HW1 8211   4.294   1.642   2.781
 2734SOL    HW2 8212   4.272   1.489   2.730
 2735SOL     OW 8213   3.764   0.544   2.976
 2735SOL    HW1 8214   3.849   0.511   2.935
 2735SOL    HW2 8215   3.777   0.559   3.074
 2736SOL     OW 8216   3.913   0.520   3.584
 2736SOL    HW1 8217   3.972   0.480   3.514
 2736SOL    HW2 8218   3.855   0.591   3.543
 2737SOL     OW 8219   4.539   0.572   2.187
 2737SOL    HW1 8220   4.546   0.483   2.141
 2737SOL    HW2 8221   4.445   0.606   2.179
 2738SOL     OW 8222   3.976   1.564   3.606
 2738SOL    HW1 8223   3.946   1.621   3.682
 2738SOL    HW2 8224   3.969   1.467   3.632
 2739SOL     OW 8225   4.395   0.464   3.131
 2739SOL    HW1 8226   4.361   0.375   3.101
 2739SOL    HW2 8227   4.421   0.518   3.051
 2740SOL     OW 8228   4.197   0.500   2.053
 2740SOL    HW1 8229   4.258   0.580   2.057
 2740SOL    HW2 8230   4.102   0.531   2.060
 2741SOL     OW 8231   3.883   1.137   3.328
 2741SOL    HW1 8232   3.905   1.076   3.404
 2741SOL    HW2 8233   3.893   1.088   3.242
 2742SOL     OW 8234   3.807   1.258   2.884
 2742SOL    HW1 8235   3.802   1.257   2.984
 2742SOL    HW2 8236   3.724   1.217   2.846
 2743SOL     OW 8237   4.412   1.662   3.578
 2743SOL    HW1 8238   4.356   1.743   3.587
 2743SOL    HW2 8239   4.464   1.666   3.492
 2744SOL     OW 8240   4.627   0.086   1.995
 2744SOL    HW1 8241   4.678   0.087   1.909
 2744SOL    HW2 8242   4.683   0.044   2.066
 2745SOL     OW 8243   3.854   1.794   3.713
 2745SOL    HW1 8244   3.813   1.720   3.766
 2745SOL    HW2 8245   3.918   1.845   3.771
 2746SOL     OW 8246   4.396   1.616   2.016
 2746SOL    HW1 8247   4.405   1.626   1.917
 2746SOL    HW2 8248   4.356   1.527   2.037
 2747SOL     OW 8249   3.987   0.326   2.582
 2747SOL    HW1 8250   3.908   0.377   2.548
 2747SOL    HW2 8251   3.978   0.311   2.680
 2748SOL     OW 8252   4.546   1.002   3.234
 2748SOL    HW1 8253   4.586   1.001   3.142
 2748SOL    HW2 8254   4.556   1.094   3.274
 2749SOL     OW 8255   4.096   1.288   3.352
 2749SOL    HW1 8256   4.083   1.381   3.318
 2749SOL    HW2 8257   4.012   1.236   3.339
 2750SOL     OW 8258   4.314   1.487   2.353
 2750SOL    HW1 8259   4.356   1.429   2.283
 2750SOL    HW2 8260   4.270   1.566   2.309
 2751SOL     OW 8261   3.979   1.348   2.152
 2751SOL    HW1 8262   3.883   1.349   2.125
 2751SOL    HW2 8263   3.991   1.401   2.236
 2752SOL     OW 8264   3.829   1.013   3.588
 2752SOL    HW1 8265   3.752   0.980   3.642
 2752SOL    HW2 8266   3.914   0.983   3.630
 2753SOL     OW 8267   4.396   0.203   3.351
 2753SOL    HW1 8268   4.486   0.187   3.311
 2753SOL    HW2 8269   4.404   0.208   3.450
 2754SOL     OW 8270   3.799   0.345   1.895
 2754SOL    HW1 8271   3.707   0.317   1.866
 2754SOL    HW2 8272   3.830   0.422   1.839
 2755SOL     OW 8273   3.796   0.166   2.180
 2755SOL    HW1 8274   3.779   0.249   2.126
 2755SOL    HW2 8275   3.886   0.129   2.158
 2756SOL     OW 8276   4.337   0.842   3.293
 2756SOL    HW1 8277   4.393   0.923   3.276
 2756SOL    HW2 8278   4.396   0.762   3.296
 2757SOL     OW 8279   4.440   0.565   3.570
 2757SOL    HW1 8280   4.459   0.630   3.644
 2757SOL    HW2 8281   4.500   0.485   3.579
 2758SOL     OW 8282   4.114   1.741   3.422
 2758SOL    HW1 8283   4.023   1.782   3.420
 2758SOL    HW2 8284   4.107   1.647   3.454
 2759SOL     OW 8285   4.318   0.745   2.514
 2759SOL    HW1 8286   4.368   0.830   2.495
 2759SOL    HW2 8287   4.230   0.747   2.466
 2760SOL     OW 8288   4.385   1.790   2.815
 2760SOL    HW1 8289   4.339   1.878   2.802
 2760SOL    HW2 8290   4.484   1.802   2.808
 2761SOL     OW 8291   3.945   1.314   3.706
 2761SOL    HW1 8292   3.880   1.241   3.685
 2761SOL    HW2 8293   3.949   1.328   3.804
 2762SOL     OW 8294   3.803   1.240   2.515
 2762SOL    HW1 8295   3.802   1.193   2.603
 2762SOL    HW2 8296   3.885   1.212   2.464
 2763SOL     OW 8297   4.396   1.391   3.486
 2763SOL    HW1 8298   4.318   1.341   3.524
 2763SOL    HW2 8299   4.393   1.486   3.517
 2764SOL     OW 8300   4.152   0.424   2.382
 2764SOL    HW1 8301   4.182   0.352   2.320
 2764SOL    HW2 8302   4.113   0.384   2.465
 2765SOL     OW 8303   4.041   0.547   3.142
 2765SOL    HW1 8304   4.079   0.488   3.214
 2765SOL    HW2 8305   4.081   0.521   3.054
 2766SOL     OW 8306   4.536   1.586   2.549
 2766SOL    HW1 8307   4.568   1.596   2.455
 2766SOL    HW2 8308   4.457   1.524   2.551
 2767SOL     OW 8309   4.725   0.034   3.016
 2767SOL    HW1 8310   4.662  -0.038   2.985
 2767SOL    HW2 8311   4.818  -0.002   3.016
 2768SOL     OW 8312   4.342   1.567   3.146
 2768SOL    HW1 8313   4.337   1.649   3.203
 2768SOL    HW2 8314   4.431   1.564   3.101
 2769SOL     OW 8315   3.763   1.077   2.162
 2769SOL    HW1 8316   3.862   1.066   2.153
 2769SOL    HW2 8317   3.723   0.991   2.194
 2770SOL     OW 8318   3.954   0.628   3.837
 2770SOL    HW1 8319   3.861   0.626   3.874
 2770SOL    HW2 8320   3.955   0.589   3.745
 2771SOL     OW 8321   3.743   0.368   4.371
 2771SOL    HW1 8322   3.661   0.411   4.410
 2771SOL    HW2 8323   3.715   0.295   4.308
 2772SOL     OW 8324   4.409   1.012   4.389
 2772SOL    HW1 8325   4.478   0.996   4.459
 2772SOL    HW2 8326   4.336   1.069   4.427
 2773SOL     OW 8327   3.955   1.713   4.207
 2773SOL    HW1 8328   3.989   1.790   4.261
 2773SOL    HW2 8329   3.999   1.713   4.117
 2774SOL     OW 8330   3.954   1.434   4.262
 2774SOL    HW1 8331   3.928   1.530   4.262
 2774SOL    HW2 8332   3.883   1.380   4.307
 2775SOL     OW 8333   3.964   1.091   4.610
 2775SOL    HW1 8334   3.978   1.007   4.662
 2775SOL    HW2 8335   3.909   1.155   4.665
 2776SOL     OW 8336   4.330   0.964   3.847
 2776SOL    HW1 8337   4.337   1.048   3.793
 2776SOL    HW2 8338   4.376   0.977   3.935
 2777SOL     OW 8339   3.846   0.643   4.287
 2777SOL    HW1 8340   3.801   0.555   4.304
 2777SOL    HW2 8341   3.845   0.697   4.371
 2778SOL     OW 8342   3.751   1.596   3.841
 2778SOL    HW1 8343   3.732   1.500   3.862
 2778SOL    HW2 8344   3.718   1.654   3.916
 2779SOL     OW 8345   4.337   1.365   4.450
 2779SOL    HW1 8346   4.288   1.278   4.459
 2779SOL    HW2 8347   4.314   1.408   4.363
 2780SOL     OW 8348   4.533   0.004   4.226
 2780SOL    HW1 8349   4.573   0.095   4.217
 2780SOL    HW2 8350   4.433   0.012   4.232
 2781SOL     OW 8351   4.322   0.729   3.994
 2781SOL    HW1 8352   4.346   0.798   3.926
 2781SOL    HW2 8353   4.244   0.762   4.048
 2782SOL     OW 8354   3.800   0.811   4.513
 2782SOL    HW1 8355   3.899   0.799   4.522
 2782SOL    HW2 8356   3.776   0.906   4.534
 2783SOL     OW 8357   4.075   1.801   4.577
 2783SOL    HW1 8358   4.125   1.715   4.583
 2783SOL    HW2 8359   4.140   1.878   4.574
 2784SOL     OW 8360   4.045   0.943   3.966
 2784SOL    HW1 8361   4.127   0.982   3.924
 2784SOL    HW2 8362   4.018   0.861   3.917
 2785SOL     OW 8363   4.188   1.743   4.047
 2785SOL    HW1 8364   4.221   1.782   4.133
 2785SOL    HW2 8365   4.264   1.736   3.982
 2786SOL     OW 8366   4.106   0.700   4.204
 2786SOL    HW1 8367   4.151   0.610   4.201
 2786SOL    HW2 8368   4.012   0.689   4.237
 2787SOL     OW 8369   4.338   0.122   3.841
 2787SOL    HW1 8370   4.436   0.100   3.848
 2787SOL    HW2 8371   4.307   0.105   3.748
 2788SOL     OW 8372   4.263   0.064   4.236
 2788SOL    HW1 8373   4.182   0.065   4.294
 2788SOL    HW2 8374   4.266   0.147   4.181
 2789SOL     OW 8375   4.021   0.035   3.895
 2789SOL    HW1 8376   4.070   0.119   3.874
 2789SOL    HW2 8377   4.083  -0.030   3.940
 2790SOL     OW 8378   4.183   1.152   4.465
 2790SOL    HW1 8379   4.112   1.125   4.530
 2790SOL    HW2 8380   4.157   1.124   4.372
 2791SOL     OW 8381   4.212   1.385   3.898
 2791SOL    HW1 8382   4.125   1.370   3.945
 2791SOL    HW2 8383   4.195   1.411   3.803
 2792SOL     OW 8384   4.251   0.256   4.052
 2792SOL    HW1 8385   4.278   0.197   3.977
 2792SOL    HW2 8386   4.251   0.351   4.021
 2793SOL     OW 8387   4.091   1.100   4.225
 2793SOL    HW1 8388   4.084   1.183   4.169
 2793SOL    HW2 8389   4.095   1.020   4.165
 2794SOL     OW 8390   4.290   0.537   4.589
 2794SOL    HW1 8391   4.302   0.603   4.515
 2794SOL    HW2 8392   4.336   0.571   4.672
 2795SOL     OW 8393   4.031   0.063   4.342
 2795SOL    HW1 8394   4.020   0.157   4.375
 2795SOL    HW2 8395   4.026   0.000   4.419
 2796SOL     OW 8396   4.792   1.333   4.573
 2796SOL    HW1 8397   4.799   1.249   4.518
 2796SOL    HW2 8398   4.854   1.402   4.537
 2797SOL     OW 8399   3.732   1.326   3.924
 2797SOL    HW1 8400   3.639   1.347   3.893
 2797SOL    HW2 8401   3.742   1.227   3.937
 2798SOL     OW 8402   4.539   0.572   4.049
 2798SOL    HW1 8403   4.546   0.483   4.003
 2798SOL    HW2 8404   4.445   0.606   4.041
 2799SOL     OW 8405   4.197   0.500   3.915
 2799SOL    HW1 8406   4.258   0.580   3.919
 2799SOL    HW2 8407   4.102   0.531   3.922
 2800SOL     OW 8408   4.627   0.086   3.857
 2800SOL    HW1 8409   4.678   0.087   3.771
 2800SOL    HW2 8410   4.683   0.044   3.928
 2801SOL     OW 8411   4.396   1.616   3.878
 2801SOL    HW1 8412   4.405   1.626   3.779
 2801SOL    HW2 8413   4.356   1.527   3.899
 2802SOL     OW 8414   3.987   0.326   4.444
 2802SOL    HW1 8415   3.908   0.377   4.410
 2802SOL    HW2 8416   3.978   0.311   4.542
 2803SOL     OW 8417   4.314   1.487   4.215
 2803SOL    HW1 8418   4.356   1.429   4.145
 2803SOL    HW2 8419   4.270   1.566   4.171
 2804SOL     OW 8420   3.979   1.348   4.014
 2804SOL    HW1 8421   3.883   1.349   3.987
 2804SOL    HW2 8422   3.991   1.401   4.098
 2805SOL     OW 8423   3.799   0.345   3.757
 2805SOL    HW1 8424   3.707   0.317   3.728
 2805SOL    HW2 8425   3.830   0.422   3.701
 2806SOL     OW 8426   3.796   0.166   4.042
 2806SOL    HW1 8427   3.779   0.249   3.988
 2806SOL    HW2 8428   3.886   0.129   4.020
 2807SOL     OW 8429   4.318   0.745   4.376
 2807SOL    HW1 8430   4.368   0.830   4.357
 2807SOL    HW2 8431   4.230   0.747   4.328
 2808SOL     OW 8432   4.385   1.790   4.677
 2808SOL    HW1 8433   4.339   1.878   4.664
 2808SOL    HW2 8434   4.484   1.802   4.670
 2809SOL     OW 8435   3.803   1.240   4.377
 2809SOL    HW1 8436   3.802   1.193   4.465
 2809SOL    HW2 8437   3.885   1.212   4.326
 2810SOL     OW 8438   4.152   0.424   4.244
 2810SOL    HW1 8439   4.182   0.352   4.182
 2810SOL    HW2 8440   4.113   0.384   4.327
 2811SOL     OW 8441   4.536   1.586   4.411
 2811SOL    HW1 8442   4.568   1.596   4.317
 2811SOL    HW2 8443   4.457   1.524   4.413
 2812SOL     OW 8444   3.763   1.077   4.024
 2812SOL    HW1 8445   3.862   1.066   4.015
 2812SOL    HW2 8446   3.723   0.991   4.056
 2813SOL     OW 8447   3.954   2.490   0.113
 2813SOL    HW1 8448   3.861   2.488   0.150
 2813SOL    HW2 8449   3.955   2.451   0.021
 2814SOL     OW 8450   3.949   2.137   0.996
 2814SOL    HW1 8451   3.984   2.120   1.088
 2814SOL    HW2 8452   3.861   2.092   0.984
 2815SOL     OW 8453   3.743   2.230   0.647
 2815SOL    HW1 8454   3.661   2.273   0.686
 2815SOL    HW2 8455   3.715   2.157   0.584
 2816SOL     OW 8456   4.293   3.137   1.165
 2816SOL    HW1 8457   4.200   3.130   1.128
 2816SOL    HW2 8458   4.304   3.226   1.209
 2817SOL     OW 8459   4.574   2.660   1.823
 2817SOL    HW1 8460   4.570   2.736   1.888
 2817SOL    HW2 8461   4.596   2.696   1.732
 2818SOL     OW 8462   4.409   2.874   0.665
 2818SOL    HW1 8463   4.478   2.858   0.735
 2818SOL    HW2 8464   4.336   2.931   0.703
 2819SOL     OW 8465   4.410   3.023   1.803
 2819SOL    HW1 8466   4.470   3.102   1.817
 2819SOL    HW2 8467   4.324   3.054   1.762
 2820SOL     OW 8468   4.059   3.297   1.061
 2820SOL    HW1 8469   3.981   3.266   1.008
 2820SOL    HW2 8470   4.117   3.355   1.004
 2821SOL     OW 8471   4.162   2.254   1.499
 2821SOL    HW1 8472   4.244   2.198   1.508
 2821SOL    HW2 8473   4.081   2.196   1.503
 2822SOL     OW 8474   3.955   3.575   0.483
 2822SOL    HW1 8475   3.989   3.652   0.537
 2822SOL    HW2 8476   3.999   3.575   0.393
 2823SOL     OW 8477   3.954   3.296   0.538
 2823SOL    HW1 8478   3.928   3.392   0.538
 2823SOL    HW2 8479   3.883   3.242   0.583
 2824SOL     OW 8480   3.964   2.953   0.886
 2824SOL    HW1 8481   3.978   2.869   0.938
 2824SOL    HW2 8482   3.909   3.017   0.941
 2825SOL     OW 8483   4.344   3.648   1.439
 2825SOL    HW1 8484   4.252   3.631   1.474
 2825SOL    HW2 8485   4.372   3.740   1.465
 2826SOL     OW 8486   4.330   2.826   0.123
 2826SOL    HW1 8487   4.337   2.910   0.069
 2826SOL    HW2 8488   4.376   2.839   0.211
 2827SOL     OW 8489   3.846   2.505   0.563
 2827SOL    HW1 8490   3.801   2.417   0.580
 2827SOL    HW2 8491   3.845   2.559   0.647
 2828SOL     OW 8492   3.751   3.458   0.117
 2828SOL    HW1 8493   3.732   3.362   0.138
 2828SOL    HW2 8494   3.718   3.516   0.192
 2829SOL     OW 8495   3.837   2.599   1.597
 2829SOL    HW1 8496   3.925   2.586   1.642
 2829SOL    HW2 8497   3.824   2.696   1.575
 2830SOL     OW 8498   4.337   3.227   0.726
 2830SOL    HW1 8499   4.288   3.140   0.735
 2830SOL    HW2 8500   4.314   3.270   0.639
 2831SOL     OW 8501   4.533   1.866   0.502
 2831SOL    HW1 8502   4.573   1.957   0.493
 2831SOL    HW2 8503   4.433   1.874   0.508
 2832SOL     OW 8504   3.921   2.838   1.264
 2832SOL    HW1 8505   4.010   2.793   1.250
 2832SOL    HW2 8506   3.848   2.773   1.245
 2833SOL     OW 8507   4.041   2.113   1.801
 2833SOL    HW1 8508   4.112   2.184   1.807
 2833SOL    HW2 8509   3.953   2.152   1.829
 2834SOL     OW 8510   4.322   2.591   0.270
 2834SOL    HW1 8511   4.346   2.660   0.202
 2834SOL    HW2 8512   4.244   2.624   0.324
 2835SOL     OW 8513   3.800   2.673   0.789
 2835SOL    HW1 8514   3.899   2.661   0.798
 2835SOL    HW2 8515   3.776   2.768   0.810
 2836SOL     OW 8516   3.854   3.683   1.571
 2836SOL    HW1 8517   3.844   3.668   1.670
 2836SOL    HW2 8518   3.768   3.719   1.535
 2837SOL     OW 8519   4.274   2.058   0.885
 2837SOL    HW1 8520   4.269   2.053   0.985
 2837SOL    HW2 8521   4.276   2.154   0.856
 2838SOL     OW 8522   4.075   3.663   0.853
 2838SOL    HW1 8523   4.125   3.577   0.859
 2838SOL    HW2 8524   4.140   3.740   0.850
 2839SOL     OW 8525   4.045   2.805   0.242
 2839SOL    HW1 8526   4.127   2.844   0.200
 2839SOL    HW2 8527   4.018   2.723   0.193
 2840SOL     OW 8528   4.185   3.128   1.727
 2840SOL    HW1 8529   4.135   3.129   1.641
 2840SOL    HW2 8530   4.122   3.110   1.803
 2841SOL     OW 8531   3.926   2.147   1.498
 2841SOL    HW1 8532   3.846   2.207   1.485
 2841SOL    HW2 8533   3.916   2.098   1.584
 2842SOL     OW 8534   4.188   3.605   0.323
 2842SOL    HW1 8535   4.221   3.644   0.409
 2842SOL    HW2 8536   4.264   3.598   0.258
 2843SOL     OW 8537   3.973   3.647   1.241
 2843SOL    HW1 8538   4.030   3.582   1.291
 2843SOL    HW2 8539   3.957   3.614   1.148
 2844SOL     OW 8540   4.106   2.562   0.480
 2844SOL    HW1 8541   4.151   2.472   0.477
 2844SOL    HW2 8542   4.012   2.551   0.513
 2845SOL     OW 8543   4.527   3.264   0.924
 2845SOL    HW1 8544   4.617   3.278   0.882
 2845SOL    HW2 8545   4.456   3.266   0.853
 2846SOL     OW 8546   4.646   2.365   0.899
 2846SOL    HW1 8547   4.621   2.356   0.803
 2846SOL    HW2 8548   4.694   2.283   0.930
 2847SOL     OW 8549   4.263   1.926   0.512
 2847SOL    HW1 8550   4.182   1.927   0.570
 2847SOL    HW2 8551   4.266   2.009   0.457
 2848SOL     OW 8552   4.021   1.897   0.171
 2848SOL    HW1 8553   4.070   1.981   0.150
 2848SOL    HW2 8554   4.083   1.832   0.216
 2849SOL     OW 8555   4.183   3.014   0.741
 2849SOL    HW1 8556   4.112   2.987   0.806
 2849SOL    HW2 8557   4.157   2.986   0.648
 2850SOL     OW 8558   3.802   2.418   1.386
 2850SOL    HW1 8559   3.894   2.417   1.345
 2850SOL    HW2 8560   3.796   2.492   1.453
 2851SOL     OW 8561   4.285   2.084   1.147
 2851SOL    HW1 8562   4.323   2.000   1.184
 2851SOL    HW2 8563   4.197   2.103   1.191
 2852SOL     OW 8564   4.212   3.247   0.174
 2852SOL    HW1 8565   4.125   3.232   0.221
 2852SOL    HW2 8566   4.195   3.273   0.079
 2853SOL     OW 8567   4.251   2.118   0.328
 2853SOL    HW1 8568   4.278   2.059   0.253
 2853SOL    HW2 8569   4.251   2.213   0.297
 2854SOL     OW 8570   4.639   1.951   1.402
 2854SOL    HW1 8571   4.664   1.931   1.307
 2854SOL    HW2 8572   4.711   2.007   1.444
 2855SOL     OW 8573   4.134   2.675   1.251
 2855SOL    HW1 8574   4.220   2.687   1.301
 2855SOL    HW2 8575   4.092   2.588   1.278
 2856SOL     OW 8576   3.788   3.426   1.331
 2856SOL    HW1 8577   3.742   3.508   1.297
 2856SOL    HW2 8578   3.886   3.445   1.340
 2857SOL     OW 8579   4.091   2.962   0.501
 2857SOL    HW1 8580   4.084   3.045   0.445
 2857SOL    HW2 8581   4.095   2.882   0.441
 2858SOL     OW 8582   4.290   2.399   0.865
 2858SOL    HW1 8583   4.302   2.465   0.791
 2858SOL    HW2 8584   4.336   2.433   0.948
 2859SOL     OW 8585   4.078   3.372   1.329
 2859SOL    HW1 8586   4.057   3.328   1.242
 2859SOL    HW2 8587   4.175   3.398   1.332
 2860SOL     OW 8588   4.126   2.613   1.598
 2860SOL    HW1 8589   4.194   2.668   1.551
 2860SOL    HW2 8590   4.166   2.525   1.625
 2861SOL     OW 8591   4.228   1.912   1.740
 2861SOL    HW1 8592   4.186   1.855   1.670
 2861SOL    HW2 8593   4.162   1.981   1.772
 2862SOL     OW 8594   4.297   2.732   1.029
 2862SOL    HW1 8595   4.341   2.821   1.020
 2862SOL    HW2 8596   4.234   2.732   1.106
 2863SOL     OW 8597   4.031   2.075   1.231
 2863SOL    HW1 8598   4.008   2.112   1.321
 2863SOL    HW2 8599   4.001   1.980   1.225
 2864SOL     OW 8600   3.761   3.172   1.282
 2864SOL    HW1 8601   3.814   3.123   1.350
 2864SOL    HW2 8602   3.783   3.270   1.287
 2865SOL     OW 8603   4.456   2.496   1.064
 2865SOL    HW1 8604   4.515   2.470   0.988
 2865SOL    HW2 8605   4.428   2.592   1.053
 2866SOL     OW 8606   4.031   1.925   0.618
 2866SOL    HW1 8607   4.020   2.019   0.651
 2866SOL    HW2 8608   4.026   1.862   0.695
 2867SOL     OW 8609   4.747   2.628   0.966
 2867SOL    HW1 8610   4.762   2.649   1.062
 2867SOL    HW2 8611   4.717   2.533   0.957
 2868SOL     OW 8612   4.074   2.760   1.804
 2868SOL    HW1 8613   4.150   2.804   1.852
 2868SOL    HW2 8614   4.109   2.713   1.722
 2869SOL     OW 8615   4.792   3.195   0.849
 2869SOL    HW1 8616   4.799   3.111   0.794
 2869SOL    HW2 8617   4.854   3.264   0.813
 2870SOL     OW 8618   4.043   2.672   0.949
 2870SOL    HW1 8619   4.136   2.708   0.954
 2870SOL    HW2 8620   4.037   2.587   1.001
 2871SOL     OW 8621   4.063   2.371   1.006
 2871SOL    HW1 8622   4.011   2.288   0.989
 2871SOL    HW2 8623   4.140   2.376   0.942
 2872SOL     OW 8624   3.732   3.188   0.200
 2872SOL    HW1 8625   3.639   3.209   0.169
 2872SOL    HW2 8626   3.742   3.089   0.213
 2873SOL     OW 8627   3.812   3.663   0.927
 2873SOL    HW1 8628   3.770   3.577   0.900
 2873SOL    HW2 8629   3.906   3.666   0.893
 2874SOL     OW 8630   4.228   3.430   0.910
 2874SOL    HW1 8631   4.294   3.504   0.919
 2874SOL    HW2 8632   4.272   3.351   0.868
 2875SOL     OW 8633   3.764   2.406   1.114
 2875SOL    HW1 8634   3.849   2.373   1.073
 2875SOL    HW2 8635   3.777   2.421   1.212
 2876SOL     OW 8636   3.913   2.382   1.722
 2876SOL    HW1 8637   3.972   2.342   1.652
 2876SOL    HW2 8638   3.855   2.453   1.681
 2877SOL     OW 8639   4.539   2.434   0.325
 2877SOL    HW1 8640   4.546   2.345   0.279
 2877SOL    HW2 8641   4.445   2.468   0.317
 2878SOL     OW 8642   3.976   3.426   1.744
 2878SOL    HW1 8643   3.946   3.483   1.820
 2878SOL    HW2 8644   3.969   3.329   1.770
 2879SOL     OW 8645   4.395   2.326   1.269
 2879SOL    HW1 8646   4.361   2.237   1.239
 2879SOL    HW2 8647   4.421   2.380   1.189
 2880SOL     OW 8648   4.197   2.362   0.191
 2880SOL    HW1 8649   4.258   2.442   0.195
 2880SOL    HW2 8650   4.102   2.393   0.198
 2881SOL     OW 8651   3.883   2.999   1.466
 2881SOL    HW1 8652   3.905   2.938   1.542
 2881SOL    HW2 8653   3.893   2.950   1.380
 2882SOL     OW 8654   3.807   3.120   1.022
 2882SOL    HW1 8655   3.802   3.119   1.122
 2882SOL    HW2 8656   3.724   3.079   0.984
 2883SOL     OW 8657   4.412   3.524   1.716
 2883SOL    HW1 8658   4.356   3.605   1.725
 2883SOL    HW2 8659   4.464   3.528   1.630
 2884SOL     OW 8660   4.627   1.948   0.133
 2884SOL    HW1 8661   4.678   1.949   0.047
 2884SOL    HW2 8662   4.683   1.906   0.204
 2885SOL     OW 8663   3.854   3.656   1.851
 2885SOL    HW1 8664   3.813   3.582   1.904
 2885SOL    HW2 8665   3.918   3.707   1.909
 2886SOL     OW 8666   4.396   3.478   0.154
 2886SOL    HW1 8667   4.405   3.488   0.055
 2886SOL    HW2 8668   4.356   3.389   0.175
 2887SOL     OW 8669   3.987   2.188   0.720
 2887SOL    HW1 8670   3.908   2.239   0.686
 2887SOL    HW2 8671   3.978   2.173   0.818
 2888SOL     OW 8672   4.546   2.864   1.372
 2888SOL    HW1 8673   4.586   2.863   1.280
 2888SOL    HW2 8674   4.556   2.956   1.412
 2889SOL     OW 8675   4.096   3.150   1.490
 2889SOL    HW1 8676   4.083   3.243   1.456
 2889SOL    HW2 8677   4.012   3.098   1.477
 2890SOL     OW 8678   4.314   3.349   0.491
 2890SOL    HW1 8679   4.356   3.291   0.421
 2890SOL    HW2 8680   4.270   3.428   0.447
 2891SOL     OW 8681   3.979   3.210   0.290
 2891SOL    HW1 8682   3.883   3.211   0.263
 2891SOL    HW2 8683   3.991   3.263   0.374
 2892SOL     OW 8684   3.829   2.875   1.726
 2892SOL    HW1 8685   3.752   2.842   1.780
 2892SOL    HW2 8686   3.914   2.845   1.768
 2893SOL     OW 8687   4.396   2.065   1.489
 2893SOL    HW1 8688   4.486   2.049   1.449
 2893SOL    HW2 8689   4.404   2.070   1.588
 2894SOL     OW 8690   3.799   2.207   0.033
 2894SOL    HW1 8691   3.707   2.179   0.004
 2894SOL    HW2 8692   3.830   2.284  -0.023
 2895SOL     OW 8693   3.796   2.028   0.318
 2895SOL    HW1 8694   3.779   2.111   0.264
 2895SOL    HW2 8695   3.886   1.991   0.296
 2896SOL     OW 8696   4.337   2.704   1.431
 2896SOL    HW1 8697   4.393   2.785   1.414
 2896SOL    HW2 8698   4.396   2.624   1.434
 2897SOL     OW 8699   4.440   2.427   1.708
 2897SOL    HW1 8700   4.459   2.492   1.782
 2897SOL    HW2 8701   4.500   2.347   1.717
 2898SOL     OW 8702   4.114   3.603   1.560
 2898SOL    HW1 8703   4.023   3.644   1.558
 2898SOL    HW2 8704   4.107   3.509   1.592
 2899SOL     OW 8705   4.318   2.607   0.652
 2899SOL    HW1 8706   4.368   2.692   0.633
 2899SOL    HW2 8707   4.230   2.609   0.604
 2900SOL     OW 8708   4.385   3.652   0.953
 2900SOL    HW1 8709   4.339   3.740   0.940
 2900SOL    HW2 8710   4.484   3.664   0.946
 2901SOL     OW 8711   3.945   3.176   1.844
 2901SOL    HW1 8712   3.880   3.103   1.823
 2901SOL    HW2 8713   3.949   3.190   1.942
 2902SOL     OW 8714   3.803   3.102   0.653
 2902SOL    HW1 8715   3.802   3.055   0.741
 2902SOL    HW2 8716   3.885   3.074   0.602
 2903SOL     OW 8717   4.396   3.253   1.624
 2903SOL    HW1 8718   4.318   3.203   1.662
 2903SOL    HW2 8719   4.393   3.348   1.655
 2904SOL     OW 8720   4.152   2.286   0.520
 2904SOL    HW1 8721   4.182   2.214   0.458
 2904SOL    HW2 8722   4.113   2.246   0.603
 2905SOL     OW 8723   4.041   2.409   1.280
 2905SOL    HW1 8724   4.079   2.350   1.352
 2905SOL    HW2 8725   4.081   2.383   1.192
 2906SOL     OW 8726   4.536   3.448   0.687
 2906SOL    HW1 8727   4.568   3.458   0.593
 2906SOL    HW2 8728   4.457   3.386   0.689
 2907SOL     OW 8729   4.342   3.429   1.284
 2907SOL    HW1 8730   4.337   3.511   1.341
 2907SOL    HW2 8731   4.431   3.426   1.239
 2908SOL     OW 8732   3.763   2.939   0.300
 2908SOL    HW1 8733   3.862   2.928   0.291
 2908SOL    HW2 8734   3.723   2.853   0.332
 2909SOL     OW 8735   3.954   2.490   1.975
 2909SOL    HW1 8736   3.861   2.488   2.012
 2909SOL    HW2 8737   3.955   2.451   1.883
 2910SOL     OW 8738   3.949   2.137   2.858
 2910SOL    HW1 8739   3.984   2.120   2.950
 2910SOL    HW2 8740   3.861   2.092   2.846
 2911SOL     OW 8741   3.743   2.230   2.509
 2911SOL    HW1 8742   3.661   2.273   2.548
 2911SOL    HW2 8743   3.715   2.157   2.446
 2912SOL     OW 8744   4.293   3.137   3.027
 2912SOL    HW1 8745   4.200   3.130   2.990
 2912SOL    HW2 8746   4.304   3.226   3.071
 2913SOL     OW 8747   4.574   2.660   3.685
 2913SOL    HW1 8748   4.570   2.736   3.750
 2913SOL    HW2 8749   4.596   2.696   3.594
 2914SOL     OW 8750   4.409   2.874   2.527
 2914SOL    HW1 8751   4.478   2.858   2.597
 2914SOL    HW2 8752   4.336   2.931   2.565
 2915SOL     OW 8753   4.410   3.023   3.665
 2915SOL    HW1 8754   4.470   3.102   3.679
 2915SOL    HW2 8755   4.324   3.054   3.624
 2916SOL     OW 8756   4.059   3.297   2.923
 2916SOL    HW1 8757   3.981   3.266   2.870
 2916SOL    HW2 8758   4.117   3.355   2.866
 2917SOL     OW 8759   4.162   2.254   3.361
 2917SOL    HW1 8760   4.244   2.198   3.370
 2917SOL    HW2 8761   4.081   2.196   3.365
 2918SOL     OW 8762   3.955   3.575   2.345
 2918SOL    HW1 8763   3.989   3.652   2.399
 2918SOL    HW2 8764   3.999   3.575   2.255
 2919SOL     OW 8765   3.954   3.296   2.400
 2919SOL    HW1 8766   3.928   3.392   2.400
 2919SOL    HW2 8767   3.883   3.242   2.445
 2920SOL     OW 8768   3.964   2.953   2.748
 2920SOL    HW1 8769   3.978   2.869   2.800
 2920SOL    HW2 8770   3.909   3.017   2.803
 2921SOL     OW 8771   4.344   3.648   3.301
 2921SOL    HW1 8772   4.252   3.631   3.336
 2921SOL    HW2 8773   4.372   3.740   3.327
 2922SOL     OW 8774   4.330   2.826   1.985
 2922SOL    HW1 8775   4.337   2.910   1.931
 2922SOL    HW2 8776   4.376   2.839   2.073
 2923SOL     OW 8777   3.846   2.505   2.425
 2923SOL    HW1 8778   3.801   2.417   2.442
 2923SOL    HW2 8779   3.845   2.559   2.509
 2924SOL     OW 8780   3.751   3.458   1.979
 2924SOL    HW1 8781   3.732   3.362   2.000
 2924SOL    HW2 8782   3.718   3.516   2.054
 2925SOL     OW 8783   3.837   2.599   3.459
 2925SOL    HW1 8784   3.925   2.586   3.504
 2925SOL    HW2 8785   3.824   2.696   3.437
 2926SOL     OW 8786   4.337   3.227   2.588
 2926SOL    HW1 8787   4.288   3.140   2.597
 2926SOL    HW2 8788   4.314   3.270   2.501
 2927SOL     OW 8789   4.533   1.866   2.364
 2927SOL    HW1 8790   4.573   1.957   2.355
 2927SOL    HW2 8791   4.433   1.874   2.370
 2928SOL     OW 8792   3.921   2.838   3.126
 2928SOL    HW1 8793   4.010   2.793   3.112
 2928SOL    HW2 8794   3.848   2.773   3.107
 2929SOL     OW 8795   4.041   2.113   3.663
 2929SOL    HW1 8796   4.112   2.184   3.669
 2929SOL    HW2 8797   3.953   2.152   3.691
 2930SOL     OW 8798   4.322   2.591   2.132
 2930SOL    HW1 8799   4.346   2.660   2.064
 2930SOL    HW2 8800   4.244   2.624   2.186
 2931SOL     OW 8801   3.800   2.673   2.651
 2931SOL    HW1 8802   3.899   2.661   2.660
 2931SOL    HW2 8803   3.776   2.768   2.672
 2932SOL     OW 8804   3.854   3.683   3.433
 2932SOL    HW1 8805   3.844   3.668   3.532
 2932SOL    HW2 8806   3.768   3.719   3.397
 2933SOL     OW 8807   4.274   2.058   2.747
 2933SOL    HW1 8808   4.269   2.053   2.847
 2933SOL    HW2 8809   4.276   2.154   2.718
 2934SOL     OW 8810   4.075   3.663   2.715
 2934SOL    HW1 8811   4.125   3.577   2.721
 2934SOL    HW2 8812   4.140   3.740   2.712
 2935SOL     OW 8813   4.045   2.805   2.104
 2935SOL    HW1 8814   4.127   2.844   2.062
 2935SOL    HW2 8815   4.018   2.723   2.055
 2936SOL     OW 8816   4.185   3.128   3.589
 2936SOL    HW1 8817   4.135   3.129   3.503
 2936SOL    HW2 8818   4.122   3.110   3.665
 2937SOL     OW 8819   3.926   2.147   3.360
 2937SOL    HW1 8820   3.846   2.207   3.347
 2937SOL    HW2 8821   3.916   2.098   3.446
 2938SOL     OW 8822   4.188   3.605   2.185
 2938SOL    HW1 8823   4.221   3.644   2.271
 2938SOL    HW2 8824   4.264   3.598   2.120
 2939SOL     OW 8825   3.973   3.647   3.103
 2939SOL    HW1 8826   4.030   3.582   3.153
 2939SOL    HW2 8827   3.957   3.614   3.010
 2940SOL     OW 8828   4.106   2.562   2.342
 2940SOL    HW1 8829   4.151   2.472   2.339
 2940SOL    HW2 8830   4.012   2.551   2.375
 2941SOL     OW 8831   4.338   1.984   1.979
 2941SOL    HW1 8832   4.436   1.962   1.986
 2941SOL    HW2 8833   4.307   1.967   1.886
 2942SOL     OW 8834   4.527   3.264   2.786
 2942SOL    HW1 8835   4.617   3.278   2.744
 2942SOL    HW2 8836   4.456   3.266   2.715
 2943SOL     OW 8837   4.646   2.365   2.761
 2943SOL    HW1 8838   4.621   2.356   2.665
 2943SOL    HW2 8839   4.694   2.283   2.792
 2944SOL     OW 8840   4.263   1.926   2.374
 2944SOL    HW1 8841   4.182   1.927   2.432
 2944SOL    HW2 8842   4.266   2.009   2.319
 2945SOL     OW 8843   4.021   1.897   2.033
 2945SOL    HW1 8844   4.070   1.981   2.012
 2945SOL    HW2 8845   4.083   1.832   2.078
 2946SOL     OW 8846   4.183   3.014   2.603
 2946SOL    HW1 8847   4.112   2.987   2.668
 2946SOL    HW2 8848   4.157   2.986   2.510
 2947SOL     OW 8849   3.802   2.418   3.248
 2947SOL    HW1 8850   3.894   2.417   3.207
 2947SOL    HW2 8851   3.796   2.492   3.315
 2948SOL     OW 8852   4.285   2.084   3.009
 2948SOL    HW1 8853   4.323   2.000   3.046
 2948SOL    HW2 8854   4.197   2.103   3.053
 2949SOL     OW 8855   4.212   3.247   2.036
 2949SOL    HW1 8856   4.125   3.232   2.083
 2949SOL    HW2 8857   4.195   3.273   1.941
 2950SOL     OW 8858   4.251   2.118   2.190
 2950SOL    HW1 8859   4.278   2.059   2.115
 2950SOL    HW2 8860   4.251   2.213   2.159
 2951SOL     OW 8861   4.639   1.951   3.264
 2951SOL    HW1 8862   4.664   1.931   3.169
 2951SOL    HW2 8863   4.711   2.007   3.306
 2952SOL     OW 8864   4.134   2.675   3.113
 2952SOL    HW1 8865   4.220   2.687   3.163
 2952SOL    HW2 8866   4.092   2.588   3.140
 2953SOL     OW 8867   3.788   3.426   3.193
 2953SOL    HW1 8868   3.742   3.508   3.159
 2953SOL    HW2 8869   3.886   3.445   3.202
 2954SOL     OW 8870   4.091   2.962   2.363
 2954SOL    HW1 8871   4.084   3.045   2.307
 2954SOL    HW2 8872   4.095   2.882   2.303
 2955SOL     OW 8873   4.290   2.399   2.727
 2955SOL    HW1 8874   4.302   2.465   2.653
 2955SOL    HW2 8875   4.336   2.433   2.810
 2956SOL     OW 8876   4.078   3.372   3.191
 2956SOL    HW1 8877   4.057   3.328   3.104
 2956SOL    HW2 8878   4.175   3.398   3.194
 2957SOL     OW 8879   4.126   2.613   3.460
 2957SOL    HW1 8880   4.194   2.668   3.413
 2957SOL    HW2 8881   4.166   2.525   3.487
 2958SOL     OW 8882   4.228   1.912   3.602
 2958SOL    HW1 8883   4.186   1.855   3.532
 2958SOL    HW2 8884   4.162   1.981   3.634
 2959SOL     OW 8885   4.297   2.732   2.891
 2959SOL    HW1 8886   4.341   2.821   2.882
 2959SOL    HW2 8887   4.234   2.732   2.968
 2960SOL     OW 8888   4.031   2.075   3.093
 2960SOL    HW1 8889   4.008   2.112   3.183
 2960SOL    HW2 8890   4.001   1.980   3.087
 2961SOL     OW 8891   3.761   3.172   3.144
 2961SOL    HW1 8892   3.814   3.123   3.212
 2961SOL    HW2 8893   3.783   3.270   3.149
 2962SOL     OW 8894   4.456   2.496   2.926
 2962SOL    HW1 8895   4.515   2.470   2.850
 2962SOL    HW2 8896   4.428   2.592   2.915
 2963SOL     OW 8897   4.031   1.925   2.480
 2963SOL    HW1 8898   4.020   2.019   2.513
 2963SOL    HW2 8899   4.026   1.862   2.557
 2964SOL     OW 8900   4.747   2.628   2.828
 2964SOL    HW1 8901   4.762   2.649   2.924
 2964SOL    HW2 8902   4.717   2.533   2.819
 2965SOL     OW 8903   4.074   2.760   3.666
 2965SOL    HW1 8904   4.150   2.804   3.714
 2965SOL    HW2 8905   4.109   2.713   3.584
 2966SOL     OW 8906   4.792   3.195   2.711
 2966SOL    HW1 8907   4.799   3.111   2.656
 2966SOL    HW2 8908   4.854   3.264   2.675
 2967SOL     OW 8909   4.043   2.672   2.811
 2967SOL    HW1 8910   4.136   2.708   2.816
 2967SOL    HW2 8911   4.037   2.587   2.863
 2968SOL     OW 8912   4.063   2.371   2.868
 2968SOL    HW1 8913   4.011   2.288   2.851
 2968SOL    HW2 8914   4.140   2.376   2.804
 2969SOL     OW 8915   3.732   3.188   2.062
 2969SOL    HW1 8916   3.639   3.209   2.031
 2969SOL    HW2 8917   3.742   3.089   2.075
 2970SOL     OW 8918   3.812   3.663   2.789
 2970SOL    HW1 8919   3.770   3.577   2.762
 2970SOL    HW2 8920   3.906   3.666   2.755
 2971SOL     OW 8921   4.228   3.430   2.772
 2971SOL    HW1 8922   4.294   3.504   2.781
 2971SOL    HW2 8923   4.272   3.351   2.730
 2972SOL     OW 8924   3.764   2.406   2.976
 2972SOL    HW1 8925   3.849   2.373   2.935
 2972SOL    HW2 8926   3.777   2.421   3.074
 2973SOL     OW 8927   3.913   2.382   3.584
 2973SOL    HW1 8928   3.972   2.342   3.514
 2973SOL    HW2 8929   3.855   2.453   3.543
 2974SOL     OW 8930   4.539   2.434   2.187
 2974SOL    HW1 8931   4.546   2.345   2.141
 2974SOL    HW2 8932   4.445   2.468   2.179
 2975SOL     OW 8933   3.976   3.426   3.606
 2975SOL    HW1 8934   3.946   3.483   3.682
 2975SOL    HW2 8935   3.969   3.329   3.632
 2976SOL     OW 8936   4.395   2.326   3.131
 2976SOL    HW1 8937   4.361   2.237   3.101
 2976SOL    HW2 8938   4.421   2.380   3.051
 2977SOL     OW 8939   4.197   2.362   2.053
 2977SOL    HW1 8940   4.258   2.442   2.057
 2977SOL    HW2 8941   4.102   2.393   2.060
 2978SOL     OW 8942   3.883   2.999   3.328
 2978SOL    HW1 8943   3.905   2.938   3.404
 2978SOL    HW2 8944   3.893   2.950   3.242
 2979SOL     OW 8945   3.807   3.120   2.884
 2979SOL    HW1 8946   3.802   3.119   2.984
 2979SOL    HW2 8947   3.724   3.079   2.846
 2980SOL     OW 8948   4.412   3.524   3.578
 2980SOL    HW1 8949   4.356   3.605   3.587
 2980SOL    HW2 8950   4.464   3.528   3.492
 2981SOL     OW 8951   4.627   1.948   1.995
 2981SOL    HW1 8952   4.678   1.949   1.909
 2981SOL    HW2 8953   4.683   1.906   2.066
 2982SOL     OW 8954   3.854   3.656   3.713
 2982SOL    HW1 8955   3.813   3.582   3.766
 2982SOL    HW2 8956   3.918   3.707   3.771
 2983SOL     OW 8957   4.396   3.478   2.016
 2983SOL    HW1 8958   4.405   3.488   1.917
 2983SOL    HW2 8959   4.356   3.389   2.037
 2984SOL     OW 8960   3.987   2.188   2.582
 2984SOL    HW1 8961   3.908   2.239   2.548
 2984SOL    HW2 8962   3.978   2.173   2.680
 2985SOL     OW 8963   4.546   2.864   3.234
 2985SOL    HW1 8964   4.586   2.863   3.142
 2985SOL    HW2 8965   4.556   2.956   3.274
 2986SOL     OW 8966   4.096   3.150   3.352
 2986SOL    HW1 8967   4.083   3.243   3.318
 2986SOL    HW2 8968   4.012   3.098   3.339
 2987SOL     OW 8969   4.314   3.349   2.353
 2987SOL    HW1 8970   4.356   3.291   2.283
 2987SOL    HW2 8971   4.270   3.428   2.309
 2988SOL     OW 8972   3.979   3.210   2.152
 2988SOL    HW1 8973   3.883   3.211   2.125
 2988SOL    HW2 8974   3.991   3.263   2.236
 2989SOL     OW 8975   3.829   2.875   3.588
 2989SOL    HW1 8976   3.752   2.842   3.642
 2989SOL    HW2 8977   3.914   2.845   3.630
 2990SOL     OW 8978   4.396   2.065   3.351
 2990SOL    HW1 8979   4.486   2.049   3.311
 2990SOL    HW2 8980   4.404   2.070   3.450
 2991SOL     OW 8981   3.799   2.207   1.895
 2991SOL    HW1 8982   3.707   2.179   1.866
 2991SOL    HW2 8983   3.830   2.284   1.839
 2992SOL     OW 8984   3.796   2.028   2.180
 2992SOL    HW1 8985   3.779   2.111   2.126
 2992SOL    HW2 8986   3.886   1.991   2.158
 2993SOL     OW 8987   4.337   2.704   3.293
 2993SOL    HW1 8988   4.393   2.785   3.276
 2993SOL    HW2 8989   4.396   2.624   3.296
 2994SOL     OW 8990   4.440   2.427   3.570
 2994SOL    HW1 8991   4.459   2.492   3.644
 2994SOL    HW2 8992   4.500   2.347   3.579
 2995SOL     OW 8993   4.114   3.603   3.422
 2995SOL    HW1 8994   4.023   3.644   3.420
 2995SOL    HW2 8995   4.107   3.509   3.454
 2996SOL     OW 8996   4.318   2.607   2.514
 2996SOL    HW1 8997   4.368   2.692   2.495
 2996SOL    HW2 8998   4.230   2.609   2.466
 2997SOL     OW 8999   4.385   3.652   2.815
 2997SOL    HW1 9000   4.339   3.740   2.802
 2997SOL    HW2 9001   4.484   3.664   2.808
 2998SOL     OW 9002   3.945   3.176   3.706
 2998SOL    HW1 9003   3.880   3.103   3.685
 2998SOL    HW2 9004   3.949   3.190   3.804
 2999SOL     OW 9005   3.803   3.102   2.515
 2999SOL    HW1 9006   3.802   3.055   2.603
 2999SOL    HW2 9007   3.885   3.074   2.464
 3000SOL     OW 9008   4.396   3.253   3.486
 3000SOL    HW1 9009   4.318   3.203   3.524
 3000SOL    HW2 9010   4.393   3.348   3.517
 3001SOL     OW 9011   4.152   2.286   2.382
 3001SOL    HW1 9012   4.182   2.214   2.320
 3001SOL    HW2 9013   4.113   2.246   2.465
 3002SOL     OW 9014   4.041   2.409   3.142
 3002SOL    HW1 9015   4.079   2.350   3.214
 3002SOL    HW2 9016   4.081   2.383   3.054
 3003SOL     OW 9017   4.536   3.448   2.549
 3003SOL    HW1 9018   4.568   3.458   2.455
 3003SOL    HW2 9019   4.457   3.386   2.551
 3004SOL     OW 9020   4.342   3.429   3.146
 3004SOL    HW1 9021   4.337   3.511   3.203
 3004SOL    HW2 9022   4.431   3.426   3.101
 3005SOL     OW 9023   3.763   2.939   2.162
 3005SOL    HW1 9024   3.862   2.928   2.153
 3005SOL    HW2 9025   3.723   2.853   2.194
 3006SOL     OW 9026   3.954   2.490   3.837
 3006SOL    HW1 9027   3.861   2.488   3.874
 3006SOL    HW2 9028   3.955   2.451   3.745
 3007SOL     OW 9029   3.743   2.230   4.371
 3007SOL    HW1 9030   3.661   2.273   4.410
 3007SOL    HW2 9031   3.715   2.157   4.308
 3008SOL     OW 9032   4.409   2.874   4.389
 3008SOL    HW1 9033   4.478   2.858   4.459
 3008SOL    HW2 9034   4.336   2.931   4.427
 3009SOL     OW 9035   3.955   3.575   4.207
 3009SOL    HW1 9036   3.989   3.652   4.261
 3009SOL    HW2 9037   3.999   3.575   4.117
 3010SOL     OW 9038   3.954   3.296   4.262
 3010SOL    HW1 9039   3.928   3.392   4.262
 3010SOL    HW2 9040   3.883   3.242   4.307
 3011SOL     OW 9041   3.964   2.953   4.610
 3011SOL    HW1 9042   3.978   2.869   4.662
 3011SOL    HW2 9043   3.909   3.017   4.665
 3012SOL     OW 9044   4.330   2.826   3.847
 3012SOL    HW1 9045   4.337   2.910   3.793
 3012SOL    HW2 9046   4.376   2.839   3.935
 3013SOL     OW 9047   3.846   2.505   4.287
 3013SOL    HW1 9048   3.801   2.417   4.304
 3013SOL    HW2 9049   3.845   2.559   4.371
 3014SOL     OW 9050   3.751   3.458   3.841
 3014SOL    HW1 9051   3.732   3.362   3.862
 3014SOL    HW2 9052   3.718   3.516   3.916
 3015SOL     OW 9053   4.337   3.227   4.450
 3015SOL    HW1 9054   4.288   3.140   4.459
 3015SOL    HW2 9055   4.314   3.270   4.363
 3016SOL     OW 9056   4.533   1.866   4.226
 3016SOL    HW1 9057   4.573   1.957   4.217
 3016SOL    HW2 9058   4.433   1.874   4.232
 3017SOL     OW 9059   4.322   2.591   3.994
 3017SOL    HW1 9060   4.346   2.660   3.926
 3017SOL    HW2 9061   4.244   2.624   4.048
 3018SOL     OW 9062   3.800   2.673   4.513
 3018SOL    HW1 9063   3.899   2.661   4.522
 3018SOL    HW2 9064   3.776   2.768   4.534
 3019SOL     OW 9065   4.274   2.058   4.609
 3019SOL    HW1 9066   4.269   2.053   4.709
 3019SOL    HW2 9067   4.276   2.154   4.580
 3020SOL     OW 9068   4.075   3.663   4.577
 3020SOL    HW1 9069   4.125   3.577   4.583
 3020SOL    HW2 9070   4.140   3.740   4.574
 3021SOL     OW 9071   4.045   2.805   3.966
 3021SOL    HW1 9072   4.127   2.844   3.924
 3021SOL    HW2 9073   4.018   2.723   3.917
 3022SOL     OW 9074   4.188   3.605   4.047
 3022SOL    HW1 9075   4.221   3.644   4.133
 3022SOL    HW2 9076   4.264   3.598   3.982
 3023SOL     OW 9077   4.106   2.562   4.204
 3023SOL    HW1 9078   4.151   2.472   4.201
 3023SOL    HW2 9079   4.012   2.551   4.237
 3024SOL     OW 9080   4.338   1.984   3.841
 3024SOL    HW1 9081   4.436   1.962   3.848
 3024SOL    HW2 9082   4.307   1.967   3.748
 3025SOL     OW 9083   4.263   1.926   4.236
 3025SOL    HW1 9084   4.182   1.927   4.294
 3025SOL    HW2 9085   4.266   2.009   4.181
 3026SOL     OW 9086   4.021   1.897   3.895
 3026SOL    HW1 9087   4.070   1.981   3.874
 3026SOL    HW2 9088   4.083   1.832   3.940
 3027SOL     OW 9089   4.183   3.014   4.465
 3027SOL    HW1 9090   4.112   2.987   4.530
 3027SOL    HW2 9091   4.157   2.986   4.372
 3028SOL     OW 9092   4.741   1.901   4.477
 3028SOL    HW1 9093   4.669   1.906   4.408
 3028SOL    HW2 9094   4.717   1.832   4.546
 3029SOL     OW 9095   4.212   3.247   3.898
 3029SOL    HW1 9096   4.125   3.232   3.945
 3029SOL    HW2 9097   4.195   3.273   3.803
 3030SOL     OW 9098   4.251   2.118   4.052
 3030SOL    HW1 9099   4.278   2.059   3.977
 3030SOL    HW2 9100   4.251   2.213   4.021
 3031SOL     OW 9101   4.091   2.962   4.225
 3031SOL    HW1 9102   4.084   3.045   4.169
 3031SOL    HW2 9103   4.095   2.882   4.165
 3032SOL     OW 9104   4.290   2.399   4.589
 3032SOL    HW1 9105   4.302   2.465   4.515
 3032SOL    HW2 9106   4.336   2.433   4.672
 3033SOL     OW 9107   4.031   1.925   4.342
 3033SOL    HW1 9108   4.020   2.019   4.375
 3033SOL    HW2 9109   4.026   1.862   4.419
 3034SOL     OW 9110   4.792   3.195   4.573
 3034SOL    HW1 9111   4.799   3.111   4.518
 3034SOL    HW2 9112   4.854   3.264   4.537
 3035SOL     OW 9113   3.732   3.188   3.924
 3035SOL    HW1 9114   3.639   3.209   3.893
 3035SOL    HW2 9115   3.742   3.089   3.937
 3036SOL     OW 9116   4.539   2.434   4.049
 3036SOL    HW1 9117   4.546   2.345   4.003
 3036SOL    HW2 9118   4.445   2.468   4.041
 3037SOL     OW 9119   4.197   2.362   3.915
 3037SOL    HW1 9120   4.258   2.442   3.919
 3037SOL    HW2 9121   4.102   2.393   3.922
 3038SOL     OW 9122   4.627   1.948   3.857
 3038SOL    HW1 9123   4.678   1.949   3.771
 3038SOL    HW2 9124   4.683   1.906   3.928
 3039SOL     OW 9125   4.396   3.478   3.878
 3039SOL    HW1 9126   4.405   3.488   3.779
 3039SOL    HW2 9127   4.356   3.389   3.899
 3040SOL     OW 9128   3.987   2.188   4.444
 3040SOL    HW1 9129   3.908   2.239   4.410
 3040SOL    HW2 9130   3.978   2.173   4.542
 3041SOL     OW 9131   4.314   3.349   4.215
 3041SOL    HW1 9132   4.356   3.291   4.145
 3041SOL    HW2 9133   4.270   3.428   4.171
 3042SOL     OW 9134   3.979   3.210   4.014
 3042SOL    HW1 9135   3.883   3.211   3.987
 3042SOL    HW2 9136   3.991   3.263   4.098
 3043SOL     OW 9137   3.799   2.207   3.757
 3043SOL    HW1 9138   3.707   2.179   3.728
 3043SOL    HW2 9139   3.830   2.284   3.701
 3044SOL     OW 9140   3.796   2.028   4.042
 3044SOL    HW1 9141   3.779   2.111   3.988
 3044SOL    HW2 9142   3.886   1.991   4.020
 3045SOL     OW 9143   4.318   2.607   4.376
 3045SOL    HW1 9144   4.368   2.692   4.357
 3045SOL    HW2 9145   4.230   2.609   4.328
 3046SOL     OW 9146   4.385   3.652   4.677
 3046SOL    HW1 9147   4.339   3.740   4.664
 3046SOL    HW2 9148   4.484   3.664   4.670
 3047SOL     OW 9149   3.803   3.102   4.377
 3047SOL    HW1 9150   3.802   3.055   4.465
 3047SOL    HW2 9151   3.885   3.074   4.326
 3048SOL     OW 9152   4.152   2.286   4.244
 3048SOL    HW1 9153   4.182   2.214   4.182
 3048SOL    HW2 9154   4.113   2.246   4.327
 3049SOL     OW 9155   4.536   3.448   4.411
 3049SOL    HW1 9156   4.568   3.458   4.317
 3049SOL    HW2 9157   4.457   3.386   4.413
 3050SOL     OW 9158   3.763   2.939   4.024
 3050SOL    HW1 9159   3.862   2.928   4.015
 3050SOL    HW2 9160   3.723   2.853   4.056
 3051SOL     OW 9161   3.954   4.352   0.113
 3051SOL    HW1 9162   3.861   4.350   0.150
 3051SOL    HW2 9163   3.955   4.313   0.021
 3052SOL     OW 9164   3.949   3.999   0.996
 3052SOL    HW1 9165   3.984   3.982   1.088
 3052SOL    HW2 9166   3.861   3.954   0.984
 3053SOL     OW 9167   3.743   4.092   0.647
 3053SOL    HW1 9168   3.661   4.135   0.686
 3053SOL    HW2 9169   3.715   4.019   0.584
 3054SOL     OW 9170   4.409   4.736   0.665
 3054SOL    HW1 9171   4.478   4.720   0.735
 3054SOL    HW2 9172   4.336   4.793   0.703
 3055SOL     OW 9173   4.162   4.116   1.499
 3055SOL    HW1 9174   4.244   4.060   1.508
 3055SOL    HW2 9175   4.081   4.058   1.503
 3056SOL     OW 9176   3.846   4.367   0.563
 3056SOL    HW1 9177   3.801   4.279   0.580
 3056SOL    HW2 9178   3.845   4.421   0.647
 3057SOL     OW 9179   3.837   4.461   1.597
 3057SOL    HW1 9180   3.925   4.448   1.642
 3057SOL    HW2 9181   3.824   4.558   1.575
 3058SOL     OW 9182   4.533   3.728   0.502
 3058SOL    HW1 9183   4.573   3.819   0.493
 3058SOL    HW2 9184   4.433   3.736   0.508
 3059SOL     OW 9185   4.041   3.975   1.801
 3059SOL    HW1 9186   4.112   4.046   1.807
 3059SOL    HW2 9187   3.953   4.014   1.829
 3060SOL     OW 9188   4.322   4.453   0.270
 3060SOL    HW1 9189   4.346   4.522   0.202
 3060SOL    HW2 9190   4.244   4.486   0.324
 3061SOL     OW 9191   4.274   3.920   0.885
 3061SOL    HW1 9192   4.269   3.915   0.985
 3061SOL    HW2 9193   4.276   4.016   0.856
 3062SOL     OW 9194   3.926   4.009   1.498
 3062SOL    HW1 9195   3.846   4.069   1.485
 3062SOL    HW2 9196   3.916   3.960   1.584
 3063SOL     OW 9197   4.106   4.424   0.480
 3063SOL    HW1 9198   4.151   4.334   0.477
 3063SOL    HW2 9199   4.012   4.413   0.513
 3064SOL     OW 9200   4.646   4.227   0.899
 3064SOL    HW1 9201   4.621   4.218   0.803
 3064SOL    HW2 9202   4.694   4.145   0.930
 3065SOL     OW 9203   4.263   3.788   0.512
 3065SOL    HW1 9204   4.182   3.789   0.570
 3065SOL    HW2 9205   4.266   3.871   0.457
 3066SOL     OW 9206   4.021   3.759   0.171
 3066SOL    HW1 9207   4.070   3.843   0.150
 3066SOL    HW2 9208   4.083   3.694   0.216
 3067SOL     OW 9209   3.802   4.280   1.386
 3067SOL    HW1 9210   3.894   4.279   1.345
 3067SOL    HW2 9211   3.796   4.354   1.453
 3068SOL     OW 9212   4.285   3.946   1.147
 3068SOL    HW1 9213   4.323   3.862   1.184
 3068SOL    HW2 9214   4.197   3.965   1.191
 3069SOL     OW 9215   4.251   3.980   0.328
 3069SOL    HW1 9216   4.278   3.921   0.253
 3069SOL    HW2 9217   4.251   4.075   0.297
 3070SOL     OW 9218   4.639   3.813   1.402
 3070SOL    HW1 9219   4.664   3.793   1.307
 3070SOL    HW2 9220   4.711   3.869   1.444
 3071SOL     OW 9221   4.429   4.774   0.368
 3071SOL    HW1 9222   4.415   4.781   0.467
 3071SOL    HW2 9223   4.513   4.723   0.350
 3072SOL     OW 9224   4.134   4.537   1.251
 3072SOL    HW1 9225   4.220   4.549   1.301
 3072SOL    HW2 9226   4.092   4.450   1.278
 3073SOL     OW 9227   4.290   4.261   0.865
 3073SOL    HW1 9228   4.302   4.327   0.791
 3073SOL    HW2 9229   4.336   4.295   0.948
 3074SOL     OW 9230   4.228   3.774   1.740
 3074SOL    HW1 9231   4.186   3.717   1.670
 3074SOL    HW2 9232   4.162   3.843   1.772
 3075SOL     OW 9233   4.031   3.937   1.231
 3075SOL    HW1 9234   4.008   3.974   1.321
 3075SOL    HW2 9235   4.001   3.842   1.225
 3076SOL     OW 9236   4.456   4.358   1.064
 3076SOL    HW1 9237   4.515   4.332   0.988
 3076SOL    HW2 9238   4.428   4.454   1.053
 3077SOL     OW 9239   4.031   3.787   0.618
 3077SOL    HW1 9240   4.020   3.881   0.651
 3077SOL    HW2 9241   4.026   3.724   0.695
 3078SOL     OW 9242   4.043   4.534   0.949
 3078SOL    HW1 9243   4.136   4.570   0.954
 3078SOL    HW2 9244   4.037   4.449   1.001
 3079SOL     OW 9245   4.063   4.233   1.006
 3079SOL    HW1 9246   4.011   4.150   0.989
 3079SOL    HW2 9247   4.140   4.238   0.942
 3080SOL     OW 9248   3.764   4.268   1.114
 3080SOL    HW1 9249   3.849   4.235   1.073
 3080SOL    HW2 9250   3.777   4.283   1.212
 3081SOL     OW 9251   3.913   4.244   1.722
 3081SOL    HW1 9252   3.972   4.204   1.652
 3081SOL    HW2 9253   3.855   4.315   1.681
 3082SOL     OW 9254   4.539   4.296   0.325
 3082SOL    HW1 9255   4.546   4.207   0.279
 3082SOL    HW2 9256   4.445   4.330   0.317
 3083SOL     OW 9257   4.395   4.188   1.269
 3083SOL    HW1 9258   4.361   4.099   1.239
 3083SOL    HW2 9259   4.421   4.242   1.189
 3084SOL     OW 9260   4.197   4.224   0.191
 3084SOL    HW1 9261   4.258   4.304   0.195
 3084SOL    HW2 9262   4.102   4.255   0.198
 3085SOL     OW 9263   4.627   3.810   0.133
 3085SOL    HW1 9264   4.678   3.811   0.047
 3085SOL    HW2 9265   4.683   3.768   0.204
 3086SOL     OW 9266   3.987   4.050   0.720
 3086SOL    HW1 9267   3.908   4.101   0.686
 3086SOL    HW2 9268   3.978   4.035   0.818
 3087SOL     OW 9269   3.829   4.737   1.726
 3087SOL    HW1 9270   3.752   4.704   1.780
 3087SOL    HW2 9271   3.914   4.707   1.768
 3088SOL     OW 9272   4.396   3.927   1.489
 3088SOL    HW1 9273   4.486   3.911   1.449
 3088SOL    HW2 9274   4.404   3.932   1.588
 3089SOL     OW 9275   3.799   4.069   0.033
 3089SOL    HW1 9276   3.707   4.041   0.004
 3089SOL    HW2 9277   3.830   4.146  -0.023
 3090SOL     OW 9278   3.796   3.890   0.318
 3090SOL    HW1 9279   3.779   3.973   0.264
 3090SOL    HW2 9280   3.886   3.853   0.296
 3091SOL     OW 9281   4.337   4.566   1.431
 3091SOL    HW1 9282   4.393   4.647   1.414
 3091SOL    HW2 9283   4.396   4.486   1.434
 3092SOL     OW 9284   4.440   4.289   1.708
 3092SOL    HW1 9285   4.459   4.354   1.782
 3092SOL    HW2 9286   4.500   4.209   1.717
 3093SOL     OW 9287   4.318   4.469   0.652
 3093SOL    HW1 9288   4.368   4.554   0.633
 3093SOL    HW2 9289   4.230   4.471   0.604
 3094SOL     OW 9290   4.152   4.148   0.520
 3094SOL    HW1 9291   4.182   4.076   0.458
 3094SOL    HW2 9292   4.113   4.108   0.603
 3095SOL     OW 9293   4.041   4.271   1.280
 3095SOL    HW1 9294   4.079   4.212   1.352
 3095SOL    HW2 9295   4.081   4.245   1.192
 3096SOL     OW 9296   3.954   4.352   1.975
 3096SOL    HW1 9297   3.861   4.350   2.012
 3096SOL    HW2 9298   3.955   4.313   1.883
 3097SOL     OW 9299   3.949   3.999   2.858
 3097SOL    HW1 9300   3.984   3.982   2.950
 3097SOL    HW2 9301   3.861   3.954   2.846
 3098SOL     OW 9302   3.743   4.092   2.509
 3098SOL    HW1 9303   3.661   4.135   2.548
 3098SOL    HW2 9304   3.715   4.019   2.446
 3099SOL     OW 9305   4.409   4.736   2.527
 3099SOL    HW1 9306   4.478   4.720   2.597
 3099SOL    HW2 9307   4.336   4.793   2.565
 3100SOL     OW 9308   4.162   4.116   3.361
 3100SOL    HW1 9309   4.244   4.060   3.370
 3100SOL    HW2 9310   4.081   4.058   3.365
 3101SOL     OW 9311   3.846   4.367   2.425
 3101SOL    HW1 9312   3.801   4.279   2.442
 3101SOL    HW2 9313   3.845   4.421   2.509
 3102SOL     OW 9314   3.837   4.461   3.459
 3102SOL    HW1 9315   3.925   4.448   3.504
 3102SOL    HW2 9316   3.824   4.558   3.437
 3103SOL     OW 9317   4.533   3.728   2.364
 3103SOL    HW1 9318   4.573   3.819   2.355
 3103SOL    HW2 9319   4.433   3.736   2.370
 3104SOL     OW 9320   4.041   3.975   3.663
 3104SOL    HW1 9321   4.112   4.046   3.669
 3104SOL    HW2 9322   3.953   4.014   3.691
 3105SOL     OW 9323   4.322   4.453   2.132
 3105SOL    HW1 9324   4.346   4.522   2.064
 3105SOL    HW2 9325   4.244   4.486   2.186
 3106SOL     OW 9326   4.274   3.920   2.747
 3106SOL    HW1 9327   4.269   3.915   2.847
 3106SOL    HW2 9328   4.276   4.016   2.718
 3107SOL     OW 9329   3.926   4.009   3.360
 3107SOL    HW1 9330   3.846   4.069   3.347
 3107SOL    HW2 9331   3.916   3.960   3.446
 3108SOL     OW 9332   4.106   4.424   2.342
 3108SOL    HW1 9333   4.151   4.334   2.339
 3108SOL    HW2 9334   4.012   4.413   2.375
 3109SOL     OW 9335   4.338   3.846   1.979
 3109SOL    HW1 9336   4.436   3.824   1.986
 3109SOL    HW2 9337   4.307   3.829   1.886
 3110SOL     OW 9338   4.646   4.227   2.761
 3110SOL    HW1 9339   4.621   4.218   2.665
 3110SOL    HW2 9340   4.694   4.145   2.792
 3111SOL     OW 9341   4.263   3.788   2.374
 3111SOL    HW1 9342   4.182   3.789   2.432
 3111SOL    HW2 9343   4.266   3.871   2.319
 3112SOL     OW 9344   4.021   3.759   2.033
 3112SOL    HW1 9345   4.070   3.843   2.012
 3112SOL    HW2 9346   4.083   3.694   2.078
 3113SOL     OW 9347   3.802   4.280   3.248
 3113SOL    HW1 9348   3.894   4.279   3.207
 3113SOL    HW2 9349   3.796   4.354   3.315
 3114SOL     OW 9350   4.285   3.946   3.009
 3114SOL    HW1 9351   4.323   3.862   3.046
 3114SOL    HW2 9352   4.197   3.965   3.053
 3115SOL     OW 9353   4.251   3.980   2.190
 3115SOL    HW1 9354   4.278   3.921   2.115
 3115SOL    HW2 9355   4.251   4.075   2.159
 3116SOL     OW 9356   4.639   3.813   3.264
 3116SOL    HW1 9357   4.664   3.793   3.169
 3116SOL    HW2 9358   4.711   3.869   3.306
 3117SOL     OW 9359   4.429   4.774   2.230
 3117SOL    HW1 9360   4.415   4.781   2.329
 3117SOL    HW2 9361   4.513   4.723   2.212
 3118SOL     OW 9362   4.134   4.537   3.113
 3118SOL    HW1 9363   4.220   4.549   3.163
 3118SOL    HW2 9364   4.092   4.450   3.140
 3119SOL     OW 9365   4.290   4.261   2.727
 3119SOL    HW1 9366   4.302   4.327   2.653
 3119SOL    HW2 9367   4.336   4.295   2.810
 3120SOL     OW 9368   4.228   3.774   3.602
 3120SOL    HW1 9369   4.186   3.717   3.532
 3120SOL    HW2 9370   4.162   3.843   3.634
 3121SOL     OW 9371   4.031   3.937   3.093
 3121SOL    HW1 9372   4.008   3.974   3.183
 3121SOL    HW2 9373   4.001   3.842   3.087
 3122SOL     OW 9374   4.456   4.358   2.926
 3122SOL    HW1 9375   4.515   4.332   2.850
 3122SOL    HW2 9376   4.428   4.454   2.915
 3123SOL     OW 9377   4.031   3.787   2.480
 3123SOL    HW1 9378   4.020   3.881   2.513
 3123SOL    HW2 9379   4.026   3.724   2.557
 3124SOL     OW 9380   4.043   4.534   2.811
 3124SOL    HW1 9381   4.136   4.570   2.816
 3124SOL    HW2 9382   4.037   4.449   2.863
 3125SOL     OW 9383   4.063   4.233   2.868
 3125SOL    HW1 9384   4.011   4.150   2.851
 3125SOL    HW2 9385   4.140   4.238   2.804
 3126SOL     OW 9386   3.764   4.268   2.976
 3126SOL    HW1 9387   3.849   4.235   2.935
 3126SOL    HW2 9388   3.777   4.283   3.074
 3127SOL     OW 9389   3.913   4.244   3.584
 3127SOL    HW1 9390   3.972   4.204   3.514
 3127SOL    HW2 9391   3.855   4.315   3.543
 3128SOL     OW 9392   4.539   4.296   2.187
 3128SOL    HW1 9393   4.546   4.207   2.141
 3128SOL    HW2 9394   4.445   4.330   2.179
 3129SOL     OW 9395   4.395   4.188   3.131
 3129SOL    HW1 9396   4.361   4.099   3.101
 3129SOL    HW2 9397   4.421   4.242   3.051
 3130SOL     OW 9398   4.197   4.224   2.053
 3130SOL    HW1 9399   4.258   4.304   2.057
 3130SOL    HW2 9400   4.102   4.255   2.060
 3131SOL     OW 9401   4.627   3.810   1.995
 3131SOL    HW1 9402   4.678   3.811   1.909
 3131SOL    HW2 9403   4.683   3.768   2.066
 3132SOL     OW 9404   3.987   4.050   2.582
 3132SOL    HW1 9405   3.908   4.101   2.548
 3132SOL    HW2 9406   3.978   4.035   2.680
 3133SOL     OW 9407   3.829   4.737   3.588
 3133SOL    HW1 9408   3.752   4.704   3.642
 3133SOL    HW2 9409   3.914   4.707   3.630
 3134SOL     OW 9410   4.396   3.927   3.351
 3134SOL    HW1 9411   4.486   3.911   3.311
 3134SOL    HW2 9412   4.404   3.932   3.450
 3135SOL     OW 9413   3.799   4.069   1.895
 3135SOL    HW1 9414   3.707   4.041   1.866
 3135SOL    HW2 9415   3.830   4.146   1.839
 3136SOL     OW 9416   3.796   3.890   2.180
 3136SOL    HW1 9417   3.779   3.973   2.126
 3136SOL    HW2 9418   3.886   3.853   2.158
 3137SOL     OW 9419   4.337   4.566   3.293
 3137SOL    HW1 9420   4.393   4.647   3.276
 3137SOL    HW2 9421   4.396   4.486   3.296
 3138SOL     OW 9422   4.440   4.289   3.570
 3138SOL    HW1 9423   4.459   4.354   3.644
 3138SOL    HW2 9424   4.500   4.209   3.579
 3139SOL     OW 9425   4.318   4.469   2.514
 3139SOL    HW1 9426   4.368   4.554   2.495
 3139SOL    HW2 9427   4.230   4.471   2.466
 3140SOL     OW 9428   4.152   4.148   2.382
 3140SOL    HW1 9429   4.182   4.076   2.320
 3140SOL    HW2 9430   4.113   4.108   2.465
 3141SOL     OW 9431   4.041   4.271   3.142
 3141SOL    HW1 9432   4.079   4.212   3.214
 3141SOL    HW2 9433   4.081   4.245   3.054
 3142SOL     OW 9434   3.954   4.352   3.837
 3142SOL    HW1 9435   3.861   4.350   3.874
 3142SOL    HW2 9436   3.955   4.313   3.745
 3143SOL     OW 9437   3.743   4.092   4.371
 3143SOL    HW1 9438   3.661   4.135   4.410
 3143SOL    HW2 9439   3.715   4.019   4.308
 3144SOL     OW 9440   4.409   4.736   4.389
 3144SOL    HW1 9441   4.478   4.720   4.459
 3144SOL    HW2 9442   4.336   4.793   4.427
 3145SOL     OW 9443   3.846   4.367   4.287
 3145SOL    HW1 9444   3.801   4.279   4.304
 3145SOL    HW2 9445   3.845   4.421   4.371
 3146SOL     OW 9446   4.533   3.728   4.226
 3146SOL    HW1 9447   4.573   3.819   4.217
 3146SOL    HW2 9448   4.433   3.736   4.232
 3147SOL     OW 9449   4.322   4.453   3.994
 3147SOL    HW1 9450   4.346   4.522   3.926
 3147SOL    HW2 9451   4.244   4.486   4.048
 3148SOL     OW 9452   4.274   3.920   4.609
 3148SOL    HW1 9453   4.269   3.915   4.709
 3148SOL    HW2 9454   4.276   4.016   4.580
 3149SOL     OW 9455   4.106   4.424   4.204
 3149SOL    HW1 9456   4.151   4.334   4.201
 3149SOL    HW2 9457   4.012   4.413   4.237
 3150SOL     OW 9458   4.338   3.846   3.841
 3150SOL    HW1 9459   4.436   3.824   3.848
 3150SOL    HW2 9460   4.307   3.829   3.748
 3151SOL     OW 9461   4.263   3.788   4.236
 3151SOL    HW1 9462   4.182   3.789   4.294
 3151SOL    HW2 9463   4.266   3.871   4.181
 3152SOL     OW 9464   4.021   3.759   3.895
 3152SOL    HW1 9465   4.070   3.843   3.874
 3152SOL    HW2 9466   4.083   3.694   3.940
 3153SOL     OW 9467   4.183   4.876   4.465
 3153SOL    HW1 9468   4.112   4.849   4.530
 3153SOL    HW2 9469   4.157   4.848   4.372
 3154SOL     OW 9470   4.741   3.763   4.477
 3154SOL    HW1 9471   4.669   3.768   4.408
 3154SOL    HW2 9472   4.717   3.694   4.546
 3155SOL     OW 9473   4.251   3.980   4.052
 3155SOL    HW1 9474   4.278   3.921   3.977
 3155SOL    HW2 9475   4.251   4.075   4.021
 3156SOL     OW 9476   4.429   4.774   4.092
 3156SOL    HW1 9477   4.415   4.781   4.191
 3156SOL    HW2 9478   4.513   4.723   4.074
 3157SOL     OW 9479   4.290   4.261   4.589
 3157SOL    HW1 9480   4.302   4.327   4.515
 3157SOL    HW2 9481   4.336   4.295   4.672
 3158SOL     OW 9482   4.031   3.787   4.342
 3158SOL    HW1 9483   4.020   3.881   4.375
 3158SOL    HW2 9484   4.026   3.724   4.419
 3159SOL     OW 9485   4.539   4.296   4.049
 3159SOL    HW1 9486   4.546   4.207   4.003
 3159SOL    HW2 9487   4.445   4.330   4.041
 3160SOL     OW 9488   4.197   4.224   3.915
 3160SOL    HW1 9489   4.258   4.304   3.919
 3160SOL    HW2 9490   4.102   4.255   3.922
 3161SOL     OW 9491   4.627   3.810   3.857
 3161SOL    HW1 9492   4.678   3.811   3.771
 3161SOL    HW2 9493   4.683   3.768   3.928
 3162SOL     OW 9494   3.987   4.050   4.444
 3162SOL    HW1 9495   3.908   4.101   4.410
 3162SOL    HW2 9496   3.978   4.035   4.542
 3163SOL     OW 9497   3.799   4.069   3.757
 3163SOL    HW1 9498   3.707   4.041   3.728
 3163SOL    HW2 9499   3.830   4.146   3.701
 3164SOL     OW 9500   3.796   3.890   4.042
 3164SOL    HW1 9501   3.779   3.973   3.988
 3164SOL    HW2 9502   3.886   3.853   4.020
 3165SOL     OW 9503   4.318   4.469   4.376
 3165SOL    HW1 9504   4.368   4.554   4.357
 3165SOL    HW2 9505   4.230   4.471   4.328
 3166SOL     OW 9506   4.152   4.148   4.244
 3166SOL    HW1 9507   4.182   4.076   4.182
 3166SOL    HW2 9508   4.113   4.108   4.327
   4.59793   4.59793   4.59793
