mobley_5520946_GMX.gro created by acpype (v: 2023.10.27) on Wed May 20 23:56:17 2026
   13
    1MOL     C1    1   2.310   2.290   2.129
    1MOL     C2    2   2.203   2.350   2.196
    1MOL     C3    3   2.415   2.234   2.201
    1MOL     C4    4   2.201   2.353   2.336
    1MOL     C5    5   2.413   2.237   2.341
    1MOL     C6    6   2.306   2.296   2.408
    1MOL     S1    7   2.304   2.300   2.586
    1MOL     H1    8   2.311   2.288   2.020
    1MOL     H2    9   2.121   2.394   2.140
    1MOL     H3   10   2.498   2.187   2.149
    1MOL     H4   11   2.117   2.400   2.386
    1MOL     H5   12   2.496   2.192   2.395
    1MOL     H6   13   2.189   2.367   2.600
   4.59793   4.59793   4.59793
