mobley_6430250_GMX.gro created by acpype (v: 2023.10.27) on Wed May 20 23:46:04 2026
   21
    1MOL     C1    1   2.393   2.362   2.093
    1MOL     C2    2   2.286   2.422   2.160
    1MOL     C3    3   2.498   2.306   2.165
    1MOL     C4    4   2.284   2.425   2.300
    1MOL     C5    5   2.496   2.309   2.305
    1MOL     C6    6   2.389   2.368   2.372
    1MOL     C7    7   2.450   2.502   2.729
    1MOL     C8    8   2.387   2.372   2.521
    1MOL     C9    9   2.455   2.497   2.577
    1MOL     H1   10   2.394   2.360   1.984
    1MOL     H2   11   2.204   2.466   2.104
    1MOL     H3   12   2.581   2.259   2.113
    1MOL     H4   13   2.200   2.472   2.351
    1MOL     H5   14   2.578   2.264   2.360
    1MOL     H6   15   2.346   2.502   2.765
    1MOL     H7   16   2.501   2.415   2.773
    1MOL     H8   17   2.498   2.593   2.766
    1MOL     H9   18   2.284   2.366   2.558
    1MOL    H10   19   2.437   2.282   2.562
    1MOL    H11   20   2.560   2.501   2.545
    1MOL    H12   21   2.406   2.587   2.537
   4.82257   4.82257   4.82257
