mobley_4613090_GMX.gro created by acpype (v: 2023.10.27) on Wed May 20 23:41:34 2026
11116
    1MOL     C1    1   2.614   2.507   2.631
    1MOL     C2    2   2.620   2.381   2.571
    1MOL     C3    3   2.496   2.582   2.623
    1MOL     C4    4   2.510   2.329   2.504
    1MOL     C5    5   2.385   2.530   2.556
    1MOL     C6    6   2.347   2.318   2.073
    1MOL     C7    7   2.364   2.272   2.202
    1MOL     C8    8   2.232   2.449   2.196
    1MOL     C9    9   2.392   2.404   2.497
    1MOL    C10   10   2.273   2.349   2.425
    1MOL     N1   11   2.266   2.429   2.071
    1MOL     N2   12   2.289   2.356   2.279
    1MOL     H1   13   2.700   2.547   2.683
    1MOL     H2   14   2.712   2.323   2.577
    1MOL     H3   15   2.491   2.680   2.669
    1MOL     H4   16   2.516   2.231   2.458
    1MOL     H5   17   2.294   2.589   2.550
    1MOL     H6   18   2.391   2.278   1.983
    1MOL     H7   19   2.419   2.189   2.243
    1MOL     H8   20   2.168   2.527   2.233
    1MOL     H9   21   2.255   2.244   2.451
    1MOL    H10   22   2.181   2.403   2.451
    2SOL     OW   23   0.230   0.628   0.113
    2SOL    HW1   24   0.137   0.626   0.150
    2SOL    HW2   25   0.231   0.589   0.021
    3SOL     OW   26   0.225   0.275   0.996
    3SOL    HW1   27   0.260   0.258   1.088
    3SOL    HW2   28   0.137   0.230   0.984
    4SOL     OW   29   0.019   0.368   0.647
    4SOL    HW1   30  -0.063   0.411   0.686
    4SOL    HW2   31  -0.009   0.295   0.584
    5SOL     OW   32   0.569   1.275   1.165
    5SOL    HW1   33   0.476   1.268   1.128
    5SOL    HW2   34   0.580   1.364   1.209
    6SOL     OW   35   1.555   1.511   0.703
    6SOL    HW1   36   1.498   1.495   0.784
    6SOL    HW2   37   1.496   1.521   0.623
    7SOL     OW   38   1.135   0.703   0.717
    7SOL    HW1   39   1.192   0.781   0.692
    7SOL    HW2   40   1.075   0.729   0.793
    8SOL     OW   41   1.755   0.607   0.231
    8SOL    HW1   42   1.743   0.594   0.132
    8SOL    HW2   43   1.725   0.526   0.280
    9SOL     OW   44   0.768   1.144   1.023
    9SOL    HW1   45   0.690   1.161   1.083
    9SOL    HW2   46   0.802   1.231   0.987
   10SOL     OW   47   0.850   0.798   1.823
   10SOL    HW1   48   0.846   0.874   1.888
   10SOL    HW2   49   0.872   0.834   1.732
   11SOL     OW   50   0.685   1.012   0.665
   11SOL    HW1   51   0.754   0.996   0.735
   11SOL    HW2   52   0.612   1.069   0.703
   12SOL     OW   53   0.686   1.161   1.803
   12SOL    HW1   54   0.746   1.240   1.817
   12SOL    HW2   55   0.600   1.192   1.762
   13SOL     OW   56   0.335   1.435   1.061
   13SOL    HW1   57   0.257   1.404   1.008
   13SOL    HW2   58   0.393   1.493   1.004
   14SOL     OW   59   1.460   1.505   1.339
   14SOL    HW1   60   1.484   1.599   1.365
   14SOL    HW2   61   1.444   1.451   1.421
   15SOL     OW   62   0.438   0.392   1.499
   15SOL    HW1   63   0.520   0.336   1.508
   15SOL    HW2   64   0.357   0.334   1.503
   16SOL     OW   65   1.603   0.447   0.737
   16SOL    HW1   66   1.529   0.493   0.687
   16SOL    HW2   67   1.654   0.515   0.790
   17SOL     OW   68   0.231   1.713   0.483
   17SOL    HW1   69   0.265   1.790   0.537
   17SOL    HW2   70   0.275   1.713   0.393
   18SOL     OW   71   1.127   1.341   1.690
   18SOL    HW1   72   1.174   1.341   1.778
   18SOL    HW2   73   1.079   1.254   1.679
   19SOL     OW   74   0.230   1.434   0.538
   19SOL    HW1   75   0.204   1.530   0.538
   19SOL    HW2   76   0.159   1.380   0.583
   20SOL     OW   77   0.240   1.091   0.886
   20SOL    HW1   78   0.254   1.007   0.938
   20SOL    HW2   79   0.185   1.155   0.941
   21SOL     OW   80   0.620   1.786   1.439
   21SOL    HW1   81   0.528   1.769   1.474
   21SOL    HW2   82   0.648   1.878   1.465
   22SOL     OW   83   0.606   0.964   0.123
   22SOL    HW1   84   0.613   1.048   0.069
   22SOL    HW2   85   0.652   0.977   0.211
   23SOL     OW   86   1.594   0.114   1.480
   23SOL    HW1   87   1.576   0.181   1.408
   23SOL    HW2   88   1.591   0.160   1.569
   24SOL     OW   89   0.122   0.643   0.563
   24SOL    HW1   90   0.077   0.555   0.580
   24SOL    HW2   91   0.121   0.697   0.647
   25SOL     OW   92   1.842   1.767   0.359
   25SOL    HW1   93   1.896   1.738   0.439
   25SOL    HW2   94   1.872   1.857   0.330
   26SOL     OW   95   0.027   1.596   0.117
   26SOL    HW1   96   0.008   1.500   0.138
   26SOL    HW2   97  -0.006   1.654   0.192
   27SOL     OW   98   1.689   0.922   0.612
   27SOL    HW1   99   1.784   0.893   0.620
   27SOL    HW2  100   1.681   0.987   0.537
   28SOL     OW  101   1.641   1.108   0.432
   28SOL    HW1  102   1.727   1.110   0.380
   28SOL    HW2  103   1.655   1.155   0.520
   29SOL     OW  104   0.113   0.737   1.597
   29SOL    HW1  105   0.201   0.724   1.642
   29SOL    HW2  106   0.100   0.834   1.575
   30SOL     OW  107   0.613   1.365   0.726
   30SOL    HW1  108   0.564   1.278   0.735
   30SOL    HW2  109   0.590   1.408   0.639
   31SOL     OW  110   1.293   1.228   1.423
   31SOL    HW1  111   1.330   1.155   1.365
   31SOL    HW2  112   1.345   1.233   1.508
   32SOL     OW  113   0.809   0.004   0.502
   32SOL    HW1  114   0.849   0.095   0.493
   32SOL    HW2  115   0.709   0.012   0.508
   33SOL     OW  116   0.197   0.976   1.264
   33SOL    HW1  117   0.286   0.931   1.250
   33SOL    HW2  118   0.124   0.911   1.245
   34SOL     OW  119   1.525   0.999   0.190
   34SOL    HW1  120   1.462   0.923   0.203
   34SOL    HW2  121   1.573   1.017   0.276
   35SOL     OW  122   1.187   1.792   1.616
   35SOL    HW1  123   1.211   1.852   1.540
   35SOL    HW2  124   1.194   1.697   1.586
   36SOL     OW  125   0.317   0.251   1.801
   36SOL    HW1  126   0.388   0.322   1.807
   36SOL    HW2  127   0.229   0.290   1.829
   37SOL     OW  128   1.466   1.417   0.953
   37SOL    HW1  129   1.407   1.423   1.033
   37SOL    HW2  130   1.451   1.329   0.907
   38SOL     OW  131   1.667   1.714   0.572
   38SOL    HW1  132   1.626   1.691   0.484
   38SOL    HW2  133   1.649   1.640   0.637
   39SOL     OW  134   0.598   0.729   0.270
   39SOL    HW1  135   0.622   0.798   0.202
   39SOL    HW2  136   0.520   0.762   0.324
   40SOL     OW  137   1.281   0.345   0.944
   40SOL    HW1  138   1.195   0.295   0.931
   40SOL    HW2  139   1.343   0.291   1.000
   41SOL     OW  140   1.576   1.662   0.307
   41SOL    HW1  141   1.665   1.708   0.310
   41SOL    HW2  142   1.555   1.638   0.212
   42SOL     OW  143   0.807   0.605   1.465
   42SOL    HW1  144   0.760   0.602   1.554
   42SOL    HW2  145   0.756   0.550   1.399
   43SOL     OW  146   1.394   0.469   1.674
   43SOL    HW1  147   1.374   0.512   1.762
   43SOL    HW2  148   1.472   0.407   1.683
   44SOL     OW  149   0.973   0.890   1.572
   44SOL    HW1  150   1.019   0.806   1.543
   44SOL    HW2  151   0.917   0.924   1.497
   45SOL     OW  152   0.991   0.410   1.242
   45SOL    HW1  153   0.914   0.444   1.296
   45SOL    HW2  154   0.957   0.359   1.163
   46SOL     OW  155   1.041   0.701   0.429
   46SOL    HW1  156   1.067   0.697   0.525
   46SOL    HW2  157   0.956   0.650   0.415
   47SOL     OW  158   0.076   0.811   0.789
   47SOL    HW1  159   0.175   0.799   0.798
   47SOL    HW2  160   0.052   0.906   0.810
   48SOL     OW  161   0.130   1.821   1.571
   48SOL    HW1  162   0.120   1.806   1.670
   48SOL    HW2  163   0.044   1.857   1.535
   49SOL     OW  164   0.865   0.348   0.195
   49SOL    HW1  165   0.924   0.411   0.146
   49SOL    HW2  166   0.884   0.254   0.166
   50SOL     OW  167   1.719   0.585   1.831
   50SOL    HW1  168   1.693   0.674   1.795
   50SOL    HW2  169   1.717   0.517   1.758
   51SOL     OW  170   1.362   1.144   0.545
   51SOL    HW1  171   1.445   1.115   0.497
   51SOL    HW2  172   1.313   1.211   0.489
   52SOL     OW  173   0.550   0.196   0.885
   52SOL    HW1  174   0.545   0.191   0.985
   52SOL    HW2  175   0.552   0.292   0.856
   53SOL     OW  176   1.008   1.456   0.477
   53SOL    HW1  177   0.962   1.528   0.425
   53SOL    HW2  178   1.004   1.476   0.575
   54SOL     OW  179   0.351   1.801   0.853
   54SOL    HW1  180   0.401   1.715   0.859
   54SOL    HW2  181   0.416   1.878   0.850
   55SOL     OW  182   1.795   1.066   0.873
   55SOL    HW1  183   1.733   1.051   0.797
   55SOL    HW2  184   1.743   1.077   0.958
   56SOL     OW  185   1.227   1.550   1.506
   56SOL    HW1  186   1.233   1.473   1.570
   56SOL    HW2  187   1.175   1.524   1.426
   57SOL     OW  188   0.321   0.943   0.242
   57SOL    HW1  189   0.403   0.982   0.200
   57SOL    HW2  190   0.294   0.861   0.193
   58SOL     OW  191   1.458   0.735   0.728
   58SOL    HW1  192   1.453   0.670   0.803
   58SOL    HW2  193   1.538   0.794   0.741
   59SOL     OW  194   0.461   1.266   1.727
   59SOL    HW1  195   0.411   1.267   1.641
   59SOL    HW2  196   0.398   1.248   1.803
   60SOL     OW  197   1.111   1.776   0.237
   60SOL    HW1  198   1.051   1.714   0.287
   60SOL    HW2  199   1.142   1.732   0.152
   61SOL     OW  200   0.202   0.285   1.498
   61SOL    HW1  201   0.122   0.345   1.485
   61SOL    HW2  202   0.192   0.236   1.584
   62SOL     OW  203   1.632   1.377   0.081
   62SOL    HW1  204   1.600   1.471   0.071
   62SOL    HW2  205   1.556   1.314   0.069
   63SOL     OW  206   0.464   1.743   0.323
   63SOL    HW1  207   0.497   1.782   0.409
   63SOL    HW2  208   0.540   1.736   0.258
   64SOL     OW  209   1.400   0.107   0.426
   64SOL    HW1  210   1.376   0.070   0.336
   64SOL    HW2  211   1.499   0.123   0.430
   65SOL     OW  212   0.249   1.785   1.241
   65SOL    HW1  213   0.306   1.720   1.291
   65SOL    HW2  214   0.233   1.752   1.148
   66SOL     OW  215   0.940   1.698   0.904
   66SOL    HW1  216   1.020   1.641   0.925
   66SOL    HW2  217   0.891   1.658   0.827
   67SOL     OW  218   0.382   0.700   0.480
   67SOL    HW1  219   0.427   0.610   0.477
   67SOL    HW2  220   0.288   0.689   0.513
   68SOL     OW  221   1.547   0.222   1.729
   68SOL    HW1  222   1.542   0.259   1.821
   68SOL    HW2  223   1.475   0.153   1.717
   69SOL     OW  224   0.614   0.122   0.117
   69SOL    HW1  225   0.712   0.100   0.124
   69SOL    HW2  226   0.583   0.105   0.024
   70SOL     OW  227   0.781   0.264   1.749
   70SOL    HW1  228   0.848   0.203   1.792
   70SOL    HW2  229   0.708   0.283   1.814
   71SOL     OW  230   0.888   1.514   1.195
   71SOL    HW1  231   0.865   1.489   1.101
   71SOL    HW2  232   0.949   1.445   1.234
   72SOL     OW  233   1.351   0.590   1.433
   72SOL    HW1  234   1.379   0.547   1.518
   72SOL    HW2  235   1.376   0.686   1.434
   73SOL     OW  236   0.803   1.402   0.924
   73SOL    HW1  237   0.893   1.416   0.882
   73SOL    HW2  238   0.732   1.404   0.853
   74SOL     OW  239   0.922   0.503   0.899
   74SOL    HW1  240   0.897   0.494   0.803
   74SOL    HW2  241   0.970   0.421   0.930
   75SOL     OW  242   0.539   0.064   0.512
   75SOL    HW1  243   0.458   0.065   0.570
   75SOL    HW2  244   0.542   0.147   0.457
   76SOL     OW  245   1.434   1.188   0.041
   76SOL    HW1  246   1.466   1.112   0.098
   76SOL    HW2  247   1.342   1.215   0.071
   77SOL     OW  248   0.297   0.035   0.171
   77SOL    HW1  249   0.346   0.119   0.150
   77SOL    HW2  250   0.359  -0.030   0.216
   78SOL     OW  251   0.935   0.236   0.480
   78SOL    HW1  252   0.887   0.277   0.402
   78SOL    HW2  253   1.034   0.234   0.461
   79SOL     OW  254   1.076   0.683   1.464
   79SOL    HW1  255   0.996   0.622   1.467
   79SOL    HW2  256   1.157   0.630   1.440
   80SOL     OW  257   1.227   1.570   0.793
   80SOL    HW1  258   1.248   1.644   0.728
   80SOL    HW2  259   1.295   1.570   0.866
   81SOL     OW  260   0.459   1.152   0.741
   81SOL    HW1  261   0.388   1.125   0.806
   81SOL    HW2  262   0.433   1.124   0.648
   82SOL     OW  263   1.271   1.797   0.591
   82SOL    HW1  264   1.315   1.861   0.527
   82SOL    HW2  265   1.221   1.849   0.661
   83SOL     OW  266   1.032   0.549   0.016
   83SOL    HW1  267   0.991   0.631  -0.023
   83SOL    HW2  268   1.096   0.575   0.089
   84SOL     OW  269   0.078   0.556   1.386
   84SOL    HW1  270   0.170   0.555   1.345
   84SOL    HW2  271   0.072   0.630   1.453
   85SOL     OW  272   0.561   0.222   1.147
   85SOL    HW1  273   0.599   0.138   1.184
   85SOL    HW2  274   0.473   0.241   1.191
   86SOL     OW  275   0.866   0.454   0.642
   86SOL    HW1  276   0.834   0.526   0.580
   86SOL    HW2  277   0.890   0.373   0.589
   87SOL     OW  278   1.017   0.039   0.753
   87SOL    HW1  279   0.945   0.044   0.684
   87SOL    HW2  280   0.993  -0.030   0.822
   88SOL     OW  281   1.429   1.173   0.867
   88SOL    HW1  282   1.374   1.089   0.860
   88SOL    HW2  283   1.455   1.202   0.775
   89SOL     OW  284   1.466   0.590   0.992
   89SOL    HW1  285   1.436   0.495   0.999
   89SOL    HW2  286   1.539   0.606   1.058
   90SOL     OW  287   1.857   0.833   0.377
   90SOL    HW1  288   1.899   0.769   0.441
   90SOL    HW2  289   1.819   0.782   0.299
   91SOL     OW  290   0.488   1.385   0.174
   91SOL    HW1  291   0.401   1.370   0.221
   91SOL    HW2  292   0.471   1.411   0.079
   92SOL     OW  293   1.664   1.280   0.657
   92SOL    HW1  294   1.763   1.288   0.671
   92SOL    HW2  295   1.619   1.364   0.688
   93SOL     OW  296   1.390   0.575   0.078
   93SOL    HW1  297   1.336   0.554   0.159
   93SOL    HW2  298   1.481   0.534   0.087
   94SOL     OW  299   0.527   0.256   0.328
   94SOL    HW1  300   0.554   0.197   0.253
   94SOL    HW2  301   0.527   0.351   0.297
   95SOL     OW  302   1.754   1.223   1.588
   95SOL    HW1  303   1.845   1.184   1.575
   95SOL    HW2  304   1.762   1.319   1.612
   96SOL     OW  305   1.064   1.347   1.340
   96SOL    HW1  306   0.984   1.324   1.395
   96SOL    HW2  307   1.147   1.321   1.389
   97SOL     OW  308   1.592   1.629   1.625
   97SOL    HW1  309   1.619   1.663   1.535
   97SOL    HW2  310   1.671   1.591   1.671
   98SOL     OW  311   1.111   1.195   1.100
   98SOL    HW1  312   1.071   1.239   1.181
   98SOL    HW2  313   1.070   1.232   1.017
   99SOL     OW  314   1.638   1.099   1.079
   99SOL    HW1  315   1.643   1.180   1.138
   99SOL    HW2  316   1.552   1.101   1.028
  100SOL     OW  317   0.915   0.089   1.402
  100SOL    HW1  318   0.940   0.069   1.307
  100SOL    HW2  319   0.987   0.145   1.444
  101SOL     OW  320   0.980   1.116   1.719
  101SOL    HW1  321   0.881   1.122   1.729
  101SOL    HW2  322   1.003   1.036   1.663
  102SOL     OW  323   0.705   1.050   0.368
  102SOL    HW1  324   0.691   1.057   0.467
  102SOL    HW2  325   0.789   0.999   0.350
  103SOL     OW  326   0.410   0.813   1.251
  103SOL    HW1  327   0.496   0.825   1.301
  103SOL    HW2  328   0.368   0.726   1.278
  104SOL     OW  329   1.274   0.386   1.262
  104SOL    HW1  330   1.295   0.460   1.326
  104SOL    HW2  331   1.185   0.403   1.219
  105SOL     OW  332   0.064   1.564   1.331
  105SOL    HW1  333   0.018   1.646   1.297
  105SOL    HW2  334   0.162   1.583   1.340
  106SOL     OW  335   0.367   1.100   0.501
  106SOL    HW1  336   0.360   1.183   0.445
  106SOL    HW2  337   0.371   1.020   0.441
  107SOL     OW  338   0.566   0.537   0.865
  107SOL    HW1  339   0.578   0.603   0.791
  107SOL    HW2  340   0.612   0.571   0.948
  108SOL     OW  341   1.252   1.348   0.388
  108SOL    HW1  342   1.302   1.425   0.428
  108SOL    HW2  343   1.157   1.350   0.420
  109SOL     OW  344   1.272   1.445   1.142
  109SOL    HW1  345   1.319   1.458   1.229
  109SOL    HW2  346   1.206   1.371   1.151
  110SOL     OW  347   1.582   0.639   0.472
  110SOL    HW1  348   1.551   0.700   0.545
  110SOL    HW2  349   1.632   0.691   0.403
  111SOL     OW  350   0.354   1.510   1.329
  111SOL    HW1  351   0.333   1.466   1.242
  111SOL    HW2  352   0.451   1.536   1.332
  112SOL     OW  353   0.402   0.751   1.598
  112SOL    HW1  354   0.470   0.806   1.551
  112SOL    HW2  355   0.442   0.663   1.625
  113SOL     OW  356   1.587   0.779   1.670
  113SOL    HW1  357   1.495   0.817   1.665
  113SOL    HW2  358   1.647   0.826   1.605
  114SOL     OW  359   1.013   0.105   1.770
  114SOL    HW1  360   1.019   0.190   1.718
  114SOL    HW2  361   1.045   0.029   1.713
  115SOL     OW  362   0.504   0.050   1.740
  115SOL    HW1  363   0.462  -0.007   1.670
  115SOL    HW2  364   0.438   0.119   1.772
  116SOL     OW  365   0.573   0.870   1.029
  116SOL    HW1  366   0.617   0.959   1.020
  116SOL    HW2  367   0.510   0.870   1.106
  117SOL     OW  368   1.360   0.862   1.045
  117SOL    HW1  369   1.285   0.862   0.979
  117SOL    HW2  370   1.397   0.770   1.054
  118SOL     OW  371   1.209   0.525   0.275
  118SOL    HW1  372   1.222   0.441   0.329
  118SOL    HW2  373   1.180   0.599   0.335
  119SOL     OW  374   0.307   0.213   1.231
  119SOL    HW1  375   0.284   0.250   1.321
  119SOL    HW2  376   0.277   0.118   1.225
  120SOL     OW  377   0.037   1.310   1.282
  120SOL    HW1  378   0.090   1.261   1.350
  120SOL    HW2  379   0.059   1.408   1.287
  121SOL     OW  380   0.732   0.634   1.064
  121SOL    HW1  381   0.791   0.608   0.988
  121SOL    HW2  382   0.704   0.730   1.053
  122SOL     OW  383   1.728   0.935   1.854
  122SOL    HW1  384   1.682   0.928   1.765
  122SOL    HW2  385   1.666   0.979   1.920
  123SOL     OW  386   0.307   0.063   0.618
  123SOL    HW1  387   0.296   0.157   0.651
  123SOL    HW2  388   0.302   0.000   0.695
  124SOL     OW  389   1.622   0.367   0.374
  124SOL    HW1  390   1.624   0.291   0.438
  124SOL    HW2  391   1.574   0.444   0.414
  125SOL     OW  392   1.023   0.766   0.966
  125SOL    HW1  393   1.038   0.787   1.062
  125SOL    HW2  394   0.993   0.671   0.957
  126SOL     OW  395   0.980   1.573   1.700
  126SOL    HW1  396   0.960   1.617   1.612
  126SOL    HW2  397   1.019   1.482   1.684
  127SOL     OW  398   1.859   1.518   1.605
  127SOL    HW1  399   1.873   1.545   1.510
  127SOL    HW2  400   1.942   1.540   1.658
  128SOL     OW  401   0.350   0.898   1.804
  128SOL    HW1  402   0.426   0.942   1.852
  128SOL    HW2  403   0.385   0.851   1.722
  129SOL     OW  404   1.540   0.274   0.125
  129SOL    HW1  405   1.479   0.199   0.148
  129SOL    HW2  406   1.562   0.326   0.208
  130SOL     OW  407   1.303   0.838   0.042
  130SOL    HW1  408   1.337   0.745   0.057
  130SOL    HW2  409   1.321   0.865  -0.053
  131SOL     OW  410   1.068   1.333   0.849
  131SOL    HW1  411   1.075   1.249   0.794
  131SOL    HW2  412   1.130   1.402   0.813
  132SOL     OW  413   0.319   0.810   0.949
  132SOL    HW1  414   0.412   0.846   0.954
  132SOL    HW2  415   0.313   0.725   1.001
  133SOL     OW  416   0.339   0.509   1.006
  133SOL    HW1  417   0.287   0.426   0.989
  133SOL    HW2  418   0.416   0.514   0.942
  134SOL     OW  419   1.138   0.380   1.678
  134SOL    HW1  420   1.093   0.443   1.742
  134SOL    HW2  421   1.231   0.411   1.661
  135SOL     OW  422   1.160   0.207   1.477
  135SOL    HW1  423   1.160   0.271   1.554
  135SOL    HW2  424   1.188   0.255   1.394
  136SOL     OW  425   0.008   1.326   0.200
  136SOL    HW1  426  -0.085   1.347   0.169
  136SOL    HW2  427   0.018   1.227   0.213
  137SOL     OW  428   0.088   1.801   0.927
  137SOL    HW1  429   0.046   1.715   0.900
  137SOL    HW2  430   0.182   1.804   0.893
  138SOL     OW  431   0.504   1.568   0.910
  138SOL    HW1  432   0.570   1.642   0.919
  138SOL    HW2  433   0.548   1.489   0.868
  139SOL     OW  434   1.002   0.796   1.238
  139SOL    HW1  435   1.043   0.764   1.324
  139SOL    HW2  436   0.906   0.769   1.235
  140SOL     OW  437   0.040   0.544   1.114
  140SOL    HW1  438   0.125   0.511   1.073
  140SOL    HW2  439   0.053   0.559   1.212
  141SOL     OW  440   0.189   0.520   1.722
  141SOL    HW1  441   0.248   0.480   1.652
  141SOL    HW2  442   0.131   0.591   1.681
  142SOL     OW  443   1.369   0.950   1.660
  142SOL    HW1  444   1.408   1.039   1.680
  142SOL    HW2  445   1.379   0.930   1.563
  143SOL     OW  446   0.815   0.572   0.325
  143SOL    HW1  447   0.822   0.483   0.279
  143SOL    HW2  448   0.721   0.606   0.317
  144SOL     OW  449   1.657   0.604   1.206
  144SOL    HW1  450   1.619   0.535   1.268
  144SOL    HW2  451   1.739   0.568   1.162
  145SOL     OW  452   0.252   1.564   1.744
  145SOL    HW1  453   0.222   1.621   1.820
  145SOL    HW2  454   0.245   1.467   1.770
  146SOL     OW  455   0.671   0.464   1.269
  146SOL    HW1  456   0.637   0.375   1.239
  146SOL    HW2  457   0.697   0.518   1.189
  147SOL     OW  458   0.930   1.678   1.465
  147SOL    HW1  459   0.906   1.660   1.370
  147SOL    HW2  460   0.960   1.772   1.475
  148SOL     OW  461   0.473   0.500   0.191
  148SOL    HW1  462   0.534   0.580   0.195
  148SOL    HW2  463   0.378   0.531   0.198
  149SOL     OW  464   0.159   1.137   1.466
  149SOL    HW1  465   0.181   1.076   1.542
  149SOL    HW2  466   0.169   1.088   1.380
  150SOL     OW  467   1.347   1.059   1.234
  150SOL    HW1  468   1.371   0.996   1.160
  150SOL    HW2  469   1.257   1.099   1.216
  151SOL     OW  470   1.302   0.855   0.309
  151SOL    HW1  471   1.216   0.824   0.351
  151SOL    HW2  472   1.298   0.841   0.210
  152SOL     OW  473   1.759   1.747   1.154
  152SOL    HW1  474   1.820   1.777   1.081
  152SOL    HW2  475   1.721   1.658   1.132
  153SOL     OW  476   1.252   1.731   1.128
  153SOL    HW1  477   1.336   1.736   1.074
  153SOL    HW2  478   1.229   1.635   1.146
  154SOL     OW  479   0.083   1.258   1.022
  154SOL    HW1  480   0.078   1.257   1.122
  154SOL    HW2  481   0.000   1.217   0.984
  155SOL     OW  482   0.688   1.662   1.716
  155SOL    HW1  483   0.632   1.743   1.725
  155SOL    HW2  484   0.740   1.666   1.630
  156SOL     OW  485   0.903   0.086   0.133
  156SOL    HW1  486   0.954   0.087   0.047
  156SOL    HW2  487   0.959   0.044   0.204
  157SOL     OW  488   1.726   0.135   0.523
  157SOL    HW1  489   1.799   0.118   0.456
  157SOL    HW2  490   1.695   0.048   0.561
  158SOL     OW  491   1.388   1.573   0.477
  158SOL    HW1  492   1.455   1.585   0.403
  158SOL    HW2  493   1.348   1.662   0.500
  159SOL     OW  494   0.130   1.794   1.851
  159SOL    HW1  495   0.089   1.720   1.904
  159SOL    HW2  496   0.194   1.845   1.909
  160SOL     OW  497   1.280   0.927   0.672
  160SOL    HW1  498   1.340   0.846   0.674
  160SOL    HW2  499   1.320   0.996   0.612
  161SOL     OW  500   0.830   1.273   1.422
  161SOL    HW1  501   0.825   1.306   1.517
  161SOL    HW2  502   0.744   1.292   1.376
  162SOL     OW  503   0.672   1.616   0.154
  162SOL    HW1  504   0.681   1.626   0.055
  162SOL    HW2  505   0.632   1.527   0.175
  163SOL     OW  506   1.650   1.720   1.394
  163SOL    HW1  507   1.703   1.730   1.310
  163SOL    HW2  508   1.623   1.810   1.428
  164SOL     OW  509   1.841   0.175   0.963
  164SOL    HW1  510   1.880   0.090   0.927
  164SOL    HW2  511   1.743   0.177   0.944
  165SOL     OW  512   0.263   0.326   0.720
  165SOL    HW1  513   0.184   0.377   0.686
  165SOL    HW2  514   0.254   0.311   0.818
  166SOL     OW  515   1.194   1.612   0.031
  166SOL    HW1  516   1.200   1.519   0.068
  166SOL    HW2  517   1.135   1.612  -0.049
  167SOL     OW  518   0.822   1.002   1.372
  167SOL    HW1  519   0.862   1.001   1.280
  167SOL    HW2  520   0.832   1.094   1.412
  168SOL     OW  521   0.916   0.910   0.291
  168SOL    HW1  522   0.979   0.948   0.223
  168SOL    HW2  523   0.956   0.827   0.330
  169SOL     OW  524   1.504   1.607   0.044
  169SOL    HW1  525   1.412   1.644   0.051
  169SOL    HW2  526   1.542   1.627  -0.046
  170SOL     OW  527   0.372   1.288   1.490
  170SOL    HW1  528   0.359   1.381   1.456
  170SOL    HW2  529   0.288   1.236   1.477
  171SOL     OW  530   1.614   1.292   1.289
  171SOL    HW1  531   1.674   1.295   1.369
  171SOL    HW2  532   1.539   1.356   1.302
  172SOL     OW  533   1.039   1.098   0.696
  172SOL    HW1  534   0.969   1.051   0.750
  172SOL    HW2  535   1.098   1.030   0.653
  173SOL     OW  536   1.014   0.236   0.971
  173SOL    HW1  537   1.006   0.200   0.878
  173SOL    HW2  538   1.012   0.160   1.036
  174SOL     OW  539   0.590   1.487   0.491
  174SOL    HW1  540   0.632   1.429   0.421
  174SOL    HW2  541   0.546   1.566   0.447
  175SOL     OW  542   1.709   0.385   1.381
  175SOL    HW1  543   1.782   0.454   1.385
  175SOL    HW2  544   1.737   0.310   1.322
  176SOL     OW  545   0.255   1.348   0.290
  176SOL    HW1  546   0.159   1.349   0.263
  176SOL    HW2  547   0.267   1.401   0.374
  177SOL     OW  548   0.105   1.013   1.726
  177SOL    HW1  549   0.028   0.980   1.780
  177SOL    HW2  550   0.190   0.983   1.768
  178SOL     OW  551   0.672   0.203   1.489
  178SOL    HW1  552   0.762   0.187   1.449
  178SOL    HW2  553   0.680   0.208   1.588
  179SOL     OW  554   0.075   0.345   0.033
  179SOL    HW1  555  -0.017   0.317   0.004
  179SOL    HW2  556   0.106   0.422  -0.023
  180SOL     OW  557   1.440   0.856   1.398
  180SOL    HW1  558   1.383   0.908   1.335
  180SOL    HW2  559   1.536   0.868   1.374
  181SOL     OW  560   0.072   0.166   0.318
  181SOL    HW1  561   0.055   0.249   0.264
  181SOL    HW2  562   0.162   0.129   0.296
  182SOL     OW  563   1.183   1.335   0.119
  182SOL    HW1  564   1.084   1.324   0.121
  182SOL    HW2  565   1.217   1.350   0.212
  183SOL     OW  566   0.613   0.842   1.431
  183SOL    HW1  567   0.669   0.923   1.414
  183SOL    HW2  568   0.672   0.762   1.434
  184SOL     OW  569   1.493   1.767   0.959
  184SOL    HW1  570   1.526   1.831   0.890
  184SOL    HW2  571   1.559   1.761   1.034
  185SOL     OW  572   0.716   0.565   1.708
  185SOL    HW1  573   0.735   0.630   1.782
  185SOL    HW2  574   0.776   0.485   1.717
  186SOL     OW  575   1.450   1.220   1.633
  186SOL    HW1  576   1.441   1.210   1.732
  186SOL    HW2  577   1.546   1.213   1.607
  187SOL     OW  578   0.390   1.741   1.560
  187SOL    HW1  579   0.299   1.782   1.558
  187SOL    HW2  580   0.383   1.647   1.592
  188SOL     OW  581   1.674   0.883   1.254
  188SOL    HW1  582   1.647   0.794   1.217
  188SOL    HW2  583   1.675   0.951   1.181
  189SOL     OW  584   1.225   0.325   0.449
  189SOL    HW1  585   1.290   0.251   0.438
  189SOL    HW2  586   1.245   0.375   0.533
  190SOL     OW  587   0.594   0.745   0.652
  190SOL    HW1  588   0.644   0.830   0.633
  190SOL    HW2  589   0.506   0.747   0.604
  191SOL     OW  590   1.777   0.342   1.642
  191SOL    HW1  591   1.760   0.373   1.548
  191SOL    HW2  592   1.693   0.305   1.680
  192SOL     OW  593   1.730   0.934   1.517
  192SOL    HW1  594   1.768   1.025   1.532
  192SOL    HW2  595   1.722   0.917   1.418
  193SOL     OW  596   0.859   1.374   0.016
  193SOL    HW1  597   0.813   1.389   0.104
  193SOL    HW2  598   0.903   1.459  -0.014
  194SOL     OW  599   0.661   1.790   0.953
  194SOL    HW1  600   0.615   1.878   0.940
  194SOL    HW2  601   0.760   1.802   0.946
  195SOL     OW  602   0.859   0.956   0.861
  195SOL    HW1  603   0.913   0.887   0.909
  195SOL    HW2  604   0.827   1.025   0.927
  196SOL     OW  605   1.083   0.984   0.087
  196SOL    HW1  606   1.060   1.037   0.005
  196SOL    HW2  607   1.164   0.928   0.068
  197SOL     OW  608   1.861   1.569   0.851
  197SOL    HW1  609   1.790   1.557   0.781
  197SOL    HW2  610   1.862   1.490   0.911
  198SOL     OW  611   0.221   1.314   1.844
  198SOL    HW1  612   0.156   1.241   1.823
  198SOL    HW2  613   0.225   1.328   1.942
  199SOL     OW  614   0.079   1.240   0.653
  199SOL    HW1  615   0.078   1.193   0.741
  199SOL    HW2  616   0.161   1.212   0.602
  200SOL     OW  617   0.672   1.391   1.624
  200SOL    HW1  618   0.594   1.341   1.662
  200SOL    HW2  619   0.669   1.486   1.655
  201SOL     OW  620   1.824   0.192   1.227
  201SOL    HW1  621   1.820   0.102   1.271
  201SOL    HW2  622   1.827   0.181   1.128
  202SOL     OW  623   0.428   0.424   0.520
  202SOL    HW1  624   0.458   0.352   0.458
  202SOL    HW2  625   0.389   0.384   0.603
  203SOL     OW  626   1.705   1.487   1.104
  203SOL    HW1  627   1.612   1.462   1.077
  203SOL    HW2  628   1.731   1.437   1.186
  204SOL     OW  629   0.317   0.547   1.280
  204SOL    HW1  630   0.355   0.488   1.352
  204SOL    HW2  631   0.357   0.521   1.192
  205SOL     OW  632   0.812   1.586   0.687
  205SOL    HW1  633   0.844   1.596   0.593
  205SOL    HW2  634   0.733   1.524   0.689
  206SOL     OW  635   1.424   0.214   1.112
  206SOL    HW1  636   1.476   0.149   1.167
  206SOL    HW2  637   1.375   0.277   1.173
  207SOL     OW  638   1.001   0.034   1.154
  207SOL    HW1  639   0.938  -0.038   1.123
  207SOL    HW2  640   1.094  -0.002   1.154
  208SOL     OW  641   0.770   1.330   0.301
  208SOL    HW1  642   0.724   1.243   0.318
  208SOL    HW2  643   0.861   1.327   0.342
  209SOL     OW  644   0.618   1.567   1.284
  209SOL    HW1  645   0.613   1.649   1.341
  209SOL    HW2  646   0.707   1.564   1.239
  210SOL     OW  647   1.352   0.052   0.168
  210SOL    HW1  648   1.387   0.011   0.084
  210SOL    HW2  649   1.262   0.014   0.188
  211SOL     OW  650   1.300   0.453   0.691
  211SOL    HW1  651   1.241   0.533   0.695
  211SOL    HW2  652   1.315   0.418   0.784
  212SOL     OW  653   1.593   0.221   0.882
  212SOL    HW1  654   1.509   0.220   0.936
  212SOL    HW2  655   1.595   0.304   0.826
  213SOL     OW  656   0.039   1.077   0.300
  213SOL    HW1  657   0.138   1.066   0.291
  213SOL    HW2  658  -0.001   0.991   0.332
  214SOL     OW  659   0.875   1.646   0.337
  214SOL    HW1  660   0.798   1.611   0.283
  214SOL    HW2  661   0.843   1.717   0.399
  215SOL     OW  662   0.230   0.628   1.975
  215SOL    HW1  663   0.137   0.626   2.012
  215SOL    HW2  664   0.231   0.589   1.883
  216SOL     OW  665   0.225   0.275   2.858
  216SOL    HW1  666   0.260   0.258   2.950
  216SOL    HW2  667   0.137   0.230   2.846
  217SOL     OW  668   0.019   0.368   2.509
  217SOL    HW1  669  -0.063   0.411   2.548
  217SOL    HW2  670  -0.009   0.295   2.446
  218SOL     OW  671   0.569   1.275   3.027
  218SOL    HW1  672   0.476   1.268   2.990
  218SOL    HW2  673   0.580   1.364   3.071
  219SOL     OW  674   1.555   1.511   2.565
  219SOL    HW1  675   1.498   1.495   2.646
  219SOL    HW2  676   1.496   1.521   2.485
  220SOL     OW  677   1.135   0.703   2.579
  220SOL    HW1  678   1.192   0.781   2.554
  220SOL    HW2  679   1.075   0.729   2.655
  221SOL     OW  680   1.755   0.607   2.093
  221SOL    HW1  681   1.743   0.594   1.994
  221SOL    HW2  682   1.725   0.526   2.142
  222SOL     OW  683   0.768   1.144   2.885
  222SOL    HW1  684   0.690   1.161   2.945
  222SOL    HW2  685   0.802   1.231   2.849
  223SOL     OW  686   0.850   0.798   3.685
  223SOL    HW1  687   0.846   0.874   3.750
  223SOL    HW2  688   0.872   0.834   3.594
  224SOL     OW  689   0.685   1.012   2.527
  224SOL    HW1  690   0.754   0.996   2.597
  224SOL    HW2  691   0.612   1.069   2.565
  225SOL     OW  692   0.686   1.161   3.665
  225SOL    HW1  693   0.746   1.240   3.679
  225SOL    HW2  694   0.600   1.192   3.624
  226SOL     OW  695   0.335   1.435   2.923
  226SOL    HW1  696   0.257   1.404   2.870
  226SOL    HW2  697   0.393   1.493   2.866
  227SOL     OW  698   1.460   1.505   3.201
  227SOL    HW1  699   1.484   1.599   3.227
  227SOL    HW2  700   1.444   1.451   3.283
  228SOL     OW  701   0.438   0.392   3.361
  228SOL    HW1  702   0.520   0.336   3.370
  228SOL    HW2  703   0.357   0.334   3.365
  229SOL     OW  704   1.603   0.447   2.599
  229SOL    HW1  705   1.529   0.493   2.549
  229SOL    HW2  706   1.654   0.515   2.652
  230SOL     OW  707   0.231   1.713   2.345
  230SOL    HW1  708   0.265   1.790   2.399
  230SOL    HW2  709   0.275   1.713   2.255
  231SOL     OW  710   1.127   1.341   3.552
  231SOL    HW1  711   1.174   1.341   3.640
  231SOL    HW2  712   1.079   1.254   3.541
  232SOL     OW  713   0.230   1.434   2.400
  232SOL    HW1  714   0.204   1.530   2.400
  232SOL    HW2  715   0.159   1.380   2.445
  233SOL     OW  716   0.240   1.091   2.748
  233SOL    HW1  717   0.254   1.007   2.800
  233SOL    HW2  718   0.185   1.155   2.803
  234SOL     OW  719   0.620   1.786   3.301
  234SOL    HW1  720   0.528   1.769   3.336
  234SOL    HW2  721   0.648   1.878   3.327
  235SOL     OW  722   0.606   0.964   1.985
  235SOL    HW1  723   0.613   1.048   1.931
  235SOL    HW2  724   0.652   0.977   2.073
  236SOL     OW  725   1.594   0.114   3.342
  236SOL    HW1  726   1.576   0.181   3.270
  236SOL    HW2  727   1.591   0.160   3.431
  237SOL     OW  728   0.122   0.643   2.425
  237SOL    HW1  729   0.077   0.555   2.442
  237SOL    HW2  730   0.121   0.697   2.509
  238SOL     OW  731   1.842   1.767   2.221
  238SOL    HW1  732   1.896   1.738   2.301
  238SOL    HW2  733   1.872   1.857   2.192
  239SOL     OW  734   0.027   1.596   1.979
  239SOL    HW1  735   0.008   1.500   2.000
  239SOL    HW2  736  -0.006   1.654   2.054
  240SOL     OW  737   1.689   0.922   2.474
  240SOL    HW1  738   1.784   0.893   2.482
  240SOL    HW2  739   1.681   0.987   2.399
  241SOL     OW  740   1.641   1.108   2.294
  241SOL    HW1  741   1.727   1.110   2.242
  241SOL    HW2  742   1.655   1.155   2.382
  242SOL     OW  743   0.113   0.737   3.459
  242SOL    HW1  744   0.201   0.724   3.504
  242SOL    HW2  745   0.100   0.834   3.437
  243SOL     OW  746   0.613   1.365   2.588
  243SOL    HW1  747   0.564   1.278   2.597
  243SOL    HW2  748   0.590   1.408   2.501
  244SOL     OW  749   1.293   1.228   3.285
  244SOL    HW1  750   1.330   1.155   3.227
  244SOL    HW2  751   1.345   1.233   3.370
  245SOL     OW  752   0.809   0.004   2.364
  245SOL    HW1  753   0.849   0.095   2.355
  245SOL    HW2  754   0.709   0.012   2.370
  246SOL     OW  755   0.197   0.976   3.126
  246SOL    HW1  756   0.286   0.931   3.112
  246SOL    HW2  757   0.124   0.911   3.107
  247SOL     OW  758   1.525   0.999   2.052
  247SOL    HW1  759   1.462   0.923   2.065
  247SOL    HW2  760   1.573   1.017   2.138
  248SOL     OW  761   1.187   1.792   3.478
  248SOL    HW1  762   1.211   1.852   3.402
  248SOL    HW2  763   1.194   1.697   3.448
  249SOL     OW  764   0.317   0.251   3.663
  249SOL    HW1  765   0.388   0.322   3.669
  249SOL    HW2  766   0.229   0.290   3.691
  250SOL     OW  767   1.466   1.417   2.815
  250SOL    HW1  768   1.407   1.423   2.895
  250SOL    HW2  769   1.451   1.329   2.769
  251SOL     OW  770   1.667   1.714   2.434
  251SOL    HW1  771   1.626   1.691   2.346
  251SOL    HW2  772   1.649   1.640   2.499
  252SOL     OW  773   0.598   0.729   2.132
  252SOL    HW1  774   0.622   0.798   2.064
  252SOL    HW2  775   0.520   0.762   2.186
  253SOL     OW  776   1.281   0.345   2.806
  253SOL    HW1  777   1.195   0.295   2.793
  253SOL    HW2  778   1.343   0.291   2.862
  254SOL     OW  779   1.576   1.662   2.169
  254SOL    HW1  780   1.665   1.708   2.172
  254SOL    HW2  781   1.555   1.638   2.074
  255SOL     OW  782   0.807   0.605   3.327
  255SOL    HW1  783   0.760   0.602   3.416
  255SOL    HW2  784   0.756   0.550   3.261
  256SOL     OW  785   1.394   0.469   3.536
  256SOL    HW1  786   1.374   0.512   3.624
  256SOL    HW2  787   1.472   0.407   3.545
  257SOL     OW  788   0.973   0.890   3.434
  257SOL    HW1  789   1.019   0.806   3.405
  257SOL    HW2  790   0.917   0.924   3.359
  258SOL     OW  791   0.991   0.410   3.104
  258SOL    HW1  792   0.914   0.444   3.158
  258SOL    HW2  793   0.957   0.359   3.025
  259SOL     OW  794   1.041   0.701   2.291
  259SOL    HW1  795   1.067   0.697   2.387
  259SOL    HW2  796   0.956   0.650   2.277
  260SOL     OW  797   0.076   0.811   2.651
  260SOL    HW1  798   0.175   0.799   2.660
  260SOL    HW2  799   0.052   0.906   2.672
  261SOL     OW  800   0.130   1.821   3.433
  261SOL    HW1  801   0.120   1.806   3.532
  261SOL    HW2  802   0.044   1.857   3.397
  262SOL     OW  803   0.865   0.348   2.057
  262SOL    HW1  804   0.924   0.411   2.008
  262SOL    HW2  805   0.884   0.254   2.028
  263SOL     OW  806   1.719   0.585   3.693
  263SOL    HW1  807   1.693   0.674   3.657
  263SOL    HW2  808   1.717   0.517   3.620
  264SOL     OW  809   1.362   1.144   2.407
  264SOL    HW1  810   1.445   1.115   2.359
  264SOL    HW2  811   1.313   1.211   2.351
  265SOL     OW  812   0.550   0.196   2.747
  265SOL    HW1  813   0.545   0.191   2.847
  265SOL    HW2  814   0.552   0.292   2.718
  266SOL     OW  815   1.008   1.456   2.339
  266SOL    HW1  816   0.962   1.528   2.287
  266SOL    HW2  817   1.004   1.476   2.437
  267SOL     OW  818   0.351   1.801   2.715
  267SOL    HW1  819   0.401   1.715   2.721
  267SOL    HW2  820   0.416   1.878   2.712
  268SOL     OW  821   1.795   1.066   2.735
  268SOL    HW1  822   1.733   1.051   2.659
  268SOL    HW2  823   1.743   1.077   2.820
  269SOL     OW  824   1.227   1.550   3.368
  269SOL    HW1  825   1.233   1.473   3.432
  269SOL    HW2  826   1.175   1.524   3.288
  270SOL     OW  827   0.321   0.943   2.104
  270SOL    HW1  828   0.403   0.982   2.062
  270SOL    HW2  829   0.294   0.861   2.055
  271SOL     OW  830   1.458   0.735   2.590
  271SOL    HW1  831   1.453   0.670   2.665
  271SOL    HW2  832   1.538   0.794   2.603
  272SOL     OW  833   0.461   1.266   3.589
  272SOL    HW1  834   0.411   1.267   3.503
  272SOL    HW2  835   0.398   1.248   3.665
  273SOL     OW  836   1.111   1.776   2.099
  273SOL    HW1  837   1.051   1.714   2.149
  273SOL    HW2  838   1.142   1.732   2.014
  274SOL     OW  839   0.202   0.285   3.360
  274SOL    HW1  840   0.122   0.345   3.347
  274SOL    HW2  841   0.192   0.236   3.446
  275SOL     OW  842   1.632   1.377   1.943
  275SOL    HW1  843   1.600   1.471   1.933
  275SOL    HW2  844   1.556   1.314   1.931
  276SOL     OW  845   0.464   1.743   2.185
  276SOL    HW1  846   0.497   1.782   2.271
  276SOL    HW2  847   0.540   1.736   2.120
  277SOL     OW  848   1.400   0.107   2.288
  277SOL    HW1  849   1.376   0.070   2.198
  277SOL    HW2  850   1.499   0.123   2.292
  278SOL     OW  851   0.249   1.785   3.103
  278SOL    HW1  852   0.306   1.720   3.153
  278SOL    HW2  853   0.233   1.752   3.010
  279SOL     OW  854   0.940   1.698   2.766
  279SOL    HW1  855   1.020   1.641   2.787
  279SOL    HW2  856   0.891   1.658   2.689
  280SOL     OW  857   0.382   0.700   2.342
  280SOL    HW1  858   0.427   0.610   2.339
  280SOL    HW2  859   0.288   0.689   2.375
  281SOL     OW  860   1.547   0.222   3.591
  281SOL    HW1  861   1.542   0.259   3.683
  281SOL    HW2  862   1.475   0.153   3.579
  282SOL     OW  863   0.614   0.122   1.979
  282SOL    HW1  864   0.712   0.100   1.986
  282SOL    HW2  865   0.583   0.105   1.886
  283SOL     OW  866   0.781   0.264   3.611
  283SOL    HW1  867   0.848   0.203   3.654
  283SOL    HW2  868   0.708   0.283   3.676
  284SOL     OW  869   0.888   1.514   3.057
  284SOL    HW1  870   0.865   1.489   2.963
  284SOL    HW2  871   0.949   1.445   3.096
  285SOL     OW  872   1.351   0.590   3.295
  285SOL    HW1  873   1.379   0.547   3.380
  285SOL    HW2  874   1.376   0.686   3.296
  286SOL     OW  875   0.803   1.402   2.786
  286SOL    HW1  876   0.893   1.416   2.744
  286SOL    HW2  877   0.732   1.404   2.715
  287SOL     OW  878   0.922   0.503   2.761
  287SOL    HW1  879   0.897   0.494   2.665
  287SOL    HW2  880   0.970   0.421   2.792
  288SOL     OW  881   0.539   0.064   2.374
  288SOL    HW1  882   0.458   0.065   2.432
  288SOL    HW2  883   0.542   0.147   2.319
  289SOL     OW  884   1.434   1.188   1.903
  289SOL    HW1  885   1.466   1.112   1.960
  289SOL    HW2  886   1.342   1.215   1.933
  290SOL     OW  887   0.297   0.035   2.033
  290SOL    HW1  888   0.346   0.119   2.012
  290SOL    HW2  889   0.359  -0.030   2.078
  291SOL     OW  890   0.935   0.236   2.342
  291SOL    HW1  891   0.887   0.277   2.264
  291SOL    HW2  892   1.034   0.234   2.323
  292SOL     OW  893   1.076   0.683   3.326
  292SOL    HW1  894   0.996   0.622   3.329
  292SOL    HW2  895   1.157   0.630   3.302
  293SOL     OW  896   1.227   1.570   2.655
  293SOL    HW1  897   1.248   1.644   2.590
  293SOL    HW2  898   1.295   1.570   2.728
  294SOL     OW  899   0.459   1.152   2.603
  294SOL    HW1  900   0.388   1.125   2.668
  294SOL    HW2  901   0.433   1.124   2.510
  295SOL     OW  902   1.271   1.797   2.453
  295SOL    HW1  903   1.315   1.861   2.389
  295SOL    HW2  904   1.221   1.849   2.523
  296SOL     OW  905   1.032   0.549   1.878
  296SOL    HW1  906   0.991   0.631   1.839
  296SOL    HW2  907   1.096   0.575   1.951
  297SOL     OW  908   0.078   0.556   3.248
  297SOL    HW1  909   0.170   0.555   3.207
  297SOL    HW2  910   0.072   0.630   3.315
  298SOL     OW  911   0.561   0.222   3.009
  298SOL    HW1  912   0.599   0.138   3.046
  298SOL    HW2  913   0.473   0.241   3.053
  299SOL     OW  914   0.866   0.454   2.504
  299SOL    HW1  915   0.834   0.526   2.442
  299SOL    HW2  916   0.890   0.373   2.451
  300SOL     OW  917   1.017   0.039   2.615
  300SOL    HW1  918   0.945   0.044   2.546
  300SOL    HW2  919   0.993  -0.030   2.684
  301SOL     OW  920   1.429   1.173   2.729
  301SOL    HW1  921   1.374   1.089   2.722
  301SOL    HW2  922   1.455   1.202   2.637
  302SOL     OW  923   1.466   0.590   2.854
  302SOL    HW1  924   1.436   0.495   2.861
  302SOL    HW2  925   1.539   0.606   2.920
  303SOL     OW  926   1.857   0.833   2.239
  303SOL    HW1  927   1.899   0.769   2.303
  303SOL    HW2  928   1.819   0.782   2.161
  304SOL     OW  929   0.488   1.385   2.036
  304SOL    HW1  930   0.401   1.370   2.083
  304SOL    HW2  931   0.471   1.411   1.941
  305SOL     OW  932   1.664   1.280   2.519
  305SOL    HW1  933   1.763   1.288   2.533
  305SOL    HW2  934   1.619   1.364   2.550
  306SOL     OW  935   1.390   0.575   1.940
  306SOL    HW1  936   1.336   0.554   2.021
  306SOL    HW2  937   1.481   0.534   1.949
  307SOL     OW  938   0.527   0.256   2.190
  307SOL    HW1  939   0.554   0.197   2.115
  307SOL    HW2  940   0.527   0.351   2.159
  308SOL     OW  941   1.754   1.223   3.450
  308SOL    HW1  942   1.845   1.184   3.437
  308SOL    HW2  943   1.762   1.319   3.474
  309SOL     OW  944   1.064   1.347   3.202
  309SOL    HW1  945   0.984   1.324   3.257
  309SOL    HW2  946   1.147   1.321   3.251
  310SOL     OW  947   1.592   1.629   3.487
  310SOL    HW1  948   1.619   1.663   3.397
  310SOL    HW2  949   1.671   1.591   3.533
  311SOL     OW  950   1.111   1.195   2.962
  311SOL    HW1  951   1.071   1.239   3.043
  311SOL    HW2  952   1.070   1.232   2.879
  312SOL     OW  953   1.638   1.099   2.941
  312SOL    HW1  954   1.643   1.180   3.000
  312SOL    HW2  955   1.552   1.101   2.890
  313SOL     OW  956   0.915   0.089   3.264
  313SOL    HW1  957   0.940   0.069   3.169
  313SOL    HW2  958   0.987   0.145   3.306
  314SOL     OW  959   0.980   1.116   3.581
  314SOL    HW1  960   0.881   1.122   3.591
  314SOL    HW2  961   1.003   1.036   3.525
  315SOL     OW  962   0.705   1.050   2.230
  315SOL    HW1  963   0.691   1.057   2.329
  315SOL    HW2  964   0.789   0.999   2.212
  316SOL     OW  965   0.410   0.813   3.113
  316SOL    HW1  966   0.496   0.825   3.163
  316SOL    HW2  967   0.368   0.726   3.140
  317SOL     OW  968   1.274   0.386   3.124
  317SOL    HW1  969   1.295   0.460   3.188
  317SOL    HW2  970   1.185   0.403   3.081
  318SOL     OW  971   0.064   1.564   3.193
  318SOL    HW1  972   0.018   1.646   3.159
  318SOL    HW2  973   0.162   1.583   3.202
  319SOL     OW  974   0.367   1.100   2.363
  319SOL    HW1  975   0.360   1.183   2.307
  319SOL    HW2  976   0.371   1.020   2.303
  320SOL     OW  977   0.566   0.537   2.727
  320SOL    HW1  978   0.578   0.603   2.653
  320SOL    HW2  979   0.612   0.571   2.810
  321SOL     OW  980   1.252   1.348   2.250
  321SOL    HW1  981   1.302   1.425   2.290
  321SOL    HW2  982   1.157   1.350   2.282
  322SOL     OW  983   1.272   1.445   3.004
  322SOL    HW1  984   1.319   1.458   3.091
  322SOL    HW2  985   1.206   1.371   3.013
  323SOL     OW  986   1.582   0.639   2.334
  323SOL    HW1  987   1.551   0.700   2.407
  323SOL    HW2  988   1.632   0.691   2.265
  324SOL     OW  989   0.354   1.510   3.191
  324SOL    HW1  990   0.333   1.466   3.104
  324SOL    HW2  991   0.451   1.536   3.194
  325SOL     OW  992   0.402   0.751   3.460
  325SOL    HW1  993   0.470   0.806   3.413
  325SOL    HW2  994   0.442   0.663   3.487
  326SOL     OW  995   1.587   0.779   3.532
  326SOL    HW1  996   1.495   0.817   3.527
  326SOL    HW2  997   1.647   0.826   3.467
  327SOL     OW  998   1.013   0.105   3.632
  327SOL    HW1  999   1.019   0.190   3.580
  327SOL    HW2 1000   1.045   0.029   3.575
  328SOL     OW 1001   0.504   0.050   3.602
  328SOL    HW1 1002   0.462  -0.007   3.532
  328SOL    HW2 1003   0.438   0.119   3.634
  329SOL     OW 1004   0.573   0.870   2.891
  329SOL    HW1 1005   0.617   0.959   2.882
  329SOL    HW2 1006   0.510   0.870   2.968
  330SOL     OW 1007   1.360   0.862   2.907
  330SOL    HW1 1008   1.285   0.862   2.841
  330SOL    HW2 1009   1.397   0.770   2.916
  331SOL     OW 1010   1.209   0.525   2.137
  331SOL    HW1 1011   1.222   0.441   2.191
  331SOL    HW2 1012   1.180   0.599   2.197
  332SOL     OW 1013   0.307   0.213   3.093
  332SOL    HW1 1014   0.284   0.250   3.183
  332SOL    HW2 1015   0.277   0.118   3.087
  333SOL     OW 1016   0.037   1.310   3.144
  333SOL    HW1 1017   0.090   1.261   3.212
  333SOL    HW2 1018   0.059   1.408   3.149
  334SOL     OW 1019   0.732   0.634   2.926
  334SOL    HW1 1020   0.791   0.608   2.850
  334SOL    HW2 1021   0.704   0.730   2.915
  335SOL     OW 1022   1.728   0.935   3.716
  335SOL    HW1 1023   1.682   0.928   3.627
  335SOL    HW2 1024   1.666   0.979   3.782
  336SOL     OW 1025   0.307   0.063   2.480
  336SOL    HW1 1026   0.296   0.157   2.513
  336SOL    HW2 1027   0.302   0.000   2.557
  337SOL     OW 1028   1.622   0.367   2.236
  337SOL    HW1 1029   1.624   0.291   2.300
  337SOL    HW2 1030   1.574   0.444   2.276
  338SOL     OW 1031   1.023   0.766   2.828
  338SOL    HW1 1032   1.038   0.787   2.924
  338SOL    HW2 1033   0.993   0.671   2.819
  339SOL     OW 1034   0.980   1.573   3.562
  339SOL    HW1 1035   0.960   1.617   3.474
  339SOL    HW2 1036   1.019   1.482   3.546
  340SOL     OW 1037   1.859   1.518   3.467
  340SOL    HW1 1038   1.873   1.545   3.372
  340SOL    HW2 1039   1.942   1.540   3.520
  341SOL     OW 1040   0.350   0.898   3.666
  341SOL    HW1 1041   0.426   0.942   3.714
  341SOL    HW2 1042   0.385   0.851   3.584
  342SOL     OW 1043   1.540   0.274   1.987
  342SOL    HW1 1044   1.479   0.199   2.010
  342SOL    HW2 1045   1.562   0.326   2.070
  343SOL     OW 1046   1.303   0.838   1.904
  343SOL    HW1 1047   1.337   0.745   1.919
  343SOL    HW2 1048   1.321   0.865   1.809
  344SOL     OW 1049   1.068   1.333   2.711
  344SOL    HW1 1050   1.075   1.249   2.656
  344SOL    HW2 1051   1.130   1.402   2.675
  345SOL     OW 1052   0.319   0.810   2.811
  345SOL    HW1 1053   0.412   0.846   2.816
  345SOL    HW2 1054   0.313   0.725   2.863
  346SOL     OW 1055   0.339   0.509   2.868
  346SOL    HW1 1056   0.287   0.426   2.851
  346SOL    HW2 1057   0.416   0.514   2.804
  347SOL     OW 1058   1.138   0.380   3.540
  347SOL    HW1 1059   1.093   0.443   3.604
  347SOL    HW2 1060   1.231   0.411   3.523
  348SOL     OW 1061   1.160   0.207   3.339
  348SOL    HW1 1062   1.160   0.271   3.416
  348SOL    HW2 1063   1.188   0.255   3.256
  349SOL     OW 1064   0.008   1.326   2.062
  349SOL    HW1 1065  -0.085   1.347   2.031
  349SOL    HW2 1066   0.018   1.227   2.075
  350SOL     OW 1067   0.088   1.801   2.789
  350SOL    HW1 1068   0.046   1.715   2.762
  350SOL    HW2 1069   0.182   1.804   2.755
  351SOL     OW 1070   0.504   1.568   2.772
  351SOL    HW1 1071   0.570   1.642   2.781
  351SOL    HW2 1072   0.548   1.489   2.730
  352SOL     OW 1073   1.002   0.796   3.100
  352SOL    HW1 1074   1.043   0.764   3.186
  352SOL    HW2 1075   0.906   0.769   3.097
  353SOL     OW 1076   0.040   0.544   2.976
  353SOL    HW1 1077   0.125   0.511   2.935
  353SOL    HW2 1078   0.053   0.559   3.074
  354SOL     OW 1079   0.189   0.520   3.584
  354SOL    HW1 1080   0.248   0.480   3.514
  354SOL    HW2 1081   0.131   0.591   3.543
  355SOL     OW 1082   1.369   0.950   3.522
  355SOL    HW1 1083   1.408   1.039   3.542
  355SOL    HW2 1084   1.379   0.930   3.425
  356SOL     OW 1085   0.815   0.572   2.187
  356SOL    HW1 1086   0.822   0.483   2.141
  356SOL    HW2 1087   0.721   0.606   2.179
  357SOL     OW 1088   1.657   0.604   3.068
  357SOL    HW1 1089   1.619   0.535   3.130
  357SOL    HW2 1090   1.739   0.568   3.024
  358SOL     OW 1091   0.252   1.564   3.606
  358SOL    HW1 1092   0.222   1.621   3.682
  358SOL    HW2 1093   0.245   1.467   3.632
  359SOL     OW 1094   0.671   0.464   3.131
  359SOL    HW1 1095   0.637   0.375   3.101
  359SOL    HW2 1096   0.697   0.518   3.051
  360SOL     OW 1097   0.930   1.678   3.327
  360SOL    HW1 1098   0.906   1.660   3.232
  360SOL    HW2 1099   0.960   1.772   3.337
  361SOL     OW 1100   0.473   0.500   2.053
  361SOL    HW1 1101   0.534   0.580   2.057
  361SOL    HW2 1102   0.378   0.531   2.060
  362SOL     OW 1103   0.159   1.137   3.328
  362SOL    HW1 1104   0.181   1.076   3.404
  362SOL    HW2 1105   0.169   1.088   3.242
  363SOL     OW 1106   1.347   1.059   3.096
  363SOL    HW1 1107   1.371   0.996   3.022
  363SOL    HW2 1108   1.257   1.099   3.078
  364SOL     OW 1109   1.302   0.855   2.171
  364SOL    HW1 1110   1.216   0.824   2.213
  364SOL    HW2 1111   1.298   0.841   2.072
  365SOL     OW 1112   1.759   1.747   3.016
  365SOL    HW1 1113   1.820   1.777   2.943
  365SOL    HW2 1114   1.721   1.658   2.994
  366SOL     OW 1115   1.252   1.731   2.990
  366SOL    HW1 1116   1.336   1.736   2.936
  366SOL    HW2 1117   1.229   1.635   3.008
  367SOL     OW 1118   0.083   1.258   2.884
  367SOL    HW1 1119   0.078   1.257   2.984
  367SOL    HW2 1120   0.000   1.217   2.846
  368SOL     OW 1121   0.688   1.662   3.578
  368SOL    HW1 1122   0.632   1.743   3.587
  368SOL    HW2 1123   0.740   1.666   3.492
  369SOL     OW 1124   1.726   0.135   2.385
  369SOL    HW1 1125   1.799   0.118   2.318
  369SOL    HW2 1126   1.695   0.048   2.423
  370SOL     OW 1127   1.388   1.573   2.339
  370SOL    HW1 1128   1.455   1.585   2.265
  370SOL    HW2 1129   1.348   1.662   2.362
  371SOL     OW 1130   0.130   1.794   3.713
  371SOL    HW1 1131   0.089   1.720   3.766
  371SOL    HW2 1132   0.194   1.845   3.771
  372SOL     OW 1133   1.280   0.927   2.534
  372SOL    HW1 1134   1.340   0.846   2.536
  372SOL    HW2 1135   1.320   0.996   2.474
  373SOL     OW 1136   0.830   1.273   3.284
  373SOL    HW1 1137   0.825   1.306   3.379
  373SOL    HW2 1138   0.744   1.292   3.238
  374SOL     OW 1139   0.672   1.616   2.016
  374SOL    HW1 1140   0.681   1.626   1.917
  374SOL    HW2 1141   0.632   1.527   2.037
  375SOL     OW 1142   1.650   1.720   3.256
  375SOL    HW1 1143   1.703   1.730   3.172
  375SOL    HW2 1144   1.623   1.810   3.290
  376SOL     OW 1145   1.841   0.175   2.825
  376SOL    HW1 1146   1.880   0.090   2.789
  376SOL    HW2 1147   1.743   0.177   2.806
  377SOL     OW 1148   0.263   0.326   2.582
  377SOL    HW1 1149   0.184   0.377   2.548
  377SOL    HW2 1150   0.254   0.311   2.680
  378SOL     OW 1151   1.194   1.612   1.893
  378SOL    HW1 1152   1.200   1.519   1.930
  378SOL    HW2 1153   1.135   1.612   1.813
  379SOL     OW 1154   0.822   1.002   3.234
  379SOL    HW1 1155   0.862   1.001   3.142
  379SOL    HW2 1156   0.832   1.094   3.274
  380SOL     OW 1157   0.916   0.910   2.153
  380SOL    HW1 1158   0.979   0.948   2.085
  380SOL    HW2 1159   0.956   0.827   2.192
  381SOL     OW 1160   1.504   1.607   1.906
  381SOL    HW1 1161   1.412   1.644   1.913
  381SOL    HW2 1162   1.542   1.627   1.816
  382SOL     OW 1163   0.372   1.288   3.352
  382SOL    HW1 1164   0.359   1.381   3.318
  382SOL    HW2 1165   0.288   1.236   3.339
  383SOL     OW 1166   1.614   1.292   3.151
  383SOL    HW1 1167   1.674   1.295   3.231
  383SOL    HW2 1168   1.539   1.356   3.164
  384SOL     OW 1169   1.039   1.098   2.558
  384SOL    HW1 1170   0.969   1.051   2.612
  384SOL    HW2 1171   1.098   1.030   2.515
  385SOL     OW 1172   1.014   0.236   2.833
  385SOL    HW1 1173   1.006   0.200   2.740
  385SOL    HW2 1174   1.012   0.160   2.898
  386SOL     OW 1175   0.590   1.487   2.353
  386SOL    HW1 1176   0.632   1.429   2.283
  386SOL    HW2 1177   0.546   1.566   2.309
  387SOL     OW 1178   1.709   0.385   3.243
  387SOL    HW1 1179   1.782   0.454   3.247
  387SOL    HW2 1180   1.737   0.310   3.184
  388SOL     OW 1181   0.255   1.348   2.152
  388SOL    HW1 1182   0.159   1.349   2.125
  388SOL    HW2 1183   0.267   1.401   2.236
  389SOL     OW 1184   0.105   1.013   3.588
  389SOL    HW1 1185   0.028   0.980   3.642
  389SOL    HW2 1186   0.190   0.983   3.630
  390SOL     OW 1187   0.672   0.203   3.351
  390SOL    HW1 1188   0.762   0.187   3.311
  390SOL    HW2 1189   0.680   0.208   3.450
  391SOL     OW 1190   0.075   0.345   1.895
  391SOL    HW1 1191  -0.017   0.317   1.866
  391SOL    HW2 1192   0.106   0.422   1.839
  392SOL     OW 1193   1.440   0.856   3.260
  392SOL    HW1 1194   1.383   0.908   3.197
  392SOL    HW2 1195   1.536   0.868   3.236
  393SOL     OW 1196   0.072   0.166   2.180
  393SOL    HW1 1197   0.055   0.249   2.126
  393SOL    HW2 1198   0.162   0.129   2.158
  394SOL     OW 1199   1.183   1.335   1.981
  394SOL    HW1 1200   1.084   1.324   1.983
  394SOL    HW2 1201   1.217   1.350   2.074
  395SOL     OW 1202   0.613   0.842   3.293
  395SOL    HW1 1203   0.669   0.923   3.276
  395SOL    HW2 1204   0.672   0.762   3.296
  396SOL     OW 1205   1.493   1.767   2.821
  396SOL    HW1 1206   1.526   1.831   2.752
  396SOL    HW2 1207   1.559   1.761   2.896
  397SOL     OW 1208   0.716   0.565   3.570
  397SOL    HW1 1209   0.735   0.630   3.644
  397SOL    HW2 1210   0.776   0.485   3.579
  398SOL     OW 1211   1.450   1.220   3.495
  398SOL    HW1 1212   1.441   1.210   3.594
  398SOL    HW2 1213   1.546   1.213   3.469
  399SOL     OW 1214   0.390   1.741   3.422
  399SOL    HW1 1215   0.299   1.782   3.420
  399SOL    HW2 1216   0.383   1.647   3.454
  400SOL     OW 1217   1.674   0.883   3.116
  400SOL    HW1 1218   1.647   0.794   3.079
  400SOL    HW2 1219   1.675   0.951   3.043
  401SOL     OW 1220   1.225   0.325   2.311
  401SOL    HW1 1221   1.290   0.251   2.300
  401SOL    HW2 1222   1.245   0.375   2.395
  402SOL     OW 1223   0.594   0.745   2.514
  402SOL    HW1 1224   0.644   0.830   2.495
  402SOL    HW2 1225   0.506   0.747   2.466
  403SOL     OW 1226   1.777   0.342   3.504
  403SOL    HW1 1227   1.760   0.373   3.410
  403SOL    HW2 1228   1.693   0.305   3.542
  404SOL     OW 1229   1.730   0.934   3.379
  404SOL    HW1 1230   1.768   1.025   3.394
  404SOL    HW2 1231   1.722   0.917   3.280
  405SOL     OW 1232   0.859   1.374   1.878
  405SOL    HW1 1233   0.813   1.389   1.966
  405SOL    HW2 1234   0.903   1.459   1.848
  406SOL     OW 1235   0.661   1.790   2.815
  406SOL    HW1 1236   0.615   1.878   2.802
  406SOL    HW2 1237   0.760   1.802   2.808
  407SOL     OW 1238   0.859   0.956   2.723
  407SOL    HW1 1239   0.913   0.887   2.771
  407SOL    HW2 1240   0.827   1.025   2.789
  408SOL     OW 1241   1.083   0.984   1.949
  408SOL    HW1 1242   1.060   1.037   1.867
  408SOL    HW2 1243   1.164   0.928   1.930
  409SOL     OW 1244   1.861   1.569   2.713
  409SOL    HW1 1245   1.790   1.557   2.643
  409SOL    HW2 1246   1.862   1.490   2.773
  410SOL     OW 1247   0.221   1.314   3.706
  410SOL    HW1 1248   0.156   1.241   3.685
  410SOL    HW2 1249   0.225   1.328   3.804
  411SOL     OW 1250   0.079   1.240   2.515
  411SOL    HW1 1251   0.078   1.193   2.603
  411SOL    HW2 1252   0.161   1.212   2.464
  412SOL     OW 1253   0.672   1.391   3.486
  412SOL    HW1 1254   0.594   1.341   3.524
  412SOL    HW2 1255   0.669   1.486   3.517
  413SOL     OW 1256   1.824   0.192   3.089
  413SOL    HW1 1257   1.820   0.102   3.133
  413SOL    HW2 1258   1.827   0.181   2.990
  414SOL     OW 1259   0.428   0.424   2.382
  414SOL    HW1 1260   0.458   0.352   2.320
  414SOL    HW2 1261   0.389   0.384   2.465
  415SOL     OW 1262   1.705   1.487   2.966
  415SOL    HW1 1263   1.612   1.462   2.939
  415SOL    HW2 1264   1.731   1.437   3.048
  416SOL     OW 1265   0.317   0.547   3.142
  416SOL    HW1 1266   0.355   0.488   3.214
  416SOL    HW2 1267   0.357   0.521   3.054
  417SOL     OW 1268   0.812   1.586   2.549
  417SOL    HW1 1269   0.844   1.596   2.455
  417SOL    HW2 1270   0.733   1.524   2.551
  418SOL     OW 1271   1.424   0.214   2.974
  418SOL    HW1 1272   1.476   0.149   3.029
  418SOL    HW2 1273   1.375   0.277   3.035
  419SOL     OW 1274   1.001   0.034   3.016
  419SOL    HW1 1275   0.938  -0.038   2.985
  419SOL    HW2 1276   1.094  -0.002   3.016
  420SOL     OW 1277   0.770   1.330   2.163
  420SOL    HW1 1278   0.724   1.243   2.180
  420SOL    HW2 1279   0.861   1.327   2.204
  421SOL     OW 1280   0.618   1.567   3.146
  421SOL    HW1 1281   0.613   1.649   3.203
  421SOL    HW2 1282   0.707   1.564   3.101
  422SOL     OW 1283   1.352   0.052   2.030
  422SOL    HW1 1284   1.387   0.011   1.946
  422SOL    HW2 1285   1.262   0.014   2.050
  423SOL     OW 1286   1.300   0.453   2.553
  423SOL    HW1 1287   1.241   0.533   2.557
  423SOL    HW2 1288   1.315   0.418   2.646
  424SOL     OW 1289   1.593   0.221   2.744
  424SOL    HW1 1290   1.509   0.220   2.798
  424SOL    HW2 1291   1.595   0.304   2.688
  425SOL     OW 1292   0.039   1.077   2.162
  425SOL    HW1 1293   0.138   1.066   2.153
  425SOL    HW2 1294  -0.001   0.991   2.194
  426SOL     OW 1295   0.875   1.646   2.199
  426SOL    HW1 1296   0.798   1.611   2.145
  426SOL    HW2 1297   0.843   1.717   2.261
  427SOL     OW 1298   0.230   0.628   3.837
  427SOL    HW1 1299   0.137   0.626   3.874
  427SOL    HW2 1300   0.231   0.589   3.745
  428SOL     OW 1301   0.225   0.275   4.720
  428SOL    HW1 1302   0.260   0.258   4.812
  428SOL    HW2 1303   0.137   0.230   4.708
  429SOL     OW 1304   0.019   0.368   4.371
  429SOL    HW1 1305  -0.063   0.411   4.410
  429SOL    HW2 1306  -0.009   0.295   4.308
  430SOL     OW 1307   1.555   1.511   4.427
  430SOL    HW1 1308   1.498   1.495   4.508
  430SOL    HW2 1309   1.496   1.521   4.347
  431SOL     OW 1310   1.135   0.703   4.441
  431SOL    HW1 1311   1.192   0.781   4.416
  431SOL    HW2 1312   1.075   0.729   4.517
  432SOL     OW 1313   1.755   0.607   3.955
  432SOL    HW1 1314   1.743   0.594   3.856
  432SOL    HW2 1315   1.725   0.526   4.004
  433SOL     OW 1316   0.768   1.144   4.747
  433SOL    HW1 1317   0.690   1.161   4.807
  433SOL    HW2 1318   0.802   1.231   4.711
  434SOL     OW 1319   0.685   1.012   4.389
  434SOL    HW1 1320   0.754   0.996   4.459
  434SOL    HW2 1321   0.612   1.069   4.427
  435SOL     OW 1322   0.335   1.435   4.785
  435SOL    HW1 1323   0.257   1.404   4.732
  435SOL    HW2 1324   0.393   1.493   4.728
  436SOL     OW 1325   1.603   0.447   4.461
  436SOL    HW1 1326   1.529   0.493   4.411
  436SOL    HW2 1327   1.654   0.515   4.514
  437SOL     OW 1328   0.231   1.713   4.207
  437SOL    HW1 1329   0.265   1.790   4.261
  437SOL    HW2 1330   0.275   1.713   4.117
  438SOL     OW 1331   0.230   1.434   4.262
  438SOL    HW1 1332   0.204   1.530   4.262
  438SOL    HW2 1333   0.159   1.380   4.307
  439SOL     OW 1334   0.240   1.091   4.610
  439SOL    HW1 1335   0.254   1.007   4.662
  439SOL    HW2 1336   0.185   1.155   4.665
  440SOL     OW 1337   0.606   0.964   3.847
  440SOL    HW1 1338   0.613   1.048   3.793
  440SOL    HW2 1339   0.652   0.977   3.935
  441SOL     OW 1340   0.122   0.643   4.287
  441SOL    HW1 1341   0.077   0.555   4.304
  441SOL    HW2 1342   0.121   0.697   4.371
  442SOL     OW 1343   1.842   1.767   4.083
  442SOL    HW1 1344   1.896   1.738   4.163
  442SOL    HW2 1345   1.872   1.857   4.054
  443SOL     OW 1346   0.027   1.596   3.841
  443SOL    HW1 1347   0.008   1.500   3.862
  443SOL    HW2 1348  -0.006   1.654   3.916
  444SOL     OW 1349   1.689   0.922   4.336
  444SOL    HW1 1350   1.784   0.893   4.344
  444SOL    HW2 1351   1.681   0.987   4.261
  445SOL     OW 1352   1.641   1.108   4.156
  445SOL    HW1 1353   1.727   1.110   4.104
  445SOL    HW2 1354   1.655   1.155   4.244
  446SOL     OW 1355   0.613   1.365   4.450
  446SOL    HW1 1356   0.564   1.278   4.459
  446SOL    HW2 1357   0.590   1.408   4.363
  447SOL     OW 1358   0.809   0.004   4.226
  447SOL    HW1 1359   0.849   0.095   4.217
  447SOL    HW2 1360   0.709   0.012   4.232
  448SOL     OW 1361   1.525   0.999   3.914
  448SOL    HW1 1362   1.462   0.923   3.927
  448SOL    HW2 1363   1.573   1.017   4.000
  449SOL     OW 1364   1.466   1.417   4.677
  449SOL    HW1 1365   1.407   1.423   4.757
  449SOL    HW2 1366   1.451   1.329   4.631
  450SOL     OW 1367   1.667   1.714   4.296
  450SOL    HW1 1368   1.626   1.691   4.208
  450SOL    HW2 1369   1.649   1.640   4.361
  451SOL     OW 1370   0.598   0.729   3.994
  451SOL    HW1 1371   0.622   0.798   3.926
  451SOL    HW2 1372   0.520   0.762   4.048
  452SOL     OW 1373   1.281   0.345   4.668
  452SOL    HW1 1374   1.195   0.295   4.655
  452SOL    HW2 1375   1.343   0.291   4.724
  453SOL     OW 1376   1.576   1.662   4.031
  453SOL    HW1 1377   1.665   1.708   4.034
  453SOL    HW2 1378   1.555   1.638   3.936
  454SOL     OW 1379   1.041   0.701   4.153
  454SOL    HW1 1380   1.067   0.697   4.249
  454SOL    HW2 1381   0.956   0.650   4.139
  455SOL     OW 1382   0.076   0.811   4.513
  455SOL    HW1 1383   0.175   0.799   4.522
  455SOL    HW2 1384   0.052   0.906   4.534
  456SOL     OW 1385   0.865   0.348   3.919
  456SOL    HW1 1386   0.924   0.411   3.870
  456SOL    HW2 1387   0.884   0.254   3.890
  457SOL     OW 1388   1.362   1.144   4.269
  457SOL    HW1 1389   1.445   1.115   4.221
  457SOL    HW2 1390   1.313   1.211   4.213
  458SOL     OW 1391   0.550   0.196   4.609
  458SOL    HW1 1392   0.545   0.191   4.709
  458SOL    HW2 1393   0.552   0.292   4.580
  459SOL     OW 1394   1.008   1.456   4.201
  459SOL    HW1 1395   0.962   1.528   4.149
  459SOL    HW2 1396   1.004   1.476   4.299
  460SOL     OW 1397   0.351   1.801   4.577
  460SOL    HW1 1398   0.401   1.715   4.583
  460SOL    HW2 1399   0.416   1.878   4.574
  461SOL     OW 1400   1.795   1.066   4.597
  461SOL    HW1 1401   1.733   1.051   4.521
  461SOL    HW2 1402   1.743   1.077   4.682
  462SOL     OW 1403   0.321   0.943   3.966
  462SOL    HW1 1404   0.403   0.982   3.924
  462SOL    HW2 1405   0.294   0.861   3.917
  463SOL     OW 1406   1.458   0.735   4.452
  463SOL    HW1 1407   1.453   0.670   4.527
  463SOL    HW2 1408   1.538   0.794   4.465
  464SOL     OW 1409   1.111   1.776   3.961
  464SOL    HW1 1410   1.051   1.714   4.011
  464SOL    HW2 1411   1.142   1.732   3.876
  465SOL     OW 1412   1.632   1.377   3.805
  465SOL    HW1 1413   1.600   1.471   3.795
  465SOL    HW2 1414   1.556   1.314   3.793
  466SOL     OW 1415   0.464   1.743   4.047
  466SOL    HW1 1416   0.497   1.782   4.133
  466SOL    HW2 1417   0.540   1.736   3.982
  467SOL     OW 1418   1.400   0.107   4.150
  467SOL    HW1 1419   1.376   0.070   4.060
  467SOL    HW2 1420   1.499   0.123   4.154
  468SOL     OW 1421   0.249   1.785   4.965
  468SOL    HW1 1422   0.306   1.720   5.015
  468SOL    HW2 1423   0.233   1.752   4.872
  469SOL     OW 1424   0.940   1.698   4.628
  469SOL    HW1 1425   1.020   1.641   4.649
  469SOL    HW2 1426   0.891   1.658   4.551
  470SOL     OW 1427   0.382   0.700   4.204
  470SOL    HW1 1428   0.427   0.610   4.201
  470SOL    HW2 1429   0.288   0.689   4.237
  471SOL     OW 1430   0.614   0.122   3.841
  471SOL    HW1 1431   0.712   0.100   3.848
  471SOL    HW2 1432   0.583   0.105   3.748
  472SOL     OW 1433   0.803   1.402   4.648
  472SOL    HW1 1434   0.893   1.416   4.606
  472SOL    HW2 1435   0.732   1.404   4.577
  473SOL     OW 1436   0.922   0.503   4.623
  473SOL    HW1 1437   0.897   0.494   4.527
  473SOL    HW2 1438   0.970   0.421   4.654
  474SOL     OW 1439   0.539   0.064   4.236
  474SOL    HW1 1440   0.458   0.065   4.294
  474SOL    HW2 1441   0.542   0.147   4.181
  475SOL     OW 1442   1.434   1.188   3.765
  475SOL    HW1 1443   1.466   1.112   3.822
  475SOL    HW2 1444   1.342   1.215   3.795
  476SOL     OW 1445   0.297   0.035   3.895
  476SOL    HW1 1446   0.346   0.119   3.874
  476SOL    HW2 1447   0.359  -0.030   3.940
  477SOL     OW 1448   0.935   0.236   4.204
  477SOL    HW1 1449   0.887   0.277   4.126
  477SOL    HW2 1450   1.034   0.234   4.185
  478SOL     OW 1451   1.227   1.570   4.517
  478SOL    HW1 1452   1.248   1.644   4.452
  478SOL    HW2 1453   1.295   1.570   4.590
  479SOL     OW 1454   0.459   1.152   4.465
  479SOL    HW1 1455   0.388   1.125   4.530
  479SOL    HW2 1456   0.433   1.124   4.372
  480SOL     OW 1457   1.271   1.797   4.315
  480SOL    HW1 1458   1.315   1.861   4.251
  480SOL    HW2 1459   1.221   1.849   4.385
  481SOL     OW 1460   1.032   0.549   3.740
  481SOL    HW1 1461   0.991   0.631   3.701
  481SOL    HW2 1462   1.096   0.575   3.813
  482SOL     OW 1463   0.866   0.454   4.366
  482SOL    HW1 1464   0.834   0.526   4.304
  482SOL    HW2 1465   0.890   0.373   4.313
  483SOL     OW 1466   1.017   0.039   4.477
  483SOL    HW1 1467   0.945   0.044   4.408
  483SOL    HW2 1468   0.993  -0.030   4.546
  484SOL     OW 1469   1.429   1.173   4.591
  484SOL    HW1 1470   1.374   1.089   4.584
  484SOL    HW2 1471   1.455   1.202   4.499
  485SOL     OW 1472   1.466   0.590   4.716
  485SOL    HW1 1473   1.436   0.495   4.723
  485SOL    HW2 1474   1.539   0.606   4.782
  486SOL     OW 1475   1.857   0.833   4.101
  486SOL    HW1 1476   1.899   0.769   4.165
  486SOL    HW2 1477   1.819   0.782   4.023
  487SOL     OW 1478   0.488   1.385   3.898
  487SOL    HW1 1479   0.401   1.370   3.945
  487SOL    HW2 1480   0.471   1.411   3.803
  488SOL     OW 1481   1.664   1.280   4.381
  488SOL    HW1 1482   1.763   1.288   4.395
  488SOL    HW2 1483   1.619   1.364   4.412
  489SOL     OW 1484   1.390   0.575   3.802
  489SOL    HW1 1485   1.336   0.554   3.883
  489SOL    HW2 1486   1.481   0.534   3.811
  490SOL     OW 1487   0.527   0.256   4.052
  490SOL    HW1 1488   0.554   0.197   3.977
  490SOL    HW2 1489   0.527   0.351   4.021
  491SOL     OW 1490   1.638   1.099   4.803
  491SOL    HW1 1491   1.643   1.180   4.862
  491SOL    HW2 1492   1.552   1.101   4.752
  492SOL     OW 1493   0.705   1.050   4.092
  492SOL    HW1 1494   0.691   1.057   4.191
  492SOL    HW2 1495   0.789   0.999   4.074
  493SOL     OW 1496   0.367   1.100   4.225
  493SOL    HW1 1497   0.360   1.183   4.169
  493SOL    HW2 1498   0.371   1.020   4.165
  494SOL     OW 1499   0.566   0.537   4.589
  494SOL    HW1 1500   0.578   0.603   4.515
  494SOL    HW2 1501   0.612   0.571   4.672
  495SOL     OW 1502   1.252   1.348   4.112
  495SOL    HW1 1503   1.302   1.425   4.152
  495SOL    HW2 1504   1.157   1.350   4.144
  496SOL     OW 1505   1.582   0.639   4.196
  496SOL    HW1 1506   1.551   0.700   4.269
  496SOL    HW2 1507   1.632   0.691   4.127
  497SOL     OW 1508   0.573   0.870   4.753
  497SOL    HW1 1509   0.617   0.959   4.744
  497SOL    HW2 1510   0.510   0.870   4.830
  498SOL     OW 1511   1.209   0.525   3.999
  498SOL    HW1 1512   1.222   0.441   4.053
  498SOL    HW2 1513   1.180   0.599   4.059
  499SOL     OW 1514   0.732   0.634   4.788
  499SOL    HW1 1515   0.791   0.608   4.712
  499SOL    HW2 1516   0.704   0.730   4.777
  500SOL     OW 1517   0.307   0.063   4.342
  500SOL    HW1 1518   0.296   0.157   4.375
  500SOL    HW2 1519   0.302   0.000   4.419
  501SOL     OW 1520   1.622   0.367   4.098
  501SOL    HW1 1521   1.624   0.291   4.162
  501SOL    HW2 1522   1.574   0.444   4.138
  502SOL     OW 1523   1.540   0.274   3.849
  502SOL    HW1 1524   1.479   0.199   3.872
  502SOL    HW2 1525   1.562   0.326   3.932
  503SOL     OW 1526   1.303   0.838   3.766
  503SOL    HW1 1527   1.337   0.745   3.781
  503SOL    HW2 1528   1.321   0.865   3.671
  504SOL     OW 1529   1.068   1.333   4.573
  504SOL    HW1 1530   1.075   1.249   4.518
  504SOL    HW2 1531   1.130   1.402   4.537
  505SOL     OW 1532   0.319   0.810   4.673
  505SOL    HW1 1533   0.412   0.846   4.678
  505SOL    HW2 1534   0.313   0.725   4.725
  506SOL     OW 1535   0.339   0.509   4.730
  506SOL    HW1 1536   0.287   0.426   4.713
  506SOL    HW2 1537   0.416   0.514   4.666
  507SOL     OW 1538   0.008   1.326   3.924
  507SOL    HW1 1539  -0.085   1.347   3.893
  507SOL    HW2 1540   0.018   1.227   3.937
  508SOL     OW 1541   0.088   1.801   4.651
  508SOL    HW1 1542   0.046   1.715   4.624
  508SOL    HW2 1543   0.182   1.804   4.617
  509SOL     OW 1544   0.504   1.568   4.634
  509SOL    HW1 1545   0.570   1.642   4.643
  509SOL    HW2 1546   0.548   1.489   4.592
  510SOL     OW 1547   1.002   0.796   4.962
  510SOL    HW1 1548   1.043   0.764   5.048
  510SOL    HW2 1549   0.906   0.769   4.959
  511SOL     OW 1550   0.815   0.572   4.049
  511SOL    HW1 1551   0.822   0.483   4.003
  511SOL    HW2 1552   0.721   0.606   4.041
  512SOL     OW 1553   0.671   0.464   4.993
  512SOL    HW1 1554   0.637   0.375   4.963
  512SOL    HW2 1555   0.697   0.518   4.913
  513SOL     OW 1556   0.473   0.500   3.915
  513SOL    HW1 1557   0.534   0.580   3.919
  513SOL    HW2 1558   0.378   0.531   3.922
  514SOL     OW 1559   1.302   0.855   4.033
  514SOL    HW1 1560   1.216   0.824   4.075
  514SOL    HW2 1561   1.298   0.841   3.934
  515SOL     OW 1562   1.759   1.747   4.878
  515SOL    HW1 1563   1.820   1.777   4.805
  515SOL    HW2 1564   1.721   1.658   4.856
  516SOL     OW 1565   0.083   1.258   4.746
  516SOL    HW1 1566   0.078   1.257   4.846
  516SOL    HW2 1567   0.000   1.217   4.708
  517SOL     OW 1568   1.726   0.135   4.247
  517SOL    HW1 1569   1.799   0.118   4.180
  517SOL    HW2 1570   1.695   0.048   4.285
  518SOL     OW 1571   1.388   1.573   4.201
  518SOL    HW1 1572   1.455   1.585   4.127
  518SOL    HW2 1573   1.348   1.662   4.224
  519SOL     OW 1574   1.280   0.927   4.396
  519SOL    HW1 1575   1.340   0.846   4.398
  519SOL    HW2 1576   1.320   0.996   4.336
  520SOL     OW 1577   0.672   1.616   3.878
  520SOL    HW1 1578   0.681   1.626   3.779
  520SOL    HW2 1579   0.632   1.527   3.899
  521SOL     OW 1580   1.841   0.175   4.687
  521SOL    HW1 1581   1.880   0.090   4.651
  521SOL    HW2 1582   1.743   0.177   4.668
  522SOL     OW 1583   0.263   0.326   4.444
  522SOL    HW1 1584   0.184   0.377   4.410
  522SOL    HW2 1585   0.254   0.311   4.542
  523SOL     OW 1586   1.194   1.612   3.755
  523SOL    HW1 1587   1.200   1.519   3.792
  523SOL    HW2 1588   1.135   1.612   3.675
  524SOL     OW 1589   0.916   0.910   4.015
  524SOL    HW1 1590   0.979   0.948   3.947
  524SOL    HW2 1591   0.956   0.827   4.054
  525SOL     OW 1592   1.504   1.607   3.768
  525SOL    HW1 1593   1.412   1.644   3.775
  525SOL    HW2 1594   1.542   1.627   3.678
  526SOL     OW 1595   1.039   1.098   4.420
  526SOL    HW1 1596   0.969   1.051   4.474
  526SOL    HW2 1597   1.098   1.030   4.377
  527SOL     OW 1598   0.590   1.487   4.215
  527SOL    HW1 1599   0.632   1.429   4.145
  527SOL    HW2 1600   0.546   1.566   4.171
  528SOL     OW 1601   0.255   1.348   4.014
  528SOL    HW1 1602   0.159   1.349   3.987
  528SOL    HW2 1603   0.267   1.401   4.098
  529SOL     OW 1604   0.075   0.345   3.757
  529SOL    HW1 1605  -0.017   0.317   3.728
  529SOL    HW2 1606   0.106   0.422   3.701
  530SOL     OW 1607   0.072   0.166   4.042
  530SOL    HW1 1608   0.055   0.249   3.988
  530SOL    HW2 1609   0.162   0.129   4.020
  531SOL     OW 1610   1.183   1.335   3.843
  531SOL    HW1 1611   1.084   1.324   3.845
  531SOL    HW2 1612   1.217   1.350   3.936
  532SOL     OW 1613   1.674   0.883   4.978
  532SOL    HW1 1614   1.647   0.794   4.941
  532SOL    HW2 1615   1.675   0.951   4.905
  533SOL     OW 1616   1.225   0.325   4.173
  533SOL    HW1 1617   1.290   0.251   4.162
  533SOL    HW2 1618   1.245   0.375   4.257
  534SOL     OW 1619   0.594   0.745   4.376
  534SOL    HW1 1620   0.644   0.830   4.357
  534SOL    HW2 1621   0.506   0.747   4.328
  535SOL     OW 1622   0.859   1.374   3.740
  535SOL    HW1 1623   0.813   1.389   3.828
  535SOL    HW2 1624   0.903   1.459   3.710
  536SOL     OW 1625   0.661   1.790   4.677
  536SOL    HW1 1626   0.615   1.878   4.664
  536SOL    HW2 1627   0.760   1.802   4.670
  537SOL     OW 1628   0.859   0.956   4.585
  537SOL    HW1 1629   0.913   0.887   4.633
  537SOL    HW2 1630   0.827   1.025   4.651
  538SOL     OW 1631   1.083   0.984   3.811
  538SOL    HW1 1632   1.060   1.037   3.729
  538SOL    HW2 1633   1.164   0.928   3.792
  539SOL     OW 1634   1.861   1.569   4.575
  539SOL    HW1 1635   1.790   1.557   4.505
  539SOL    HW2 1636   1.862   1.490   4.635
  540SOL     OW 1637   0.079   1.240   4.377
  540SOL    HW1 1638   0.078   1.193   4.465
  540SOL    HW2 1639   0.161   1.212   4.326
  541SOL     OW 1640   1.824   0.192   4.951
  541SOL    HW1 1641   1.820   0.102   4.995
  541SOL    HW2 1642   1.827   0.181   4.852
  542SOL     OW 1643   0.428   0.424   4.244
  542SOL    HW1 1644   0.458   0.352   4.182
  542SOL    HW2 1645   0.389   0.384   4.327
  543SOL     OW 1646   0.812   1.586   4.411
  543SOL    HW1 1647   0.844   1.596   4.317
  543SOL    HW2 1648   0.733   1.524   4.413
  544SOL     OW 1649   0.770   1.330   4.025
  544SOL    HW1 1650   0.724   1.243   4.042
  544SOL    HW2 1651   0.861   1.327   4.066
  545SOL     OW 1652   1.352   0.052   3.892
  545SOL    HW1 1653   1.387   0.011   3.808
  545SOL    HW2 1654   1.262   0.014   3.912
  546SOL     OW 1655   1.300   0.453   4.415
  546SOL    HW1 1656   1.241   0.533   4.419
  546SOL    HW2 1657   1.315   0.418   4.508
  547SOL     OW 1658   1.593   0.221   4.606
  547SOL    HW1 1659   1.509   0.220   4.660
  547SOL    HW2 1660   1.595   0.304   4.550
  548SOL     OW 1661   0.039   1.077   4.024
  548SOL    HW1 1662   0.138   1.066   4.015
  548SOL    HW2 1663  -0.001   0.991   4.056
  549SOL     OW 1664   0.875   1.646   4.061
  549SOL    HW1 1665   0.798   1.611   4.007
  549SOL    HW2 1666   0.843   1.717   4.123
  550SOL     OW 1667   0.230   2.490   0.113
  550SOL    HW1 1668   0.137   2.488   0.150
  550SOL    HW2 1669   0.231   2.451   0.021
  551SOL     OW 1670   0.225   2.137   0.996
  551SOL    HW1 1671   0.260   2.120   1.088
  551SOL    HW2 1672   0.137   2.092   0.984
  552SOL     OW 1673   0.019   2.230   0.647
  552SOL    HW1 1674  -0.063   2.273   0.686
  552SOL    HW2 1675  -0.009   2.157   0.584
  553SOL     OW 1676   0.569   3.137   1.165
  553SOL    HW1 1677   0.476   3.130   1.128
  553SOL    HW2 1678   0.580   3.226   1.209
  554SOL     OW 1679   1.555   3.373   0.703
  554SOL    HW1 1680   1.498   3.357   0.784
  554SOL    HW2 1681   1.496   3.383   0.623
  555SOL     OW 1682   1.135   2.565   0.717
  555SOL    HW1 1683   1.192   2.643   0.692
  555SOL    HW2 1684   1.075   2.591   0.793
  556SOL     OW 1685   1.755   2.469   0.231
  556SOL    HW1 1686   1.743   2.456   0.132
  556SOL    HW2 1687   1.725   2.388   0.280
  557SOL     OW 1688   0.768   3.006   1.023
  557SOL    HW1 1689   0.690   3.023   1.083
  557SOL    HW2 1690   0.802   3.093   0.987
  558SOL     OW 1691   0.850   2.660   1.823
  558SOL    HW1 1692   0.846   2.736   1.888
  558SOL    HW2 1693   0.872   2.696   1.732
  559SOL     OW 1694   0.685   2.874   0.665
  559SOL    HW1 1695   0.754   2.858   0.735
  559SOL    HW2 1696   0.612   2.931   0.703
  560SOL     OW 1697   0.686   3.023   1.803
  560SOL    HW1 1698   0.746   3.102   1.817
  560SOL    HW2 1699   0.600   3.054   1.762
  561SOL     OW 1700   0.335   3.297   1.061
  561SOL    HW1 1701   0.257   3.266   1.008
  561SOL    HW2 1702   0.393   3.355   1.004
  562SOL     OW 1703   1.460   3.367   1.339
  562SOL    HW1 1704   1.484   3.461   1.365
  562SOL    HW2 1705   1.444   3.313   1.421
  563SOL     OW 1706   0.438   2.254   1.499
  563SOL    HW1 1707   0.520   2.198   1.508
  563SOL    HW2 1708   0.357   2.196   1.503
  564SOL     OW 1709   1.603   2.309   0.737
  564SOL    HW1 1710   1.529   2.355   0.687
  564SOL    HW2 1711   1.654   2.377   0.790
  565SOL     OW 1712   0.231   3.575   0.483
  565SOL    HW1 1713   0.265   3.652   0.537
  565SOL    HW2 1714   0.275   3.575   0.393
  566SOL     OW 1715   1.127   3.203   1.690
  566SOL    HW1 1716   1.174   3.203   1.778
  566SOL    HW2 1717   1.079   3.116   1.679
  567SOL     OW 1718   0.230   3.296   0.538
  567SOL    HW1 1719   0.204   3.392   0.538
  567SOL    HW2 1720   0.159   3.242   0.583
  568SOL     OW 1721   0.240   2.953   0.886
  568SOL    HW1 1722   0.254   2.869   0.938
  568SOL    HW2 1723   0.185   3.017   0.941
  569SOL     OW 1724   0.620   3.648   1.439
  569SOL    HW1 1725   0.528   3.631   1.474
  569SOL    HW2 1726   0.648   3.740   1.465
  570SOL     OW 1727   0.606   2.826   0.123
  570SOL    HW1 1728   0.613   2.910   0.069
  570SOL    HW2 1729   0.652   2.839   0.211
  571SOL     OW 1730   1.594   1.976   1.480
  571SOL    HW1 1731   1.576   2.043   1.408
  571SOL    HW2 1732   1.591   2.022   1.569
  572SOL     OW 1733   0.122   2.505   0.563
  572SOL    HW1 1734   0.077   2.417   0.580
  572SOL    HW2 1735   0.121   2.559   0.647
  573SOL     OW 1736   1.842   3.629   0.359
  573SOL    HW1 1737   1.896   3.600   0.439
  573SOL    HW2 1738   1.872   3.719   0.330
  574SOL     OW 1739   0.027   3.458   0.117
  574SOL    HW1 1740   0.008   3.362   0.138
  574SOL    HW2 1741  -0.006   3.516   0.192
  575SOL     OW 1742   1.689   2.784   0.612
  575SOL    HW1 1743   1.784   2.755   0.620
  575SOL    HW2 1744   1.681   2.849   0.537
  576SOL     OW 1745   1.641   2.970   0.432
  576SOL    HW1 1746   1.727   2.972   0.380
  576SOL    HW2 1747   1.655   3.017   0.520
  577SOL     OW 1748   0.113   2.599   1.597
  577SOL    HW1 1749   0.201   2.586   1.642
  577SOL    HW2 1750   0.100   2.696   1.575
  578SOL     OW 1751   0.613   3.227   0.726
  578SOL    HW1 1752   0.564   3.140   0.735
  578SOL    HW2 1753   0.590   3.270   0.639
  579SOL     OW 1754   1.293   3.090   1.423
  579SOL    HW1 1755   1.330   3.017   1.365
  579SOL    HW2 1756   1.345   3.095   1.508
  580SOL     OW 1757   0.809   1.866   0.502
  580SOL    HW1 1758   0.849   1.957   0.493
  580SOL    HW2 1759   0.709   1.874   0.508
  581SOL     OW 1760   0.197   2.838   1.264
  581SOL    HW1 1761   0.286   2.793   1.250
  581SOL    HW2 1762   0.124   2.773   1.245
  582SOL     OW 1763   1.525   2.861   0.190
  582SOL    HW1 1764   1.462   2.785   0.203
  582SOL    HW2 1765   1.573   2.879   0.276
  583SOL     OW 1766   1.187   3.654   1.616
  583SOL    HW1 1767   1.211   3.714   1.540
  583SOL    HW2 1768   1.194   3.559   1.586
  584SOL     OW 1769   0.317   2.113   1.801
  584SOL    HW1 1770   0.388   2.184   1.807
  584SOL    HW2 1771   0.229   2.152   1.829
  585SOL     OW 1772   1.466   3.279   0.953
  585SOL    HW1 1773   1.407   3.285   1.033
  585SOL    HW2 1774   1.451   3.191   0.907
  586SOL     OW 1775   1.667   3.576   0.572
  586SOL    HW1 1776   1.626   3.553   0.484
  586SOL    HW2 1777   1.649   3.502   0.637
  587SOL     OW 1778   0.598   2.591   0.270
  587SOL    HW1 1779   0.622   2.660   0.202
  587SOL    HW2 1780   0.520   2.624   0.324
  588SOL     OW 1781   1.281   2.207   0.944
  588SOL    HW1 1782   1.195   2.157   0.931
  588SOL    HW2 1783   1.343   2.153   1.000
  589SOL     OW 1784   1.576   3.524   0.307
  589SOL    HW1 1785   1.665   3.570   0.310
  589SOL    HW2 1786   1.555   3.500   0.212
  590SOL     OW 1787   0.807   2.467   1.465
  590SOL    HW1 1788   0.760   2.464   1.554
  590SOL    HW2 1789   0.756   2.412   1.399
  591SOL     OW 1790   1.394   2.331   1.674
  591SOL    HW1 1791   1.374   2.374   1.762
  591SOL    HW2 1792   1.472   2.269   1.683
  592SOL     OW 1793   0.973   2.752   1.572
  592SOL    HW1 1794   1.019   2.668   1.543
  592SOL    HW2 1795   0.917   2.786   1.497
  593SOL     OW 1796   0.991   2.272   1.242
  593SOL    HW1 1797   0.914   2.306   1.296
  593SOL    HW2 1798   0.957   2.221   1.163
  594SOL     OW 1799   1.041   2.563   0.429
  594SOL    HW1 1800   1.067   2.559   0.525
  594SOL    HW2 1801   0.956   2.512   0.415
  595SOL     OW 1802   0.076   2.673   0.789
  595SOL    HW1 1803   0.175   2.661   0.798
  595SOL    HW2 1804   0.052   2.768   0.810
  596SOL     OW 1805   0.130   3.683   1.571
  596SOL    HW1 1806   0.120   3.668   1.670
  596SOL    HW2 1807   0.044   3.719   1.535
  597SOL     OW 1808   0.865   2.210   0.195
  597SOL    HW1 1809   0.924   2.273   0.146
  597SOL    HW2 1810   0.884   2.116   0.166
  598SOL     OW 1811   1.719   2.447   1.831
  598SOL    HW1 1812   1.693   2.536   1.795
  598SOL    HW2 1813   1.717   2.379   1.758
  599SOL     OW 1814   1.362   3.006   0.545
  599SOL    HW1 1815   1.445   2.977   0.497
  599SOL    HW2 1816   1.313   3.073   0.489
  600SOL     OW 1817   0.550   2.058   0.885
  600SOL    HW1 1818   0.545   2.053   0.985
  600SOL    HW2 1819   0.552   2.154   0.856
  601SOL     OW 1820   1.008   3.318   0.477
  601SOL    HW1 1821   0.962   3.390   0.425
  601SOL    HW2 1822   1.004   3.338   0.575
  602SOL     OW 1823   0.351   3.663   0.853
  602SOL    HW1 1824   0.401   3.577   0.859
  602SOL    HW2 1825   0.416   3.740   0.850
  603SOL     OW 1826   1.795   2.928   0.873
  603SOL    HW1 1827   1.733   2.913   0.797
  603SOL    HW2 1828   1.743   2.939   0.958
  604SOL     OW 1829   1.227   3.412   1.506
  604SOL    HW1 1830   1.233   3.335   1.570
  604SOL    HW2 1831   1.175   3.386   1.426
  605SOL     OW 1832   0.321   2.805   0.242
  605SOL    HW1 1833   0.403   2.844   0.200
  605SOL    HW2 1834   0.294   2.723   0.193
  606SOL     OW 1835   1.458   2.597   0.728
  606SOL    HW1 1836   1.453   2.532   0.803
  606SOL    HW2 1837   1.538   2.656   0.741
  607SOL     OW 1838   0.461   3.128   1.727
  607SOL    HW1 1839   0.411   3.129   1.641
  607SOL    HW2 1840   0.398   3.110   1.803
  608SOL     OW 1841   1.111   3.638   0.237
  608SOL    HW1 1842   1.051   3.576   0.287
  608SOL    HW2 1843   1.142   3.594   0.152
  609SOL     OW 1844   0.202   2.147   1.498
  609SOL    HW1 1845   0.122   2.207   1.485
  609SOL    HW2 1846   0.192   2.098   1.584
  610SOL     OW 1847   1.632   3.239   0.081
  610SOL    HW1 1848   1.600   3.333   0.071
  610SOL    HW2 1849   1.556   3.176   0.069
  611SOL     OW 1850   0.464   3.605   0.323
  611SOL    HW1 1851   0.497   3.644   0.409
  611SOL    HW2 1852   0.540   3.598   0.258
  612SOL     OW 1853   1.400   1.969   0.426
  612SOL    HW1 1854   1.376   1.932   0.336
  612SOL    HW2 1855   1.499   1.985   0.430
  613SOL     OW 1856   0.249   3.647   1.241
  613SOL    HW1 1857   0.306   3.582   1.291
  613SOL    HW2 1858   0.233   3.614   1.148
  614SOL     OW 1859   0.940   3.560   0.904
  614SOL    HW1 1860   1.020   3.503   0.925
  614SOL    HW2 1861   0.891   3.520   0.827
  615SOL     OW 1862   0.382   2.562   0.480
  615SOL    HW1 1863   0.427   2.472   0.477
  615SOL    HW2 1864   0.288   2.551   0.513
  616SOL     OW 1865   1.547   2.084   1.729
  616SOL    HW1 1866   1.542   2.121   1.821
  616SOL    HW2 1867   1.475   2.015   1.717
  617SOL     OW 1868   0.614   1.984   0.117
  617SOL    HW1 1869   0.712   1.962   0.124
  617SOL    HW2 1870   0.583   1.967   0.024
  618SOL     OW 1871   0.781   2.126   1.749
  618SOL    HW1 1872   0.848   2.065   1.792
  618SOL    HW2 1873   0.708   2.145   1.814
  619SOL     OW 1874   0.888   3.376   1.195
  619SOL    HW1 1875   0.865   3.351   1.101
  619SOL    HW2 1876   0.949   3.307   1.234
  620SOL     OW 1877   1.351   2.452   1.433
  620SOL    HW1 1878   1.379   2.409   1.518
  620SOL    HW2 1879   1.376   2.548   1.434
  621SOL     OW 1880   0.803   3.264   0.924
  621SOL    HW1 1881   0.893   3.278   0.882
  621SOL    HW2 1882   0.732   3.266   0.853
  622SOL     OW 1883   0.922   2.365   0.899
  622SOL    HW1 1884   0.897   2.356   0.803
  622SOL    HW2 1885   0.970   2.283   0.930
  623SOL     OW 1886   0.539   1.926   0.512
  623SOL    HW1 1887   0.458   1.927   0.570
  623SOL    HW2 1888   0.542   2.009   0.457
  624SOL     OW 1889   1.434   3.050   0.041
  624SOL    HW1 1890   1.466   2.974   0.098
  624SOL    HW2 1891   1.342   3.077   0.071
  625SOL     OW 1892   0.935   2.098   0.480
  625SOL    HW1 1893   0.887   2.139   0.402
  625SOL    HW2 1894   1.034   2.096   0.461
  626SOL     OW 1895   1.076   2.545   1.464
  626SOL    HW1 1896   0.996   2.484   1.467
  626SOL    HW2 1897   1.157   2.492   1.440
  627SOL     OW 1898   1.227   3.432   0.793
  627SOL    HW1 1899   1.248   3.506   0.728
  627SOL    HW2 1900   1.295   3.432   0.866
  628SOL     OW 1901   0.459   3.014   0.741
  628SOL    HW1 1902   0.388   2.987   0.806
  628SOL    HW2 1903   0.433   2.986   0.648
  629SOL     OW 1904   1.271   3.659   0.591
  629SOL    HW1 1905   1.315   3.723   0.527
  629SOL    HW2 1906   1.221   3.711   0.661
  630SOL     OW 1907   1.032   2.411   0.016
  630SOL    HW1 1908   0.991   2.493  -0.023
  630SOL    HW2 1909   1.096   2.437   0.089
  631SOL     OW 1910   0.078   2.418   1.386
  631SOL    HW1 1911   0.170   2.417   1.345
  631SOL    HW2 1912   0.072   2.492   1.453
  632SOL     OW 1913   0.561   2.084   1.147
  632SOL    HW1 1914   0.599   2.000   1.184
  632SOL    HW2 1915   0.473   2.103   1.191
  633SOL     OW 1916   0.866   2.316   0.642
  633SOL    HW1 1917   0.834   2.388   0.580
  633SOL    HW2 1918   0.890   2.235   0.589
  634SOL     OW 1919   1.017   1.901   0.753
  634SOL    HW1 1920   0.945   1.906   0.684
  634SOL    HW2 1921   0.993   1.832   0.822
  635SOL     OW 1922   1.429   3.035   0.867
  635SOL    HW1 1923   1.374   2.951   0.860
  635SOL    HW2 1924   1.455   3.064   0.775
  636SOL     OW 1925   1.466   2.452   0.992
  636SOL    HW1 1926   1.436   2.357   0.999
  636SOL    HW2 1927   1.539   2.468   1.058
  637SOL     OW 1928   1.857   2.695   0.377
  637SOL    HW1 1929   1.899   2.631   0.441
  637SOL    HW2 1930   1.819   2.644   0.299
  638SOL     OW 1931   0.488   3.247   0.174
  638SOL    HW1 1932   0.401   3.232   0.221
  638SOL    HW2 1933   0.471   3.273   0.079
  639SOL     OW 1934   1.664   3.142   0.657
  639SOL    HW1 1935   1.763   3.150   0.671
  639SOL    HW2 1936   1.619   3.226   0.688
  640SOL     OW 1937   1.390   2.437   0.078
  640SOL    HW1 1938   1.336   2.416   0.159
  640SOL    HW2 1939   1.481   2.396   0.087
  641SOL     OW 1940   0.527   2.118   0.328
  641SOL    HW1 1941   0.554   2.059   0.253
  641SOL    HW2 1942   0.527   2.213   0.297
  642SOL     OW 1943   1.754   3.085   1.588
  642SOL    HW1 1944   1.845   3.046   1.575
  642SOL    HW2 1945   1.762   3.181   1.612
  643SOL     OW 1946   1.064   3.209   1.340
  643SOL    HW1 1947   0.984   3.186   1.395
  643SOL    HW2 1948   1.147   3.183   1.389
  644SOL     OW 1949   1.592   3.491   1.625
  644SOL    HW1 1950   1.619   3.525   1.535
  644SOL    HW2 1951   1.671   3.453   1.671
  645SOL     OW 1952   1.111   3.057   1.100
  645SOL    HW1 1953   1.071   3.101   1.181
  645SOL    HW2 1954   1.070   3.094   1.017
  646SOL     OW 1955   1.638   2.961   1.079
  646SOL    HW1 1956   1.643   3.042   1.138
  646SOL    HW2 1957   1.552   2.963   1.028
  647SOL     OW 1958   0.915   1.951   1.402
  647SOL    HW1 1959   0.940   1.931   1.307
  647SOL    HW2 1960   0.987   2.007   1.444
  648SOL     OW 1961   0.980   2.978   1.719
  648SOL    HW1 1962   0.881   2.984   1.729
  648SOL    HW2 1963   1.003   2.898   1.663
  649SOL     OW 1964   0.705   2.912   0.368
  649SOL    HW1 1965   0.691   2.919   0.467
  649SOL    HW2 1966   0.789   2.861   0.350
  650SOL     OW 1967   0.410   2.675   1.251
  650SOL    HW1 1968   0.496   2.687   1.301
  650SOL    HW2 1969   0.368   2.588   1.278
  651SOL     OW 1970   1.274   2.248   1.262
  651SOL    HW1 1971   1.295   2.322   1.326
  651SOL    HW2 1972   1.185   2.265   1.219
  652SOL     OW 1973   0.064   3.426   1.331
  652SOL    HW1 1974   0.018   3.508   1.297
  652SOL    HW2 1975   0.162   3.445   1.340
  653SOL     OW 1976   0.367   2.962   0.501
  653SOL    HW1 1977   0.360   3.045   0.445
  653SOL    HW2 1978   0.371   2.882   0.441
  654SOL     OW 1979   0.566   2.399   0.865
  654SOL    HW1 1980   0.578   2.465   0.791
  654SOL    HW2 1981   0.612   2.433   0.948
  655SOL     OW 1982   1.252   3.210   0.388
  655SOL    HW1 1983   1.302   3.287   0.428
  655SOL    HW2 1984   1.157   3.212   0.420
  656SOL     OW 1985   1.272   3.307   1.142
  656SOL    HW1 1986   1.319   3.320   1.229
  656SOL    HW2 1987   1.206   3.233   1.151
  657SOL     OW 1988   1.582   2.501   0.472
  657SOL    HW1 1989   1.551   2.562   0.545
  657SOL    HW2 1990   1.632   2.553   0.403
  658SOL     OW 1991   0.354   3.372   1.329
  658SOL    HW1 1992   0.333   3.328   1.242
  658SOL    HW2 1993   0.451   3.398   1.332
  659SOL     OW 1994   0.402   2.613   1.598
  659SOL    HW1 1995   0.470   2.668   1.551
  659SOL    HW2 1996   0.442   2.525   1.625
  660SOL     OW 1997   1.587   2.641   1.670
  660SOL    HW1 1998   1.495   2.679   1.665
  660SOL    HW2 1999   1.647   2.688   1.605
  661SOL     OW 2000   1.013   1.967   1.770
  661SOL    HW1 2001   1.019   2.052   1.718
  661SOL    HW2 2002   1.045   1.891   1.713
  662SOL     OW 2003   0.504   1.912   1.740
  662SOL    HW1 2004   0.462   1.855   1.670
  662SOL    HW2 2005   0.438   1.981   1.772
  663SOL     OW 2006   0.573   2.732   1.029
  663SOL    HW1 2007   0.617   2.821   1.020
  663SOL    HW2 2008   0.510   2.732   1.106
  664SOL     OW 2009   1.360   2.724   1.045
  664SOL    HW1 2010   1.285   2.724   0.979
  664SOL    HW2 2011   1.397   2.632   1.054
  665SOL     OW 2012   1.209   2.387   0.275
  665SOL    HW1 2013   1.222   2.303   0.329
  665SOL    HW2 2014   1.180   2.461   0.335
  666SOL     OW 2015   0.307   2.075   1.231
  666SOL    HW1 2016   0.284   2.112   1.321
  666SOL    HW2 2017   0.277   1.980   1.225
  667SOL     OW 2018   0.037   3.172   1.282
  667SOL    HW1 2019   0.090   3.123   1.350
  667SOL    HW2 2020   0.059   3.270   1.287
  668SOL     OW 2021   0.732   2.496   1.064
  668SOL    HW1 2022   0.791   2.470   0.988
  668SOL    HW2 2023   0.704   2.592   1.053
  669SOL     OW 2024   1.728   2.797   1.854
  669SOL    HW1 2025   1.682   2.790   1.765
  669SOL    HW2 2026   1.666   2.841   1.920
  670SOL     OW 2027   0.307   1.925   0.618
  670SOL    HW1 2028   0.296   2.019   0.651
  670SOL    HW2 2029   0.302   1.862   0.695
  671SOL     OW 2030   1.622   2.229   0.374
  671SOL    HW1 2031   1.624   2.153   0.438
  671SOL    HW2 2032   1.574   2.306   0.414
  672SOL     OW 2033   1.023   2.628   0.966
  672SOL    HW1 2034   1.038   2.649   1.062
  672SOL    HW2 2035   0.993   2.533   0.957
  673SOL     OW 2036   0.980   3.435   1.700
  673SOL    HW1 2037   0.960   3.479   1.612
  673SOL    HW2 2038   1.019   3.344   1.684
  674SOL     OW 2039   1.859   3.380   1.605
  674SOL    HW1 2040   1.873   3.407   1.510
  674SOL    HW2 2041   1.942   3.402   1.658
  675SOL     OW 2042   0.350   2.760   1.804
  675SOL    HW1 2043   0.426   2.804   1.852
  675SOL    HW2 2044   0.385   2.713   1.722
  676SOL     OW 2045   1.540   2.136   0.125
  676SOL    HW1 2046   1.479   2.061   0.148
  676SOL    HW2 2047   1.562   2.188   0.208
  677SOL     OW 2048   1.303   2.700   0.042
  677SOL    HW1 2049   1.337   2.607   0.057
  677SOL    HW2 2050   1.321   2.727  -0.053
  678SOL     OW 2051   1.068   3.195   0.849
  678SOL    HW1 2052   1.075   3.111   0.794
  678SOL    HW2 2053   1.130   3.264   0.813
  679SOL     OW 2054   0.319   2.672   0.949
  679SOL    HW1 2055   0.412   2.708   0.954
  679SOL    HW2 2056   0.313   2.587   1.001
  680SOL     OW 2057   0.339   2.371   1.006
  680SOL    HW1 2058   0.287   2.288   0.989
  680SOL    HW2 2059   0.416   2.376   0.942
  681SOL     OW 2060   1.138   2.242   1.678
  681SOL    HW1 2061   1.093   2.305   1.742
  681SOL    HW2 2062   1.231   2.273   1.661
  682SOL     OW 2063   1.160   2.069   1.477
  682SOL    HW1 2064   1.160   2.133   1.554
  682SOL    HW2 2065   1.188   2.117   1.394
  683SOL     OW 2066   0.008   3.188   0.200
  683SOL    HW1 2067  -0.085   3.209   0.169
  683SOL    HW2 2068   0.018   3.089   0.213
  684SOL     OW 2069   0.088   3.663   0.927
  684SOL    HW1 2070   0.046   3.577   0.900
  684SOL    HW2 2071   0.182   3.666   0.893
  685SOL     OW 2072   0.504   3.430   0.910
  685SOL    HW1 2073   0.570   3.504   0.919
  685SOL    HW2 2074   0.548   3.351   0.868
  686SOL     OW 2075   1.002   2.658   1.238
  686SOL    HW1 2076   1.043   2.626   1.324
  686SOL    HW2 2077   0.906   2.631   1.235
  687SOL     OW 2078   0.040   2.406   1.114
  687SOL    HW1 2079   0.125   2.373   1.073
  687SOL    HW2 2080   0.053   2.421   1.212
  688SOL     OW 2081   0.189   2.382   1.722
  688SOL    HW1 2082   0.248   2.342   1.652
  688SOL    HW2 2083   0.131   2.453   1.681
  689SOL     OW 2084   1.369   2.812   1.660
  689SOL    HW1 2085   1.408   2.901   1.680
  689SOL    HW2 2086   1.379   2.792   1.563
  690SOL     OW 2087   0.815   2.434   0.325
  690SOL    HW1 2088   0.822   2.345   0.279
  690SOL    HW2 2089   0.721   2.468   0.317
  691SOL     OW 2090   1.657   2.466   1.206
  691SOL    HW1 2091   1.619   2.397   1.268
  691SOL    HW2 2092   1.739   2.430   1.162
  692SOL     OW 2093   0.252   3.426   1.744
  692SOL    HW1 2094   0.222   3.483   1.820
  692SOL    HW2 2095   0.245   3.329   1.770
  693SOL     OW 2096   0.671   2.326   1.269
  693SOL    HW1 2097   0.637   2.237   1.239
  693SOL    HW2 2098   0.697   2.380   1.189
  694SOL     OW 2099   0.930   3.540   1.465
  694SOL    HW1 2100   0.906   3.522   1.370
  694SOL    HW2 2101   0.960   3.634   1.475
  695SOL     OW 2102   0.473   2.362   0.191
  695SOL    HW1 2103   0.534   2.442   0.195
  695SOL    HW2 2104   0.378   2.393   0.198
  696SOL     OW 2105   0.159   2.999   1.466
  696SOL    HW1 2106   0.181   2.938   1.542
  696SOL    HW2 2107   0.169   2.950   1.380
  697SOL     OW 2108   1.347   2.921   1.234
  697SOL    HW1 2109   1.371   2.858   1.160
  697SOL    HW2 2110   1.257   2.961   1.216
  698SOL     OW 2111   1.302   2.717   0.309
  698SOL    HW1 2112   1.216   2.686   0.351
  698SOL    HW2 2113   1.298   2.703   0.210
  699SOL     OW 2114   1.759   3.609   1.154
  699SOL    HW1 2115   1.820   3.639   1.081
  699SOL    HW2 2116   1.721   3.520   1.132
  700SOL     OW 2117   1.252   3.593   1.128
  700SOL    HW1 2118   1.336   3.598   1.074
  700SOL    HW2 2119   1.229   3.497   1.146
  701SOL     OW 2120   0.083   3.120   1.022
  701SOL    HW1 2121   0.078   3.119   1.122
  701SOL    HW2 2122   0.000   3.079   0.984
  702SOL     OW 2123   0.688   3.524   1.716
  702SOL    HW1 2124   0.632   3.605   1.725
  702SOL    HW2 2125   0.740   3.528   1.630
  703SOL     OW 2126   0.903   1.948   0.133
  703SOL    HW1 2127   0.954   1.949   0.047
  703SOL    HW2 2128   0.959   1.906   0.204
  704SOL     OW 2129   1.726   1.997   0.523
  704SOL    HW1 2130   1.799   1.980   0.456
  704SOL    HW2 2131   1.695   1.910   0.561
  705SOL     OW 2132   1.388   3.435   0.477
  705SOL    HW1 2133   1.455   3.447   0.403
  705SOL    HW2 2134   1.348   3.524   0.500
  706SOL     OW 2135   0.130   3.656   1.851
  706SOL    HW1 2136   0.089   3.582   1.904
  706SOL    HW2 2137   0.194   3.707   1.909
  707SOL     OW 2138   1.280   2.789   0.672
  707SOL    HW1 2139   1.340   2.708   0.674
  707SOL    HW2 2140   1.320   2.858   0.612
  708SOL     OW 2141   0.830   3.135   1.422
  708SOL    HW1 2142   0.825   3.168   1.517
  708SOL    HW2 2143   0.744   3.154   1.376
  709SOL     OW 2144   0.672   3.478   0.154
  709SOL    HW1 2145   0.681   3.488   0.055
  709SOL    HW2 2146   0.632   3.389   0.175
  710SOL     OW 2147   1.650   3.582   1.394
  710SOL    HW1 2148   1.703   3.592   1.310
  710SOL    HW2 2149   1.623   3.672   1.428
  711SOL     OW 2150   1.841   2.037   0.963
  711SOL    HW1 2151   1.880   1.952   0.927
  711SOL    HW2 2152   1.743   2.039   0.944
  712SOL     OW 2153   0.263   2.188   0.720
  712SOL    HW1 2154   0.184   2.239   0.686
  712SOL    HW2 2155   0.254   2.173   0.818
  713SOL     OW 2156   1.194   3.474   0.031
  713SOL    HW1 2157   1.200   3.381   0.068
  713SOL    HW2 2158   1.135   3.474  -0.049
  714SOL     OW 2159   0.822   2.864   1.372
  714SOL    HW1 2160   0.862   2.863   1.280
  714SOL    HW2 2161   0.832   2.956   1.412
  715SOL     OW 2162   0.916   2.772   0.291
  715SOL    HW1 2163   0.979   2.810   0.223
  715SOL    HW2 2164   0.956   2.689   0.330
  716SOL     OW 2165   1.504   3.469   0.044
  716SOL    HW1 2166   1.412   3.506   0.051
  716SOL    HW2 2167   1.542   3.489  -0.046
  717SOL     OW 2168   0.372   3.150   1.490
  717SOL    HW1 2169   0.359   3.243   1.456
  717SOL    HW2 2170   0.288   3.098   1.477
  718SOL     OW 2171   1.614   3.154   1.289
  718SOL    HW1 2172   1.674   3.157   1.369
  718SOL    HW2 2173   1.539   3.218   1.302
  719SOL     OW 2174   1.039   2.960   0.696
  719SOL    HW1 2175   0.969   2.913   0.750
  719SOL    HW2 2176   1.098   2.892   0.653
  720SOL     OW 2177   1.014   2.098   0.971
  720SOL    HW1 2178   1.006   2.062   0.878
  720SOL    HW2 2179   1.012   2.022   1.036
  721SOL     OW 2180   0.590   3.349   0.491
  721SOL    HW1 2181   0.632   3.291   0.421
  721SOL    HW2 2182   0.546   3.428   0.447
  722SOL     OW 2183   1.709   2.247   1.381
  722SOL    HW1 2184   1.782   2.316   1.385
  722SOL    HW2 2185   1.737   2.172   1.322
  723SOL     OW 2186   0.255   3.210   0.290
  723SOL    HW1 2187   0.159   3.211   0.263
  723SOL    HW2 2188   0.267   3.263   0.374
  724SOL     OW 2189   0.105   2.875   1.726
  724SOL    HW1 2190   0.028   2.842   1.780
  724SOL    HW2 2191   0.190   2.845   1.768
  725SOL     OW 2192   0.672   2.065   1.489
  725SOL    HW1 2193   0.762   2.049   1.449
  725SOL    HW2 2194   0.680   2.070   1.588
  726SOL     OW 2195   0.075   2.207   0.033
  726SOL    HW1 2196  -0.017   2.179   0.004
  726SOL    HW2 2197   0.106   2.284  -0.023
  727SOL     OW 2198   1.440   2.718   1.398
  727SOL    HW1 2199   1.383   2.770   1.335
  727SOL    HW2 2200   1.536   2.730   1.374
  728SOL     OW 2201   0.072   2.028   0.318
  728SOL    HW1 2202   0.055   2.111   0.264
  728SOL    HW2 2203   0.162   1.991   0.296
  729SOL     OW 2204   1.183   3.197   0.119
  729SOL    HW1 2205   1.084   3.186   0.121
  729SOL    HW2 2206   1.217   3.212   0.212
  730SOL     OW 2207   0.613   2.704   1.431
  730SOL    HW1 2208   0.669   2.785   1.414
  730SOL    HW2 2209   0.672   2.624   1.434
  731SOL     OW 2210   1.493   3.629   0.959
  731SOL    HW1 2211   1.526   3.693   0.890
  731SOL    HW2 2212   1.559   3.623   1.034
  732SOL     OW 2213   0.716   2.427   1.708
  732SOL    HW1 2214   0.735   2.492   1.782
  732SOL    HW2 2215   0.776   2.347   1.717
  733SOL     OW 2216   1.450   3.082   1.633
  733SOL    HW1 2217   1.441   3.072   1.732
  733SOL    HW2 2218   1.546   3.075   1.607
  734SOL     OW 2219   0.390   3.603   1.560
  734SOL    HW1 2220   0.299   3.644   1.558
  734SOL    HW2 2221   0.383   3.509   1.592
  735SOL     OW 2222   1.674   2.745   1.254
  735SOL    HW1 2223   1.647   2.656   1.217
  735SOL    HW2 2224   1.675   2.813   1.181
  736SOL     OW 2225   1.225   2.187   0.449
  736SOL    HW1 2226   1.290   2.113   0.438
  736SOL    HW2 2227   1.245   2.237   0.533
  737SOL     OW 2228   0.594   2.607   0.652
  737SOL    HW1 2229   0.644   2.692   0.633
  737SOL    HW2 2230   0.506   2.609   0.604
  738SOL     OW 2231   1.777   2.204   1.642
  738SOL    HW1 2232   1.760   2.235   1.548
  738SOL    HW2 2233   1.693   2.167   1.680
  739SOL     OW 2234   1.730   2.796   1.517
  739SOL    HW1 2235   1.768   2.887   1.532
  739SOL    HW2 2236   1.722   2.779   1.418
  740SOL     OW 2237   0.859   3.236   0.016
  740SOL    HW1 2238   0.813   3.251   0.104
  740SOL    HW2 2239   0.903   3.321  -0.014
  741SOL     OW 2240   0.661   3.652   0.953
  741SOL    HW1 2241   0.615   3.740   0.940
  741SOL    HW2 2242   0.760   3.664   0.946
  742SOL     OW 2243   0.859   2.818   0.861
  742SOL    HW1 2244   0.913   2.749   0.909
  742SOL    HW2 2245   0.827   2.887   0.927
  743SOL     OW 2246   1.083   2.846   0.087
  743SOL    HW1 2247   1.060   2.899   0.005
  743SOL    HW2 2248   1.164   2.790   0.068
  744SOL     OW 2249   1.861   3.431   0.851
  744SOL    HW1 2250   1.790   3.419   0.781
  744SOL    HW2 2251   1.862   3.352   0.911
  745SOL     OW 2252   0.221   3.176   1.844
  745SOL    HW1 2253   0.156   3.103   1.823
  745SOL    HW2 2254   0.225   3.190   1.942
  746SOL     OW 2255   0.079   3.102   0.653
  746SOL    HW1 2256   0.078   3.055   0.741
  746SOL    HW2 2257   0.161   3.074   0.602
  747SOL     OW 2258   0.672   3.253   1.624
  747SOL    HW1 2259   0.594   3.203   1.662
  747SOL    HW2 2260   0.669   3.348   1.655
  748SOL     OW 2261   1.824   2.054   1.227
  748SOL    HW1 2262   1.820   1.964   1.271
  748SOL    HW2 2263   1.827   2.043   1.128
  749SOL     OW 2264   0.428   2.286   0.520
  749SOL    HW1 2265   0.458   2.214   0.458
  749SOL    HW2 2266   0.389   2.246   0.603
  750SOL     OW 2267   1.705   3.349   1.104
  750SOL    HW1 2268   1.612   3.324   1.077
  750SOL    HW2 2269   1.731   3.299   1.186
  751SOL     OW 2270   0.317   2.409   1.280
  751SOL    HW1 2271   0.355   2.350   1.352
  751SOL    HW2 2272   0.357   2.383   1.192
  752SOL     OW 2273   0.812   3.448   0.687
  752SOL    HW1 2274   0.844   3.458   0.593
  752SOL    HW2 2275   0.733   3.386   0.689
  753SOL     OW 2276   1.424   2.076   1.112
  753SOL    HW1 2277   1.476   2.011   1.167
  753SOL    HW2 2278   1.375   2.139   1.173
  754SOL     OW 2279   1.001   1.896   1.154
  754SOL    HW1 2280   0.938   1.824   1.123
  754SOL    HW2 2281   1.094   1.860   1.154
  755SOL     OW 2282   0.770   3.192   0.301
  755SOL    HW1 2283   0.724   3.105   0.318
  755SOL    HW2 2284   0.861   3.189   0.342
  756SOL     OW 2285   0.618   3.429   1.284
  756SOL    HW1 2286   0.613   3.511   1.341
  756SOL    HW2 2287   0.707   3.426   1.239
  757SOL     OW 2288   1.352   1.914   0.168
  757SOL    HW1 2289   1.387   1.873   0.084
  757SOL    HW2 2290   1.262   1.876   0.188
  758SOL     OW 2291   1.300   2.315   0.691
  758SOL    HW1 2292   1.241   2.395   0.695
  758SOL    HW2 2293   1.315   2.280   0.784
  759SOL     OW 2294   1.593   2.083   0.882
  759SOL    HW1 2295   1.509   2.082   0.936
  759SOL    HW2 2296   1.595   2.166   0.826
  760SOL     OW 2297   0.039   2.939   0.300
  760SOL    HW1 2298   0.138   2.928   0.291
  760SOL    HW2 2299  -0.001   2.853   0.332
  761SOL     OW 2300   0.875   3.508   0.337
  761SOL    HW1 2301   0.798   3.473   0.283
  761SOL    HW2 2302   0.843   3.579   0.399
  762SOL     OW 2303   0.230   2.490   1.975
  762SOL    HW1 2304   0.137   2.488   2.012
  762SOL    HW2 2305   0.231   2.451   1.883
  763SOL     OW 2306   0.225   2.137   2.858
  763SOL    HW1 2307   0.260   2.120   2.950
  763SOL    HW2 2308   0.137   2.092   2.846
  764SOL     OW 2309   0.019   2.230   2.509
  764SOL    HW1 2310  -0.063   2.273   2.548
  764SOL    HW2 2311  -0.009   2.157   2.446
  765SOL     OW 2312   0.569   3.137   3.027
  765SOL    HW1 2313   0.476   3.130   2.990
  765SOL    HW2 2314   0.580   3.226   3.071
  766SOL     OW 2315   1.555   3.373   2.565
  766SOL    HW1 2316   1.498   3.357   2.646
  766SOL    HW2 2317   1.496   3.383   2.485
  767SOL     OW 2318   1.135   2.565   2.579
  767SOL    HW1 2319   1.192   2.643   2.554
  767SOL    HW2 2320   1.075   2.591   2.655
  768SOL     OW 2321   1.755   2.469   2.093
  768SOL    HW1 2322   1.743   2.456   1.994
  768SOL    HW2 2323   1.725   2.388   2.142
  769SOL     OW 2324   0.768   3.006   2.885
  769SOL    HW1 2325   0.690   3.023   2.945
  769SOL    HW2 2326   0.802   3.093   2.849
  770SOL     OW 2327   0.850   2.660   3.685
  770SOL    HW1 2328   0.846   2.736   3.750
  770SOL    HW2 2329   0.872   2.696   3.594
  771SOL     OW 2330   0.685   2.874   2.527
  771SOL    HW1 2331   0.754   2.858   2.597
  771SOL    HW2 2332   0.612   2.931   2.565
  772SOL     OW 2333   0.686   3.023   3.665
  772SOL    HW1 2334   0.746   3.102   3.679
  772SOL    HW2 2335   0.600   3.054   3.624
  773SOL     OW 2336   0.335   3.297   2.923
  773SOL    HW1 2337   0.257   3.266   2.870
  773SOL    HW2 2338   0.393   3.355   2.866
  774SOL     OW 2339   1.460   3.367   3.201
  774SOL    HW1 2340   1.484   3.461   3.227
  774SOL    HW2 2341   1.444   3.313   3.283
  775SOL     OW 2342   0.438   2.254   3.361
  775SOL    HW1 2343   0.520   2.198   3.370
  775SOL    HW2 2344   0.357   2.196   3.365
  776SOL     OW 2345   1.603   2.309   2.599
  776SOL    HW1 2346   1.529   2.355   2.549
  776SOL    HW2 2347   1.654   2.377   2.652
  777SOL     OW 2348   0.231   3.575   2.345
  777SOL    HW1 2349   0.265   3.652   2.399
  777SOL    HW2 2350   0.275   3.575   2.255
  778SOL     OW 2351   1.127   3.203   3.552
  778SOL    HW1 2352   1.174   3.203   3.640
  778SOL    HW2 2353   1.079   3.116   3.541
  779SOL     OW 2354   0.230   3.296   2.400
  779SOL    HW1 2355   0.204   3.392   2.400
  779SOL    HW2 2356   0.159   3.242   2.445
  780SOL     OW 2357   0.240   2.953   2.748
  780SOL    HW1 2358   0.254   2.869   2.800
  780SOL    HW2 2359   0.185   3.017   2.803
  781SOL     OW 2360   0.620   3.648   3.301
  781SOL    HW1 2361   0.528   3.631   3.336
  781SOL    HW2 2362   0.648   3.740   3.327
  782SOL     OW 2363   0.606   2.826   1.985
  782SOL    HW1 2364   0.613   2.910   1.931
  782SOL    HW2 2365   0.652   2.839   2.073
  783SOL     OW 2366   1.594   1.976   3.342
  783SOL    HW1 2367   1.576   2.043   3.270
  783SOL    HW2 2368   1.591   2.022   3.431
  784SOL     OW 2369   0.122   2.505   2.425
  784SOL    HW1 2370   0.077   2.417   2.442
  784SOL    HW2 2371   0.121   2.559   2.509
  785SOL     OW 2372   1.842   3.629   2.221
  785SOL    HW1 2373   1.896   3.600   2.301
  785SOL    HW2 2374   1.872   3.719   2.192
  786SOL     OW 2375   0.027   3.458   1.979
  786SOL    HW1 2376   0.008   3.362   2.000
  786SOL    HW2 2377  -0.006   3.516   2.054
  787SOL     OW 2378   1.689   2.784   2.474
  787SOL    HW1 2379   1.784   2.755   2.482
  787SOL    HW2 2380   1.681   2.849   2.399
  788SOL     OW 2381   1.641   2.970   2.294
  788SOL    HW1 2382   1.727   2.972   2.242
  788SOL    HW2 2383   1.655   3.017   2.382
  789SOL     OW 2384   0.113   2.599   3.459
  789SOL    HW1 2385   0.201   2.586   3.504
  789SOL    HW2 2386   0.100   2.696   3.437
  790SOL     OW 2387   0.613   3.227   2.588
  790SOL    HW1 2388   0.564   3.140   2.597
  790SOL    HW2 2389   0.590   3.270   2.501
  791SOL     OW 2390   1.293   3.090   3.285
  791SOL    HW1 2391   1.330   3.017   3.227
  791SOL    HW2 2392   1.345   3.095   3.370
  792SOL     OW 2393   0.809   1.866   2.364
  792SOL    HW1 2394   0.849   1.957   2.355
  792SOL    HW2 2395   0.709   1.874   2.370
  793SOL     OW 2396   0.197   2.838   3.126
  793SOL    HW1 2397   0.286   2.793   3.112
  793SOL    HW2 2398   0.124   2.773   3.107
  794SOL     OW 2399   1.525   2.861   2.052
  794SOL    HW1 2400   1.462   2.785   2.065
  794SOL    HW2 2401   1.573   2.879   2.138
  795SOL     OW 2402   1.187   3.654   3.478
  795SOL    HW1 2403   1.211   3.714   3.402
  795SOL    HW2 2404   1.194   3.559   3.448
  796SOL     OW 2405   0.317   2.113   3.663
  796SOL    HW1 2406   0.388   2.184   3.669
  796SOL    HW2 2407   0.229   2.152   3.691
  797SOL     OW 2408   1.466   3.279   2.815
  797SOL    HW1 2409   1.407   3.285   2.895
  797SOL    HW2 2410   1.451   3.191   2.769
  798SOL     OW 2411   1.667   3.576   2.434
  798SOL    HW1 2412   1.626   3.553   2.346
  798SOL    HW2 2413   1.649   3.502   2.499
  799SOL     OW 2414   0.598   2.591   2.132
  799SOL    HW1 2415   0.622   2.660   2.064
  799SOL    HW2 2416   0.520   2.624   2.186
  800SOL     OW 2417   1.281   2.207   2.806
  800SOL    HW1 2418   1.195   2.157   2.793
  800SOL    HW2 2419   1.343   2.153   2.862
  801SOL     OW 2420   1.576   3.524   2.169
  801SOL    HW1 2421   1.665   3.570   2.172
  801SOL    HW2 2422   1.555   3.500   2.074
  802SOL     OW 2423   0.807   2.467   3.327
  802SOL    HW1 2424   0.760   2.464   3.416
  802SOL    HW2 2425   0.756   2.412   3.261
  803SOL     OW 2426   1.394   2.331   3.536
  803SOL    HW1 2427   1.374   2.374   3.624
  803SOL    HW2 2428   1.472   2.269   3.545
  804SOL     OW 2429   0.973   2.752   3.434
  804SOL    HW1 2430   1.019   2.668   3.405
  804SOL    HW2 2431   0.917   2.786   3.359
  805SOL     OW 2432   0.991   2.272   3.104
  805SOL    HW1 2433   0.914   2.306   3.158
  805SOL    HW2 2434   0.957   2.221   3.025
  806SOL     OW 2435   1.041   2.563   2.291
  806SOL    HW1 2436   1.067   2.559   2.387
  806SOL    HW2 2437   0.956   2.512   2.277
  807SOL     OW 2438   0.076   2.673   2.651
  807SOL    HW1 2439   0.175   2.661   2.660
  807SOL    HW2 2440   0.052   2.768   2.672
  808SOL     OW 2441   0.130   3.683   3.433
  808SOL    HW1 2442   0.120   3.668   3.532
  808SOL    HW2 2443   0.044   3.719   3.397
  809SOL     OW 2444   0.865   2.210   2.057
  809SOL    HW1 2445   0.924   2.273   2.008
  809SOL    HW2 2446   0.884   2.116   2.028
  810SOL     OW 2447   1.719   2.447   3.693
  810SOL    HW1 2448   1.693   2.536   3.657
  810SOL    HW2 2449   1.717   2.379   3.620
  811SOL     OW 2450   1.362   3.006   2.407
  811SOL    HW1 2451   1.445   2.977   2.359
  811SOL    HW2 2452   1.313   3.073   2.351
  812SOL     OW 2453   0.550   2.058   2.747
  812SOL    HW1 2454   0.545   2.053   2.847
  812SOL    HW2 2455   0.552   2.154   2.718
  813SOL     OW 2456   1.008   3.318   2.339
  813SOL    HW1 2457   0.962   3.390   2.287
  813SOL    HW2 2458   1.004   3.338   2.437
  814SOL     OW 2459   0.351   3.663   2.715
  814SOL    HW1 2460   0.401   3.577   2.721
  814SOL    HW2 2461   0.416   3.740   2.712
  815SOL     OW 2462   1.795   2.928   2.735
  815SOL    HW1 2463   1.733   2.913   2.659
  815SOL    HW2 2464   1.743   2.939   2.820
  816SOL     OW 2465   1.227   3.412   3.368
  816SOL    HW1 2466   1.233   3.335   3.432
  816SOL    HW2 2467   1.175   3.386   3.288
  817SOL     OW 2468   0.321   2.805   2.104
  817SOL    HW1 2469   0.403   2.844   2.062
  817SOL    HW2 2470   0.294   2.723   2.055
  818SOL     OW 2471   1.458   2.597   2.590
  818SOL    HW1 2472   1.453   2.532   2.665
  818SOL    HW2 2473   1.538   2.656   2.603
  819SOL     OW 2474   0.461   3.128   3.589
  819SOL    HW1 2475   0.411   3.129   3.503
  819SOL    HW2 2476   0.398   3.110   3.665
  820SOL     OW 2477   1.111   3.638   2.099
  820SOL    HW1 2478   1.051   3.576   2.149
  820SOL    HW2 2479   1.142   3.594   2.014
  821SOL     OW 2480   0.202   2.147   3.360
  821SOL    HW1 2481   0.122   2.207   3.347
  821SOL    HW2 2482   0.192   2.098   3.446
  822SOL     OW 2483   1.632   3.239   1.943
  822SOL    HW1 2484   1.600   3.333   1.933
  822SOL    HW2 2485   1.556   3.176   1.931
  823SOL     OW 2486   0.464   3.605   2.185
  823SOL    HW1 2487   0.497   3.644   2.271
  823SOL    HW2 2488   0.540   3.598   2.120
  824SOL     OW 2489   1.400   1.969   2.288
  824SOL    HW1 2490   1.376   1.932   2.198
  824SOL    HW2 2491   1.499   1.985   2.292
  825SOL     OW 2492   0.249   3.647   3.103
  825SOL    HW1 2493   0.306   3.582   3.153
  825SOL    HW2 2494   0.233   3.614   3.010
  826SOL     OW 2495   0.940   3.560   2.766
  826SOL    HW1 2496   1.020   3.503   2.787
  826SOL    HW2 2497   0.891   3.520   2.689
  827SOL     OW 2498   0.382   2.562   2.342
  827SOL    HW1 2499   0.427   2.472   2.339
  827SOL    HW2 2500   0.288   2.551   2.375
  828SOL     OW 2501   1.547   2.084   3.591
  828SOL    HW1 2502   1.542   2.121   3.683
  828SOL    HW2 2503   1.475   2.015   3.579
  829SOL     OW 2504   0.614   1.984   1.979
  829SOL    HW1 2505   0.712   1.962   1.986
  829SOL    HW2 2506   0.583   1.967   1.886
  830SOL     OW 2507   0.781   2.126   3.611
  830SOL    HW1 2508   0.848   2.065   3.654
  830SOL    HW2 2509   0.708   2.145   3.676
  831SOL     OW 2510   0.888   3.376   3.057
  831SOL    HW1 2511   0.865   3.351   2.963
  831SOL    HW2 2512   0.949   3.307   3.096
  832SOL     OW 2513   1.351   2.452   3.295
  832SOL    HW1 2514   1.379   2.409   3.380
  832SOL    HW2 2515   1.376   2.548   3.296
  833SOL     OW 2516   0.803   3.264   2.786
  833SOL    HW1 2517   0.893   3.278   2.744
  833SOL    HW2 2518   0.732   3.266   2.715
  834SOL     OW 2519   0.922   2.365   2.761
  834SOL    HW1 2520   0.897   2.356   2.665
  834SOL    HW2 2521   0.970   2.283   2.792
  835SOL     OW 2522   0.539   1.926   2.374
  835SOL    HW1 2523   0.458   1.927   2.432
  835SOL    HW2 2524   0.542   2.009   2.319
  836SOL     OW 2525   1.434   3.050   1.903
  836SOL    HW1 2526   1.466   2.974   1.960
  836SOL    HW2 2527   1.342   3.077   1.933
  837SOL     OW 2528   0.297   1.897   2.033
  837SOL    HW1 2529   0.346   1.981   2.012
  837SOL    HW2 2530   0.359   1.832   2.078
  838SOL     OW 2531   0.935   2.098   2.342
  838SOL    HW1 2532   0.887   2.139   2.264
  838SOL    HW2 2533   1.034   2.096   2.323
  839SOL     OW 2534   1.076   2.545   3.326
  839SOL    HW1 2535   0.996   2.484   3.329
  839SOL    HW2 2536   1.157   2.492   3.302
  840SOL     OW 2537   1.227   3.432   2.655
  840SOL    HW1 2538   1.248   3.506   2.590
  840SOL    HW2 2539   1.295   3.432   2.728
  841SOL     OW 2540   0.459   3.014   2.603
  841SOL    HW1 2541   0.388   2.987   2.668
  841SOL    HW2 2542   0.433   2.986   2.510
  842SOL     OW 2543   1.271   3.659   2.453
  842SOL    HW1 2544   1.315   3.723   2.389
  842SOL    HW2 2545   1.221   3.711   2.523
  843SOL     OW 2546   1.032   2.411   1.878
  843SOL    HW1 2547   0.991   2.493   1.839
  843SOL    HW2 2548   1.096   2.437   1.951
  844SOL     OW 2549   0.078   2.418   3.248
  844SOL    HW1 2550   0.170   2.417   3.207
  844SOL    HW2 2551   0.072   2.492   3.315
  845SOL     OW 2552   0.561   2.084   3.009
  845SOL    HW1 2553   0.599   2.000   3.046
  845SOL    HW2 2554   0.473   2.103   3.053
  846SOL     OW 2555   0.866   2.316   2.504
  846SOL    HW1 2556   0.834   2.388   2.442
  846SOL    HW2 2557   0.890   2.235   2.451
  847SOL     OW 2558   1.017   1.901   2.615
  847SOL    HW1 2559   0.945   1.906   2.546
  847SOL    HW2 2560   0.993   1.832   2.684
  848SOL     OW 2561   1.429   3.035   2.729
  848SOL    HW1 2562   1.374   2.951   2.722
  848SOL    HW2 2563   1.455   3.064   2.637
  849SOL     OW 2564   1.466   2.452   2.854
  849SOL    HW1 2565   1.436   2.357   2.861
  849SOL    HW2 2566   1.539   2.468   2.920
  850SOL     OW 2567   1.857   2.695   2.239
  850SOL    HW1 2568   1.899   2.631   2.303
  850SOL    HW2 2569   1.819   2.644   2.161
  851SOL     OW 2570   0.488   3.247   2.036
  851SOL    HW1 2571   0.401   3.232   2.083
  851SOL    HW2 2572   0.471   3.273   1.941
  852SOL     OW 2573   1.664   3.142   2.519
  852SOL    HW1 2574   1.763   3.150   2.533
  852SOL    HW2 2575   1.619   3.226   2.550
  853SOL     OW 2576   1.390   2.437   1.940
  853SOL    HW1 2577   1.336   2.416   2.021
  853SOL    HW2 2578   1.481   2.396   1.949
  854SOL     OW 2579   0.527   2.118   2.190
  854SOL    HW1 2580   0.554   2.059   2.115
  854SOL    HW2 2581   0.527   2.213   2.159
  855SOL     OW 2582   1.754   3.085   3.450
  855SOL    HW1 2583   1.845   3.046   3.437
  855SOL    HW2 2584   1.762   3.181   3.474
  856SOL     OW 2585   1.064   3.209   3.202
  856SOL    HW1 2586   0.984   3.186   3.257
  856SOL    HW2 2587   1.147   3.183   3.251
  857SOL     OW 2588   1.592   3.491   3.487
  857SOL    HW1 2589   1.619   3.525   3.397
  857SOL    HW2 2590   1.671   3.453   3.533
  858SOL     OW 2591   1.111   3.057   2.962
  858SOL    HW1 2592   1.071   3.101   3.043
  858SOL    HW2 2593   1.070   3.094   2.879
  859SOL     OW 2594   1.638   2.961   2.941
  859SOL    HW1 2595   1.643   3.042   3.000
  859SOL    HW2 2596   1.552   2.963   2.890
  860SOL     OW 2597   0.915   1.951   3.264
  860SOL    HW1 2598   0.940   1.931   3.169
  860SOL    HW2 2599   0.987   2.007   3.306
  861SOL     OW 2600   0.980   2.978   3.581
  861SOL    HW1 2601   0.881   2.984   3.591
  861SOL    HW2 2602   1.003   2.898   3.525
  862SOL     OW 2603   0.705   2.912   2.230
  862SOL    HW1 2604   0.691   2.919   2.329
  862SOL    HW2 2605   0.789   2.861   2.212
  863SOL     OW 2606   0.410   2.675   3.113
  863SOL    HW1 2607   0.496   2.687   3.163
  863SOL    HW2 2608   0.368   2.588   3.140
  864SOL     OW 2609   1.274   2.248   3.124
  864SOL    HW1 2610   1.295   2.322   3.188
  864SOL    HW2 2611   1.185   2.265   3.081
  865SOL     OW 2612   0.064   3.426   3.193
  865SOL    HW1 2613   0.018   3.508   3.159
  865SOL    HW2 2614   0.162   3.445   3.202
  866SOL     OW 2615   0.367   2.962   2.363
  866SOL    HW1 2616   0.360   3.045   2.307
  866SOL    HW2 2617   0.371   2.882   2.303
  867SOL     OW 2618   0.566   2.399   2.727
  867SOL    HW1 2619   0.578   2.465   2.653
  867SOL    HW2 2620   0.612   2.433   2.810
  868SOL     OW 2621   1.252   3.210   2.250
  868SOL    HW1 2622   1.302   3.287   2.290
  868SOL    HW2 2623   1.157   3.212   2.282
  869SOL     OW 2624   1.272   3.307   3.004
  869SOL    HW1 2625   1.319   3.320   3.091
  869SOL    HW2 2626   1.206   3.233   3.013
  870SOL     OW 2627   1.582   2.501   2.334
  870SOL    HW1 2628   1.551   2.562   2.407
  870SOL    HW2 2629   1.632   2.553   2.265
  871SOL     OW 2630   0.354   3.372   3.191
  871SOL    HW1 2631   0.333   3.328   3.104
  871SOL    HW2 2632   0.451   3.398   3.194
  872SOL     OW 2633   0.402   2.613   3.460
  872SOL    HW1 2634   0.470   2.668   3.413
  872SOL    HW2 2635   0.442   2.525   3.487
  873SOL     OW 2636   1.587   2.641   3.532
  873SOL    HW1 2637   1.495   2.679   3.527
  873SOL    HW2 2638   1.647   2.688   3.467
  874SOL     OW 2639   1.013   1.967   3.632
  874SOL    HW1 2640   1.019   2.052   3.580
  874SOL    HW2 2641   1.045   1.891   3.575
  875SOL     OW 2642   0.504   1.912   3.602
  875SOL    HW1 2643   0.462   1.855   3.532
  875SOL    HW2 2644   0.438   1.981   3.634
  876SOL     OW 2645   0.573   2.732   2.891
  876SOL    HW1 2646   0.617   2.821   2.882
  876SOL    HW2 2647   0.510   2.732   2.968
  877SOL     OW 2648   1.360   2.724   2.907
  877SOL    HW1 2649   1.285   2.724   2.841
  877SOL    HW2 2650   1.397   2.632   2.916
  878SOL     OW 2651   1.209   2.387   2.137
  878SOL    HW1 2652   1.222   2.303   2.191
  878SOL    HW2 2653   1.180   2.461   2.197
  879SOL     OW 2654   0.307   2.075   3.093
  879SOL    HW1 2655   0.284   2.112   3.183
  879SOL    HW2 2656   0.277   1.980   3.087
  880SOL     OW 2657   0.037   3.172   3.144
  880SOL    HW1 2658   0.090   3.123   3.212
  880SOL    HW2 2659   0.059   3.270   3.149
  881SOL     OW 2660   0.732   2.496   2.926
  881SOL    HW1 2661   0.791   2.470   2.850
  881SOL    HW2 2662   0.704   2.592   2.915
  882SOL     OW 2663   1.728   2.797   3.716
  882SOL    HW1 2664   1.682   2.790   3.627
  882SOL    HW2 2665   1.666   2.841   3.782
  883SOL     OW 2666   0.307   1.925   2.480
  883SOL    HW1 2667   0.296   2.019   2.513
  883SOL    HW2 2668   0.302   1.862   2.557
  884SOL     OW 2669   1.622   2.229   2.236
  884SOL    HW1 2670   1.624   2.153   2.300
  884SOL    HW2 2671   1.574   2.306   2.276
  885SOL     OW 2672   1.023   2.628   2.828
  885SOL    HW1 2673   1.038   2.649   2.924
  885SOL    HW2 2674   0.993   2.533   2.819
  886SOL     OW 2675   0.980   3.435   3.562
  886SOL    HW1 2676   0.960   3.479   3.474
  886SOL    HW2 2677   1.019   3.344   3.546
  887SOL     OW 2678   1.859   3.380   3.467
  887SOL    HW1 2679   1.873   3.407   3.372
  887SOL    HW2 2680   1.942   3.402   3.520
  888SOL     OW 2681   0.350   2.760   3.666
  888SOL    HW1 2682   0.426   2.804   3.714
  888SOL    HW2 2683   0.385   2.713   3.584
  889SOL     OW 2684   1.540   2.136   1.987
  889SOL    HW1 2685   1.479   2.061   2.010
  889SOL    HW2 2686   1.562   2.188   2.070
  890SOL     OW 2687   1.303   2.700   1.904
  890SOL    HW1 2688   1.337   2.607   1.919
  890SOL    HW2 2689   1.321   2.727   1.809
  891SOL     OW 2690   1.068   3.195   2.711
  891SOL    HW1 2691   1.075   3.111   2.656
  891SOL    HW2 2692   1.130   3.264   2.675
  892SOL     OW 2693   0.319   2.672   2.811
  892SOL    HW1 2694   0.412   2.708   2.816
  892SOL    HW2 2695   0.313   2.587   2.863
  893SOL     OW 2696   0.339   2.371   2.868
  893SOL    HW1 2697   0.287   2.288   2.851
  893SOL    HW2 2698   0.416   2.376   2.804
  894SOL     OW 2699   1.138   2.242   3.540
  894SOL    HW1 2700   1.093   2.305   3.604
  894SOL    HW2 2701   1.231   2.273   3.523
  895SOL     OW 2702   1.160   2.069   3.339
  895SOL    HW1 2703   1.160   2.133   3.416
  895SOL    HW2 2704   1.188   2.117   3.256
  896SOL     OW 2705   0.008   3.188   2.062
  896SOL    HW1 2706  -0.085   3.209   2.031
  896SOL    HW2 2707   0.018   3.089   2.075
  897SOL     OW 2708   0.088   3.663   2.789
  897SOL    HW1 2709   0.046   3.577   2.762
  897SOL    HW2 2710   0.182   3.666   2.755
  898SOL     OW 2711   0.504   3.430   2.772
  898SOL    HW1 2712   0.570   3.504   2.781
  898SOL    HW2 2713   0.548   3.351   2.730
  899SOL     OW 2714   1.002   2.658   3.100
  899SOL    HW1 2715   1.043   2.626   3.186
  899SOL    HW2 2716   0.906   2.631   3.097
  900SOL     OW 2717   0.040   2.406   2.976
  900SOL    HW1 2718   0.125   2.373   2.935
  900SOL    HW2 2719   0.053   2.421   3.074
  901SOL     OW 2720   0.189   2.382   3.584
  901SOL    HW1 2721   0.248   2.342   3.514
  901SOL    HW2 2722   0.131   2.453   3.543
  902SOL     OW 2723   1.369   2.812   3.522
  902SOL    HW1 2724   1.408   2.901   3.542
  902SOL    HW2 2725   1.379   2.792   3.425
  903SOL     OW 2726   0.815   2.434   2.187
  903SOL    HW1 2727   0.822   2.345   2.141
  903SOL    HW2 2728   0.721   2.468   2.179
  904SOL     OW 2729   1.657   2.466   3.068
  904SOL    HW1 2730   1.619   2.397   3.130
  904SOL    HW2 2731   1.739   2.430   3.024
  905SOL     OW 2732   0.252   3.426   3.606
  905SOL    HW1 2733   0.222   3.483   3.682
  905SOL    HW2 2734   0.245   3.329   3.632
  906SOL     OW 2735   0.671   2.326   3.131
  906SOL    HW1 2736   0.637   2.237   3.101
  906SOL    HW2 2737   0.697   2.380   3.051
  907SOL     OW 2738   0.930   3.540   3.327
  907SOL    HW1 2739   0.906   3.522   3.232
  907SOL    HW2 2740   0.960   3.634   3.337
  908SOL     OW 2741   0.473   2.362   2.053
  908SOL    HW1 2742   0.534   2.442   2.057
  908SOL    HW2 2743   0.378   2.393   2.060
  909SOL     OW 2744   0.159   2.999   3.328
  909SOL    HW1 2745   0.181   2.938   3.404
  909SOL    HW2 2746   0.169   2.950   3.242
  910SOL     OW 2747   1.347   2.921   3.096
  910SOL    HW1 2748   1.371   2.858   3.022
  910SOL    HW2 2749   1.257   2.961   3.078
  911SOL     OW 2750   1.302   2.717   2.171
  911SOL    HW1 2751   1.216   2.686   2.213
  911SOL    HW2 2752   1.298   2.703   2.072
  912SOL     OW 2753   1.759   3.609   3.016
  912SOL    HW1 2754   1.820   3.639   2.943
  912SOL    HW2 2755   1.721   3.520   2.994
  913SOL     OW 2756   1.252   3.593   2.990
  913SOL    HW1 2757   1.336   3.598   2.936
  913SOL    HW2 2758   1.229   3.497   3.008
  914SOL     OW 2759   0.083   3.120   2.884
  914SOL    HW1 2760   0.078   3.119   2.984
  914SOL    HW2 2761   0.000   3.079   2.846
  915SOL     OW 2762   0.688   3.524   3.578
  915SOL    HW1 2763   0.632   3.605   3.587
  915SOL    HW2 2764   0.740   3.528   3.492
  916SOL     OW 2765   1.726   1.997   2.385
  916SOL    HW1 2766   1.799   1.980   2.318
  916SOL    HW2 2767   1.695   1.910   2.423
  917SOL     OW 2768   1.388   3.435   2.339
  917SOL    HW1 2769   1.455   3.447   2.265
  917SOL    HW2 2770   1.348   3.524   2.362
  918SOL     OW 2771   0.130   3.656   3.713
  918SOL    HW1 2772   0.089   3.582   3.766
  918SOL    HW2 2773   0.194   3.707   3.771
  919SOL     OW 2774   1.280   2.789   2.534
  919SOL    HW1 2775   1.340   2.708   2.536
  919SOL    HW2 2776   1.320   2.858   2.474
  920SOL     OW 2777   0.830   3.135   3.284
  920SOL    HW1 2778   0.825   3.168   3.379
  920SOL    HW2 2779   0.744   3.154   3.238
  921SOL     OW 2780   0.672   3.478   2.016
  921SOL    HW1 2781   0.681   3.488   1.917
  921SOL    HW2 2782   0.632   3.389   2.037
  922SOL     OW 2783   1.650   3.582   3.256
  922SOL    HW1 2784   1.703   3.592   3.172
  922SOL    HW2 2785   1.623   3.672   3.290
  923SOL     OW 2786   1.841   2.037   2.825
  923SOL    HW1 2787   1.880   1.952   2.789
  923SOL    HW2 2788   1.743   2.039   2.806
  924SOL     OW 2789   0.263   2.188   2.582
  924SOL    HW1 2790   0.184   2.239   2.548
  924SOL    HW2 2791   0.254   2.173   2.680
  925SOL     OW 2792   1.194   3.474   1.893
  925SOL    HW1 2793   1.200   3.381   1.930
  925SOL    HW2 2794   1.135   3.474   1.813
  926SOL     OW 2795   0.822   2.864   3.234
  926SOL    HW1 2796   0.862   2.863   3.142
  926SOL    HW2 2797   0.832   2.956   3.274
  927SOL     OW 2798   0.916   2.772   2.153
  927SOL    HW1 2799   0.979   2.810   2.085
  927SOL    HW2 2800   0.956   2.689   2.192
  928SOL     OW 2801   1.504   3.469   1.906
  928SOL    HW1 2802   1.412   3.506   1.913
  928SOL    HW2 2803   1.542   3.489   1.816
  929SOL     OW 2804   0.372   3.150   3.352
  929SOL    HW1 2805   0.359   3.243   3.318
  929SOL    HW2 2806   0.288   3.098   3.339
  930SOL     OW 2807   1.614   3.154   3.151
  930SOL    HW1 2808   1.674   3.157   3.231
  930SOL    HW2 2809   1.539   3.218   3.164
  931SOL     OW 2810   1.039   2.960   2.558
  931SOL    HW1 2811   0.969   2.913   2.612
  931SOL    HW2 2812   1.098   2.892   2.515
  932SOL     OW 2813   1.014   2.098   2.833
  932SOL    HW1 2814   1.006   2.062   2.740
  932SOL    HW2 2815   1.012   2.022   2.898
  933SOL     OW 2816   0.590   3.349   2.353
  933SOL    HW1 2817   0.632   3.291   2.283
  933SOL    HW2 2818   0.546   3.428   2.309
  934SOL     OW 2819   1.709   2.247   3.243
  934SOL    HW1 2820   1.782   2.316   3.247
  934SOL    HW2 2821   1.737   2.172   3.184
  935SOL     OW 2822   0.255   3.210   2.152
  935SOL    HW1 2823   0.159   3.211   2.125
  935SOL    HW2 2824   0.267   3.263   2.236
  936SOL     OW 2825   0.105   2.875   3.588
  936SOL    HW1 2826   0.028   2.842   3.642
  936SOL    HW2 2827   0.190   2.845   3.630
  937SOL     OW 2828   0.672   2.065   3.351
  937SOL    HW1 2829   0.762   2.049   3.311
  937SOL    HW2 2830   0.680   2.070   3.450
  938SOL     OW 2831   0.075   2.207   1.895
  938SOL    HW1 2832  -0.017   2.179   1.866
  938SOL    HW2 2833   0.106   2.284   1.839
  939SOL     OW 2834   1.440   2.718   3.260
  939SOL    HW1 2835   1.383   2.770   3.197
  939SOL    HW2 2836   1.536   2.730   3.236
  940SOL     OW 2837   0.072   2.028   2.180
  940SOL    HW1 2838   0.055   2.111   2.126
  940SOL    HW2 2839   0.162   1.991   2.158
  941SOL     OW 2840   1.183   3.197   1.981
  941SOL    HW1 2841   1.084   3.186   1.983
  941SOL    HW2 2842   1.217   3.212   2.074
  942SOL     OW 2843   0.613   2.704   3.293
  942SOL    HW1 2844   0.669   2.785   3.276
  942SOL    HW2 2845   0.672   2.624   3.296
  943SOL     OW 2846   1.493   3.629   2.821
  943SOL    HW1 2847   1.526   3.693   2.752
  943SOL    HW2 2848   1.559   3.623   2.896
  944SOL     OW 2849   0.716   2.427   3.570
  944SOL    HW1 2850   0.735   2.492   3.644
  944SOL    HW2 2851   0.776   2.347   3.579
  945SOL     OW 2852   1.450   3.082   3.495
  945SOL    HW1 2853   1.441   3.072   3.594
  945SOL    HW2 2854   1.546   3.075   3.469
  946SOL     OW 2855   0.390   3.603   3.422
  946SOL    HW1 2856   0.299   3.644   3.420
  946SOL    HW2 2857   0.383   3.509   3.454
  947SOL     OW 2858   1.674   2.745   3.116
  947SOL    HW1 2859   1.647   2.656   3.079
  947SOL    HW2 2860   1.675   2.813   3.043
  948SOL     OW 2861   1.225   2.187   2.311
  948SOL    HW1 2862   1.290   2.113   2.300
  948SOL    HW2 2863   1.245   2.237   2.395
  949SOL     OW 2864   0.594   2.607   2.514
  949SOL    HW1 2865   0.644   2.692   2.495
  949SOL    HW2 2866   0.506   2.609   2.466
  950SOL     OW 2867   1.777   2.204   3.504
  950SOL    HW1 2868   1.760   2.235   3.410
  950SOL    HW2 2869   1.693   2.167   3.542
  951SOL     OW 2870   1.730   2.796   3.379
  951SOL    HW1 2871   1.768   2.887   3.394
  951SOL    HW2 2872   1.722   2.779   3.280
  952SOL     OW 2873   0.859   3.236   1.878
  952SOL    HW1 2874   0.813   3.251   1.966
  952SOL    HW2 2875   0.903   3.321   1.848
  953SOL     OW 2876   0.661   3.652   2.815
  953SOL    HW1 2877   0.615   3.740   2.802
  953SOL    HW2 2878   0.760   3.664   2.808
  954SOL     OW 2879   0.859   2.818   2.723
  954SOL    HW1 2880   0.913   2.749   2.771
  954SOL    HW2 2881   0.827   2.887   2.789
  955SOL     OW 2882   1.083   2.846   1.949
  955SOL    HW1 2883   1.060   2.899   1.867
  955SOL    HW2 2884   1.164   2.790   1.930
  956SOL     OW 2885   1.861   3.431   2.713
  956SOL    HW1 2886   1.790   3.419   2.643
  956SOL    HW2 2887   1.862   3.352   2.773
  957SOL     OW 2888   0.221   3.176   3.706
  957SOL    HW1 2889   0.156   3.103   3.685
  957SOL    HW2 2890   0.225   3.190   3.804
  958SOL     OW 2891   0.079   3.102   2.515
  958SOL    HW1 2892   0.078   3.055   2.603
  958SOL    HW2 2893   0.161   3.074   2.464
  959SOL     OW 2894   0.672   3.253   3.486
  959SOL    HW1 2895   0.594   3.203   3.524
  959SOL    HW2 2896   0.669   3.348   3.517
  960SOL     OW 2897   1.824   2.054   3.089
  960SOL    HW1 2898   1.820   1.964   3.133
  960SOL    HW2 2899   1.827   2.043   2.990
  961SOL     OW 2900   0.428   2.286   2.382
  961SOL    HW1 2901   0.458   2.214   2.320
  961SOL    HW2 2902   0.389   2.246   2.465
  962SOL     OW 2903   1.705   3.349   2.966
  962SOL    HW1 2904   1.612   3.324   2.939
  962SOL    HW2 2905   1.731   3.299   3.048
  963SOL     OW 2906   0.317   2.409   3.142
  963SOL    HW1 2907   0.355   2.350   3.214
  963SOL    HW2 2908   0.357   2.383   3.054
  964SOL     OW 2909   0.812   3.448   2.549
  964SOL    HW1 2910   0.844   3.458   2.455
  964SOL    HW2 2911   0.733   3.386   2.551
  965SOL     OW 2912   1.424   2.076   2.974
  965SOL    HW1 2913   1.476   2.011   3.029
  965SOL    HW2 2914   1.375   2.139   3.035
  966SOL     OW 2915   1.001   1.896   3.016
  966SOL    HW1 2916   0.938   1.824   2.985
  966SOL    HW2 2917   1.094   1.860   3.016
  967SOL     OW 2918   0.770   3.192   2.163
  967SOL    HW1 2919   0.724   3.105   2.180
  967SOL    HW2 2920   0.861   3.189   2.204
  968SOL     OW 2921   0.618   3.429   3.146
  968SOL    HW1 2922   0.613   3.511   3.203
  968SOL    HW2 2923   0.707   3.426   3.101
  969SOL     OW 2924   1.352   1.914   2.030
  969SOL    HW1 2925   1.387   1.873   1.946
  969SOL    HW2 2926   1.262   1.876   2.050
  970SOL     OW 2927   1.300   2.315   2.553
  970SOL    HW1 2928   1.241   2.395   2.557
  970SOL    HW2 2929   1.315   2.280   2.646
  971SOL     OW 2930   1.593   2.083   2.744
  971SOL    HW1 2931   1.509   2.082   2.798
  971SOL    HW2 2932   1.595   2.166   2.688
  972SOL     OW 2933   0.039   2.939   2.162
  972SOL    HW1 2934   0.138   2.928   2.153
  972SOL    HW2 2935  -0.001   2.853   2.194
  973SOL     OW 2936   0.875   3.508   2.199
  973SOL    HW1 2937   0.798   3.473   2.145
  973SOL    HW2 2938   0.843   3.579   2.261
  974SOL     OW 2939   0.230   2.490   3.837
  974SOL    HW1 2940   0.137   2.488   3.874
  974SOL    HW2 2941   0.231   2.451   3.745
  975SOL     OW 2942   0.225   2.137   4.720
  975SOL    HW1 2943   0.260   2.120   4.812
  975SOL    HW2 2944   0.137   2.092   4.708
  976SOL     OW 2945   0.019   2.230   4.371
  976SOL    HW1 2946  -0.063   2.273   4.410
  976SOL    HW2 2947  -0.009   2.157   4.308
  977SOL     OW 2948   1.555   3.373   4.427
  977SOL    HW1 2949   1.498   3.357   4.508
  977SOL    HW2 2950   1.496   3.383   4.347
  978SOL     OW 2951   1.135   2.565   4.441
  978SOL    HW1 2952   1.192   2.643   4.416
  978SOL    HW2 2953   1.075   2.591   4.517
  979SOL     OW 2954   1.755   2.469   3.955
  979SOL    HW1 2955   1.743   2.456   3.856
  979SOL    HW2 2956   1.725   2.388   4.004
  980SOL     OW 2957   0.768   3.006   4.747
  980SOL    HW1 2958   0.690   3.023   4.807
  980SOL    HW2 2959   0.802   3.093   4.711
  981SOL     OW 2960   0.685   2.874   4.389
  981SOL    HW1 2961   0.754   2.858   4.459
  981SOL    HW2 2962   0.612   2.931   4.427
  982SOL     OW 2963   0.335   3.297   4.785
  982SOL    HW1 2964   0.257   3.266   4.732
  982SOL    HW2 2965   0.393   3.355   4.728
  983SOL     OW 2966   1.603   2.309   4.461
  983SOL    HW1 2967   1.529   2.355   4.411
  983SOL    HW2 2968   1.654   2.377   4.514
  984SOL     OW 2969   0.231   3.575   4.207
  984SOL    HW1 2970   0.265   3.652   4.261
  984SOL    HW2 2971   0.275   3.575   4.117
  985SOL     OW 2972   0.230   3.296   4.262
  985SOL    HW1 2973   0.204   3.392   4.262
  985SOL    HW2 2974   0.159   3.242   4.307
  986SOL     OW 2975   0.240   2.953   4.610
  986SOL    HW1 2976   0.254   2.869   4.662
  986SOL    HW2 2977   0.185   3.017   4.665
  987SOL     OW 2978   0.606   2.826   3.847
  987SOL    HW1 2979   0.613   2.910   3.793
  987SOL    HW2 2980   0.652   2.839   3.935
  988SOL     OW 2981   0.122   2.505   4.287
  988SOL    HW1 2982   0.077   2.417   4.304
  988SOL    HW2 2983   0.121   2.559   4.371
  989SOL     OW 2984   1.842   3.629   4.083
  989SOL    HW1 2985   1.896   3.600   4.163
  989SOL    HW2 2986   1.872   3.719   4.054
  990SOL     OW 2987   0.027   3.458   3.841
  990SOL    HW1 2988   0.008   3.362   3.862
  990SOL    HW2 2989  -0.006   3.516   3.916
  991SOL     OW 2990   1.689   2.784   4.336
  991SOL    HW1 2991   1.784   2.755   4.344
  991SOL    HW2 2992   1.681   2.849   4.261
  992SOL     OW 2993   1.641   2.970   4.156
  992SOL    HW1 2994   1.727   2.972   4.104
  992SOL    HW2 2995   1.655   3.017   4.244
  993SOL     OW 2996   0.613   3.227   4.450
  993SOL    HW1 2997   0.564   3.140   4.459
  993SOL    HW2 2998   0.590   3.270   4.363
  994SOL     OW 2999   0.809   1.866   4.226
  994SOL    HW1 3000   0.849   1.957   4.217
  994SOL    HW2 3001   0.709   1.874   4.232
  995SOL     OW 3002   1.525   2.861   3.914
  995SOL    HW1 3003   1.462   2.785   3.927
  995SOL    HW2 3004   1.573   2.879   4.000
  996SOL     OW 3005   1.466   3.279   4.677
  996SOL    HW1 3006   1.407   3.285   4.757
  996SOL    HW2 3007   1.451   3.191   4.631
  997SOL     OW 3008   1.667   3.576   4.296
  997SOL    HW1 3009   1.626   3.553   4.208
  997SOL    HW2 3010   1.649   3.502   4.361
  998SOL     OW 3011   0.598   2.591   3.994
  998SOL    HW1 3012   0.622   2.660   3.926
  998SOL    HW2 3013   0.520   2.624   4.048
  999SOL     OW 3014   1.281   2.207   4.668
  999SOL    HW1 3015   1.195   2.157   4.655
  999SOL    HW2 3016   1.343   2.153   4.724
 1000SOL     OW 3017   1.576   3.524   4.031
 1000SOL    HW1 3018   1.665   3.570   4.034
 1000SOL    HW2 3019   1.555   3.500   3.936
 1001SOL     OW 3020   1.041   2.563   4.153
 1001SOL    HW1 3021   1.067   2.559   4.249
 1001SOL    HW2 3022   0.956   2.512   4.139
 1002SOL     OW 3023   0.076   2.673   4.513
 1002SOL    HW1 3024   0.175   2.661   4.522
 1002SOL    HW2 3025   0.052   2.768   4.534
 1003SOL     OW 3026   0.865   2.210   3.919
 1003SOL    HW1 3027   0.924   2.273   3.870
 1003SOL    HW2 3028   0.884   2.116   3.890
 1004SOL     OW 3029   1.362   3.006   4.269
 1004SOL    HW1 3030   1.445   2.977   4.221
 1004SOL    HW2 3031   1.313   3.073   4.213
 1005SOL     OW 3032   0.550   2.058   4.609
 1005SOL    HW1 3033   0.545   2.053   4.709
 1005SOL    HW2 3034   0.552   2.154   4.580
 1006SOL     OW 3035   1.008   3.318   4.201
 1006SOL    HW1 3036   0.962   3.390   4.149
 1006SOL    HW2 3037   1.004   3.338   4.299
 1007SOL     OW 3038   0.351   3.663   4.577
 1007SOL    HW1 3039   0.401   3.577   4.583
 1007SOL    HW2 3040   0.416   3.740   4.574
 1008SOL     OW 3041   1.795   2.928   4.597
 1008SOL    HW1 3042   1.733   2.913   4.521
 1008SOL    HW2 3043   1.743   2.939   4.682
 1009SOL     OW 3044   0.321   2.805   3.966
 1009SOL    HW1 3045   0.403   2.844   3.924
 1009SOL    HW2 3046   0.294   2.723   3.917
 1010SOL     OW 3047   1.458   2.597   4.452
 1010SOL    HW1 3048   1.453   2.532   4.527
 1010SOL    HW2 3049   1.538   2.656   4.465
 1011SOL     OW 3050   1.111   3.638   3.961
 1011SOL    HW1 3051   1.051   3.576   4.011
 1011SOL    HW2 3052   1.142   3.594   3.876
 1012SOL     OW 3053   1.632   3.239   3.805
 1012SOL    HW1 3054   1.600   3.333   3.795
 1012SOL    HW2 3055   1.556   3.176   3.793
 1013SOL     OW 3056   0.464   3.605   4.047
 1013SOL    HW1 3057   0.497   3.644   4.133
 1013SOL    HW2 3058   0.540   3.598   3.982
 1014SOL     OW 3059   1.400   1.969   4.150
 1014SOL    HW1 3060   1.376   1.932   4.060
 1014SOL    HW2 3061   1.499   1.985   4.154
 1015SOL     OW 3062   0.249   3.647   4.965
 1015SOL    HW1 3063   0.306   3.582   5.015
 1015SOL    HW2 3064   0.233   3.614   4.872
 1016SOL     OW 3065   0.940   3.560   4.628
 1016SOL    HW1 3066   1.020   3.503   4.649
 1016SOL    HW2 3067   0.891   3.520   4.551
 1017SOL     OW 3068   0.382   2.562   4.204
 1017SOL    HW1 3069   0.427   2.472   4.201
 1017SOL    HW2 3070   0.288   2.551   4.237
 1018SOL     OW 3071   0.614   1.984   3.841
 1018SOL    HW1 3072   0.712   1.962   3.848
 1018SOL    HW2 3073   0.583   1.967   3.748
 1019SOL     OW 3074   0.803   3.264   4.648
 1019SOL    HW1 3075   0.893   3.278   4.606
 1019SOL    HW2 3076   0.732   3.266   4.577
 1020SOL     OW 3077   0.922   2.365   4.623
 1020SOL    HW1 3078   0.897   2.356   4.527
 1020SOL    HW2 3079   0.970   2.283   4.654
 1021SOL     OW 3080   0.539   1.926   4.236
 1021SOL    HW1 3081   0.458   1.927   4.294
 1021SOL    HW2 3082   0.542   2.009   4.181
 1022SOL     OW 3083   1.434   3.050   3.765
 1022SOL    HW1 3084   1.466   2.974   3.822
 1022SOL    HW2 3085   1.342   3.077   3.795
 1023SOL     OW 3086   0.297   1.897   3.895
 1023SOL    HW1 3087   0.346   1.981   3.874
 1023SOL    HW2 3088   0.359   1.832   3.940
 1024SOL     OW 3089   0.935   2.098   4.204
 1024SOL    HW1 3090   0.887   2.139   4.126
 1024SOL    HW2 3091   1.034   2.096   4.185
 1025SOL     OW 3092   1.227   3.432   4.517
 1025SOL    HW1 3093   1.248   3.506   4.452
 1025SOL    HW2 3094   1.295   3.432   4.590
 1026SOL     OW 3095   0.459   3.014   4.465
 1026SOL    HW1 3096   0.388   2.987   4.530
 1026SOL    HW2 3097   0.433   2.986   4.372
 1027SOL     OW 3098   1.271   3.659   4.315
 1027SOL    HW1 3099   1.315   3.723   4.251
 1027SOL    HW2 3100   1.221   3.711   4.385
 1028SOL     OW 3101   1.032   2.411   3.740
 1028SOL    HW1 3102   0.991   2.493   3.701
 1028SOL    HW2 3103   1.096   2.437   3.813
 1029SOL     OW 3104   0.866   2.316   4.366
 1029SOL    HW1 3105   0.834   2.388   4.304
 1029SOL    HW2 3106   0.890   2.235   4.313
 1030SOL     OW 3107   1.017   1.901   4.477
 1030SOL    HW1 3108   0.945   1.906   4.408
 1030SOL    HW2 3109   0.993   1.832   4.546
 1031SOL     OW 3110   1.429   3.035   4.591
 1031SOL    HW1 3111   1.374   2.951   4.584
 1031SOL    HW2 3112   1.455   3.064   4.499
 1032SOL     OW 3113   1.466   2.452   4.716
 1032SOL    HW1 3114   1.436   2.357   4.723
 1032SOL    HW2 3115   1.539   2.468   4.782
 1033SOL     OW 3116   1.857   2.695   4.101
 1033SOL    HW1 3117   1.899   2.631   4.165
 1033SOL    HW2 3118   1.819   2.644   4.023
 1034SOL     OW 3119   0.488   3.247   3.898
 1034SOL    HW1 3120   0.401   3.232   3.945
 1034SOL    HW2 3121   0.471   3.273   3.803
 1035SOL     OW 3122   1.664   3.142   4.381
 1035SOL    HW1 3123   1.763   3.150   4.395
 1035SOL    HW2 3124   1.619   3.226   4.412
 1036SOL     OW 3125   1.390   2.437   3.802
 1036SOL    HW1 3126   1.336   2.416   3.883
 1036SOL    HW2 3127   1.481   2.396   3.811
 1037SOL     OW 3128   0.527   2.118   4.052
 1037SOL    HW1 3129   0.554   2.059   3.977
 1037SOL    HW2 3130   0.527   2.213   4.021
 1038SOL     OW 3131   1.638   2.961   4.803
 1038SOL    HW1 3132   1.643   3.042   4.862
 1038SOL    HW2 3133   1.552   2.963   4.752
 1039SOL     OW 3134   0.705   2.912   4.092
 1039SOL    HW1 3135   0.691   2.919   4.191
 1039SOL    HW2 3136   0.789   2.861   4.074
 1040SOL     OW 3137   0.367   2.962   4.225
 1040SOL    HW1 3138   0.360   3.045   4.169
 1040SOL    HW2 3139   0.371   2.882   4.165
 1041SOL     OW 3140   0.566   2.399   4.589
 1041SOL    HW1 3141   0.578   2.465   4.515
 1041SOL    HW2 3142   0.612   2.433   4.672
 1042SOL     OW 3143   1.252   3.210   4.112
 1042SOL    HW1 3144   1.302   3.287   4.152
 1042SOL    HW2 3145   1.157   3.212   4.144
 1043SOL     OW 3146   1.582   2.501   4.196
 1043SOL    HW1 3147   1.551   2.562   4.269
 1043SOL    HW2 3148   1.632   2.553   4.127
 1044SOL     OW 3149   0.573   2.732   4.753
 1044SOL    HW1 3150   0.617   2.821   4.744
 1044SOL    HW2 3151   0.510   2.732   4.830
 1045SOL     OW 3152   1.209   2.387   3.999
 1045SOL    HW1 3153   1.222   2.303   4.053
 1045SOL    HW2 3154   1.180   2.461   4.059
 1046SOL     OW 3155   0.307   2.075   4.955
 1046SOL    HW1 3156   0.284   2.112   5.045
 1046SOL    HW2 3157   0.277   1.980   4.949
 1047SOL     OW 3158   0.732   2.496   4.788
 1047SOL    HW1 3159   0.791   2.470   4.712
 1047SOL    HW2 3160   0.704   2.592   4.777
 1048SOL     OW 3161   0.307   1.925   4.342
 1048SOL    HW1 3162   0.296   2.019   4.375
 1048SOL    HW2 3163   0.302   1.862   4.419
 1049SOL     OW 3164   1.622   2.229   4.098
 1049SOL    HW1 3165   1.624   2.153   4.162
 1049SOL    HW2 3166   1.574   2.306   4.138
 1050SOL     OW 3167   1.540   2.136   3.849
 1050SOL    HW1 3168   1.479   2.061   3.872
 1050SOL    HW2 3169   1.562   2.188   3.932
 1051SOL     OW 3170   1.303   2.700   3.766
 1051SOL    HW1 3171   1.337   2.607   3.781
 1051SOL    HW2 3172   1.321   2.727   3.671
 1052SOL     OW 3173   1.068   3.195   4.573
 1052SOL    HW1 3174   1.075   3.111   4.518
 1052SOL    HW2 3175   1.130   3.264   4.537
 1053SOL     OW 3176   0.319   2.672   4.673
 1053SOL    HW1 3177   0.412   2.708   4.678
 1053SOL    HW2 3178   0.313   2.587   4.725
 1054SOL     OW 3179   0.339   2.371   4.730
 1054SOL    HW1 3180   0.287   2.288   4.713
 1054SOL    HW2 3181   0.416   2.376   4.666
 1055SOL     OW 3182   0.008   3.188   3.924
 1055SOL    HW1 3183  -0.085   3.209   3.893
 1055SOL    HW2 3184   0.018   3.089   3.937
 1056SOL     OW 3185   0.088   3.663   4.651
 1056SOL    HW1 3186   0.046   3.577   4.624
 1056SOL    HW2 3187   0.182   3.666   4.617
 1057SOL     OW 3188   0.504   3.430   4.634
 1057SOL    HW1 3189   0.570   3.504   4.643
 1057SOL    HW2 3190   0.548   3.351   4.592
 1058SOL     OW 3191   1.002   2.658   4.962
 1058SOL    HW1 3192   1.043   2.626   5.048
 1058SOL    HW2 3193   0.906   2.631   4.959
 1059SOL     OW 3194   0.815   2.434   4.049
 1059SOL    HW1 3195   0.822   2.345   4.003
 1059SOL    HW2 3196   0.721   2.468   4.041
 1060SOL     OW 3197   0.671   2.326   4.993
 1060SOL    HW1 3198   0.637   2.237   4.963
 1060SOL    HW2 3199   0.697   2.380   4.913
 1061SOL     OW 3200   0.473   2.362   3.915
 1061SOL    HW1 3201   0.534   2.442   3.919
 1061SOL    HW2 3202   0.378   2.393   3.922
 1062SOL     OW 3203   1.302   2.717   4.033
 1062SOL    HW1 3204   1.216   2.686   4.075
 1062SOL    HW2 3205   1.298   2.703   3.934
 1063SOL     OW 3206   1.759   3.609   4.878
 1063SOL    HW1 3207   1.820   3.639   4.805
 1063SOL    HW2 3208   1.721   3.520   4.856
 1064SOL     OW 3209   0.083   3.120   4.746
 1064SOL    HW1 3210   0.078   3.119   4.846
 1064SOL    HW2 3211   0.000   3.079   4.708
 1065SOL     OW 3212   1.726   1.997   4.247
 1065SOL    HW1 3213   1.799   1.980   4.180
 1065SOL    HW2 3214   1.695   1.910   4.285
 1066SOL     OW 3215   1.388   3.435   4.201
 1066SOL    HW1 3216   1.455   3.447   4.127
 1066SOL    HW2 3217   1.348   3.524   4.224
 1067SOL     OW 3218   1.280   2.789   4.396
 1067SOL    HW1 3219   1.340   2.708   4.398
 1067SOL    HW2 3220   1.320   2.858   4.336
 1068SOL     OW 3221   0.672   3.478   3.878
 1068SOL    HW1 3222   0.681   3.488   3.779
 1068SOL    HW2 3223   0.632   3.389   3.899
 1069SOL     OW 3224   1.841   2.037   4.687
 1069SOL    HW1 3225   1.880   1.952   4.651
 1069SOL    HW2 3226   1.743   2.039   4.668
 1070SOL     OW 3227   0.263   2.188   4.444
 1070SOL    HW1 3228   0.184   2.239   4.410
 1070SOL    HW2 3229   0.254   2.173   4.542
 1071SOL     OW 3230   1.194   3.474   3.755
 1071SOL    HW1 3231   1.200   3.381   3.792
 1071SOL    HW2 3232   1.135   3.474   3.675
 1072SOL     OW 3233   0.916   2.772   4.015
 1072SOL    HW1 3234   0.979   2.810   3.947
 1072SOL    HW2 3235   0.956   2.689   4.054
 1073SOL     OW 3236   1.504   3.469   3.768
 1073SOL    HW1 3237   1.412   3.506   3.775
 1073SOL    HW2 3238   1.542   3.489   3.678
 1074SOL     OW 3239   1.039   2.960   4.420
 1074SOL    HW1 3240   0.969   2.913   4.474
 1074SOL    HW2 3241   1.098   2.892   4.377
 1075SOL     OW 3242   0.590   3.349   4.215
 1075SOL    HW1 3243   0.632   3.291   4.145
 1075SOL    HW2 3244   0.546   3.428   4.171
 1076SOL     OW 3245   0.255   3.210   4.014
 1076SOL    HW1 3246   0.159   3.211   3.987
 1076SOL    HW2 3247   0.267   3.263   4.098
 1077SOL     OW 3248   0.075   2.207   3.757
 1077SOL    HW1 3249  -0.017   2.179   3.728
 1077SOL    HW2 3250   0.106   2.284   3.701
 1078SOL     OW 3251   0.072   2.028   4.042
 1078SOL    HW1 3252   0.055   2.111   3.988
 1078SOL    HW2 3253   0.162   1.991   4.020
 1079SOL     OW 3254   1.183   3.197   3.843
 1079SOL    HW1 3255   1.084   3.186   3.845
 1079SOL    HW2 3256   1.217   3.212   3.936
 1080SOL     OW 3257   1.674   2.745   4.978
 1080SOL    HW1 3258   1.647   2.656   4.941
 1080SOL    HW2 3259   1.675   2.813   4.905
 1081SOL     OW 3260   1.225   2.187   4.173
 1081SOL    HW1 3261   1.290   2.113   4.162
 1081SOL    HW2 3262   1.245   2.237   4.257
 1082SOL     OW 3263   0.594   2.607   4.376
 1082SOL    HW1 3264   0.644   2.692   4.357
 1082SOL    HW2 3265   0.506   2.609   4.328
 1083SOL     OW 3266   0.859   3.236   3.740
 1083SOL    HW1 3267   0.813   3.251   3.828
 1083SOL    HW2 3268   0.903   3.321   3.710
 1084SOL     OW 3269   0.661   3.652   4.677
 1084SOL    HW1 3270   0.615   3.740   4.664
 1084SOL    HW2 3271   0.760   3.664   4.670
 1085SOL     OW 3272   0.859   2.818   4.585
 1085SOL    HW1 3273   0.913   2.749   4.633
 1085SOL    HW2 3274   0.827   2.887   4.651
 1086SOL     OW 3275   1.083   2.846   3.811
 1086SOL    HW1 3276   1.060   2.899   3.729
 1086SOL    HW2 3277   1.164   2.790   3.792
 1087SOL     OW 3278   1.861   3.431   4.575
 1087SOL    HW1 3279   1.790   3.419   4.505
 1087SOL    HW2 3280   1.862   3.352   4.635
 1088SOL     OW 3281   0.079   3.102   4.377
 1088SOL    HW1 3282   0.078   3.055   4.465
 1088SOL    HW2 3283   0.161   3.074   4.326
 1089SOL     OW 3284   1.824   2.054   4.951
 1089SOL    HW1 3285   1.820   1.964   4.995
 1089SOL    HW2 3286   1.827   2.043   4.852
 1090SOL     OW 3287   0.428   2.286   4.244
 1090SOL    HW1 3288   0.458   2.214   4.182
 1090SOL    HW2 3289   0.389   2.246   4.327
 1091SOL     OW 3290   0.812   3.448   4.411
 1091SOL    HW1 3291   0.844   3.458   4.317
 1091SOL    HW2 3292   0.733   3.386   4.413
 1092SOL     OW 3293   0.770   3.192   4.025
 1092SOL    HW1 3294   0.724   3.105   4.042
 1092SOL    HW2 3295   0.861   3.189   4.066
 1093SOL     OW 3296   1.352   1.914   3.892
 1093SOL    HW1 3297   1.387   1.873   3.808
 1093SOL    HW2 3298   1.262   1.876   3.912
 1094SOL     OW 3299   1.300   2.315   4.415
 1094SOL    HW1 3300   1.241   2.395   4.419
 1094SOL    HW2 3301   1.315   2.280   4.508
 1095SOL     OW 3302   1.593   2.083   4.606
 1095SOL    HW1 3303   1.509   2.082   4.660
 1095SOL    HW2 3304   1.595   2.166   4.550
 1096SOL     OW 3305   0.039   2.939   4.024
 1096SOL    HW1 3306   0.138   2.928   4.015
 1096SOL    HW2 3307  -0.001   2.853   4.056
 1097SOL     OW 3308   0.875   3.508   4.061
 1097SOL    HW1 3309   0.798   3.473   4.007
 1097SOL    HW2 3310   0.843   3.579   4.123
 1098SOL     OW 3311   0.230   4.352   0.113
 1098SOL    HW1 3312   0.137   4.350   0.150
 1098SOL    HW2 3313   0.231   4.313   0.021
 1099SOL     OW 3314   0.225   3.999   0.996
 1099SOL    HW1 3315   0.260   3.982   1.088
 1099SOL    HW2 3316   0.137   3.954   0.984
 1100SOL     OW 3317   0.019   4.092   0.647
 1100SOL    HW1 3318  -0.063   4.135   0.686
 1100SOL    HW2 3319  -0.009   4.019   0.584
 1101SOL     OW 3320   1.135   4.427   0.717
 1101SOL    HW1 3321   1.192   4.505   0.692
 1101SOL    HW2 3322   1.075   4.453   0.793
 1102SOL     OW 3323   1.755   4.331   0.231
 1102SOL    HW1 3324   1.743   4.318   0.132
 1102SOL    HW2 3325   1.725   4.250   0.280
 1103SOL     OW 3326   0.768   4.868   1.023
 1103SOL    HW1 3327   0.690   4.885   1.083
 1103SOL    HW2 3328   0.802   4.955   0.987
 1104SOL     OW 3329   0.850   4.522   1.823
 1104SOL    HW1 3330   0.846   4.598   1.888
 1104SOL    HW2 3331   0.872   4.558   1.732
 1105SOL     OW 3332   0.685   4.736   0.665
 1105SOL    HW1 3333   0.754   4.720   0.735
 1105SOL    HW2 3334   0.612   4.793   0.703
 1106SOL     OW 3335   0.438   4.116   1.499
 1106SOL    HW1 3336   0.520   4.060   1.508
 1106SOL    HW2 3337   0.357   4.058   1.503
 1107SOL     OW 3338   1.603   4.171   0.737
 1107SOL    HW1 3339   1.529   4.217   0.687
 1107SOL    HW2 3340   1.654   4.239   0.790
 1108SOL     OW 3341   0.240   4.815   0.886
 1108SOL    HW1 3342   0.254   4.731   0.938
 1108SOL    HW2 3343   0.185   4.879   0.941
 1109SOL     OW 3344   0.606   4.688   0.123
 1109SOL    HW1 3345   0.613   4.772   0.069
 1109SOL    HW2 3346   0.652   4.701   0.211
 1110SOL     OW 3347   1.594   3.838   1.480
 1110SOL    HW1 3348   1.576   3.905   1.408
 1110SOL    HW2 3349   1.591   3.884   1.569
 1111SOL     OW 3350   0.122   4.367   0.563
 1111SOL    HW1 3351   0.077   4.279   0.580
 1111SOL    HW2 3352   0.121   4.421   0.647
 1112SOL     OW 3353   1.689   4.646   0.612
 1112SOL    HW1 3354   1.784   4.617   0.620
 1112SOL    HW2 3355   1.681   4.711   0.537
 1113SOL     OW 3356   0.113   4.461   1.597
 1113SOL    HW1 3357   0.201   4.448   1.642
 1113SOL    HW2 3358   0.100   4.558   1.575
 1114SOL     OW 3359   0.809   3.728   0.502
 1114SOL    HW1 3360   0.849   3.819   0.493
 1114SOL    HW2 3361   0.709   3.736   0.508
 1115SOL     OW 3362   0.197   4.700   1.264
 1115SOL    HW1 3363   0.286   4.655   1.250
 1115SOL    HW2 3364   0.124   4.635   1.245
 1116SOL     OW 3365   1.525   4.723   0.190
 1116SOL    HW1 3366   1.462   4.647   0.203
 1116SOL    HW2 3367   1.573   4.741   0.276
 1117SOL     OW 3368   0.317   3.975   1.801
 1117SOL    HW1 3369   0.388   4.046   1.807
 1117SOL    HW2 3370   0.229   4.014   1.829
 1118SOL     OW 3371   0.598   4.453   0.270
 1118SOL    HW1 3372   0.622   4.522   0.202
 1118SOL    HW2 3373   0.520   4.486   0.324
 1119SOL     OW 3374   1.281   4.069   0.944
 1119SOL    HW1 3375   1.195   4.019   0.931
 1119SOL    HW2 3376   1.343   4.015   1.000
 1120SOL     OW 3377   0.807   4.329   1.465
 1120SOL    HW1 3378   0.760   4.326   1.554
 1120SOL    HW2 3379   0.756   4.274   1.399
 1121SOL     OW 3380   1.394   4.193   1.674
 1121SOL    HW1 3381   1.374   4.236   1.762
 1121SOL    HW2 3382   1.472   4.131   1.683
 1122SOL     OW 3383   0.973   4.614   1.572
 1122SOL    HW1 3384   1.019   4.530   1.543
 1122SOL    HW2 3385   0.917   4.648   1.497
 1123SOL     OW 3386   0.991   4.134   1.242
 1123SOL    HW1 3387   0.914   4.168   1.296
 1123SOL    HW2 3388   0.957   4.083   1.163
 1124SOL     OW 3389   1.041   4.425   0.429
 1124SOL    HW1 3390   1.067   4.421   0.525
 1124SOL    HW2 3391   0.956   4.374   0.415
 1125SOL     OW 3392   0.076   4.535   0.789
 1125SOL    HW1 3393   0.175   4.523   0.798
 1125SOL    HW2 3394   0.052   4.630   0.810
 1126SOL     OW 3395   0.865   4.072   0.195
 1126SOL    HW1 3396   0.924   4.135   0.146
 1126SOL    HW2 3397   0.884   3.978   0.166
 1127SOL     OW 3398   1.719   4.309   1.831
 1127SOL    HW1 3399   1.693   4.398   1.795
 1127SOL    HW2 3400   1.717   4.241   1.758
 1128SOL     OW 3401   0.550   3.920   0.885
 1128SOL    HW1 3402   0.545   3.915   0.985
 1128SOL    HW2 3403   0.552   4.016   0.856
 1129SOL     OW 3404   1.458   4.459   0.728
 1129SOL    HW1 3405   1.453   4.394   0.803
 1129SOL    HW2 3406   1.538   4.518   0.741
 1130SOL     OW 3407   0.202   4.009   1.498
 1130SOL    HW1 3408   0.122   4.069   1.485
 1130SOL    HW2 3409   0.192   3.960   1.584
 1131SOL     OW 3410   1.400   3.831   0.426
 1131SOL    HW1 3411   1.376   3.794   0.336
 1131SOL    HW2 3412   1.499   3.847   0.430
 1132SOL     OW 3413   0.382   4.424   0.480
 1132SOL    HW1 3414   0.427   4.334   0.477
 1132SOL    HW2 3415   0.288   4.413   0.513
 1133SOL     OW 3416   1.547   3.946   1.729
 1133SOL    HW1 3417   1.542   3.983   1.821
 1133SOL    HW2 3418   1.475   3.877   1.717
 1134SOL     OW 3419   0.614   3.846   0.117
 1134SOL    HW1 3420   0.712   3.824   0.124
 1134SOL    HW2 3421   0.583   3.829   0.024
 1135SOL     OW 3422   0.781   3.988   1.749
 1135SOL    HW1 3423   0.848   3.927   1.792
 1135SOL    HW2 3424   0.708   4.007   1.814
 1136SOL     OW 3425   1.351   4.314   1.433
 1136SOL    HW1 3426   1.379   4.271   1.518
 1136SOL    HW2 3427   1.376   4.410   1.434
 1137SOL     OW 3428   0.922   4.227   0.899
 1137SOL    HW1 3429   0.897   4.218   0.803
 1137SOL    HW2 3430   0.970   4.145   0.930
 1138SOL     OW 3431   0.539   3.788   0.512
 1138SOL    HW1 3432   0.458   3.789   0.570
 1138SOL    HW2 3433   0.542   3.871   0.457
 1139SOL     OW 3434   0.935   3.960   0.480
 1139SOL    HW1 3435   0.887   4.001   0.402
 1139SOL    HW2 3436   1.034   3.958   0.461
 1140SOL     OW 3437   1.076   4.407   1.464
 1140SOL    HW1 3438   0.996   4.346   1.467
 1140SOL    HW2 3439   1.157   4.354   1.440
 1141SOL     OW 3440   1.032   4.273   0.016
 1141SOL    HW1 3441   0.991   4.355  -0.023
 1141SOL    HW2 3442   1.096   4.299   0.089
 1142SOL     OW 3443   0.078   4.280   1.386
 1142SOL    HW1 3444   0.170   4.279   1.345
 1142SOL    HW2 3445   0.072   4.354   1.453
 1143SOL     OW 3446   0.561   3.946   1.147
 1143SOL    HW1 3447   0.599   3.862   1.184
 1143SOL    HW2 3448   0.473   3.965   1.191
 1144SOL     OW 3449   0.866   4.178   0.642
 1144SOL    HW1 3450   0.834   4.250   0.580
 1144SOL    HW2 3451   0.890   4.097   0.589
 1145SOL     OW 3452   1.017   3.763   0.753
 1145SOL    HW1 3453   0.945   3.768   0.684
 1145SOL    HW2 3454   0.993   3.694   0.822
 1146SOL     OW 3455   1.429   4.897   0.867
 1146SOL    HW1 3456   1.374   4.813   0.860
 1146SOL    HW2 3457   1.455   4.926   0.775
 1147SOL     OW 3458   1.466   4.314   0.992
 1147SOL    HW1 3459   1.436   4.219   0.999
 1147SOL    HW2 3460   1.539   4.330   1.058
 1148SOL     OW 3461   1.857   4.557   0.377
 1148SOL    HW1 3462   1.899   4.493   0.441
 1148SOL    HW2 3463   1.819   4.506   0.299
 1149SOL     OW 3464   1.390   4.299   0.078
 1149SOL    HW1 3465   1.336   4.278   0.159
 1149SOL    HW2 3466   1.481   4.258   0.087
 1150SOL     OW 3467   0.527   3.980   0.328
 1150SOL    HW1 3468   0.554   3.921   0.253
 1150SOL    HW2 3469   0.527   4.075   0.297
 1151SOL     OW 3470   1.638   4.823   1.079
 1151SOL    HW1 3471   1.643   4.904   1.138
 1151SOL    HW2 3472   1.552   4.825   1.028
 1152SOL     OW 3473   0.915   3.813   1.402
 1152SOL    HW1 3474   0.940   3.793   1.307
 1152SOL    HW2 3475   0.987   3.869   1.444
 1153SOL     OW 3476   0.410   4.537   1.251
 1153SOL    HW1 3477   0.496   4.549   1.301
 1153SOL    HW2 3478   0.368   4.450   1.278
 1154SOL     OW 3479   1.274   4.110   1.262
 1154SOL    HW1 3480   1.295   4.184   1.326
 1154SOL    HW2 3481   1.185   4.127   1.219
 1155SOL     OW 3482   0.566   4.261   0.865
 1155SOL    HW1 3483   0.578   4.327   0.791
 1155SOL    HW2 3484   0.612   4.295   0.948
 1156SOL     OW 3485   1.582   4.363   0.472
 1156SOL    HW1 3486   1.551   4.424   0.545
 1156SOL    HW2 3487   1.632   4.415   0.403
 1157SOL     OW 3488   0.402   4.475   1.598
 1157SOL    HW1 3489   0.470   4.530   1.551
 1157SOL    HW2 3490   0.442   4.387   1.625
 1158SOL     OW 3491   1.587   4.503   1.670
 1158SOL    HW1 3492   1.495   4.541   1.665
 1158SOL    HW2 3493   1.647   4.550   1.605
 1159SOL     OW 3494   1.013   3.829   1.770
 1159SOL    HW1 3495   1.019   3.914   1.718
 1159SOL    HW2 3496   1.045   3.753   1.713
 1160SOL     OW 3497   0.504   3.774   1.740
 1160SOL    HW1 3498   0.462   3.717   1.670
 1160SOL    HW2 3499   0.438   3.843   1.772
 1161SOL     OW 3500   0.573   4.594   1.029
 1161SOL    HW1 3501   0.617   4.683   1.020
 1161SOL    HW2 3502   0.510   4.594   1.106
 1162SOL     OW 3503   1.360   4.586   1.045
 1162SOL    HW1 3504   1.285   4.586   0.979
 1162SOL    HW2 3505   1.397   4.494   1.054
 1163SOL     OW 3506   1.209   4.249   0.275
 1163SOL    HW1 3507   1.222   4.165   0.329
 1163SOL    HW2 3508   1.180   4.323   0.335
 1164SOL     OW 3509   0.307   3.937   1.231
 1164SOL    HW1 3510   0.284   3.974   1.321
 1164SOL    HW2 3511   0.277   3.842   1.225
 1165SOL     OW 3512   0.037   5.034   1.282
 1165SOL    HW1 3513   0.090   4.985   1.350
 1165SOL    HW2 3514   0.059   5.132   1.287
 1166SOL     OW 3515   0.732   4.358   1.064
 1166SOL    HW1 3516   0.791   4.332   0.988
 1166SOL    HW2 3517   0.704   4.454   1.053
 1167SOL     OW 3518   1.728   4.659   1.854
 1167SOL    HW1 3519   1.682   4.652   1.765
 1167SOL    HW2 3520   1.666   4.703   1.920
 1168SOL     OW 3521   0.307   3.787   0.618
 1168SOL    HW1 3522   0.296   3.881   0.651
 1168SOL    HW2 3523   0.302   3.724   0.695
 1169SOL     OW 3524   1.622   4.091   0.374
 1169SOL    HW1 3525   1.624   4.015   0.438
 1169SOL    HW2 3526   1.574   4.168   0.414
 1170SOL     OW 3527   1.023   4.490   0.966
 1170SOL    HW1 3528   1.038   4.511   1.062
 1170SOL    HW2 3529   0.993   4.395   0.957
 1171SOL     OW 3530   0.350   4.622   1.804
 1171SOL    HW1 3531   0.426   4.666   1.852
 1171SOL    HW2 3532   0.385   4.575   1.722
 1172SOL     OW 3533   1.540   3.998   0.125
 1172SOL    HW1 3534   1.479   3.923   0.148
 1172SOL    HW2 3535   1.562   4.050   0.208
 1173SOL     OW 3536   1.303   4.562   0.042
 1173SOL    HW1 3537   1.337   4.469   0.057
 1173SOL    HW2 3538   1.321   4.589  -0.053
 1174SOL     OW 3539   0.319   4.534   0.949
 1174SOL    HW1 3540   0.412   4.570   0.954
 1174SOL    HW2 3541   0.313   4.449   1.001
 1175SOL     OW 3542   0.339   4.233   1.006
 1175SOL    HW1 3543   0.287   4.150   0.989
 1175SOL    HW2 3544   0.416   4.238   0.942
 1176SOL     OW 3545   1.138   4.104   1.678
 1176SOL    HW1 3546   1.093   4.167   1.742
 1176SOL    HW2 3547   1.231   4.135   1.661
 1177SOL     OW 3548   1.160   3.931   1.477
 1177SOL    HW1 3549   1.160   3.995   1.554
 1177SOL    HW2 3550   1.188   3.979   1.394
 1178SOL     OW 3551   1.002   4.520   1.238
 1178SOL    HW1 3552   1.043   4.488   1.324
 1178SOL    HW2 3553   0.906   4.493   1.235
 1179SOL     OW 3554   0.040   4.268   1.114
 1179SOL    HW1 3555   0.125   4.235   1.073
 1179SOL    HW2 3556   0.053   4.283   1.212
 1180SOL     OW 3557   0.189   4.244   1.722
 1180SOL    HW1 3558   0.248   4.204   1.652
 1180SOL    HW2 3559   0.131   4.315   1.681
 1181SOL     OW 3560   1.369   4.674   1.660
 1181SOL    HW1 3561   1.408   4.763   1.680
 1181SOL    HW2 3562   1.379   4.654   1.563
 1182SOL     OW 3563   0.815   4.296   0.325
 1182SOL    HW1 3564   0.822   4.207   0.279
 1182SOL    HW2 3565   0.721   4.330   0.317
 1183SOL     OW 3566   1.657   4.328   1.206
 1183SOL    HW1 3567   1.619   4.259   1.268
 1183SOL    HW2 3568   1.739   4.292   1.162
 1184SOL     OW 3569   0.671   4.188   1.269
 1184SOL    HW1 3570   0.637   4.099   1.239
 1184SOL    HW2 3571   0.697   4.242   1.189
 1185SOL     OW 3572   0.473   4.224   0.191
 1185SOL    HW1 3573   0.534   4.304   0.195
 1185SOL    HW2 3574   0.378   4.255   0.198
 1186SOL     OW 3575   0.159   4.861   1.466
 1186SOL    HW1 3576   0.181   4.800   1.542
 1186SOL    HW2 3577   0.169   4.812   1.380
 1187SOL     OW 3578   1.347   4.783   1.234
 1187SOL    HW1 3579   1.371   4.720   1.160
 1187SOL    HW2 3580   1.257   4.823   1.216
 1188SOL     OW 3581   1.302   4.579   0.309
 1188SOL    HW1 3582   1.216   4.548   0.351
 1188SOL    HW2 3583   1.298   4.565   0.210
 1189SOL     OW 3584   0.903   3.810   0.133
 1189SOL    HW1 3585   0.954   3.811   0.047
 1189SOL    HW2 3586   0.959   3.768   0.204
 1190SOL     OW 3587   1.726   3.859   0.523
 1190SOL    HW1 3588   1.799   3.842   0.456
 1190SOL    HW2 3589   1.695   3.772   0.561
 1191SOL     OW 3590   1.280   4.651   0.672
 1191SOL    HW1 3591   1.340   4.570   0.674
 1191SOL    HW2 3592   1.320   4.720   0.612
 1192SOL     OW 3593   1.841   3.899   0.963
 1192SOL    HW1 3594   1.880   3.814   0.927
 1192SOL    HW2 3595   1.743   3.901   0.944
 1193SOL     OW 3596   0.263   4.050   0.720
 1193SOL    HW1 3597   0.184   4.101   0.686
 1193SOL    HW2 3598   0.254   4.035   0.818
 1194SOL     OW 3599   0.916   4.634   0.291
 1194SOL    HW1 3600   0.979   4.672   0.223
 1194SOL    HW2 3601   0.956   4.551   0.330
 1195SOL     OW 3602   1.014   3.960   0.971
 1195SOL    HW1 3603   1.006   3.924   0.878
 1195SOL    HW2 3604   1.012   3.884   1.036
 1196SOL     OW 3605   1.709   4.109   1.381
 1196SOL    HW1 3606   1.782   4.178   1.385
 1196SOL    HW2 3607   1.737   4.034   1.322
 1197SOL     OW 3608   0.105   4.737   1.726
 1197SOL    HW1 3609   0.028   4.704   1.780
 1197SOL    HW2 3610   0.190   4.707   1.768
 1198SOL     OW 3611   0.672   3.927   1.489
 1198SOL    HW1 3612   0.762   3.911   1.449
 1198SOL    HW2 3613   0.680   3.932   1.588
 1199SOL     OW 3614   0.075   4.069   0.033
 1199SOL    HW1 3615  -0.017   4.041   0.004
 1199SOL    HW2 3616   0.106   4.146  -0.023
 1200SOL     OW 3617   1.440   4.580   1.398
 1200SOL    HW1 3618   1.383   4.632   1.335
 1200SOL    HW2 3619   1.536   4.592   1.374
 1201SOL     OW 3620   0.072   3.890   0.318
 1201SOL    HW1 3621   0.055   3.973   0.264
 1201SOL    HW2 3622   0.162   3.853   0.296
 1202SOL     OW 3623   1.183   5.059   0.119
 1202SOL    HW1 3624   1.084   5.048   0.121
 1202SOL    HW2 3625   1.217   5.074   0.212
 1203SOL     OW 3626   0.613   4.566   1.431
 1203SOL    HW1 3627   0.669   4.647   1.414
 1203SOL    HW2 3628   0.672   4.486   1.434
 1204SOL     OW 3629   0.716   4.289   1.708
 1204SOL    HW1 3630   0.735   4.354   1.782
 1204SOL    HW2 3631   0.776   4.209   1.717
 1205SOL     OW 3632   1.674   4.607   1.254
 1205SOL    HW1 3633   1.647   4.518   1.217
 1205SOL    HW2 3634   1.675   4.675   1.181
 1206SOL     OW 3635   1.225   4.049   0.449
 1206SOL    HW1 3636   1.290   3.975   0.438
 1206SOL    HW2 3637   1.245   4.099   0.533
 1207SOL     OW 3638   0.594   4.469   0.652
 1207SOL    HW1 3639   0.644   4.554   0.633
 1207SOL    HW2 3640   0.506   4.471   0.604
 1208SOL     OW 3641   1.777   4.066   1.642
 1208SOL    HW1 3642   1.760   4.097   1.548
 1208SOL    HW2 3643   1.693   4.029   1.680
 1209SOL     OW 3644   1.730   4.658   1.517
 1209SOL    HW1 3645   1.768   4.749   1.532
 1209SOL    HW2 3646   1.722   4.641   1.418
 1210SOL     OW 3647   0.859   4.680   0.861
 1210SOL    HW1 3648   0.913   4.611   0.909
 1210SOL    HW2 3649   0.827   4.749   0.927
 1211SOL     OW 3650   1.083   4.708   0.087
 1211SOL    HW1 3651   1.060   4.761   0.005
 1211SOL    HW2 3652   1.164   4.652   0.068
 1212SOL     OW 3653   0.079   4.964   0.653
 1212SOL    HW1 3654   0.078   4.917   0.741
 1212SOL    HW2 3655   0.161   4.936   0.602
 1213SOL     OW 3656   1.824   3.916   1.227
 1213SOL    HW1 3657   1.820   3.826   1.271
 1213SOL    HW2 3658   1.827   3.905   1.128
 1214SOL     OW 3659   0.428   4.148   0.520
 1214SOL    HW1 3660   0.458   4.076   0.458
 1214SOL    HW2 3661   0.389   4.108   0.603
 1215SOL     OW 3662   0.317   4.271   1.280
 1215SOL    HW1 3663   0.355   4.212   1.352
 1215SOL    HW2 3664   0.357   4.245   1.192
 1216SOL     OW 3665   1.424   3.938   1.112
 1216SOL    HW1 3666   1.476   3.873   1.167
 1216SOL    HW2 3667   1.375   4.001   1.173
 1217SOL     OW 3668   1.001   3.758   1.154
 1217SOL    HW1 3669   0.938   3.686   1.123
 1217SOL    HW2 3670   1.094   3.722   1.154
 1218SOL     OW 3671   1.352   3.776   0.168
 1218SOL    HW1 3672   1.387   3.735   0.084
 1218SOL    HW2 3673   1.262   3.738   0.188
 1219SOL     OW 3674   1.300   4.177   0.691
 1219SOL    HW1 3675   1.241   4.257   0.695
 1219SOL    HW2 3676   1.315   4.142   0.784
 1220SOL     OW 3677   1.593   3.945   0.882
 1220SOL    HW1 3678   1.509   3.944   0.936
 1220SOL    HW2 3679   1.595   4.028   0.826
 1221SOL     OW 3680   0.039   4.801   0.300
 1221SOL    HW1 3681   0.138   4.790   0.291
 1221SOL    HW2 3682  -0.001   4.715   0.332
 1222SOL     OW 3683   0.230   4.352   1.975
 1222SOL    HW1 3684   0.137   4.350   2.012
 1222SOL    HW2 3685   0.231   4.313   1.883
 1223SOL     OW 3686   0.225   3.999   2.858
 1223SOL    HW1 3687   0.260   3.982   2.950
 1223SOL    HW2 3688   0.137   3.954   2.846
 1224SOL     OW 3689   0.019   4.092   2.509
 1224SOL    HW1 3690  -0.063   4.135   2.548
 1224SOL    HW2 3691  -0.009   4.019   2.446
 1225SOL     OW 3692   1.135   4.427   2.579
 1225SOL    HW1 3693   1.192   4.505   2.554
 1225SOL    HW2 3694   1.075   4.453   2.655
 1226SOL     OW 3695   1.755   4.331   2.093
 1226SOL    HW1 3696   1.743   4.318   1.994
 1226SOL    HW2 3697   1.725   4.250   2.142
 1227SOL     OW 3698   0.768   4.868   2.885
 1227SOL    HW1 3699   0.690   4.885   2.945
 1227SOL    HW2 3700   0.802   4.955   2.849
 1228SOL     OW 3701   0.850   4.522   3.685
 1228SOL    HW1 3702   0.846   4.598   3.750
 1228SOL    HW2 3703   0.872   4.558   3.594
 1229SOL     OW 3704   0.685   4.736   2.527
 1229SOL    HW1 3705   0.754   4.720   2.597
 1229SOL    HW2 3706   0.612   4.793   2.565
 1230SOL     OW 3707   0.438   4.116   3.361
 1230SOL    HW1 3708   0.520   4.060   3.370
 1230SOL    HW2 3709   0.357   4.058   3.365
 1231SOL     OW 3710   1.603   4.171   2.599
 1231SOL    HW1 3711   1.529   4.217   2.549
 1231SOL    HW2 3712   1.654   4.239   2.652
 1232SOL     OW 3713   0.240   4.815   2.748
 1232SOL    HW1 3714   0.254   4.731   2.800
 1232SOL    HW2 3715   0.185   4.879   2.803
 1233SOL     OW 3716   0.606   4.688   1.985
 1233SOL    HW1 3717   0.613   4.772   1.931
 1233SOL    HW2 3718   0.652   4.701   2.073
 1234SOL     OW 3719   1.594   3.838   3.342
 1234SOL    HW1 3720   1.576   3.905   3.270
 1234SOL    HW2 3721   1.591   3.884   3.431
 1235SOL     OW 3722   0.122   4.367   2.425
 1235SOL    HW1 3723   0.077   4.279   2.442
 1235SOL    HW2 3724   0.121   4.421   2.509
 1236SOL     OW 3725   1.689   4.646   2.474
 1236SOL    HW1 3726   1.784   4.617   2.482
 1236SOL    HW2 3727   1.681   4.711   2.399
 1237SOL     OW 3728   0.113   4.461   3.459
 1237SOL    HW1 3729   0.201   4.448   3.504
 1237SOL    HW2 3730   0.100   4.558   3.437
 1238SOL     OW 3731   0.809   3.728   2.364
 1238SOL    HW1 3732   0.849   3.819   2.355
 1238SOL    HW2 3733   0.709   3.736   2.370
 1239SOL     OW 3734   0.197   4.700   3.126
 1239SOL    HW1 3735   0.286   4.655   3.112
 1239SOL    HW2 3736   0.124   4.635   3.107
 1240SOL     OW 3737   1.525   4.723   2.052
 1240SOL    HW1 3738   1.462   4.647   2.065
 1240SOL    HW2 3739   1.573   4.741   2.138
 1241SOL     OW 3740   0.317   3.975   3.663
 1241SOL    HW1 3741   0.388   4.046   3.669
 1241SOL    HW2 3742   0.229   4.014   3.691
 1242SOL     OW 3743   0.598   4.453   2.132
 1242SOL    HW1 3744   0.622   4.522   2.064
 1242SOL    HW2 3745   0.520   4.486   2.186
 1243SOL     OW 3746   1.281   4.069   2.806
 1243SOL    HW1 3747   1.195   4.019   2.793
 1243SOL    HW2 3748   1.343   4.015   2.862
 1244SOL     OW 3749   0.807   4.329   3.327
 1244SOL    HW1 3750   0.760   4.326   3.416
 1244SOL    HW2 3751   0.756   4.274   3.261
 1245SOL     OW 3752   1.394   4.193   3.536
 1245SOL    HW1 3753   1.374   4.236   3.624
 1245SOL    HW2 3754   1.472   4.131   3.545
 1246SOL     OW 3755   0.973   4.614   3.434
 1246SOL    HW1 3756   1.019   4.530   3.405
 1246SOL    HW2 3757   0.917   4.648   3.359
 1247SOL     OW 3758   0.991   4.134   3.104
 1247SOL    HW1 3759   0.914   4.168   3.158
 1247SOL    HW2 3760   0.957   4.083   3.025
 1248SOL     OW 3761   1.041   4.425   2.291
 1248SOL    HW1 3762   1.067   4.421   2.387
 1248SOL    HW2 3763   0.956   4.374   2.277
 1249SOL     OW 3764   0.076   4.535   2.651
 1249SOL    HW1 3765   0.175   4.523   2.660
 1249SOL    HW2 3766   0.052   4.630   2.672
 1250SOL     OW 3767   0.865   4.072   2.057
 1250SOL    HW1 3768   0.924   4.135   2.008
 1250SOL    HW2 3769   0.884   3.978   2.028
 1251SOL     OW 3770   1.719   4.309   3.693
 1251SOL    HW1 3771   1.693   4.398   3.657
 1251SOL    HW2 3772   1.717   4.241   3.620
 1252SOL     OW 3773   0.550   3.920   2.747
 1252SOL    HW1 3774   0.545   3.915   2.847
 1252SOL    HW2 3775   0.552   4.016   2.718
 1253SOL     OW 3776   1.458   4.459   2.590
 1253SOL    HW1 3777   1.453   4.394   2.665
 1253SOL    HW2 3778   1.538   4.518   2.603
 1254SOL     OW 3779   0.202   4.009   3.360
 1254SOL    HW1 3780   0.122   4.069   3.347
 1254SOL    HW2 3781   0.192   3.960   3.446
 1255SOL     OW 3782   1.400   3.831   2.288
 1255SOL    HW1 3783   1.376   3.794   2.198
 1255SOL    HW2 3784   1.499   3.847   2.292
 1256SOL     OW 3785   0.382   4.424   2.342
 1256SOL    HW1 3786   0.427   4.334   2.339
 1256SOL    HW2 3787   0.288   4.413   2.375
 1257SOL     OW 3788   1.547   3.946   3.591
 1257SOL    HW1 3789   1.542   3.983   3.683
 1257SOL    HW2 3790   1.475   3.877   3.579
 1258SOL     OW 3791   0.614   3.846   1.979
 1258SOL    HW1 3792   0.712   3.824   1.986
 1258SOL    HW2 3793   0.583   3.829   1.886
 1259SOL     OW 3794   0.781   3.988   3.611
 1259SOL    HW1 3795   0.848   3.927   3.654
 1259SOL    HW2 3796   0.708   4.007   3.676
 1260SOL     OW 3797   1.351   4.314   3.295
 1260SOL    HW1 3798   1.379   4.271   3.380
 1260SOL    HW2 3799   1.376   4.410   3.296
 1261SOL     OW 3800   0.922   4.227   2.761
 1261SOL    HW1 3801   0.897   4.218   2.665
 1261SOL    HW2 3802   0.970   4.145   2.792
 1262SOL     OW 3803   0.539   3.788   2.374
 1262SOL    HW1 3804   0.458   3.789   2.432
 1262SOL    HW2 3805   0.542   3.871   2.319
 1263SOL     OW 3806   0.297   3.759   2.033
 1263SOL    HW1 3807   0.346   3.843   2.012
 1263SOL    HW2 3808   0.359   3.694   2.078
 1264SOL     OW 3809   0.935   3.960   2.342
 1264SOL    HW1 3810   0.887   4.001   2.264
 1264SOL    HW2 3811   1.034   3.958   2.323
 1265SOL     OW 3812   1.076   4.407   3.326
 1265SOL    HW1 3813   0.996   4.346   3.329
 1265SOL    HW2 3814   1.157   4.354   3.302
 1266SOL     OW 3815   1.032   4.273   1.878
 1266SOL    HW1 3816   0.991   4.355   1.839
 1266SOL    HW2 3817   1.096   4.299   1.951
 1267SOL     OW 3818   0.078   4.280   3.248
 1267SOL    HW1 3819   0.170   4.279   3.207
 1267SOL    HW2 3820   0.072   4.354   3.315
 1268SOL     OW 3821   0.561   3.946   3.009
 1268SOL    HW1 3822   0.599   3.862   3.046
 1268SOL    HW2 3823   0.473   3.965   3.053
 1269SOL     OW 3824   0.866   4.178   2.504
 1269SOL    HW1 3825   0.834   4.250   2.442
 1269SOL    HW2 3826   0.890   4.097   2.451
 1270SOL     OW 3827   1.017   3.763   2.615
 1270SOL    HW1 3828   0.945   3.768   2.546
 1270SOL    HW2 3829   0.993   3.694   2.684
 1271SOL     OW 3830   1.429   4.897   2.729
 1271SOL    HW1 3831   1.374   4.813   2.722
 1271SOL    HW2 3832   1.455   4.926   2.637
 1272SOL     OW 3833   1.466   4.314   2.854
 1272SOL    HW1 3834   1.436   4.219   2.861
 1272SOL    HW2 3835   1.539   4.330   2.920
 1273SOL     OW 3836   1.857   4.557   2.239
 1273SOL    HW1 3837   1.899   4.493   2.303
 1273SOL    HW2 3838   1.819   4.506   2.161
 1274SOL     OW 3839   1.390   4.299   1.940
 1274SOL    HW1 3840   1.336   4.278   2.021
 1274SOL    HW2 3841   1.481   4.258   1.949
 1275SOL     OW 3842   0.527   3.980   2.190
 1275SOL    HW1 3843   0.554   3.921   2.115
 1275SOL    HW2 3844   0.527   4.075   2.159
 1276SOL     OW 3845   1.638   4.823   2.941
 1276SOL    HW1 3846   1.643   4.904   3.000
 1276SOL    HW2 3847   1.552   4.825   2.890
 1277SOL     OW 3848   0.915   3.813   3.264
 1277SOL    HW1 3849   0.940   3.793   3.169
 1277SOL    HW2 3850   0.987   3.869   3.306
 1278SOL     OW 3851   0.410   4.537   3.113
 1278SOL    HW1 3852   0.496   4.549   3.163
 1278SOL    HW2 3853   0.368   4.450   3.140
 1279SOL     OW 3854   1.274   4.110   3.124
 1279SOL    HW1 3855   1.295   4.184   3.188
 1279SOL    HW2 3856   1.185   4.127   3.081
 1280SOL     OW 3857   0.566   4.261   2.727
 1280SOL    HW1 3858   0.578   4.327   2.653
 1280SOL    HW2 3859   0.612   4.295   2.810
 1281SOL     OW 3860   1.582   4.363   2.334
 1281SOL    HW1 3861   1.551   4.424   2.407
 1281SOL    HW2 3862   1.632   4.415   2.265
 1282SOL     OW 3863   0.402   4.475   3.460
 1282SOL    HW1 3864   0.470   4.530   3.413
 1282SOL    HW2 3865   0.442   4.387   3.487
 1283SOL     OW 3866   1.587   4.503   3.532
 1283SOL    HW1 3867   1.495   4.541   3.527
 1283SOL    HW2 3868   1.647   4.550   3.467
 1284SOL     OW 3869   1.013   3.829   3.632
 1284SOL    HW1 3870   1.019   3.914   3.580
 1284SOL    HW2 3871   1.045   3.753   3.575
 1285SOL     OW 3872   0.504   3.774   3.602
 1285SOL    HW1 3873   0.462   3.717   3.532
 1285SOL    HW2 3874   0.438   3.843   3.634
 1286SOL     OW 3875   0.573   4.594   2.891
 1286SOL    HW1 3876   0.617   4.683   2.882
 1286SOL    HW2 3877   0.510   4.594   2.968
 1287SOL     OW 3878   1.360   4.586   2.907
 1287SOL    HW1 3879   1.285   4.586   2.841
 1287SOL    HW2 3880   1.397   4.494   2.916
 1288SOL     OW 3881   1.209   4.249   2.137
 1288SOL    HW1 3882   1.222   4.165   2.191
 1288SOL    HW2 3883   1.180   4.323   2.197
 1289SOL     OW 3884   0.307   3.937   3.093
 1289SOL    HW1 3885   0.284   3.974   3.183
 1289SOL    HW2 3886   0.277   3.842   3.087
 1290SOL     OW 3887   0.037   5.034   3.144
 1290SOL    HW1 3888   0.090   4.985   3.212
 1290SOL    HW2 3889   0.059   5.132   3.149
 1291SOL     OW 3890   0.732   4.358   2.926
 1291SOL    HW1 3891   0.791   4.332   2.850
 1291SOL    HW2 3892   0.704   4.454   2.915
 1292SOL     OW 3893   1.728   4.659   3.716
 1292SOL    HW1 3894   1.682   4.652   3.627
 1292SOL    HW2 3895   1.666   4.703   3.782
 1293SOL     OW 3896   0.307   3.787   2.480
 1293SOL    HW1 3897   0.296   3.881   2.513
 1293SOL    HW2 3898   0.302   3.724   2.557
 1294SOL     OW 3899   1.622   4.091   2.236
 1294SOL    HW1 3900   1.624   4.015   2.300
 1294SOL    HW2 3901   1.574   4.168   2.276
 1295SOL     OW 3902   1.023   4.490   2.828
 1295SOL    HW1 3903   1.038   4.511   2.924
 1295SOL    HW2 3904   0.993   4.395   2.819
 1296SOL     OW 3905   0.350   4.622   3.666
 1296SOL    HW1 3906   0.426   4.666   3.714
 1296SOL    HW2 3907   0.385   4.575   3.584
 1297SOL     OW 3908   1.540   3.998   1.987
 1297SOL    HW1 3909   1.479   3.923   2.010
 1297SOL    HW2 3910   1.562   4.050   2.070
 1298SOL     OW 3911   1.303   4.562   1.904
 1298SOL    HW1 3912   1.337   4.469   1.919
 1298SOL    HW2 3913   1.321   4.589   1.809
 1299SOL     OW 3914   0.319   4.534   2.811
 1299SOL    HW1 3915   0.412   4.570   2.816
 1299SOL    HW2 3916   0.313   4.449   2.863
 1300SOL     OW 3917   0.339   4.233   2.868
 1300SOL    HW1 3918   0.287   4.150   2.851
 1300SOL    HW2 3919   0.416   4.238   2.804
 1301SOL     OW 3920   1.138   4.104   3.540
 1301SOL    HW1 3921   1.093   4.167   3.604
 1301SOL    HW2 3922   1.231   4.135   3.523
 1302SOL     OW 3923   1.160   3.931   3.339
 1302SOL    HW1 3924   1.160   3.995   3.416
 1302SOL    HW2 3925   1.188   3.979   3.256
 1303SOL     OW 3926   1.002   4.520   3.100
 1303SOL    HW1 3927   1.043   4.488   3.186
 1303SOL    HW2 3928   0.906   4.493   3.097
 1304SOL     OW 3929   0.040   4.268   2.976
 1304SOL    HW1 3930   0.125   4.235   2.935
 1304SOL    HW2 3931   0.053   4.283   3.074
 1305SOL     OW 3932   0.189   4.244   3.584
 1305SOL    HW1 3933   0.248   4.204   3.514
 1305SOL    HW2 3934   0.131   4.315   3.543
 1306SOL     OW 3935   1.369   4.674   3.522
 1306SOL    HW1 3936   1.408   4.763   3.542
 1306SOL    HW2 3937   1.379   4.654   3.425
 1307SOL     OW 3938   0.815   4.296   2.187
 1307SOL    HW1 3939   0.822   4.207   2.141
 1307SOL    HW2 3940   0.721   4.330   2.179
 1308SOL     OW 3941   1.657   4.328   3.068
 1308SOL    HW1 3942   1.619   4.259   3.130
 1308SOL    HW2 3943   1.739   4.292   3.024
 1309SOL     OW 3944   0.671   4.188   3.131
 1309SOL    HW1 3945   0.637   4.099   3.101
 1309SOL    HW2 3946   0.697   4.242   3.051
 1310SOL     OW 3947   0.473   4.224   2.053
 1310SOL    HW1 3948   0.534   4.304   2.057
 1310SOL    HW2 3949   0.378   4.255   2.060
 1311SOL     OW 3950   0.159   4.861   3.328
 1311SOL    HW1 3951   0.181   4.800   3.404
 1311SOL    HW2 3952   0.169   4.812   3.242
 1312SOL     OW 3953   1.347   4.783   3.096
 1312SOL    HW1 3954   1.371   4.720   3.022
 1312SOL    HW2 3955   1.257   4.823   3.078
 1313SOL     OW 3956   1.302   4.579   2.171
 1313SOL    HW1 3957   1.216   4.548   2.213
 1313SOL    HW2 3958   1.298   4.565   2.072
 1314SOL     OW 3959   1.726   3.859   2.385
 1314SOL    HW1 3960   1.799   3.842   2.318
 1314SOL    HW2 3961   1.695   3.772   2.423
 1315SOL     OW 3962   1.280   4.651   2.534
 1315SOL    HW1 3963   1.340   4.570   2.536
 1315SOL    HW2 3964   1.320   4.720   2.474
 1316SOL     OW 3965   1.841   3.899   2.825
 1316SOL    HW1 3966   1.880   3.814   2.789
 1316SOL    HW2 3967   1.743   3.901   2.806
 1317SOL     OW 3968   0.263   4.050   2.582
 1317SOL    HW1 3969   0.184   4.101   2.548
 1317SOL    HW2 3970   0.254   4.035   2.680
 1318SOL     OW 3971   0.916   4.634   2.153
 1318SOL    HW1 3972   0.979   4.672   2.085
 1318SOL    HW2 3973   0.956   4.551   2.192
 1319SOL     OW 3974   1.014   3.960   2.833
 1319SOL    HW1 3975   1.006   3.924   2.740
 1319SOL    HW2 3976   1.012   3.884   2.898
 1320SOL     OW 3977   1.709   4.109   3.243
 1320SOL    HW1 3978   1.782   4.178   3.247
 1320SOL    HW2 3979   1.737   4.034   3.184
 1321SOL     OW 3980   0.105   4.737   3.588
 1321SOL    HW1 3981   0.028   4.704   3.642
 1321SOL    HW2 3982   0.190   4.707   3.630
 1322SOL     OW 3983   0.672   3.927   3.351
 1322SOL    HW1 3984   0.762   3.911   3.311
 1322SOL    HW2 3985   0.680   3.932   3.450
 1323SOL     OW 3986   0.075   4.069   1.895
 1323SOL    HW1 3987  -0.017   4.041   1.866
 1323SOL    HW2 3988   0.106   4.146   1.839
 1324SOL     OW 3989   1.440   4.580   3.260
 1324SOL    HW1 3990   1.383   4.632   3.197
 1324SOL    HW2 3991   1.536   4.592   3.236
 1325SOL     OW 3992   0.072   3.890   2.180
 1325SOL    HW1 3993   0.055   3.973   2.126
 1325SOL    HW2 3994   0.162   3.853   2.158
 1326SOL     OW 3995   1.183   5.059   1.981
 1326SOL    HW1 3996   1.084   5.048   1.983
 1326SOL    HW2 3997   1.217   5.074   2.074
 1327SOL     OW 3998   0.613   4.566   3.293
 1327SOL    HW1 3999   0.669   4.647   3.276
 1327SOL    HW2 4000   0.672   4.486   3.296
 1328SOL     OW 4001   0.716   4.289   3.570
 1328SOL    HW1 4002   0.735   4.354   3.644
 1328SOL    HW2 4003   0.776   4.209   3.579
 1329SOL     OW 4004   1.674   4.607   3.116
 1329SOL    HW1 4005   1.647   4.518   3.079
 1329SOL    HW2 4006   1.675   4.675   3.043
 1330SOL     OW 4007   1.225   4.049   2.311
 1330SOL    HW1 4008   1.290   3.975   2.300
 1330SOL    HW2 4009   1.245   4.099   2.395
 1331SOL     OW 4010   0.594   4.469   2.514
 1331SOL    HW1 4011   0.644   4.554   2.495
 1331SOL    HW2 4012   0.506   4.471   2.466
 1332SOL     OW 4013   1.777   4.066   3.504
 1332SOL    HW1 4014   1.760   4.097   3.410
 1332SOL    HW2 4015   1.693   4.029   3.542
 1333SOL     OW 4016   1.730   4.658   3.379
 1333SOL    HW1 4017   1.768   4.749   3.394
 1333SOL    HW2 4018   1.722   4.641   3.280
 1334SOL     OW 4019   0.859   4.680   2.723
 1334SOL    HW1 4020   0.913   4.611   2.771
 1334SOL    HW2 4021   0.827   4.749   2.789
 1335SOL     OW 4022   1.083   4.708   1.949
 1335SOL    HW1 4023   1.060   4.761   1.867
 1335SOL    HW2 4024   1.164   4.652   1.930
 1336SOL     OW 4025   0.079   4.964   2.515
 1336SOL    HW1 4026   0.078   4.917   2.603
 1336SOL    HW2 4027   0.161   4.936   2.464
 1337SOL     OW 4028   1.824   3.916   3.089
 1337SOL    HW1 4029   1.820   3.826   3.133
 1337SOL    HW2 4030   1.827   3.905   2.990
 1338SOL     OW 4031   0.428   4.148   2.382
 1338SOL    HW1 4032   0.458   4.076   2.320
 1338SOL    HW2 4033   0.389   4.108   2.465
 1339SOL     OW 4034   0.317   4.271   3.142
 1339SOL    HW1 4035   0.355   4.212   3.214
 1339SOL    HW2 4036   0.357   4.245   3.054
 1340SOL     OW 4037   1.424   3.938   2.974
 1340SOL    HW1 4038   1.476   3.873   3.029
 1340SOL    HW2 4039   1.375   4.001   3.035
 1341SOL     OW 4040   1.001   3.758   3.016
 1341SOL    HW1 4041   0.938   3.686   2.985
 1341SOL    HW2 4042   1.094   3.722   3.016
 1342SOL     OW 4043   1.352   3.776   2.030
 1342SOL    HW1 4044   1.387   3.735   1.946
 1342SOL    HW2 4045   1.262   3.738   2.050
 1343SOL     OW 4046   1.300   4.177   2.553
 1343SOL    HW1 4047   1.241   4.257   2.557
 1343SOL    HW2 4048   1.315   4.142   2.646
 1344SOL     OW 4049   1.593   3.945   2.744
 1344SOL    HW1 4050   1.509   3.944   2.798
 1344SOL    HW2 4051   1.595   4.028   2.688
 1345SOL     OW 4052   0.039   4.801   2.162
 1345SOL    HW1 4053   0.138   4.790   2.153
 1345SOL    HW2 4054  -0.001   4.715   2.194
 1346SOL     OW 4055   0.230   4.352   3.837
 1346SOL    HW1 4056   0.137   4.350   3.874
 1346SOL    HW2 4057   0.231   4.313   3.745
 1347SOL     OW 4058   0.225   3.999   4.720
 1347SOL    HW1 4059   0.260   3.982   4.812
 1347SOL    HW2 4060   0.137   3.954   4.708
 1348SOL     OW 4061   0.019   4.092   4.371
 1348SOL    HW1 4062  -0.063   4.135   4.410
 1348SOL    HW2 4063  -0.009   4.019   4.308
 1349SOL     OW 4064   1.135   4.427   4.441
 1349SOL    HW1 4065   1.192   4.505   4.416
 1349SOL    HW2 4066   1.075   4.453   4.517
 1350SOL     OW 4067   1.755   4.331   3.955
 1350SOL    HW1 4068   1.743   4.318   3.856
 1350SOL    HW2 4069   1.725   4.250   4.004
 1351SOL     OW 4070   0.685   4.736   4.389
 1351SOL    HW1 4071   0.754   4.720   4.459
 1351SOL    HW2 4072   0.612   4.793   4.427
 1352SOL     OW 4073   1.603   4.171   4.461
 1352SOL    HW1 4074   1.529   4.217   4.411
 1352SOL    HW2 4075   1.654   4.239   4.514
 1353SOL     OW 4076   0.240   4.815   4.610
 1353SOL    HW1 4077   0.254   4.731   4.662
 1353SOL    HW2 4078   0.185   4.879   4.665
 1354SOL     OW 4079   0.606   4.688   3.847
 1354SOL    HW1 4080   0.613   4.772   3.793
 1354SOL    HW2 4081   0.652   4.701   3.935
 1355SOL     OW 4082   0.122   4.367   4.287
 1355SOL    HW1 4083   0.077   4.279   4.304
 1355SOL    HW2 4084   0.121   4.421   4.371
 1356SOL     OW 4085   1.689   4.646   4.336
 1356SOL    HW1 4086   1.784   4.617   4.344
 1356SOL    HW2 4087   1.681   4.711   4.261
 1357SOL     OW 4088   0.809   3.728   4.226
 1357SOL    HW1 4089   0.849   3.819   4.217
 1357SOL    HW2 4090   0.709   3.736   4.232
 1358SOL     OW 4091   0.197   4.700   4.988
 1358SOL    HW1 4092   0.286   4.655   4.974
 1358SOL    HW2 4093   0.124   4.635   4.969
 1359SOL     OW 4094   1.525   4.723   3.914
 1359SOL    HW1 4095   1.462   4.647   3.927
 1359SOL    HW2 4096   1.573   4.741   4.000
 1360SOL     OW 4097   0.598   4.453   3.994
 1360SOL    HW1 4098   0.622   4.522   3.926
 1360SOL    HW2 4099   0.520   4.486   4.048
 1361SOL     OW 4100   1.281   4.069   4.668
 1361SOL    HW1 4101   1.195   4.019   4.655
 1361SOL    HW2 4102   1.343   4.015   4.724
 1362SOL     OW 4103   1.041   4.425   4.153
 1362SOL    HW1 4104   1.067   4.421   4.249
 1362SOL    HW2 4105   0.956   4.374   4.139
 1363SOL     OW 4106   0.076   4.535   4.513
 1363SOL    HW1 4107   0.175   4.523   4.522
 1363SOL    HW2 4108   0.052   4.630   4.534
 1364SOL     OW 4109   0.865   4.072   3.919
 1364SOL    HW1 4110   0.924   4.135   3.870
 1364SOL    HW2 4111   0.884   3.978   3.890
 1365SOL     OW 4112   0.550   3.920   4.609
 1365SOL    HW1 4113   0.545   3.915   4.709
 1365SOL    HW2 4114   0.552   4.016   4.580
 1366SOL     OW 4115   1.458   4.459   4.452
 1366SOL    HW1 4116   1.453   4.394   4.527
 1366SOL    HW2 4117   1.538   4.518   4.465
 1367SOL     OW 4118   1.400   3.831   4.150
 1367SOL    HW1 4119   1.376   3.794   4.060
 1367SOL    HW2 4120   1.499   3.847   4.154
 1368SOL     OW 4121   0.382   4.424   4.204
 1368SOL    HW1 4122   0.427   4.334   4.201
 1368SOL    HW2 4123   0.288   4.413   4.237
 1369SOL     OW 4124   0.614   3.846   3.841
 1369SOL    HW1 4125   0.712   3.824   3.848
 1369SOL    HW2 4126   0.583   3.829   3.748
 1370SOL     OW 4127   0.922   4.227   4.623
 1370SOL    HW1 4128   0.897   4.218   4.527
 1370SOL    HW2 4129   0.970   4.145   4.654
 1371SOL     OW 4130   0.539   3.788   4.236
 1371SOL    HW1 4131   0.458   3.789   4.294
 1371SOL    HW2 4132   0.542   3.871   4.181
 1372SOL     OW 4133   0.297   3.759   3.895
 1372SOL    HW1 4134   0.346   3.843   3.874
 1372SOL    HW2 4135   0.359   3.694   3.940
 1373SOL     OW 4136   0.935   3.960   4.204
 1373SOL    HW1 4137   0.887   4.001   4.126
 1373SOL    HW2 4138   1.034   3.958   4.185
 1374SOL     OW 4139   1.032   4.273   3.740
 1374SOL    HW1 4140   0.991   4.355   3.701
 1374SOL    HW2 4141   1.096   4.299   3.813
 1375SOL     OW 4142   0.866   4.178   4.366
 1375SOL    HW1 4143   0.834   4.250   4.304
 1375SOL    HW2 4144   0.890   4.097   4.313
 1376SOL     OW 4145   1.017   3.763   4.477
 1376SOL    HW1 4146   0.945   3.768   4.408
 1376SOL    HW2 4147   0.993   3.694   4.546
 1377SOL     OW 4148   1.429   4.897   4.591
 1377SOL    HW1 4149   1.374   4.813   4.584
 1377SOL    HW2 4150   1.455   4.926   4.499
 1378SOL     OW 4151   1.466   4.314   4.716
 1378SOL    HW1 4152   1.436   4.219   4.723
 1378SOL    HW2 4153   1.539   4.330   4.782
 1379SOL     OW 4154   1.857   4.557   4.101
 1379SOL    HW1 4155   1.899   4.493   4.165
 1379SOL    HW2 4156   1.819   4.506   4.023
 1380SOL     OW 4157   1.390   4.299   3.802
 1380SOL    HW1 4158   1.336   4.278   3.883
 1380SOL    HW2 4159   1.481   4.258   3.811
 1381SOL     OW 4160   0.527   3.980   4.052
 1381SOL    HW1 4161   0.554   3.921   3.977
 1381SOL    HW2 4162   0.527   4.075   4.021
 1382SOL     OW 4163   1.638   4.823   4.803
 1382SOL    HW1 4164   1.643   4.904   4.862
 1382SOL    HW2 4165   1.552   4.825   4.752
 1383SOL     OW 4166   0.566   4.261   4.589
 1383SOL    HW1 4167   0.578   4.327   4.515
 1383SOL    HW2 4168   0.612   4.295   4.672
 1384SOL     OW 4169   1.582   4.363   4.196
 1384SOL    HW1 4170   1.551   4.424   4.269
 1384SOL    HW2 4171   1.632   4.415   4.127
 1385SOL     OW 4172   0.573   4.594   4.753
 1385SOL    HW1 4173   0.617   4.683   4.744
 1385SOL    HW2 4174   0.510   4.594   4.830
 1386SOL     OW 4175   1.209   4.249   3.999
 1386SOL    HW1 4176   1.222   4.165   4.053
 1386SOL    HW2 4177   1.180   4.323   4.059
 1387SOL     OW 4178   0.307   3.937   4.955
 1387SOL    HW1 4179   0.284   3.974   5.045
 1387SOL    HW2 4180   0.277   3.842   4.949
 1388SOL     OW 4181   0.732   4.358   4.788
 1388SOL    HW1 4182   0.791   4.332   4.712
 1388SOL    HW2 4183   0.704   4.454   4.777
 1389SOL     OW 4184   0.307   3.787   4.342
 1389SOL    HW1 4185   0.296   3.881   4.375
 1389SOL    HW2 4186   0.302   3.724   4.419
 1390SOL     OW 4187   1.622   4.091   4.098
 1390SOL    HW1 4188   1.624   4.015   4.162
 1390SOL    HW2 4189   1.574   4.168   4.138
 1391SOL     OW 4190   1.540   3.998   3.849
 1391SOL    HW1 4191   1.479   3.923   3.872
 1391SOL    HW2 4192   1.562   4.050   3.932
 1392SOL     OW 4193   1.303   4.562   3.766
 1392SOL    HW1 4194   1.337   4.469   3.781
 1392SOL    HW2 4195   1.321   4.589   3.671
 1393SOL     OW 4196   0.319   4.534   4.673
 1393SOL    HW1 4197   0.412   4.570   4.678
 1393SOL    HW2 4198   0.313   4.449   4.725
 1394SOL     OW 4199   0.339   4.233   4.730
 1394SOL    HW1 4200   0.287   4.150   4.713
 1394SOL    HW2 4201   0.416   4.238   4.666
 1395SOL     OW 4202   1.002   4.520   4.962
 1395SOL    HW1 4203   1.043   4.488   5.048
 1395SOL    HW2 4204   0.906   4.493   4.959
 1396SOL     OW 4205   0.815   4.296   4.049
 1396SOL    HW1 4206   0.822   4.207   4.003
 1396SOL    HW2 4207   0.721   4.330   4.041
 1397SOL     OW 4208   0.671   4.188   4.993
 1397SOL    HW1 4209   0.637   4.099   4.963
 1397SOL    HW2 4210   0.697   4.242   4.913
 1398SOL     OW 4211   0.473   4.224   3.915
 1398SOL    HW1 4212   0.534   4.304   3.919
 1398SOL    HW2 4213   0.378   4.255   3.922
 1399SOL     OW 4214   1.302   4.579   4.033
 1399SOL    HW1 4215   1.216   4.548   4.075
 1399SOL    HW2 4216   1.298   4.565   3.934
 1400SOL     OW 4217   1.726   3.859   4.247
 1400SOL    HW1 4218   1.799   3.842   4.180
 1400SOL    HW2 4219   1.695   3.772   4.285
 1401SOL     OW 4220   1.280   4.651   4.396
 1401SOL    HW1 4221   1.340   4.570   4.398
 1401SOL    HW2 4222   1.320   4.720   4.336
 1402SOL     OW 4223   1.841   3.899   4.687
 1402SOL    HW1 4224   1.880   3.814   4.651
 1402SOL    HW2 4225   1.743   3.901   4.668
 1403SOL     OW 4226   0.263   4.050   4.444
 1403SOL    HW1 4227   0.184   4.101   4.410
 1403SOL    HW2 4228   0.254   4.035   4.542
 1404SOL     OW 4229   0.916   4.634   4.015
 1404SOL    HW1 4230   0.979   4.672   3.947
 1404SOL    HW2 4231   0.956   4.551   4.054
 1405SOL     OW 4232   0.075   4.069   3.757
 1405SOL    HW1 4233  -0.017   4.041   3.728
 1405SOL    HW2 4234   0.106   4.146   3.701
 1406SOL     OW 4235   0.072   3.890   4.042
 1406SOL    HW1 4236   0.055   3.973   3.988
 1406SOL    HW2 4237   0.162   3.853   4.020
 1407SOL     OW 4238   1.183   5.059   3.843
 1407SOL    HW1 4239   1.084   5.048   3.845
 1407SOL    HW2 4240   1.217   5.074   3.936
 1408SOL     OW 4241   1.674   4.607   4.978
 1408SOL    HW1 4242   1.647   4.518   4.941
 1408SOL    HW2 4243   1.675   4.675   4.905
 1409SOL     OW 4244   1.225   4.049   4.173
 1409SOL    HW1 4245   1.290   3.975   4.162
 1409SOL    HW2 4246   1.245   4.099   4.257
 1410SOL     OW 4247   0.594   4.469   4.376
 1410SOL    HW1 4248   0.644   4.554   4.357
 1410SOL    HW2 4249   0.506   4.471   4.328
 1411SOL     OW 4250   0.859   4.680   4.585
 1411SOL    HW1 4251   0.913   4.611   4.633
 1411SOL    HW2 4252   0.827   4.749   4.651
 1412SOL     OW 4253   1.083   4.708   3.811
 1412SOL    HW1 4254   1.060   4.761   3.729
 1412SOL    HW2 4255   1.164   4.652   3.792
 1413SOL     OW 4256   0.079   4.964   4.377
 1413SOL    HW1 4257   0.078   4.917   4.465
 1413SOL    HW2 4258   0.161   4.936   4.326
 1414SOL     OW 4259   1.824   3.916   4.951
 1414SOL    HW1 4260   1.820   3.826   4.995
 1414SOL    HW2 4261   1.827   3.905   4.852
 1415SOL     OW 4262   0.428   4.148   4.244
 1415SOL    HW1 4263   0.458   4.076   4.182
 1415SOL    HW2 4264   0.389   4.108   4.327
 1416SOL     OW 4265   1.352   3.776   3.892
 1416SOL    HW1 4266   1.387   3.735   3.808
 1416SOL    HW2 4267   1.262   3.738   3.912
 1417SOL     OW 4268   1.300   4.177   4.415
 1417SOL    HW1 4269   1.241   4.257   4.419
 1417SOL    HW2 4270   1.315   4.142   4.508
 1418SOL     OW 4271   1.593   3.945   4.606
 1418SOL    HW1 4272   1.509   3.944   4.660
 1418SOL    HW2 4273   1.595   4.028   4.550
 1419SOL     OW 4274   0.039   4.801   4.024
 1419SOL    HW1 4275   0.138   4.790   4.015
 1419SOL    HW2 4276  -0.001   4.715   4.056
 1420SOL     OW 4277   2.092   0.628   0.113
 1420SOL    HW1 4278   1.999   0.626   0.150
 1420SOL    HW2 4279   2.093   0.589   0.021
 1421SOL     OW 4280   2.087   0.275   0.996
 1421SOL    HW1 4281   2.122   0.258   1.088
 1421SOL    HW2 4282   1.999   0.230   0.984
 1422SOL     OW 4283   1.881   0.368   0.647
 1422SOL    HW1 4284   1.799   0.411   0.686
 1422SOL    HW2 4285   1.853   0.295   0.584
 1423SOL     OW 4286   2.431   1.275   1.165
 1423SOL    HW1 4287   2.338   1.268   1.128
 1423SOL    HW2 4288   2.442   1.364   1.209
 1424SOL     OW 4289   3.417   1.511   0.703
 1424SOL    HW1 4290   3.360   1.495   0.784
 1424SOL    HW2 4291   3.358   1.521   0.623
 1425SOL     OW 4292   2.997   0.703   0.717
 1425SOL    HW1 4293   3.054   0.781   0.692
 1425SOL    HW2 4294   2.937   0.729   0.793
 1426SOL     OW 4295   3.617   0.607   0.231
 1426SOL    HW1 4296   3.605   0.594   0.132
 1426SOL    HW2 4297   3.587   0.526   0.280
 1427SOL     OW 4298   2.630   1.144   1.023
 1427SOL    HW1 4299   2.552   1.161   1.083
 1427SOL    HW2 4300   2.664   1.231   0.987
 1428SOL     OW 4301   2.712   0.798   1.823
 1428SOL    HW1 4302   2.708   0.874   1.888
 1428SOL    HW2 4303   2.734   0.834   1.732
 1429SOL     OW 4304   2.547   1.012   0.665
 1429SOL    HW1 4305   2.616   0.996   0.735
 1429SOL    HW2 4306   2.474   1.069   0.703
 1430SOL     OW 4307   2.548   1.161   1.803
 1430SOL    HW1 4308   2.608   1.240   1.817
 1430SOL    HW2 4309   2.462   1.192   1.762
 1431SOL     OW 4310   2.197   1.435   1.061
 1431SOL    HW1 4311   2.119   1.404   1.008
 1431SOL    HW2 4312   2.255   1.493   1.004
 1432SOL     OW 4313   3.322   1.505   1.339
 1432SOL    HW1 4314   3.346   1.599   1.365
 1432SOL    HW2 4315   3.306   1.451   1.421
 1433SOL     OW 4316   2.300   0.392   1.499
 1433SOL    HW1 4317   2.382   0.336   1.508
 1433SOL    HW2 4318   2.219   0.334   1.503
 1434SOL     OW 4319   3.465   0.447   0.737
 1434SOL    HW1 4320   3.391   0.493   0.687
 1434SOL    HW2 4321   3.516   0.515   0.790
 1435SOL     OW 4322   2.093   1.713   0.483
 1435SOL    HW1 4323   2.127   1.790   0.537
 1435SOL    HW2 4324   2.137   1.713   0.393
 1436SOL     OW 4325   2.989   1.341   1.690
 1436SOL    HW1 4326   3.036   1.341   1.778
 1436SOL    HW2 4327   2.941   1.254   1.679
 1437SOL     OW 4328   2.092   1.434   0.538
 1437SOL    HW1 4329   2.066   1.530   0.538
 1437SOL    HW2 4330   2.021   1.380   0.583
 1438SOL     OW 4331   2.102   1.091   0.886
 1438SOL    HW1 4332   2.116   1.007   0.938
 1438SOL    HW2 4333   2.047   1.155   0.941
 1439SOL     OW 4334   2.482   1.786   1.439
 1439SOL    HW1 4335   2.390   1.769   1.474
 1439SOL    HW2 4336   2.510   1.878   1.465
 1440SOL     OW 4337   2.468   0.964   0.123
 1440SOL    HW1 4338   2.475   1.048   0.069
 1440SOL    HW2 4339   2.514   0.977   0.211
 1441SOL     OW 4340   3.456   0.114   1.480
 1441SOL    HW1 4341   3.438   0.181   1.408
 1441SOL    HW2 4342   3.453   0.160   1.569
 1442SOL     OW 4343   1.984   0.643   0.563
 1442SOL    HW1 4344   1.939   0.555   0.580
 1442SOL    HW2 4345   1.983   0.697   0.647
 1443SOL     OW 4346   3.704   1.767   0.359
 1443SOL    HW1 4347   3.758   1.738   0.439
 1443SOL    HW2 4348   3.734   1.857   0.330
 1444SOL     OW 4349   1.889   1.596   0.117
 1444SOL    HW1 4350   1.870   1.500   0.138
 1444SOL    HW2 4351   1.856   1.654   0.192
 1445SOL     OW 4352   3.551   0.922   0.612
 1445SOL    HW1 4353   3.646   0.893   0.620
 1445SOL    HW2 4354   3.543   0.987   0.537
 1446SOL     OW 4355   3.503   1.108   0.432
 1446SOL    HW1 4356   3.589   1.110   0.380
 1446SOL    HW2 4357   3.517   1.155   0.520
 1447SOL     OW 4358   1.975   0.737   1.597
 1447SOL    HW1 4359   2.063   0.724   1.642
 1447SOL    HW2 4360   1.962   0.834   1.575
 1448SOL     OW 4361   2.475   1.365   0.726
 1448SOL    HW1 4362   2.426   1.278   0.735
 1448SOL    HW2 4363   2.452   1.408   0.639
 1449SOL     OW 4364   3.155   1.228   1.423
 1449SOL    HW1 4365   3.192   1.155   1.365
 1449SOL    HW2 4366   3.207   1.233   1.508
 1450SOL     OW 4367   2.671   0.004   0.502
 1450SOL    HW1 4368   2.711   0.095   0.493
 1450SOL    HW2 4369   2.571   0.012   0.508
 1451SOL     OW 4370   2.059   0.976   1.264
 1451SOL    HW1 4371   2.148   0.931   1.250
 1451SOL    HW2 4372   1.986   0.911   1.245
 1452SOL     OW 4373   3.387   0.999   0.190
 1452SOL    HW1 4374   3.324   0.923   0.203
 1452SOL    HW2 4375   3.435   1.017   0.276
 1453SOL     OW 4376   3.049   1.792   1.616
 1453SOL    HW1 4377   3.073   1.852   1.540
 1453SOL    HW2 4378   3.056   1.697   1.586
 1454SOL     OW 4379   2.179   0.251   1.801
 1454SOL    HW1 4380   2.250   0.322   1.807
 1454SOL    HW2 4381   2.091   0.290   1.829
 1455SOL     OW 4382   3.328   1.417   0.953
 1455SOL    HW1 4383   3.269   1.423   1.033
 1455SOL    HW2 4384   3.313   1.329   0.907
 1456SOL     OW 4385   3.529   1.714   0.572
 1456SOL    HW1 4386   3.488   1.691   0.484
 1456SOL    HW2 4387   3.511   1.640   0.637
 1457SOL     OW 4388   2.460   0.729   0.270
 1457SOL    HW1 4389   2.484   0.798   0.202
 1457SOL    HW2 4390   2.382   0.762   0.324
 1458SOL     OW 4391   3.143   0.345   0.944
 1458SOL    HW1 4392   3.057   0.295   0.931
 1458SOL    HW2 4393   3.205   0.291   1.000
 1459SOL     OW 4394   3.438   1.662   0.307
 1459SOL    HW1 4395   3.527   1.708   0.310
 1459SOL    HW2 4396   3.417   1.638   0.212
 1460SOL     OW 4397   2.669   0.605   1.465
 1460SOL    HW1 4398   2.622   0.602   1.554
 1460SOL    HW2 4399   2.618   0.550   1.399
 1461SOL     OW 4400   3.256   0.469   1.674
 1461SOL    HW1 4401   3.236   0.512   1.762
 1461SOL    HW2 4402   3.334   0.407   1.683
 1462SOL     OW 4403   2.835   0.890   1.572
 1462SOL    HW1 4404   2.881   0.806   1.543
 1462SOL    HW2 4405   2.779   0.924   1.497
 1463SOL     OW 4406   2.853   0.410   1.242
 1463SOL    HW1 4407   2.776   0.444   1.296
 1463SOL    HW2 4408   2.819   0.359   1.163
 1464SOL     OW 4409   2.903   0.701   0.429
 1464SOL    HW1 4410   2.929   0.697   0.525
 1464SOL    HW2 4411   2.818   0.650   0.415
 1465SOL     OW 4412   1.938   0.811   0.789
 1465SOL    HW1 4413   2.037   0.799   0.798
 1465SOL    HW2 4414   1.914   0.906   0.810
 1466SOL     OW 4415   1.992   1.821   1.571
 1466SOL    HW1 4416   1.982   1.806   1.670
 1466SOL    HW2 4417   1.906   1.857   1.535
 1467SOL     OW 4418   2.727   0.348   0.195
 1467SOL    HW1 4419   2.786   0.411   0.146
 1467SOL    HW2 4420   2.746   0.254   0.166
 1468SOL     OW 4421   3.581   0.585   1.831
 1468SOL    HW1 4422   3.555   0.674   1.795
 1468SOL    HW2 4423   3.579   0.517   1.758
 1469SOL     OW 4424   3.224   1.144   0.545
 1469SOL    HW1 4425   3.307   1.115   0.497
 1469SOL    HW2 4426   3.175   1.211   0.489
 1470SOL     OW 4427   2.412   0.196   0.885
 1470SOL    HW1 4428   2.407   0.191   0.985
 1470SOL    HW2 4429   2.414   0.292   0.856
 1471SOL     OW 4430   2.870   1.456   0.477
 1471SOL    HW1 4431   2.824   1.528   0.425
 1471SOL    HW2 4432   2.866   1.476   0.575
 1472SOL     OW 4433   2.213   1.801   0.853
 1472SOL    HW1 4434   2.263   1.715   0.859
 1472SOL    HW2 4435   2.278   1.878   0.850
 1473SOL     OW 4436   3.657   1.066   0.873
 1473SOL    HW1 4437   3.595   1.051   0.797
 1473SOL    HW2 4438   3.605   1.077   0.958
 1474SOL     OW 4439   3.089   1.550   1.506
 1474SOL    HW1 4440   3.095   1.473   1.570
 1474SOL    HW2 4441   3.037   1.524   1.426
 1475SOL     OW 4442   2.183   0.943   0.242
 1475SOL    HW1 4443   2.265   0.982   0.200
 1475SOL    HW2 4444   2.156   0.861   0.193
 1476SOL     OW 4445   3.320   0.735   0.728
 1476SOL    HW1 4446   3.315   0.670   0.803
 1476SOL    HW2 4447   3.400   0.794   0.741
 1477SOL     OW 4448   2.323   1.266   1.727
 1477SOL    HW1 4449   2.273   1.267   1.641
 1477SOL    HW2 4450   2.260   1.248   1.803
 1478SOL     OW 4451   2.973   1.776   0.237
 1478SOL    HW1 4452   2.913   1.714   0.287
 1478SOL    HW2 4453   3.004   1.732   0.152
 1479SOL     OW 4454   2.064   0.285   1.498
 1479SOL    HW1 4455   1.984   0.345   1.485
 1479SOL    HW2 4456   2.054   0.236   1.584
 1480SOL     OW 4457   3.494   1.377   0.081
 1480SOL    HW1 4458   3.462   1.471   0.071
 1480SOL    HW2 4459   3.418   1.314   0.069
 1481SOL     OW 4460   2.326   1.743   0.323
 1481SOL    HW1 4461   2.359   1.782   0.409
 1481SOL    HW2 4462   2.402   1.736   0.258
 1482SOL     OW 4463   3.262   0.107   0.426
 1482SOL    HW1 4464   3.238   0.070   0.336
 1482SOL    HW2 4465   3.361   0.123   0.430
 1483SOL     OW 4466   2.111   1.785   1.241
 1483SOL    HW1 4467   2.168   1.720   1.291
 1483SOL    HW2 4468   2.095   1.752   1.148
 1484SOL     OW 4469   2.802   1.698   0.904
 1484SOL    HW1 4470   2.882   1.641   0.925
 1484SOL    HW2 4471   2.753   1.658   0.827
 1485SOL     OW 4472   2.244   0.700   0.480
 1485SOL    HW1 4473   2.289   0.610   0.477
 1485SOL    HW2 4474   2.150   0.689   0.513
 1486SOL     OW 4475   3.409   0.222   1.729
 1486SOL    HW1 4476   3.404   0.259   1.821
 1486SOL    HW2 4477   3.337   0.153   1.717
 1487SOL     OW 4478   2.476   0.122   0.117
 1487SOL    HW1 4479   2.574   0.100   0.124
 1487SOL    HW2 4480   2.445   0.105   0.024
 1488SOL     OW 4481   2.643   0.264   1.749
 1488SOL    HW1 4482   2.710   0.203   1.792
 1488SOL    HW2 4483   2.570   0.283   1.814
 1489SOL     OW 4484   2.750   1.514   1.195
 1489SOL    HW1 4485   2.727   1.489   1.101
 1489SOL    HW2 4486   2.811   1.445   1.234
 1490SOL     OW 4487   3.213   0.590   1.433
 1490SOL    HW1 4488   3.241   0.547   1.518
 1490SOL    HW2 4489   3.238   0.686   1.434
 1491SOL     OW 4490   2.665   1.402   0.924
 1491SOL    HW1 4491   2.755   1.416   0.882
 1491SOL    HW2 4492   2.594   1.404   0.853
 1492SOL     OW 4493   2.784   0.503   0.899
 1492SOL    HW1 4494   2.759   0.494   0.803
 1492SOL    HW2 4495   2.832   0.421   0.930
 1493SOL     OW 4496   2.401   0.064   0.512
 1493SOL    HW1 4497   2.320   0.065   0.570
 1493SOL    HW2 4498   2.404   0.147   0.457
 1494SOL     OW 4499   3.296   1.188   0.041
 1494SOL    HW1 4500   3.328   1.112   0.098
 1494SOL    HW2 4501   3.204   1.215   0.071
 1495SOL     OW 4502   2.159   0.035   0.171
 1495SOL    HW1 4503   2.208   0.119   0.150
 1495SOL    HW2 4504   2.221  -0.030   0.216
 1496SOL     OW 4505   2.797   0.236   0.480
 1496SOL    HW1 4506   2.749   0.277   0.402
 1496SOL    HW2 4507   2.896   0.234   0.461
 1497SOL     OW 4508   2.938   0.683   1.464
 1497SOL    HW1 4509   2.858   0.622   1.467
 1497SOL    HW2 4510   3.019   0.630   1.440
 1498SOL     OW 4511   3.089   1.570   0.793
 1498SOL    HW1 4512   3.110   1.644   0.728
 1498SOL    HW2 4513   3.157   1.570   0.866
 1499SOL     OW 4514   2.321   1.152   0.741
 1499SOL    HW1 4515   2.250   1.125   0.806
 1499SOL    HW2 4516   2.295   1.124   0.648
 1500SOL     OW 4517   3.133   1.797   0.591
 1500SOL    HW1 4518   3.177   1.861   0.527
 1500SOL    HW2 4519   3.083   1.849   0.661
 1501SOL     OW 4520   2.894   0.549   0.016
 1501SOL    HW1 4521   2.853   0.631  -0.023
 1501SOL    HW2 4522   2.958   0.575   0.089
 1502SOL     OW 4523   1.940   0.556   1.386
 1502SOL    HW1 4524   2.032   0.555   1.345
 1502SOL    HW2 4525   1.934   0.630   1.453
 1503SOL     OW 4526   2.423   0.222   1.147
 1503SOL    HW1 4527   2.461   0.138   1.184
 1503SOL    HW2 4528   2.335   0.241   1.191
 1504SOL     OW 4529   2.728   0.454   0.642
 1504SOL    HW1 4530   2.696   0.526   0.580
 1504SOL    HW2 4531   2.752   0.373   0.589
 1505SOL     OW 4532   2.879   0.039   0.753
 1505SOL    HW1 4533   2.807   0.044   0.684
 1505SOL    HW2 4534   2.855  -0.030   0.822
 1506SOL     OW 4535   3.291   1.173   0.867
 1506SOL    HW1 4536   3.236   1.089   0.860
 1506SOL    HW2 4537   3.317   1.202   0.775
 1507SOL     OW 4538   3.328   0.590   0.992
 1507SOL    HW1 4539   3.298   0.495   0.999
 1507SOL    HW2 4540   3.401   0.606   1.058
 1508SOL     OW 4541   3.719   0.833   0.377
 1508SOL    HW1 4542   3.761   0.769   0.441
 1508SOL    HW2 4543   3.681   0.782   0.299
 1509SOL     OW 4544   2.350   1.385   0.174
 1509SOL    HW1 4545   2.263   1.370   0.221
 1509SOL    HW2 4546   2.333   1.411   0.079
 1510SOL     OW 4547   3.526   1.280   0.657
 1510SOL    HW1 4548   3.625   1.288   0.671
 1510SOL    HW2 4549   3.481   1.364   0.688
 1511SOL     OW 4550   3.252   0.575   0.078
 1511SOL    HW1 4551   3.198   0.554   0.159
 1511SOL    HW2 4552   3.343   0.534   0.087
 1512SOL     OW 4553   2.389   0.256   0.328
 1512SOL    HW1 4554   2.416   0.197   0.253
 1512SOL    HW2 4555   2.389   0.351   0.297
 1513SOL     OW 4556   3.616   1.223   1.588
 1513SOL    HW1 4557   3.707   1.184   1.575
 1513SOL    HW2 4558   3.624   1.319   1.612
 1514SOL     OW 4559   2.926   1.347   1.340
 1514SOL    HW1 4560   2.846   1.324   1.395
 1514SOL    HW2 4561   3.009   1.321   1.389
 1515SOL     OW 4562   3.454   1.629   1.625
 1515SOL    HW1 4563   3.481   1.663   1.535
 1515SOL    HW2 4564   3.533   1.591   1.671
 1516SOL     OW 4565   2.973   1.195   1.100
 1516SOL    HW1 4566   2.933   1.239   1.181
 1516SOL    HW2 4567   2.932   1.232   1.017
 1517SOL     OW 4568   3.500   1.099   1.079
 1517SOL    HW1 4569   3.505   1.180   1.138
 1517SOL    HW2 4570   3.414   1.101   1.028
 1518SOL     OW 4571   2.777   0.089   1.402
 1518SOL    HW1 4572   2.802   0.069   1.307
 1518SOL    HW2 4573   2.849   0.145   1.444
 1519SOL     OW 4574   2.842   1.116   1.719
 1519SOL    HW1 4575   2.743   1.122   1.729
 1519SOL    HW2 4576   2.865   1.036   1.663
 1520SOL     OW 4577   2.567   1.050   0.368
 1520SOL    HW1 4578   2.553   1.057   0.467
 1520SOL    HW2 4579   2.651   0.999   0.350
 1521SOL     OW 4580   2.272   0.813   1.251
 1521SOL    HW1 4581   2.358   0.825   1.301
 1521SOL    HW2 4582   2.230   0.726   1.278
 1522SOL     OW 4583   3.136   0.386   1.262
 1522SOL    HW1 4584   3.157   0.460   1.326
 1522SOL    HW2 4585   3.047   0.403   1.219
 1523SOL     OW 4586   1.926   1.564   1.331
 1523SOL    HW1 4587   1.880   1.646   1.297
 1523SOL    HW2 4588   2.024   1.583   1.340
 1524SOL     OW 4589   2.229   1.100   0.501
 1524SOL    HW1 4590   2.222   1.183   0.445
 1524SOL    HW2 4591   2.233   1.020   0.441
 1525SOL     OW 4592   2.428   0.537   0.865
 1525SOL    HW1 4593   2.440   0.603   0.791
 1525SOL    HW2 4594   2.474   0.571   0.948
 1526SOL     OW 4595   3.114   1.348   0.388
 1526SOL    HW1 4596   3.164   1.425   0.428
 1526SOL    HW2 4597   3.019   1.350   0.420
 1527SOL     OW 4598   3.134   1.445   1.142
 1527SOL    HW1 4599   3.181   1.458   1.229
 1527SOL    HW2 4600   3.068   1.371   1.151
 1528SOL     OW 4601   3.444   0.639   0.472
 1528SOL    HW1 4602   3.413   0.700   0.545
 1528SOL    HW2 4603   3.494   0.691   0.403
 1529SOL     OW 4604   2.216   1.510   1.329
 1529SOL    HW1 4605   2.195   1.466   1.242
 1529SOL    HW2 4606   2.313   1.536   1.332
 1530SOL     OW 4607   2.264   0.751   1.598
 1530SOL    HW1 4608   2.332   0.806   1.551
 1530SOL    HW2 4609   2.304   0.663   1.625
 1531SOL     OW 4610   3.449   0.779   1.670
 1531SOL    HW1 4611   3.357   0.817   1.665
 1531SOL    HW2 4612   3.509   0.826   1.605
 1532SOL     OW 4613   2.875   0.105   1.770
 1532SOL    HW1 4614   2.881   0.190   1.718
 1532SOL    HW2 4615   2.907   0.029   1.713
 1533SOL     OW 4616   2.366   0.050   1.740
 1533SOL    HW1 4617   2.324  -0.007   1.670
 1533SOL    HW2 4618   2.300   0.119   1.772
 1534SOL     OW 4619   2.435   0.870   1.029
 1534SOL    HW1 4620   2.479   0.959   1.020
 1534SOL    HW2 4621   2.372   0.870   1.106
 1535SOL     OW 4622   3.222   0.862   1.045
 1535SOL    HW1 4623   3.147   0.862   0.979
 1535SOL    HW2 4624   3.259   0.770   1.054
 1536SOL     OW 4625   3.071   0.525   0.275
 1536SOL    HW1 4626   3.084   0.441   0.329
 1536SOL    HW2 4627   3.042   0.599   0.335
 1537SOL     OW 4628   2.169   0.213   1.231
 1537SOL    HW1 4629   2.146   0.250   1.321
 1537SOL    HW2 4630   2.139   0.118   1.225
 1538SOL     OW 4631   1.899   1.310   1.282
 1538SOL    HW1 4632   1.952   1.261   1.350
 1538SOL    HW2 4633   1.921   1.408   1.287
 1539SOL     OW 4634   2.594   0.634   1.064
 1539SOL    HW1 4635   2.653   0.608   0.988
 1539SOL    HW2 4636   2.566   0.730   1.053
 1540SOL     OW 4637   3.590   0.935   1.854
 1540SOL    HW1 4638   3.544   0.928   1.765
 1540SOL    HW2 4639   3.528   0.979   1.920
 1541SOL     OW 4640   2.169   0.063   0.618
 1541SOL    HW1 4641   2.158   0.157   0.651
 1541SOL    HW2 4642   2.164   0.000   0.695
 1542SOL     OW 4643   3.484   0.367   0.374
 1542SOL    HW1 4644   3.486   0.291   0.438
 1542SOL    HW2 4645   3.436   0.444   0.414
 1543SOL     OW 4646   2.885   0.766   0.966
 1543SOL    HW1 4647   2.900   0.787   1.062
 1543SOL    HW2 4648   2.855   0.671   0.957
 1544SOL     OW 4649   2.842   1.573   1.700
 1544SOL    HW1 4650   2.822   1.617   1.612
 1544SOL    HW2 4651   2.881   1.482   1.684
 1545SOL     OW 4652   3.721   1.518   1.605
 1545SOL    HW1 4653   3.735   1.545   1.510
 1545SOL    HW2 4654   3.804   1.540   1.658
 1546SOL     OW 4655   2.212   0.898   1.804
 1546SOL    HW1 4656   2.288   0.942   1.852
 1546SOL    HW2 4657   2.247   0.851   1.722
 1547SOL     OW 4658   3.402   0.274   0.125
 1547SOL    HW1 4659   3.341   0.199   0.148
 1547SOL    HW2 4660   3.424   0.326   0.208
 1548SOL     OW 4661   3.165   0.838   0.042
 1548SOL    HW1 4662   3.199   0.745   0.057
 1548SOL    HW2 4663   3.183   0.865  -0.053
 1549SOL     OW 4664   2.930   1.333   0.849
 1549SOL    HW1 4665   2.937   1.249   0.794
 1549SOL    HW2 4666   2.992   1.402   0.813
 1550SOL     OW 4667   2.181   0.810   0.949
 1550SOL    HW1 4668   2.274   0.846   0.954
 1550SOL    HW2 4669   2.175   0.725   1.001
 1551SOL     OW 4670   2.201   0.509   1.006
 1551SOL    HW1 4671   2.149   0.426   0.989
 1551SOL    HW2 4672   2.278   0.514   0.942
 1552SOL     OW 4673   3.000   0.380   1.678
 1552SOL    HW1 4674   2.955   0.443   1.742
 1552SOL    HW2 4675   3.093   0.411   1.661
 1553SOL     OW 4676   3.022   0.207   1.477
 1553SOL    HW1 4677   3.022   0.271   1.554
 1553SOL    HW2 4678   3.050   0.255   1.394
 1554SOL     OW 4679   1.870   1.326   0.200
 1554SOL    HW1 4680   1.777   1.347   0.169
 1554SOL    HW2 4681   1.880   1.227   0.213
 1555SOL     OW 4682   1.950   1.801   0.927
 1555SOL    HW1 4683   1.908   1.715   0.900
 1555SOL    HW2 4684   2.044   1.804   0.893
 1556SOL     OW 4685   2.366   1.568   0.910
 1556SOL    HW1 4686   2.432   1.642   0.919
 1556SOL    HW2 4687   2.410   1.489   0.868
 1557SOL     OW 4688   2.864   0.796   1.238
 1557SOL    HW1 4689   2.905   0.764   1.324
 1557SOL    HW2 4690   2.768   0.769   1.235
 1558SOL     OW 4691   1.902   0.544   1.114
 1558SOL    HW1 4692   1.987   0.511   1.073
 1558SOL    HW2 4693   1.915   0.559   1.212
 1559SOL     OW 4694   2.051   0.520   1.722
 1559SOL    HW1 4695   2.110   0.480   1.652
 1559SOL    HW2 4696   1.993   0.591   1.681
 1560SOL     OW 4697   3.231   0.950   1.660
 1560SOL    HW1 4698   3.270   1.039   1.680
 1560SOL    HW2 4699   3.241   0.930   1.563
 1561SOL     OW 4700   2.677   0.572   0.325
 1561SOL    HW1 4701   2.684   0.483   0.279
 1561SOL    HW2 4702   2.583   0.606   0.317
 1562SOL     OW 4703   3.519   0.604   1.206
 1562SOL    HW1 4704   3.481   0.535   1.268
 1562SOL    HW2 4705   3.601   0.568   1.162
 1563SOL     OW 4706   2.114   1.564   1.744
 1563SOL    HW1 4707   2.084   1.621   1.820
 1563SOL    HW2 4708   2.107   1.467   1.770
 1564SOL     OW 4709   2.533   0.464   1.269
 1564SOL    HW1 4710   2.499   0.375   1.239
 1564SOL    HW2 4711   2.559   0.518   1.189
 1565SOL     OW 4712   2.792   1.678   1.465
 1565SOL    HW1 4713   2.768   1.660   1.370
 1565SOL    HW2 4714   2.822   1.772   1.475
 1566SOL     OW 4715   2.335   0.500   0.191
 1566SOL    HW1 4716   2.396   0.580   0.195
 1566SOL    HW2 4717   2.240   0.531   0.198
 1567SOL     OW 4718   2.021   1.137   1.466
 1567SOL    HW1 4719   2.043   1.076   1.542
 1567SOL    HW2 4720   2.031   1.088   1.380
 1568SOL     OW 4721   3.209   1.059   1.234
 1568SOL    HW1 4722   3.233   0.996   1.160
 1568SOL    HW2 4723   3.119   1.099   1.216
 1569SOL     OW 4724   3.164   0.855   0.309
 1569SOL    HW1 4725   3.078   0.824   0.351
 1569SOL    HW2 4726   3.160   0.841   0.210
 1570SOL     OW 4727   3.621   1.747   1.154
 1570SOL    HW1 4728   3.682   1.777   1.081
 1570SOL    HW2 4729   3.583   1.658   1.132
 1571SOL     OW 4730   3.114   1.731   1.128
 1571SOL    HW1 4731   3.198   1.736   1.074
 1571SOL    HW2 4732   3.091   1.635   1.146
 1572SOL     OW 4733   1.945   1.258   1.022
 1572SOL    HW1 4734   1.940   1.257   1.122
 1572SOL    HW2 4735   1.862   1.217   0.984
 1573SOL     OW 4736   2.550   1.662   1.716
 1573SOL    HW1 4737   2.494   1.743   1.725
 1573SOL    HW2 4738   2.602   1.666   1.630
 1574SOL     OW 4739   2.765   0.086   0.133
 1574SOL    HW1 4740   2.816   0.087   0.047
 1574SOL    HW2 4741   2.821   0.044   0.204
 1575SOL     OW 4742   3.588   0.135   0.523
 1575SOL    HW1 4743   3.661   0.118   0.456
 1575SOL    HW2 4744   3.557   0.048   0.561
 1576SOL     OW 4745   3.250   1.573   0.477
 1576SOL    HW1 4746   3.317   1.585   0.403
 1576SOL    HW2 4747   3.210   1.662   0.500
 1577SOL     OW 4748   1.992   1.794   1.851
 1577SOL    HW1 4749   1.951   1.720   1.904
 1577SOL    HW2 4750   2.056   1.845   1.909
 1578SOL     OW 4751   3.142   0.927   0.672
 1578SOL    HW1 4752   3.202   0.846   0.674
 1578SOL    HW2 4753   3.182   0.996   0.612
 1579SOL     OW 4754   2.692   1.273   1.422
 1579SOL    HW1 4755   2.687   1.306   1.517
 1579SOL    HW2 4756   2.606   1.292   1.376
 1580SOL     OW 4757   2.534   1.616   0.154
 1580SOL    HW1 4758   2.543   1.626   0.055
 1580SOL    HW2 4759   2.494   1.527   0.175
 1581SOL     OW 4760   3.512   1.720   1.394
 1581SOL    HW1 4761   3.565   1.730   1.310
 1581SOL    HW2 4762   3.485   1.810   1.428
 1582SOL     OW 4763   3.703   0.175   0.963
 1582SOL    HW1 4764   3.742   0.090   0.927
 1582SOL    HW2 4765   3.605   0.177   0.944
 1583SOL     OW 4766   2.125   0.326   0.720
 1583SOL    HW1 4767   2.046   0.377   0.686
 1583SOL    HW2 4768   2.116   0.311   0.818
 1584SOL     OW 4769   3.056   1.612   0.031
 1584SOL    HW1 4770   3.062   1.519   0.068
 1584SOL    HW2 4771   2.997   1.612  -0.049
 1585SOL     OW 4772   2.684   1.002   1.372
 1585SOL    HW1 4773   2.724   1.001   1.280
 1585SOL    HW2 4774   2.694   1.094   1.412
 1586SOL     OW 4775   2.778   0.910   0.291
 1586SOL    HW1 4776   2.841   0.948   0.223
 1586SOL    HW2 4777   2.818   0.827   0.330
 1587SOL     OW 4778   3.366   1.607   0.044
 1587SOL    HW1 4779   3.274   1.644   0.051
 1587SOL    HW2 4780   3.404   1.627  -0.046
 1588SOL     OW 4781   2.234   1.288   1.490
 1588SOL    HW1 4782   2.221   1.381   1.456
 1588SOL    HW2 4783   2.150   1.236   1.477
 1589SOL     OW 4784   3.476   1.292   1.289
 1589SOL    HW1 4785   3.536   1.295   1.369
 1589SOL    HW2 4786   3.401   1.356   1.302
 1590SOL     OW 4787   2.901   1.098   0.696
 1590SOL    HW1 4788   2.831   1.051   0.750
 1590SOL    HW2 4789   2.960   1.030   0.653
 1591SOL     OW 4790   2.876   0.236   0.971
 1591SOL    HW1 4791   2.868   0.200   0.878
 1591SOL    HW2 4792   2.874   0.160   1.036
 1592SOL     OW 4793   2.452   1.487   0.491
 1592SOL    HW1 4794   2.494   1.429   0.421
 1592SOL    HW2 4795   2.408   1.566   0.447
 1593SOL     OW 4796   3.571   0.385   1.381
 1593SOL    HW1 4797   3.644   0.454   1.385
 1593SOL    HW2 4798   3.599   0.310   1.322
 1594SOL     OW 4799   2.117   1.348   0.290
 1594SOL    HW1 4800   2.021   1.349   0.263
 1594SOL    HW2 4801   2.129   1.401   0.374
 1595SOL     OW 4802   1.967   1.013   1.726
 1595SOL    HW1 4803   1.890   0.980   1.780
 1595SOL    HW2 4804   2.052   0.983   1.768
 1596SOL     OW 4805   2.534   0.203   1.489
 1596SOL    HW1 4806   2.624   0.187   1.449
 1596SOL    HW2 4807   2.542   0.208   1.588
 1597SOL     OW 4808   1.937   0.345   0.033
 1597SOL    HW1 4809   1.845   0.317   0.004
 1597SOL    HW2 4810   1.968   0.422  -0.023
 1598SOL     OW 4811   3.302   0.856   1.398
 1598SOL    HW1 4812   3.245   0.908   1.335
 1598SOL    HW2 4813   3.398   0.868   1.374
 1599SOL     OW 4814   1.934   0.166   0.318
 1599SOL    HW1 4815   1.917   0.249   0.264
 1599SOL    HW2 4816   2.024   0.129   0.296
 1600SOL     OW 4817   3.045   1.335   0.119
 1600SOL    HW1 4818   2.946   1.324   0.121
 1600SOL    HW2 4819   3.079   1.350   0.212
 1601SOL     OW 4820   2.475   0.842   1.431
 1601SOL    HW1 4821   2.531   0.923   1.414
 1601SOL    HW2 4822   2.534   0.762   1.434
 1602SOL     OW 4823   3.355   1.767   0.959
 1602SOL    HW1 4824   3.388   1.831   0.890
 1602SOL    HW2 4825   3.421   1.761   1.034
 1603SOL     OW 4826   2.578   0.565   1.708
 1603SOL    HW1 4827   2.597   0.630   1.782
 1603SOL    HW2 4828   2.638   0.485   1.717
 1604SOL     OW 4829   3.312   1.220   1.633
 1604SOL    HW1 4830   3.303   1.210   1.732
 1604SOL    HW2 4831   3.408   1.213   1.607
 1605SOL     OW 4832   2.252   1.741   1.560
 1605SOL    HW1 4833   2.161   1.782   1.558
 1605SOL    HW2 4834   2.245   1.647   1.592
 1606SOL     OW 4835   3.536   0.883   1.254
 1606SOL    HW1 4836   3.509   0.794   1.217
 1606SOL    HW2 4837   3.537   0.951   1.181
 1607SOL     OW 4838   3.087   0.325   0.449
 1607SOL    HW1 4839   3.152   0.251   0.438
 1607SOL    HW2 4840   3.107   0.375   0.533
 1608SOL     OW 4841   2.456   0.745   0.652
 1608SOL    HW1 4842   2.506   0.830   0.633
 1608SOL    HW2 4843   2.368   0.747   0.604
 1609SOL     OW 4844   3.639   0.342   1.642
 1609SOL    HW1 4845   3.622   0.373   1.548
 1609SOL    HW2 4846   3.555   0.305   1.680
 1610SOL     OW 4847   3.592   0.934   1.517
 1610SOL    HW1 4848   3.630   1.025   1.532
 1610SOL    HW2 4849   3.584   0.917   1.418
 1611SOL     OW 4850   2.721   1.374   0.016
 1611SOL    HW1 4851   2.675   1.389   0.104
 1611SOL    HW2 4852   2.765   1.459  -0.014
 1612SOL     OW 4853   2.523   1.790   0.953
 1612SOL    HW1 4854   2.477   1.878   0.940
 1612SOL    HW2 4855   2.622   1.802   0.946
 1613SOL     OW 4856   2.721   0.956   0.861
 1613SOL    HW1 4857   2.775   0.887   0.909
 1613SOL    HW2 4858   2.689   1.025   0.927
 1614SOL     OW 4859   2.945   0.984   0.087
 1614SOL    HW1 4860   2.922   1.037   0.005
 1614SOL    HW2 4861   3.026   0.928   0.068
 1615SOL     OW 4862   3.723   1.569   0.851
 1615SOL    HW1 4863   3.652   1.557   0.781
 1615SOL    HW2 4864   3.724   1.490   0.911
 1616SOL     OW 4865   2.083   1.314   1.844
 1616SOL    HW1 4866   2.018   1.241   1.823
 1616SOL    HW2 4867   2.087   1.328   1.942
 1617SOL     OW 4868   1.941   1.240   0.653
 1617SOL    HW1 4869   1.940   1.193   0.741
 1617SOL    HW2 4870   2.023   1.212   0.602
 1618SOL     OW 4871   2.534   1.391   1.624
 1618SOL    HW1 4872   2.456   1.341   1.662
 1618SOL    HW2 4873   2.531   1.486   1.655
 1619SOL     OW 4874   3.686   0.192   1.227
 1619SOL    HW1 4875   3.682   0.102   1.271
 1619SOL    HW2 4876   3.689   0.181   1.128
 1620SOL     OW 4877   2.290   0.424   0.520
 1620SOL    HW1 4878   2.320   0.352   0.458
 1620SOL    HW2 4879   2.251   0.384   0.603
 1621SOL     OW 4880   3.567   1.487   1.104
 1621SOL    HW1 4881   3.474   1.462   1.077
 1621SOL    HW2 4882   3.593   1.437   1.186
 1622SOL     OW 4883   2.179   0.547   1.280
 1622SOL    HW1 4884   2.217   0.488   1.352
 1622SOL    HW2 4885   2.219   0.521   1.192
 1623SOL     OW 4886   2.674   1.586   0.687
 1623SOL    HW1 4887   2.706   1.596   0.593
 1623SOL    HW2 4888   2.595   1.524   0.689
 1624SOL     OW 4889   3.286   0.214   1.112
 1624SOL    HW1 4890   3.338   0.149   1.167
 1624SOL    HW2 4891   3.237   0.277   1.173
 1625SOL     OW 4892   2.863   0.034   1.154
 1625SOL    HW1 4893   2.800  -0.038   1.123
 1625SOL    HW2 4894   2.956  -0.002   1.154
 1626SOL     OW 4895   2.632   1.330   0.301
 1626SOL    HW1 4896   2.586   1.243   0.318
 1626SOL    HW2 4897   2.723   1.327   0.342
 1627SOL     OW 4898   2.480   1.567   1.284
 1627SOL    HW1 4899   2.475   1.649   1.341
 1627SOL    HW2 4900   2.569   1.564   1.239
 1628SOL     OW 4901   3.214   0.052   0.168
 1628SOL    HW1 4902   3.249   0.011   0.084
 1628SOL    HW2 4903   3.124   0.014   0.188
 1629SOL     OW 4904   3.162   0.453   0.691
 1629SOL    HW1 4905   3.103   0.533   0.695
 1629SOL    HW2 4906   3.177   0.418   0.784
 1630SOL     OW 4907   3.455   0.221   0.882
 1630SOL    HW1 4908   3.371   0.220   0.936
 1630SOL    HW2 4909   3.457   0.304   0.826
 1631SOL     OW 4910   1.901   1.077   0.300
 1631SOL    HW1 4911   2.000   1.066   0.291
 1631SOL    HW2 4912   1.861   0.991   0.332
 1632SOL     OW 4913   2.737   1.646   0.337
 1632SOL    HW1 4914   2.660   1.611   0.283
 1632SOL    HW2 4915   2.705   1.717   0.399
 1633SOL     OW 4916   2.092   0.628   1.975
 1633SOL    HW1 4917   1.999   0.626   2.012
 1633SOL    HW2 4918   2.093   0.589   1.883
 1634SOL     OW 4919   2.087   0.275   2.858
 1634SOL    HW1 4920   2.122   0.258   2.950
 1634SOL    HW2 4921   1.999   0.230   2.846
 1635SOL     OW 4922   1.881   0.368   2.509
 1635SOL    HW1 4923   1.799   0.411   2.548
 1635SOL    HW2 4924   1.853   0.295   2.446
 1636SOL     OW 4925   2.431   1.275   3.027
 1636SOL    HW1 4926   2.338   1.268   2.990
 1636SOL    HW2 4927   2.442   1.364   3.071
 1637SOL     OW 4928   3.417   1.511   2.565
 1637SOL    HW1 4929   3.360   1.495   2.646
 1637SOL    HW2 4930   3.358   1.521   2.485
 1638SOL     OW 4931   2.997   0.703   2.579
 1638SOL    HW1 4932   3.054   0.781   2.554
 1638SOL    HW2 4933   2.937   0.729   2.655
 1639SOL     OW 4934   3.617   0.607   2.093
 1639SOL    HW1 4935   3.605   0.594   1.994
 1639SOL    HW2 4936   3.587   0.526   2.142
 1640SOL     OW 4937   2.630   1.144   2.885
 1640SOL    HW1 4938   2.552   1.161   2.945
 1640SOL    HW2 4939   2.664   1.231   2.849
 1641SOL     OW 4940   2.712   0.798   3.685
 1641SOL    HW1 4941   2.708   0.874   3.750
 1641SOL    HW2 4942   2.734   0.834   3.594
 1642SOL     OW 4943   2.547   1.012   2.527
 1642SOL    HW1 4944   2.616   0.996   2.597
 1642SOL    HW2 4945   2.474   1.069   2.565
 1643SOL     OW 4946   2.548   1.161   3.665
 1643SOL    HW1 4947   2.608   1.240   3.679
 1643SOL    HW2 4948   2.462   1.192   3.624
 1644SOL     OW 4949   2.197   1.435   2.923
 1644SOL    HW1 4950   2.119   1.404   2.870
 1644SOL    HW2 4951   2.255   1.493   2.866
 1645SOL     OW 4952   3.322   1.505   3.201
 1645SOL    HW1 4953   3.346   1.599   3.227
 1645SOL    HW2 4954   3.306   1.451   3.283
 1646SOL     OW 4955   2.300   0.392   3.361
 1646SOL    HW1 4956   2.382   0.336   3.370
 1646SOL    HW2 4957   2.219   0.334   3.365
 1647SOL     OW 4958   3.465   0.447   2.599
 1647SOL    HW1 4959   3.391   0.493   2.549
 1647SOL    HW2 4960   3.516   0.515   2.652
 1648SOL     OW 4961   2.093   1.713   2.345
 1648SOL    HW1 4962   2.127   1.790   2.399
 1648SOL    HW2 4963   2.137   1.713   2.255
 1649SOL     OW 4964   2.989   1.341   3.552
 1649SOL    HW1 4965   3.036   1.341   3.640
 1649SOL    HW2 4966   2.941   1.254   3.541
 1650SOL     OW 4967   2.092   1.434   2.400
 1650SOL    HW1 4968   2.066   1.530   2.400
 1650SOL    HW2 4969   2.021   1.380   2.445
 1651SOL     OW 4970   2.102   1.091   2.748
 1651SOL    HW1 4971   2.116   1.007   2.800
 1651SOL    HW2 4972   2.047   1.155   2.803
 1652SOL     OW 4973   2.482   1.786   3.301
 1652SOL    HW1 4974   2.390   1.769   3.336
 1652SOL    HW2 4975   2.510   1.878   3.327
 1653SOL     OW 4976   2.468   0.964   1.985
 1653SOL    HW1 4977   2.475   1.048   1.931
 1653SOL    HW2 4978   2.514   0.977   2.073
 1654SOL     OW 4979   3.456   0.114   3.342
 1654SOL    HW1 4980   3.438   0.181   3.270
 1654SOL    HW2 4981   3.453   0.160   3.431
 1655SOL     OW 4982   1.984   0.643   2.425
 1655SOL    HW1 4983   1.939   0.555   2.442
 1655SOL    HW2 4984   1.983   0.697   2.509
 1656SOL     OW 4985   3.704   1.767   2.221
 1656SOL    HW1 4986   3.758   1.738   2.301
 1656SOL    HW2 4987   3.734   1.857   2.192
 1657SOL     OW 4988   1.889   1.596   1.979
 1657SOL    HW1 4989   1.870   1.500   2.000
 1657SOL    HW2 4990   1.856   1.654   2.054
 1658SOL     OW 4991   3.551   0.922   2.474
 1658SOL    HW1 4992   3.646   0.893   2.482
 1658SOL    HW2 4993   3.543   0.987   2.399
 1659SOL     OW 4994   3.503   1.108   2.294
 1659SOL    HW1 4995   3.589   1.110   2.242
 1659SOL    HW2 4996   3.517   1.155   2.382
 1660SOL     OW 4997   1.975   0.737   3.459
 1660SOL    HW1 4998   2.063   0.724   3.504
 1660SOL    HW2 4999   1.962   0.834   3.437
 1661SOL     OW 5000   2.475   1.365   2.588
 1661SOL    HW1 5001   2.426   1.278   2.597
 1661SOL    HW2 5002   2.452   1.408   2.501
 1662SOL     OW 5003   3.155   1.228   3.285
 1662SOL    HW1 5004   3.192   1.155   3.227
 1662SOL    HW2 5005   3.207   1.233   3.370
 1663SOL     OW 5006   2.671   0.004   2.364
 1663SOL    HW1 5007   2.711   0.095   2.355
 1663SOL    HW2 5008   2.571   0.012   2.370
 1664SOL     OW 5009   2.059   0.976   3.126
 1664SOL    HW1 5010   2.148   0.931   3.112
 1664SOL    HW2 5011   1.986   0.911   3.107
 1665SOL     OW 5012   3.387   0.999   2.052
 1665SOL    HW1 5013   3.324   0.923   2.065
 1665SOL    HW2 5014   3.435   1.017   2.138
 1666SOL     OW 5015   3.049   1.792   3.478
 1666SOL    HW1 5016   3.073   1.852   3.402
 1666SOL    HW2 5017   3.056   1.697   3.448
 1667SOL     OW 5018   2.179   0.251   3.663
 1667SOL    HW1 5019   2.250   0.322   3.669
 1667SOL    HW2 5020   2.091   0.290   3.691
 1668SOL     OW 5021   3.328   1.417   2.815
 1668SOL    HW1 5022   3.269   1.423   2.895
 1668SOL    HW2 5023   3.313   1.329   2.769
 1669SOL     OW 5024   3.529   1.714   2.434
 1669SOL    HW1 5025   3.488   1.691   2.346
 1669SOL    HW2 5026   3.511   1.640   2.499
 1670SOL     OW 5027   2.460   0.729   2.132
 1670SOL    HW1 5028   2.484   0.798   2.064
 1670SOL    HW2 5029   2.382   0.762   2.186
 1671SOL     OW 5030   3.143   0.345   2.806
 1671SOL    HW1 5031   3.057   0.295   2.793
 1671SOL    HW2 5032   3.205   0.291   2.862
 1672SOL     OW 5033   3.438   1.662   2.169
 1672SOL    HW1 5034   3.527   1.708   2.172
 1672SOL    HW2 5035   3.417   1.638   2.074
 1673SOL     OW 5036   2.669   0.605   3.327
 1673SOL    HW1 5037   2.622   0.602   3.416
 1673SOL    HW2 5038   2.618   0.550   3.261
 1674SOL     OW 5039   3.256   0.469   3.536
 1674SOL    HW1 5040   3.236   0.512   3.624
 1674SOL    HW2 5041   3.334   0.407   3.545
 1675SOL     OW 5042   2.835   0.890   3.434
 1675SOL    HW1 5043   2.881   0.806   3.405
 1675SOL    HW2 5044   2.779   0.924   3.359
 1676SOL     OW 5045   2.853   0.410   3.104
 1676SOL    HW1 5046   2.776   0.444   3.158
 1676SOL    HW2 5047   2.819   0.359   3.025
 1677SOL     OW 5048   2.903   0.701   2.291
 1677SOL    HW1 5049   2.929   0.697   2.387
 1677SOL    HW2 5050   2.818   0.650   2.277
 1678SOL     OW 5051   1.938   0.811   2.651
 1678SOL    HW1 5052   2.037   0.799   2.660
 1678SOL    HW2 5053   1.914   0.906   2.672
 1679SOL     OW 5054   1.992   1.821   3.433
 1679SOL    HW1 5055   1.982   1.806   3.532
 1679SOL    HW2 5056   1.906   1.857   3.397
 1680SOL     OW 5057   2.727   0.348   2.057
 1680SOL    HW1 5058   2.786   0.411   2.008
 1680SOL    HW2 5059   2.746   0.254   2.028
 1681SOL     OW 5060   3.581   0.585   3.693
 1681SOL    HW1 5061   3.555   0.674   3.657
 1681SOL    HW2 5062   3.579   0.517   3.620
 1682SOL     OW 5063   3.224   1.144   2.407
 1682SOL    HW1 5064   3.307   1.115   2.359
 1682SOL    HW2 5065   3.175   1.211   2.351
 1683SOL     OW 5066   2.412   0.196   2.747
 1683SOL    HW1 5067   2.407   0.191   2.847
 1683SOL    HW2 5068   2.414   0.292   2.718
 1684SOL     OW 5069   2.870   1.456   2.339
 1684SOL    HW1 5070   2.824   1.528   2.287
 1684SOL    HW2 5071   2.866   1.476   2.437
 1685SOL     OW 5072   2.213   1.801   2.715
 1685SOL    HW1 5073   2.263   1.715   2.721
 1685SOL    HW2 5074   2.278   1.878   2.712
 1686SOL     OW 5075   3.657   1.066   2.735
 1686SOL    HW1 5076   3.595   1.051   2.659
 1686SOL    HW2 5077   3.605   1.077   2.820
 1687SOL     OW 5078   3.089   1.550   3.368
 1687SOL    HW1 5079   3.095   1.473   3.432
 1687SOL    HW2 5080   3.037   1.524   3.288
 1688SOL     OW 5081   2.183   0.943   2.104
 1688SOL    HW1 5082   2.265   0.982   2.062
 1688SOL    HW2 5083   2.156   0.861   2.055
 1689SOL     OW 5084   3.320   0.735   2.590
 1689SOL    HW1 5085   3.315   0.670   2.665
 1689SOL    HW2 5086   3.400   0.794   2.603
 1690SOL     OW 5087   2.323   1.266   3.589
 1690SOL    HW1 5088   2.273   1.267   3.503
 1690SOL    HW2 5089   2.260   1.248   3.665
 1691SOL     OW 5090   2.973   1.776   2.099
 1691SOL    HW1 5091   2.913   1.714   2.149
 1691SOL    HW2 5092   3.004   1.732   2.014
 1692SOL     OW 5093   2.064   0.285   3.360
 1692SOL    HW1 5094   1.984   0.345   3.347
 1692SOL    HW2 5095   2.054   0.236   3.446
 1693SOL     OW 5096   3.494   1.377   1.943
 1693SOL    HW1 5097   3.462   1.471   1.933
 1693SOL    HW2 5098   3.418   1.314   1.931
 1694SOL     OW 5099   2.326   1.743   2.185
 1694SOL    HW1 5100   2.359   1.782   2.271
 1694SOL    HW2 5101   2.402   1.736   2.120
 1695SOL     OW 5102   3.262   0.107   2.288
 1695SOL    HW1 5103   3.238   0.070   2.198
 1695SOL    HW2 5104   3.361   0.123   2.292
 1696SOL     OW 5105   2.111   1.785   3.103
 1696SOL    HW1 5106   2.168   1.720   3.153
 1696SOL    HW2 5107   2.095   1.752   3.010
 1697SOL     OW 5108   2.802   1.698   2.766
 1697SOL    HW1 5109   2.882   1.641   2.787
 1697SOL    HW2 5110   2.753   1.658   2.689
 1698SOL     OW 5111   2.244   0.700   2.342
 1698SOL    HW1 5112   2.289   0.610   2.339
 1698SOL    HW2 5113   2.150   0.689   2.375
 1699SOL     OW 5114   3.409   0.222   3.591
 1699SOL    HW1 5115   3.404   0.259   3.683
 1699SOL    HW2 5116   3.337   0.153   3.579
 1700SOL     OW 5117   2.476   0.122   1.979
 1700SOL    HW1 5118   2.574   0.100   1.986
 1700SOL    HW2 5119   2.445   0.105   1.886
 1701SOL     OW 5120   2.643   0.264   3.611
 1701SOL    HW1 5121   2.710   0.203   3.654
 1701SOL    HW2 5122   2.570   0.283   3.676
 1702SOL     OW 5123   2.750   1.514   3.057
 1702SOL    HW1 5124   2.727   1.489   2.963
 1702SOL    HW2 5125   2.811   1.445   3.096
 1703SOL     OW 5126   3.213   0.590   3.295
 1703SOL    HW1 5127   3.241   0.547   3.380
 1703SOL    HW2 5128   3.238   0.686   3.296
 1704SOL     OW 5129   2.665   1.402   2.786
 1704SOL    HW1 5130   2.755   1.416   2.744
 1704SOL    HW2 5131   2.594   1.404   2.715
 1705SOL     OW 5132   2.784   0.503   2.761
 1705SOL    HW1 5133   2.759   0.494   2.665
 1705SOL    HW2 5134   2.832   0.421   2.792
 1706SOL     OW 5135   2.401   0.064   2.374
 1706SOL    HW1 5136   2.320   0.065   2.432
 1706SOL    HW2 5137   2.404   0.147   2.319
 1707SOL     OW 5138   3.296   1.188   1.903
 1707SOL    HW1 5139   3.328   1.112   1.960
 1707SOL    HW2 5140   3.204   1.215   1.933
 1708SOL     OW 5141   2.159   0.035   2.033
 1708SOL    HW1 5142   2.208   0.119   2.012
 1708SOL    HW2 5143   2.221  -0.030   2.078
 1709SOL     OW 5144   2.797   0.236   2.342
 1709SOL    HW1 5145   2.749   0.277   2.264
 1709SOL    HW2 5146   2.896   0.234   2.323
 1710SOL     OW 5147   2.938   0.683   3.326
 1710SOL    HW1 5148   2.858   0.622   3.329
 1710SOL    HW2 5149   3.019   0.630   3.302
 1711SOL     OW 5150   3.089   1.570   2.655
 1711SOL    HW1 5151   3.110   1.644   2.590
 1711SOL    HW2 5152   3.157   1.570   2.728
 1712SOL     OW 5153   2.321   1.152   2.603
 1712SOL    HW1 5154   2.250   1.125   2.668
 1712SOL    HW2 5155   2.295   1.124   2.510
 1713SOL     OW 5156   3.133   1.797   2.453
 1713SOL    HW1 5157   3.177   1.861   2.389
 1713SOL    HW2 5158   3.083   1.849   2.523
 1714SOL     OW 5159   2.894   0.549   1.878
 1714SOL    HW1 5160   2.853   0.631   1.839
 1714SOL    HW2 5161   2.958   0.575   1.951
 1715SOL     OW 5162   1.940   0.556   3.248
 1715SOL    HW1 5163   2.032   0.555   3.207
 1715SOL    HW2 5164   1.934   0.630   3.315
 1716SOL     OW 5165   2.423   0.222   3.009
 1716SOL    HW1 5166   2.461   0.138   3.046
 1716SOL    HW2 5167   2.335   0.241   3.053
 1717SOL     OW 5168   2.728   0.454   2.504
 1717SOL    HW1 5169   2.696   0.526   2.442
 1717SOL    HW2 5170   2.752   0.373   2.451
 1718SOL     OW 5171   2.879   0.039   2.615
 1718SOL    HW1 5172   2.807   0.044   2.546
 1718SOL    HW2 5173   2.855  -0.030   2.684
 1719SOL     OW 5174   3.291   1.173   2.729
 1719SOL    HW1 5175   3.236   1.089   2.722
 1719SOL    HW2 5176   3.317   1.202   2.637
 1720SOL     OW 5177   3.328   0.590   2.854
 1720SOL    HW1 5178   3.298   0.495   2.861
 1720SOL    HW2 5179   3.401   0.606   2.920
 1721SOL     OW 5180   3.719   0.833   2.239
 1721SOL    HW1 5181   3.761   0.769   2.303
 1721SOL    HW2 5182   3.681   0.782   2.161
 1722SOL     OW 5183   2.350   1.385   2.036
 1722SOL    HW1 5184   2.263   1.370   2.083
 1722SOL    HW2 5185   2.333   1.411   1.941
 1723SOL     OW 5186   3.526   1.280   2.519
 1723SOL    HW1 5187   3.625   1.288   2.533
 1723SOL    HW2 5188   3.481   1.364   2.550
 1724SOL     OW 5189   3.252   0.575   1.940
 1724SOL    HW1 5190   3.198   0.554   2.021
 1724SOL    HW2 5191   3.343   0.534   1.949
 1725SOL     OW 5192   2.389   0.256   2.190
 1725SOL    HW1 5193   2.416   0.197   2.115
 1725SOL    HW2 5194   2.389   0.351   2.159
 1726SOL     OW 5195   3.616   1.223   3.450
 1726SOL    HW1 5196   3.707   1.184   3.437
 1726SOL    HW2 5197   3.624   1.319   3.474
 1727SOL     OW 5198   2.926   1.347   3.202
 1727SOL    HW1 5199   2.846   1.324   3.257
 1727SOL    HW2 5200   3.009   1.321   3.251
 1728SOL     OW 5201   3.454   1.629   3.487
 1728SOL    HW1 5202   3.481   1.663   3.397
 1728SOL    HW2 5203   3.533   1.591   3.533
 1729SOL     OW 5204   2.973   1.195   2.962
 1729SOL    HW1 5205   2.933   1.239   3.043
 1729SOL    HW2 5206   2.932   1.232   2.879
 1730SOL     OW 5207   3.500   1.099   2.941
 1730SOL    HW1 5208   3.505   1.180   3.000
 1730SOL    HW2 5209   3.414   1.101   2.890
 1731SOL     OW 5210   2.777   0.089   3.264
 1731SOL    HW1 5211   2.802   0.069   3.169
 1731SOL    HW2 5212   2.849   0.145   3.306
 1732SOL     OW 5213   2.842   1.116   3.581
 1732SOL    HW1 5214   2.743   1.122   3.591
 1732SOL    HW2 5215   2.865   1.036   3.525
 1733SOL     OW 5216   2.567   1.050   2.230
 1733SOL    HW1 5217   2.553   1.057   2.329
 1733SOL    HW2 5218   2.651   0.999   2.212
 1734SOL     OW 5219   2.272   0.813   3.113
 1734SOL    HW1 5220   2.358   0.825   3.163
 1734SOL    HW2 5221   2.230   0.726   3.140
 1735SOL     OW 5222   3.136   0.386   3.124
 1735SOL    HW1 5223   3.157   0.460   3.188
 1735SOL    HW2 5224   3.047   0.403   3.081
 1736SOL     OW 5225   1.926   1.564   3.193
 1736SOL    HW1 5226   1.880   1.646   3.159
 1736SOL    HW2 5227   2.024   1.583   3.202
 1737SOL     OW 5228   2.229   1.100   2.363
 1737SOL    HW1 5229   2.222   1.183   2.307
 1737SOL    HW2 5230   2.233   1.020   2.303
 1738SOL     OW 5231   2.428   0.537   2.727
 1738SOL    HW1 5232   2.440   0.603   2.653
 1738SOL    HW2 5233   2.474   0.571   2.810
 1739SOL     OW 5234   3.114   1.348   2.250
 1739SOL    HW1 5235   3.164   1.425   2.290
 1739SOL    HW2 5236   3.019   1.350   2.282
 1740SOL     OW 5237   3.134   1.445   3.004
 1740SOL    HW1 5238   3.181   1.458   3.091
 1740SOL    HW2 5239   3.068   1.371   3.013
 1741SOL     OW 5240   3.444   0.639   2.334
 1741SOL    HW1 5241   3.413   0.700   2.407
 1741SOL    HW2 5242   3.494   0.691   2.265
 1742SOL     OW 5243   2.216   1.510   3.191
 1742SOL    HW1 5244   2.195   1.466   3.104
 1742SOL    HW2 5245   2.313   1.536   3.194
 1743SOL     OW 5246   2.264   0.751   3.460
 1743SOL    HW1 5247   2.332   0.806   3.413
 1743SOL    HW2 5248   2.304   0.663   3.487
 1744SOL     OW 5249   3.449   0.779   3.532
 1744SOL    HW1 5250   3.357   0.817   3.527
 1744SOL    HW2 5251   3.509   0.826   3.467
 1745SOL     OW 5252   2.875   0.105   3.632
 1745SOL    HW1 5253   2.881   0.190   3.580
 1745SOL    HW2 5254   2.907   0.029   3.575
 1746SOL     OW 5255   2.366   0.050   3.602
 1746SOL    HW1 5256   2.324  -0.007   3.532
 1746SOL    HW2 5257   2.300   0.119   3.634
 1747SOL     OW 5258   2.435   0.870   2.891
 1747SOL    HW1 5259   2.479   0.959   2.882
 1747SOL    HW2 5260   2.372   0.870   2.968
 1748SOL     OW 5261   3.222   0.862   2.907
 1748SOL    HW1 5262   3.147   0.862   2.841
 1748SOL    HW2 5263   3.259   0.770   2.916
 1749SOL     OW 5264   3.071   0.525   2.137
 1749SOL    HW1 5265   3.084   0.441   2.191
 1749SOL    HW2 5266   3.042   0.599   2.197
 1750SOL     OW 5267   2.169   0.213   3.093
 1750SOL    HW1 5268   2.146   0.250   3.183
 1750SOL    HW2 5269   2.139   0.118   3.087
 1751SOL     OW 5270   1.899   1.310   3.144
 1751SOL    HW1 5271   1.952   1.261   3.212
 1751SOL    HW2 5272   1.921   1.408   3.149
 1752SOL     OW 5273   2.594   0.634   2.926
 1752SOL    HW1 5274   2.653   0.608   2.850
 1752SOL    HW2 5275   2.566   0.730   2.915
 1753SOL     OW 5276   3.590   0.935   3.716
 1753SOL    HW1 5277   3.544   0.928   3.627
 1753SOL    HW2 5278   3.528   0.979   3.782
 1754SOL     OW 5279   2.169   0.063   2.480
 1754SOL    HW1 5280   2.158   0.157   2.513
 1754SOL    HW2 5281   2.164   0.000   2.557
 1755SOL     OW 5282   3.484   0.367   2.236
 1755SOL    HW1 5283   3.486   0.291   2.300
 1755SOL    HW2 5284   3.436   0.444   2.276
 1756SOL     OW 5285   2.885   0.766   2.828
 1756SOL    HW1 5286   2.900   0.787   2.924
 1756SOL    HW2 5287   2.855   0.671   2.819
 1757SOL     OW 5288   2.842   1.573   3.562
 1757SOL    HW1 5289   2.822   1.617   3.474
 1757SOL    HW2 5290   2.881   1.482   3.546
 1758SOL     OW 5291   3.721   1.518   3.467
 1758SOL    HW1 5292   3.735   1.545   3.372
 1758SOL    HW2 5293   3.804   1.540   3.520
 1759SOL     OW 5294   2.212   0.898   3.666
 1759SOL    HW1 5295   2.288   0.942   3.714
 1759SOL    HW2 5296   2.247   0.851   3.584
 1760SOL     OW 5297   3.402   0.274   1.987
 1760SOL    HW1 5298   3.341   0.199   2.010
 1760SOL    HW2 5299   3.424   0.326   2.070
 1761SOL     OW 5300   3.165   0.838   1.904
 1761SOL    HW1 5301   3.199   0.745   1.919
 1761SOL    HW2 5302   3.183   0.865   1.809
 1762SOL     OW 5303   2.930   1.333   2.711
 1762SOL    HW1 5304   2.937   1.249   2.656
 1762SOL    HW2 5305   2.992   1.402   2.675
 1763SOL     OW 5306   2.181   0.810   2.811
 1763SOL    HW1 5307   2.274   0.846   2.816
 1763SOL    HW2 5308   2.175   0.725   2.863
 1764SOL     OW 5309   2.201   0.509   2.868
 1764SOL    HW1 5310   2.149   0.426   2.851
 1764SOL    HW2 5311   2.278   0.514   2.804
 1765SOL     OW 5312   3.000   0.380   3.540
 1765SOL    HW1 5313   2.955   0.443   3.604
 1765SOL    HW2 5314   3.093   0.411   3.523
 1766SOL     OW 5315   3.022   0.207   3.339
 1766SOL    HW1 5316   3.022   0.271   3.416
 1766SOL    HW2 5317   3.050   0.255   3.256
 1767SOL     OW 5318   1.870   1.326   2.062
 1767SOL    HW1 5319   1.777   1.347   2.031
 1767SOL    HW2 5320   1.880   1.227   2.075
 1768SOL     OW 5321   1.950   1.801   2.789
 1768SOL    HW1 5322   1.908   1.715   2.762
 1768SOL    HW2 5323   2.044   1.804   2.755
 1769SOL     OW 5324   2.366   1.568   2.772
 1769SOL    HW1 5325   2.432   1.642   2.781
 1769SOL    HW2 5326   2.410   1.489   2.730
 1770SOL     OW 5327   2.864   0.796   3.100
 1770SOL    HW1 5328   2.905   0.764   3.186
 1770SOL    HW2 5329   2.768   0.769   3.097
 1771SOL     OW 5330   1.902   0.544   2.976
 1771SOL    HW1 5331   1.987   0.511   2.935
 1771SOL    HW2 5332   1.915   0.559   3.074
 1772SOL     OW 5333   2.051   0.520   3.584
 1772SOL    HW1 5334   2.110   0.480   3.514
 1772SOL    HW2 5335   1.993   0.591   3.543
 1773SOL     OW 5336   3.231   0.950   3.522
 1773SOL    HW1 5337   3.270   1.039   3.542
 1773SOL    HW2 5338   3.241   0.930   3.425
 1774SOL     OW 5339   2.677   0.572   2.187
 1774SOL    HW1 5340   2.684   0.483   2.141
 1774SOL    HW2 5341   2.583   0.606   2.179
 1775SOL     OW 5342   3.519   0.604   3.068
 1775SOL    HW1 5343   3.481   0.535   3.130
 1775SOL    HW2 5344   3.601   0.568   3.024
 1776SOL     OW 5345   2.114   1.564   3.606
 1776SOL    HW1 5346   2.084   1.621   3.682
 1776SOL    HW2 5347   2.107   1.467   3.632
 1777SOL     OW 5348   2.533   0.464   3.131
 1777SOL    HW1 5349   2.499   0.375   3.101
 1777SOL    HW2 5350   2.559   0.518   3.051
 1778SOL     OW 5351   2.792   1.678   3.327
 1778SOL    HW1 5352   2.768   1.660   3.232
 1778SOL    HW2 5353   2.822   1.772   3.337
 1779SOL     OW 5354   2.335   0.500   2.053
 1779SOL    HW1 5355   2.396   0.580   2.057
 1779SOL    HW2 5356   2.240   0.531   2.060
 1780SOL     OW 5357   2.021   1.137   3.328
 1780SOL    HW1 5358   2.043   1.076   3.404
 1780SOL    HW2 5359   2.031   1.088   3.242
 1781SOL     OW 5360   3.209   1.059   3.096
 1781SOL    HW1 5361   3.233   0.996   3.022
 1781SOL    HW2 5362   3.119   1.099   3.078
 1782SOL     OW 5363   3.164   0.855   2.171
 1782SOL    HW1 5364   3.078   0.824   2.213
 1782SOL    HW2 5365   3.160   0.841   2.072
 1783SOL     OW 5366   3.621   1.747   3.016
 1783SOL    HW1 5367   3.682   1.777   2.943
 1783SOL    HW2 5368   3.583   1.658   2.994
 1784SOL     OW 5369   3.114   1.731   2.990
 1784SOL    HW1 5370   3.198   1.736   2.936
 1784SOL    HW2 5371   3.091   1.635   3.008
 1785SOL     OW 5372   1.945   1.258   2.884
 1785SOL    HW1 5373   1.940   1.257   2.984
 1785SOL    HW2 5374   1.862   1.217   2.846
 1786SOL     OW 5375   2.550   1.662   3.578
 1786SOL    HW1 5376   2.494   1.743   3.587
 1786SOL    HW2 5377   2.602   1.666   3.492
 1787SOL     OW 5378   3.588   0.135   2.385
 1787SOL    HW1 5379   3.661   0.118   2.318
 1787SOL    HW2 5380   3.557   0.048   2.423
 1788SOL     OW 5381   3.250   1.573   2.339
 1788SOL    HW1 5382   3.317   1.585   2.265
 1788SOL    HW2 5383   3.210   1.662   2.362
 1789SOL     OW 5384   1.992   1.794   3.713
 1789SOL    HW1 5385   1.951   1.720   3.766
 1789SOL    HW2 5386   2.056   1.845   3.771
 1790SOL     OW 5387   3.142   0.927   2.534
 1790SOL    HW1 5388   3.202   0.846   2.536
 1790SOL    HW2 5389   3.182   0.996   2.474
 1791SOL     OW 5390   2.692   1.273   3.284
 1791SOL    HW1 5391   2.687   1.306   3.379
 1791SOL    HW2 5392   2.606   1.292   3.238
 1792SOL     OW 5393   2.534   1.616   2.016
 1792SOL    HW1 5394   2.543   1.626   1.917
 1792SOL    HW2 5395   2.494   1.527   2.037
 1793SOL     OW 5396   3.512   1.720   3.256
 1793SOL    HW1 5397   3.565   1.730   3.172
 1793SOL    HW2 5398   3.485   1.810   3.290
 1794SOL     OW 5399   3.703   0.175   2.825
 1794SOL    HW1 5400   3.742   0.090   2.789
 1794SOL    HW2 5401   3.605   0.177   2.806
 1795SOL     OW 5402   2.125   0.326   2.582
 1795SOL    HW1 5403   2.046   0.377   2.548
 1795SOL    HW2 5404   2.116   0.311   2.680
 1796SOL     OW 5405   3.056   1.612   1.893
 1796SOL    HW1 5406   3.062   1.519   1.930
 1796SOL    HW2 5407   2.997   1.612   1.813
 1797SOL     OW 5408   2.684   1.002   3.234
 1797SOL    HW1 5409   2.724   1.001   3.142
 1797SOL    HW2 5410   2.694   1.094   3.274
 1798SOL     OW 5411   2.778   0.910   2.153
 1798SOL    HW1 5412   2.841   0.948   2.085
 1798SOL    HW2 5413   2.818   0.827   2.192
 1799SOL     OW 5414   3.366   1.607   1.906
 1799SOL    HW1 5415   3.274   1.644   1.913
 1799SOL    HW2 5416   3.404   1.627   1.816
 1800SOL     OW 5417   2.234   1.288   3.352
 1800SOL    HW1 5418   2.221   1.381   3.318
 1800SOL    HW2 5419   2.150   1.236   3.339
 1801SOL     OW 5420   3.476   1.292   3.151
 1801SOL    HW1 5421   3.536   1.295   3.231
 1801SOL    HW2 5422   3.401   1.356   3.164
 1802SOL     OW 5423   2.901   1.098   2.558
 1802SOL    HW1 5424   2.831   1.051   2.612
 1802SOL    HW2 5425   2.960   1.030   2.515
 1803SOL     OW 5426   2.876   0.236   2.833
 1803SOL    HW1 5427   2.868   0.200   2.740
 1803SOL    HW2 5428   2.874   0.160   2.898
 1804SOL     OW 5429   2.452   1.487   2.353
 1804SOL    HW1 5430   2.494   1.429   2.283
 1804SOL    HW2 5431   2.408   1.566   2.309
 1805SOL     OW 5432   3.571   0.385   3.243
 1805SOL    HW1 5433   3.644   0.454   3.247
 1805SOL    HW2 5434   3.599   0.310   3.184
 1806SOL     OW 5435   2.117   1.348   2.152
 1806SOL    HW1 5436   2.021   1.349   2.125
 1806SOL    HW2 5437   2.129   1.401   2.236
 1807SOL     OW 5438   1.967   1.013   3.588
 1807SOL    HW1 5439   1.890   0.980   3.642
 1807SOL    HW2 5440   2.052   0.983   3.630
 1808SOL     OW 5441   2.534   0.203   3.351
 1808SOL    HW1 5442   2.624   0.187   3.311
 1808SOL    HW2 5443   2.542   0.208   3.450
 1809SOL     OW 5444   1.937   0.345   1.895
 1809SOL    HW1 5445   1.845   0.317   1.866
 1809SOL    HW2 5446   1.968   0.422   1.839
 1810SOL     OW 5447   3.302   0.856   3.260
 1810SOL    HW1 5448   3.245   0.908   3.197
 1810SOL    HW2 5449   3.398   0.868   3.236
 1811SOL     OW 5450   1.934   0.166   2.180
 1811SOL    HW1 5451   1.917   0.249   2.126
 1811SOL    HW2 5452   2.024   0.129   2.158
 1812SOL     OW 5453   3.045   1.335   1.981
 1812SOL    HW1 5454   2.946   1.324   1.983
 1812SOL    HW2 5455   3.079   1.350   2.074
 1813SOL     OW 5456   2.475   0.842   3.293
 1813SOL    HW1 5457   2.531   0.923   3.276
 1813SOL    HW2 5458   2.534   0.762   3.296
 1814SOL     OW 5459   3.355   1.767   2.821
 1814SOL    HW1 5460   3.388   1.831   2.752
 1814SOL    HW2 5461   3.421   1.761   2.896
 1815SOL     OW 5462   2.578   0.565   3.570
 1815SOL    HW1 5463   2.597   0.630   3.644
 1815SOL    HW2 5464   2.638   0.485   3.579
 1816SOL     OW 5465   3.312   1.220   3.495
 1816SOL    HW1 5466   3.303   1.210   3.594
 1816SOL    HW2 5467   3.408   1.213   3.469
 1817SOL     OW 5468   2.252   1.741   3.422
 1817SOL    HW1 5469   2.161   1.782   3.420
 1817SOL    HW2 5470   2.245   1.647   3.454
 1818SOL     OW 5471   3.536   0.883   3.116
 1818SOL    HW1 5472   3.509   0.794   3.079
 1818SOL    HW2 5473   3.537   0.951   3.043
 1819SOL     OW 5474   3.087   0.325   2.311
 1819SOL    HW1 5475   3.152   0.251   2.300
 1819SOL    HW2 5476   3.107   0.375   2.395
 1820SOL     OW 5477   2.456   0.745   2.514
 1820SOL    HW1 5478   2.506   0.830   2.495
 1820SOL    HW2 5479   2.368   0.747   2.466
 1821SOL     OW 5480   3.639   0.342   3.504
 1821SOL    HW1 5481   3.622   0.373   3.410
 1821SOL    HW2 5482   3.555   0.305   3.542
 1822SOL     OW 5483   3.592   0.934   3.379
 1822SOL    HW1 5484   3.630   1.025   3.394
 1822SOL    HW2 5485   3.584   0.917   3.280
 1823SOL     OW 5486   2.721   1.374   1.878
 1823SOL    HW1 5487   2.675   1.389   1.966
 1823SOL    HW2 5488   2.765   1.459   1.848
 1824SOL     OW 5489   2.523   1.790   2.815
 1824SOL    HW1 5490   2.477   1.878   2.802
 1824SOL    HW2 5491   2.622   1.802   2.808
 1825SOL     OW 5492   2.721   0.956   2.723
 1825SOL    HW1 5493   2.775   0.887   2.771
 1825SOL    HW2 5494   2.689   1.025   2.789
 1826SOL     OW 5495   2.945   0.984   1.949
 1826SOL    HW1 5496   2.922   1.037   1.867
 1826SOL    HW2 5497   3.026   0.928   1.930
 1827SOL     OW 5498   3.723   1.569   2.713
 1827SOL    HW1 5499   3.652   1.557   2.643
 1827SOL    HW2 5500   3.724   1.490   2.773
 1828SOL     OW 5501   2.083   1.314   3.706
 1828SOL    HW1 5502   2.018   1.241   3.685
 1828SOL    HW2 5503   2.087   1.328   3.804
 1829SOL     OW 5504   1.941   1.240   2.515
 1829SOL    HW1 5505   1.940   1.193   2.603
 1829SOL    HW2 5506   2.023   1.212   2.464
 1830SOL     OW 5507   2.534   1.391   3.486
 1830SOL    HW1 5508   2.456   1.341   3.524
 1830SOL    HW2 5509   2.531   1.486   3.517
 1831SOL     OW 5510   3.686   0.192   3.089
 1831SOL    HW1 5511   3.682   0.102   3.133
 1831SOL    HW2 5512   3.689   0.181   2.990
 1832SOL     OW 5513   2.290   0.424   2.382
 1832SOL    HW1 5514   2.320   0.352   2.320
 1832SOL    HW2 5515   2.251   0.384   2.465
 1833SOL     OW 5516   3.567   1.487   2.966
 1833SOL    HW1 5517   3.474   1.462   2.939
 1833SOL    HW2 5518   3.593   1.437   3.048
 1834SOL     OW 5519   2.179   0.547   3.142
 1834SOL    HW1 5520   2.217   0.488   3.214
 1834SOL    HW2 5521   2.219   0.521   3.054
 1835SOL     OW 5522   2.674   1.586   2.549
 1835SOL    HW1 5523   2.706   1.596   2.455
 1835SOL    HW2 5524   2.595   1.524   2.551
 1836SOL     OW 5525   3.286   0.214   2.974
 1836SOL    HW1 5526   3.338   0.149   3.029
 1836SOL    HW2 5527   3.237   0.277   3.035
 1837SOL     OW 5528   2.863   0.034   3.016
 1837SOL    HW1 5529   2.800  -0.038   2.985
 1837SOL    HW2 5530   2.956  -0.002   3.016
 1838SOL     OW 5531   2.632   1.330   2.163
 1838SOL    HW1 5532   2.586   1.243   2.180
 1838SOL    HW2 5533   2.723   1.327   2.204
 1839SOL     OW 5534   2.480   1.567   3.146
 1839SOL    HW1 5535   2.475   1.649   3.203
 1839SOL    HW2 5536   2.569   1.564   3.101
 1840SOL     OW 5537   3.214   0.052   2.030
 1840SOL    HW1 5538   3.249   0.011   1.946
 1840SOL    HW2 5539   3.124   0.014   2.050
 1841SOL     OW 5540   3.162   0.453   2.553
 1841SOL    HW1 5541   3.103   0.533   2.557
 1841SOL    HW2 5542   3.177   0.418   2.646
 1842SOL     OW 5543   3.455   0.221   2.744
 1842SOL    HW1 5544   3.371   0.220   2.798
 1842SOL    HW2 5545   3.457   0.304   2.688
 1843SOL     OW 5546   1.901   1.077   2.162
 1843SOL    HW1 5547   2.000   1.066   2.153
 1843SOL    HW2 5548   1.861   0.991   2.194
 1844SOL     OW 5549   2.737   1.646   2.199
 1844SOL    HW1 5550   2.660   1.611   2.145
 1844SOL    HW2 5551   2.705   1.717   2.261
 1845SOL     OW 5552   2.092   0.628   3.837
 1845SOL    HW1 5553   1.999   0.626   3.874
 1845SOL    HW2 5554   2.093   0.589   3.745
 1846SOL     OW 5555   2.087   0.275   4.720
 1846SOL    HW1 5556   2.122   0.258   4.812
 1846SOL    HW2 5557   1.999   0.230   4.708
 1847SOL     OW 5558   1.881   0.368   4.371
 1847SOL    HW1 5559   1.799   0.411   4.410
 1847SOL    HW2 5560   1.853   0.295   4.308
 1848SOL     OW 5561   3.417   1.511   4.427
 1848SOL    HW1 5562   3.360   1.495   4.508
 1848SOL    HW2 5563   3.358   1.521   4.347
 1849SOL     OW 5564   2.997   0.703   4.441
 1849SOL    HW1 5565   3.054   0.781   4.416
 1849SOL    HW2 5566   2.937   0.729   4.517
 1850SOL     OW 5567   3.617   0.607   3.955
 1850SOL    HW1 5568   3.605   0.594   3.856
 1850SOL    HW2 5569   3.587   0.526   4.004
 1851SOL     OW 5570   2.630   1.144   4.747
 1851SOL    HW1 5571   2.552   1.161   4.807
 1851SOL    HW2 5572   2.664   1.231   4.711
 1852SOL     OW 5573   2.547   1.012   4.389
 1852SOL    HW1 5574   2.616   0.996   4.459
 1852SOL    HW2 5575   2.474   1.069   4.427
 1853SOL     OW 5576   2.197   1.435   4.785
 1853SOL    HW1 5577   2.119   1.404   4.732
 1853SOL    HW2 5578   2.255   1.493   4.728
 1854SOL     OW 5579   3.465   0.447   4.461
 1854SOL    HW1 5580   3.391   0.493   4.411
 1854SOL    HW2 5581   3.516   0.515   4.514
 1855SOL     OW 5582   2.093   1.713   4.207
 1855SOL    HW1 5583   2.127   1.790   4.261
 1855SOL    HW2 5584   2.137   1.713   4.117
 1856SOL     OW 5585   2.092   1.434   4.262
 1856SOL    HW1 5586   2.066   1.530   4.262
 1856SOL    HW2 5587   2.021   1.380   4.307
 1857SOL     OW 5588   2.102   1.091   4.610
 1857SOL    HW1 5589   2.116   1.007   4.662
 1857SOL    HW2 5590   2.047   1.155   4.665
 1858SOL     OW 5591   2.468   0.964   3.847
 1858SOL    HW1 5592   2.475   1.048   3.793
 1858SOL    HW2 5593   2.514   0.977   3.935
 1859SOL     OW 5594   1.984   0.643   4.287
 1859SOL    HW1 5595   1.939   0.555   4.304
 1859SOL    HW2 5596   1.983   0.697   4.371
 1860SOL     OW 5597   3.704   1.767   4.083
 1860SOL    HW1 5598   3.758   1.738   4.163
 1860SOL    HW2 5599   3.734   1.857   4.054
 1861SOL     OW 5600   1.889   1.596   3.841
 1861SOL    HW1 5601   1.870   1.500   3.862
 1861SOL    HW2 5602   1.856   1.654   3.916
 1862SOL     OW 5603   3.551   0.922   4.336
 1862SOL    HW1 5604   3.646   0.893   4.344
 1862SOL    HW2 5605   3.543   0.987   4.261
 1863SOL     OW 5606   3.503   1.108   4.156
 1863SOL    HW1 5607   3.589   1.110   4.104
 1863SOL    HW2 5608   3.517   1.155   4.244
 1864SOL     OW 5609   2.475   1.365   4.450
 1864SOL    HW1 5610   2.426   1.278   4.459
 1864SOL    HW2 5611   2.452   1.408   4.363
 1865SOL     OW 5612   2.671   0.004   4.226
 1865SOL    HW1 5613   2.711   0.095   4.217
 1865SOL    HW2 5614   2.571   0.012   4.232
 1866SOL     OW 5615   3.387   0.999   3.914
 1866SOL    HW1 5616   3.324   0.923   3.927
 1866SOL    HW2 5617   3.435   1.017   4.000
 1867SOL     OW 5618   3.328   1.417   4.677
 1867SOL    HW1 5619   3.269   1.423   4.757
 1867SOL    HW2 5620   3.313   1.329   4.631
 1868SOL     OW 5621   3.529   1.714   4.296
 1868SOL    HW1 5622   3.488   1.691   4.208
 1868SOL    HW2 5623   3.511   1.640   4.361
 1869SOL     OW 5624   2.460   0.729   3.994
 1869SOL    HW1 5625   2.484   0.798   3.926
 1869SOL    HW2 5626   2.382   0.762   4.048
 1870SOL     OW 5627   3.143   0.345   4.668
 1870SOL    HW1 5628   3.057   0.295   4.655
 1870SOL    HW2 5629   3.205   0.291   4.724
 1871SOL     OW 5630   3.438   1.662   4.031
 1871SOL    HW1 5631   3.527   1.708   4.034
 1871SOL    HW2 5632   3.417   1.638   3.936
 1872SOL     OW 5633   2.903   0.701   4.153
 1872SOL    HW1 5634   2.929   0.697   4.249
 1872SOL    HW2 5635   2.818   0.650   4.139
 1873SOL     OW 5636   1.938   0.811   4.513
 1873SOL    HW1 5637   2.037   0.799   4.522
 1873SOL    HW2 5638   1.914   0.906   4.534
 1874SOL     OW 5639   2.727   0.348   3.919
 1874SOL    HW1 5640   2.786   0.411   3.870
 1874SOL    HW2 5641   2.746   0.254   3.890
 1875SOL     OW 5642   3.224   1.144   4.269
 1875SOL    HW1 5643   3.307   1.115   4.221
 1875SOL    HW2 5644   3.175   1.211   4.213
 1876SOL     OW 5645   2.412   0.196   4.609
 1876SOL    HW1 5646   2.407   0.191   4.709
 1876SOL    HW2 5647   2.414   0.292   4.580
 1877SOL     OW 5648   2.870   1.456   4.201
 1877SOL    HW1 5649   2.824   1.528   4.149
 1877SOL    HW2 5650   2.866   1.476   4.299
 1878SOL     OW 5651   2.213   1.801   4.577
 1878SOL    HW1 5652   2.263   1.715   4.583
 1878SOL    HW2 5653   2.278   1.878   4.574
 1879SOL     OW 5654   3.657   1.066   4.597
 1879SOL    HW1 5655   3.595   1.051   4.521
 1879SOL    HW2 5656   3.605   1.077   4.682
 1880SOL     OW 5657   2.183   0.943   3.966
 1880SOL    HW1 5658   2.265   0.982   3.924
 1880SOL    HW2 5659   2.156   0.861   3.917
 1881SOL     OW 5660   3.320   0.735   4.452
 1881SOL    HW1 5661   3.315   0.670   4.527
 1881SOL    HW2 5662   3.400   0.794   4.465
 1882SOL     OW 5663   2.973   1.776   3.961
 1882SOL    HW1 5664   2.913   1.714   4.011
 1882SOL    HW2 5665   3.004   1.732   3.876
 1883SOL     OW 5666   3.494   1.377   3.805
 1883SOL    HW1 5667   3.462   1.471   3.795
 1883SOL    HW2 5668   3.418   1.314   3.793
 1884SOL     OW 5669   2.326   1.743   4.047
 1884SOL    HW1 5670   2.359   1.782   4.133
 1884SOL    HW2 5671   2.402   1.736   3.982
 1885SOL     OW 5672   3.262   0.107   4.150
 1885SOL    HW1 5673   3.238   0.070   4.060
 1885SOL    HW2 5674   3.361   0.123   4.154
 1886SOL     OW 5675   2.111   1.785   4.965
 1886SOL    HW1 5676   2.168   1.720   5.015
 1886SOL    HW2 5677   2.095   1.752   4.872
 1887SOL     OW 5678   2.802   1.698   4.628
 1887SOL    HW1 5679   2.882   1.641   4.649
 1887SOL    HW2 5680   2.753   1.658   4.551
 1888SOL     OW 5681   2.244   0.700   4.204
 1888SOL    HW1 5682   2.289   0.610   4.201
 1888SOL    HW2 5683   2.150   0.689   4.237
 1889SOL     OW 5684   2.476   0.122   3.841
 1889SOL    HW1 5685   2.574   0.100   3.848
 1889SOL    HW2 5686   2.445   0.105   3.748
 1890SOL     OW 5687   2.665   1.402   4.648
 1890SOL    HW1 5688   2.755   1.416   4.606
 1890SOL    HW2 5689   2.594   1.404   4.577
 1891SOL     OW 5690   2.784   0.503   4.623
 1891SOL    HW1 5691   2.759   0.494   4.527
 1891SOL    HW2 5692   2.832   0.421   4.654
 1892SOL     OW 5693   2.401   0.064   4.236
 1892SOL    HW1 5694   2.320   0.065   4.294
 1892SOL    HW2 5695   2.404   0.147   4.181
 1893SOL     OW 5696   3.296   1.188   3.765
 1893SOL    HW1 5697   3.328   1.112   3.822
 1893SOL    HW2 5698   3.204   1.215   3.795
 1894SOL     OW 5699   2.159   0.035   3.895
 1894SOL    HW1 5700   2.208   0.119   3.874
 1894SOL    HW2 5701   2.221  -0.030   3.940
 1895SOL     OW 5702   2.797   0.236   4.204
 1895SOL    HW1 5703   2.749   0.277   4.126
 1895SOL    HW2 5704   2.896   0.234   4.185
 1896SOL     OW 5705   3.089   1.570   4.517
 1896SOL    HW1 5706   3.110   1.644   4.452
 1896SOL    HW2 5707   3.157   1.570   4.590
 1897SOL     OW 5708   2.321   1.152   4.465
 1897SOL    HW1 5709   2.250   1.125   4.530
 1897SOL    HW2 5710   2.295   1.124   4.372
 1898SOL     OW 5711   3.133   1.797   4.315
 1898SOL    HW1 5712   3.177   1.861   4.251
 1898SOL    HW2 5713   3.083   1.849   4.385
 1899SOL     OW 5714   2.894   0.549   3.740
 1899SOL    HW1 5715   2.853   0.631   3.701
 1899SOL    HW2 5716   2.958   0.575   3.813
 1900SOL     OW 5717   2.728   0.454   4.366
 1900SOL    HW1 5718   2.696   0.526   4.304
 1900SOL    HW2 5719   2.752   0.373   4.313
 1901SOL     OW 5720   2.879   0.039   4.477
 1901SOL    HW1 5721   2.807   0.044   4.408
 1901SOL    HW2 5722   2.855  -0.030   4.546
 1902SOL     OW 5723   3.291   1.173   4.591
 1902SOL    HW1 5724   3.236   1.089   4.584
 1902SOL    HW2 5725   3.317   1.202   4.499
 1903SOL     OW 5726   3.328   0.590   4.716
 1903SOL    HW1 5727   3.298   0.495   4.723
 1903SOL    HW2 5728   3.401   0.606   4.782
 1904SOL     OW 5729   3.719   0.833   4.101
 1904SOL    HW1 5730   3.761   0.769   4.165
 1904SOL    HW2 5731   3.681   0.782   4.023
 1905SOL     OW 5732   2.350   1.385   3.898
 1905SOL    HW1 5733   2.263   1.370   3.945
 1905SOL    HW2 5734   2.333   1.411   3.803
 1906SOL     OW 5735   3.526   1.280   4.381
 1906SOL    HW1 5736   3.625   1.288   4.395
 1906SOL    HW2 5737   3.481   1.364   4.412
 1907SOL     OW 5738   3.252   0.575   3.802
 1907SOL    HW1 5739   3.198   0.554   3.883
 1907SOL    HW2 5740   3.343   0.534   3.811
 1908SOL     OW 5741   2.389   0.256   4.052
 1908SOL    HW1 5742   2.416   0.197   3.977
 1908SOL    HW2 5743   2.389   0.351   4.021
 1909SOL     OW 5744   3.500   1.099   4.803
 1909SOL    HW1 5745   3.505   1.180   4.862
 1909SOL    HW2 5746   3.414   1.101   4.752
 1910SOL     OW 5747   2.567   1.050   4.092
 1910SOL    HW1 5748   2.553   1.057   4.191
 1910SOL    HW2 5749   2.651   0.999   4.074
 1911SOL     OW 5750   2.229   1.100   4.225
 1911SOL    HW1 5751   2.222   1.183   4.169
 1911SOL    HW2 5752   2.233   1.020   4.165
 1912SOL     OW 5753   2.428   0.537   4.589
 1912SOL    HW1 5754   2.440   0.603   4.515
 1912SOL    HW2 5755   2.474   0.571   4.672
 1913SOL     OW 5756   3.114   1.348   4.112
 1913SOL    HW1 5757   3.164   1.425   4.152
 1913SOL    HW2 5758   3.019   1.350   4.144
 1914SOL     OW 5759   3.444   0.639   4.196
 1914SOL    HW1 5760   3.413   0.700   4.269
 1914SOL    HW2 5761   3.494   0.691   4.127
 1915SOL     OW 5762   2.435   0.870   4.753
 1915SOL    HW1 5763   2.479   0.959   4.744
 1915SOL    HW2 5764   2.372   0.870   4.830
 1916SOL     OW 5765   3.071   0.525   3.999
 1916SOL    HW1 5766   3.084   0.441   4.053
 1916SOL    HW2 5767   3.042   0.599   4.059
 1917SOL     OW 5768   2.594   0.634   4.788
 1917SOL    HW1 5769   2.653   0.608   4.712
 1917SOL    HW2 5770   2.566   0.730   4.777
 1918SOL     OW 5771   2.169   0.063   4.342
 1918SOL    HW1 5772   2.158   0.157   4.375
 1918SOL    HW2 5773   2.164   0.000   4.419
 1919SOL     OW 5774   3.484   0.367   4.098
 1919SOL    HW1 5775   3.486   0.291   4.162
 1919SOL    HW2 5776   3.436   0.444   4.138
 1920SOL     OW 5777   3.402   0.274   3.849
 1920SOL    HW1 5778   3.341   0.199   3.872
 1920SOL    HW2 5779   3.424   0.326   3.932
 1921SOL     OW 5780   3.165   0.838   3.766
 1921SOL    HW1 5781   3.199   0.745   3.781
 1921SOL    HW2 5782   3.183   0.865   3.671
 1922SOL     OW 5783   2.930   1.333   4.573
 1922SOL    HW1 5784   2.937   1.249   4.518
 1922SOL    HW2 5785   2.992   1.402   4.537
 1923SOL     OW 5786   2.181   0.810   4.673
 1923SOL    HW1 5787   2.274   0.846   4.678
 1923SOL    HW2 5788   2.175   0.725   4.725
 1924SOL     OW 5789   2.201   0.509   4.730
 1924SOL    HW1 5790   2.149   0.426   4.713
 1924SOL    HW2 5791   2.278   0.514   4.666
 1925SOL     OW 5792   1.870   1.326   3.924
 1925SOL    HW1 5793   1.777   1.347   3.893
 1925SOL    HW2 5794   1.880   1.227   3.937
 1926SOL     OW 5795   1.950   1.801   4.651
 1926SOL    HW1 5796   1.908   1.715   4.624
 1926SOL    HW2 5797   2.044   1.804   4.617
 1927SOL     OW 5798   2.366   1.568   4.634
 1927SOL    HW1 5799   2.432   1.642   4.643
 1927SOL    HW2 5800   2.410   1.489   4.592
 1928SOL     OW 5801   2.864   0.796   4.962
 1928SOL    HW1 5802   2.905   0.764   5.048
 1928SOL    HW2 5803   2.768   0.769   4.959
 1929SOL     OW 5804   2.677   0.572   4.049
 1929SOL    HW1 5805   2.684   0.483   4.003
 1929SOL    HW2 5806   2.583   0.606   4.041
 1930SOL     OW 5807   2.533   0.464   4.993
 1930SOL    HW1 5808   2.499   0.375   4.963
 1930SOL    HW2 5809   2.559   0.518   4.913
 1931SOL     OW 5810   2.335   0.500   3.915
 1931SOL    HW1 5811   2.396   0.580   3.919
 1931SOL    HW2 5812   2.240   0.531   3.922
 1932SOL     OW 5813   3.164   0.855   4.033
 1932SOL    HW1 5814   3.078   0.824   4.075
 1932SOL    HW2 5815   3.160   0.841   3.934
 1933SOL     OW 5816   3.621   1.747   4.878
 1933SOL    HW1 5817   3.682   1.777   4.805
 1933SOL    HW2 5818   3.583   1.658   4.856
 1934SOL     OW 5819   1.945   1.258   4.746
 1934SOL    HW1 5820   1.940   1.257   4.846
 1934SOL    HW2 5821   1.862   1.217   4.708
 1935SOL     OW 5822   3.588   0.135   4.247
 1935SOL    HW1 5823   3.661   0.118   4.180
 1935SOL    HW2 5824   3.557   0.048   4.285
 1936SOL     OW 5825   3.250   1.573   4.201
 1936SOL    HW1 5826   3.317   1.585   4.127
 1936SOL    HW2 5827   3.210   1.662   4.224
 1937SOL     OW 5828   3.142   0.927   4.396
 1937SOL    HW1 5829   3.202   0.846   4.398
 1937SOL    HW2 5830   3.182   0.996   4.336
 1938SOL     OW 5831   2.534   1.616   3.878
 1938SOL    HW1 5832   2.543   1.626   3.779
 1938SOL    HW2 5833   2.494   1.527   3.899
 1939SOL     OW 5834   3.703   0.175   4.687
 1939SOL    HW1 5835   3.742   0.090   4.651
 1939SOL    HW2 5836   3.605   0.177   4.668
 1940SOL     OW 5837   2.125   0.326   4.444
 1940SOL    HW1 5838   2.046   0.377   4.410
 1940SOL    HW2 5839   2.116   0.311   4.542
 1941SOL     OW 5840   3.056   1.612   3.755
 1941SOL    HW1 5841   3.062   1.519   3.792
 1941SOL    HW2 5842   2.997   1.612   3.675
 1942SOL     OW 5843   2.778   0.910   4.015
 1942SOL    HW1 5844   2.841   0.948   3.947
 1942SOL    HW2 5845   2.818   0.827   4.054
 1943SOL     OW 5846   3.366   1.607   3.768
 1943SOL    HW1 5847   3.274   1.644   3.775
 1943SOL    HW2 5848   3.404   1.627   3.678
 1944SOL     OW 5849   2.901   1.098   4.420
 1944SOL    HW1 5850   2.831   1.051   4.474
 1944SOL    HW2 5851   2.960   1.030   4.377
 1945SOL     OW 5852   2.452   1.487   4.215
 1945SOL    HW1 5853   2.494   1.429   4.145
 1945SOL    HW2 5854   2.408   1.566   4.171
 1946SOL     OW 5855   2.117   1.348   4.014
 1946SOL    HW1 5856   2.021   1.349   3.987
 1946SOL    HW2 5857   2.129   1.401   4.098
 1947SOL     OW 5858   1.937   0.345   3.757
 1947SOL    HW1 5859   1.845   0.317   3.728
 1947SOL    HW2 5860   1.968   0.422   3.701
 1948SOL     OW 5861   1.934   0.166   4.042
 1948SOL    HW1 5862   1.917   0.249   3.988
 1948SOL    HW2 5863   2.024   0.129   4.020
 1949SOL     OW 5864   3.045   1.335   3.843
 1949SOL    HW1 5865   2.946   1.324   3.845
 1949SOL    HW2 5866   3.079   1.350   3.936
 1950SOL     OW 5867   3.536   0.883   4.978
 1950SOL    HW1 5868   3.509   0.794   4.941
 1950SOL    HW2 5869   3.537   0.951   4.905
 1951SOL     OW 5870   3.087   0.325   4.173
 1951SOL    HW1 5871   3.152   0.251   4.162
 1951SOL    HW2 5872   3.107   0.375   4.257
 1952SOL     OW 5873   2.456   0.745   4.376
 1952SOL    HW1 5874   2.506   0.830   4.357
 1952SOL    HW2 5875   2.368   0.747   4.328
 1953SOL     OW 5876   2.721   1.374   3.740
 1953SOL    HW1 5877   2.675   1.389   3.828
 1953SOL    HW2 5878   2.765   1.459   3.710
 1954SOL     OW 5879   2.523   1.790   4.677
 1954SOL    HW1 5880   2.477   1.878   4.664
 1954SOL    HW2 5881   2.622   1.802   4.670
 1955SOL     OW 5882   2.721   0.956   4.585
 1955SOL    HW1 5883   2.775   0.887   4.633
 1955SOL    HW2 5884   2.689   1.025   4.651
 1956SOL     OW 5885   2.945   0.984   3.811
 1956SOL    HW1 5886   2.922   1.037   3.729
 1956SOL    HW2 5887   3.026   0.928   3.792
 1957SOL     OW 5888   3.723   1.569   4.575
 1957SOL    HW1 5889   3.652   1.557   4.505
 1957SOL    HW2 5890   3.724   1.490   4.635
 1958SOL     OW 5891   1.941   1.240   4.377
 1958SOL    HW1 5892   1.940   1.193   4.465
 1958SOL    HW2 5893   2.023   1.212   4.326
 1959SOL     OW 5894   3.686   0.192   4.951
 1959SOL    HW1 5895   3.682   0.102   4.995
 1959SOL    HW2 5896   3.689   0.181   4.852
 1960SOL     OW 5897   2.290   0.424   4.244
 1960SOL    HW1 5898   2.320   0.352   4.182
 1960SOL    HW2 5899   2.251   0.384   4.327
 1961SOL     OW 5900   2.674   1.586   4.411
 1961SOL    HW1 5901   2.706   1.596   4.317
 1961SOL    HW2 5902   2.595   1.524   4.413
 1962SOL     OW 5903   2.632   1.330   4.025
 1962SOL    HW1 5904   2.586   1.243   4.042
 1962SOL    HW2 5905   2.723   1.327   4.066
 1963SOL     OW 5906   3.214   0.052   3.892
 1963SOL    HW1 5907   3.249   0.011   3.808
 1963SOL    HW2 5908   3.124   0.014   3.912
 1964SOL     OW 5909   3.162   0.453   4.415
 1964SOL    HW1 5910   3.103   0.533   4.419
 1964SOL    HW2 5911   3.177   0.418   4.508
 1965SOL     OW 5912   3.455   0.221   4.606
 1965SOL    HW1 5913   3.371   0.220   4.660
 1965SOL    HW2 5914   3.457   0.304   4.550
 1966SOL     OW 5915   1.901   1.077   4.024
 1966SOL    HW1 5916   2.000   1.066   4.015
 1966SOL    HW2 5917   1.861   0.991   4.056
 1967SOL     OW 5918   2.737   1.646   4.061
 1967SOL    HW1 5919   2.660   1.611   4.007
 1967SOL    HW2 5920   2.705   1.717   4.123
 1968SOL     OW 5921   2.092   2.490   0.113
 1968SOL    HW1 5922   1.999   2.488   0.150
 1968SOL    HW2 5923   2.093   2.451   0.021
 1969SOL     OW 5924   2.087   2.137   0.996
 1969SOL    HW1 5925   2.122   2.120   1.088
 1969SOL    HW2 5926   1.999   2.092   0.984
 1970SOL     OW 5927   1.881   2.230   0.647
 1970SOL    HW1 5928   1.799   2.273   0.686
 1970SOL    HW2 5929   1.853   2.157   0.584
 1971SOL     OW 5930   2.431   3.137   1.165
 1971SOL    HW1 5931   2.338   3.130   1.128
 1971SOL    HW2 5932   2.442   3.226   1.209
 1972SOL     OW 5933   3.417   3.373   0.703
 1972SOL    HW1 5934   3.360   3.357   0.784
 1972SOL    HW2 5935   3.358   3.383   0.623
 1973SOL     OW 5936   2.997   2.565   0.717
 1973SOL    HW1 5937   3.054   2.643   0.692
 1973SOL    HW2 5938   2.937   2.591   0.793
 1974SOL     OW 5939   3.617   2.469   0.231
 1974SOL    HW1 5940   3.605   2.456   0.132
 1974SOL    HW2 5941   3.587   2.388   0.280
 1975SOL     OW 5942   2.630   3.006   1.023
 1975SOL    HW1 5943   2.552   3.023   1.083
 1975SOL    HW2 5944   2.664   3.093   0.987
 1976SOL     OW 5945   2.712   2.660   1.823
 1976SOL    HW1 5946   2.708   2.736   1.888
 1976SOL    HW2 5947   2.734   2.696   1.732
 1977SOL     OW 5948   2.547   2.874   0.665
 1977SOL    HW1 5949   2.616   2.858   0.735
 1977SOL    HW2 5950   2.474   2.931   0.703
 1978SOL     OW 5951   2.548   3.023   1.803
 1978SOL    HW1 5952   2.608   3.102   1.817
 1978SOL    HW2 5953   2.462   3.054   1.762
 1979SOL     OW 5954   2.197   3.297   1.061
 1979SOL    HW1 5955   2.119   3.266   1.008
 1979SOL    HW2 5956   2.255   3.355   1.004
 1980SOL     OW 5957   3.322   3.367   1.339
 1980SOL    HW1 5958   3.346   3.461   1.365
 1980SOL    HW2 5959   3.306   3.313   1.421
 1981SOL     OW 5960   2.300   2.254   1.499
 1981SOL    HW1 5961   2.382   2.198   1.508
 1981SOL    HW2 5962   2.219   2.196   1.503
 1982SOL     OW 5963   3.465   2.309   0.737
 1982SOL    HW1 5964   3.391   2.355   0.687
 1982SOL    HW2 5965   3.516   2.377   0.790
 1983SOL     OW 5966   2.093   3.575   0.483
 1983SOL    HW1 5967   2.127   3.652   0.537
 1983SOL    HW2 5968   2.137   3.575   0.393
 1984SOL     OW 5969   2.989   3.203   1.690
 1984SOL    HW1 5970   3.036   3.203   1.778
 1984SOL    HW2 5971   2.941   3.116   1.679
 1985SOL     OW 5972   2.092   3.296   0.538
 1985SOL    HW1 5973   2.066   3.392   0.538
 1985SOL    HW2 5974   2.021   3.242   0.583
 1986SOL     OW 5975   2.102   2.953   0.886
 1986SOL    HW1 5976   2.116   2.869   0.938
 1986SOL    HW2 5977   2.047   3.017   0.941
 1987SOL     OW 5978   2.482   3.648   1.439
 1987SOL    HW1 5979   2.390   3.631   1.474
 1987SOL    HW2 5980   2.510   3.740   1.465
 1988SOL     OW 5981   2.468   2.826   0.123
 1988SOL    HW1 5982   2.475   2.910   0.069
 1988SOL    HW2 5983   2.514   2.839   0.211
 1989SOL     OW 5984   3.456   1.976   1.480
 1989SOL    HW1 5985   3.438   2.043   1.408
 1989SOL    HW2 5986   3.453   2.022   1.569
 1990SOL     OW 5987   1.984   2.505   0.563
 1990SOL    HW1 5988   1.939   2.417   0.580
 1990SOL    HW2 5989   1.983   2.559   0.647
 1991SOL     OW 5990   3.704   3.629   0.359
 1991SOL    HW1 5991   3.758   3.600   0.439
 1991SOL    HW2 5992   3.734   3.719   0.330
 1992SOL     OW 5993   1.889   3.458   0.117
 1992SOL    HW1 5994   1.870   3.362   0.138
 1992SOL    HW2 5995   1.856   3.516   0.192
 1993SOL     OW 5996   3.551   2.784   0.612
 1993SOL    HW1 5997   3.646   2.755   0.620
 1993SOL    HW2 5998   3.543   2.849   0.537
 1994SOL     OW 5999   3.503   2.970   0.432
 1994SOL    HW1 6000   3.589   2.972   0.380
 1994SOL    HW2 6001   3.517   3.017   0.520
 1995SOL     OW 6002   1.975   2.599   1.597
 1995SOL    HW1 6003   2.063   2.586   1.642
 1995SOL    HW2 6004   1.962   2.696   1.575
 1996SOL     OW 6005   2.475   3.227   0.726
 1996SOL    HW1 6006   2.426   3.140   0.735
 1996SOL    HW2 6007   2.452   3.270   0.639
 1997SOL     OW 6008   3.155   3.090   1.423
 1997SOL    HW1 6009   3.192   3.017   1.365
 1997SOL    HW2 6010   3.207   3.095   1.508
 1998SOL     OW 6011   2.671   1.866   0.502
 1998SOL    HW1 6012   2.711   1.957   0.493
 1998SOL    HW2 6013   2.571   1.874   0.508
 1999SOL     OW 6014   2.059   2.838   1.264
 1999SOL    HW1 6015   2.148   2.793   1.250
 1999SOL    HW2 6016   1.986   2.773   1.245
 2000SOL     OW 6017   3.387   2.861   0.190
 2000SOL    HW1 6018   3.324   2.785   0.203
 2000SOL    HW2 6019   3.435   2.879   0.276
 2001SOL     OW 6020   3.049   3.654   1.616
 2001SOL    HW1 6021   3.073   3.714   1.540
 2001SOL    HW2 6022   3.056   3.559   1.586
 2002SOL     OW 6023   2.179   2.113   1.801
 2002SOL    HW1 6024   2.250   2.184   1.807
 2002SOL    HW2 6025   2.091   2.152   1.829
 2003SOL     OW 6026   3.328   3.279   0.953
 2003SOL    HW1 6027   3.269   3.285   1.033
 2003SOL    HW2 6028   3.313   3.191   0.907
 2004SOL     OW 6029   3.529   3.576   0.572
 2004SOL    HW1 6030   3.488   3.553   0.484
 2004SOL    HW2 6031   3.511   3.502   0.637
 2005SOL     OW 6032   2.460   2.591   0.270
 2005SOL    HW1 6033   2.484   2.660   0.202
 2005SOL    HW2 6034   2.382   2.624   0.324
 2006SOL     OW 6035   3.143   2.207   0.944
 2006SOL    HW1 6036   3.057   2.157   0.931
 2006SOL    HW2 6037   3.205   2.153   1.000
 2007SOL     OW 6038   3.438   3.524   0.307
 2007SOL    HW1 6039   3.527   3.570   0.310
 2007SOL    HW2 6040   3.417   3.500   0.212
 2008SOL     OW 6041   2.669   2.467   1.465
 2008SOL    HW1 6042   2.622   2.464   1.554
 2008SOL    HW2 6043   2.618   2.412   1.399
 2009SOL     OW 6044   3.256   2.331   1.674
 2009SOL    HW1 6045   3.236   2.374   1.762
 2009SOL    HW2 6046   3.334   2.269   1.683
 2010SOL     OW 6047   2.835   2.752   1.572
 2010SOL    HW1 6048   2.881   2.668   1.543
 2010SOL    HW2 6049   2.779   2.786   1.497
 2011SOL     OW 6050   2.853   2.272   1.242
 2011SOL    HW1 6051   2.776   2.306   1.296
 2011SOL    HW2 6052   2.819   2.221   1.163
 2012SOL     OW 6053   2.903   2.563   0.429
 2012SOL    HW1 6054   2.929   2.559   0.525
 2012SOL    HW2 6055   2.818   2.512   0.415
 2013SOL     OW 6056   1.938   2.673   0.789
 2013SOL    HW1 6057   2.037   2.661   0.798
 2013SOL    HW2 6058   1.914   2.768   0.810
 2014SOL     OW 6059   1.992   3.683   1.571
 2014SOL    HW1 6060   1.982   3.668   1.670
 2014SOL    HW2 6061   1.906   3.719   1.535
 2015SOL     OW 6062   2.727   2.210   0.195
 2015SOL    HW1 6063   2.786   2.273   0.146
 2015SOL    HW2 6064   2.746   2.116   0.166
 2016SOL     OW 6065   3.581   2.447   1.831
 2016SOL    HW1 6066   3.555   2.536   1.795
 2016SOL    HW2 6067   3.579   2.379   1.758
 2017SOL     OW 6068   3.224   3.006   0.545
 2017SOL    HW1 6069   3.307   2.977   0.497
 2017SOL    HW2 6070   3.175   3.073   0.489
 2018SOL     OW 6071   2.412   2.058   0.885
 2018SOL    HW1 6072   2.407   2.053   0.985
 2018SOL    HW2 6073   2.414   2.154   0.856
 2019SOL     OW 6074   2.870   3.318   0.477
 2019SOL    HW1 6075   2.824   3.390   0.425
 2019SOL    HW2 6076   2.866   3.338   0.575
 2020SOL     OW 6077   2.213   3.663   0.853
 2020SOL    HW1 6078   2.263   3.577   0.859
 2020SOL    HW2 6079   2.278   3.740   0.850
 2021SOL     OW 6080   3.657   2.928   0.873
 2021SOL    HW1 6081   3.595   2.913   0.797
 2021SOL    HW2 6082   3.605   2.939   0.958
 2022SOL     OW 6083   3.089   3.412   1.506
 2022SOL    HW1 6084   3.095   3.335   1.570
 2022SOL    HW2 6085   3.037   3.386   1.426
 2023SOL     OW 6086   2.183   2.805   0.242
 2023SOL    HW1 6087   2.265   2.844   0.200
 2023SOL    HW2 6088   2.156   2.723   0.193
 2024SOL     OW 6089   3.320   2.597   0.728
 2024SOL    HW1 6090   3.315   2.532   0.803
 2024SOL    HW2 6091   3.400   2.656   0.741
 2025SOL     OW 6092   2.323   3.128   1.727
 2025SOL    HW1 6093   2.273   3.129   1.641
 2025SOL    HW2 6094   2.260   3.110   1.803
 2026SOL     OW 6095   2.973   3.638   0.237
 2026SOL    HW1 6096   2.913   3.576   0.287
 2026SOL    HW2 6097   3.004   3.594   0.152
 2027SOL     OW 6098   2.064   2.147   1.498
 2027SOL    HW1 6099   1.984   2.207   1.485
 2027SOL    HW2 6100   2.054   2.098   1.584
 2028SOL     OW 6101   3.494   3.239   0.081
 2028SOL    HW1 6102   3.462   3.333   0.071
 2028SOL    HW2 6103   3.418   3.176   0.069
 2029SOL     OW 6104   2.326   3.605   0.323
 2029SOL    HW1 6105   2.359   3.644   0.409
 2029SOL    HW2 6106   2.402   3.598   0.258
 2030SOL     OW 6107   3.262   1.969   0.426
 2030SOL    HW1 6108   3.238   1.932   0.336
 2030SOL    HW2 6109   3.361   1.985   0.430
 2031SOL     OW 6110   2.111   3.647   1.241
 2031SOL    HW1 6111   2.168   3.582   1.291
 2031SOL    HW2 6112   2.095   3.614   1.148
 2032SOL     OW 6113   2.802   3.560   0.904
 2032SOL    HW1 6114   2.882   3.503   0.925
 2032SOL    HW2 6115   2.753   3.520   0.827
 2033SOL     OW 6116   2.244   2.562   0.480
 2033SOL    HW1 6117   2.289   2.472   0.477
 2033SOL    HW2 6118   2.150   2.551   0.513
 2034SOL     OW 6119   3.409   2.084   1.729
 2034SOL    HW1 6120   3.404   2.121   1.821
 2034SOL    HW2 6121   3.337   2.015   1.717
 2035SOL     OW 6122   2.476   1.984   0.117
 2035SOL    HW1 6123   2.574   1.962   0.124
 2035SOL    HW2 6124   2.445   1.967   0.024
 2036SOL     OW 6125   2.643   2.126   1.749
 2036SOL    HW1 6126   2.710   2.065   1.792
 2036SOL    HW2 6127   2.570   2.145   1.814
 2037SOL     OW 6128   2.750   3.376   1.195
 2037SOL    HW1 6129   2.727   3.351   1.101
 2037SOL    HW2 6130   2.811   3.307   1.234
 2038SOL     OW 6131   3.213   2.452   1.433
 2038SOL    HW1 6132   3.241   2.409   1.518
 2038SOL    HW2 6133   3.238   2.548   1.434
 2039SOL     OW 6134   2.665   3.264   0.924
 2039SOL    HW1 6135   2.755   3.278   0.882
 2039SOL    HW2 6136   2.594   3.266   0.853
 2040SOL     OW 6137   2.784   2.365   0.899
 2040SOL    HW1 6138   2.759   2.356   0.803
 2040SOL    HW2 6139   2.832   2.283   0.930
 2041SOL     OW 6140   2.401   1.926   0.512
 2041SOL    HW1 6141   2.320   1.927   0.570
 2041SOL    HW2 6142   2.404   2.009   0.457
 2042SOL     OW 6143   3.296   3.050   0.041
 2042SOL    HW1 6144   3.328   2.974   0.098
 2042SOL    HW2 6145   3.204   3.077   0.071
 2043SOL     OW 6146   2.797   2.098   0.480
 2043SOL    HW1 6147   2.749   2.139   0.402
 2043SOL    HW2 6148   2.896   2.096   0.461
 2044SOL     OW 6149   2.938   2.545   1.464
 2044SOL    HW1 6150   2.858   2.484   1.467
 2044SOL    HW2 6151   3.019   2.492   1.440
 2045SOL     OW 6152   3.089   3.432   0.793
 2045SOL    HW1 6153   3.110   3.506   0.728
 2045SOL    HW2 6154   3.157   3.432   0.866
 2046SOL     OW 6155   2.321   3.014   0.741
 2046SOL    HW1 6156   2.250   2.987   0.806
 2046SOL    HW2 6157   2.295   2.986   0.648
 2047SOL     OW 6158   3.133   3.659   0.591
 2047SOL    HW1 6159   3.177   3.723   0.527
 2047SOL    HW2 6160   3.083   3.711   0.661
 2048SOL     OW 6161   2.894   2.411   0.016
 2048SOL    HW1 6162   2.853   2.493  -0.023
 2048SOL    HW2 6163   2.958   2.437   0.089
 2049SOL     OW 6164   1.940   2.418   1.386
 2049SOL    HW1 6165   2.032   2.417   1.345
 2049SOL    HW2 6166   1.934   2.492   1.453
 2050SOL     OW 6167   2.423   2.084   1.147
 2050SOL    HW1 6168   2.461   2.000   1.184
 2050SOL    HW2 6169   2.335   2.103   1.191
 2051SOL     OW 6170   2.728   2.316   0.642
 2051SOL    HW1 6171   2.696   2.388   0.580
 2051SOL    HW2 6172   2.752   2.235   0.589
 2052SOL     OW 6173   2.879   1.901   0.753
 2052SOL    HW1 6174   2.807   1.906   0.684
 2052SOL    HW2 6175   2.855   1.832   0.822
 2053SOL     OW 6176   3.291   3.035   0.867
 2053SOL    HW1 6177   3.236   2.951   0.860
 2053SOL    HW2 6178   3.317   3.064   0.775
 2054SOL     OW 6179   3.328   2.452   0.992
 2054SOL    HW1 6180   3.298   2.357   0.999
 2054SOL    HW2 6181   3.401   2.468   1.058
 2055SOL     OW 6182   3.719   2.695   0.377
 2055SOL    HW1 6183   3.761   2.631   0.441
 2055SOL    HW2 6184   3.681   2.644   0.299
 2056SOL     OW 6185   2.350   3.247   0.174
 2056SOL    HW1 6186   2.263   3.232   0.221
 2056SOL    HW2 6187   2.333   3.273   0.079
 2057SOL     OW 6188   3.526   3.142   0.657
 2057SOL    HW1 6189   3.625   3.150   0.671
 2057SOL    HW2 6190   3.481   3.226   0.688
 2058SOL     OW 6191   3.252   2.437   0.078
 2058SOL    HW1 6192   3.198   2.416   0.159
 2058SOL    HW2 6193   3.343   2.396   0.087
 2059SOL     OW 6194   2.389   2.118   0.328
 2059SOL    HW1 6195   2.416   2.059   0.253
 2059SOL    HW2 6196   2.389   2.213   0.297
 2060SOL     OW 6197   3.616   3.085   1.588
 2060SOL    HW1 6198   3.707   3.046   1.575
 2060SOL    HW2 6199   3.624   3.181   1.612
 2061SOL     OW 6200   2.926   3.209   1.340
 2061SOL    HW1 6201   2.846   3.186   1.395
 2061SOL    HW2 6202   3.009   3.183   1.389
 2062SOL     OW 6203   3.454   3.491   1.625
 2062SOL    HW1 6204   3.481   3.525   1.535
 2062SOL    HW2 6205   3.533   3.453   1.671
 2063SOL     OW 6206   2.973   3.057   1.100
 2063SOL    HW1 6207   2.933   3.101   1.181
 2063SOL    HW2 6208   2.932   3.094   1.017
 2064SOL     OW 6209   3.500   2.961   1.079
 2064SOL    HW1 6210   3.505   3.042   1.138
 2064SOL    HW2 6211   3.414   2.963   1.028
 2065SOL     OW 6212   2.777   1.951   1.402
 2065SOL    HW1 6213   2.802   1.931   1.307
 2065SOL    HW2 6214   2.849   2.007   1.444
 2066SOL     OW 6215   2.842   2.978   1.719
 2066SOL    HW1 6216   2.743   2.984   1.729
 2066SOL    HW2 6217   2.865   2.898   1.663
 2067SOL     OW 6218   2.567   2.912   0.368
 2067SOL    HW1 6219   2.553   2.919   0.467
 2067SOL    HW2 6220   2.651   2.861   0.350
 2068SOL     OW 6221   2.272   2.675   1.251
 2068SOL    HW1 6222   2.358   2.687   1.301
 2068SOL    HW2 6223   2.230   2.588   1.278
 2069SOL     OW 6224   3.136   2.248   1.262
 2069SOL    HW1 6225   3.157   2.322   1.326
 2069SOL    HW2 6226   3.047   2.265   1.219
 2070SOL     OW 6227   1.926   3.426   1.331
 2070SOL    HW1 6228   1.880   3.508   1.297
 2070SOL    HW2 6229   2.024   3.445   1.340
 2071SOL     OW 6230   2.229   2.962   0.501
 2071SOL    HW1 6231   2.222   3.045   0.445
 2071SOL    HW2 6232   2.233   2.882   0.441
 2072SOL     OW 6233   2.428   2.399   0.865
 2072SOL    HW1 6234   2.440   2.465   0.791
 2072SOL    HW2 6235   2.474   2.433   0.948
 2073SOL     OW 6236   3.114   3.210   0.388
 2073SOL    HW1 6237   3.164   3.287   0.428
 2073SOL    HW2 6238   3.019   3.212   0.420
 2074SOL     OW 6239   3.134   3.307   1.142
 2074SOL    HW1 6240   3.181   3.320   1.229
 2074SOL    HW2 6241   3.068   3.233   1.151
 2075SOL     OW 6242   3.444   2.501   0.472
 2075SOL    HW1 6243   3.413   2.562   0.545
 2075SOL    HW2 6244   3.494   2.553   0.403
 2076SOL     OW 6245   2.216   3.372   1.329
 2076SOL    HW1 6246   2.195   3.328   1.242
 2076SOL    HW2 6247   2.313   3.398   1.332
 2077SOL     OW 6248   2.264   2.613   1.598
 2077SOL    HW1 6249   2.332   2.668   1.551
 2077SOL    HW2 6250   2.304   2.525   1.625
 2078SOL     OW 6251   3.449   2.641   1.670
 2078SOL    HW1 6252   3.357   2.679   1.665
 2078SOL    HW2 6253   3.509   2.688   1.605
 2079SOL     OW 6254   2.875   1.967   1.770
 2079SOL    HW1 6255   2.881   2.052   1.718
 2079SOL    HW2 6256   2.907   1.891   1.713
 2080SOL     OW 6257   2.366   1.912   1.740
 2080SOL    HW1 6258   2.324   1.855   1.670
 2080SOL    HW2 6259   2.300   1.981   1.772
 2081SOL     OW 6260   2.435   2.732   1.029
 2081SOL    HW1 6261   2.479   2.821   1.020
 2081SOL    HW2 6262   2.372   2.732   1.106
 2082SOL     OW 6263   3.222   2.724   1.045
 2082SOL    HW1 6264   3.147   2.724   0.979
 2082SOL    HW2 6265   3.259   2.632   1.054
 2083SOL     OW 6266   3.071   2.387   0.275
 2083SOL    HW1 6267   3.084   2.303   0.329
 2083SOL    HW2 6268   3.042   2.461   0.335
 2084SOL     OW 6269   2.169   2.075   1.231
 2084SOL    HW1 6270   2.146   2.112   1.321
 2084SOL    HW2 6271   2.139   1.980   1.225
 2085SOL     OW 6272   1.899   3.172   1.282
 2085SOL    HW1 6273   1.952   3.123   1.350
 2085SOL    HW2 6274   1.921   3.270   1.287
 2086SOL     OW 6275   2.594   2.496   1.064
 2086SOL    HW1 6276   2.653   2.470   0.988
 2086SOL    HW2 6277   2.566   2.592   1.053
 2087SOL     OW 6278   3.590   2.797   1.854
 2087SOL    HW1 6279   3.544   2.790   1.765
 2087SOL    HW2 6280   3.528   2.841   1.920
 2088SOL     OW 6281   2.169   1.925   0.618
 2088SOL    HW1 6282   2.158   2.019   0.651
 2088SOL    HW2 6283   2.164   1.862   0.695
 2089SOL     OW 6284   3.484   2.229   0.374
 2089SOL    HW1 6285   3.486   2.153   0.438
 2089SOL    HW2 6286   3.436   2.306   0.414
 2090SOL     OW 6287   2.885   2.628   0.966
 2090SOL    HW1 6288   2.900   2.649   1.062
 2090SOL    HW2 6289   2.855   2.533   0.957
 2091SOL     OW 6290   2.842   3.435   1.700
 2091SOL    HW1 6291   2.822   3.479   1.612
 2091SOL    HW2 6292   2.881   3.344   1.684
 2092SOL     OW 6293   3.721   3.380   1.605
 2092SOL    HW1 6294   3.735   3.407   1.510
 2092SOL    HW2 6295   3.804   3.402   1.658
 2093SOL     OW 6296   2.212   2.760   1.804
 2093SOL    HW1 6297   2.288   2.804   1.852
 2093SOL    HW2 6298   2.247   2.713   1.722
 2094SOL     OW 6299   3.402   2.136   0.125
 2094SOL    HW1 6300   3.341   2.061   0.148
 2094SOL    HW2 6301   3.424   2.188   0.208
 2095SOL     OW 6302   3.165   2.700   0.042
 2095SOL    HW1 6303   3.199   2.607   0.057
 2095SOL    HW2 6304   3.183   2.727  -0.053
 2096SOL     OW 6305   2.930   3.195   0.849
 2096SOL    HW1 6306   2.937   3.111   0.794
 2096SOL    HW2 6307   2.992   3.264   0.813
 2097SOL     OW 6308   2.181   2.672   0.949
 2097SOL    HW1 6309   2.274   2.708   0.954
 2097SOL    HW2 6310   2.175   2.587   1.001
 2098SOL     OW 6311   2.201   2.371   1.006
 2098SOL    HW1 6312   2.149   2.288   0.989
 2098SOL    HW2 6313   2.278   2.376   0.942
 2099SOL     OW 6314   3.000   2.242   1.678
 2099SOL    HW1 6315   2.955   2.305   1.742
 2099SOL    HW2 6316   3.093   2.273   1.661
 2100SOL     OW 6317   3.022   2.069   1.477
 2100SOL    HW1 6318   3.022   2.133   1.554
 2100SOL    HW2 6319   3.050   2.117   1.394
 2101SOL     OW 6320   1.870   3.188   0.200
 2101SOL    HW1 6321   1.777   3.209   0.169
 2101SOL    HW2 6322   1.880   3.089   0.213
 2102SOL     OW 6323   1.950   3.663   0.927
 2102SOL    HW1 6324   1.908   3.577   0.900
 2102SOL    HW2 6325   2.044   3.666   0.893
 2103SOL     OW 6326   2.366   3.430   0.910
 2103SOL    HW1 6327   2.432   3.504   0.919
 2103SOL    HW2 6328   2.410   3.351   0.868
 2104SOL     OW 6329   2.864   2.658   1.238
 2104SOL    HW1 6330   2.905   2.626   1.324
 2104SOL    HW2 6331   2.768   2.631   1.235
 2105SOL     OW 6332   1.902   2.406   1.114
 2105SOL    HW1 6333   1.987   2.373   1.073
 2105SOL    HW2 6334   1.915   2.421   1.212
 2106SOL     OW 6335   2.051   2.382   1.722
 2106SOL    HW1 6336   2.110   2.342   1.652
 2106SOL    HW2 6337   1.993   2.453   1.681
 2107SOL     OW 6338   3.231   2.812   1.660
 2107SOL    HW1 6339   3.270   2.901   1.680
 2107SOL    HW2 6340   3.241   2.792   1.563
 2108SOL     OW 6341   2.677   2.434   0.325
 2108SOL    HW1 6342   2.684   2.345   0.279
 2108SOL    HW2 6343   2.583   2.468   0.317
 2109SOL     OW 6344   3.519   2.466   1.206
 2109SOL    HW1 6345   3.481   2.397   1.268
 2109SOL    HW2 6346   3.601   2.430   1.162
 2110SOL     OW 6347   2.114   3.426   1.744
 2110SOL    HW1 6348   2.084   3.483   1.820
 2110SOL    HW2 6349   2.107   3.329   1.770
 2111SOL     OW 6350   2.533   2.326   1.269
 2111SOL    HW1 6351   2.499   2.237   1.239
 2111SOL    HW2 6352   2.559   2.380   1.189
 2112SOL     OW 6353   2.792   3.540   1.465
 2112SOL    HW1 6354   2.768   3.522   1.370
 2112SOL    HW2 6355   2.822   3.634   1.475
 2113SOL     OW 6356   2.335   2.362   0.191
 2113SOL    HW1 6357   2.396   2.442   0.195
 2113SOL    HW2 6358   2.240   2.393   0.198
 2114SOL     OW 6359   2.021   2.999   1.466
 2114SOL    HW1 6360   2.043   2.938   1.542
 2114SOL    HW2 6361   2.031   2.950   1.380
 2115SOL     OW 6362   3.209   2.921   1.234
 2115SOL    HW1 6363   3.233   2.858   1.160
 2115SOL    HW2 6364   3.119   2.961   1.216
 2116SOL     OW 6365   3.164   2.717   0.309
 2116SOL    HW1 6366   3.078   2.686   0.351
 2116SOL    HW2 6367   3.160   2.703   0.210
 2117SOL     OW 6368   3.621   3.609   1.154
 2117SOL    HW1 6369   3.682   3.639   1.081
 2117SOL    HW2 6370   3.583   3.520   1.132
 2118SOL     OW 6371   3.114   3.593   1.128
 2118SOL    HW1 6372   3.198   3.598   1.074
 2118SOL    HW2 6373   3.091   3.497   1.146
 2119SOL     OW 6374   1.945   3.120   1.022
 2119SOL    HW1 6375   1.940   3.119   1.122
 2119SOL    HW2 6376   1.862   3.079   0.984
 2120SOL     OW 6377   2.550   3.524   1.716
 2120SOL    HW1 6378   2.494   3.605   1.725
 2120SOL    HW2 6379   2.602   3.528   1.630
 2121SOL     OW 6380   2.765   1.948   0.133
 2121SOL    HW1 6381   2.816   1.949   0.047
 2121SOL    HW2 6382   2.821   1.906   0.204
 2122SOL     OW 6383   3.588   1.997   0.523
 2122SOL    HW1 6384   3.661   1.980   0.456
 2122SOL    HW2 6385   3.557   1.910   0.561
 2123SOL     OW 6386   3.250   3.435   0.477
 2123SOL    HW1 6387   3.317   3.447   0.403
 2123SOL    HW2 6388   3.210   3.524   0.500
 2124SOL     OW 6389   1.992   3.656   1.851
 2124SOL    HW1 6390   1.951   3.582   1.904
 2124SOL    HW2 6391   2.056   3.707   1.909
 2125SOL     OW 6392   3.142   2.789   0.672
 2125SOL    HW1 6393   3.202   2.708   0.674
 2125SOL    HW2 6394   3.182   2.858   0.612
 2126SOL     OW 6395   2.692   3.135   1.422
 2126SOL    HW1 6396   2.687   3.168   1.517
 2126SOL    HW2 6397   2.606   3.154   1.376
 2127SOL     OW 6398   2.534   3.478   0.154
 2127SOL    HW1 6399   2.543   3.488   0.055
 2127SOL    HW2 6400   2.494   3.389   0.175
 2128SOL     OW 6401   3.512   3.582   1.394
 2128SOL    HW1 6402   3.565   3.592   1.310
 2128SOL    HW2 6403   3.485   3.672   1.428
 2129SOL     OW 6404   3.703   2.037   0.963
 2129SOL    HW1 6405   3.742   1.952   0.927
 2129SOL    HW2 6406   3.605   2.039   0.944
 2130SOL     OW 6407   2.125   2.188   0.720
 2130SOL    HW1 6408   2.046   2.239   0.686
 2130SOL    HW2 6409   2.116   2.173   0.818
 2131SOL     OW 6410   3.056   3.474   0.031
 2131SOL    HW1 6411   3.062   3.381   0.068
 2131SOL    HW2 6412   2.997   3.474  -0.049
 2132SOL     OW 6413   2.684   2.864   1.372
 2132SOL    HW1 6414   2.724   2.863   1.280
 2132SOL    HW2 6415   2.694   2.956   1.412
 2133SOL     OW 6416   2.778   2.772   0.291
 2133SOL    HW1 6417   2.841   2.810   0.223
 2133SOL    HW2 6418   2.818   2.689   0.330
 2134SOL     OW 6419   3.366   3.469   0.044
 2134SOL    HW1 6420   3.274   3.506   0.051
 2134SOL    HW2 6421   3.404   3.489  -0.046
 2135SOL     OW 6422   2.234   3.150   1.490
 2135SOL    HW1 6423   2.221   3.243   1.456
 2135SOL    HW2 6424   2.150   3.098   1.477
 2136SOL     OW 6425   3.476   3.154   1.289
 2136SOL    HW1 6426   3.536   3.157   1.369
 2136SOL    HW2 6427   3.401   3.218   1.302
 2137SOL     OW 6428   2.901   2.960   0.696
 2137SOL    HW1 6429   2.831   2.913   0.750
 2137SOL    HW2 6430   2.960   2.892   0.653
 2138SOL     OW 6431   2.876   2.098   0.971
 2138SOL    HW1 6432   2.868   2.062   0.878
 2138SOL    HW2 6433   2.874   2.022   1.036
 2139SOL     OW 6434   2.452   3.349   0.491
 2139SOL    HW1 6435   2.494   3.291   0.421
 2139SOL    HW2 6436   2.408   3.428   0.447
 2140SOL     OW 6437   3.571   2.247   1.381
 2140SOL    HW1 6438   3.644   2.316   1.385
 2140SOL    HW2 6439   3.599   2.172   1.322
 2141SOL     OW 6440   2.117   3.210   0.290
 2141SOL    HW1 6441   2.021   3.211   0.263
 2141SOL    HW2 6442   2.129   3.263   0.374
 2142SOL     OW 6443   1.967   2.875   1.726
 2142SOL    HW1 6444   1.890   2.842   1.780
 2142SOL    HW2 6445   2.052   2.845   1.768
 2143SOL     OW 6446   2.534   2.065   1.489
 2143SOL    HW1 6447   2.624   2.049   1.449
 2143SOL    HW2 6448   2.542   2.070   1.588
 2144SOL     OW 6449   1.937   2.207   0.033
 2144SOL    HW1 6450   1.845   2.179   0.004
 2144SOL    HW2 6451   1.968   2.284  -0.023
 2145SOL     OW 6452   3.302   2.718   1.398
 2145SOL    HW1 6453   3.245   2.770   1.335
 2145SOL    HW2 6454   3.398   2.730   1.374
 2146SOL     OW 6455   1.934   2.028   0.318
 2146SOL    HW1 6456   1.917   2.111   0.264
 2146SOL    HW2 6457   2.024   1.991   0.296
 2147SOL     OW 6458   3.045   3.197   0.119
 2147SOL    HW1 6459   2.946   3.186   0.121
 2147SOL    HW2 6460   3.079   3.212   0.212
 2148SOL     OW 6461   2.475   2.704   1.431
 2148SOL    HW1 6462   2.531   2.785   1.414
 2148SOL    HW2 6463   2.534   2.624   1.434
 2149SOL     OW 6464   3.355   3.629   0.959
 2149SOL    HW1 6465   3.388   3.693   0.890
 2149SOL    HW2 6466   3.421   3.623   1.034
 2150SOL     OW 6467   2.578   2.427   1.708
 2150SOL    HW1 6468   2.597   2.492   1.782
 2150SOL    HW2 6469   2.638   2.347   1.717
 2151SOL     OW 6470   3.312   3.082   1.633
 2151SOL    HW1 6471   3.303   3.072   1.732
 2151SOL    HW2 6472   3.408   3.075   1.607
 2152SOL     OW 6473   2.252   3.603   1.560
 2152SOL    HW1 6474   2.161   3.644   1.558
 2152SOL    HW2 6475   2.245   3.509   1.592
 2153SOL     OW 6476   3.536   2.745   1.254
 2153SOL    HW1 6477   3.509   2.656   1.217
 2153SOL    HW2 6478   3.537   2.813   1.181
 2154SOL     OW 6479   3.087   2.187   0.449
 2154SOL    HW1 6480   3.152   2.113   0.438
 2154SOL    HW2 6481   3.107   2.237   0.533
 2155SOL     OW 6482   2.456   2.607   0.652
 2155SOL    HW1 6483   2.506   2.692   0.633
 2155SOL    HW2 6484   2.368   2.609   0.604
 2156SOL     OW 6485   3.639   2.204   1.642
 2156SOL    HW1 6486   3.622   2.235   1.548
 2156SOL    HW2 6487   3.555   2.167   1.680
 2157SOL     OW 6488   3.592   2.796   1.517
 2157SOL    HW1 6489   3.630   2.887   1.532
 2157SOL    HW2 6490   3.584   2.779   1.418
 2158SOL     OW 6491   2.721   3.236   0.016
 2158SOL    HW1 6492   2.675   3.251   0.104
 2158SOL    HW2 6493   2.765   3.321  -0.014
 2159SOL     OW 6494   2.523   3.652   0.953
 2159SOL    HW1 6495   2.477   3.740   0.940
 2159SOL    HW2 6496   2.622   3.664   0.946
 2160SOL     OW 6497   2.721   2.818   0.861
 2160SOL    HW1 6498   2.775   2.749   0.909
 2160SOL    HW2 6499   2.689   2.887   0.927
 2161SOL     OW 6500   2.945   2.846   0.087
 2161SOL    HW1 6501   2.922   2.899   0.005
 2161SOL    HW2 6502   3.026   2.790   0.068
 2162SOL     OW 6503   3.723   3.431   0.851
 2162SOL    HW1 6504   3.652   3.419   0.781
 2162SOL    HW2 6505   3.724   3.352   0.911
 2163SOL     OW 6506   2.083   3.176   1.844
 2163SOL    HW1 6507   2.018   3.103   1.823
 2163SOL    HW2 6508   2.087   3.190   1.942
 2164SOL     OW 6509   1.941   3.102   0.653
 2164SOL    HW1 6510   1.940   3.055   0.741
 2164SOL    HW2 6511   2.023   3.074   0.602
 2165SOL     OW 6512   2.534   3.253   1.624
 2165SOL    HW1 6513   2.456   3.203   1.662
 2165SOL    HW2 6514   2.531   3.348   1.655
 2166SOL     OW 6515   3.686   2.054   1.227
 2166SOL    HW1 6516   3.682   1.964   1.271
 2166SOL    HW2 6517   3.689   2.043   1.128
 2167SOL     OW 6518   2.290   2.286   0.520
 2167SOL    HW1 6519   2.320   2.214   0.458
 2167SOL    HW2 6520   2.251   2.246   0.603
 2168SOL     OW 6521   3.567   3.349   1.104
 2168SOL    HW1 6522   3.474   3.324   1.077
 2168SOL    HW2 6523   3.593   3.299   1.186
 2169SOL     OW 6524   2.179   2.409   1.280
 2169SOL    HW1 6525   2.217   2.350   1.352
 2169SOL    HW2 6526   2.219   2.383   1.192
 2170SOL     OW 6527   2.674   3.448   0.687
 2170SOL    HW1 6528   2.706   3.458   0.593
 2170SOL    HW2 6529   2.595   3.386   0.689
 2171SOL     OW 6530   3.286   2.076   1.112
 2171SOL    HW1 6531   3.338   2.011   1.167
 2171SOL    HW2 6532   3.237   2.139   1.173
 2172SOL     OW 6533   2.863   1.896   1.154
 2172SOL    HW1 6534   2.800   1.824   1.123
 2172SOL    HW2 6535   2.956   1.860   1.154
 2173SOL     OW 6536   2.632   3.192   0.301
 2173SOL    HW1 6537   2.586   3.105   0.318
 2173SOL    HW2 6538   2.723   3.189   0.342
 2174SOL     OW 6539   2.480   3.429   1.284
 2174SOL    HW1 6540   2.475   3.511   1.341
 2174SOL    HW2 6541   2.569   3.426   1.239
 2175SOL     OW 6542   3.214   1.914   0.168
 2175SOL    HW1 6543   3.249   1.873   0.084
 2175SOL    HW2 6544   3.124   1.876   0.188
 2176SOL     OW 6545   3.162   2.315   0.691
 2176SOL    HW1 6546   3.103   2.395   0.695
 2176SOL    HW2 6547   3.177   2.280   0.784
 2177SOL     OW 6548   3.455   2.083   0.882
 2177SOL    HW1 6549   3.371   2.082   0.936
 2177SOL    HW2 6550   3.457   2.166   0.826
 2178SOL     OW 6551   1.901   2.939   0.300
 2178SOL    HW1 6552   2.000   2.928   0.291
 2178SOL    HW2 6553   1.861   2.853   0.332
 2179SOL     OW 6554   2.737   3.508   0.337
 2179SOL    HW1 6555   2.660   3.473   0.283
 2179SOL    HW2 6556   2.705   3.579   0.399
 2180SOL     OW 6557   2.092   2.490   1.975
 2180SOL    HW1 6558   1.999   2.488   2.012
 2180SOL    HW2 6559   2.093   2.451   1.883
 2181SOL     OW 6560   2.087   2.137   2.858
 2181SOL    HW1 6561   2.122   2.120   2.950
 2181SOL    HW2 6562   1.999   2.092   2.846
 2182SOL     OW 6563   1.881   2.230   2.509
 2182SOL    HW1 6564   1.799   2.273   2.548
 2182SOL    HW2 6565   1.853   2.157   2.446
 2183SOL     OW 6566   2.431   3.137   3.027
 2183SOL    HW1 6567   2.338   3.130   2.990
 2183SOL    HW2 6568   2.442   3.226   3.071
 2184SOL     OW 6569   3.417   3.373   2.565
 2184SOL    HW1 6570   3.360   3.357   2.646
 2184SOL    HW2 6571   3.358   3.383   2.485
 2185SOL     OW 6572   2.997   2.565   2.579
 2185SOL    HW1 6573   3.054   2.643   2.554
 2185SOL    HW2 6574   2.937   2.591   2.655
 2186SOL     OW 6575   3.617   2.469   2.093
 2186SOL    HW1 6576   3.605   2.456   1.994
 2186SOL    HW2 6577   3.587   2.388   2.142
 2187SOL     OW 6578   2.630   3.006   2.885
 2187SOL    HW1 6579   2.552   3.023   2.945
 2187SOL    HW2 6580   2.664   3.093   2.849
 2188SOL     OW 6581   2.712   2.660   3.685
 2188SOL    HW1 6582   2.708   2.736   3.750
 2188SOL    HW2 6583   2.734   2.696   3.594
 2189SOL     OW 6584   2.547   2.874   2.527
 2189SOL    HW1 6585   2.616   2.858   2.597
 2189SOL    HW2 6586   2.474   2.931   2.565
 2190SOL     OW 6587   2.548   3.023   3.665
 2190SOL    HW1 6588   2.608   3.102   3.679
 2190SOL    HW2 6589   2.462   3.054   3.624
 2191SOL     OW 6590   2.197   3.297   2.923
 2191SOL    HW1 6591   2.119   3.266   2.870
 2191SOL    HW2 6592   2.255   3.355   2.866
 2192SOL     OW 6593   3.322   3.367   3.201
 2192SOL    HW1 6594   3.346   3.461   3.227
 2192SOL    HW2 6595   3.306   3.313   3.283
 2193SOL     OW 6596   2.300   2.254   3.361
 2193SOL    HW1 6597   2.382   2.198   3.370
 2193SOL    HW2 6598   2.219   2.196   3.365
 2194SOL     OW 6599   3.465   2.309   2.599
 2194SOL    HW1 6600   3.391   2.355   2.549
 2194SOL    HW2 6601   3.516   2.377   2.652
 2195SOL     OW 6602   2.093   3.575   2.345
 2195SOL    HW1 6603   2.127   3.652   2.399
 2195SOL    HW2 6604   2.137   3.575   2.255
 2196SOL     OW 6605   2.989   3.203   3.552
 2196SOL    HW1 6606   3.036   3.203   3.640
 2196SOL    HW2 6607   2.941   3.116   3.541
 2197SOL     OW 6608   2.092   3.296   2.400
 2197SOL    HW1 6609   2.066   3.392   2.400
 2197SOL    HW2 6610   2.021   3.242   2.445
 2198SOL     OW 6611   2.102   2.953   2.748
 2198SOL    HW1 6612   2.116   2.869   2.800
 2198SOL    HW2 6613   2.047   3.017   2.803
 2199SOL     OW 6614   2.482   3.648   3.301
 2199SOL    HW1 6615   2.390   3.631   3.336
 2199SOL    HW2 6616   2.510   3.740   3.327
 2200SOL     OW 6617   2.468   2.826   1.985
 2200SOL    HW1 6618   2.475   2.910   1.931
 2200SOL    HW2 6619   2.514   2.839   2.073
 2201SOL     OW 6620   3.456   1.976   3.342
 2201SOL    HW1 6621   3.438   2.043   3.270
 2201SOL    HW2 6622   3.453   2.022   3.431
 2202SOL     OW 6623   1.984   2.505   2.425
 2202SOL    HW1 6624   1.939   2.417   2.442
 2202SOL    HW2 6625   1.983   2.559   2.509
 2203SOL     OW 6626   3.704   3.629   2.221
 2203SOL    HW1 6627   3.758   3.600   2.301
 2203SOL    HW2 6628   3.734   3.719   2.192
 2204SOL     OW 6629   1.889   3.458   1.979
 2204SOL    HW1 6630   1.870   3.362   2.000
 2204SOL    HW2 6631   1.856   3.516   2.054
 2205SOL     OW 6632   3.551   2.784   2.474
 2205SOL    HW1 6633   3.646   2.755   2.482
 2205SOL    HW2 6634   3.543   2.849   2.399
 2206SOL     OW 6635   3.503   2.970   2.294
 2206SOL    HW1 6636   3.589   2.972   2.242
 2206SOL    HW2 6637   3.517   3.017   2.382
 2207SOL     OW 6638   1.975   2.599   3.459
 2207SOL    HW1 6639   2.063   2.586   3.504
 2207SOL    HW2 6640   1.962   2.696   3.437
 2208SOL     OW 6641   2.475   3.227   2.588
 2208SOL    HW1 6642   2.426   3.140   2.597
 2208SOL    HW2 6643   2.452   3.270   2.501
 2209SOL     OW 6644   3.155   3.090   3.285
 2209SOL    HW1 6645   3.192   3.017   3.227
 2209SOL    HW2 6646   3.207   3.095   3.370
 2210SOL     OW 6647   2.671   1.866   2.364
 2210SOL    HW1 6648   2.711   1.957   2.355
 2210SOL    HW2 6649   2.571   1.874   2.370
 2211SOL     OW 6650   2.059   2.838   3.126
 2211SOL    HW1 6651   2.148   2.793   3.112
 2211SOL    HW2 6652   1.986   2.773   3.107
 2212SOL     OW 6653   3.387   2.861   2.052
 2212SOL    HW1 6654   3.324   2.785   2.065
 2212SOL    HW2 6655   3.435   2.879   2.138
 2213SOL     OW 6656   3.049   3.654   3.478
 2213SOL    HW1 6657   3.073   3.714   3.402
 2213SOL    HW2 6658   3.056   3.559   3.448
 2214SOL     OW 6659   2.179   2.113   3.663
 2214SOL    HW1 6660   2.250   2.184   3.669
 2214SOL    HW2 6661   2.091   2.152   3.691
 2215SOL     OW 6662   3.328   3.279   2.815
 2215SOL    HW1 6663   3.269   3.285   2.895
 2215SOL    HW2 6664   3.313   3.191   2.769
 2216SOL     OW 6665   3.529   3.576   2.434
 2216SOL    HW1 6666   3.488   3.553   2.346
 2216SOL    HW2 6667   3.511   3.502   2.499
 2217SOL     OW 6668   2.460   2.591   2.132
 2217SOL    HW1 6669   2.484   2.660   2.064
 2217SOL    HW2 6670   2.382   2.624   2.186
 2218SOL     OW 6671   3.143   2.207   2.806
 2218SOL    HW1 6672   3.057   2.157   2.793
 2218SOL    HW2 6673   3.205   2.153   2.862
 2219SOL     OW 6674   3.438   3.524   2.169
 2219SOL    HW1 6675   3.527   3.570   2.172
 2219SOL    HW2 6676   3.417   3.500   2.074
 2220SOL     OW 6677   2.669   2.467   3.327
 2220SOL    HW1 6678   2.622   2.464   3.416
 2220SOL    HW2 6679   2.618   2.412   3.261
 2221SOL     OW 6680   3.256   2.331   3.536
 2221SOL    HW1 6681   3.236   2.374   3.624
 2221SOL    HW2 6682   3.334   2.269   3.545
 2222SOL     OW 6683   2.835   2.752   3.434
 2222SOL    HW1 6684   2.881   2.668   3.405
 2222SOL    HW2 6685   2.779   2.786   3.359
 2223SOL     OW 6686   2.853   2.272   3.104
 2223SOL    HW1 6687   2.776   2.306   3.158
 2223SOL    HW2 6688   2.819   2.221   3.025
 2224SOL     OW 6689   2.903   2.563   2.291
 2224SOL    HW1 6690   2.929   2.559   2.387
 2224SOL    HW2 6691   2.818   2.512   2.277
 2225SOL     OW 6692   1.938   2.673   2.651
 2225SOL    HW1 6693   2.037   2.661   2.660
 2225SOL    HW2 6694   1.914   2.768   2.672
 2226SOL     OW 6695   1.992   3.683   3.433
 2226SOL    HW1 6696   1.982   3.668   3.532
 2226SOL    HW2 6697   1.906   3.719   3.397
 2227SOL     OW 6698   2.727   2.210   2.057
 2227SOL    HW1 6699   2.786   2.273   2.008
 2227SOL    HW2 6700   2.746   2.116   2.028
 2228SOL     OW 6701   3.581   2.447   3.693
 2228SOL    HW1 6702   3.555   2.536   3.657
 2228SOL    HW2 6703   3.579   2.379   3.620
 2229SOL     OW 6704   3.224   3.006   2.407
 2229SOL    HW1 6705   3.307   2.977   2.359
 2229SOL    HW2 6706   3.175   3.073   2.351
 2230SOL     OW 6707   2.412   2.058   2.747
 2230SOL    HW1 6708   2.407   2.053   2.847
 2230SOL    HW2 6709   2.414   2.154   2.718
 2231SOL     OW 6710   2.870   3.318   2.339
 2231SOL    HW1 6711   2.824   3.390   2.287
 2231SOL    HW2 6712   2.866   3.338   2.437
 2232SOL     OW 6713   2.213   3.663   2.715
 2232SOL    HW1 6714   2.263   3.577   2.721
 2232SOL    HW2 6715   2.278   3.740   2.712
 2233SOL     OW 6716   3.657   2.928   2.735
 2233SOL    HW1 6717   3.595   2.913   2.659
 2233SOL    HW2 6718   3.605   2.939   2.820
 2234SOL     OW 6719   3.089   3.412   3.368
 2234SOL    HW1 6720   3.095   3.335   3.432
 2234SOL    HW2 6721   3.037   3.386   3.288
 2235SOL     OW 6722   2.183   2.805   2.104
 2235SOL    HW1 6723   2.265   2.844   2.062
 2235SOL    HW2 6724   2.156   2.723   2.055
 2236SOL     OW 6725   3.320   2.597   2.590
 2236SOL    HW1 6726   3.315   2.532   2.665
 2236SOL    HW2 6727   3.400   2.656   2.603
 2237SOL     OW 6728   2.323   3.128   3.589
 2237SOL    HW1 6729   2.273   3.129   3.503
 2237SOL    HW2 6730   2.260   3.110   3.665
 2238SOL     OW 6731   2.973   3.638   2.099
 2238SOL    HW1 6732   2.913   3.576   2.149
 2238SOL    HW2 6733   3.004   3.594   2.014
 2239SOL     OW 6734   2.064   2.147   3.360
 2239SOL    HW1 6735   1.984   2.207   3.347
 2239SOL    HW2 6736   2.054   2.098   3.446
 2240SOL     OW 6737   3.494   3.239   1.943
 2240SOL    HW1 6738   3.462   3.333   1.933
 2240SOL    HW2 6739   3.418   3.176   1.931
 2241SOL     OW 6740   2.326   3.605   2.185
 2241SOL    HW1 6741   2.359   3.644   2.271
 2241SOL    HW2 6742   2.402   3.598   2.120
 2242SOL     OW 6743   3.262   1.969   2.288
 2242SOL    HW1 6744   3.238   1.932   2.198
 2242SOL    HW2 6745   3.361   1.985   2.292
 2243SOL     OW 6746   2.111   3.647   3.103
 2243SOL    HW1 6747   2.168   3.582   3.153
 2243SOL    HW2 6748   2.095   3.614   3.010
 2244SOL     OW 6749   2.802   3.560   2.766
 2244SOL    HW1 6750   2.882   3.503   2.787
 2244SOL    HW2 6751   2.753   3.520   2.689
 2245SOL     OW 6752   3.409   2.084   3.591
 2245SOL    HW1 6753   3.404   2.121   3.683
 2245SOL    HW2 6754   3.337   2.015   3.579
 2246SOL     OW 6755   2.476   1.984   1.979
 2246SOL    HW1 6756   2.574   1.962   1.986
 2246SOL    HW2 6757   2.445   1.967   1.886
 2247SOL     OW 6758   2.643   2.126   3.611
 2247SOL    HW1 6759   2.710   2.065   3.654
 2247SOL    HW2 6760   2.570   2.145   3.676
 2248SOL     OW 6761   2.750   3.376   3.057
 2248SOL    HW1 6762   2.727   3.351   2.963
 2248SOL    HW2 6763   2.811   3.307   3.096
 2249SOL     OW 6764   3.213   2.452   3.295
 2249SOL    HW1 6765   3.241   2.409   3.380
 2249SOL    HW2 6766   3.238   2.548   3.296
 2250SOL     OW 6767   2.665   3.264   2.786
 2250SOL    HW1 6768   2.755   3.278   2.744
 2250SOL    HW2 6769   2.594   3.266   2.715
 2251SOL     OW 6770   2.401   1.926   2.374
 2251SOL    HW1 6771   2.320   1.927   2.432
 2251SOL    HW2 6772   2.404   2.009   2.319
 2252SOL     OW 6773   3.296   3.050   1.903
 2252SOL    HW1 6774   3.328   2.974   1.960
 2252SOL    HW2 6775   3.204   3.077   1.933
 2253SOL     OW 6776   2.159   1.897   2.033
 2253SOL    HW1 6777   2.208   1.981   2.012
 2253SOL    HW2 6778   2.221   1.832   2.078
 2254SOL     OW 6779   2.797   2.098   2.342
 2254SOL    HW1 6780   2.749   2.139   2.264
 2254SOL    HW2 6781   2.896   2.096   2.323
 2255SOL     OW 6782   2.938   2.545   3.326
 2255SOL    HW1 6783   2.858   2.484   3.329
 2255SOL    HW2 6784   3.019   2.492   3.302
 2256SOL     OW 6785   3.089   3.432   2.655
 2256SOL    HW1 6786   3.110   3.506   2.590
 2256SOL    HW2 6787   3.157   3.432   2.728
 2257SOL     OW 6788   2.321   3.014   2.603
 2257SOL    HW1 6789   2.250   2.987   2.668
 2257SOL    HW2 6790   2.295   2.986   2.510
 2258SOL     OW 6791   3.133   3.659   2.453
 2258SOL    HW1 6792   3.177   3.723   2.389
 2258SOL    HW2 6793   3.083   3.711   2.523
 2259SOL     OW 6794   2.894   2.411   1.878
 2259SOL    HW1 6795   2.853   2.493   1.839
 2259SOL    HW2 6796   2.958   2.437   1.951
 2260SOL     OW 6797   1.940   2.418   3.248
 2260SOL    HW1 6798   2.032   2.417   3.207
 2260SOL    HW2 6799   1.934   2.492   3.315
 2261SOL     OW 6800   2.423   2.084   3.009
 2261SOL    HW1 6801   2.461   2.000   3.046
 2261SOL    HW2 6802   2.335   2.103   3.053
 2262SOL     OW 6803   2.879   1.901   2.615
 2262SOL    HW1 6804   2.807   1.906   2.546
 2262SOL    HW2 6805   2.855   1.832   2.684
 2263SOL     OW 6806   3.291   3.035   2.729
 2263SOL    HW1 6807   3.236   2.951   2.722
 2263SOL    HW2 6808   3.317   3.064   2.637
 2264SOL     OW 6809   3.328   2.452   2.854
 2264SOL    HW1 6810   3.298   2.357   2.861
 2264SOL    HW2 6811   3.401   2.468   2.920
 2265SOL     OW 6812   3.719   2.695   2.239
 2265SOL    HW1 6813   3.761   2.631   2.303
 2265SOL    HW2 6814   3.681   2.644   2.161
 2266SOL     OW 6815   2.350   3.247   2.036
 2266SOL    HW1 6816   2.263   3.232   2.083
 2266SOL    HW2 6817   2.333   3.273   1.941
 2267SOL     OW 6818   3.526   3.142   2.519
 2267SOL    HW1 6819   3.625   3.150   2.533
 2267SOL    HW2 6820   3.481   3.226   2.550
 2268SOL     OW 6821   3.252   2.437   1.940
 2268SOL    HW1 6822   3.198   2.416   2.021
 2268SOL    HW2 6823   3.343   2.396   1.949
 2269SOL     OW 6824   3.616   3.085   3.450
 2269SOL    HW1 6825   3.707   3.046   3.437
 2269SOL    HW2 6826   3.624   3.181   3.474
 2270SOL     OW 6827   2.926   3.209   3.202
 2270SOL    HW1 6828   2.846   3.186   3.257
 2270SOL    HW2 6829   3.009   3.183   3.251
 2271SOL     OW 6830   3.454   3.491   3.487
 2271SOL    HW1 6831   3.481   3.525   3.397
 2271SOL    HW2 6832   3.533   3.453   3.533
 2272SOL     OW 6833   2.973   3.057   2.962
 2272SOL    HW1 6834   2.933   3.101   3.043
 2272SOL    HW2 6835   2.932   3.094   2.879
 2273SOL     OW 6836   3.500   2.961   2.941
 2273SOL    HW1 6837   3.505   3.042   3.000
 2273SOL    HW2 6838   3.414   2.963   2.890
 2274SOL     OW 6839   2.777   1.951   3.264
 2274SOL    HW1 6840   2.802   1.931   3.169
 2274SOL    HW2 6841   2.849   2.007   3.306
 2275SOL     OW 6842   2.842   2.978   3.581
 2275SOL    HW1 6843   2.743   2.984   3.591
 2275SOL    HW2 6844   2.865   2.898   3.525
 2276SOL     OW 6845   2.567   2.912   2.230
 2276SOL    HW1 6846   2.553   2.919   2.329
 2276SOL    HW2 6847   2.651   2.861   2.212
 2277SOL     OW 6848   2.272   2.675   3.113
 2277SOL    HW1 6849   2.358   2.687   3.163
 2277SOL    HW2 6850   2.230   2.588   3.140
 2278SOL     OW 6851   3.136   2.248   3.124
 2278SOL    HW1 6852   3.157   2.322   3.188
 2278SOL    HW2 6853   3.047   2.265   3.081
 2279SOL     OW 6854   1.926   3.426   3.193
 2279SOL    HW1 6855   1.880   3.508   3.159
 2279SOL    HW2 6856   2.024   3.445   3.202
 2280SOL     OW 6857   2.229   2.962   2.363
 2280SOL    HW1 6858   2.222   3.045   2.307
 2280SOL    HW2 6859   2.233   2.882   2.303
 2281SOL     OW 6860   3.114   3.210   2.250
 2281SOL    HW1 6861   3.164   3.287   2.290
 2281SOL    HW2 6862   3.019   3.212   2.282
 2282SOL     OW 6863   3.134   3.307   3.004
 2282SOL    HW1 6864   3.181   3.320   3.091
 2282SOL    HW2 6865   3.068   3.233   3.013
 2283SOL     OW 6866   3.444   2.501   2.334
 2283SOL    HW1 6867   3.413   2.562   2.407
 2283SOL    HW2 6868   3.494   2.553   2.265
 2284SOL     OW 6869   2.216   3.372   3.191
 2284SOL    HW1 6870   2.195   3.328   3.104
 2284SOL    HW2 6871   2.313   3.398   3.194
 2285SOL     OW 6872   2.264   2.613   3.460
 2285SOL    HW1 6873   2.332   2.668   3.413
 2285SOL    HW2 6874   2.304   2.525   3.487
 2286SOL     OW 6875   3.449   2.641   3.532
 2286SOL    HW1 6876   3.357   2.679   3.527
 2286SOL    HW2 6877   3.509   2.688   3.467
 2287SOL     OW 6878   2.875   1.967   3.632
 2287SOL    HW1 6879   2.881   2.052   3.580
 2287SOL    HW2 6880   2.907   1.891   3.575
 2288SOL     OW 6881   2.366   1.912   3.602
 2288SOL    HW1 6882   2.324   1.855   3.532
 2288SOL    HW2 6883   2.300   1.981   3.634
 2289SOL     OW 6884   2.435   2.732   2.891
 2289SOL    HW1 6885   2.479   2.821   2.882
 2289SOL    HW2 6886   2.372   2.732   2.968
 2290SOL     OW 6887   3.222   2.724   2.907
 2290SOL    HW1 6888   3.147   2.724   2.841
 2290SOL    HW2 6889   3.259   2.632   2.916
 2291SOL     OW 6890   3.071   2.387   2.137
 2291SOL    HW1 6891   3.084   2.303   2.191
 2291SOL    HW2 6892   3.042   2.461   2.197
 2292SOL     OW 6893   2.169   2.075   3.093
 2292SOL    HW1 6894   2.146   2.112   3.183
 2292SOL    HW2 6895   2.139   1.980   3.087
 2293SOL     OW 6896   1.899   3.172   3.144
 2293SOL    HW1 6897   1.952   3.123   3.212
 2293SOL    HW2 6898   1.921   3.270   3.149
 2294SOL     OW 6899   2.594   2.496   2.926
 2294SOL    HW1 6900   2.653   2.470   2.850
 2294SOL    HW2 6901   2.566   2.592   2.915
 2295SOL     OW 6902   3.590   2.797   3.716
 2295SOL    HW1 6903   3.544   2.790   3.627
 2295SOL    HW2 6904   3.528   2.841   3.782
 2296SOL     OW 6905   2.169   1.925   2.480
 2296SOL    HW1 6906   2.158   2.019   2.513
 2296SOL    HW2 6907   2.164   1.862   2.557
 2297SOL     OW 6908   3.484   2.229   2.236
 2297SOL    HW1 6909   3.486   2.153   2.300
 2297SOL    HW2 6910   3.436   2.306   2.276
 2298SOL     OW 6911   2.885   2.628   2.828
 2298SOL    HW1 6912   2.900   2.649   2.924
 2298SOL    HW2 6913   2.855   2.533   2.819
 2299SOL     OW 6914   2.842   3.435   3.562
 2299SOL    HW1 6915   2.822   3.479   3.474
 2299SOL    HW2 6916   2.881   3.344   3.546
 2300SOL     OW 6917   3.721   3.380   3.467
 2300SOL    HW1 6918   3.735   3.407   3.372
 2300SOL    HW2 6919   3.804   3.402   3.520
 2301SOL     OW 6920   2.212   2.760   3.666
 2301SOL    HW1 6921   2.288   2.804   3.714
 2301SOL    HW2 6922   2.247   2.713   3.584
 2302SOL     OW 6923   3.402   2.136   1.987
 2302SOL    HW1 6924   3.341   2.061   2.010
 2302SOL    HW2 6925   3.424   2.188   2.070
 2303SOL     OW 6926   3.165   2.700   1.904
 2303SOL    HW1 6927   3.199   2.607   1.919
 2303SOL    HW2 6928   3.183   2.727   1.809
 2304SOL     OW 6929   2.930   3.195   2.711
 2304SOL    HW1 6930   2.937   3.111   2.656
 2304SOL    HW2 6931   2.992   3.264   2.675
 2305SOL     OW 6932   2.181   2.672   2.811
 2305SOL    HW1 6933   2.274   2.708   2.816
 2305SOL    HW2 6934   2.175   2.587   2.863
 2306SOL     OW 6935   2.201   2.371   2.868
 2306SOL    HW1 6936   2.149   2.288   2.851
 2306SOL    HW2 6937   2.278   2.376   2.804
 2307SOL     OW 6938   3.000   2.242   3.540
 2307SOL    HW1 6939   2.955   2.305   3.604
 2307SOL    HW2 6940   3.093   2.273   3.523
 2308SOL     OW 6941   3.022   2.069   3.339
 2308SOL    HW1 6942   3.022   2.133   3.416
 2308SOL    HW2 6943   3.050   2.117   3.256
 2309SOL     OW 6944   1.870   3.188   2.062
 2309SOL    HW1 6945   1.777   3.209   2.031
 2309SOL    HW2 6946   1.880   3.089   2.075
 2310SOL     OW 6947   1.950   3.663   2.789
 2310SOL    HW1 6948   1.908   3.577   2.762
 2310SOL    HW2 6949   2.044   3.666   2.755
 2311SOL     OW 6950   2.366   3.430   2.772
 2311SOL    HW1 6951   2.432   3.504   2.781
 2311SOL    HW2 6952   2.410   3.351   2.730
 2312SOL     OW 6953   2.864   2.658   3.100
 2312SOL    HW1 6954   2.905   2.626   3.186
 2312SOL    HW2 6955   2.768   2.631   3.097
 2313SOL     OW 6956   1.902   2.406   2.976
 2313SOL    HW1 6957   1.987   2.373   2.935
 2313SOL    HW2 6958   1.915   2.421   3.074
 2314SOL     OW 6959   2.051   2.382   3.584
 2314SOL    HW1 6960   2.110   2.342   3.514
 2314SOL    HW2 6961   1.993   2.453   3.543
 2315SOL     OW 6962   3.231   2.812   3.522
 2315SOL    HW1 6963   3.270   2.901   3.542
 2315SOL    HW2 6964   3.241   2.792   3.425
 2316SOL     OW 6965   2.677   2.434   2.187
 2316SOL    HW1 6966   2.684   2.345   2.141
 2316SOL    HW2 6967   2.583   2.468   2.179
 2317SOL     OW 6968   3.519   2.466   3.068
 2317SOL    HW1 6969   3.481   2.397   3.130
 2317SOL    HW2 6970   3.601   2.430   3.024
 2318SOL     OW 6971   2.114   3.426   3.606
 2318SOL    HW1 6972   2.084   3.483   3.682
 2318SOL    HW2 6973   2.107   3.329   3.632
 2319SOL     OW 6974   2.533   2.326   3.131
 2319SOL    HW1 6975   2.499   2.237   3.101
 2319SOL    HW2 6976   2.559   2.380   3.051
 2320SOL     OW 6977   2.792   3.540   3.327
 2320SOL    HW1 6978   2.768   3.522   3.232
 2320SOL    HW2 6979   2.822   3.634   3.337
 2321SOL     OW 6980   2.021   2.999   3.328
 2321SOL    HW1 6981   2.043   2.938   3.404
 2321SOL    HW2 6982   2.031   2.950   3.242
 2322SOL     OW 6983   3.209   2.921   3.096
 2322SOL    HW1 6984   3.233   2.858   3.022
 2322SOL    HW2 6985   3.119   2.961   3.078
 2323SOL     OW 6986   3.164   2.717   2.171
 2323SOL    HW1 6987   3.078   2.686   2.213
 2323SOL    HW2 6988   3.160   2.703   2.072
 2324SOL     OW 6989   3.621   3.609   3.016
 2324SOL    HW1 6990   3.682   3.639   2.943
 2324SOL    HW2 6991   3.583   3.520   2.994
 2325SOL     OW 6992   3.114   3.593   2.990
 2325SOL    HW1 6993   3.198   3.598   2.936
 2325SOL    HW2 6994   3.091   3.497   3.008
 2326SOL     OW 6995   1.945   3.120   2.884
 2326SOL    HW1 6996   1.940   3.119   2.984
 2326SOL    HW2 6997   1.862   3.079   2.846
 2327SOL     OW 6998   2.550   3.524   3.578
 2327SOL    HW1 6999   2.494   3.605   3.587
 2327SOL    HW2 7000   2.602   3.528   3.492
 2328SOL     OW 7001   3.588   1.997   2.385
 2328SOL    HW1 7002   3.661   1.980   2.318
 2328SOL    HW2 7003   3.557   1.910   2.423
 2329SOL     OW 7004   3.250   3.435   2.339
 2329SOL    HW1 7005   3.317   3.447   2.265
 2329SOL    HW2 7006   3.210   3.524   2.362
 2330SOL     OW 7007   1.992   3.656   3.713
 2330SOL    HW1 7008   1.951   3.582   3.766
 2330SOL    HW2 7009   2.056   3.707   3.771
 2331SOL     OW 7010   3.142   2.789   2.534
 2331SOL    HW1 7011   3.202   2.708   2.536
 2331SOL    HW2 7012   3.182   2.858   2.474
 2332SOL     OW 7013   2.692   3.135   3.284
 2332SOL    HW1 7014   2.687   3.168   3.379
 2332SOL    HW2 7015   2.606   3.154   3.238
 2333SOL     OW 7016   2.534   3.478   2.016
 2333SOL    HW1 7017   2.543   3.488   1.917
 2333SOL    HW2 7018   2.494   3.389   2.037
 2334SOL     OW 7019   3.512   3.582   3.256
 2334SOL    HW1 7020   3.565   3.592   3.172
 2334SOL    HW2 7021   3.485   3.672   3.290
 2335SOL     OW 7022   3.703   2.037   2.825
 2335SOL    HW1 7023   3.742   1.952   2.789
 2335SOL    HW2 7024   3.605   2.039   2.806
 2336SOL     OW 7025   2.125   2.188   2.582
 2336SOL    HW1 7026   2.046   2.239   2.548
 2336SOL    HW2 7027   2.116   2.173   2.680
 2337SOL     OW 7028   3.056   3.474   1.893
 2337SOL    HW1 7029   3.062   3.381   1.930
 2337SOL    HW2 7030   2.997   3.474   1.813
 2338SOL     OW 7031   2.684   2.864   3.234
 2338SOL    HW1 7032   2.724   2.863   3.142
 2338SOL    HW2 7033   2.694   2.956   3.274
 2339SOL     OW 7034   2.778   2.772   2.153
 2339SOL    HW1 7035   2.841   2.810   2.085
 2339SOL    HW2 7036   2.818   2.689   2.192
 2340SOL     OW 7037   3.366   3.469   1.906
 2340SOL    HW1 7038   3.274   3.506   1.913
 2340SOL    HW2 7039   3.404   3.489   1.816
 2341SOL     OW 7040   2.234   3.150   3.352
 2341SOL    HW1 7041   2.221   3.243   3.318
 2341SOL    HW2 7042   2.150   3.098   3.339
 2342SOL     OW 7043   3.476   3.154   3.151
 2342SOL    HW1 7044   3.536   3.157   3.231
 2342SOL    HW2 7045   3.401   3.218   3.164
 2343SOL     OW 7046   2.901   2.960   2.558
 2343SOL    HW1 7047   2.831   2.913   2.612
 2343SOL    HW2 7048   2.960   2.892   2.515
 2344SOL     OW 7049   2.876   2.098   2.833
 2344SOL    HW1 7050   2.868   2.062   2.740
 2344SOL    HW2 7051   2.874   2.022   2.898
 2345SOL     OW 7052   2.452   3.349   2.353
 2345SOL    HW1 7053   2.494   3.291   2.283
 2345SOL    HW2 7054   2.408   3.428   2.309
 2346SOL     OW 7055   3.571   2.247   3.243
 2346SOL    HW1 7056   3.644   2.316   3.247
 2346SOL    HW2 7057   3.599   2.172   3.184
 2347SOL     OW 7058   2.117   3.210   2.152
 2347SOL    HW1 7059   2.021   3.211   2.125
 2347SOL    HW2 7060   2.129   3.263   2.236
 2348SOL     OW 7061   1.967   2.875   3.588
 2348SOL    HW1 7062   1.890   2.842   3.642
 2348SOL    HW2 7063   2.052   2.845   3.630
 2349SOL     OW 7064   2.534   2.065   3.351
 2349SOL    HW1 7065   2.624   2.049   3.311
 2349SOL    HW2 7066   2.542   2.070   3.450
 2350SOL     OW 7067   1.937   2.207   1.895
 2350SOL    HW1 7068   1.845   2.179   1.866
 2350SOL    HW2 7069   1.968   2.284   1.839
 2351SOL     OW 7070   3.302   2.718   3.260
 2351SOL    HW1 7071   3.245   2.770   3.197
 2351SOL    HW2 7072   3.398   2.730   3.236
 2352SOL     OW 7073   1.934   2.028   2.180
 2352SOL    HW1 7074   1.917   2.111   2.126
 2352SOL    HW2 7075   2.024   1.991   2.158
 2353SOL     OW 7076   3.045   3.197   1.981
 2353SOL    HW1 7077   2.946   3.186   1.983
 2353SOL    HW2 7078   3.079   3.212   2.074
 2354SOL     OW 7079   2.475   2.704   3.293
 2354SOL    HW1 7080   2.531   2.785   3.276
 2354SOL    HW2 7081   2.534   2.624   3.296
 2355SOL     OW 7082   3.355   3.629   2.821
 2355SOL    HW1 7083   3.388   3.693   2.752
 2355SOL    HW2 7084   3.421   3.623   2.896
 2356SOL     OW 7085   2.578   2.427   3.570
 2356SOL    HW1 7086   2.597   2.492   3.644
 2356SOL    HW2 7087   2.638   2.347   3.579
 2357SOL     OW 7088   3.312   3.082   3.495
 2357SOL    HW1 7089   3.303   3.072   3.594
 2357SOL    HW2 7090   3.408   3.075   3.469
 2358SOL     OW 7091   2.252   3.603   3.422
 2358SOL    HW1 7092   2.161   3.644   3.420
 2358SOL    HW2 7093   2.245   3.509   3.454
 2359SOL     OW 7094   3.536   2.745   3.116
 2359SOL    HW1 7095   3.509   2.656   3.079
 2359SOL    HW2 7096   3.537   2.813   3.043
 2360SOL     OW 7097   3.087   2.187   2.311
 2360SOL    HW1 7098   3.152   2.113   2.300
 2360SOL    HW2 7099   3.107   2.237   2.395
 2361SOL     OW 7100   3.639   2.204   3.504
 2361SOL    HW1 7101   3.622   2.235   3.410
 2361SOL    HW2 7102   3.555   2.167   3.542
 2362SOL     OW 7103   3.592   2.796   3.379
 2362SOL    HW1 7104   3.630   2.887   3.394
 2362SOL    HW2 7105   3.584   2.779   3.280
 2363SOL     OW 7106   2.721   3.236   1.878
 2363SOL    HW1 7107   2.675   3.251   1.966
 2363SOL    HW2 7108   2.765   3.321   1.848
 2364SOL     OW 7109   2.523   3.652   2.815
 2364SOL    HW1 7110   2.477   3.740   2.802
 2364SOL    HW2 7111   2.622   3.664   2.808
 2365SOL     OW 7112   2.721   2.818   2.723
 2365SOL    HW1 7113   2.775   2.749   2.771
 2365SOL    HW2 7114   2.689   2.887   2.789
 2366SOL     OW 7115   2.945   2.846   1.949
 2366SOL    HW1 7116   2.922   2.899   1.867
 2366SOL    HW2 7117   3.026   2.790   1.930
 2367SOL     OW 7118   3.723   3.431   2.713
 2367SOL    HW1 7119   3.652   3.419   2.643
 2367SOL    HW2 7120   3.724   3.352   2.773
 2368SOL     OW 7121   2.083   3.176   3.706
 2368SOL    HW1 7122   2.018   3.103   3.685
 2368SOL    HW2 7123   2.087   3.190   3.804
 2369SOL     OW 7124   1.941   3.102   2.515
 2369SOL    HW1 7125   1.940   3.055   2.603
 2369SOL    HW2 7126   2.023   3.074   2.464
 2370SOL     OW 7127   2.534   3.253   3.486
 2370SOL    HW1 7128   2.456   3.203   3.524
 2370SOL    HW2 7129   2.531   3.348   3.517
 2371SOL     OW 7130   3.686   2.054   3.089
 2371SOL    HW1 7131   3.682   1.964   3.133
 2371SOL    HW2 7132   3.689   2.043   2.990
 2372SOL     OW 7133   3.567   3.349   2.966
 2372SOL    HW1 7134   3.474   3.324   2.939
 2372SOL    HW2 7135   3.593   3.299   3.048
 2373SOL     OW 7136   2.179   2.409   3.142
 2373SOL    HW1 7137   2.217   2.350   3.214
 2373SOL    HW2 7138   2.219   2.383   3.054
 2374SOL     OW 7139   2.674   3.448   2.549
 2374SOL    HW1 7140   2.706   3.458   2.455
 2374SOL    HW2 7141   2.595   3.386   2.551
 2375SOL     OW 7142   3.286   2.076   2.974
 2375SOL    HW1 7143   3.338   2.011   3.029
 2375SOL    HW2 7144   3.237   2.139   3.035
 2376SOL     OW 7145   2.863   1.896   3.016
 2376SOL    HW1 7146   2.800   1.824   2.985
 2376SOL    HW2 7147   2.956   1.860   3.016
 2377SOL     OW 7148   2.632   3.192   2.163
 2377SOL    HW1 7149   2.586   3.105   2.180
 2377SOL    HW2 7150   2.723   3.189   2.204
 2378SOL     OW 7151   2.480   3.429   3.146
 2378SOL    HW1 7152   2.475   3.511   3.203
 2378SOL    HW2 7153   2.569   3.426   3.101
 2379SOL     OW 7154   3.214   1.914   2.030
 2379SOL    HW1 7155   3.249   1.873   1.946
 2379SOL    HW2 7156   3.124   1.876   2.050
 2380SOL     OW 7157   3.162   2.315   2.553
 2380SOL    HW1 7158   3.103   2.395   2.557
 2380SOL    HW2 7159   3.177   2.280   2.646
 2381SOL     OW 7160   3.455   2.083   2.744
 2381SOL    HW1 7161   3.371   2.082   2.798
 2381SOL    HW2 7162   3.457   2.166   2.688
 2382SOL     OW 7163   1.901   2.939   2.162
 2382SOL    HW1 7164   2.000   2.928   2.153
 2382SOL    HW2 7165   1.861   2.853   2.194
 2383SOL     OW 7166   2.737   3.508   2.199
 2383SOL    HW1 7167   2.660   3.473   2.145
 2383SOL    HW2 7168   2.705   3.579   2.261
 2384SOL     OW 7169   2.092   2.490   3.837
 2384SOL    HW1 7170   1.999   2.488   3.874
 2384SOL    HW2 7171   2.093   2.451   3.745
 2385SOL     OW 7172   2.087   2.137   4.720
 2385SOL    HW1 7173   2.122   2.120   4.812
 2385SOL    HW2 7174   1.999   2.092   4.708
 2386SOL     OW 7175   1.881   2.230   4.371
 2386SOL    HW1 7176   1.799   2.273   4.410
 2386SOL    HW2 7177   1.853   2.157   4.308
 2387SOL     OW 7178   3.417   3.373   4.427
 2387SOL    HW1 7179   3.360   3.357   4.508
 2387SOL    HW2 7180   3.358   3.383   4.347
 2388SOL     OW 7181   2.997   2.565   4.441
 2388SOL    HW1 7182   3.054   2.643   4.416
 2388SOL    HW2 7183   2.937   2.591   4.517
 2389SOL     OW 7184   3.617   2.469   3.955
 2389SOL    HW1 7185   3.605   2.456   3.856
 2389SOL    HW2 7186   3.587   2.388   4.004
 2390SOL     OW 7187   2.630   3.006   4.747
 2390SOL    HW1 7188   2.552   3.023   4.807
 2390SOL    HW2 7189   2.664   3.093   4.711
 2391SOL     OW 7190   2.547   2.874   4.389
 2391SOL    HW1 7191   2.616   2.858   4.459
 2391SOL    HW2 7192   2.474   2.931   4.427
 2392SOL     OW 7193   2.197   3.297   4.785
 2392SOL    HW1 7194   2.119   3.266   4.732
 2392SOL    HW2 7195   2.255   3.355   4.728
 2393SOL     OW 7196   3.465   2.309   4.461
 2393SOL    HW1 7197   3.391   2.355   4.411
 2393SOL    HW2 7198   3.516   2.377   4.514
 2394SOL     OW 7199   2.093   3.575   4.207
 2394SOL    HW1 7200   2.127   3.652   4.261
 2394SOL    HW2 7201   2.137   3.575   4.117
 2395SOL     OW 7202   2.092   3.296   4.262
 2395SOL    HW1 7203   2.066   3.392   4.262
 2395SOL    HW2 7204   2.021   3.242   4.307
 2396SOL     OW 7205   2.102   2.953   4.610
 2396SOL    HW1 7206   2.116   2.869   4.662
 2396SOL    HW2 7207   2.047   3.017   4.665
 2397SOL     OW 7208   2.468   2.826   3.847
 2397SOL    HW1 7209   2.475   2.910   3.793
 2397SOL    HW2 7210   2.514   2.839   3.935
 2398SOL     OW 7211   1.984   2.505   4.287
 2398SOL    HW1 7212   1.939   2.417   4.304
 2398SOL    HW2 7213   1.983   2.559   4.371
 2399SOL     OW 7214   3.704   3.629   4.083
 2399SOL    HW1 7215   3.758   3.600   4.163
 2399SOL    HW2 7216   3.734   3.719   4.054
 2400SOL     OW 7217   1.889   3.458   3.841
 2400SOL    HW1 7218   1.870   3.362   3.862
 2400SOL    HW2 7219   1.856   3.516   3.916
 2401SOL     OW 7220   3.551   2.784   4.336
 2401SOL    HW1 7221   3.646   2.755   4.344
 2401SOL    HW2 7222   3.543   2.849   4.261
 2402SOL     OW 7223   3.503   2.970   4.156
 2402SOL    HW1 7224   3.589   2.972   4.104
 2402SOL    HW2 7225   3.517   3.017   4.244
 2403SOL     OW 7226   2.475   3.227   4.450
 2403SOL    HW1 7227   2.426   3.140   4.459
 2403SOL    HW2 7228   2.452   3.270   4.363
 2404SOL     OW 7229   2.671   1.866   4.226
 2404SOL    HW1 7230   2.711   1.957   4.217
 2404SOL    HW2 7231   2.571   1.874   4.232
 2405SOL     OW 7232   3.387   2.861   3.914
 2405SOL    HW1 7233   3.324   2.785   3.927
 2405SOL    HW2 7234   3.435   2.879   4.000
 2406SOL     OW 7235   3.328   3.279   4.677
 2406SOL    HW1 7236   3.269   3.285   4.757
 2406SOL    HW2 7237   3.313   3.191   4.631
 2407SOL     OW 7238   3.529   3.576   4.296
 2407SOL    HW1 7239   3.488   3.553   4.208
 2407SOL    HW2 7240   3.511   3.502   4.361
 2408SOL     OW 7241   2.460   2.591   3.994
 2408SOL    HW1 7242   2.484   2.660   3.926
 2408SOL    HW2 7243   2.382   2.624   4.048
 2409SOL     OW 7244   3.143   2.207   4.668
 2409SOL    HW1 7245   3.057   2.157   4.655
 2409SOL    HW2 7246   3.205   2.153   4.724
 2410SOL     OW 7247   3.438   3.524   4.031
 2410SOL    HW1 7248   3.527   3.570   4.034
 2410SOL    HW2 7249   3.417   3.500   3.936
 2411SOL     OW 7250   2.903   2.563   4.153
 2411SOL    HW1 7251   2.929   2.559   4.249
 2411SOL    HW2 7252   2.818   2.512   4.139
 2412SOL     OW 7253   1.938   2.673   4.513
 2412SOL    HW1 7254   2.037   2.661   4.522
 2412SOL    HW2 7255   1.914   2.768   4.534
 2413SOL     OW 7256   2.727   2.210   3.919
 2413SOL    HW1 7257   2.786   2.273   3.870
 2413SOL    HW2 7258   2.746   2.116   3.890
 2414SOL     OW 7259   3.224   3.006   4.269
 2414SOL    HW1 7260   3.307   2.977   4.221
 2414SOL    HW2 7261   3.175   3.073   4.213
 2415SOL     OW 7262   2.412   2.058   4.609
 2415SOL    HW1 7263   2.407   2.053   4.709
 2415SOL    HW2 7264   2.414   2.154   4.580
 2416SOL     OW 7265   2.870   3.318   4.201
 2416SOL    HW1 7266   2.824   3.390   4.149
 2416SOL    HW2 7267   2.866   3.338   4.299
 2417SOL     OW 7268   2.213   3.663   4.577
 2417SOL    HW1 7269   2.263   3.577   4.583
 2417SOL    HW2 7270   2.278   3.740   4.574
 2418SOL     OW 7271   3.657   2.928   4.597
 2418SOL    HW1 7272   3.595   2.913   4.521
 2418SOL    HW2 7273   3.605   2.939   4.682
 2419SOL     OW 7274   2.183   2.805   3.966
 2419SOL    HW1 7275   2.265   2.844   3.924
 2419SOL    HW2 7276   2.156   2.723   3.917
 2420SOL     OW 7277   3.320   2.597   4.452
 2420SOL    HW1 7278   3.315   2.532   4.527
 2420SOL    HW2 7279   3.400   2.656   4.465
 2421SOL     OW 7280   2.973   3.638   3.961
 2421SOL    HW1 7281   2.913   3.576   4.011
 2421SOL    HW2 7282   3.004   3.594   3.876
 2422SOL     OW 7283   3.494   3.239   3.805
 2422SOL    HW1 7284   3.462   3.333   3.795
 2422SOL    HW2 7285   3.418   3.176   3.793
 2423SOL     OW 7286   2.326   3.605   4.047
 2423SOL    HW1 7287   2.359   3.644   4.133
 2423SOL    HW2 7288   2.402   3.598   3.982
 2424SOL     OW 7289   3.262   1.969   4.150
 2424SOL    HW1 7290   3.238   1.932   4.060
 2424SOL    HW2 7291   3.361   1.985   4.154
 2425SOL     OW 7292   2.111   3.647   4.965
 2425SOL    HW1 7293   2.168   3.582   5.015
 2425SOL    HW2 7294   2.095   3.614   4.872
 2426SOL     OW 7295   2.802   3.560   4.628
 2426SOL    HW1 7296   2.882   3.503   4.649
 2426SOL    HW2 7297   2.753   3.520   4.551
 2427SOL     OW 7298   2.244   2.562   4.204
 2427SOL    HW1 7299   2.289   2.472   4.201
 2427SOL    HW2 7300   2.150   2.551   4.237
 2428SOL     OW 7301   2.476   1.984   3.841
 2428SOL    HW1 7302   2.574   1.962   3.848
 2428SOL    HW2 7303   2.445   1.967   3.748
 2429SOL     OW 7304   2.665   3.264   4.648
 2429SOL    HW1 7305   2.755   3.278   4.606
 2429SOL    HW2 7306   2.594   3.266   4.577
 2430SOL     OW 7307   2.784   2.365   4.623
 2430SOL    HW1 7308   2.759   2.356   4.527
 2430SOL    HW2 7309   2.832   2.283   4.654
 2431SOL     OW 7310   2.401   1.926   4.236
 2431SOL    HW1 7311   2.320   1.927   4.294
 2431SOL    HW2 7312   2.404   2.009   4.181
 2432SOL     OW 7313   3.296   3.050   3.765
 2432SOL    HW1 7314   3.328   2.974   3.822
 2432SOL    HW2 7315   3.204   3.077   3.795
 2433SOL     OW 7316   2.159   1.897   3.895
 2433SOL    HW1 7317   2.208   1.981   3.874
 2433SOL    HW2 7318   2.221   1.832   3.940
 2434SOL     OW 7319   2.797   2.098   4.204
 2434SOL    HW1 7320   2.749   2.139   4.126
 2434SOL    HW2 7321   2.896   2.096   4.185
 2435SOL     OW 7322   3.089   3.432   4.517
 2435SOL    HW1 7323   3.110   3.506   4.452
 2435SOL    HW2 7324   3.157   3.432   4.590
 2436SOL     OW 7325   2.321   3.014   4.465
 2436SOL    HW1 7326   2.250   2.987   4.530
 2436SOL    HW2 7327   2.295   2.986   4.372
 2437SOL     OW 7328   3.133   3.659   4.315
 2437SOL    HW1 7329   3.177   3.723   4.251
 2437SOL    HW2 7330   3.083   3.711   4.385
 2438SOL     OW 7331   2.894   2.411   3.740
 2438SOL    HW1 7332   2.853   2.493   3.701
 2438SOL    HW2 7333   2.958   2.437   3.813
 2439SOL     OW 7334   2.728   2.316   4.366
 2439SOL    HW1 7335   2.696   2.388   4.304
 2439SOL    HW2 7336   2.752   2.235   4.313
 2440SOL     OW 7337   2.879   1.901   4.477
 2440SOL    HW1 7338   2.807   1.906   4.408
 2440SOL    HW2 7339   2.855   1.832   4.546
 2441SOL     OW 7340   3.291   3.035   4.591
 2441SOL    HW1 7341   3.236   2.951   4.584
 2441SOL    HW2 7342   3.317   3.064   4.499
 2442SOL     OW 7343   3.328   2.452   4.716
 2442SOL    HW1 7344   3.298   2.357   4.723
 2442SOL    HW2 7345   3.401   2.468   4.782
 2443SOL     OW 7346   3.719   2.695   4.101
 2443SOL    HW1 7347   3.761   2.631   4.165
 2443SOL    HW2 7348   3.681   2.644   4.023
 2444SOL     OW 7349   2.350   3.247   3.898
 2444SOL    HW1 7350   2.263   3.232   3.945
 2444SOL    HW2 7351   2.333   3.273   3.803
 2445SOL     OW 7352   3.526   3.142   4.381
 2445SOL    HW1 7353   3.625   3.150   4.395
 2445SOL    HW2 7354   3.481   3.226   4.412
 2446SOL     OW 7355   3.252   2.437   3.802
 2446SOL    HW1 7356   3.198   2.416   3.883
 2446SOL    HW2 7357   3.343   2.396   3.811
 2447SOL     OW 7358   2.389   2.118   4.052
 2447SOL    HW1 7359   2.416   2.059   3.977
 2447SOL    HW2 7360   2.389   2.213   4.021
 2448SOL     OW 7361   3.500   2.961   4.803
 2448SOL    HW1 7362   3.505   3.042   4.862
 2448SOL    HW2 7363   3.414   2.963   4.752
 2449SOL     OW 7364   2.567   2.912   4.092
 2449SOL    HW1 7365   2.553   2.919   4.191
 2449SOL    HW2 7366   2.651   2.861   4.074
 2450SOL     OW 7367   2.229   2.962   4.225
 2450SOL    HW1 7368   2.222   3.045   4.169
 2450SOL    HW2 7369   2.233   2.882   4.165
 2451SOL     OW 7370   2.428   2.399   4.589
 2451SOL    HW1 7371   2.440   2.465   4.515
 2451SOL    HW2 7372   2.474   2.433   4.672
 2452SOL     OW 7373   3.114   3.210   4.112
 2452SOL    HW1 7374   3.164   3.287   4.152
 2452SOL    HW2 7375   3.019   3.212   4.144
 2453SOL     OW 7376   3.444   2.501   4.196
 2453SOL    HW1 7377   3.413   2.562   4.269
 2453SOL    HW2 7378   3.494   2.553   4.127
 2454SOL     OW 7379   2.435   2.732   4.753
 2454SOL    HW1 7380   2.479   2.821   4.744
 2454SOL    HW2 7381   2.372   2.732   4.830
 2455SOL     OW 7382   3.071   2.387   3.999
 2455SOL    HW1 7383   3.084   2.303   4.053
 2455SOL    HW2 7384   3.042   2.461   4.059
 2456SOL     OW 7385   2.169   2.075   4.955
 2456SOL    HW1 7386   2.146   2.112   5.045
 2456SOL    HW2 7387   2.139   1.980   4.949
 2457SOL     OW 7388   2.594   2.496   4.788
 2457SOL    HW1 7389   2.653   2.470   4.712
 2457SOL    HW2 7390   2.566   2.592   4.777
 2458SOL     OW 7391   2.169   1.925   4.342
 2458SOL    HW1 7392   2.158   2.019   4.375
 2458SOL    HW2 7393   2.164   1.862   4.419
 2459SOL     OW 7394   3.484   2.229   4.098
 2459SOL    HW1 7395   3.486   2.153   4.162
 2459SOL    HW2 7396   3.436   2.306   4.138
 2460SOL     OW 7397   3.402   2.136   3.849
 2460SOL    HW1 7398   3.341   2.061   3.872
 2460SOL    HW2 7399   3.424   2.188   3.932
 2461SOL     OW 7400   3.165   2.700   3.766
 2461SOL    HW1 7401   3.199   2.607   3.781
 2461SOL    HW2 7402   3.183   2.727   3.671
 2462SOL     OW 7403   2.930   3.195   4.573
 2462SOL    HW1 7404   2.937   3.111   4.518
 2462SOL    HW2 7405   2.992   3.264   4.537
 2463SOL     OW 7406   2.181   2.672   4.673
 2463SOL    HW1 7407   2.274   2.708   4.678
 2463SOL    HW2 7408   2.175   2.587   4.725
 2464SOL     OW 7409   2.201   2.371   4.730
 2464SOL    HW1 7410   2.149   2.288   4.713
 2464SOL    HW2 7411   2.278   2.376   4.666
 2465SOL     OW 7412   1.870   3.188   3.924
 2465SOL    HW1 7413   1.777   3.209   3.893
 2465SOL    HW2 7414   1.880   3.089   3.937
 2466SOL     OW 7415   1.950   3.663   4.651
 2466SOL    HW1 7416   1.908   3.577   4.624
 2466SOL    HW2 7417   2.044   3.666   4.617
 2467SOL     OW 7418   2.366   3.430   4.634
 2467SOL    HW1 7419   2.432   3.504   4.643
 2467SOL    HW2 7420   2.410   3.351   4.592
 2468SOL     OW 7421   2.864   2.658   4.962
 2468SOL    HW1 7422   2.905   2.626   5.048
 2468SOL    HW2 7423   2.768   2.631   4.959
 2469SOL     OW 7424   2.677   2.434   4.049
 2469SOL    HW1 7425   2.684   2.345   4.003
 2469SOL    HW2 7426   2.583   2.468   4.041
 2470SOL     OW 7427   2.533   2.326   4.993
 2470SOL    HW1 7428   2.499   2.237   4.963
 2470SOL    HW2 7429   2.559   2.380   4.913
 2471SOL     OW 7430   2.335   2.362   3.915
 2471SOL    HW1 7431   2.396   2.442   3.919
 2471SOL    HW2 7432   2.240   2.393   3.922
 2472SOL     OW 7433   3.164   2.717   4.033
 2472SOL    HW1 7434   3.078   2.686   4.075
 2472SOL    HW2 7435   3.160   2.703   3.934
 2473SOL     OW 7436   3.621   3.609   4.878
 2473SOL    HW1 7437   3.682   3.639   4.805
 2473SOL    HW2 7438   3.583   3.520   4.856
 2474SOL     OW 7439   1.945   3.120   4.746
 2474SOL    HW1 7440   1.940   3.119   4.846
 2474SOL    HW2 7441   1.862   3.079   4.708
 2475SOL     OW 7442   3.588   1.997   4.247
 2475SOL    HW1 7443   3.661   1.980   4.180
 2475SOL    HW2 7444   3.557   1.910   4.285
 2476SOL     OW 7445   3.250   3.435   4.201
 2476SOL    HW1 7446   3.317   3.447   4.127
 2476SOL    HW2 7447   3.210   3.524   4.224
 2477SOL     OW 7448   3.142   2.789   4.396
 2477SOL    HW1 7449   3.202   2.708   4.398
 2477SOL    HW2 7450   3.182   2.858   4.336
 2478SOL     OW 7451   2.534   3.478   3.878
 2478SOL    HW1 7452   2.543   3.488   3.779
 2478SOL    HW2 7453   2.494   3.389   3.899
 2479SOL     OW 7454   3.703   2.037   4.687
 2479SOL    HW1 7455   3.742   1.952   4.651
 2479SOL    HW2 7456   3.605   2.039   4.668
 2480SOL     OW 7457   2.125   2.188   4.444
 2480SOL    HW1 7458   2.046   2.239   4.410
 2480SOL    HW2 7459   2.116   2.173   4.542
 2481SOL     OW 7460   3.056   3.474   3.755
 2481SOL    HW1 7461   3.062   3.381   3.792
 2481SOL    HW2 7462   2.997   3.474   3.675
 2482SOL     OW 7463   2.778   2.772   4.015
 2482SOL    HW1 7464   2.841   2.810   3.947
 2482SOL    HW2 7465   2.818   2.689   4.054
 2483SOL     OW 7466   3.366   3.469   3.768
 2483SOL    HW1 7467   3.274   3.506   3.775
 2483SOL    HW2 7468   3.404   3.489   3.678
 2484SOL     OW 7469   2.901   2.960   4.420
 2484SOL    HW1 7470   2.831   2.913   4.474
 2484SOL    HW2 7471   2.960   2.892   4.377
 2485SOL     OW 7472   2.452   3.349   4.215
 2485SOL    HW1 7473   2.494   3.291   4.145
 2485SOL    HW2 7474   2.408   3.428   4.171
 2486SOL     OW 7475   2.117   3.210   4.014
 2486SOL    HW1 7476   2.021   3.211   3.987
 2486SOL    HW2 7477   2.129   3.263   4.098
 2487SOL     OW 7478   1.937   2.207   3.757
 2487SOL    HW1 7479   1.845   2.179   3.728
 2487SOL    HW2 7480   1.968   2.284   3.701
 2488SOL     OW 7481   1.934   2.028   4.042
 2488SOL    HW1 7482   1.917   2.111   3.988
 2488SOL    HW2 7483   2.024   1.991   4.020
 2489SOL     OW 7484   3.045   3.197   3.843
 2489SOL    HW1 7485   2.946   3.186   3.845
 2489SOL    HW2 7486   3.079   3.212   3.936
 2490SOL     OW 7487   3.536   2.745   4.978
 2490SOL    HW1 7488   3.509   2.656   4.941
 2490SOL    HW2 7489   3.537   2.813   4.905
 2491SOL     OW 7490   3.087   2.187   4.173
 2491SOL    HW1 7491   3.152   2.113   4.162
 2491SOL    HW2 7492   3.107   2.237   4.257
 2492SOL     OW 7493   2.456   2.607   4.376
 2492SOL    HW1 7494   2.506   2.692   4.357
 2492SOL    HW2 7495   2.368   2.609   4.328
 2493SOL     OW 7496   2.721   3.236   3.740
 2493SOL    HW1 7497   2.675   3.251   3.828
 2493SOL    HW2 7498   2.765   3.321   3.710
 2494SOL     OW 7499   2.523   3.652   4.677
 2494SOL    HW1 7500   2.477   3.740   4.664
 2494SOL    HW2 7501   2.622   3.664   4.670
 2495SOL     OW 7502   2.721   2.818   4.585
 2495SOL    HW1 7503   2.775   2.749   4.633
 2495SOL    HW2 7504   2.689   2.887   4.651
 2496SOL     OW 7505   2.945   2.846   3.811
 2496SOL    HW1 7506   2.922   2.899   3.729
 2496SOL    HW2 7507   3.026   2.790   3.792
 2497SOL     OW 7508   3.723   3.431   4.575
 2497SOL    HW1 7509   3.652   3.419   4.505
 2497SOL    HW2 7510   3.724   3.352   4.635
 2498SOL     OW 7511   1.941   3.102   4.377
 2498SOL    HW1 7512   1.940   3.055   4.465
 2498SOL    HW2 7513   2.023   3.074   4.326
 2499SOL     OW 7514   3.686   2.054   4.951
 2499SOL    HW1 7515   3.682   1.964   4.995
 2499SOL    HW2 7516   3.689   2.043   4.852
 2500SOL     OW 7517   2.290   2.286   4.244
 2500SOL    HW1 7518   2.320   2.214   4.182
 2500SOL    HW2 7519   2.251   2.246   4.327
 2501SOL     OW 7520   2.674   3.448   4.411
 2501SOL    HW1 7521   2.706   3.458   4.317
 2501SOL    HW2 7522   2.595   3.386   4.413
 2502SOL     OW 7523   2.632   3.192   4.025
 2502SOL    HW1 7524   2.586   3.105   4.042
 2502SOL    HW2 7525   2.723   3.189   4.066
 2503SOL     OW 7526   3.214   1.914   3.892
 2503SOL    HW1 7527   3.249   1.873   3.808
 2503SOL    HW2 7528   3.124   1.876   3.912
 2504SOL     OW 7529   3.162   2.315   4.415
 2504SOL    HW1 7530   3.103   2.395   4.419
 2504SOL    HW2 7531   3.177   2.280   4.508
 2505SOL     OW 7532   3.455   2.083   4.606
 2505SOL    HW1 7533   3.371   2.082   4.660
 2505SOL    HW2 7534   3.457   2.166   4.550
 2506SOL     OW 7535   1.901   2.939   4.024
 2506SOL    HW1 7536   2.000   2.928   4.015
 2506SOL    HW2 7537   1.861   2.853   4.056
 2507SOL     OW 7538   2.737   3.508   4.061
 2507SOL    HW1 7539   2.660   3.473   4.007
 2507SOL    HW2 7540   2.705   3.579   4.123
 2508SOL     OW 7541   2.092   4.352   0.113
 2508SOL    HW1 7542   1.999   4.350   0.150
 2508SOL    HW2 7543   2.093   4.313   0.021
 2509SOL     OW 7544   2.087   3.999   0.996
 2509SOL    HW1 7545   2.122   3.982   1.088
 2509SOL    HW2 7546   1.999   3.954   0.984
 2510SOL     OW 7547   1.881   4.092   0.647
 2510SOL    HW1 7548   1.799   4.135   0.686
 2510SOL    HW2 7549   1.853   4.019   0.584
 2511SOL     OW 7550   2.997   4.427   0.717
 2511SOL    HW1 7551   3.054   4.505   0.692
 2511SOL    HW2 7552   2.937   4.453   0.793
 2512SOL     OW 7553   3.617   4.331   0.231
 2512SOL    HW1 7554   3.605   4.318   0.132
 2512SOL    HW2 7555   3.587   4.250   0.280
 2513SOL     OW 7556   2.630   4.868   1.023
 2513SOL    HW1 7557   2.552   4.885   1.083
 2513SOL    HW2 7558   2.664   4.955   0.987
 2514SOL     OW 7559   2.712   4.522   1.823
 2514SOL    HW1 7560   2.708   4.598   1.888
 2514SOL    HW2 7561   2.734   4.558   1.732
 2515SOL     OW 7562   2.547   4.736   0.665
 2515SOL    HW1 7563   2.616   4.720   0.735
 2515SOL    HW2 7564   2.474   4.793   0.703
 2516SOL     OW 7565   2.300   4.116   1.499
 2516SOL    HW1 7566   2.382   4.060   1.508
 2516SOL    HW2 7567   2.219   4.058   1.503
 2517SOL     OW 7568   3.465   4.171   0.737
 2517SOL    HW1 7569   3.391   4.217   0.687
 2517SOL    HW2 7570   3.516   4.239   0.790
 2518SOL     OW 7571   2.102   4.815   0.886
 2518SOL    HW1 7572   2.116   4.731   0.938
 2518SOL    HW2 7573   2.047   4.879   0.941
 2519SOL     OW 7574   2.468   4.688   0.123
 2519SOL    HW1 7575   2.475   4.772   0.069
 2519SOL    HW2 7576   2.514   4.701   0.211
 2520SOL     OW 7577   3.456   3.838   1.480
 2520SOL    HW1 7578   3.438   3.905   1.408
 2520SOL    HW2 7579   3.453   3.884   1.569
 2521SOL     OW 7580   1.984   4.367   0.563
 2521SOL    HW1 7581   1.939   4.279   0.580
 2521SOL    HW2 7582   1.983   4.421   0.647
 2522SOL     OW 7583   3.551   4.646   0.612
 2522SOL    HW1 7584   3.646   4.617   0.620
 2522SOL    HW2 7585   3.543   4.711   0.537
 2523SOL     OW 7586   1.975   4.461   1.597
 2523SOL    HW1 7587   2.063   4.448   1.642
 2523SOL    HW2 7588   1.962   4.558   1.575
 2524SOL     OW 7589   2.671   3.728   0.502
 2524SOL    HW1 7590   2.711   3.819   0.493
 2524SOL    HW2 7591   2.571   3.736   0.508
 2525SOL     OW 7592   2.059   4.700   1.264
 2525SOL    HW1 7593   2.148   4.655   1.250
 2525SOL    HW2 7594   1.986   4.635   1.245
 2526SOL     OW 7595   3.387   4.723   0.190
 2526SOL    HW1 7596   3.324   4.647   0.203
 2526SOL    HW2 7597   3.435   4.741   0.276
 2527SOL     OW 7598   2.179   3.975   1.801
 2527SOL    HW1 7599   2.250   4.046   1.807
 2527SOL    HW2 7600   2.091   4.014   1.829
 2528SOL     OW 7601   2.460   4.453   0.270
 2528SOL    HW1 7602   2.484   4.522   0.202
 2528SOL    HW2 7603   2.382   4.486   0.324
 2529SOL     OW 7604   3.143   4.069   0.944
 2529SOL    HW1 7605   3.057   4.019   0.931
 2529SOL    HW2 7606   3.205   4.015   1.000
 2530SOL     OW 7607   2.669   4.329   1.465
 2530SOL    HW1 7608   2.622   4.326   1.554
 2530SOL    HW2 7609   2.618   4.274   1.399
 2531SOL     OW 7610   3.256   4.193   1.674
 2531SOL    HW1 7611   3.236   4.236   1.762
 2531SOL    HW2 7612   3.334   4.131   1.683
 2532SOL     OW 7613   2.835   4.614   1.572
 2532SOL    HW1 7614   2.881   4.530   1.543
 2532SOL    HW2 7615   2.779   4.648   1.497
 2533SOL     OW 7616   2.853   4.134   1.242
 2533SOL    HW1 7617   2.776   4.168   1.296
 2533SOL    HW2 7618   2.819   4.083   1.163
 2534SOL     OW 7619   2.903   4.425   0.429
 2534SOL    HW1 7620   2.929   4.421   0.525
 2534SOL    HW2 7621   2.818   4.374   0.415
 2535SOL     OW 7622   1.938   4.535   0.789
 2535SOL    HW1 7623   2.037   4.523   0.798
 2535SOL    HW2 7624   1.914   4.630   0.810
 2536SOL     OW 7625   2.727   4.072   0.195
 2536SOL    HW1 7626   2.786   4.135   0.146
 2536SOL    HW2 7627   2.746   3.978   0.166
 2537SOL     OW 7628   3.581   4.309   1.831
 2537SOL    HW1 7629   3.555   4.398   1.795
 2537SOL    HW2 7630   3.579   4.241   1.758
 2538SOL     OW 7631   2.412   3.920   0.885
 2538SOL    HW1 7632   2.407   3.915   0.985
 2538SOL    HW2 7633   2.414   4.016   0.856
 2539SOL     OW 7634   3.320   4.459   0.728
 2539SOL    HW1 7635   3.315   4.394   0.803
 2539SOL    HW2 7636   3.400   4.518   0.741
 2540SOL     OW 7637   2.064   4.009   1.498
 2540SOL    HW1 7638   1.984   4.069   1.485
 2540SOL    HW2 7639   2.054   3.960   1.584
 2541SOL     OW 7640   3.262   3.831   0.426
 2541SOL    HW1 7641   3.238   3.794   0.336
 2541SOL    HW2 7642   3.361   3.847   0.430
 2542SOL     OW 7643   2.244   4.424   0.480
 2542SOL    HW1 7644   2.289   4.334   0.477
 2542SOL    HW2 7645   2.150   4.413   0.513
 2543SOL     OW 7646   3.409   3.946   1.729
 2543SOL    HW1 7647   3.404   3.983   1.821
 2543SOL    HW2 7648   3.337   3.877   1.717
 2544SOL     OW 7649   2.476   3.846   0.117
 2544SOL    HW1 7650   2.574   3.824   0.124
 2544SOL    HW2 7651   2.445   3.829   0.024
 2545SOL     OW 7652   2.643   3.988   1.749
 2545SOL    HW1 7653   2.710   3.927   1.792
 2545SOL    HW2 7654   2.570   4.007   1.814
 2546SOL     OW 7655   3.213   4.314   1.433
 2546SOL    HW1 7656   3.241   4.271   1.518
 2546SOL    HW2 7657   3.238   4.410   1.434
 2547SOL     OW 7658   2.784   4.227   0.899
 2547SOL    HW1 7659   2.759   4.218   0.803
 2547SOL    HW2 7660   2.832   4.145   0.930
 2548SOL     OW 7661   2.401   3.788   0.512
 2548SOL    HW1 7662   2.320   3.789   0.570
 2548SOL    HW2 7663   2.404   3.871   0.457
 2549SOL     OW 7664   2.797   3.960   0.480
 2549SOL    HW1 7665   2.749   4.001   0.402
 2549SOL    HW2 7666   2.896   3.958   0.461
 2550SOL     OW 7667   2.938   4.407   1.464
 2550SOL    HW1 7668   2.858   4.346   1.467
 2550SOL    HW2 7669   3.019   4.354   1.440
 2551SOL     OW 7670   2.894   4.273   0.016
 2551SOL    HW1 7671   2.853   4.355  -0.023
 2551SOL    HW2 7672   2.958   4.299   0.089
 2552SOL     OW 7673   1.940   4.280   1.386
 2552SOL    HW1 7674   2.032   4.279   1.345
 2552SOL    HW2 7675   1.934   4.354   1.453
 2553SOL     OW 7676   2.423   3.946   1.147
 2553SOL    HW1 7677   2.461   3.862   1.184
 2553SOL    HW2 7678   2.335   3.965   1.191
 2554SOL     OW 7679   2.728   4.178   0.642
 2554SOL    HW1 7680   2.696   4.250   0.580
 2554SOL    HW2 7681   2.752   4.097   0.589
 2555SOL     OW 7682   2.879   3.763   0.753
 2555SOL    HW1 7683   2.807   3.768   0.684
 2555SOL    HW2 7684   2.855   3.694   0.822
 2556SOL     OW 7685   3.291   4.897   0.867
 2556SOL    HW1 7686   3.236   4.813   0.860
 2556SOL    HW2 7687   3.317   4.926   0.775
 2557SOL     OW 7688   3.328   4.314   0.992
 2557SOL    HW1 7689   3.298   4.219   0.999
 2557SOL    HW2 7690   3.401   4.330   1.058
 2558SOL     OW 7691   3.719   4.557   0.377
 2558SOL    HW1 7692   3.761   4.493   0.441
 2558SOL    HW2 7693   3.681   4.506   0.299
 2559SOL     OW 7694   3.252   4.299   0.078
 2559SOL    HW1 7695   3.198   4.278   0.159
 2559SOL    HW2 7696   3.343   4.258   0.087
 2560SOL     OW 7697   2.389   3.980   0.328
 2560SOL    HW1 7698   2.416   3.921   0.253
 2560SOL    HW2 7699   2.389   4.075   0.297
 2561SOL     OW 7700   3.500   4.823   1.079
 2561SOL    HW1 7701   3.505   4.904   1.138
 2561SOL    HW2 7702   3.414   4.825   1.028
 2562SOL     OW 7703   2.777   3.813   1.402
 2562SOL    HW1 7704   2.802   3.793   1.307
 2562SOL    HW2 7705   2.849   3.869   1.444
 2563SOL     OW 7706   2.272   4.537   1.251
 2563SOL    HW1 7707   2.358   4.549   1.301
 2563SOL    HW2 7708   2.230   4.450   1.278
 2564SOL     OW 7709   3.136   4.110   1.262
 2564SOL    HW1 7710   3.157   4.184   1.326
 2564SOL    HW2 7711   3.047   4.127   1.219
 2565SOL     OW 7712   2.428   4.261   0.865
 2565SOL    HW1 7713   2.440   4.327   0.791
 2565SOL    HW2 7714   2.474   4.295   0.948
 2566SOL     OW 7715   3.444   4.363   0.472
 2566SOL    HW1 7716   3.413   4.424   0.545
 2566SOL    HW2 7717   3.494   4.415   0.403
 2567SOL     OW 7718   2.264   4.475   1.598
 2567SOL    HW1 7719   2.332   4.530   1.551
 2567SOL    HW2 7720   2.304   4.387   1.625
 2568SOL     OW 7721   3.449   4.503   1.670
 2568SOL    HW1 7722   3.357   4.541   1.665
 2568SOL    HW2 7723   3.509   4.550   1.605
 2569SOL     OW 7724   2.875   3.829   1.770
 2569SOL    HW1 7725   2.881   3.914   1.718
 2569SOL    HW2 7726   2.907   3.753   1.713
 2570SOL     OW 7727   2.366   3.774   1.740
 2570SOL    HW1 7728   2.324   3.717   1.670
 2570SOL    HW2 7729   2.300   3.843   1.772
 2571SOL     OW 7730   2.435   4.594   1.029
 2571SOL    HW1 7731   2.479   4.683   1.020
 2571SOL    HW2 7732   2.372   4.594   1.106
 2572SOL     OW 7733   3.222   4.586   1.045
 2572SOL    HW1 7734   3.147   4.586   0.979
 2572SOL    HW2 7735   3.259   4.494   1.054
 2573SOL     OW 7736   3.071   4.249   0.275
 2573SOL    HW1 7737   3.084   4.165   0.329
 2573SOL    HW2 7738   3.042   4.323   0.335
 2574SOL     OW 7739   2.169   3.937   1.231
 2574SOL    HW1 7740   2.146   3.974   1.321
 2574SOL    HW2 7741   2.139   3.842   1.225
 2575SOL     OW 7742   2.594   4.358   1.064
 2575SOL    HW1 7743   2.653   4.332   0.988
 2575SOL    HW2 7744   2.566   4.454   1.053
 2576SOL     OW 7745   3.590   4.659   1.854
 2576SOL    HW1 7746   3.544   4.652   1.765
 2576SOL    HW2 7747   3.528   4.703   1.920
 2577SOL     OW 7748   2.169   3.787   0.618
 2577SOL    HW1 7749   2.158   3.881   0.651
 2577SOL    HW2 7750   2.164   3.724   0.695
 2578SOL     OW 7751   3.484   4.091   0.374
 2578SOL    HW1 7752   3.486   4.015   0.438
 2578SOL    HW2 7753   3.436   4.168   0.414
 2579SOL     OW 7754   2.885   4.490   0.966
 2579SOL    HW1 7755   2.900   4.511   1.062
 2579SOL    HW2 7756   2.855   4.395   0.957
 2580SOL     OW 7757   2.212   4.622   1.804
 2580SOL    HW1 7758   2.288   4.666   1.852
 2580SOL    HW2 7759   2.247   4.575   1.722
 2581SOL     OW 7760   3.402   3.998   0.125
 2581SOL    HW1 7761   3.341   3.923   0.148
 2581SOL    HW2 7762   3.424   4.050   0.208
 2582SOL     OW 7763   3.165   4.562   0.042
 2582SOL    HW1 7764   3.199   4.469   0.057
 2582SOL    HW2 7765   3.183   4.589  -0.053
 2583SOL     OW 7766   2.181   4.534   0.949
 2583SOL    HW1 7767   2.274   4.570   0.954
 2583SOL    HW2 7768   2.175   4.449   1.001
 2584SOL     OW 7769   2.201   4.233   1.006
 2584SOL    HW1 7770   2.149   4.150   0.989
 2584SOL    HW2 7771   2.278   4.238   0.942
 2585SOL     OW 7772   3.000   4.104   1.678
 2585SOL    HW1 7773   2.955   4.167   1.742
 2585SOL    HW2 7774   3.093   4.135   1.661
 2586SOL     OW 7775   3.022   3.931   1.477
 2586SOL    HW1 7776   3.022   3.995   1.554
 2586SOL    HW2 7777   3.050   3.979   1.394
 2587SOL     OW 7778   2.864   4.520   1.238
 2587SOL    HW1 7779   2.905   4.488   1.324
 2587SOL    HW2 7780   2.768   4.493   1.235
 2588SOL     OW 7781   1.902   4.268   1.114
 2588SOL    HW1 7782   1.987   4.235   1.073
 2588SOL    HW2 7783   1.915   4.283   1.212
 2589SOL     OW 7784   2.051   4.244   1.722
 2589SOL    HW1 7785   2.110   4.204   1.652
 2589SOL    HW2 7786   1.993   4.315   1.681
 2590SOL     OW 7787   3.231   4.674   1.660
 2590SOL    HW1 7788   3.270   4.763   1.680
 2590SOL    HW2 7789   3.241   4.654   1.563
 2591SOL     OW 7790   2.677   4.296   0.325
 2591SOL    HW1 7791   2.684   4.207   0.279
 2591SOL    HW2 7792   2.583   4.330   0.317
 2592SOL     OW 7793   3.519   4.328   1.206
 2592SOL    HW1 7794   3.481   4.259   1.268
 2592SOL    HW2 7795   3.601   4.292   1.162
 2593SOL     OW 7796   2.533   4.188   1.269
 2593SOL    HW1 7797   2.499   4.099   1.239
 2593SOL    HW2 7798   2.559   4.242   1.189
 2594SOL     OW 7799   2.335   4.224   0.191
 2594SOL    HW1 7800   2.396   4.304   0.195
 2594SOL    HW2 7801   2.240   4.255   0.198
 2595SOL     OW 7802   2.021   4.861   1.466
 2595SOL    HW1 7803   2.043   4.800   1.542
 2595SOL    HW2 7804   2.031   4.812   1.380
 2596SOL     OW 7805   3.209   4.783   1.234
 2596SOL    HW1 7806   3.233   4.720   1.160
 2596SOL    HW2 7807   3.119   4.823   1.216
 2597SOL     OW 7808   3.164   4.579   0.309
 2597SOL    HW1 7809   3.078   4.548   0.351
 2597SOL    HW2 7810   3.160   4.565   0.210
 2598SOL     OW 7811   2.765   3.810   0.133
 2598SOL    HW1 7812   2.816   3.811   0.047
 2598SOL    HW2 7813   2.821   3.768   0.204
 2599SOL     OW 7814   3.588   3.859   0.523
 2599SOL    HW1 7815   3.661   3.842   0.456
 2599SOL    HW2 7816   3.557   3.772   0.561
 2600SOL     OW 7817   3.142   4.651   0.672
 2600SOL    HW1 7818   3.202   4.570   0.674
 2600SOL    HW2 7819   3.182   4.720   0.612
 2601SOL     OW 7820   3.703   3.899   0.963
 2601SOL    HW1 7821   3.742   3.814   0.927
 2601SOL    HW2 7822   3.605   3.901   0.944
 2602SOL     OW 7823   2.125   4.050   0.720
 2602SOL    HW1 7824   2.046   4.101   0.686
 2602SOL    HW2 7825   2.116   4.035   0.818
 2603SOL     OW 7826   2.778   4.634   0.291
 2603SOL    HW1 7827   2.841   4.672   0.223
 2603SOL    HW2 7828   2.818   4.551   0.330
 2604SOL     OW 7829   2.876   3.960   0.971
 2604SOL    HW1 7830   2.868   3.924   0.878
 2604SOL    HW2 7831   2.874   3.884   1.036
 2605SOL     OW 7832   3.571   4.109   1.381
 2605SOL    HW1 7833   3.644   4.178   1.385
 2605SOL    HW2 7834   3.599   4.034   1.322
 2606SOL     OW 7835   1.967   4.737   1.726
 2606SOL    HW1 7836   1.890   4.704   1.780
 2606SOL    HW2 7837   2.052   4.707   1.768
 2607SOL     OW 7838   2.534   3.927   1.489
 2607SOL    HW1 7839   2.624   3.911   1.449
 2607SOL    HW2 7840   2.542   3.932   1.588
 2608SOL     OW 7841   1.937   4.069   0.033
 2608SOL    HW1 7842   1.845   4.041   0.004
 2608SOL    HW2 7843   1.968   4.146  -0.023
 2609SOL     OW 7844   3.302   4.580   1.398
 2609SOL    HW1 7845   3.245   4.632   1.335
 2609SOL    HW2 7846   3.398   4.592   1.374
 2610SOL     OW 7847   1.934   3.890   0.318
 2610SOL    HW1 7848   1.917   3.973   0.264
 2610SOL    HW2 7849   2.024   3.853   0.296
 2611SOL     OW 7850   3.045   5.059   0.119
 2611SOL    HW1 7851   2.946   5.048   0.121
 2611SOL    HW2 7852   3.079   5.074   0.212
 2612SOL     OW 7853   2.475   4.566   1.431
 2612SOL    HW1 7854   2.531   4.647   1.414
 2612SOL    HW2 7855   2.534   4.486   1.434
 2613SOL     OW 7856   2.578   4.289   1.708
 2613SOL    HW1 7857   2.597   4.354   1.782
 2613SOL    HW2 7858   2.638   4.209   1.717
 2614SOL     OW 7859   3.536   4.607   1.254
 2614SOL    HW1 7860   3.509   4.518   1.217
 2614SOL    HW2 7861   3.537   4.675   1.181
 2615SOL     OW 7862   3.087   4.049   0.449
 2615SOL    HW1 7863   3.152   3.975   0.438
 2615SOL    HW2 7864   3.107   4.099   0.533
 2616SOL     OW 7865   2.456   4.469   0.652
 2616SOL    HW1 7866   2.506   4.554   0.633
 2616SOL    HW2 7867   2.368   4.471   0.604
 2617SOL     OW 7868   3.639   4.066   1.642
 2617SOL    HW1 7869   3.622   4.097   1.548
 2617SOL    HW2 7870   3.555   4.029   1.680
 2618SOL     OW 7871   3.592   4.658   1.517
 2618SOL    HW1 7872   3.630   4.749   1.532
 2618SOL    HW2 7873   3.584   4.641   1.418
 2619SOL     OW 7874   2.721   4.680   0.861
 2619SOL    HW1 7875   2.775   4.611   0.909
 2619SOL    HW2 7876   2.689   4.749   0.927
 2620SOL     OW 7877   2.945   4.708   0.087
 2620SOL    HW1 7878   2.922   4.761   0.005
 2620SOL    HW2 7879   3.026   4.652   0.068
 2621SOL     OW 7880   1.941   4.964   0.653
 2621SOL    HW1 7881   1.940   4.917   0.741
 2621SOL    HW2 7882   2.023   4.936   0.602
 2622SOL     OW 7883   3.686   3.916   1.227
 2622SOL    HW1 7884   3.682   3.826   1.271
 2622SOL    HW2 7885   3.689   3.905   1.128
 2623SOL     OW 7886   2.290   4.148   0.520
 2623SOL    HW1 7887   2.320   4.076   0.458
 2623SOL    HW2 7888   2.251   4.108   0.603
 2624SOL     OW 7889   2.179   4.271   1.280
 2624SOL    HW1 7890   2.217   4.212   1.352
 2624SOL    HW2 7891   2.219   4.245   1.192
 2625SOL     OW 7892   3.286   3.938   1.112
 2625SOL    HW1 7893   3.338   3.873   1.167
 2625SOL    HW2 7894   3.237   4.001   1.173
 2626SOL     OW 7895   2.863   3.758   1.154
 2626SOL    HW1 7896   2.800   3.686   1.123
 2626SOL    HW2 7897   2.956   3.722   1.154
 2627SOL     OW 7898   3.214   3.776   0.168
 2627SOL    HW1 7899   3.249   3.735   0.084
 2627SOL    HW2 7900   3.124   3.738   0.188
 2628SOL     OW 7901   3.162   4.177   0.691
 2628SOL    HW1 7902   3.103   4.257   0.695
 2628SOL    HW2 7903   3.177   4.142   0.784
 2629SOL     OW 7904   3.455   3.945   0.882
 2629SOL    HW1 7905   3.371   3.944   0.936
 2629SOL    HW2 7906   3.457   4.028   0.826
 2630SOL     OW 7907   1.901   4.801   0.300
 2630SOL    HW1 7908   2.000   4.790   0.291
 2630SOL    HW2 7909   1.861   4.715   0.332
 2631SOL     OW 7910   2.092   4.352   1.975
 2631SOL    HW1 7911   1.999   4.350   2.012
 2631SOL    HW2 7912   2.093   4.313   1.883
 2632SOL     OW 7913   2.087   3.999   2.858
 2632SOL    HW1 7914   2.122   3.982   2.950
 2632SOL    HW2 7915   1.999   3.954   2.846
 2633SOL     OW 7916   1.881   4.092   2.509
 2633SOL    HW1 7917   1.799   4.135   2.548
 2633SOL    HW2 7918   1.853   4.019   2.446
 2634SOL     OW 7919   2.997   4.427   2.579
 2634SOL    HW1 7920   3.054   4.505   2.554
 2634SOL    HW2 7921   2.937   4.453   2.655
 2635SOL     OW 7922   3.617   4.331   2.093
 2635SOL    HW1 7923   3.605   4.318   1.994
 2635SOL    HW2 7924   3.587   4.250   2.142
 2636SOL     OW 7925   2.630   4.868   2.885
 2636SOL    HW1 7926   2.552   4.885   2.945
 2636SOL    HW2 7927   2.664   4.955   2.849
 2637SOL     OW 7928   2.712   4.522   3.685
 2637SOL    HW1 7929   2.708   4.598   3.750
 2637SOL    HW2 7930   2.734   4.558   3.594
 2638SOL     OW 7931   2.547   4.736   2.527
 2638SOL    HW1 7932   2.616   4.720   2.597
 2638SOL    HW2 7933   2.474   4.793   2.565
 2639SOL     OW 7934   2.300   4.116   3.361
 2639SOL    HW1 7935   2.382   4.060   3.370
 2639SOL    HW2 7936   2.219   4.058   3.365
 2640SOL     OW 7937   3.465   4.171   2.599
 2640SOL    HW1 7938   3.391   4.217   2.549
 2640SOL    HW2 7939   3.516   4.239   2.652
 2641SOL     OW 7940   2.102   4.815   2.748
 2641SOL    HW1 7941   2.116   4.731   2.800
 2641SOL    HW2 7942   2.047   4.879   2.803
 2642SOL     OW 7943   2.468   4.688   1.985
 2642SOL    HW1 7944   2.475   4.772   1.931
 2642SOL    HW2 7945   2.514   4.701   2.073
 2643SOL     OW 7946   3.456   3.838   3.342
 2643SOL    HW1 7947   3.438   3.905   3.270
 2643SOL    HW2 7948   3.453   3.884   3.431
 2644SOL     OW 7949   1.984   4.367   2.425
 2644SOL    HW1 7950   1.939   4.279   2.442
 2644SOL    HW2 7951   1.983   4.421   2.509
 2645SOL     OW 7952   3.551   4.646   2.474
 2645SOL    HW1 7953   3.646   4.617   2.482
 2645SOL    HW2 7954   3.543   4.711   2.399
 2646SOL     OW 7955   1.975   4.461   3.459
 2646SOL    HW1 7956   2.063   4.448   3.504
 2646SOL    HW2 7957   1.962   4.558   3.437
 2647SOL     OW 7958   2.671   3.728   2.364
 2647SOL    HW1 7959   2.711   3.819   2.355
 2647SOL    HW2 7960   2.571   3.736   2.370
 2648SOL     OW 7961   2.059   4.700   3.126
 2648SOL    HW1 7962   2.148   4.655   3.112
 2648SOL    HW2 7963   1.986   4.635   3.107
 2649SOL     OW 7964   3.387   4.723   2.052
 2649SOL    HW1 7965   3.324   4.647   2.065
 2649SOL    HW2 7966   3.435   4.741   2.138
 2650SOL     OW 7967   2.179   3.975   3.663
 2650SOL    HW1 7968   2.250   4.046   3.669
 2650SOL    HW2 7969   2.091   4.014   3.691
 2651SOL     OW 7970   2.460   4.453   2.132
 2651SOL    HW1 7971   2.484   4.522   2.064
 2651SOL    HW2 7972   2.382   4.486   2.186
 2652SOL     OW 7973   3.143   4.069   2.806
 2652SOL    HW1 7974   3.057   4.019   2.793
 2652SOL    HW2 7975   3.205   4.015   2.862
 2653SOL     OW 7976   2.669   4.329   3.327
 2653SOL    HW1 7977   2.622   4.326   3.416
 2653SOL    HW2 7978   2.618   4.274   3.261
 2654SOL     OW 7979   3.256   4.193   3.536
 2654SOL    HW1 7980   3.236   4.236   3.624
 2654SOL    HW2 7981   3.334   4.131   3.545
 2655SOL     OW 7982   2.835   4.614   3.434
 2655SOL    HW1 7983   2.881   4.530   3.405
 2655SOL    HW2 7984   2.779   4.648   3.359
 2656SOL     OW 7985   2.853   4.134   3.104
 2656SOL    HW1 7986   2.776   4.168   3.158
 2656SOL    HW2 7987   2.819   4.083   3.025
 2657SOL     OW 7988   2.903   4.425   2.291
 2657SOL    HW1 7989   2.929   4.421   2.387
 2657SOL    HW2 7990   2.818   4.374   2.277
 2658SOL     OW 7991   1.938   4.535   2.651
 2658SOL    HW1 7992   2.037   4.523   2.660
 2658SOL    HW2 7993   1.914   4.630   2.672
 2659SOL     OW 7994   2.727   4.072   2.057
 2659SOL    HW1 7995   2.786   4.135   2.008
 2659SOL    HW2 7996   2.746   3.978   2.028
 2660SOL     OW 7997   3.581   4.309   3.693
 2660SOL    HW1 7998   3.555   4.398   3.657
 2660SOL    HW2 7999   3.579   4.241   3.620
 2661SOL     OW 8000   2.412   3.920   2.747
 2661SOL    HW1 8001   2.407   3.915   2.847
 2661SOL    HW2 8002   2.414   4.016   2.718
 2662SOL     OW 8003   3.320   4.459   2.590
 2662SOL    HW1 8004   3.315   4.394   2.665
 2662SOL    HW2 8005   3.400   4.518   2.603
 2663SOL     OW 8006   2.064   4.009   3.360
 2663SOL    HW1 8007   1.984   4.069   3.347
 2663SOL    HW2 8008   2.054   3.960   3.446
 2664SOL     OW 8009   3.262   3.831   2.288
 2664SOL    HW1 8010   3.238   3.794   2.198
 2664SOL    HW2 8011   3.361   3.847   2.292
 2665SOL     OW 8012   2.244   4.424   2.342
 2665SOL    HW1 8013   2.289   4.334   2.339
 2665SOL    HW2 8014   2.150   4.413   2.375
 2666SOL     OW 8015   3.409   3.946   3.591
 2666SOL    HW1 8016   3.404   3.983   3.683
 2666SOL    HW2 8017   3.337   3.877   3.579
 2667SOL     OW 8018   2.476   3.846   1.979
 2667SOL    HW1 8019   2.574   3.824   1.986
 2667SOL    HW2 8020   2.445   3.829   1.886
 2668SOL     OW 8021   2.643   3.988   3.611
 2668SOL    HW1 8022   2.710   3.927   3.654
 2668SOL    HW2 8023   2.570   4.007   3.676
 2669SOL     OW 8024   3.213   4.314   3.295
 2669SOL    HW1 8025   3.241   4.271   3.380
 2669SOL    HW2 8026   3.238   4.410   3.296
 2670SOL     OW 8027   2.784   4.227   2.761
 2670SOL    HW1 8028   2.759   4.218   2.665
 2670SOL    HW2 8029   2.832   4.145   2.792
 2671SOL     OW 8030   2.401   3.788   2.374
 2671SOL    HW1 8031   2.320   3.789   2.432
 2671SOL    HW2 8032   2.404   3.871   2.319
 2672SOL     OW 8033   2.159   3.759   2.033
 2672SOL    HW1 8034   2.208   3.843   2.012
 2672SOL    HW2 8035   2.221   3.694   2.078
 2673SOL     OW 8036   2.797   3.960   2.342
 2673SOL    HW1 8037   2.749   4.001   2.264
 2673SOL    HW2 8038   2.896   3.958   2.323
 2674SOL     OW 8039   2.938   4.407   3.326
 2674SOL    HW1 8040   2.858   4.346   3.329
 2674SOL    HW2 8041   3.019   4.354   3.302
 2675SOL     OW 8042   2.894   4.273   1.878
 2675SOL    HW1 8043   2.853   4.355   1.839
 2675SOL    HW2 8044   2.958   4.299   1.951
 2676SOL     OW 8045   1.940   4.280   3.248
 2676SOL    HW1 8046   2.032   4.279   3.207
 2676SOL    HW2 8047   1.934   4.354   3.315
 2677SOL     OW 8048   2.423   3.946   3.009
 2677SOL    HW1 8049   2.461   3.862   3.046
 2677SOL    HW2 8050   2.335   3.965   3.053
 2678SOL     OW 8051   2.728   4.178   2.504
 2678SOL    HW1 8052   2.696   4.250   2.442
 2678SOL    HW2 8053   2.752   4.097   2.451
 2679SOL     OW 8054   2.879   3.763   2.615
 2679SOL    HW1 8055   2.807   3.768   2.546
 2679SOL    HW2 8056   2.855   3.694   2.684
 2680SOL     OW 8057   3.291   4.897   2.729
 2680SOL    HW1 8058   3.236   4.813   2.722
 2680SOL    HW2 8059   3.317   4.926   2.637
 2681SOL     OW 8060   3.328   4.314   2.854
 2681SOL    HW1 8061   3.298   4.219   2.861
 2681SOL    HW2 8062   3.401   4.330   2.920
 2682SOL     OW 8063   3.719   4.557   2.239
 2682SOL    HW1 8064   3.761   4.493   2.303
 2682SOL    HW2 8065   3.681   4.506   2.161
 2683SOL     OW 8066   3.252   4.299   1.940
 2683SOL    HW1 8067   3.198   4.278   2.021
 2683SOL    HW2 8068   3.343   4.258   1.949
 2684SOL     OW 8069   2.389   3.980   2.190
 2684SOL    HW1 8070   2.416   3.921   2.115
 2684SOL    HW2 8071   2.389   4.075   2.159
 2685SOL     OW 8072   3.500   4.823   2.941
 2685SOL    HW1 8073   3.505   4.904   3.000
 2685SOL    HW2 8074   3.414   4.825   2.890
 2686SOL     OW 8075   2.777   3.813   3.264
 2686SOL    HW1 8076   2.802   3.793   3.169
 2686SOL    HW2 8077   2.849   3.869   3.306
 2687SOL     OW 8078   2.272   4.537   3.113
 2687SOL    HW1 8079   2.358   4.549   3.163
 2687SOL    HW2 8080   2.230   4.450   3.140
 2688SOL     OW 8081   3.136   4.110   3.124
 2688SOL    HW1 8082   3.157   4.184   3.188
 2688SOL    HW2 8083   3.047   4.127   3.081
 2689SOL     OW 8084   2.428   4.261   2.727
 2689SOL    HW1 8085   2.440   4.327   2.653
 2689SOL    HW2 8086   2.474   4.295   2.810
 2690SOL     OW 8087   3.444   4.363   2.334
 2690SOL    HW1 8088   3.413   4.424   2.407
 2690SOL    HW2 8089   3.494   4.415   2.265
 2691SOL     OW 8090   2.264   4.475   3.460
 2691SOL    HW1 8091   2.332   4.530   3.413
 2691SOL    HW2 8092   2.304   4.387   3.487
 2692SOL     OW 8093   3.449   4.503   3.532
 2692SOL    HW1 8094   3.357   4.541   3.527
 2692SOL    HW2 8095   3.509   4.550   3.467
 2693SOL     OW 8096   2.875   3.829   3.632
 2693SOL    HW1 8097   2.881   3.914   3.580
 2693SOL    HW2 8098   2.907   3.753   3.575
 2694SOL     OW 8099   2.366   3.774   3.602
 2694SOL    HW1 8100   2.324   3.717   3.532
 2694SOL    HW2 8101   2.300   3.843   3.634
 2695SOL     OW 8102   2.435   4.594   2.891
 2695SOL    HW1 8103   2.479   4.683   2.882
 2695SOL    HW2 8104   2.372   4.594   2.968
 2696SOL     OW 8105   3.222   4.586   2.907
 2696SOL    HW1 8106   3.147   4.586   2.841
 2696SOL    HW2 8107   3.259   4.494   2.916
 2697SOL     OW 8108   3.071   4.249   2.137
 2697SOL    HW1 8109   3.084   4.165   2.191
 2697SOL    HW2 8110   3.042   4.323   2.197
 2698SOL     OW 8111   2.169   3.937   3.093
 2698SOL    HW1 8112   2.146   3.974   3.183
 2698SOL    HW2 8113   2.139   3.842   3.087
 2699SOL     OW 8114   2.594   4.358   2.926
 2699SOL    HW1 8115   2.653   4.332   2.850
 2699SOL    HW2 8116   2.566   4.454   2.915
 2700SOL     OW 8117   3.590   4.659   3.716
 2700SOL    HW1 8118   3.544   4.652   3.627
 2700SOL    HW2 8119   3.528   4.703   3.782
 2701SOL     OW 8120   2.169   3.787   2.480
 2701SOL    HW1 8121   2.158   3.881   2.513
 2701SOL    HW2 8122   2.164   3.724   2.557
 2702SOL     OW 8123   3.484   4.091   2.236
 2702SOL    HW1 8124   3.486   4.015   2.300
 2702SOL    HW2 8125   3.436   4.168   2.276
 2703SOL     OW 8126   2.885   4.490   2.828
 2703SOL    HW1 8127   2.900   4.511   2.924
 2703SOL    HW2 8128   2.855   4.395   2.819
 2704SOL     OW 8129   2.212   4.622   3.666
 2704SOL    HW1 8130   2.288   4.666   3.714
 2704SOL    HW2 8131   2.247   4.575   3.584
 2705SOL     OW 8132   3.402   3.998   1.987
 2705SOL    HW1 8133   3.341   3.923   2.010
 2705SOL    HW2 8134   3.424   4.050   2.070
 2706SOL     OW 8135   3.165   4.562   1.904
 2706SOL    HW1 8136   3.199   4.469   1.919
 2706SOL    HW2 8137   3.183   4.589   1.809
 2707SOL     OW 8138   2.181   4.534   2.811
 2707SOL    HW1 8139   2.274   4.570   2.816
 2707SOL    HW2 8140   2.175   4.449   2.863
 2708SOL     OW 8141   2.201   4.233   2.868
 2708SOL    HW1 8142   2.149   4.150   2.851
 2708SOL    HW2 8143   2.278   4.238   2.804
 2709SOL     OW 8144   3.000   4.104   3.540
 2709SOL    HW1 8145   2.955   4.167   3.604
 2709SOL    HW2 8146   3.093   4.135   3.523
 2710SOL     OW 8147   3.022   3.931   3.339
 2710SOL    HW1 8148   3.022   3.995   3.416
 2710SOL    HW2 8149   3.050   3.979   3.256
 2711SOL     OW 8150   2.864   4.520   3.100
 2711SOL    HW1 8151   2.905   4.488   3.186
 2711SOL    HW2 8152   2.768   4.493   3.097
 2712SOL     OW 8153   1.902   4.268   2.976
 2712SOL    HW1 8154   1.987   4.235   2.935
 2712SOL    HW2 8155   1.915   4.283   3.074
 2713SOL     OW 8156   2.051   4.244   3.584
 2713SOL    HW1 8157   2.110   4.204   3.514
 2713SOL    HW2 8158   1.993   4.315   3.543
 2714SOL     OW 8159   3.231   4.674   3.522
 2714SOL    HW1 8160   3.270   4.763   3.542
 2714SOL    HW2 8161   3.241   4.654   3.425
 2715SOL     OW 8162   2.677   4.296   2.187
 2715SOL    HW1 8163   2.684   4.207   2.141
 2715SOL    HW2 8164   2.583   4.330   2.179
 2716SOL     OW 8165   3.519   4.328   3.068
 2716SOL    HW1 8166   3.481   4.259   3.130
 2716SOL    HW2 8167   3.601   4.292   3.024
 2717SOL     OW 8168   2.533   4.188   3.131
 2717SOL    HW1 8169   2.499   4.099   3.101
 2717SOL    HW2 8170   2.559   4.242   3.051
 2718SOL     OW 8171   2.335   4.224   2.053
 2718SOL    HW1 8172   2.396   4.304   2.057
 2718SOL    HW2 8173   2.240   4.255   2.060
 2719SOL     OW 8174   2.021   4.861   3.328
 2719SOL    HW1 8175   2.043   4.800   3.404
 2719SOL    HW2 8176   2.031   4.812   3.242
 2720SOL     OW 8177   3.209   4.783   3.096
 2720SOL    HW1 8178   3.233   4.720   3.022
 2720SOL    HW2 8179   3.119   4.823   3.078
 2721SOL     OW 8180   3.164   4.579   2.171
 2721SOL    HW1 8181   3.078   4.548   2.213
 2721SOL    HW2 8182   3.160   4.565   2.072
 2722SOL     OW 8183   3.588   3.859   2.385
 2722SOL    HW1 8184   3.661   3.842   2.318
 2722SOL    HW2 8185   3.557   3.772   2.423
 2723SOL     OW 8186   3.142   4.651   2.534
 2723SOL    HW1 8187   3.202   4.570   2.536
 2723SOL    HW2 8188   3.182   4.720   2.474
 2724SOL     OW 8189   3.703   3.899   2.825
 2724SOL    HW1 8190   3.742   3.814   2.789
 2724SOL    HW2 8191   3.605   3.901   2.806
 2725SOL     OW 8192   2.125   4.050   2.582
 2725SOL    HW1 8193   2.046   4.101   2.548
 2725SOL    HW2 8194   2.116   4.035   2.680
 2726SOL     OW 8195   2.778   4.634   2.153
 2726SOL    HW1 8196   2.841   4.672   2.085
 2726SOL    HW2 8197   2.818   4.551   2.192
 2727SOL     OW 8198   2.876   3.960   2.833
 2727SOL    HW1 8199   2.868   3.924   2.740
 2727SOL    HW2 8200   2.874   3.884   2.898
 2728SOL     OW 8201   3.571   4.109   3.243
 2728SOL    HW1 8202   3.644   4.178   3.247
 2728SOL    HW2 8203   3.599   4.034   3.184
 2729SOL     OW 8204   1.967   4.737   3.588
 2729SOL    HW1 8205   1.890   4.704   3.642
 2729SOL    HW2 8206   2.052   4.707   3.630
 2730SOL     OW 8207   2.534   3.927   3.351
 2730SOL    HW1 8208   2.624   3.911   3.311
 2730SOL    HW2 8209   2.542   3.932   3.450
 2731SOL     OW 8210   1.937   4.069   1.895
 2731SOL    HW1 8211   1.845   4.041   1.866
 2731SOL    HW2 8212   1.968   4.146   1.839
 2732SOL     OW 8213   3.302   4.580   3.260
 2732SOL    HW1 8214   3.245   4.632   3.197
 2732SOL    HW2 8215   3.398   4.592   3.236
 2733SOL     OW 8216   1.934   3.890   2.180
 2733SOL    HW1 8217   1.917   3.973   2.126
 2733SOL    HW2 8218   2.024   3.853   2.158
 2734SOL     OW 8219   3.045   5.059   1.981
 2734SOL    HW1 8220   2.946   5.048   1.983
 2734SOL    HW2 8221   3.079   5.074   2.074
 2735SOL     OW 8222   2.475   4.566   3.293
 2735SOL    HW1 8223   2.531   4.647   3.276
 2735SOL    HW2 8224   2.534   4.486   3.296
 2736SOL     OW 8225   2.578   4.289   3.570
 2736SOL    HW1 8226   2.597   4.354   3.644
 2736SOL    HW2 8227   2.638   4.209   3.579
 2737SOL     OW 8228   3.536   4.607   3.116
 2737SOL    HW1 8229   3.509   4.518   3.079
 2737SOL    HW2 8230   3.537   4.675   3.043
 2738SOL     OW 8231   3.087   4.049   2.311
 2738SOL    HW1 8232   3.152   3.975   2.300
 2738SOL    HW2 8233   3.107   4.099   2.395
 2739SOL     OW 8234   2.456   4.469   2.514
 2739SOL    HW1 8235   2.506   4.554   2.495
 2739SOL    HW2 8236   2.368   4.471   2.466
 2740SOL     OW 8237   3.639   4.066   3.504
 2740SOL    HW1 8238   3.622   4.097   3.410
 2740SOL    HW2 8239   3.555   4.029   3.542
 2741SOL     OW 8240   3.592   4.658   3.379
 2741SOL    HW1 8241   3.630   4.749   3.394
 2741SOL    HW2 8242   3.584   4.641   3.280
 2742SOL     OW 8243   2.721   4.680   2.723
 2742SOL    HW1 8244   2.775   4.611   2.771
 2742SOL    HW2 8245   2.689   4.749   2.789
 2743SOL     OW 8246   2.945   4.708   1.949
 2743SOL    HW1 8247   2.922   4.761   1.867
 2743SOL    HW2 8248   3.026   4.652   1.930
 2744SOL     OW 8249   1.941   4.964   2.515
 2744SOL    HW1 8250   1.940   4.917   2.603
 2744SOL    HW2 8251   2.023   4.936   2.464
 2745SOL     OW 8252   3.686   3.916   3.089
 2745SOL    HW1 8253   3.682   3.826   3.133
 2745SOL    HW2 8254   3.689   3.905   2.990
 2746SOL     OW 8255   2.290   4.148   2.382
 2746SOL    HW1 8256   2.320   4.076   2.320
 2746SOL    HW2 8257   2.251   4.108   2.465
 2747SOL     OW 8258   2.179   4.271   3.142
 2747SOL    HW1 8259   2.217   4.212   3.214
 2747SOL    HW2 8260   2.219   4.245   3.054
 2748SOL     OW 8261   3.286   3.938   2.974
 2748SOL    HW1 8262   3.338   3.873   3.029
 2748SOL    HW2 8263   3.237   4.001   3.035
 2749SOL     OW 8264   2.863   3.758   3.016
 2749SOL    HW1 8265   2.800   3.686   2.985
 2749SOL    HW2 8266   2.956   3.722   3.016
 2750SOL     OW 8267   3.214   3.776   2.030
 2750SOL    HW1 8268   3.249   3.735   1.946
 2750SOL    HW2 8269   3.124   3.738   2.050
 2751SOL     OW 8270   3.162   4.177   2.553
 2751SOL    HW1 8271   3.103   4.257   2.557
 2751SOL    HW2 8272   3.177   4.142   2.646
 2752SOL     OW 8273   3.455   3.945   2.744
 2752SOL    HW1 8274   3.371   3.944   2.798
 2752SOL    HW2 8275   3.457   4.028   2.688
 2753SOL     OW 8276   1.901   4.801   2.162
 2753SOL    HW1 8277   2.000   4.790   2.153
 2753SOL    HW2 8278   1.861   4.715   2.194
 2754SOL     OW 8279   2.092   4.352   3.837
 2754SOL    HW1 8280   1.999   4.350   3.874
 2754SOL    HW2 8281   2.093   4.313   3.745
 2755SOL     OW 8282   2.087   3.999   4.720
 2755SOL    HW1 8283   2.122   3.982   4.812
 2755SOL    HW2 8284   1.999   3.954   4.708
 2756SOL     OW 8285   1.881   4.092   4.371
 2756SOL    HW1 8286   1.799   4.135   4.410
 2756SOL    HW2 8287   1.853   4.019   4.308
 2757SOL     OW 8288   2.997   4.427   4.441
 2757SOL    HW1 8289   3.054   4.505   4.416
 2757SOL    HW2 8290   2.937   4.453   4.517
 2758SOL     OW 8291   3.617   4.331   3.955
 2758SOL    HW1 8292   3.605   4.318   3.856
 2758SOL    HW2 8293   3.587   4.250   4.004
 2759SOL     OW 8294   2.547   4.736   4.389
 2759SOL    HW1 8295   2.616   4.720   4.459
 2759SOL    HW2 8296   2.474   4.793   4.427
 2760SOL     OW 8297   3.465   4.171   4.461
 2760SOL    HW1 8298   3.391   4.217   4.411
 2760SOL    HW2 8299   3.516   4.239   4.514
 2761SOL     OW 8300   2.102   4.815   4.610
 2761SOL    HW1 8301   2.116   4.731   4.662
 2761SOL    HW2 8302   2.047   4.879   4.665
 2762SOL     OW 8303   2.468   4.688   3.847
 2762SOL    HW1 8304   2.475   4.772   3.793
 2762SOL    HW2 8305   2.514   4.701   3.935
 2763SOL     OW 8306   1.984   4.367   4.287
 2763SOL    HW1 8307   1.939   4.279   4.304
 2763SOL    HW2 8308   1.983   4.421   4.371
 2764SOL     OW 8309   3.551   4.646   4.336
 2764SOL    HW1 8310   3.646   4.617   4.344
 2764SOL    HW2 8311   3.543   4.711   4.261
 2765SOL     OW 8312   2.671   3.728   4.226
 2765SOL    HW1 8313   2.711   3.819   4.217
 2765SOL    HW2 8314   2.571   3.736   4.232
 2766SOL     OW 8315   2.059   4.700   4.988
 2766SOL    HW1 8316   2.148   4.655   4.974
 2766SOL    HW2 8317   1.986   4.635   4.969
 2767SOL     OW 8318   3.387   4.723   3.914
 2767SOL    HW1 8319   3.324   4.647   3.927
 2767SOL    HW2 8320   3.435   4.741   4.000
 2768SOL     OW 8321   2.460   4.453   3.994
 2768SOL    HW1 8322   2.484   4.522   3.926
 2768SOL    HW2 8323   2.382   4.486   4.048
 2769SOL     OW 8324   3.143   4.069   4.668
 2769SOL    HW1 8325   3.057   4.019   4.655
 2769SOL    HW2 8326   3.205   4.015   4.724
 2770SOL     OW 8327   2.903   4.425   4.153
 2770SOL    HW1 8328   2.929   4.421   4.249
 2770SOL    HW2 8329   2.818   4.374   4.139
 2771SOL     OW 8330   1.938   4.535   4.513
 2771SOL    HW1 8331   2.037   4.523   4.522
 2771SOL    HW2 8332   1.914   4.630   4.534
 2772SOL     OW 8333   2.727   4.072   3.919
 2772SOL    HW1 8334   2.786   4.135   3.870
 2772SOL    HW2 8335   2.746   3.978   3.890
 2773SOL     OW 8336   2.412   3.920   4.609
 2773SOL    HW1 8337   2.407   3.915   4.709
 2773SOL    HW2 8338   2.414   4.016   4.580
 2774SOL     OW 8339   3.320   4.459   4.452
 2774SOL    HW1 8340   3.315   4.394   4.527
 2774SOL    HW2 8341   3.400   4.518   4.465
 2775SOL     OW 8342   3.262   3.831   4.150
 2775SOL    HW1 8343   3.238   3.794   4.060
 2775SOL    HW2 8344   3.361   3.847   4.154
 2776SOL     OW 8345   2.244   4.424   4.204
 2776SOL    HW1 8346   2.289   4.334   4.201
 2776SOL    HW2 8347   2.150   4.413   4.237
 2777SOL     OW 8348   2.476   3.846   3.841
 2777SOL    HW1 8349   2.574   3.824   3.848
 2777SOL    HW2 8350   2.445   3.829   3.748
 2778SOL     OW 8351   2.784   4.227   4.623
 2778SOL    HW1 8352   2.759   4.218   4.527
 2778SOL    HW2 8353   2.832   4.145   4.654
 2779SOL     OW 8354   2.401   3.788   4.236
 2779SOL    HW1 8355   2.320   3.789   4.294
 2779SOL    HW2 8356   2.404   3.871   4.181
 2780SOL     OW 8357   2.159   3.759   3.895
 2780SOL    HW1 8358   2.208   3.843   3.874
 2780SOL    HW2 8359   2.221   3.694   3.940
 2781SOL     OW 8360   2.797   3.960   4.204
 2781SOL    HW1 8361   2.749   4.001   4.126
 2781SOL    HW2 8362   2.896   3.958   4.185
 2782SOL     OW 8363   2.894   4.273   3.740
 2782SOL    HW1 8364   2.853   4.355   3.701
 2782SOL    HW2 8365   2.958   4.299   3.813
 2783SOL     OW 8366   2.728   4.178   4.366
 2783SOL    HW1 8367   2.696   4.250   4.304
 2783SOL    HW2 8368   2.752   4.097   4.313
 2784SOL     OW 8369   2.879   3.763   4.477
 2784SOL    HW1 8370   2.807   3.768   4.408
 2784SOL    HW2 8371   2.855   3.694   4.546
 2785SOL     OW 8372   3.291   4.897   4.591
 2785SOL    HW1 8373   3.236   4.813   4.584
 2785SOL    HW2 8374   3.317   4.926   4.499
 2786SOL     OW 8375   3.328   4.314   4.716
 2786SOL    HW1 8376   3.298   4.219   4.723
 2786SOL    HW2 8377   3.401   4.330   4.782
 2787SOL     OW 8378   3.719   4.557   4.101
 2787SOL    HW1 8379   3.761   4.493   4.165
 2787SOL    HW2 8380   3.681   4.506   4.023
 2788SOL     OW 8381   3.252   4.299   3.802
 2788SOL    HW1 8382   3.198   4.278   3.883
 2788SOL    HW2 8383   3.343   4.258   3.811
 2789SOL     OW 8384   2.389   3.980   4.052
 2789SOL    HW1 8385   2.416   3.921   3.977
 2789SOL    HW2 8386   2.389   4.075   4.021
 2790SOL     OW 8387   3.500   4.823   4.803
 2790SOL    HW1 8388   3.505   4.904   4.862
 2790SOL    HW2 8389   3.414   4.825   4.752
 2791SOL     OW 8390   2.428   4.261   4.589
 2791SOL    HW1 8391   2.440   4.327   4.515
 2791SOL    HW2 8392   2.474   4.295   4.672
 2792SOL     OW 8393   3.444   4.363   4.196
 2792SOL    HW1 8394   3.413   4.424   4.269
 2792SOL    HW2 8395   3.494   4.415   4.127
 2793SOL     OW 8396   2.435   4.594   4.753
 2793SOL    HW1 8397   2.479   4.683   4.744
 2793SOL    HW2 8398   2.372   4.594   4.830
 2794SOL     OW 8399   3.071   4.249   3.999
 2794SOL    HW1 8400   3.084   4.165   4.053
 2794SOL    HW2 8401   3.042   4.323   4.059
 2795SOL     OW 8402   2.169   3.937   4.955
 2795SOL    HW1 8403   2.146   3.974   5.045
 2795SOL    HW2 8404   2.139   3.842   4.949
 2796SOL     OW 8405   2.594   4.358   4.788
 2796SOL    HW1 8406   2.653   4.332   4.712
 2796SOL    HW2 8407   2.566   4.454   4.777
 2797SOL     OW 8408   2.169   3.787   4.342
 2797SOL    HW1 8409   2.158   3.881   4.375
 2797SOL    HW2 8410   2.164   3.724   4.419
 2798SOL     OW 8411   3.484   4.091   4.098
 2798SOL    HW1 8412   3.486   4.015   4.162
 2798SOL    HW2 8413   3.436   4.168   4.138
 2799SOL     OW 8414   3.402   3.998   3.849
 2799SOL    HW1 8415   3.341   3.923   3.872
 2799SOL    HW2 8416   3.424   4.050   3.932
 2800SOL     OW 8417   3.165   4.562   3.766
 2800SOL    HW1 8418   3.199   4.469   3.781
 2800SOL    HW2 8419   3.183   4.589   3.671
 2801SOL     OW 8420   2.181   4.534   4.673
 2801SOL    HW1 8421   2.274   4.570   4.678
 2801SOL    HW2 8422   2.175   4.449   4.725
 2802SOL     OW 8423   2.201   4.233   4.730
 2802SOL    HW1 8424   2.149   4.150   4.713
 2802SOL    HW2 8425   2.278   4.238   4.666
 2803SOL     OW 8426   2.864   4.520   4.962
 2803SOL    HW1 8427   2.905   4.488   5.048
 2803SOL    HW2 8428   2.768   4.493   4.959
 2804SOL     OW 8429   2.677   4.296   4.049
 2804SOL    HW1 8430   2.684   4.207   4.003
 2804SOL    HW2 8431   2.583   4.330   4.041
 2805SOL     OW 8432   2.533   4.188   4.993
 2805SOL    HW1 8433   2.499   4.099   4.963
 2805SOL    HW2 8434   2.559   4.242   4.913
 2806SOL     OW 8435   2.335   4.224   3.915
 2806SOL    HW1 8436   2.396   4.304   3.919
 2806SOL    HW2 8437   2.240   4.255   3.922
 2807SOL     OW 8438   3.164   4.579   4.033
 2807SOL    HW1 8439   3.078   4.548   4.075
 2807SOL    HW2 8440   3.160   4.565   3.934
 2808SOL     OW 8441   3.588   3.859   4.247
 2808SOL    HW1 8442   3.661   3.842   4.180
 2808SOL    HW2 8443   3.557   3.772   4.285
 2809SOL     OW 8444   3.142   4.651   4.396
 2809SOL    HW1 8445   3.202   4.570   4.398
 2809SOL    HW2 8446   3.182   4.720   4.336
 2810SOL     OW 8447   3.703   3.899   4.687
 2810SOL    HW1 8448   3.742   3.814   4.651
 2810SOL    HW2 8449   3.605   3.901   4.668
 2811SOL     OW 8450   2.125   4.050   4.444
 2811SOL    HW1 8451   2.046   4.101   4.410
 2811SOL    HW2 8452   2.116   4.035   4.542
 2812SOL     OW 8453   2.778   4.634   4.015
 2812SOL    HW1 8454   2.841   4.672   3.947
 2812SOL    HW2 8455   2.818   4.551   4.054
 2813SOL     OW 8456   1.937   4.069   3.757
 2813SOL    HW1 8457   1.845   4.041   3.728
 2813SOL    HW2 8458   1.968   4.146   3.701
 2814SOL     OW 8459   1.934   3.890   4.042
 2814SOL    HW1 8460   1.917   3.973   3.988
 2814SOL    HW2 8461   2.024   3.853   4.020
 2815SOL     OW 8462   3.045   5.059   3.843
 2815SOL    HW1 8463   2.946   5.048   3.845
 2815SOL    HW2 8464   3.079   5.074   3.936
 2816SOL     OW 8465   3.536   4.607   4.978
 2816SOL    HW1 8466   3.509   4.518   4.941
 2816SOL    HW2 8467   3.537   4.675   4.905
 2817SOL     OW 8468   3.087   4.049   4.173
 2817SOL    HW1 8469   3.152   3.975   4.162
 2817SOL    HW2 8470   3.107   4.099   4.257
 2818SOL     OW 8471   2.456   4.469   4.376
 2818SOL    HW1 8472   2.506   4.554   4.357
 2818SOL    HW2 8473   2.368   4.471   4.328
 2819SOL     OW 8474   2.721   4.680   4.585
 2819SOL    HW1 8475   2.775   4.611   4.633
 2819SOL    HW2 8476   2.689   4.749   4.651
 2820SOL     OW 8477   2.945   4.708   3.811
 2820SOL    HW1 8478   2.922   4.761   3.729
 2820SOL    HW2 8479   3.026   4.652   3.792
 2821SOL     OW 8480   1.941   4.964   4.377
 2821SOL    HW1 8481   1.940   4.917   4.465
 2821SOL    HW2 8482   2.023   4.936   4.326
 2822SOL     OW 8483   3.686   3.916   4.951
 2822SOL    HW1 8484   3.682   3.826   4.995
 2822SOL    HW2 8485   3.689   3.905   4.852
 2823SOL     OW 8486   2.290   4.148   4.244
 2823SOL    HW1 8487   2.320   4.076   4.182
 2823SOL    HW2 8488   2.251   4.108   4.327
 2824SOL     OW 8489   3.214   3.776   3.892
 2824SOL    HW1 8490   3.249   3.735   3.808
 2824SOL    HW2 8491   3.124   3.738   3.912
 2825SOL     OW 8492   3.162   4.177   4.415
 2825SOL    HW1 8493   3.103   4.257   4.419
 2825SOL    HW2 8494   3.177   4.142   4.508
 2826SOL     OW 8495   3.455   3.945   4.606
 2826SOL    HW1 8496   3.371   3.944   4.660
 2826SOL    HW2 8497   3.457   4.028   4.550
 2827SOL     OW 8498   1.901   4.801   4.024
 2827SOL    HW1 8499   2.000   4.790   4.015
 2827SOL    HW2 8500   1.861   4.715   4.056
 2828SOL     OW 8501   3.954   0.628   0.113
 2828SOL    HW1 8502   3.861   0.626   0.150
 2828SOL    HW2 8503   3.955   0.589   0.021
 2829SOL     OW 8504   3.949   0.275   0.996
 2829SOL    HW1 8505   3.984   0.258   1.088
 2829SOL    HW2 8506   3.861   0.230   0.984
 2830SOL     OW 8507   3.743   0.368   0.647
 2830SOL    HW1 8508   3.661   0.411   0.686
 2830SOL    HW2 8509   3.715   0.295   0.584
 2831SOL     OW 8510   4.293   1.275   1.165
 2831SOL    HW1 8511   4.200   1.268   1.128
 2831SOL    HW2 8512   4.304   1.364   1.209
 2832SOL     OW 8513   4.492   1.144   1.023
 2832SOL    HW1 8514   4.414   1.161   1.083
 2832SOL    HW2 8515   4.526   1.231   0.987
 2833SOL     OW 8516   4.574   0.798   1.823
 2833SOL    HW1 8517   4.570   0.874   1.888
 2833SOL    HW2 8518   4.596   0.834   1.732
 2834SOL     OW 8519   4.409   1.012   0.665
 2834SOL    HW1 8520   4.478   0.996   0.735
 2834SOL    HW2 8521   4.336   1.069   0.703
 2835SOL     OW 8522   4.410   1.161   1.803
 2835SOL    HW1 8523   4.470   1.240   1.817
 2835SOL    HW2 8524   4.324   1.192   1.762
 2836SOL     OW 8525   4.059   1.435   1.061
 2836SOL    HW1 8526   3.981   1.404   1.008
 2836SOL    HW2 8527   4.117   1.493   1.004
 2837SOL     OW 8528   4.162   0.392   1.499
 2837SOL    HW1 8529   4.244   0.336   1.508
 2837SOL    HW2 8530   4.081   0.334   1.503
 2838SOL     OW 8531   3.955   1.713   0.483
 2838SOL    HW1 8532   3.989   1.790   0.537
 2838SOL    HW2 8533   3.999   1.713   0.393
 2839SOL     OW 8534   3.954   1.434   0.538
 2839SOL    HW1 8535   3.928   1.530   0.538
 2839SOL    HW2 8536   3.883   1.380   0.583
 2840SOL     OW 8537   3.964   1.091   0.886
 2840SOL    HW1 8538   3.978   1.007   0.938
 2840SOL    HW2 8539   3.909   1.155   0.941
 2841SOL     OW 8540   4.344   1.786   1.439
 2841SOL    HW1 8541   4.252   1.769   1.474
 2841SOL    HW2 8542   4.372   1.878   1.465
 2842SOL     OW 8543   4.330   0.964   0.123
 2842SOL    HW1 8544   4.337   1.048   0.069
 2842SOL    HW2 8545   4.376   0.977   0.211
 2843SOL     OW 8546   3.846   0.643   0.563
 2843SOL    HW1 8547   3.801   0.555   0.580
 2843SOL    HW2 8548   3.845   0.697   0.647
 2844SOL     OW 8549   3.751   1.596   0.117
 2844SOL    HW1 8550   3.732   1.500   0.138
 2844SOL    HW2 8551   3.718   1.654   0.192
 2845SOL     OW 8552   3.837   0.737   1.597
 2845SOL    HW1 8553   3.925   0.724   1.642
 2845SOL    HW2 8554   3.824   0.834   1.575
 2846SOL     OW 8555   4.337   1.365   0.726
 2846SOL    HW1 8556   4.288   1.278   0.735
 2846SOL    HW2 8557   4.314   1.408   0.639
 2847SOL     OW 8558   4.533   0.004   0.502
 2847SOL    HW1 8559   4.573   0.095   0.493
 2847SOL    HW2 8560   4.433   0.012   0.508
 2848SOL     OW 8561   3.921   0.976   1.264
 2848SOL    HW1 8562   4.010   0.931   1.250
 2848SOL    HW2 8563   3.848   0.911   1.245
 2849SOL     OW 8564   4.041   0.251   1.801
 2849SOL    HW1 8565   4.112   0.322   1.807
 2849SOL    HW2 8566   3.953   0.290   1.829
 2850SOL     OW 8567   4.322   0.729   0.270
 2850SOL    HW1 8568   4.346   0.798   0.202
 2850SOL    HW2 8569   4.244   0.762   0.324
 2851SOL     OW 8570   4.531   0.605   1.465
 2851SOL    HW1 8571   4.484   0.602   1.554
 2851SOL    HW2 8572   4.480   0.550   1.399
 2852SOL     OW 8573   4.697   0.890   1.572
 2852SOL    HW1 8574   4.743   0.806   1.543
 2852SOL    HW2 8575   4.641   0.924   1.497
 2853SOL     OW 8576   4.715   0.410   1.242
 2853SOL    HW1 8577   4.638   0.444   1.296
 2853SOL    HW2 8578   4.681   0.359   1.163
 2854SOL     OW 8579   4.765   0.701   0.429
 2854SOL    HW1 8580   4.791   0.697   0.525
 2854SOL    HW2 8581   4.680   0.650   0.415
 2855SOL     OW 8582   3.800   0.811   0.789
 2855SOL    HW1 8583   3.899   0.799   0.798
 2855SOL    HW2 8584   3.776   0.906   0.810
 2856SOL     OW 8585   3.854   1.821   1.571
 2856SOL    HW1 8586   3.844   1.806   1.670
 2856SOL    HW2 8587   3.768   1.857   1.535
 2857SOL     OW 8588   4.589   0.348   0.195
 2857SOL    HW1 8589   4.648   0.411   0.146
 2857SOL    HW2 8590   4.608   0.254   0.166
 2858SOL     OW 8591   4.274   0.196   0.885
 2858SOL    HW1 8592   4.269   0.191   0.985
 2858SOL    HW2 8593   4.276   0.292   0.856
 2859SOL     OW 8594   4.732   1.456   0.477
 2859SOL    HW1 8595   4.686   1.528   0.425
 2859SOL    HW2 8596   4.728   1.476   0.575
 2860SOL     OW 8597   4.075   1.801   0.853
 2860SOL    HW1 8598   4.125   1.715   0.859
 2860SOL    HW2 8599   4.140   1.878   0.850
 2861SOL     OW 8600   4.045   0.943   0.242
 2861SOL    HW1 8601   4.127   0.982   0.200
 2861SOL    HW2 8602   4.018   0.861   0.193
 2862SOL     OW 8603   4.185   1.266   1.727
 2862SOL    HW1 8604   4.135   1.267   1.641
 2862SOL    HW2 8605   4.122   1.248   1.803
 2863SOL     OW 8606   3.926   0.285   1.498
 2863SOL    HW1 8607   3.846   0.345   1.485
 2863SOL    HW2 8608   3.916   0.236   1.584
 2864SOL     OW 8609   4.188   1.743   0.323
 2864SOL    HW1 8610   4.221   1.782   0.409
 2864SOL    HW2 8611   4.264   1.736   0.258
 2865SOL     OW 8612   3.973   1.785   1.241
 2865SOL    HW1 8613   4.030   1.720   1.291
 2865SOL    HW2 8614   3.957   1.752   1.148
 2866SOL     OW 8615   4.664   1.698   0.904
 2866SOL    HW1 8616   4.744   1.641   0.925
 2866SOL    HW2 8617   4.615   1.658   0.827
 2867SOL     OW 8618   4.106   0.700   0.480
 2867SOL    HW1 8619   4.151   0.610   0.477
 2867SOL    HW2 8620   4.012   0.689   0.513
 2868SOL     OW 8621   4.338   0.122   0.117
 2868SOL    HW1 8622   4.436   0.100   0.124
 2868SOL    HW2 8623   4.307   0.105   0.024
 2869SOL     OW 8624   4.505   0.264   1.749
 2869SOL    HW1 8625   4.572   0.203   1.792
 2869SOL    HW2 8626   4.432   0.283   1.814
 2870SOL     OW 8627   4.612   1.514   1.195
 2870SOL    HW1 8628   4.589   1.489   1.101
 2870SOL    HW2 8629   4.673   1.445   1.234
 2871SOL     OW 8630   4.527   1.402   0.924
 2871SOL    HW1 8631   4.617   1.416   0.882
 2871SOL    HW2 8632   4.456   1.404   0.853
 2872SOL     OW 8633   4.646   0.503   0.899
 2872SOL    HW1 8634   4.621   0.494   0.803
 2872SOL    HW2 8635   4.694   0.421   0.930
 2873SOL     OW 8636   4.263   0.064   0.512
 2873SOL    HW1 8637   4.182   0.065   0.570
 2873SOL    HW2 8638   4.266   0.147   0.457
 2874SOL     OW 8639   5.158   1.188   0.041
 2874SOL    HW1 8640   5.190   1.112   0.098
 2874SOL    HW2 8641   5.066   1.215   0.071
 2875SOL     OW 8642   4.021   0.035   0.171
 2875SOL    HW1 8643   4.070   0.119   0.150
 2875SOL    HW2 8644   4.083  -0.030   0.216
 2876SOL     OW 8645   4.659   0.236   0.480
 2876SOL    HW1 8646   4.611   0.277   0.402
 2876SOL    HW2 8647   4.758   0.234   0.461
 2877SOL     OW 8648   4.951   1.570   0.793
 2877SOL    HW1 8649   4.972   1.644   0.728
 2877SOL    HW2 8650   5.019   1.570   0.866
 2878SOL     OW 8651   4.183   1.152   0.741
 2878SOL    HW1 8652   4.112   1.125   0.806
 2878SOL    HW2 8653   4.157   1.124   0.648
 2879SOL     OW 8654   4.756   0.549   0.016
 2879SOL    HW1 8655   4.715   0.631  -0.023
 2879SOL    HW2 8656   4.820   0.575   0.089
 2880SOL     OW 8657   3.802   0.556   1.386
 2880SOL    HW1 8658   3.894   0.555   1.345
 2880SOL    HW2 8659   3.796   0.630   1.453
 2881SOL     OW 8660   4.285   0.222   1.147
 2881SOL    HW1 8661   4.323   0.138   1.184
 2881SOL    HW2 8662   4.197   0.241   1.191
 2882SOL     OW 8663   4.590   0.454   0.642
 2882SOL    HW1 8664   4.558   0.526   0.580
 2882SOL    HW2 8665   4.614   0.373   0.589
 2883SOL     OW 8666   4.741   0.039   0.753
 2883SOL    HW1 8667   4.669   0.044   0.684
 2883SOL    HW2 8668   4.717  -0.030   0.822
 2884SOL     OW 8669   4.212   1.385   0.174
 2884SOL    HW1 8670   4.125   1.370   0.221
 2884SOL    HW2 8671   4.195   1.411   0.079
 2885SOL     OW 8672   4.251   0.256   0.328
 2885SOL    HW1 8673   4.278   0.197   0.253
 2885SOL    HW2 8674   4.251   0.351   0.297
 2886SOL     OW 8675   4.639   0.089   1.402
 2886SOL    HW1 8676   4.664   0.069   1.307
 2886SOL    HW2 8677   4.711   0.145   1.444
 2887SOL     OW 8678   4.704   1.116   1.719
 2887SOL    HW1 8679   4.605   1.122   1.729
 2887SOL    HW2 8680   4.727   1.036   1.663
 2888SOL     OW 8681   4.429   1.050   0.368
 2888SOL    HW1 8682   4.415   1.057   0.467
 2888SOL    HW2 8683   4.513   0.999   0.350
 2889SOL     OW 8684   4.134   0.813   1.251
 2889SOL    HW1 8685   4.220   0.825   1.301
 2889SOL    HW2 8686   4.092   0.726   1.278
 2890SOL     OW 8687   3.788   1.564   1.331
 2890SOL    HW1 8688   3.742   1.646   1.297
 2890SOL    HW2 8689   3.886   1.583   1.340
 2891SOL     OW 8690   4.091   1.100   0.501
 2891SOL    HW1 8691   4.084   1.183   0.445
 2891SOL    HW2 8692   4.095   1.020   0.441
 2892SOL     OW 8693   4.290   0.537   0.865
 2892SOL    HW1 8694   4.302   0.603   0.791
 2892SOL    HW2 8695   4.336   0.571   0.948
 2893SOL     OW 8696   4.078   1.510   1.329
 2893SOL    HW1 8697   4.057   1.466   1.242
 2893SOL    HW2 8698   4.175   1.536   1.332
 2894SOL     OW 8699   4.126   0.751   1.598
 2894SOL    HW1 8700   4.194   0.806   1.551
 2894SOL    HW2 8701   4.166   0.663   1.625
 2895SOL     OW 8702   4.737   0.105   1.770
 2895SOL    HW1 8703   4.743   0.190   1.718
 2895SOL    HW2 8704   4.769   0.029   1.713
 2896SOL     OW 8705   4.228   0.050   1.740
 2896SOL    HW1 8706   4.186  -0.007   1.670
 2896SOL    HW2 8707   4.162   0.119   1.772
 2897SOL     OW 8708   4.297   0.870   1.029
 2897SOL    HW1 8709   4.341   0.959   1.020
 2897SOL    HW2 8710   4.234   0.870   1.106
 2898SOL     OW 8711   4.933   0.525   0.275
 2898SOL    HW1 8712   4.946   0.441   0.329
 2898SOL    HW2 8713   4.904   0.599   0.335
 2899SOL     OW 8714   4.031   0.213   1.231
 2899SOL    HW1 8715   4.008   0.250   1.321
 2899SOL    HW2 8716   4.001   0.118   1.225
 2900SOL     OW 8717   3.761   1.310   1.282
 2900SOL    HW1 8718   3.814   1.261   1.350
 2900SOL    HW2 8719   3.783   1.408   1.287
 2901SOL     OW 8720   4.456   0.634   1.064
 2901SOL    HW1 8721   4.515   0.608   0.988
 2901SOL    HW2 8722   4.428   0.730   1.053
 2902SOL     OW 8723   4.031   0.063   0.618
 2902SOL    HW1 8724   4.020   0.157   0.651
 2902SOL    HW2 8725   4.026   0.000   0.695
 2903SOL     OW 8726   4.747   0.766   0.966
 2903SOL    HW1 8727   4.762   0.787   1.062
 2903SOL    HW2 8728   4.717   0.671   0.957
 2904SOL     OW 8729   4.704   1.573   1.700
 2904SOL    HW1 8730   4.684   1.617   1.612
 2904SOL    HW2 8731   4.743   1.482   1.684
 2905SOL     OW 8732   4.074   0.898   1.804
 2905SOL    HW1 8733   4.150   0.942   1.852
 2905SOL    HW2 8734   4.109   0.851   1.722
 2906SOL     OW 8735   4.043   0.810   0.949
 2906SOL    HW1 8736   4.136   0.846   0.954
 2906SOL    HW2 8737   4.037   0.725   1.001
 2907SOL     OW 8738   4.063   0.509   1.006
 2907SOL    HW1 8739   4.011   0.426   0.989
 2907SOL    HW2 8740   4.140   0.514   0.942
 2908SOL     OW 8741   3.732   1.326   0.200
 2908SOL    HW1 8742   3.639   1.347   0.169
 2908SOL    HW2 8743   3.742   1.227   0.213
 2909SOL     OW 8744   3.812   1.801   0.927
 2909SOL    HW1 8745   3.770   1.715   0.900
 2909SOL    HW2 8746   3.906   1.804   0.893
 2910SOL     OW 8747   4.228   1.568   0.910
 2910SOL    HW1 8748   4.294   1.642   0.919
 2910SOL    HW2 8749   4.272   1.489   0.868
 2911SOL     OW 8750   4.726   0.796   1.238
 2911SOL    HW1 8751   4.767   0.764   1.324
 2911SOL    HW2 8752   4.630   0.769   1.235
 2912SOL     OW 8753   3.764   0.544   1.114
 2912SOL    HW1 8754   3.849   0.511   1.073
 2912SOL    HW2 8755   3.777   0.559   1.212
 2913SOL     OW 8756   3.913   0.520   1.722
 2913SOL    HW1 8757   3.972   0.480   1.652
 2913SOL    HW2 8758   3.855   0.591   1.681
 2914SOL     OW 8759   4.539   0.572   0.325
 2914SOL    HW1 8760   4.546   0.483   0.279
 2914SOL    HW2 8761   4.445   0.606   0.317
 2915SOL     OW 8762   3.976   1.564   1.744
 2915SOL    HW1 8763   3.946   1.621   1.820
 2915SOL    HW2 8764   3.969   1.467   1.770
 2916SOL     OW 8765   4.395   0.464   1.269
 2916SOL    HW1 8766   4.361   0.375   1.239
 2916SOL    HW2 8767   4.421   0.518   1.189
 2917SOL     OW 8768   4.654   1.678   1.465
 2917SOL    HW1 8769   4.630   1.660   1.370
 2917SOL    HW2 8770   4.684   1.772   1.475
 2918SOL     OW 8771   4.197   0.500   0.191
 2918SOL    HW1 8772   4.258   0.580   0.195
 2918SOL    HW2 8773   4.102   0.531   0.198
 2919SOL     OW 8774   3.883   1.137   1.466
 2919SOL    HW1 8775   3.905   1.076   1.542
 2919SOL    HW2 8776   3.893   1.088   1.380
 2920SOL     OW 8777   3.807   1.258   1.022
 2920SOL    HW1 8778   3.802   1.257   1.122
 2920SOL    HW2 8779   3.724   1.217   0.984
 2921SOL     OW 8780   4.412   1.662   1.716
 2921SOL    HW1 8781   4.356   1.743   1.725
 2921SOL    HW2 8782   4.464   1.666   1.630
 2922SOL     OW 8783   4.627   0.086   0.133
 2922SOL    HW1 8784   4.678   0.087   0.047
 2922SOL    HW2 8785   4.683   0.044   0.204
 2923SOL     OW 8786   3.854   1.794   1.851
 2923SOL    HW1 8787   3.813   1.720   1.904
 2923SOL    HW2 8788   3.918   1.845   1.909
 2924SOL     OW 8789   5.004   0.927   0.672
 2924SOL    HW1 8790   5.064   0.846   0.674
 2924SOL    HW2 8791   5.044   0.996   0.612
 2925SOL     OW 8792   4.554   1.273   1.422
 2925SOL    HW1 8793   4.549   1.306   1.517
 2925SOL    HW2 8794   4.468   1.292   1.376
 2926SOL     OW 8795   4.396   1.616   0.154
 2926SOL    HW1 8796   4.405   1.626   0.055
 2926SOL    HW2 8797   4.356   1.527   0.175
 2927SOL     OW 8798   3.987   0.326   0.720
 2927SOL    HW1 8799   3.908   0.377   0.686
 2927SOL    HW2 8800   3.978   0.311   0.818
 2928SOL     OW 8801   4.546   1.002   1.372
 2928SOL    HW1 8802   4.586   1.001   1.280
 2928SOL    HW2 8803   4.556   1.094   1.412
 2929SOL     OW 8804   4.640   0.910   0.291
 2929SOL    HW1 8805   4.703   0.948   0.223
 2929SOL    HW2 8806   4.680   0.827   0.330
 2930SOL     OW 8807   4.096   1.288   1.490
 2930SOL    HW1 8808   4.083   1.381   1.456
 2930SOL    HW2 8809   4.012   1.236   1.477
 2931SOL     OW 8810   4.763   1.098   0.696
 2931SOL    HW1 8811   4.693   1.051   0.750
 2931SOL    HW2 8812   4.822   1.030   0.653
 2932SOL     OW 8813   4.738   0.236   0.971
 2932SOL    HW1 8814   4.730   0.200   0.878
 2932SOL    HW2 8815   4.736   0.160   1.036
 2933SOL     OW 8816   4.314   1.487   0.491
 2933SOL    HW1 8817   4.356   1.429   0.421
 2933SOL    HW2 8818   4.270   1.566   0.447
 2934SOL     OW 8819   3.979   1.348   0.290
 2934SOL    HW1 8820   3.883   1.349   0.263
 2934SOL    HW2 8821   3.991   1.401   0.374
 2935SOL     OW 8822   3.829   1.013   1.726
 2935SOL    HW1 8823   3.752   0.980   1.780
 2935SOL    HW2 8824   3.914   0.983   1.768
 2936SOL     OW 8825   4.396   0.203   1.489
 2936SOL    HW1 8826   4.486   0.187   1.449
 2936SOL    HW2 8827   4.404   0.208   1.588
 2937SOL     OW 8828   3.799   0.345   0.033
 2937SOL    HW1 8829   3.707   0.317   0.004
 2937SOL    HW2 8830   3.830   0.422  -0.023
 2938SOL     OW 8831   3.796   0.166   0.318
 2938SOL    HW1 8832   3.779   0.249   0.264
 2938SOL    HW2 8833   3.886   0.129   0.296
 2939SOL     OW 8834   4.337   0.842   1.431
 2939SOL    HW1 8835   4.393   0.923   1.414
 2939SOL    HW2 8836   4.396   0.762   1.434
 2940SOL     OW 8837   4.440   0.565   1.708
 2940SOL    HW1 8838   4.459   0.630   1.782
 2940SOL    HW2 8839   4.500   0.485   1.717
 2941SOL     OW 8840   4.114   1.741   1.560
 2941SOL    HW1 8841   4.023   1.782   1.558
 2941SOL    HW2 8842   4.107   1.647   1.592
 2942SOL     OW 8843   4.949   0.325   0.449
 2942SOL    HW1 8844   5.014   0.251   0.438
 2942SOL    HW2 8845   4.969   0.375   0.533
 2943SOL     OW 8846   4.318   0.745   0.652
 2943SOL    HW1 8847   4.368   0.830   0.633
 2943SOL    HW2 8848   4.230   0.747   0.604
 2944SOL     OW 8849   4.583   1.374   0.016
 2944SOL    HW1 8850   4.537   1.389   0.104
 2944SOL    HW2 8851   4.627   1.459  -0.014
 2945SOL     OW 8852   4.385   1.790   0.953
 2945SOL    HW1 8853   4.339   1.878   0.940
 2945SOL    HW2 8854   4.484   1.802   0.946
 2946SOL     OW 8855   4.583   0.956   0.861
 2946SOL    HW1 8856   4.637   0.887   0.909
 2946SOL    HW2 8857   4.551   1.025   0.927
 2947SOL     OW 8858   4.807   0.984   0.087
 2947SOL    HW1 8859   4.784   1.037   0.005
 2947SOL    HW2 8860   4.888   0.928   0.068
 2948SOL     OW 8861   3.945   1.314   1.844
 2948SOL    HW1 8862   3.880   1.241   1.823
 2948SOL    HW2 8863   3.949   1.328   1.942
 2949SOL     OW 8864   3.803   1.240   0.653
 2949SOL    HW1 8865   3.802   1.193   0.741
 2949SOL    HW2 8866   3.885   1.212   0.602
 2950SOL     OW 8867   4.396   1.391   1.624
 2950SOL    HW1 8868   4.318   1.341   1.662
 2950SOL    HW2 8869   4.393   1.486   1.655
 2951SOL     OW 8870   4.152   0.424   0.520
 2951SOL    HW1 8871   4.182   0.352   0.458
 2951SOL    HW2 8872   4.113   0.384   0.603
 2952SOL     OW 8873   4.041   0.547   1.280
 2952SOL    HW1 8874   4.079   0.488   1.352
 2952SOL    HW2 8875   4.081   0.521   1.192
 2953SOL     OW 8876   4.536   1.586   0.687
 2953SOL    HW1 8877   4.568   1.596   0.593
 2953SOL    HW2 8878   4.457   1.524   0.689
 2954SOL     OW 8879   4.725   0.034   1.154
 2954SOL    HW1 8880   4.662  -0.038   1.123
 2954SOL    HW2 8881   4.818  -0.002   1.154
 2955SOL     OW 8882   4.494   1.330   0.301
 2955SOL    HW1 8883   4.448   1.243   0.318
 2955SOL    HW2 8884   4.585   1.327   0.342
 2956SOL     OW 8885   4.342   1.567   1.284
 2956SOL    HW1 8886   4.337   1.649   1.341
 2956SOL    HW2 8887   4.431   1.564   1.239
 2957SOL     OW 8888   3.763   1.077   0.300
 2957SOL    HW1 8889   3.862   1.066   0.291
 2957SOL    HW2 8890   3.723   0.991   0.332
 2958SOL     OW 8891   4.599   1.646   0.337
 2958SOL    HW1 8892   4.522   1.611   0.283
 2958SOL    HW2 8893   4.567   1.717   0.399
 2959SOL     OW 8894   3.954   0.628   1.975
 2959SOL    HW1 8895   3.861   0.626   2.012
 2959SOL    HW2 8896   3.955   0.589   1.883
 2960SOL     OW 8897   3.949   0.275   2.858
 2960SOL    HW1 8898   3.984   0.258   2.950
 2960SOL    HW2 8899   3.861   0.230   2.846
 2961SOL     OW 8900   3.743   0.368   2.509
 2961SOL    HW1 8901   3.661   0.411   2.548
 2961SOL    HW2 8902   3.715   0.295   2.446
 2962SOL     OW 8903   4.293   1.275   3.027
 2962SOL    HW1 8904   4.200   1.268   2.990
 2962SOL    HW2 8905   4.304   1.364   3.071
 2963SOL     OW 8906   4.492   1.144   2.885
 2963SOL    HW1 8907   4.414   1.161   2.945
 2963SOL    HW2 8908   4.526   1.231   2.849
 2964SOL     OW 8909   4.574   0.798   3.685
 2964SOL    HW1 8910   4.570   0.874   3.750
 2964SOL    HW2 8911   4.596   0.834   3.594
 2965SOL     OW 8912   4.409   1.012   2.527
 2965SOL    HW1 8913   4.478   0.996   2.597
 2965SOL    HW2 8914   4.336   1.069   2.565
 2966SOL     OW 8915   4.410   1.161   3.665
 2966SOL    HW1 8916   4.470   1.240   3.679
 2966SOL    HW2 8917   4.324   1.192   3.624
 2967SOL     OW 8918   4.059   1.435   2.923
 2967SOL    HW1 8919   3.981   1.404   2.870
 2967SOL    HW2 8920   4.117   1.493   2.866
 2968SOL     OW 8921   4.162   0.392   3.361
 2968SOL    HW1 8922   4.244   0.336   3.370
 2968SOL    HW2 8923   4.081   0.334   3.365
 2969SOL     OW 8924   3.955   1.713   2.345
 2969SOL    HW1 8925   3.989   1.790   2.399
 2969SOL    HW2 8926   3.999   1.713   2.255
 2970SOL     OW 8927   3.954   1.434   2.400
 2970SOL    HW1 8928   3.928   1.530   2.400
 2970SOL    HW2 8929   3.883   1.380   2.445
 2971SOL     OW 8930   3.964   1.091   2.748
 2971SOL    HW1 8931   3.978   1.007   2.800
 2971SOL    HW2 8932   3.909   1.155   2.803
 2972SOL     OW 8933   4.344   1.786   3.301
 2972SOL    HW1 8934   4.252   1.769   3.336
 2972SOL    HW2 8935   4.372   1.878   3.327
 2973SOL     OW 8936   4.330   0.964   1.985
 2973SOL    HW1 8937   4.337   1.048   1.931
 2973SOL    HW2 8938   4.376   0.977   2.073
 2974SOL     OW 8939   3.846   0.643   2.425
 2974SOL    HW1 8940   3.801   0.555   2.442
 2974SOL    HW2 8941   3.845   0.697   2.509
 2975SOL     OW 8942   3.751   1.596   1.979
 2975SOL    HW1 8943   3.732   1.500   2.000
 2975SOL    HW2 8944   3.718   1.654   2.054
 2976SOL     OW 8945   3.837   0.737   3.459
 2976SOL    HW1 8946   3.925   0.724   3.504
 2976SOL    HW2 8947   3.824   0.834   3.437
 2977SOL     OW 8948   4.337   1.365   2.588
 2977SOL    HW1 8949   4.288   1.278   2.597
 2977SOL    HW2 8950   4.314   1.408   2.501
 2978SOL     OW 8951   4.533   0.004   2.364
 2978SOL    HW1 8952   4.573   0.095   2.355
 2978SOL    HW2 8953   4.433   0.012   2.370
 2979SOL     OW 8954   3.921   0.976   3.126
 2979SOL    HW1 8955   4.010   0.931   3.112
 2979SOL    HW2 8956   3.848   0.911   3.107
 2980SOL     OW 8957   4.041   0.251   3.663
 2980SOL    HW1 8958   4.112   0.322   3.669
 2980SOL    HW2 8959   3.953   0.290   3.691
 2981SOL     OW 8960   4.322   0.729   2.132
 2981SOL    HW1 8961   4.346   0.798   2.064
 2981SOL    HW2 8962   4.244   0.762   2.186
 2982SOL     OW 8963   4.531   0.605   3.327
 2982SOL    HW1 8964   4.484   0.602   3.416
 2982SOL    HW2 8965   4.480   0.550   3.261
 2983SOL     OW 8966   4.697   0.890   3.434
 2983SOL    HW1 8967   4.743   0.806   3.405
 2983SOL    HW2 8968   4.641   0.924   3.359
 2984SOL     OW 8969   4.715   0.410   3.104
 2984SOL    HW1 8970   4.638   0.444   3.158
 2984SOL    HW2 8971   4.681   0.359   3.025
 2985SOL     OW 8972   4.765   0.701   2.291
 2985SOL    HW1 8973   4.791   0.697   2.387
 2985SOL    HW2 8974   4.680   0.650   2.277
 2986SOL     OW 8975   3.800   0.811   2.651
 2986SOL    HW1 8976   3.899   0.799   2.660
 2986SOL    HW2 8977   3.776   0.906   2.672
 2987SOL     OW 8978   3.854   1.821   3.433
 2987SOL    HW1 8979   3.844   1.806   3.532
 2987SOL    HW2 8980   3.768   1.857   3.397
 2988SOL     OW 8981   4.589   0.348   2.057
 2988SOL    HW1 8982   4.648   0.411   2.008
 2988SOL    HW2 8983   4.608   0.254   2.028
 2989SOL     OW 8984   4.274   0.196   2.747
 2989SOL    HW1 8985   4.269   0.191   2.847
 2989SOL    HW2 8986   4.276   0.292   2.718
 2990SOL     OW 8987   4.732   1.456   2.339
 2990SOL    HW1 8988   4.686   1.528   2.287
 2990SOL    HW2 8989   4.728   1.476   2.437
 2991SOL     OW 8990   4.075   1.801   2.715
 2991SOL    HW1 8991   4.125   1.715   2.721
 2991SOL    HW2 8992   4.140   1.878   2.712
 2992SOL     OW 8993   4.045   0.943   2.104
 2992SOL    HW1 8994   4.127   0.982   2.062
 2992SOL    HW2 8995   4.018   0.861   2.055
 2993SOL     OW 8996   4.185   1.266   3.589
 2993SOL    HW1 8997   4.135   1.267   3.503
 2993SOL    HW2 8998   4.122   1.248   3.665
 2994SOL     OW 8999   3.926   0.285   3.360
 2994SOL    HW1 9000   3.846   0.345   3.347
 2994SOL    HW2 9001   3.916   0.236   3.446
 2995SOL     OW 9002   4.188   1.743   2.185
 2995SOL    HW1 9003   4.221   1.782   2.271
 2995SOL    HW2 9004   4.264   1.736   2.120
 2996SOL     OW 9005   3.973   1.785   3.103
 2996SOL    HW1 9006   4.030   1.720   3.153
 2996SOL    HW2 9007   3.957   1.752   3.010
 2997SOL     OW 9008   4.664   1.698   2.766
 2997SOL    HW1 9009   4.744   1.641   2.787
 2997SOL    HW2 9010   4.615   1.658   2.689
 2998SOL     OW 9011   4.106   0.700   2.342
 2998SOL    HW1 9012   4.151   0.610   2.339
 2998SOL    HW2 9013   4.012   0.689   2.375
 2999SOL     OW 9014   4.338   0.122   1.979
 2999SOL    HW1 9015   4.436   0.100   1.986
 2999SOL    HW2 9016   4.307   0.105   1.886
 3000SOL     OW 9017   4.505   0.264   3.611
 3000SOL    HW1 9018   4.572   0.203   3.654
 3000SOL    HW2 9019   4.432   0.283   3.676
 3001SOL     OW 9020   4.612   1.514   3.057
 3001SOL    HW1 9021   4.589   1.489   2.963
 3001SOL    HW2 9022   4.673   1.445   3.096
 3002SOL     OW 9023   4.527   1.402   2.786
 3002SOL    HW1 9024   4.617   1.416   2.744
 3002SOL    HW2 9025   4.456   1.404   2.715
 3003SOL     OW 9026   4.646   0.503   2.761
 3003SOL    HW1 9027   4.621   0.494   2.665
 3003SOL    HW2 9028   4.694   0.421   2.792
 3004SOL     OW 9029   4.263   0.064   2.374
 3004SOL    HW1 9030   4.182   0.065   2.432
 3004SOL    HW2 9031   4.266   0.147   2.319
 3005SOL     OW 9032   4.021   0.035   2.033
 3005SOL    HW1 9033   4.070   0.119   2.012
 3005SOL    HW2 9034   4.083  -0.030   2.078
 3006SOL     OW 9035   4.659   0.236   2.342
 3006SOL    HW1 9036   4.611   0.277   2.264
 3006SOL    HW2 9037   4.758   0.234   2.323
 3007SOL     OW 9038   4.951   1.570   2.655
 3007SOL    HW1 9039   4.972   1.644   2.590
 3007SOL    HW2 9040   5.019   1.570   2.728
 3008SOL     OW 9041   4.183   1.152   2.603
 3008SOL    HW1 9042   4.112   1.125   2.668
 3008SOL    HW2 9043   4.157   1.124   2.510
 3009SOL     OW 9044   4.756   0.549   1.878
 3009SOL    HW1 9045   4.715   0.631   1.839
 3009SOL    HW2 9046   4.820   0.575   1.951
 3010SOL     OW 9047   3.802   0.556   3.248
 3010SOL    HW1 9048   3.894   0.555   3.207
 3010SOL    HW2 9049   3.796   0.630   3.315
 3011SOL     OW 9050   4.285   0.222   3.009
 3011SOL    HW1 9051   4.323   0.138   3.046
 3011SOL    HW2 9052   4.197   0.241   3.053
 3012SOL     OW 9053   4.590   0.454   2.504
 3012SOL    HW1 9054   4.558   0.526   2.442
 3012SOL    HW2 9055   4.614   0.373   2.451
 3013SOL     OW 9056   4.741   0.039   2.615
 3013SOL    HW1 9057   4.669   0.044   2.546
 3013SOL    HW2 9058   4.717  -0.030   2.684
 3014SOL     OW 9059   4.212   1.385   2.036
 3014SOL    HW1 9060   4.125   1.370   2.083
 3014SOL    HW2 9061   4.195   1.411   1.941
 3015SOL     OW 9062   4.251   0.256   2.190
 3015SOL    HW1 9063   4.278   0.197   2.115
 3015SOL    HW2 9064   4.251   0.351   2.159
 3016SOL     OW 9065   4.639   0.089   3.264
 3016SOL    HW1 9066   4.664   0.069   3.169
 3016SOL    HW2 9067   4.711   0.145   3.306
 3017SOL     OW 9068   4.704   1.116   3.581
 3017SOL    HW1 9069   4.605   1.122   3.591
 3017SOL    HW2 9070   4.727   1.036   3.525
 3018SOL     OW 9071   4.429   1.050   2.230
 3018SOL    HW1 9072   4.415   1.057   2.329
 3018SOL    HW2 9073   4.513   0.999   2.212
 3019SOL     OW 9074   4.134   0.813   3.113
 3019SOL    HW1 9075   4.220   0.825   3.163
 3019SOL    HW2 9076   4.092   0.726   3.140
 3020SOL     OW 9077   3.788   1.564   3.193
 3020SOL    HW1 9078   3.742   1.646   3.159
 3020SOL    HW2 9079   3.886   1.583   3.202
 3021SOL     OW 9080   4.091   1.100   2.363
 3021SOL    HW1 9081   4.084   1.183   2.307
 3021SOL    HW2 9082   4.095   1.020   2.303
 3022SOL     OW 9083   4.290   0.537   2.727
 3022SOL    HW1 9084   4.302   0.603   2.653
 3022SOL    HW2 9085   4.336   0.571   2.810
 3023SOL     OW 9086   4.078   1.510   3.191
 3023SOL    HW1 9087   4.057   1.466   3.104
 3023SOL    HW2 9088   4.175   1.536   3.194
 3024SOL     OW 9089   4.126   0.751   3.460
 3024SOL    HW1 9090   4.194   0.806   3.413
 3024SOL    HW2 9091   4.166   0.663   3.487
 3025SOL     OW 9092   4.737   0.105   3.632
 3025SOL    HW1 9093   4.743   0.190   3.580
 3025SOL    HW2 9094   4.769   0.029   3.575
 3026SOL     OW 9095   4.228   0.050   3.602
 3026SOL    HW1 9096   4.186  -0.007   3.532
 3026SOL    HW2 9097   4.162   0.119   3.634
 3027SOL     OW 9098   4.297   0.870   2.891
 3027SOL    HW1 9099   4.341   0.959   2.882
 3027SOL    HW2 9100   4.234   0.870   2.968
 3028SOL     OW 9101   4.933   0.525   2.137
 3028SOL    HW1 9102   4.946   0.441   2.191
 3028SOL    HW2 9103   4.904   0.599   2.197
 3029SOL     OW 9104   4.031   0.213   3.093
 3029SOL    HW1 9105   4.008   0.250   3.183
 3029SOL    HW2 9106   4.001   0.118   3.087
 3030SOL     OW 9107   3.761   1.310   3.144
 3030SOL    HW1 9108   3.814   1.261   3.212
 3030SOL    HW2 9109   3.783   1.408   3.149
 3031SOL     OW 9110   4.456   0.634   2.926
 3031SOL    HW1 9111   4.515   0.608   2.850
 3031SOL    HW2 9112   4.428   0.730   2.915
 3032SOL     OW 9113   4.031   0.063   2.480
 3032SOL    HW1 9114   4.020   0.157   2.513
 3032SOL    HW2 9115   4.026   0.000   2.557
 3033SOL     OW 9116   4.747   0.766   2.828
 3033SOL    HW1 9117   4.762   0.787   2.924
 3033SOL    HW2 9118   4.717   0.671   2.819
 3034SOL     OW 9119   4.704   1.573   3.562
 3034SOL    HW1 9120   4.684   1.617   3.474
 3034SOL    HW2 9121   4.743   1.482   3.546
 3035SOL     OW 9122   4.074   0.898   3.666
 3035SOL    HW1 9123   4.150   0.942   3.714
 3035SOL    HW2 9124   4.109   0.851   3.584
 3036SOL     OW 9125   4.043   0.810   2.811
 3036SOL    HW1 9126   4.136   0.846   2.816
 3036SOL    HW2 9127   4.037   0.725   2.863
 3037SOL     OW 9128   4.063   0.509   2.868
 3037SOL    HW1 9129   4.011   0.426   2.851
 3037SOL    HW2 9130   4.140   0.514   2.804
 3038SOL     OW 9131   3.732   1.326   2.062
 3038SOL    HW1 9132   3.639   1.347   2.031
 3038SOL    HW2 9133   3.742   1.227   2.075
 3039SOL     OW 9134   3.812   1.801   2.789
 3039SOL    HW1 9135   3.770   1.715   2.762
 3039SOL    HW2 9136   3.906   1.804   2.755
 3040SOL     OW 9137   4.228   1.568   2.772
 3040SOL    HW1 9138   4.294   1.642   2.781
 3040SOL    HW2 9139   4.272   1.489   2.730
 3041SOL     OW 9140   4.726   0.796   3.100
 3041SOL    HW1 9141   4.767   0.764   3.186
 3041SOL    HW2 9142   4.630   0.769   3.097
 3042SOL     OW 9143   3.764   0.544   2.976
 3042SOL    HW1 9144   3.849   0.511   2.935
 3042SOL    HW2 9145   3.777   0.559   3.074
 3043SOL     OW 9146   3.913   0.520   3.584
 3043SOL    HW1 9147   3.972   0.480   3.514
 3043SOL    HW2 9148   3.855   0.591   3.543
 3044SOL     OW 9149   4.539   0.572   2.187
 3044SOL    HW1 9150   4.546   0.483   2.141
 3044SOL    HW2 9151   4.445   0.606   2.179
 3045SOL     OW 9152   3.976   1.564   3.606
 3045SOL    HW1 9153   3.946   1.621   3.682
 3045SOL    HW2 9154   3.969   1.467   3.632
 3046SOL     OW 9155   4.395   0.464   3.131
 3046SOL    HW1 9156   4.361   0.375   3.101
 3046SOL    HW2 9157   4.421   0.518   3.051
 3047SOL     OW 9158   4.654   1.678   3.327
 3047SOL    HW1 9159   4.630   1.660   3.232
 3047SOL    HW2 9160   4.684   1.772   3.337
 3048SOL     OW 9161   4.197   0.500   2.053
 3048SOL    HW1 9162   4.258   0.580   2.057
 3048SOL    HW2 9163   4.102   0.531   2.060
 3049SOL     OW 9164   3.883   1.137   3.328
 3049SOL    HW1 9165   3.905   1.076   3.404
 3049SOL    HW2 9166   3.893   1.088   3.242
 3050SOL     OW 9167   3.807   1.258   2.884
 3050SOL    HW1 9168   3.802   1.257   2.984
 3050SOL    HW2 9169   3.724   1.217   2.846
 3051SOL     OW 9170   4.412   1.662   3.578
 3051SOL    HW1 9171   4.356   1.743   3.587
 3051SOL    HW2 9172   4.464   1.666   3.492
 3052SOL     OW 9173   3.854   1.794   3.713
 3052SOL    HW1 9174   3.813   1.720   3.766
 3052SOL    HW2 9175   3.918   1.845   3.771
 3053SOL     OW 9176   5.004   0.927   2.534
 3053SOL    HW1 9177   5.064   0.846   2.536
 3053SOL    HW2 9178   5.044   0.996   2.474
 3054SOL     OW 9179   4.554   1.273   3.284
 3054SOL    HW1 9180   4.549   1.306   3.379
 3054SOL    HW2 9181   4.468   1.292   3.238
 3055SOL     OW 9182   4.396   1.616   2.016
 3055SOL    HW1 9183   4.405   1.626   1.917
 3055SOL    HW2 9184   4.356   1.527   2.037
 3056SOL     OW 9185   3.987   0.326   2.582
 3056SOL    HW1 9186   3.908   0.377   2.548
 3056SOL    HW2 9187   3.978   0.311   2.680
 3057SOL     OW 9188   4.546   1.002   3.234
 3057SOL    HW1 9189   4.586   1.001   3.142
 3057SOL    HW2 9190   4.556   1.094   3.274
 3058SOL     OW 9191   4.640   0.910   2.153
 3058SOL    HW1 9192   4.703   0.948   2.085
 3058SOL    HW2 9193   4.680   0.827   2.192
 3059SOL     OW 9194   4.096   1.288   3.352
 3059SOL    HW1 9195   4.083   1.381   3.318
 3059SOL    HW2 9196   4.012   1.236   3.339
 3060SOL     OW 9197   4.763   1.098   2.558
 3060SOL    HW1 9198   4.693   1.051   2.612
 3060SOL    HW2 9199   4.822   1.030   2.515
 3061SOL     OW 9200   4.738   0.236   2.833
 3061SOL    HW1 9201   4.730   0.200   2.740
 3061SOL    HW2 9202   4.736   0.160   2.898
 3062SOL     OW 9203   4.314   1.487   2.353
 3062SOL    HW1 9204   4.356   1.429   2.283
 3062SOL    HW2 9205   4.270   1.566   2.309
 3063SOL     OW 9206   3.979   1.348   2.152
 3063SOL    HW1 9207   3.883   1.349   2.125
 3063SOL    HW2 9208   3.991   1.401   2.236
 3064SOL     OW 9209   3.829   1.013   3.588
 3064SOL    HW1 9210   3.752   0.980   3.642
 3064SOL    HW2 9211   3.914   0.983   3.630
 3065SOL     OW 9212   4.396   0.203   3.351
 3065SOL    HW1 9213   4.486   0.187   3.311
 3065SOL    HW2 9214   4.404   0.208   3.450
 3066SOL     OW 9215   3.799   0.345   1.895
 3066SOL    HW1 9216   3.707   0.317   1.866
 3066SOL    HW2 9217   3.830   0.422   1.839
 3067SOL     OW 9218   3.796   0.166   2.180
 3067SOL    HW1 9219   3.779   0.249   2.126
 3067SOL    HW2 9220   3.886   0.129   2.158
 3068SOL     OW 9221   4.337   0.842   3.293
 3068SOL    HW1 9222   4.393   0.923   3.276
 3068SOL    HW2 9223   4.396   0.762   3.296
 3069SOL     OW 9224   4.440   0.565   3.570
 3069SOL    HW1 9225   4.459   0.630   3.644
 3069SOL    HW2 9226   4.500   0.485   3.579
 3070SOL     OW 9227   4.114   1.741   3.422
 3070SOL    HW1 9228   4.023   1.782   3.420
 3070SOL    HW2 9229   4.107   1.647   3.454
 3071SOL     OW 9230   4.949   0.325   2.311
 3071SOL    HW1 9231   5.014   0.251   2.300
 3071SOL    HW2 9232   4.969   0.375   2.395
 3072SOL     OW 9233   4.318   0.745   2.514
 3072SOL    HW1 9234   4.368   0.830   2.495
 3072SOL    HW2 9235   4.230   0.747   2.466
 3073SOL     OW 9236   4.583   1.374   1.878
 3073SOL    HW1 9237   4.537   1.389   1.966
 3073SOL    HW2 9238   4.627   1.459   1.848
 3074SOL     OW 9239   4.385   1.790   2.815
 3074SOL    HW1 9240   4.339   1.878   2.802
 3074SOL    HW2 9241   4.484   1.802   2.808
 3075SOL     OW 9242   4.583   0.956   2.723
 3075SOL    HW1 9243   4.637   0.887   2.771
 3075SOL    HW2 9244   4.551   1.025   2.789
 3076SOL     OW 9245   3.945   1.314   3.706
 3076SOL    HW1 9246   3.880   1.241   3.685
 3076SOL    HW2 9247   3.949   1.328   3.804
 3077SOL     OW 9248   3.803   1.240   2.515
 3077SOL    HW1 9249   3.802   1.193   2.603
 3077SOL    HW2 9250   3.885   1.212   2.464
 3078SOL     OW 9251   4.396   1.391   3.486
 3078SOL    HW1 9252   4.318   1.341   3.524
 3078SOL    HW2 9253   4.393   1.486   3.517
 3079SOL     OW 9254   4.152   0.424   2.382
 3079SOL    HW1 9255   4.182   0.352   2.320
 3079SOL    HW2 9256   4.113   0.384   2.465
 3080SOL     OW 9257   4.041   0.547   3.142
 3080SOL    HW1 9258   4.079   0.488   3.214
 3080SOL    HW2 9259   4.081   0.521   3.054
 3081SOL     OW 9260   4.536   1.586   2.549
 3081SOL    HW1 9261   4.568   1.596   2.455
 3081SOL    HW2 9262   4.457   1.524   2.551
 3082SOL     OW 9263   4.725   0.034   3.016
 3082SOL    HW1 9264   4.662  -0.038   2.985
 3082SOL    HW2 9265   4.818  -0.002   3.016
 3083SOL     OW 9266   4.494   1.330   2.163
 3083SOL    HW1 9267   4.448   1.243   2.180
 3083SOL    HW2 9268   4.585   1.327   2.204
 3084SOL     OW 9269   4.342   1.567   3.146
 3084SOL    HW1 9270   4.337   1.649   3.203
 3084SOL    HW2 9271   4.431   1.564   3.101
 3085SOL     OW 9272   3.763   1.077   2.162
 3085SOL    HW1 9273   3.862   1.066   2.153
 3085SOL    HW2 9274   3.723   0.991   2.194
 3086SOL     OW 9275   4.599   1.646   2.199
 3086SOL    HW1 9276   4.522   1.611   2.145
 3086SOL    HW2 9277   4.567   1.717   2.261
 3087SOL     OW 9278   3.954   0.628   3.837
 3087SOL    HW1 9279   3.861   0.626   3.874
 3087SOL    HW2 9280   3.955   0.589   3.745
 3088SOL     OW 9281   3.949   0.275   4.720
 3088SOL    HW1 9282   3.984   0.258   4.812
 3088SOL    HW2 9283   3.861   0.230   4.708
 3089SOL     OW 9284   3.743   0.368   4.371
 3089SOL    HW1 9285   3.661   0.411   4.410
 3089SOL    HW2 9286   3.715   0.295   4.308
 3090SOL     OW 9287   4.492   1.144   4.747
 3090SOL    HW1 9288   4.414   1.161   4.807
 3090SOL    HW2 9289   4.526   1.231   4.711
 3091SOL     OW 9290   4.409   1.012   4.389
 3091SOL    HW1 9291   4.478   0.996   4.459
 3091SOL    HW2 9292   4.336   1.069   4.427
 3092SOL     OW 9293   4.059   1.435   4.785
 3092SOL    HW1 9294   3.981   1.404   4.732
 3092SOL    HW2 9295   4.117   1.493   4.728
 3093SOL     OW 9296   3.955   1.713   4.207
 3093SOL    HW1 9297   3.989   1.790   4.261
 3093SOL    HW2 9298   3.999   1.713   4.117
 3094SOL     OW 9299   3.954   1.434   4.262
 3094SOL    HW1 9300   3.928   1.530   4.262
 3094SOL    HW2 9301   3.883   1.380   4.307
 3095SOL     OW 9302   3.964   1.091   4.610
 3095SOL    HW1 9303   3.978   1.007   4.662
 3095SOL    HW2 9304   3.909   1.155   4.665
 3096SOL     OW 9305   4.330   0.964   3.847
 3096SOL    HW1 9306   4.337   1.048   3.793
 3096SOL    HW2 9307   4.376   0.977   3.935
 3097SOL     OW 9308   3.846   0.643   4.287
 3097SOL    HW1 9309   3.801   0.555   4.304
 3097SOL    HW2 9310   3.845   0.697   4.371
 3098SOL     OW 9311   3.751   1.596   3.841
 3098SOL    HW1 9312   3.732   1.500   3.862
 3098SOL    HW2 9313   3.718   1.654   3.916
 3099SOL     OW 9314   4.337   1.365   4.450
 3099SOL    HW1 9315   4.288   1.278   4.459
 3099SOL    HW2 9316   4.314   1.408   4.363
 3100SOL     OW 9317   4.533   0.004   4.226
 3100SOL    HW1 9318   4.573   0.095   4.217
 3100SOL    HW2 9319   4.433   0.012   4.232
 3101SOL     OW 9320   4.322   0.729   3.994
 3101SOL    HW1 9321   4.346   0.798   3.926
 3101SOL    HW2 9322   4.244   0.762   4.048
 3102SOL     OW 9323   4.765   0.701   4.153
 3102SOL    HW1 9324   4.791   0.697   4.249
 3102SOL    HW2 9325   4.680   0.650   4.139
 3103SOL     OW 9326   3.800   0.811   4.513
 3103SOL    HW1 9327   3.899   0.799   4.522
 3103SOL    HW2 9328   3.776   0.906   4.534
 3104SOL     OW 9329   4.589   0.348   3.919
 3104SOL    HW1 9330   4.648   0.411   3.870
 3104SOL    HW2 9331   4.608   0.254   3.890
 3105SOL     OW 9332   4.274   0.196   4.609
 3105SOL    HW1 9333   4.269   0.191   4.709
 3105SOL    HW2 9334   4.276   0.292   4.580
 3106SOL     OW 9335   4.732   1.456   4.201
 3106SOL    HW1 9336   4.686   1.528   4.149
 3106SOL    HW2 9337   4.728   1.476   4.299
 3107SOL     OW 9338   4.075   1.801   4.577
 3107SOL    HW1 9339   4.125   1.715   4.583
 3107SOL    HW2 9340   4.140   1.878   4.574
 3108SOL     OW 9341   4.045   0.943   3.966
 3108SOL    HW1 9342   4.127   0.982   3.924
 3108SOL    HW2 9343   4.018   0.861   3.917
 3109SOL     OW 9344   4.188   1.743   4.047
 3109SOL    HW1 9345   4.221   1.782   4.133
 3109SOL    HW2 9346   4.264   1.736   3.982
 3110SOL     OW 9347   3.973   1.785   4.965
 3110SOL    HW1 9348   4.030   1.720   5.015
 3110SOL    HW2 9349   3.957   1.752   4.872
 3111SOL     OW 9350   4.664   1.698   4.628
 3111SOL    HW1 9351   4.744   1.641   4.649
 3111SOL    HW2 9352   4.615   1.658   4.551
 3112SOL     OW 9353   4.106   0.700   4.204
 3112SOL    HW1 9354   4.151   0.610   4.201
 3112SOL    HW2 9355   4.012   0.689   4.237
 3113SOL     OW 9356   4.338   0.122   3.841
 3113SOL    HW1 9357   4.436   0.100   3.848
 3113SOL    HW2 9358   4.307   0.105   3.748
 3114SOL     OW 9359   4.527   1.402   4.648
 3114SOL    HW1 9360   4.617   1.416   4.606
 3114SOL    HW2 9361   4.456   1.404   4.577
 3115SOL     OW 9362   4.646   0.503   4.623
 3115SOL    HW1 9363   4.621   0.494   4.527
 3115SOL    HW2 9364   4.694   0.421   4.654
 3116SOL     OW 9365   4.263   0.064   4.236
 3116SOL    HW1 9366   4.182   0.065   4.294
 3116SOL    HW2 9367   4.266   0.147   4.181
 3117SOL     OW 9368   4.021   0.035   3.895
 3117SOL    HW1 9369   4.070   0.119   3.874
 3117SOL    HW2 9370   4.083  -0.030   3.940
 3118SOL     OW 9371   4.659   0.236   4.204
 3118SOL    HW1 9372   4.611   0.277   4.126
 3118SOL    HW2 9373   4.758   0.234   4.185
 3119SOL     OW 9374   4.951   1.570   4.517
 3119SOL    HW1 9375   4.972   1.644   4.452
 3119SOL    HW2 9376   5.019   1.570   4.590
 3120SOL     OW 9377   4.183   1.152   4.465
 3120SOL    HW1 9378   4.112   1.125   4.530
 3120SOL    HW2 9379   4.157   1.124   4.372
 3121SOL     OW 9380   4.756   0.549   3.740
 3121SOL    HW1 9381   4.715   0.631   3.701
 3121SOL    HW2 9382   4.820   0.575   3.813
 3122SOL     OW 9383   4.590   0.454   4.366
 3122SOL    HW1 9384   4.558   0.526   4.304
 3122SOL    HW2 9385   4.614   0.373   4.313
 3123SOL     OW 9386   4.741   0.039   4.477
 3123SOL    HW1 9387   4.669   0.044   4.408
 3123SOL    HW2 9388   4.717  -0.030   4.546
 3124SOL     OW 9389   4.212   1.385   3.898
 3124SOL    HW1 9390   4.125   1.370   3.945
 3124SOL    HW2 9391   4.195   1.411   3.803
 3125SOL     OW 9392   4.251   0.256   4.052
 3125SOL    HW1 9393   4.278   0.197   3.977
 3125SOL    HW2 9394   4.251   0.351   4.021
 3126SOL     OW 9395   4.429   1.050   4.092
 3126SOL    HW1 9396   4.415   1.057   4.191
 3126SOL    HW2 9397   4.513   0.999   4.074
 3127SOL     OW 9398   4.091   1.100   4.225
 3127SOL    HW1 9399   4.084   1.183   4.169
 3127SOL    HW2 9400   4.095   1.020   4.165
 3128SOL     OW 9401   4.290   0.537   4.589
 3128SOL    HW1 9402   4.302   0.603   4.515
 3128SOL    HW2 9403   4.336   0.571   4.672
 3129SOL     OW 9404   4.297   0.870   4.753
 3129SOL    HW1 9405   4.341   0.959   4.744
 3129SOL    HW2 9406   4.234   0.870   4.830
 3130SOL     OW 9407   4.933   0.525   3.999
 3130SOL    HW1 9408   4.946   0.441   4.053
 3130SOL    HW2 9409   4.904   0.599   4.059
 3131SOL     OW 9410   4.456   0.634   4.788
 3131SOL    HW1 9411   4.515   0.608   4.712
 3131SOL    HW2 9412   4.428   0.730   4.777
 3132SOL     OW 9413   4.031   0.063   4.342
 3132SOL    HW1 9414   4.020   0.157   4.375
 3132SOL    HW2 9415   4.026   0.000   4.419
 3133SOL     OW 9416   4.043   0.810   4.673
 3133SOL    HW1 9417   4.136   0.846   4.678
 3133SOL    HW2 9418   4.037   0.725   4.725
 3134SOL     OW 9419   4.063   0.509   4.730
 3134SOL    HW1 9420   4.011   0.426   4.713
 3134SOL    HW2 9421   4.140   0.514   4.666
 3135SOL     OW 9422   3.732   1.326   3.924
 3135SOL    HW1 9423   3.639   1.347   3.893
 3135SOL    HW2 9424   3.742   1.227   3.937
 3136SOL     OW 9425   3.812   1.801   4.651
 3136SOL    HW1 9426   3.770   1.715   4.624
 3136SOL    HW2 9427   3.906   1.804   4.617
 3137SOL     OW 9428   4.228   1.568   4.634
 3137SOL    HW1 9429   4.294   1.642   4.643
 3137SOL    HW2 9430   4.272   1.489   4.592
 3138SOL     OW 9431   4.726   0.796   4.962
 3138SOL    HW1 9432   4.767   0.764   5.048
 3138SOL    HW2 9433   4.630   0.769   4.959
 3139SOL     OW 9434   4.539   0.572   4.049
 3139SOL    HW1 9435   4.546   0.483   4.003
 3139SOL    HW2 9436   4.445   0.606   4.041
 3140SOL     OW 9437   4.395   0.464   4.993
 3140SOL    HW1 9438   4.361   0.375   4.963
 3140SOL    HW2 9439   4.421   0.518   4.913
 3141SOL     OW 9440   4.197   0.500   3.915
 3141SOL    HW1 9441   4.258   0.580   3.919
 3141SOL    HW2 9442   4.102   0.531   3.922
 3142SOL     OW 9443   3.807   1.258   4.746
 3142SOL    HW1 9444   3.802   1.257   4.846
 3142SOL    HW2 9445   3.724   1.217   4.708
 3143SOL     OW 9446   5.004   0.927   4.396
 3143SOL    HW1 9447   5.064   0.846   4.398
 3143SOL    HW2 9448   5.044   0.996   4.336
 3144SOL     OW 9449   4.396   1.616   3.878
 3144SOL    HW1 9450   4.405   1.626   3.779
 3144SOL    HW2 9451   4.356   1.527   3.899
 3145SOL     OW 9452   3.987   0.326   4.444
 3145SOL    HW1 9453   3.908   0.377   4.410
 3145SOL    HW2 9454   3.978   0.311   4.542
 3146SOL     OW 9455   4.640   0.910   4.015
 3146SOL    HW1 9456   4.703   0.948   3.947
 3146SOL    HW2 9457   4.680   0.827   4.054
 3147SOL     OW 9458   4.763   1.098   4.420
 3147SOL    HW1 9459   4.693   1.051   4.474
 3147SOL    HW2 9460   4.822   1.030   4.377
 3148SOL     OW 9461   4.314   1.487   4.215
 3148SOL    HW1 9462   4.356   1.429   4.145
 3148SOL    HW2 9463   4.270   1.566   4.171
 3149SOL     OW 9464   3.979   1.348   4.014
 3149SOL    HW1 9465   3.883   1.349   3.987
 3149SOL    HW2 9466   3.991   1.401   4.098
 3150SOL     OW 9467   3.799   0.345   3.757
 3150SOL    HW1 9468   3.707   0.317   3.728
 3150SOL    HW2 9469   3.830   0.422   3.701
 3151SOL     OW 9470   3.796   0.166   4.042
 3151SOL    HW1 9471   3.779   0.249   3.988
 3151SOL    HW2 9472   3.886   0.129   4.020
 3152SOL     OW 9473   4.949   0.325   4.173
 3152SOL    HW1 9474   5.014   0.251   4.162
 3152SOL    HW2 9475   4.969   0.375   4.257
 3153SOL     OW 9476   4.318   0.745   4.376
 3153SOL    HW1 9477   4.368   0.830   4.357
 3153SOL    HW2 9478   4.230   0.747   4.328
 3154SOL     OW 9479   4.583   1.374   3.740
 3154SOL    HW1 9480   4.537   1.389   3.828
 3154SOL    HW2 9481   4.627   1.459   3.710
 3155SOL     OW 9482   4.385   1.790   4.677
 3155SOL    HW1 9483   4.339   1.878   4.664
 3155SOL    HW2 9484   4.484   1.802   4.670
 3156SOL     OW 9485   4.583   0.956   4.585
 3156SOL    HW1 9486   4.637   0.887   4.633
 3156SOL    HW2 9487   4.551   1.025   4.651
 3157SOL     OW 9488   3.803   1.240   4.377
 3157SOL    HW1 9489   3.802   1.193   4.465
 3157SOL    HW2 9490   3.885   1.212   4.326
 3158SOL     OW 9491   4.152   0.424   4.244
 3158SOL    HW1 9492   4.182   0.352   4.182
 3158SOL    HW2 9493   4.113   0.384   4.327
 3159SOL     OW 9494   4.536   1.586   4.411
 3159SOL    HW1 9495   4.568   1.596   4.317
 3159SOL    HW2 9496   4.457   1.524   4.413
 3160SOL     OW 9497   4.494   1.330   4.025
 3160SOL    HW1 9498   4.448   1.243   4.042
 3160SOL    HW2 9499   4.585   1.327   4.066
 3161SOL     OW 9500   3.763   1.077   4.024
 3161SOL    HW1 9501   3.862   1.066   4.015
 3161SOL    HW2 9502   3.723   0.991   4.056
 3162SOL     OW 9503   4.599   1.646   4.061
 3162SOL    HW1 9504   4.522   1.611   4.007
 3162SOL    HW2 9505   4.567   1.717   4.123
 3163SOL     OW 9506   3.954   2.490   0.113
 3163SOL    HW1 9507   3.861   2.488   0.150
 3163SOL    HW2 9508   3.955   2.451   0.021
 3164SOL     OW 9509   3.949   2.137   0.996
 3164SOL    HW1 9510   3.984   2.120   1.088
 3164SOL    HW2 9511   3.861   2.092   0.984
 3165SOL     OW 9512   3.743   2.230   0.647
 3165SOL    HW1 9513   3.661   2.273   0.686
 3165SOL    HW2 9514   3.715   2.157   0.584
 3166SOL     OW 9515   4.293   3.137   1.165
 3166SOL    HW1 9516   4.200   3.130   1.128
 3166SOL    HW2 9517   4.304   3.226   1.209
 3167SOL     OW 9518   4.492   3.006   1.023
 3167SOL    HW1 9519   4.414   3.023   1.083
 3167SOL    HW2 9520   4.526   3.093   0.987
 3168SOL     OW 9521   4.574   2.660   1.823
 3168SOL    HW1 9522   4.570   2.736   1.888
 3168SOL    HW2 9523   4.596   2.696   1.732
 3169SOL     OW 9524   4.409   2.874   0.665
 3169SOL    HW1 9525   4.478   2.858   0.735
 3169SOL    HW2 9526   4.336   2.931   0.703
 3170SOL     OW 9527   4.410   3.023   1.803
 3170SOL    HW1 9528   4.470   3.102   1.817
 3170SOL    HW2 9529   4.324   3.054   1.762
 3171SOL     OW 9530   4.059   3.297   1.061
 3171SOL    HW1 9531   3.981   3.266   1.008
 3171SOL    HW2 9532   4.117   3.355   1.004
 3172SOL     OW 9533   4.162   2.254   1.499
 3172SOL    HW1 9534   4.244   2.198   1.508
 3172SOL    HW2 9535   4.081   2.196   1.503
 3173SOL     OW 9536   3.955   3.575   0.483
 3173SOL    HW1 9537   3.989   3.652   0.537
 3173SOL    HW2 9538   3.999   3.575   0.393
 3174SOL     OW 9539   3.954   3.296   0.538
 3174SOL    HW1 9540   3.928   3.392   0.538
 3174SOL    HW2 9541   3.883   3.242   0.583
 3175SOL     OW 9542   3.964   2.953   0.886
 3175SOL    HW1 9543   3.978   2.869   0.938
 3175SOL    HW2 9544   3.909   3.017   0.941
 3176SOL     OW 9545   4.344   3.648   1.439
 3176SOL    HW1 9546   4.252   3.631   1.474
 3176SOL    HW2 9547   4.372   3.740   1.465
 3177SOL     OW 9548   4.330   2.826   0.123
 3177SOL    HW1 9549   4.337   2.910   0.069
 3177SOL    HW2 9550   4.376   2.839   0.211
 3178SOL     OW 9551   3.846   2.505   0.563
 3178SOL    HW1 9552   3.801   2.417   0.580
 3178SOL    HW2 9553   3.845   2.559   0.647
 3179SOL     OW 9554   3.751   3.458   0.117
 3179SOL    HW1 9555   3.732   3.362   0.138
 3179SOL    HW2 9556   3.718   3.516   0.192
 3180SOL     OW 9557   3.837   2.599   1.597
 3180SOL    HW1 9558   3.925   2.586   1.642
 3180SOL    HW2 9559   3.824   2.696   1.575
 3181SOL     OW 9560   4.337   3.227   0.726
 3181SOL    HW1 9561   4.288   3.140   0.735
 3181SOL    HW2 9562   4.314   3.270   0.639
 3182SOL     OW 9563   4.533   1.866   0.502
 3182SOL    HW1 9564   4.573   1.957   0.493
 3182SOL    HW2 9565   4.433   1.874   0.508
 3183SOL     OW 9566   3.921   2.838   1.264
 3183SOL    HW1 9567   4.010   2.793   1.250
 3183SOL    HW2 9568   3.848   2.773   1.245
 3184SOL     OW 9569   4.041   2.113   1.801
 3184SOL    HW1 9570   4.112   2.184   1.807
 3184SOL    HW2 9571   3.953   2.152   1.829
 3185SOL     OW 9572   4.322   2.591   0.270
 3185SOL    HW1 9573   4.346   2.660   0.202
 3185SOL    HW2 9574   4.244   2.624   0.324
 3186SOL     OW 9575   4.531   2.467   1.465
 3186SOL    HW1 9576   4.484   2.464   1.554
 3186SOL    HW2 9577   4.480   2.412   1.399
 3187SOL     OW 9578   4.697   2.752   1.572
 3187SOL    HW1 9579   4.743   2.668   1.543
 3187SOL    HW2 9580   4.641   2.786   1.497
 3188SOL     OW 9581   4.715   2.272   1.242
 3188SOL    HW1 9582   4.638   2.306   1.296
 3188SOL    HW2 9583   4.681   2.221   1.163
 3189SOL     OW 9584   4.765   2.563   0.429
 3189SOL    HW1 9585   4.791   2.559   0.525
 3189SOL    HW2 9586   4.680   2.512   0.415
 3190SOL     OW 9587   3.800   2.673   0.789
 3190SOL    HW1 9588   3.899   2.661   0.798
 3190SOL    HW2 9589   3.776   2.768   0.810
 3191SOL     OW 9590   3.854   3.683   1.571
 3191SOL    HW1 9591   3.844   3.668   1.670
 3191SOL    HW2 9592   3.768   3.719   1.535
 3192SOL     OW 9593   4.589   2.210   0.195
 3192SOL    HW1 9594   4.648   2.273   0.146
 3192SOL    HW2 9595   4.608   2.116   0.166
 3193SOL     OW 9596   4.274   2.058   0.885
 3193SOL    HW1 9597   4.269   2.053   0.985
 3193SOL    HW2 9598   4.276   2.154   0.856
 3194SOL     OW 9599   4.732   3.318   0.477
 3194SOL    HW1 9600   4.686   3.390   0.425
 3194SOL    HW2 9601   4.728   3.338   0.575
 3195SOL     OW 9602   4.075   3.663   0.853
 3195SOL    HW1 9603   4.125   3.577   0.859
 3195SOL    HW2 9604   4.140   3.740   0.850
 3196SOL     OW 9605   4.045   2.805   0.242
 3196SOL    HW1 9606   4.127   2.844   0.200
 3196SOL    HW2 9607   4.018   2.723   0.193
 3197SOL     OW 9608   4.185   3.128   1.727
 3197SOL    HW1 9609   4.135   3.129   1.641
 3197SOL    HW2 9610   4.122   3.110   1.803
 3198SOL     OW 9611   3.926   2.147   1.498
 3198SOL    HW1 9612   3.846   2.207   1.485
 3198SOL    HW2 9613   3.916   2.098   1.584
 3199SOL     OW 9614   4.188   3.605   0.323
 3199SOL    HW1 9615   4.221   3.644   0.409
 3199SOL    HW2 9616   4.264   3.598   0.258
 3200SOL     OW 9617   3.973   3.647   1.241
 3200SOL    HW1 9618   4.030   3.582   1.291
 3200SOL    HW2 9619   3.957   3.614   1.148
 3201SOL     OW 9620   4.664   3.560   0.904
 3201SOL    HW1 9621   4.744   3.503   0.925
 3201SOL    HW2 9622   4.615   3.520   0.827
 3202SOL     OW 9623   4.106   2.562   0.480
 3202SOL    HW1 9624   4.151   2.472   0.477
 3202SOL    HW2 9625   4.012   2.551   0.513
 3203SOL     OW 9626   4.338   1.984   0.117
 3203SOL    HW1 9627   4.436   1.962   0.124
 3203SOL    HW2 9628   4.307   1.967   0.024
 3204SOL     OW 9629   4.505   2.126   1.749
 3204SOL    HW1 9630   4.572   2.065   1.792
 3204SOL    HW2 9631   4.432   2.145   1.814
 3205SOL     OW 9632   4.612   3.376   1.195
 3205SOL    HW1 9633   4.589   3.351   1.101
 3205SOL    HW2 9634   4.673   3.307   1.234
 3206SOL     OW 9635   4.527   3.264   0.924
 3206SOL    HW1 9636   4.617   3.278   0.882
 3206SOL    HW2 9637   4.456   3.266   0.853
 3207SOL     OW 9638   4.646   2.365   0.899
 3207SOL    HW1 9639   4.621   2.356   0.803
 3207SOL    HW2 9640   4.694   2.283   0.930
 3208SOL     OW 9641   4.263   1.926   0.512
 3208SOL    HW1 9642   4.182   1.927   0.570
 3208SOL    HW2 9643   4.266   2.009   0.457
 3209SOL     OW 9644   5.158   3.050   0.041
 3209SOL    HW1 9645   5.190   2.974   0.098
 3209SOL    HW2 9646   5.066   3.077   0.071
 3210SOL     OW 9647   4.659   2.098   0.480
 3210SOL    HW1 9648   4.611   2.139   0.402
 3210SOL    HW2 9649   4.758   2.096   0.461
 3211SOL     OW 9650   4.951   3.432   0.793
 3211SOL    HW1 9651   4.972   3.506   0.728
 3211SOL    HW2 9652   5.019   3.432   0.866
 3212SOL     OW 9653   4.183   3.014   0.741
 3212SOL    HW1 9654   4.112   2.987   0.806
 3212SOL    HW2 9655   4.157   2.986   0.648
 3213SOL     OW 9656   4.756   2.411   0.016
 3213SOL    HW1 9657   4.715   2.493  -0.023
 3213SOL    HW2 9658   4.820   2.437   0.089
 3214SOL     OW 9659   3.802   2.418   1.386
 3214SOL    HW1 9660   3.894   2.417   1.345
 3214SOL    HW2 9661   3.796   2.492   1.453
 3215SOL     OW 9662   4.285   2.084   1.147
 3215SOL    HW1 9663   4.323   2.000   1.184
 3215SOL    HW2 9664   4.197   2.103   1.191
 3216SOL     OW 9665   4.590   2.316   0.642
 3216SOL    HW1 9666   4.558   2.388   0.580
 3216SOL    HW2 9667   4.614   2.235   0.589
 3217SOL     OW 9668   4.741   1.901   0.753
 3217SOL    HW1 9669   4.669   1.906   0.684
 3217SOL    HW2 9670   4.717   1.832   0.822
 3218SOL     OW 9671   4.212   3.247   0.174
 3218SOL    HW1 9672   4.125   3.232   0.221
 3218SOL    HW2 9673   4.195   3.273   0.079
 3219SOL     OW 9674   4.251   2.118   0.328
 3219SOL    HW1 9675   4.278   2.059   0.253
 3219SOL    HW2 9676   4.251   2.213   0.297
 3220SOL     OW 9677   4.639   1.951   1.402
 3220SOL    HW1 9678   4.664   1.931   1.307
 3220SOL    HW2 9679   4.711   2.007   1.444
 3221SOL     OW 9680   4.704   2.978   1.719
 3221SOL    HW1 9681   4.605   2.984   1.729
 3221SOL    HW2 9682   4.727   2.898   1.663
 3222SOL     OW 9683   4.429   2.912   0.368
 3222SOL    HW1 9684   4.415   2.919   0.467
 3222SOL    HW2 9685   4.513   2.861   0.350
 3223SOL     OW 9686   4.134   2.675   1.251
 3223SOL    HW1 9687   4.220   2.687   1.301
 3223SOL    HW2 9688   4.092   2.588   1.278
 3224SOL     OW 9689   3.788   3.426   1.331
 3224SOL    HW1 9690   3.742   3.508   1.297
 3224SOL    HW2 9691   3.886   3.445   1.340
 3225SOL     OW 9692   4.091   2.962   0.501
 3225SOL    HW1 9693   4.084   3.045   0.445
 3225SOL    HW2 9694   4.095   2.882   0.441
 3226SOL     OW 9695   4.290   2.399   0.865
 3226SOL    HW1 9696   4.302   2.465   0.791
 3226SOL    HW2 9697   4.336   2.433   0.948
 3227SOL     OW 9698   4.078   3.372   1.329
 3227SOL    HW1 9699   4.057   3.328   1.242
 3227SOL    HW2 9700   4.175   3.398   1.332
 3228SOL     OW 9701   4.126   2.613   1.598
 3228SOL    HW1 9702   4.194   2.668   1.551
 3228SOL    HW2 9703   4.166   2.525   1.625
 3229SOL     OW 9704   4.737   1.967   1.770
 3229SOL    HW1 9705   4.743   2.052   1.718
 3229SOL    HW2 9706   4.769   1.891   1.713
 3230SOL     OW 9707   4.228   1.912   1.740
 3230SOL    HW1 9708   4.186   1.855   1.670
 3230SOL    HW2 9709   4.162   1.981   1.772
 3231SOL     OW 9710   4.297   2.732   1.029
 3231SOL    HW1 9711   4.341   2.821   1.020
 3231SOL    HW2 9712   4.234   2.732   1.106
 3232SOL     OW 9713   4.933   2.387   0.275
 3232SOL    HW1 9714   4.946   2.303   0.329
 3232SOL    HW2 9715   4.904   2.461   0.335
 3233SOL     OW 9716   4.031   2.075   1.231
 3233SOL    HW1 9717   4.008   2.112   1.321
 3233SOL    HW2 9718   4.001   1.980   1.225
 3234SOL     OW 9719   3.761   3.172   1.282
 3234SOL    HW1 9720   3.814   3.123   1.350
 3234SOL    HW2 9721   3.783   3.270   1.287
 3235SOL     OW 9722   4.456   2.496   1.064
 3235SOL    HW1 9723   4.515   2.470   0.988
 3235SOL    HW2 9724   4.428   2.592   1.053
 3236SOL     OW 9725   4.031   1.925   0.618
 3236SOL    HW1 9726   4.020   2.019   0.651
 3236SOL    HW2 9727   4.026   1.862   0.695
 3237SOL     OW 9728   4.747   2.628   0.966
 3237SOL    HW1 9729   4.762   2.649   1.062
 3237SOL    HW2 9730   4.717   2.533   0.957
 3238SOL     OW 9731   4.704   3.435   1.700
 3238SOL    HW1 9732   4.684   3.479   1.612
 3238SOL    HW2 9733   4.743   3.344   1.684
 3239SOL     OW 9734   4.074   2.760   1.804
 3239SOL    HW1 9735   4.150   2.804   1.852
 3239SOL    HW2 9736   4.109   2.713   1.722
 3240SOL     OW 9737   4.043   2.672   0.949
 3240SOL    HW1 9738   4.136   2.708   0.954
 3240SOL    HW2 9739   4.037   2.587   1.001
 3241SOL     OW 9740   4.063   2.371   1.006
 3241SOL    HW1 9741   4.011   2.288   0.989
 3241SOL    HW2 9742   4.140   2.376   0.942
 3242SOL     OW 9743   3.732   3.188   0.200
 3242SOL    HW1 9744   3.639   3.209   0.169
 3242SOL    HW2 9745   3.742   3.089   0.213
 3243SOL     OW 9746   3.812   3.663   0.927
 3243SOL    HW1 9747   3.770   3.577   0.900
 3243SOL    HW2 9748   3.906   3.666   0.893
 3244SOL     OW 9749   4.228   3.430   0.910
 3244SOL    HW1 9750   4.294   3.504   0.919
 3244SOL    HW2 9751   4.272   3.351   0.868
 3245SOL     OW 9752   4.726   2.658   1.238
 3245SOL    HW1 9753   4.767   2.626   1.324
 3245SOL    HW2 9754   4.630   2.631   1.235
 3246SOL     OW 9755   3.764   2.406   1.114
 3246SOL    HW1 9756   3.849   2.373   1.073
 3246SOL    HW2 9757   3.777   2.421   1.212
 3247SOL     OW 9758   3.913   2.382   1.722
 3247SOL    HW1 9759   3.972   2.342   1.652
 3247SOL    HW2 9760   3.855   2.453   1.681
 3248SOL     OW 9761   4.539   2.434   0.325
 3248SOL    HW1 9762   4.546   2.345   0.279
 3248SOL    HW2 9763   4.445   2.468   0.317
 3249SOL     OW 9764   3.976   3.426   1.744
 3249SOL    HW1 9765   3.946   3.483   1.820
 3249SOL    HW2 9766   3.969   3.329   1.770
 3250SOL     OW 9767   4.395   2.326   1.269
 3250SOL    HW1 9768   4.361   2.237   1.239
 3250SOL    HW2 9769   4.421   2.380   1.189
 3251SOL     OW 9770   4.654   3.540   1.465
 3251SOL    HW1 9771   4.630   3.522   1.370
 3251SOL    HW2 9772   4.684   3.634   1.475
 3252SOL     OW 9773   4.197   2.362   0.191
 3252SOL    HW1 9774   4.258   2.442   0.195
 3252SOL    HW2 9775   4.102   2.393   0.198
 3253SOL     OW 9776   3.883   2.999   1.466
 3253SOL    HW1 9777   3.905   2.938   1.542
 3253SOL    HW2 9778   3.893   2.950   1.380
 3254SOL     OW 9779   3.807   3.120   1.022
 3254SOL    HW1 9780   3.802   3.119   1.122
 3254SOL    HW2 9781   3.724   3.079   0.984
 3255SOL     OW 9782   4.412   3.524   1.716
 3255SOL    HW1 9783   4.356   3.605   1.725
 3255SOL    HW2 9784   4.464   3.528   1.630
 3256SOL     OW 9785   4.627   1.948   0.133
 3256SOL    HW1 9786   4.678   1.949   0.047
 3256SOL    HW2 9787   4.683   1.906   0.204
 3257SOL     OW 9788   3.854   3.656   1.851
 3257SOL    HW1 9789   3.813   3.582   1.904
 3257SOL    HW2 9790   3.918   3.707   1.909
 3258SOL     OW 9791   5.004   2.789   0.672
 3258SOL    HW1 9792   5.064   2.708   0.674
 3258SOL    HW2 9793   5.044   2.858   0.612
 3259SOL     OW 9794   4.554   3.135   1.422
 3259SOL    HW1 9795   4.549   3.168   1.517
 3259SOL    HW2 9796   4.468   3.154   1.376
 3260SOL     OW 9797   4.396   3.478   0.154
 3260SOL    HW1 9798   4.405   3.488   0.055
 3260SOL    HW2 9799   4.356   3.389   0.175
 3261SOL     OW 9800   3.987   2.188   0.720
 3261SOL    HW1 9801   3.908   2.239   0.686
 3261SOL    HW2 9802   3.978   2.173   0.818
 3262SOL     OW 9803   4.546   2.864   1.372
 3262SOL    HW1 9804   4.586   2.863   1.280
 3262SOL    HW2 9805   4.556   2.956   1.412
 3263SOL     OW 9806   4.640   2.772   0.291
 3263SOL    HW1 9807   4.703   2.810   0.223
 3263SOL    HW2 9808   4.680   2.689   0.330
 3264SOL     OW 9809   4.096   3.150   1.490
 3264SOL    HW1 9810   4.083   3.243   1.456
 3264SOL    HW2 9811   4.012   3.098   1.477
 3265SOL     OW 9812   4.763   2.960   0.696
 3265SOL    HW1 9813   4.693   2.913   0.750
 3265SOL    HW2 9814   4.822   2.892   0.653
 3266SOL     OW 9815   4.738   2.098   0.971
 3266SOL    HW1 9816   4.730   2.062   0.878
 3266SOL    HW2 9817   4.736   2.022   1.036
 3267SOL     OW 9818   4.314   3.349   0.491
 3267SOL    HW1 9819   4.356   3.291   0.421
 3267SOL    HW2 9820   4.270   3.428   0.447
 3268SOL     OW 9821   3.979   3.210   0.290
 3268SOL    HW1 9822   3.883   3.211   0.263
 3268SOL    HW2 9823   3.991   3.263   0.374
 3269SOL     OW 9824   3.829   2.875   1.726
 3269SOL    HW1 9825   3.752   2.842   1.780
 3269SOL    HW2 9826   3.914   2.845   1.768
 3270SOL     OW 9827   4.396   2.065   1.489
 3270SOL    HW1 9828   4.486   2.049   1.449
 3270SOL    HW2 9829   4.404   2.070   1.588
 3271SOL     OW 9830   3.799   2.207   0.033
 3271SOL    HW1 9831   3.707   2.179   0.004
 3271SOL    HW2 9832   3.830   2.284  -0.023
 3272SOL     OW 9833   3.796   2.028   0.318
 3272SOL    HW1 9834   3.779   2.111   0.264
 3272SOL    HW2 9835   3.886   1.991   0.296
 3273SOL     OW 9836   4.337   2.704   1.431
 3273SOL    HW1 9837   4.393   2.785   1.414
 3273SOL    HW2 9838   4.396   2.624   1.434
 3274SOL     OW 9839   4.440   2.427   1.708
 3274SOL    HW1 9840   4.459   2.492   1.782
 3274SOL    HW2 9841   4.500   2.347   1.717
 3275SOL     OW 9842   4.114   3.603   1.560
 3275SOL    HW1 9843   4.023   3.644   1.558
 3275SOL    HW2 9844   4.107   3.509   1.592
 3276SOL     OW 9845   4.949   2.187   0.449
 3276SOL    HW1 9846   5.014   2.113   0.438
 3276SOL    HW2 9847   4.969   2.237   0.533
 3277SOL     OW 9848   4.318   2.607   0.652
 3277SOL    HW1 9849   4.368   2.692   0.633
 3277SOL    HW2 9850   4.230   2.609   0.604
 3278SOL     OW 9851   4.583   3.236   0.016
 3278SOL    HW1 9852   4.537   3.251   0.104
 3278SOL    HW2 9853   4.627   3.321  -0.014
 3279SOL     OW 9854   4.385   3.652   0.953
 3279SOL    HW1 9855   4.339   3.740   0.940
 3279SOL    HW2 9856   4.484   3.664   0.946
 3280SOL     OW 9857   4.583   2.818   0.861
 3280SOL    HW1 9858   4.637   2.749   0.909
 3280SOL    HW2 9859   4.551   2.887   0.927
 3281SOL     OW 9860   4.807   2.846   0.087
 3281SOL    HW1 9861   4.784   2.899   0.005
 3281SOL    HW2 9862   4.888   2.790   0.068
 3282SOL     OW 9863   3.945   3.176   1.844
 3282SOL    HW1 9864   3.880   3.103   1.823
 3282SOL    HW2 9865   3.949   3.190   1.942
 3283SOL     OW 9866   3.803   3.102   0.653
 3283SOL    HW1 9867   3.802   3.055   0.741
 3283SOL    HW2 9868   3.885   3.074   0.602
 3284SOL     OW 9869   4.396   3.253   1.624
 3284SOL    HW1 9870   4.318   3.203   1.662
 3284SOL    HW2 9871   4.393   3.348   1.655
 3285SOL     OW 9872   4.152   2.286   0.520
 3285SOL    HW1 9873   4.182   2.214   0.458
 3285SOL    HW2 9874   4.113   2.246   0.603
 3286SOL     OW 9875   4.041   2.409   1.280
 3286SOL    HW1 9876   4.079   2.350   1.352
 3286SOL    HW2 9877   4.081   2.383   1.192
 3287SOL     OW 9878   4.536   3.448   0.687
 3287SOL    HW1 9879   4.568   3.458   0.593
 3287SOL    HW2 9880   4.457   3.386   0.689
 3288SOL     OW 9881   4.725   1.896   1.154
 3288SOL    HW1 9882   4.662   1.824   1.123
 3288SOL    HW2 9883   4.818   1.860   1.154
 3289SOL     OW 9884   4.494   3.192   0.301
 3289SOL    HW1 9885   4.448   3.105   0.318
 3289SOL    HW2 9886   4.585   3.189   0.342
 3290SOL     OW 9887   4.342   3.429   1.284
 3290SOL    HW1 9888   4.337   3.511   1.341
 3290SOL    HW2 9889   4.431   3.426   1.239
 3291SOL     OW 9890   3.763   2.939   0.300
 3291SOL    HW1 9891   3.862   2.928   0.291
 3291SOL    HW2 9892   3.723   2.853   0.332
 3292SOL     OW 9893   4.599   3.508   0.337
 3292SOL    HW1 9894   4.522   3.473   0.283
 3292SOL    HW2 9895   4.567   3.579   0.399
 3293SOL     OW 9896   3.954   2.490   1.975
 3293SOL    HW1 9897   3.861   2.488   2.012
 3293SOL    HW2 9898   3.955   2.451   1.883
 3294SOL     OW 9899   3.949   2.137   2.858
 3294SOL    HW1 9900   3.984   2.120   2.950
 3294SOL    HW2 9901   3.861   2.092   2.846
 3295SOL     OW 9902   3.743   2.230   2.509
 3295SOL    HW1 9903   3.661   2.273   2.548
 3295SOL    HW2 9904   3.715   2.157   2.446
 3296SOL     OW 9905   4.293   3.137   3.027
 3296SOL    HW1 9906   4.200   3.130   2.990
 3296SOL    HW2 9907   4.304   3.226   3.071
 3297SOL     OW 9908   4.492   3.006   2.885
 3297SOL    HW1 9909   4.414   3.023   2.945
 3297SOL    HW2 9910   4.526   3.093   2.849
 3298SOL     OW 9911   4.574   2.660   3.685
 3298SOL    HW1 9912   4.570   2.736   3.750
 3298SOL    HW2 9913   4.596   2.696   3.594
 3299SOL     OW 9914   4.409   2.874   2.527
 3299SOL    HW1 9915   4.478   2.858   2.597
 3299SOL    HW2 9916   4.336   2.931   2.565
 3300SOL     OW 9917   4.410   3.023   3.665
 3300SOL    HW1 9918   4.470   3.102   3.679
 3300SOL    HW2 9919   4.324   3.054   3.624
 3301SOL     OW 9920   4.059   3.297   2.923
 3301SOL    HW1 9921   3.981   3.266   2.870
 3301SOL    HW2 9922   4.117   3.355   2.866
 3302SOL     OW 9923   4.162   2.254   3.361
 3302SOL    HW1 9924   4.244   2.198   3.370
 3302SOL    HW2 9925   4.081   2.196   3.365
 3303SOL     OW 9926   3.955   3.575   2.345
 3303SOL    HW1 9927   3.989   3.652   2.399
 3303SOL    HW2 9928   3.999   3.575   2.255
 3304SOL     OW 9929   3.954   3.296   2.400
 3304SOL    HW1 9930   3.928   3.392   2.400
 3304SOL    HW2 9931   3.883   3.242   2.445
 3305SOL     OW 9932   3.964   2.953   2.748
 3305SOL    HW1 9933   3.978   2.869   2.800
 3305SOL    HW2 9934   3.909   3.017   2.803
 3306SOL     OW 9935   4.344   3.648   3.301
 3306SOL    HW1 9936   4.252   3.631   3.336
 3306SOL    HW2 9937   4.372   3.740   3.327
 3307SOL     OW 9938   4.330   2.826   1.985
 3307SOL    HW1 9939   4.337   2.910   1.931
 3307SOL    HW2 9940   4.376   2.839   2.073
 3308SOL     OW 9941   3.846   2.505   2.425
 3308SOL    HW1 9942   3.801   2.417   2.442
 3308SOL    HW2 9943   3.845   2.559   2.509
 3309SOL     OW 9944   3.751   3.458   1.979
 3309SOL    HW1 9945   3.732   3.362   2.000
 3309SOL    HW2 9946   3.718   3.516   2.054
 3310SOL     OW 9947   3.837   2.599   3.459
 3310SOL    HW1 9948   3.925   2.586   3.504
 3310SOL    HW2 9949   3.824   2.696   3.437
 3311SOL     OW 9950   4.337   3.227   2.588
 3311SOL    HW1 9951   4.288   3.140   2.597
 3311SOL    HW2 9952   4.314   3.270   2.501
 3312SOL     OW 9953   4.533   1.866   2.364
 3312SOL    HW1 9954   4.573   1.957   2.355
 3312SOL    HW2 9955   4.433   1.874   2.370
 3313SOL     OW 9956   3.921   2.838   3.126
 3313SOL    HW1 9957   4.010   2.793   3.112
 3313SOL    HW2 9958   3.848   2.773   3.107
 3314SOL     OW 9959   4.041   2.113   3.663
 3314SOL    HW1 9960   4.112   2.184   3.669
 3314SOL    HW2 9961   3.953   2.152   3.691
 3315SOL     OW 9962   4.322   2.591   2.132
 3315SOL    HW1 9963   4.346   2.660   2.064
 3315SOL    HW2 9964   4.244   2.624   2.186
 3316SOL     OW 9965   4.531   2.467   3.327
 3316SOL    HW1 9966   4.484   2.464   3.416
 3316SOL    HW2 9967   4.480   2.412   3.261
 3317SOL     OW 9968   4.697   2.752   3.434
 3317SOL    HW1 9969   4.743   2.668   3.405
 3317SOL    HW2 9970   4.641   2.786   3.359
 3318SOL     OW 9971   4.715   2.272   3.104
 3318SOL    HW1 9972   4.638   2.306   3.158
 3318SOL    HW2 9973   4.681   2.221   3.025
 3319SOL     OW 9974   4.765   2.563   2.291
 3319SOL    HW1 9975   4.791   2.559   2.387
 3319SOL    HW2 9976   4.680   2.512   2.277
 3320SOL     OW 9977   3.800   2.673   2.651
 3320SOL    HW1 9978   3.899   2.661   2.660
 3320SOL    HW2 9979   3.776   2.768   2.672
 3321SOL     OW 9980   3.854   3.683   3.433
 3321SOL    HW1 9981   3.844   3.668   3.532
 3321SOL    HW2 9982   3.768   3.719   3.397
 3322SOL     OW 9983   4.589   2.210   2.057
 3322SOL    HW1 9984   4.648   2.273   2.008
 3322SOL    HW2 9985   4.608   2.116   2.028
 3323SOL     OW 9986   4.274   2.058   2.747
 3323SOL    HW1 9987   4.269   2.053   2.847
 3323SOL    HW2 9988   4.276   2.154   2.718
 3324SOL     OW 9989   4.732   3.318   2.339
 3324SOL    HW1 9990   4.686   3.390   2.287
 3324SOL    HW2 9991   4.728   3.338   2.437
 3325SOL     OW 9992   4.075   3.663   2.715
 3325SOL    HW1 9993   4.125   3.577   2.721
 3325SOL    HW2 9994   4.140   3.740   2.712
 3326SOL     OW 9995   4.045   2.805   2.104
 3326SOL    HW1 9996   4.127   2.844   2.062
 3326SOL    HW2 9997   4.018   2.723   2.055
 3327SOL     OW 9998   4.185   3.128   3.589
 3327SOL    HW1 9999   4.135   3.129   3.503
 3327SOL    HW210000   4.122   3.110   3.665
 3328SOL     OW10001   3.926   2.147   3.360
 3328SOL    HW110002   3.846   2.207   3.347
 3328SOL    HW210003   3.916   2.098   3.446
 3329SOL     OW10004   4.188   3.605   2.185
 3329SOL    HW110005   4.221   3.644   2.271
 3329SOL    HW210006   4.264   3.598   2.120
 3330SOL     OW10007   3.973   3.647   3.103
 3330SOL    HW110008   4.030   3.582   3.153
 3330SOL    HW210009   3.957   3.614   3.010
 3331SOL     OW10010   4.664   3.560   2.766
 3331SOL    HW110011   4.744   3.503   2.787
 3331SOL    HW210012   4.615   3.520   2.689
 3332SOL     OW10013   4.106   2.562   2.342
 3332SOL    HW110014   4.151   2.472   2.339
 3332SOL    HW210015   4.012   2.551   2.375
 3333SOL     OW10016   4.338   1.984   1.979
 3333SOL    HW110017   4.436   1.962   1.986
 3333SOL    HW210018   4.307   1.967   1.886
 3334SOL     OW10019   4.505   2.126   3.611
 3334SOL    HW110020   4.572   2.065   3.654
 3334SOL    HW210021   4.432   2.145   3.676
 3335SOL     OW10022   4.612   3.376   3.057
 3335SOL    HW110023   4.589   3.351   2.963
 3335SOL    HW210024   4.673   3.307   3.096
 3336SOL     OW10025   4.527   3.264   2.786
 3336SOL    HW110026   4.617   3.278   2.744
 3336SOL    HW210027   4.456   3.266   2.715
 3337SOL     OW10028   4.646   2.365   2.761
 3337SOL    HW110029   4.621   2.356   2.665
 3337SOL    HW210030   4.694   2.283   2.792
 3338SOL     OW10031   4.263   1.926   2.374
 3338SOL    HW110032   4.182   1.927   2.432
 3338SOL    HW210033   4.266   2.009   2.319
 3339SOL     OW10034   4.021   1.897   2.033
 3339SOL    HW110035   4.070   1.981   2.012
 3339SOL    HW210036   4.083   1.832   2.078
 3340SOL     OW10037   4.659   2.098   2.342
 3340SOL    HW110038   4.611   2.139   2.264
 3340SOL    HW210039   4.758   2.096   2.323
 3341SOL     OW10040   4.951   3.432   2.655
 3341SOL    HW110041   4.972   3.506   2.590
 3341SOL    HW210042   5.019   3.432   2.728
 3342SOL     OW10043   4.183   3.014   2.603
 3342SOL    HW110044   4.112   2.987   2.668
 3342SOL    HW210045   4.157   2.986   2.510
 3343SOL     OW10046   4.756   2.411   1.878
 3343SOL    HW110047   4.715   2.493   1.839
 3343SOL    HW210048   4.820   2.437   1.951
 3344SOL     OW10049   3.802   2.418   3.248
 3344SOL    HW110050   3.894   2.417   3.207
 3344SOL    HW210051   3.796   2.492   3.315
 3345SOL     OW10052   4.285   2.084   3.009
 3345SOL    HW110053   4.323   2.000   3.046
 3345SOL    HW210054   4.197   2.103   3.053
 3346SOL     OW10055   4.590   2.316   2.504
 3346SOL    HW110056   4.558   2.388   2.442
 3346SOL    HW210057   4.614   2.235   2.451
 3347SOL     OW10058   4.741   1.901   2.615
 3347SOL    HW110059   4.669   1.906   2.546
 3347SOL    HW210060   4.717   1.832   2.684
 3348SOL     OW10061   4.212   3.247   2.036
 3348SOL    HW110062   4.125   3.232   2.083
 3348SOL    HW210063   4.195   3.273   1.941
 3349SOL     OW10064   4.251   2.118   2.190
 3349SOL    HW110065   4.278   2.059   2.115
 3349SOL    HW210066   4.251   2.213   2.159
 3350SOL     OW10067   4.639   1.951   3.264
 3350SOL    HW110068   4.664   1.931   3.169
 3350SOL    HW210069   4.711   2.007   3.306
 3351SOL     OW10070   4.704   2.978   3.581
 3351SOL    HW110071   4.605   2.984   3.591
 3351SOL    HW210072   4.727   2.898   3.525
 3352SOL     OW10073   4.429   2.912   2.230
 3352SOL    HW110074   4.415   2.919   2.329
 3352SOL    HW210075   4.513   2.861   2.212
 3353SOL     OW10076   4.134   2.675   3.113
 3353SOL    HW110077   4.220   2.687   3.163
 3353SOL    HW210078   4.092   2.588   3.140
 3354SOL     OW10079   3.788   3.426   3.193
 3354SOL    HW110080   3.742   3.508   3.159
 3354SOL    HW210081   3.886   3.445   3.202
 3355SOL     OW10082   4.091   2.962   2.363
 3355SOL    HW110083   4.084   3.045   2.307
 3355SOL    HW210084   4.095   2.882   2.303
 3356SOL     OW10085   4.290   2.399   2.727
 3356SOL    HW110086   4.302   2.465   2.653
 3356SOL    HW210087   4.336   2.433   2.810
 3357SOL     OW10088   4.078   3.372   3.191
 3357SOL    HW110089   4.057   3.328   3.104
 3357SOL    HW210090   4.175   3.398   3.194
 3358SOL     OW10091   4.126   2.613   3.460
 3358SOL    HW110092   4.194   2.668   3.413
 3358SOL    HW210093   4.166   2.525   3.487
 3359SOL     OW10094   4.737   1.967   3.632
 3359SOL    HW110095   4.743   2.052   3.580
 3359SOL    HW210096   4.769   1.891   3.575
 3360SOL     OW10097   4.228   1.912   3.602
 3360SOL    HW110098   4.186   1.855   3.532
 3360SOL    HW210099   4.162   1.981   3.634
 3361SOL     OW10100   4.297   2.732   2.891
 3361SOL    HW110101   4.341   2.821   2.882
 3361SOL    HW210102   4.234   2.732   2.968
 3362SOL     OW10103   4.933   2.387   2.137
 3362SOL    HW110104   4.946   2.303   2.191
 3362SOL    HW210105   4.904   2.461   2.197
 3363SOL     OW10106   4.031   2.075   3.093
 3363SOL    HW110107   4.008   2.112   3.183
 3363SOL    HW210108   4.001   1.980   3.087
 3364SOL     OW10109   3.761   3.172   3.144
 3364SOL    HW110110   3.814   3.123   3.212
 3364SOL    HW210111   3.783   3.270   3.149
 3365SOL     OW10112   4.456   2.496   2.926
 3365SOL    HW110113   4.515   2.470   2.850
 3365SOL    HW210114   4.428   2.592   2.915
 3366SOL     OW10115   4.031   1.925   2.480
 3366SOL    HW110116   4.020   2.019   2.513
 3366SOL    HW210117   4.026   1.862   2.557
 3367SOL     OW10118   4.747   2.628   2.828
 3367SOL    HW110119   4.762   2.649   2.924
 3367SOL    HW210120   4.717   2.533   2.819
 3368SOL     OW10121   4.704   3.435   3.562
 3368SOL    HW110122   4.684   3.479   3.474
 3368SOL    HW210123   4.743   3.344   3.546
 3369SOL     OW10124   4.074   2.760   3.666
 3369SOL    HW110125   4.150   2.804   3.714
 3369SOL    HW210126   4.109   2.713   3.584
 3370SOL     OW10127   4.043   2.672   2.811
 3370SOL    HW110128   4.136   2.708   2.816
 3370SOL    HW210129   4.037   2.587   2.863
 3371SOL     OW10130   4.063   2.371   2.868
 3371SOL    HW110131   4.011   2.288   2.851
 3371SOL    HW210132   4.140   2.376   2.804
 3372SOL     OW10133   3.732   3.188   2.062
 3372SOL    HW110134   3.639   3.209   2.031
 3372SOL    HW210135   3.742   3.089   2.075
 3373SOL     OW10136   3.812   3.663   2.789
 3373SOL    HW110137   3.770   3.577   2.762
 3373SOL    HW210138   3.906   3.666   2.755
 3374SOL     OW10139   4.228   3.430   2.772
 3374SOL    HW110140   4.294   3.504   2.781
 3374SOL    HW210141   4.272   3.351   2.730
 3375SOL     OW10142   4.726   2.658   3.100
 3375SOL    HW110143   4.767   2.626   3.186
 3375SOL    HW210144   4.630   2.631   3.097
 3376SOL     OW10145   3.764   2.406   2.976
 3376SOL    HW110146   3.849   2.373   2.935
 3376SOL    HW210147   3.777   2.421   3.074
 3377SOL     OW10148   3.913   2.382   3.584
 3377SOL    HW110149   3.972   2.342   3.514
 3377SOL    HW210150   3.855   2.453   3.543
 3378SOL     OW10151   4.539   2.434   2.187
 3378SOL    HW110152   4.546   2.345   2.141
 3378SOL    HW210153   4.445   2.468   2.179
 3379SOL     OW10154   3.976   3.426   3.606
 3379SOL    HW110155   3.946   3.483   3.682
 3379SOL    HW210156   3.969   3.329   3.632
 3380SOL     OW10157   4.395   2.326   3.131
 3380SOL    HW110158   4.361   2.237   3.101
 3380SOL    HW210159   4.421   2.380   3.051
 3381SOL     OW10160   4.654   3.540   3.327
 3381SOL    HW110161   4.630   3.522   3.232
 3381SOL    HW210162   4.684   3.634   3.337
 3382SOL     OW10163   4.197   2.362   2.053
 3382SOL    HW110164   4.258   2.442   2.057
 3382SOL    HW210165   4.102   2.393   2.060
 3383SOL     OW10166   3.883   2.999   3.328
 3383SOL    HW110167   3.905   2.938   3.404
 3383SOL    HW210168   3.893   2.950   3.242
 3384SOL     OW10169   3.807   3.120   2.884
 3384SOL    HW110170   3.802   3.119   2.984
 3384SOL    HW210171   3.724   3.079   2.846
 3385SOL     OW10172   4.412   3.524   3.578
 3385SOL    HW110173   4.356   3.605   3.587
 3385SOL    HW210174   4.464   3.528   3.492
 3386SOL     OW10175   3.854   3.656   3.713
 3386SOL    HW110176   3.813   3.582   3.766
 3386SOL    HW210177   3.918   3.707   3.771
 3387SOL     OW10178   5.004   2.789   2.534
 3387SOL    HW110179   5.064   2.708   2.536
 3387SOL    HW210180   5.044   2.858   2.474
 3388SOL     OW10181   4.554   3.135   3.284
 3388SOL    HW110182   4.549   3.168   3.379
 3388SOL    HW210183   4.468   3.154   3.238
 3389SOL     OW10184   4.396   3.478   2.016
 3389SOL    HW110185   4.405   3.488   1.917
 3389SOL    HW210186   4.356   3.389   2.037
 3390SOL     OW10187   3.987   2.188   2.582
 3390SOL    HW110188   3.908   2.239   2.548
 3390SOL    HW210189   3.978   2.173   2.680
 3391SOL     OW10190   4.546   2.864   3.234
 3391SOL    HW110191   4.586   2.863   3.142
 3391SOL    HW210192   4.556   2.956   3.274
 3392SOL     OW10193   4.640   2.772   2.153
 3392SOL    HW110194   4.703   2.810   2.085
 3392SOL    HW210195   4.680   2.689   2.192
 3393SOL     OW10196   4.096   3.150   3.352
 3393SOL    HW110197   4.083   3.243   3.318
 3393SOL    HW210198   4.012   3.098   3.339
 3394SOL     OW10199   4.763   2.960   2.558
 3394SOL    HW110200   4.693   2.913   2.612
 3394SOL    HW210201   4.822   2.892   2.515
 3395SOL     OW10202   4.738   2.098   2.833
 3395SOL    HW110203   4.730   2.062   2.740
 3395SOL    HW210204   4.736   2.022   2.898
 3396SOL     OW10205   4.314   3.349   2.353
 3396SOL    HW110206   4.356   3.291   2.283
 3396SOL    HW210207   4.270   3.428   2.309
 3397SOL     OW10208   3.979   3.210   2.152
 3397SOL    HW110209   3.883   3.211   2.125
 3397SOL    HW210210   3.991   3.263   2.236
 3398SOL     OW10211   3.829   2.875   3.588
 3398SOL    HW110212   3.752   2.842   3.642
 3398SOL    HW210213   3.914   2.845   3.630
 3399SOL     OW10214   4.396   2.065   3.351
 3399SOL    HW110215   4.486   2.049   3.311
 3399SOL    HW210216   4.404   2.070   3.450
 3400SOL     OW10217   3.799   2.207   1.895
 3400SOL    HW110218   3.707   2.179   1.866
 3400SOL    HW210219   3.830   2.284   1.839
 3401SOL     OW10220   3.796   2.028   2.180
 3401SOL    HW110221   3.779   2.111   2.126
 3401SOL    HW210222   3.886   1.991   2.158
 3402SOL     OW10223   4.337   2.704   3.293
 3402SOL    HW110224   4.393   2.785   3.276
 3402SOL    HW210225   4.396   2.624   3.296
 3403SOL     OW10226   4.440   2.427   3.570
 3403SOL    HW110227   4.459   2.492   3.644
 3403SOL    HW210228   4.500   2.347   3.579
 3404SOL     OW10229   4.114   3.603   3.422
 3404SOL    HW110230   4.023   3.644   3.420
 3404SOL    HW210231   4.107   3.509   3.454
 3405SOL     OW10232   4.949   2.187   2.311
 3405SOL    HW110233   5.014   2.113   2.300
 3405SOL    HW210234   4.969   2.237   2.395
 3406SOL     OW10235   4.318   2.607   2.514
 3406SOL    HW110236   4.368   2.692   2.495
 3406SOL    HW210237   4.230   2.609   2.466
 3407SOL     OW10238   4.583   3.236   1.878
 3407SOL    HW110239   4.537   3.251   1.966
 3407SOL    HW210240   4.627   3.321   1.848
 3408SOL     OW10241   4.385   3.652   2.815
 3408SOL    HW110242   4.339   3.740   2.802
 3408SOL    HW210243   4.484   3.664   2.808
 3409SOL     OW10244   4.583   2.818   2.723
 3409SOL    HW110245   4.637   2.749   2.771
 3409SOL    HW210246   4.551   2.887   2.789
 3410SOL     OW10247   3.945   3.176   3.706
 3410SOL    HW110248   3.880   3.103   3.685
 3410SOL    HW210249   3.949   3.190   3.804
 3411SOL     OW10250   3.803   3.102   2.515
 3411SOL    HW110251   3.802   3.055   2.603
 3411SOL    HW210252   3.885   3.074   2.464
 3412SOL     OW10253   4.396   3.253   3.486
 3412SOL    HW110254   4.318   3.203   3.524
 3412SOL    HW210255   4.393   3.348   3.517
 3413SOL     OW10256   4.152   2.286   2.382
 3413SOL    HW110257   4.182   2.214   2.320
 3413SOL    HW210258   4.113   2.246   2.465
 3414SOL     OW10259   4.041   2.409   3.142
 3414SOL    HW110260   4.079   2.350   3.214
 3414SOL    HW210261   4.081   2.383   3.054
 3415SOL     OW10262   4.536   3.448   2.549
 3415SOL    HW110263   4.568   3.458   2.455
 3415SOL    HW210264   4.457   3.386   2.551
 3416SOL     OW10265   4.725   1.896   3.016
 3416SOL    HW110266   4.662   1.824   2.985
 3416SOL    HW210267   4.818   1.860   3.016
 3417SOL     OW10268   4.494   3.192   2.163
 3417SOL    HW110269   4.448   3.105   2.180
 3417SOL    HW210270   4.585   3.189   2.204
 3418SOL     OW10271   4.342   3.429   3.146
 3418SOL    HW110272   4.337   3.511   3.203
 3418SOL    HW210273   4.431   3.426   3.101
 3419SOL     OW10274   3.763   2.939   2.162
 3419SOL    HW110275   3.862   2.928   2.153
 3419SOL    HW210276   3.723   2.853   2.194
 3420SOL     OW10277   4.599   3.508   2.199
 3420SOL    HW110278   4.522   3.473   2.145
 3420SOL    HW210279   4.567   3.579   2.261
 3421SOL     OW10280   3.954   2.490   3.837
 3421SOL    HW110281   3.861   2.488   3.874
 3421SOL    HW210282   3.955   2.451   3.745
 3422SOL     OW10283   3.949   2.137   4.720
 3422SOL    HW110284   3.984   2.120   4.812
 3422SOL    HW210285   3.861   2.092   4.708
 3423SOL     OW10286   3.743   2.230   4.371
 3423SOL    HW110287   3.661   2.273   4.410
 3423SOL    HW210288   3.715   2.157   4.308
 3424SOL     OW10289   4.492   3.006   4.747
 3424SOL    HW110290   4.414   3.023   4.807
 3424SOL    HW210291   4.526   3.093   4.711
 3425SOL     OW10292   4.409   2.874   4.389
 3425SOL    HW110293   4.478   2.858   4.459
 3425SOL    HW210294   4.336   2.931   4.427
 3426SOL     OW10295   4.059   3.297   4.785
 3426SOL    HW110296   3.981   3.266   4.732
 3426SOL    HW210297   4.117   3.355   4.728
 3427SOL     OW10298   3.955   3.575   4.207
 3427SOL    HW110299   3.989   3.652   4.261
 3427SOL    HW210300   3.999   3.575   4.117
 3428SOL     OW10301   3.954   3.296   4.262
 3428SOL    HW110302   3.928   3.392   4.262
 3428SOL    HW210303   3.883   3.242   4.307
 3429SOL     OW10304   3.964   2.953   4.610
 3429SOL    HW110305   3.978   2.869   4.662
 3429SOL    HW210306   3.909   3.017   4.665
 3430SOL     OW10307   4.330   2.826   3.847
 3430SOL    HW110308   4.337   2.910   3.793
 3430SOL    HW210309   4.376   2.839   3.935
 3431SOL     OW10310   3.846   2.505   4.287
 3431SOL    HW110311   3.801   2.417   4.304
 3431SOL    HW210312   3.845   2.559   4.371
 3432SOL     OW10313   3.751   3.458   3.841
 3432SOL    HW110314   3.732   3.362   3.862
 3432SOL    HW210315   3.718   3.516   3.916
 3433SOL     OW10316   4.337   3.227   4.450
 3433SOL    HW110317   4.288   3.140   4.459
 3433SOL    HW210318   4.314   3.270   4.363
 3434SOL     OW10319   4.533   1.866   4.226
 3434SOL    HW110320   4.573   1.957   4.217
 3434SOL    HW210321   4.433   1.874   4.232
 3435SOL     OW10322   4.322   2.591   3.994
 3435SOL    HW110323   4.346   2.660   3.926
 3435SOL    HW210324   4.244   2.624   4.048
 3436SOL     OW10325   4.765   2.563   4.153
 3436SOL    HW110326   4.791   2.559   4.249
 3436SOL    HW210327   4.680   2.512   4.139
 3437SOL     OW10328   3.800   2.673   4.513
 3437SOL    HW110329   3.899   2.661   4.522
 3437SOL    HW210330   3.776   2.768   4.534
 3438SOL     OW10331   4.589   2.210   3.919
 3438SOL    HW110332   4.648   2.273   3.870
 3438SOL    HW210333   4.608   2.116   3.890
 3439SOL     OW10334   4.274   2.058   4.609
 3439SOL    HW110335   4.269   2.053   4.709
 3439SOL    HW210336   4.276   2.154   4.580
 3440SOL     OW10337   4.732   3.318   4.201
 3440SOL    HW110338   4.686   3.390   4.149
 3440SOL    HW210339   4.728   3.338   4.299
 3441SOL     OW10340   4.075   3.663   4.577
 3441SOL    HW110341   4.125   3.577   4.583
 3441SOL    HW210342   4.140   3.740   4.574
 3442SOL     OW10343   4.045   2.805   3.966
 3442SOL    HW110344   4.127   2.844   3.924
 3442SOL    HW210345   4.018   2.723   3.917
 3443SOL     OW10346   4.188   3.605   4.047
 3443SOL    HW110347   4.221   3.644   4.133
 3443SOL    HW210348   4.264   3.598   3.982
 3444SOL     OW10349   3.973   3.647   4.965
 3444SOL    HW110350   4.030   3.582   5.015
 3444SOL    HW210351   3.957   3.614   4.872
 3445SOL     OW10352   4.664   3.560   4.628
 3445SOL    HW110353   4.744   3.503   4.649
 3445SOL    HW210354   4.615   3.520   4.551
 3446SOL     OW10355   4.106   2.562   4.204
 3446SOL    HW110356   4.151   2.472   4.201
 3446SOL    HW210357   4.012   2.551   4.237
 3447SOL     OW10358   4.338   1.984   3.841
 3447SOL    HW110359   4.436   1.962   3.848
 3447SOL    HW210360   4.307   1.967   3.748
 3448SOL     OW10361   4.527   3.264   4.648
 3448SOL    HW110362   4.617   3.278   4.606
 3448SOL    HW210363   4.456   3.266   4.577
 3449SOL     OW10364   4.646   2.365   4.623
 3449SOL    HW110365   4.621   2.356   4.527
 3449SOL    HW210366   4.694   2.283   4.654
 3450SOL     OW10367   4.263   1.926   4.236
 3450SOL    HW110368   4.182   1.927   4.294
 3450SOL    HW210369   4.266   2.009   4.181
 3451SOL     OW10370   4.021   1.897   3.895
 3451SOL    HW110371   4.070   1.981   3.874
 3451SOL    HW210372   4.083   1.832   3.940
 3452SOL     OW10373   4.659   2.098   4.204
 3452SOL    HW110374   4.611   2.139   4.126
 3452SOL    HW210375   4.758   2.096   4.185
 3453SOL     OW10376   4.951   3.432   4.517
 3453SOL    HW110377   4.972   3.506   4.452
 3453SOL    HW210378   5.019   3.432   4.590
 3454SOL     OW10379   4.183   3.014   4.465
 3454SOL    HW110380   4.112   2.987   4.530
 3454SOL    HW210381   4.157   2.986   4.372
 3455SOL     OW10382   4.756   2.411   3.740
 3455SOL    HW110383   4.715   2.493   3.701
 3455SOL    HW210384   4.820   2.437   3.813
 3456SOL     OW10385   4.590   2.316   4.366
 3456SOL    HW110386   4.558   2.388   4.304
 3456SOL    HW210387   4.614   2.235   4.313
 3457SOL     OW10388   4.741   1.901   4.477
 3457SOL    HW110389   4.669   1.906   4.408
 3457SOL    HW210390   4.717   1.832   4.546
 3458SOL     OW10391   4.212   3.247   3.898
 3458SOL    HW110392   4.125   3.232   3.945
 3458SOL    HW210393   4.195   3.273   3.803
 3459SOL     OW10394   4.251   2.118   4.052
 3459SOL    HW110395   4.278   2.059   3.977
 3459SOL    HW210396   4.251   2.213   4.021
 3460SOL     OW10397   4.429   2.912   4.092
 3460SOL    HW110398   4.415   2.919   4.191
 3460SOL    HW210399   4.513   2.861   4.074
 3461SOL     OW10400   4.091   2.962   4.225
 3461SOL    HW110401   4.084   3.045   4.169
 3461SOL    HW210402   4.095   2.882   4.165
 3462SOL     OW10403   4.290   2.399   4.589
 3462SOL    HW110404   4.302   2.465   4.515
 3462SOL    HW210405   4.336   2.433   4.672
 3463SOL     OW10406   4.297   2.732   4.753
 3463SOL    HW110407   4.341   2.821   4.744
 3463SOL    HW210408   4.234   2.732   4.830
 3464SOL     OW10409   4.933   2.387   3.999
 3464SOL    HW110410   4.946   2.303   4.053
 3464SOL    HW210411   4.904   2.461   4.059
 3465SOL     OW10412   4.031   2.075   4.955
 3465SOL    HW110413   4.008   2.112   5.045
 3465SOL    HW210414   4.001   1.980   4.949
 3466SOL     OW10415   4.456   2.496   4.788
 3466SOL    HW110416   4.515   2.470   4.712
 3466SOL    HW210417   4.428   2.592   4.777
 3467SOL     OW10418   4.031   1.925   4.342
 3467SOL    HW110419   4.020   2.019   4.375
 3467SOL    HW210420   4.026   1.862   4.419
 3468SOL     OW10421   4.043   2.672   4.673
 3468SOL    HW110422   4.136   2.708   4.678
 3468SOL    HW210423   4.037   2.587   4.725
 3469SOL     OW10424   4.063   2.371   4.730
 3469SOL    HW110425   4.011   2.288   4.713
 3469SOL    HW210426   4.140   2.376   4.666
 3470SOL     OW10427   3.732   3.188   3.924
 3470SOL    HW110428   3.639   3.209   3.893
 3470SOL    HW210429   3.742   3.089   3.937
 3471SOL     OW10430   3.812   3.663   4.651
 3471SOL    HW110431   3.770   3.577   4.624
 3471SOL    HW210432   3.906   3.666   4.617
 3472SOL     OW10433   4.228   3.430   4.634
 3472SOL    HW110434   4.294   3.504   4.643
 3472SOL    HW210435   4.272   3.351   4.592
 3473SOL     OW10436   4.726   2.658   4.962
 3473SOL    HW110437   4.767   2.626   5.048
 3473SOL    HW210438   4.630   2.631   4.959
 3474SOL     OW10439   4.539   2.434   4.049
 3474SOL    HW110440   4.546   2.345   4.003
 3474SOL    HW210441   4.445   2.468   4.041
 3475SOL     OW10442   4.395   2.326   4.993
 3475SOL    HW110443   4.361   2.237   4.963
 3475SOL    HW210444   4.421   2.380   4.913
 3476SOL     OW10445   4.197   2.362   3.915
 3476SOL    HW110446   4.258   2.442   3.919
 3476SOL    HW210447   4.102   2.393   3.922
 3477SOL     OW10448   3.807   3.120   4.746
 3477SOL    HW110449   3.802   3.119   4.846
 3477SOL    HW210450   3.724   3.079   4.708
 3478SOL     OW10451   5.004   2.789   4.396
 3478SOL    HW110452   5.064   2.708   4.398
 3478SOL    HW210453   5.044   2.858   4.336
 3479SOL     OW10454   4.396   3.478   3.878
 3479SOL    HW110455   4.405   3.488   3.779
 3479SOL    HW210456   4.356   3.389   3.899
 3480SOL     OW10457   3.987   2.188   4.444
 3480SOL    HW110458   3.908   2.239   4.410
 3480SOL    HW210459   3.978   2.173   4.542
 3481SOL     OW10460   4.640   2.772   4.015
 3481SOL    HW110461   4.703   2.810   3.947
 3481SOL    HW210462   4.680   2.689   4.054
 3482SOL     OW10463   4.763   2.960   4.420
 3482SOL    HW110464   4.693   2.913   4.474
 3482SOL    HW210465   4.822   2.892   4.377
 3483SOL     OW10466   4.314   3.349   4.215
 3483SOL    HW110467   4.356   3.291   4.145
 3483SOL    HW210468   4.270   3.428   4.171
 3484SOL     OW10469   3.979   3.210   4.014
 3484SOL    HW110470   3.883   3.211   3.987
 3484SOL    HW210471   3.991   3.263   4.098
 3485SOL     OW10472   3.799   2.207   3.757
 3485SOL    HW110473   3.707   2.179   3.728
 3485SOL    HW210474   3.830   2.284   3.701
 3486SOL     OW10475   3.796   2.028   4.042
 3486SOL    HW110476   3.779   2.111   3.988
 3486SOL    HW210477   3.886   1.991   4.020
 3487SOL     OW10478   4.949   2.187   4.173
 3487SOL    HW110479   5.014   2.113   4.162
 3487SOL    HW210480   4.969   2.237   4.257
 3488SOL     OW10481   4.318   2.607   4.376
 3488SOL    HW110482   4.368   2.692   4.357
 3488SOL    HW210483   4.230   2.609   4.328
 3489SOL     OW10484   4.583   3.236   3.740
 3489SOL    HW110485   4.537   3.251   3.828
 3489SOL    HW210486   4.627   3.321   3.710
 3490SOL     OW10487   4.385   3.652   4.677
 3490SOL    HW110488   4.339   3.740   4.664
 3490SOL    HW210489   4.484   3.664   4.670
 3491SOL     OW10490   4.583   2.818   4.585
 3491SOL    HW110491   4.637   2.749   4.633
 3491SOL    HW210492   4.551   2.887   4.651
 3492SOL     OW10493   3.803   3.102   4.377
 3492SOL    HW110494   3.802   3.055   4.465
 3492SOL    HW210495   3.885   3.074   4.326
 3493SOL     OW10496   4.152   2.286   4.244
 3493SOL    HW110497   4.182   2.214   4.182
 3493SOL    HW210498   4.113   2.246   4.327
 3494SOL     OW10499   4.536   3.448   4.411
 3494SOL    HW110500   4.568   3.458   4.317
 3494SOL    HW210501   4.457   3.386   4.413
 3495SOL     OW10502   4.494   3.192   4.025
 3495SOL    HW110503   4.448   3.105   4.042
 3495SOL    HW210504   4.585   3.189   4.066
 3496SOL     OW10505   3.763   2.939   4.024
 3496SOL    HW110506   3.862   2.928   4.015
 3496SOL    HW210507   3.723   2.853   4.056
 3497SOL     OW10508   4.599   3.508   4.061
 3497SOL    HW110509   4.522   3.473   4.007
 3497SOL    HW210510   4.567   3.579   4.123
 3498SOL     OW10511   3.954   4.352   0.113
 3498SOL    HW110512   3.861   4.350   0.150
 3498SOL    HW210513   3.955   4.313   0.021
 3499SOL     OW10514   3.949   3.999   0.996
 3499SOL    HW110515   3.984   3.982   1.088
 3499SOL    HW210516   3.861   3.954   0.984
 3500SOL     OW10517   3.743   4.092   0.647
 3500SOL    HW110518   3.661   4.135   0.686
 3500SOL    HW210519   3.715   4.019   0.584
 3501SOL     OW10520   4.492   4.868   1.023
 3501SOL    HW110521   4.414   4.885   1.083
 3501SOL    HW210522   4.526   4.955   0.987
 3502SOL     OW10523   4.574   4.522   1.823
 3502SOL    HW110524   4.570   4.598   1.888
 3502SOL    HW210525   4.596   4.558   1.732
 3503SOL     OW10526   4.409   4.736   0.665
 3503SOL    HW110527   4.478   4.720   0.735
 3503SOL    HW210528   4.336   4.793   0.703
 3504SOL     OW10529   4.162   4.116   1.499
 3504SOL    HW110530   4.244   4.060   1.508
 3504SOL    HW210531   4.081   4.058   1.503
 3505SOL     OW10532   3.964   4.815   0.886
 3505SOL    HW110533   3.978   4.731   0.938
 3505SOL    HW210534   3.909   4.879   0.941
 3506SOL     OW10535   4.330   4.688   0.123
 3506SOL    HW110536   4.337   4.772   0.069
 3506SOL    HW210537   4.376   4.701   0.211
 3507SOL     OW10538   3.846   4.367   0.563
 3507SOL    HW110539   3.801   4.279   0.580
 3507SOL    HW210540   3.845   4.421   0.647
 3508SOL     OW10541   3.837   4.461   1.597
 3508SOL    HW110542   3.925   4.448   1.642
 3508SOL    HW210543   3.824   4.558   1.575
 3509SOL     OW10544   4.533   3.728   0.502
 3509SOL    HW110545   4.573   3.819   0.493
 3509SOL    HW210546   4.433   3.736   0.508
 3510SOL     OW10547   3.921   4.700   1.264
 3510SOL    HW110548   4.010   4.655   1.250
 3510SOL    HW210549   3.848   4.635   1.245
 3511SOL     OW10550   4.041   3.975   1.801
 3511SOL    HW110551   4.112   4.046   1.807
 3511SOL    HW210552   3.953   4.014   1.829
 3512SOL     OW10553   4.322   4.453   0.270
 3512SOL    HW110554   4.346   4.522   0.202
 3512SOL    HW210555   4.244   4.486   0.324
 3513SOL     OW10556   4.531   4.329   1.465
 3513SOL    HW110557   4.484   4.326   1.554
 3513SOL    HW210558   4.480   4.274   1.399
 3514SOL     OW10559   4.697   4.614   1.572
 3514SOL    HW110560   4.743   4.530   1.543
 3514SOL    HW210561   4.641   4.648   1.497
 3515SOL     OW10562   4.715   4.134   1.242
 3515SOL    HW110563   4.638   4.168   1.296
 3515SOL    HW210564   4.681   4.083   1.163
 3516SOL     OW10565   4.765   4.425   0.429
 3516SOL    HW110566   4.791   4.421   0.525
 3516SOL    HW210567   4.680   4.374   0.415
 3517SOL     OW10568   3.800   4.535   0.789
 3517SOL    HW110569   3.899   4.523   0.798
 3517SOL    HW210570   3.776   4.630   0.810
 3518SOL     OW10571   4.589   4.072   0.195
 3518SOL    HW110572   4.648   4.135   0.146
 3518SOL    HW210573   4.608   3.978   0.166
 3519SOL     OW10574   4.274   3.920   0.885
 3519SOL    HW110575   4.269   3.915   0.985
 3519SOL    HW210576   4.276   4.016   0.856
 3520SOL     OW10577   3.926   4.009   1.498
 3520SOL    HW110578   3.846   4.069   1.485
 3520SOL    HW210579   3.916   3.960   1.584
 3521SOL     OW10580   4.106   4.424   0.480
 3521SOL    HW110581   4.151   4.334   0.477
 3521SOL    HW210582   4.012   4.413   0.513
 3522SOL     OW10583   4.338   3.846   0.117
 3522SOL    HW110584   4.436   3.824   0.124
 3522SOL    HW210585   4.307   3.829   0.024
 3523SOL     OW10586   4.505   3.988   1.749
 3523SOL    HW110587   4.572   3.927   1.792
 3523SOL    HW210588   4.432   4.007   1.814
 3524SOL     OW10589   4.646   4.227   0.899
 3524SOL    HW110590   4.621   4.218   0.803
 3524SOL    HW210591   4.694   4.145   0.930
 3525SOL     OW10592   4.263   3.788   0.512
 3525SOL    HW110593   4.182   3.789   0.570
 3525SOL    HW210594   4.266   3.871   0.457
 3526SOL     OW10595   4.659   3.960   0.480
 3526SOL    HW110596   4.611   4.001   0.402
 3526SOL    HW210597   4.758   3.958   0.461
 3527SOL     OW10598   4.756   4.273   0.016
 3527SOL    HW110599   4.715   4.355  -0.023
 3527SOL    HW210600   4.820   4.299   0.089
 3528SOL     OW10601   3.802   4.280   1.386
 3528SOL    HW110602   3.894   4.279   1.345
 3528SOL    HW210603   3.796   4.354   1.453
 3529SOL     OW10604   4.285   3.946   1.147
 3529SOL    HW110605   4.323   3.862   1.184
 3529SOL    HW210606   4.197   3.965   1.191
 3530SOL     OW10607   4.590   4.178   0.642
 3530SOL    HW110608   4.558   4.250   0.580
 3530SOL    HW210609   4.614   4.097   0.589
 3531SOL     OW10610   4.741   3.763   0.753
 3531SOL    HW110611   4.669   3.768   0.684
 3531SOL    HW210612   4.717   3.694   0.822
 3532SOL     OW10613   4.251   3.980   0.328
 3532SOL    HW110614   4.278   3.921   0.253
 3532SOL    HW210615   4.251   4.075   0.297
 3533SOL     OW10616   4.639   3.813   1.402
 3533SOL    HW110617   4.664   3.793   1.307
 3533SOL    HW210618   4.711   3.869   1.444
 3534SOL     OW10619   4.134   4.537   1.251
 3534SOL    HW110620   4.220   4.549   1.301
 3534SOL    HW210621   4.092   4.450   1.278
 3535SOL     OW10622   4.290   4.261   0.865
 3535SOL    HW110623   4.302   4.327   0.791
 3535SOL    HW210624   4.336   4.295   0.948
 3536SOL     OW10625   4.126   4.475   1.598
 3536SOL    HW110626   4.194   4.530   1.551
 3536SOL    HW210627   4.166   4.387   1.625
 3537SOL     OW10628   4.737   3.829   1.770
 3537SOL    HW110629   4.743   3.914   1.718
 3537SOL    HW210630   4.769   3.753   1.713
 3538SOL     OW10631   4.228   3.774   1.740
 3538SOL    HW110632   4.186   3.717   1.670
 3538SOL    HW210633   4.162   3.843   1.772
 3539SOL     OW10634   4.297   4.594   1.029
 3539SOL    HW110635   4.341   4.683   1.020
 3539SOL    HW210636   4.234   4.594   1.106
 3540SOL     OW10637   4.933   4.249   0.275
 3540SOL    HW110638   4.946   4.165   0.329
 3540SOL    HW210639   4.904   4.323   0.335
 3541SOL     OW10640   4.031   3.937   1.231
 3541SOL    HW110641   4.008   3.974   1.321
 3541SOL    HW210642   4.001   3.842   1.225
 3542SOL     OW10643   4.456   4.358   1.064
 3542SOL    HW110644   4.515   4.332   0.988
 3542SOL    HW210645   4.428   4.454   1.053
 3543SOL     OW10646   4.031   3.787   0.618
 3543SOL    HW110647   4.020   3.881   0.651
 3543SOL    HW210648   4.026   3.724   0.695
 3544SOL     OW10649   4.747   4.490   0.966
 3544SOL    HW110650   4.762   4.511   1.062
 3544SOL    HW210651   4.717   4.395   0.957
 3545SOL     OW10652   4.074   4.622   1.804
 3545SOL    HW110653   4.150   4.666   1.852
 3545SOL    HW210654   4.109   4.575   1.722
 3546SOL     OW10655   4.043   4.534   0.949
 3546SOL    HW110656   4.136   4.570   0.954
 3546SOL    HW210657   4.037   4.449   1.001
 3547SOL     OW10658   4.063   4.233   1.006
 3547SOL    HW110659   4.011   4.150   0.989
 3547SOL    HW210660   4.140   4.238   0.942
 3548SOL     OW10661   4.726   4.520   1.238
 3548SOL    HW110662   4.767   4.488   1.324
 3548SOL    HW210663   4.630   4.493   1.235
 3549SOL     OW10664   3.764   4.268   1.114
 3549SOL    HW110665   3.849   4.235   1.073
 3549SOL    HW210666   3.777   4.283   1.212
 3550SOL     OW10667   3.913   4.244   1.722
 3550SOL    HW110668   3.972   4.204   1.652
 3550SOL    HW210669   3.855   4.315   1.681
 3551SOL     OW10670   4.539   4.296   0.325
 3551SOL    HW110671   4.546   4.207   0.279
 3551SOL    HW210672   4.445   4.330   0.317
 3552SOL     OW10673   4.395   4.188   1.269
 3552SOL    HW110674   4.361   4.099   1.239
 3552SOL    HW210675   4.421   4.242   1.189
 3553SOL     OW10676   4.197   4.224   0.191
 3553SOL    HW110677   4.258   4.304   0.195
 3553SOL    HW210678   4.102   4.255   0.198
 3554SOL     OW10679   3.883   4.861   1.466
 3554SOL    HW110680   3.905   4.800   1.542
 3554SOL    HW210681   3.893   4.812   1.380
 3555SOL     OW10682   4.627   3.810   0.133
 3555SOL    HW110683   4.678   3.811   0.047
 3555SOL    HW210684   4.683   3.768   0.204
 3556SOL     OW10685   5.004   4.651   0.672
 3556SOL    HW110686   5.064   4.570   0.674
 3556SOL    HW210687   5.044   4.720   0.612
 3557SOL     OW10688   3.987   4.050   0.720
 3557SOL    HW110689   3.908   4.101   0.686
 3557SOL    HW210690   3.978   4.035   0.818
 3558SOL     OW10691   4.640   4.634   0.291
 3558SOL    HW110692   4.703   4.672   0.223
 3558SOL    HW210693   4.680   4.551   0.330
 3559SOL     OW10694   4.738   3.960   0.971
 3559SOL    HW110695   4.730   3.924   0.878
 3559SOL    HW210696   4.736   3.884   1.036
 3560SOL     OW10697   3.829   4.737   1.726
 3560SOL    HW110698   3.752   4.704   1.780
 3560SOL    HW210699   3.914   4.707   1.768
 3561SOL     OW10700   4.396   3.927   1.489
 3561SOL    HW110701   4.486   3.911   1.449
 3561SOL    HW210702   4.404   3.932   1.588
 3562SOL     OW10703   3.799   4.069   0.033
 3562SOL    HW110704   3.707   4.041   0.004
 3562SOL    HW210705   3.830   4.146  -0.023
 3563SOL     OW10706   3.796   3.890   0.318
 3563SOL    HW110707   3.779   3.973   0.264
 3563SOL    HW210708   3.886   3.853   0.296
 3564SOL     OW10709   4.337   4.566   1.431
 3564SOL    HW110710   4.393   4.647   1.414
 3564SOL    HW210711   4.396   4.486   1.434
 3565SOL     OW10712   4.440   4.289   1.708
 3565SOL    HW110713   4.459   4.354   1.782
 3565SOL    HW210714   4.500   4.209   1.717
 3566SOL     OW10715   4.949   4.049   0.449
 3566SOL    HW110716   5.014   3.975   0.438
 3566SOL    HW210717   4.969   4.099   0.533
 3567SOL     OW10718   4.318   4.469   0.652
 3567SOL    HW110719   4.368   4.554   0.633
 3567SOL    HW210720   4.230   4.471   0.604
 3568SOL     OW10721   4.583   4.680   0.861
 3568SOL    HW110722   4.637   4.611   0.909
 3568SOL    HW210723   4.551   4.749   0.927
 3569SOL     OW10724   3.803   4.964   0.653
 3569SOL    HW110725   3.802   4.917   0.741
 3569SOL    HW210726   3.885   4.936   0.602
 3570SOL     OW10727   4.152   4.148   0.520
 3570SOL    HW110728   4.182   4.076   0.458
 3570SOL    HW210729   4.113   4.108   0.603
 3571SOL     OW10730   4.041   4.271   1.280
 3571SOL    HW110731   4.079   4.212   1.352
 3571SOL    HW210732   4.081   4.245   1.192
 3572SOL     OW10733   4.725   3.758   1.154
 3572SOL    HW110734   4.662   3.686   1.123
 3572SOL    HW210735   4.818   3.722   1.154
 3573SOL     OW10736   3.763   4.801   0.300
 3573SOL    HW110737   3.862   4.790   0.291
 3573SOL    HW210738   3.723   4.715   0.332
 3574SOL     OW10739   3.954   4.352   1.975
 3574SOL    HW110740   3.861   4.350   2.012
 3574SOL    HW210741   3.955   4.313   1.883
 3575SOL     OW10742   3.949   3.999   2.858
 3575SOL    HW110743   3.984   3.982   2.950
 3575SOL    HW210744   3.861   3.954   2.846
 3576SOL     OW10745   3.743   4.092   2.509
 3576SOL    HW110746   3.661   4.135   2.548
 3576SOL    HW210747   3.715   4.019   2.446
 3577SOL     OW10748   4.492   4.868   2.885
 3577SOL    HW110749   4.414   4.885   2.945
 3577SOL    HW210750   4.526   4.955   2.849
 3578SOL     OW10751   4.574   4.522   3.685
 3578SOL    HW110752   4.570   4.598   3.750
 3578SOL    HW210753   4.596   4.558   3.594
 3579SOL     OW10754   4.409   4.736   2.527
 3579SOL    HW110755   4.478   4.720   2.597
 3579SOL    HW210756   4.336   4.793   2.565
 3580SOL     OW10757   4.162   4.116   3.361
 3580SOL    HW110758   4.244   4.060   3.370
 3580SOL    HW210759   4.081   4.058   3.365
 3581SOL     OW10760   3.964   4.815   2.748
 3581SOL    HW110761   3.978   4.731   2.800
 3581SOL    HW210762   3.909   4.879   2.803
 3582SOL     OW10763   4.330   4.688   1.985
 3582SOL    HW110764   4.337   4.772   1.931
 3582SOL    HW210765   4.376   4.701   2.073
 3583SOL     OW10766   3.846   4.367   2.425
 3583SOL    HW110767   3.801   4.279   2.442
 3583SOL    HW210768   3.845   4.421   2.509
 3584SOL     OW10769   3.837   4.461   3.459
 3584SOL    HW110770   3.925   4.448   3.504
 3584SOL    HW210771   3.824   4.558   3.437
 3585SOL     OW10772   4.533   3.728   2.364
 3585SOL    HW110773   4.573   3.819   2.355
 3585SOL    HW210774   4.433   3.736   2.370
 3586SOL     OW10775   3.921   4.700   3.126
 3586SOL    HW110776   4.010   4.655   3.112
 3586SOL    HW210777   3.848   4.635   3.107
 3587SOL     OW10778   4.041   3.975   3.663
 3587SOL    HW110779   4.112   4.046   3.669
 3587SOL    HW210780   3.953   4.014   3.691
 3588SOL     OW10781   4.322   4.453   2.132
 3588SOL    HW110782   4.346   4.522   2.064
 3588SOL    HW210783   4.244   4.486   2.186
 3589SOL     OW10784   4.531   4.329   3.327
 3589SOL    HW110785   4.484   4.326   3.416
 3589SOL    HW210786   4.480   4.274   3.261
 3590SOL     OW10787   4.697   4.614   3.434
 3590SOL    HW110788   4.743   4.530   3.405
 3590SOL    HW210789   4.641   4.648   3.359
 3591SOL     OW10790   4.715   4.134   3.104
 3591SOL    HW110791   4.638   4.168   3.158
 3591SOL    HW210792   4.681   4.083   3.025
 3592SOL     OW10793   4.765   4.425   2.291
 3592SOL    HW110794   4.791   4.421   2.387
 3592SOL    HW210795   4.680   4.374   2.277
 3593SOL     OW10796   3.800   4.535   2.651
 3593SOL    HW110797   3.899   4.523   2.660
 3593SOL    HW210798   3.776   4.630   2.672
 3594SOL     OW10799   4.589   4.072   2.057
 3594SOL    HW110800   4.648   4.135   2.008
 3594SOL    HW210801   4.608   3.978   2.028
 3595SOL     OW10802   4.274   3.920   2.747
 3595SOL    HW110803   4.269   3.915   2.847
 3595SOL    HW210804   4.276   4.016   2.718
 3596SOL     OW10805   3.926   4.009   3.360
 3596SOL    HW110806   3.846   4.069   3.347
 3596SOL    HW210807   3.916   3.960   3.446
 3597SOL     OW10808   4.106   4.424   2.342
 3597SOL    HW110809   4.151   4.334   2.339
 3597SOL    HW210810   4.012   4.413   2.375
 3598SOL     OW10811   4.338   3.846   1.979
 3598SOL    HW110812   4.436   3.824   1.986
 3598SOL    HW210813   4.307   3.829   1.886
 3599SOL     OW10814   4.505   3.988   3.611
 3599SOL    HW110815   4.572   3.927   3.654
 3599SOL    HW210816   4.432   4.007   3.676
 3600SOL     OW10817   4.646   4.227   2.761
 3600SOL    HW110818   4.621   4.218   2.665
 3600SOL    HW210819   4.694   4.145   2.792
 3601SOL     OW10820   4.263   3.788   2.374
 3601SOL    HW110821   4.182   3.789   2.432
 3601SOL    HW210822   4.266   3.871   2.319
 3602SOL     OW10823   4.021   3.759   2.033
 3602SOL    HW110824   4.070   3.843   2.012
 3602SOL    HW210825   4.083   3.694   2.078
 3603SOL     OW10826   4.659   3.960   2.342
 3603SOL    HW110827   4.611   4.001   2.264
 3603SOL    HW210828   4.758   3.958   2.323
 3604SOL     OW10829   4.756   4.273   1.878
 3604SOL    HW110830   4.715   4.355   1.839
 3604SOL    HW210831   4.820   4.299   1.951
 3605SOL     OW10832   3.802   4.280   3.248
 3605SOL    HW110833   3.894   4.279   3.207
 3605SOL    HW210834   3.796   4.354   3.315
 3606SOL     OW10835   4.285   3.946   3.009
 3606SOL    HW110836   4.323   3.862   3.046
 3606SOL    HW210837   4.197   3.965   3.053
 3607SOL     OW10838   4.590   4.178   2.504
 3607SOL    HW110839   4.558   4.250   2.442
 3607SOL    HW210840   4.614   4.097   2.451
 3608SOL     OW10841   4.741   3.763   2.615
 3608SOL    HW110842   4.669   3.768   2.546
 3608SOL    HW210843   4.717   3.694   2.684
 3609SOL     OW10844   4.251   3.980   2.190
 3609SOL    HW110845   4.278   3.921   2.115
 3609SOL    HW210846   4.251   4.075   2.159
 3610SOL     OW10847   4.639   3.813   3.264
 3610SOL    HW110848   4.664   3.793   3.169
 3610SOL    HW210849   4.711   3.869   3.306
 3611SOL     OW10850   4.134   4.537   3.113
 3611SOL    HW110851   4.220   4.549   3.163
 3611SOL    HW210852   4.092   4.450   3.140
 3612SOL     OW10853   4.290   4.261   2.727
 3612SOL    HW110854   4.302   4.327   2.653
 3612SOL    HW210855   4.336   4.295   2.810
 3613SOL     OW10856   4.126   4.475   3.460
 3613SOL    HW110857   4.194   4.530   3.413
 3613SOL    HW210858   4.166   4.387   3.487
 3614SOL     OW10859   4.737   3.829   3.632
 3614SOL    HW110860   4.743   3.914   3.580
 3614SOL    HW210861   4.769   3.753   3.575
 3615SOL     OW10862   4.228   3.774   3.602
 3615SOL    HW110863   4.186   3.717   3.532
 3615SOL    HW210864   4.162   3.843   3.634
 3616SOL     OW10865   4.297   4.594   2.891
 3616SOL    HW110866   4.341   4.683   2.882
 3616SOL    HW210867   4.234   4.594   2.968
 3617SOL     OW10868   4.933   4.249   2.137
 3617SOL    HW110869   4.946   4.165   2.191
 3617SOL    HW210870   4.904   4.323   2.197
 3618SOL     OW10871   4.031   3.937   3.093
 3618SOL    HW110872   4.008   3.974   3.183
 3618SOL    HW210873   4.001   3.842   3.087
 3619SOL     OW10874   4.456   4.358   2.926
 3619SOL    HW110875   4.515   4.332   2.850
 3619SOL    HW210876   4.428   4.454   2.915
 3620SOL     OW10877   4.031   3.787   2.480
 3620SOL    HW110878   4.020   3.881   2.513
 3620SOL    HW210879   4.026   3.724   2.557
 3621SOL     OW10880   4.747   4.490   2.828
 3621SOL    HW110881   4.762   4.511   2.924
 3621SOL    HW210882   4.717   4.395   2.819
 3622SOL     OW10883   4.074   4.622   3.666
 3622SOL    HW110884   4.150   4.666   3.714
 3622SOL    HW210885   4.109   4.575   3.584
 3623SOL     OW10886   4.043   4.534   2.811
 3623SOL    HW110887   4.136   4.570   2.816
 3623SOL    HW210888   4.037   4.449   2.863
 3624SOL     OW10889   4.063   4.233   2.868
 3624SOL    HW110890   4.011   4.150   2.851
 3624SOL    HW210891   4.140   4.238   2.804
 3625SOL     OW10892   4.726   4.520   3.100
 3625SOL    HW110893   4.767   4.488   3.186
 3625SOL    HW210894   4.630   4.493   3.097
 3626SOL     OW10895   3.764   4.268   2.976
 3626SOL    HW110896   3.849   4.235   2.935
 3626SOL    HW210897   3.777   4.283   3.074
 3627SOL     OW10898   3.913   4.244   3.584
 3627SOL    HW110899   3.972   4.204   3.514
 3627SOL    HW210900   3.855   4.315   3.543
 3628SOL     OW10901   4.539   4.296   2.187
 3628SOL    HW110902   4.546   4.207   2.141
 3628SOL    HW210903   4.445   4.330   2.179
 3629SOL     OW10904   4.395   4.188   3.131
 3629SOL    HW110905   4.361   4.099   3.101
 3629SOL    HW210906   4.421   4.242   3.051
 3630SOL     OW10907   4.197   4.224   2.053
 3630SOL    HW110908   4.258   4.304   2.057
 3630SOL    HW210909   4.102   4.255   2.060
 3631SOL     OW10910   3.883   4.861   3.328
 3631SOL    HW110911   3.905   4.800   3.404
 3631SOL    HW210912   3.893   4.812   3.242
 3632SOL     OW10913   5.026   4.579   2.171
 3632SOL    HW110914   4.940   4.548   2.213
 3632SOL    HW210915   5.022   4.565   2.072
 3633SOL     OW10916   5.004   4.651   2.534
 3633SOL    HW110917   5.064   4.570   2.536
 3633SOL    HW210918   5.044   4.720   2.474
 3634SOL     OW10919   3.987   4.050   2.582
 3634SOL    HW110920   3.908   4.101   2.548
 3634SOL    HW210921   3.978   4.035   2.680
 3635SOL     OW10922   4.640   4.634   2.153
 3635SOL    HW110923   4.703   4.672   2.085
 3635SOL    HW210924   4.680   4.551   2.192
 3636SOL     OW10925   4.738   3.960   2.833
 3636SOL    HW110926   4.730   3.924   2.740
 3636SOL    HW210927   4.736   3.884   2.898
 3637SOL     OW10928   3.829   4.737   3.588
 3637SOL    HW110929   3.752   4.704   3.642
 3637SOL    HW210930   3.914   4.707   3.630
 3638SOL     OW10931   4.396   3.927   3.351
 3638SOL    HW110932   4.486   3.911   3.311
 3638SOL    HW210933   4.404   3.932   3.450
 3639SOL     OW10934   3.799   4.069   1.895
 3639SOL    HW110935   3.707   4.041   1.866
 3639SOL    HW210936   3.830   4.146   1.839
 3640SOL     OW10937   3.796   3.890   2.180
 3640SOL    HW110938   3.779   3.973   2.126
 3640SOL    HW210939   3.886   3.853   2.158
 3641SOL     OW10940   4.337   4.566   3.293
 3641SOL    HW110941   4.393   4.647   3.276
 3641SOL    HW210942   4.396   4.486   3.296
 3642SOL     OW10943   4.440   4.289   3.570
 3642SOL    HW110944   4.459   4.354   3.644
 3642SOL    HW210945   4.500   4.209   3.579
 3643SOL     OW10946   4.949   4.049   2.311
 3643SOL    HW110947   5.014   3.975   2.300
 3643SOL    HW210948   4.969   4.099   2.395
 3644SOL     OW10949   4.318   4.469   2.514
 3644SOL    HW110950   4.368   4.554   2.495
 3644SOL    HW210951   4.230   4.471   2.466
 3645SOL     OW10952   4.583   4.680   2.723
 3645SOL    HW110953   4.637   4.611   2.771
 3645SOL    HW210954   4.551   4.749   2.789
 3646SOL     OW10955   3.803   4.964   2.515
 3646SOL    HW110956   3.802   4.917   2.603
 3646SOL    HW210957   3.885   4.936   2.464
 3647SOL     OW10958   4.152   4.148   2.382
 3647SOL    HW110959   4.182   4.076   2.320
 3647SOL    HW210960   4.113   4.108   2.465
 3648SOL     OW10961   4.041   4.271   3.142
 3648SOL    HW110962   4.079   4.212   3.214
 3648SOL    HW210963   4.081   4.245   3.054
 3649SOL     OW10964   4.725   3.758   3.016
 3649SOL    HW110965   4.662   3.686   2.985
 3649SOL    HW210966   4.818   3.722   3.016
 3650SOL     OW10967   3.763   4.801   2.162
 3650SOL    HW110968   3.862   4.790   2.153
 3650SOL    HW210969   3.723   4.715   2.194
 3651SOL     OW10970   3.954   4.352   3.837
 3651SOL    HW110971   3.861   4.350   3.874
 3651SOL    HW210972   3.955   4.313   3.745
 3652SOL     OW10973   3.949   3.999   4.720
 3652SOL    HW110974   3.984   3.982   4.812
 3652SOL    HW210975   3.861   3.954   4.708
 3653SOL     OW10976   3.743   4.092   4.371
 3653SOL    HW110977   3.661   4.135   4.410
 3653SOL    HW210978   3.715   4.019   4.308
 3654SOL     OW10979   4.409   4.736   4.389
 3654SOL    HW110980   4.478   4.720   4.459
 3654SOL    HW210981   4.336   4.793   4.427
 3655SOL     OW10982   3.964   4.815   4.610
 3655SOL    HW110983   3.978   4.731   4.662
 3655SOL    HW210984   3.909   4.879   4.665
 3656SOL     OW10985   4.330   4.688   3.847
 3656SOL    HW110986   4.337   4.772   3.793
 3656SOL    HW210987   4.376   4.701   3.935
 3657SOL     OW10988   3.846   4.367   4.287
 3657SOL    HW110989   3.801   4.279   4.304
 3657SOL    HW210990   3.845   4.421   4.371
 3658SOL     OW10991   4.533   3.728   4.226
 3658SOL    HW110992   4.573   3.819   4.217
 3658SOL    HW210993   4.433   3.736   4.232
 3659SOL     OW10994   3.921   4.700   4.988
 3659SOL    HW110995   4.010   4.655   4.974
 3659SOL    HW210996   3.848   4.635   4.969
 3660SOL     OW10997   4.322   4.453   3.994
 3660SOL    HW110998   4.346   4.522   3.926
 3660SOL    HW210999   4.244   4.486   4.048
 3661SOL     OW11000   4.765   4.425   4.153
 3661SOL    HW111001   4.791   4.421   4.249
 3661SOL    HW211002   4.680   4.374   4.139
 3662SOL     OW11003   3.800   4.535   4.513
 3662SOL    HW111004   3.899   4.523   4.522
 3662SOL    HW211005   3.776   4.630   4.534
 3663SOL     OW11006   4.589   4.072   3.919
 3663SOL    HW111007   4.648   4.135   3.870
 3663SOL    HW211008   4.608   3.978   3.890
 3664SOL     OW11009   4.274   3.920   4.609
 3664SOL    HW111010   4.269   3.915   4.709
 3664SOL    HW211011   4.276   4.016   4.580
 3665SOL     OW11012   4.106   4.424   4.204
 3665SOL    HW111013   4.151   4.334   4.201
 3665SOL    HW211014   4.012   4.413   4.237
 3666SOL     OW11015   4.338   3.846   3.841
 3666SOL    HW111016   4.436   3.824   3.848
 3666SOL    HW211017   4.307   3.829   3.748
 3667SOL     OW11018   4.646   4.227   4.623
 3667SOL    HW111019   4.621   4.218   4.527
 3667SOL    HW211020   4.694   4.145   4.654
 3668SOL     OW11021   4.263   3.788   4.236
 3668SOL    HW111022   4.182   3.789   4.294
 3668SOL    HW211023   4.266   3.871   4.181
 3669SOL     OW11024   4.021   3.759   3.895
 3669SOL    HW111025   4.070   3.843   3.874
 3669SOL    HW211026   4.083   3.694   3.940
 3670SOL     OW11027   4.659   3.960   4.204
 3670SOL    HW111028   4.611   4.001   4.126
 3670SOL    HW211029   4.758   3.958   4.185
 3671SOL     OW11030   4.756   4.273   3.740
 3671SOL    HW111031   4.715   4.355   3.701
 3671SOL    HW211032   4.820   4.299   3.813
 3672SOL     OW11033   4.590   4.178   4.366
 3672SOL    HW111034   4.558   4.250   4.304
 3672SOL    HW211035   4.614   4.097   4.313
 3673SOL     OW11036   4.741   3.763   4.477
 3673SOL    HW111037   4.669   3.768   4.408
 3673SOL    HW211038   4.717   3.694   4.546
 3674SOL     OW11039   4.251   3.980   4.052
 3674SOL    HW111040   4.278   3.921   3.977
 3674SOL    HW211041   4.251   4.075   4.021
 3675SOL     OW11042   4.835   4.919   4.824
 3675SOL    HW111043   4.795   4.963   4.905
 3675SOL    HW211044   4.794   4.956   4.741
 3676SOL     OW11045   4.290   4.261   4.589
 3676SOL    HW111046   4.302   4.327   4.515
 3676SOL    HW211047   4.336   4.295   4.672
 3677SOL     OW11048   4.297   4.594   4.753
 3677SOL    HW111049   4.341   4.683   4.744
 3677SOL    HW211050   4.234   4.594   4.830
 3678SOL     OW11051   4.933   4.249   3.999
 3678SOL    HW111052   4.946   4.165   4.053
 3678SOL    HW211053   4.904   4.323   4.059
 3679SOL     OW11054   4.031   3.937   4.955
 3679SOL    HW111055   4.008   3.974   5.045
 3679SOL    HW211056   4.001   3.842   4.949
 3680SOL     OW11057   4.456   4.358   4.788
 3680SOL    HW111058   4.515   4.332   4.712
 3680SOL    HW211059   4.428   4.454   4.777
 3681SOL     OW11060   4.031   3.787   4.342
 3681SOL    HW111061   4.020   3.881   4.375
 3681SOL    HW211062   4.026   3.724   4.419
 3682SOL     OW11063   4.043   4.534   4.673
 3682SOL    HW111064   4.136   4.570   4.678
 3682SOL    HW211065   4.037   4.449   4.725
 3683SOL     OW11066   4.063   4.233   4.730
 3683SOL    HW111067   4.011   4.150   4.713
 3683SOL    HW211068   4.140   4.238   4.666
 3684SOL     OW11069   4.726   4.520   4.962
 3684SOL    HW111070   4.767   4.488   5.048
 3684SOL    HW211071   4.630   4.493   4.959
 3685SOL     OW11072   4.539   4.296   4.049
 3685SOL    HW111073   4.546   4.207   4.003
 3685SOL    HW211074   4.445   4.330   4.041
 3686SOL     OW11075   4.395   4.188   4.993
 3686SOL    HW111076   4.361   4.099   4.963
 3686SOL    HW211077   4.421   4.242   4.913
 3687SOL     OW11078   4.197   4.224   3.915
 3687SOL    HW111079   4.258   4.304   3.919
 3687SOL    HW211080   4.102   4.255   3.922
 3688SOL     OW11081   5.026   4.579   4.033
 3688SOL    HW111082   4.940   4.548   4.075
 3688SOL    HW211083   5.022   4.565   3.934
 3689SOL     OW11084   5.004   4.651   4.396
 3689SOL    HW111085   5.064   4.570   4.398
 3689SOL    HW211086   5.044   4.720   4.336
 3690SOL     OW11087   3.987   4.050   4.444
 3690SOL    HW111088   3.908   4.101   4.410
 3690SOL    HW211089   3.978   4.035   4.542
 3691SOL     OW11090   4.640   4.634   4.015
 3691SOL    HW111091   4.703   4.672   3.947
 3691SOL    HW211092   4.680   4.551   4.054
 3692SOL     OW11093   3.799   4.069   3.757
 3692SOL    HW111094   3.707   4.041   3.728
 3692SOL    HW211095   3.830   4.146   3.701
 3693SOL     OW11096   3.796   3.890   4.042
 3693SOL    HW111097   3.779   3.973   3.988
 3693SOL    HW211098   3.886   3.853   4.020
 3694SOL     OW11099   4.949   4.049   4.173
 3694SOL    HW111100   5.014   3.975   4.162
 3694SOL    HW211101   4.969   4.099   4.257
 3695SOL     OW11102   4.318   4.469   4.376
 3695SOL    HW111103   4.368   4.554   4.357
 3695SOL    HW211104   4.230   4.471   4.328
 3696SOL     OW11105   4.583   4.680   4.585
 3696SOL    HW111106   4.637   4.611   4.633
 3696SOL    HW211107   4.551   4.749   4.651
 3697SOL     OW11108   3.803   4.964   4.377
 3697SOL    HW111109   3.802   4.917   4.465
 3697SOL    HW211110   3.885   4.936   4.326
 3698SOL     OW11111   4.152   4.148   4.244
 3698SOL    HW111112   4.182   4.076   4.182
 3698SOL    HW211113   4.113   4.108   4.327
 3699SOL     OW11114   3.763   4.801   4.024
 3699SOL    HW111115   3.862   4.790   4.015
 3699SOL    HW211116   3.723   4.715   4.056
   4.81107   4.81107   4.81107
