mobley_1424265_GMX.gro created by acpype (v: 2023.10.27) on Wed May 20 23:56:07 2026
 18
    1  MOL   C1    1   0.083  -0.040   0.057
    1  MOL   C2    2   0.190  -0.101  -0.008
    1  MOL   C3    3   0.084  -0.028   0.197
    1  MOL   C4    4   0.297  -0.141   0.205
    1  MOL   C5    5   0.297  -0.152   0.066
    1  MOL   C6    6   0.190  -0.079   0.270
    1  MOL   C7    7   0.411  -0.218  -0.004
    1  MOL   C8    8   0.191  -0.067   0.419
    1  MOL   H1    9  -0.000  -0.000   0.000
    1  MOL   H2   10   0.189  -0.110  -0.116
    1  MOL   H3   11  -0.000   0.020   0.246
    1  MOL   H4   12   0.380  -0.180   0.263
    1  MOL   H5   13   0.488  -0.248   0.069
    1  MOL   H6   14   0.378  -0.308  -0.058
    1  MOL   H7   15   0.457  -0.151  -0.077
    1  MOL   H8   16   0.282  -0.017   0.453
    1  MOL   H9   17   0.104  -0.010   0.455
    1  MOL  H10   18   0.185  -0.166   0.467
    9.75800     6.55200    11.65800
