; mobley_1424265_GMX_OPLS.top created by acpype (v: 2023.10.27) on Wed May 20 23:56:07 2026

; Include forcefield parameters
#include "ffoplsaa.itp"

; Include mobley_1424265_GMX.itp topology
#include "mobley_1424265_GMX.itp"

; Ligand position restraints
#ifdef POSRES_LIG
#include "posre_mobley_1424265.itp"
#endif

[ system ]
 mobley_1424265

[ molecules ]
; Compound        nmols
 mobley_1424265   1     
