m_xylene
    18
   0.8320000  -0.3950000   0.5750000   1.8990000  -1.0140000  -0.0770000
   0.8350000  -0.2830000   1.9660000   2.9710000  -1.4090000   2.0520000
   2.9680000  -1.5200000   0.6620000   1.9040000  -0.7900000   2.7040000
   4.1090000  -2.1810000  -0.0360000   1.9060000  -0.6710000   4.1910000
  -0.0000000  -0.0010000   0.0000000   1.8880000  -1.0960000  -1.1600000
  -0.0010000   0.2010000   2.4650000   3.8040000  -1.8040000   2.6280000
   4.8780000  -2.4790000   0.6870000   3.7790000  -3.0750000  -0.5810000
   4.5670000  -1.5100000  -0.7740000   2.8210000  -0.1720000   4.5330000
   1.0420000  -0.0950000   4.5460000   1.8480000  -1.6580000   4.6690000
