mobley_2213823_GMX.gro created by acpype (v: 2023.10.27) on Thu May 21 00:04:09 2026
   20
    1MOL     C1    1   2.426   2.555   2.454
    1MOL     C2    2   2.257   2.156   2.181
    1MOL     C3    3   2.441   2.255   2.403
    1MOL     C4    4   2.310   2.472   2.402
    1MOL     C5    5   2.227   2.276   2.268
    1MOL     C6    6   2.353   2.349   2.320
    1MOL     H1    7   2.494   2.584   2.373
    1MOL     H2    8   2.389   2.647   2.500
    1MOL     H3    9   2.483   2.502   2.530
    1MOL     H4   10   2.164   2.117   2.137
    1MOL     H5   11   2.303   2.075   2.238
    1MOL     H6   12   2.324   2.182   2.098
    1MOL     H7   13   2.388   2.217   2.491
    1MOL     H8   14   2.532   2.305   2.438
    1MOL     H9   15   2.474   2.169   2.344
    1MOL    H10   16   2.248   2.537   2.339
    1MOL    H11   17   2.247   2.442   2.487
    1MOL    H12   18   2.164   2.245   2.352
    1MOL    H13   19   2.167   2.347   2.209
    1MOL    H14   20   2.411   2.383   2.234
   4.68066   4.68066   4.68066
