mobley_4690963_GMX.gro created by acpype (v: 2023.10.27) on Wed May 20 23:46:36 2026
   22
    1MOL     C1    1   2.619   2.571   2.726
    1MOL     C2    2   2.272   2.144   2.329
    1MOL     C3    3   2.621   2.597   2.577
    1MOL     C4    4   2.262   2.292   2.299
    1MOL     C5    5   2.500   2.562   2.378
    1MOL     C6    6   2.374   2.498   2.322
    1MOL     O1    7   2.504   2.541   2.519
    1MOL     O2    8   2.378   2.358   2.348
    1MOL     H1    9   2.708   2.614   2.774
    1MOL     H2   10   2.530   2.615   2.772
    1MOL     H3   11   2.616   2.464   2.746
    1MOL     H4   12   2.184   2.091   2.293
    1MOL     H5   13   2.361   2.101   2.282
    1MOL     H6   14   2.282   2.128   2.437
    1MOL     H7   15   2.709   2.551   2.531
    1MOL     H8   16   2.621   2.705   2.556
    1MOL     H9   17   2.174   2.336   2.348
    1MOL    H10   18   2.255   2.309   2.191
    1MOL    H11   19   2.500   2.670   2.360
    1MOL    H12   20   2.589   2.517   2.334
    1MOL    H13   21   2.368   2.512   2.214
    1MOL    H14   22   2.285   2.539   2.370
   4.88287   4.88287   4.88287
