mobley_4690963_GMX.gro created by acpype (v: 2023.10.27) on Wed May 20 23:46:36 2026
11410
    1MOL     C1    1   2.619   2.571   2.726
    1MOL     C2    2   2.272   2.144   2.329
    1MOL     C3    3   2.621   2.597   2.577
    1MOL     C4    4   2.262   2.292   2.299
    1MOL     C5    5   2.500   2.562   2.378
    1MOL     C6    6   2.374   2.498   2.322
    1MOL     O1    7   2.504   2.541   2.519
    1MOL     O2    8   2.378   2.358   2.348
    1MOL     H1    9   2.708   2.614   2.774
    1MOL     H2   10   2.530   2.615   2.772
    1MOL     H3   11   2.616   2.464   2.746
    1MOL     H4   12   2.184   2.091   2.293
    1MOL     H5   13   2.361   2.101   2.282
    1MOL     H6   14   2.282   2.128   2.437
    1MOL     H7   15   2.709   2.551   2.531
    1MOL     H8   16   2.621   2.705   2.556
    1MOL     H9   17   2.174   2.336   2.348
    1MOL    H10   18   2.255   2.309   2.191
    1MOL    H11   19   2.500   2.670   2.360
    1MOL    H12   20   2.589   2.517   2.334
    1MOL    H13   21   2.368   2.512   2.214
    1MOL    H14   22   2.285   2.539   2.370
    2SOL     OW   23   0.230   0.628   0.113
    2SOL    HW1   24   0.137   0.626   0.150
    2SOL    HW2   25   0.231   0.589   0.021
    3SOL     OW   26   0.225   0.275   0.996
    3SOL    HW1   27   0.260   0.258   1.088
    3SOL    HW2   28   0.137   0.230   0.984
    4SOL     OW   29   0.019   0.368   0.647
    4SOL    HW1   30  -0.063   0.411   0.686
    4SOL    HW2   31  -0.009   0.295   0.584
    5SOL     OW   32   0.569   1.275   1.165
    5SOL    HW1   33   0.476   1.268   1.128
    5SOL    HW2   34   0.580   1.364   1.209
    6SOL     OW   35   1.555   1.511   0.703
    6SOL    HW1   36   1.498   1.495   0.784
    6SOL    HW2   37   1.496   1.521   0.623
    7SOL     OW   38   1.135   0.703   0.717
    7SOL    HW1   39   1.192   0.781   0.692
    7SOL    HW2   40   1.075   0.729   0.793
    8SOL     OW   41   1.755   0.607   0.231
    8SOL    HW1   42   1.743   0.594   0.132
    8SOL    HW2   43   1.725   0.526   0.280
    9SOL     OW   44   0.768   1.144   1.023
    9SOL    HW1   45   0.690   1.161   1.083
    9SOL    HW2   46   0.802   1.231   0.987
   10SOL     OW   47   0.850   0.798   1.823
   10SOL    HW1   48   0.846   0.874   1.888
   10SOL    HW2   49   0.872   0.834   1.732
   11SOL     OW   50   0.685   1.012   0.665
   11SOL    HW1   51   0.754   0.996   0.735
   11SOL    HW2   52   0.612   1.069   0.703
   12SOL     OW   53   0.686   1.161   1.803
   12SOL    HW1   54   0.746   1.240   1.817
   12SOL    HW2   55   0.600   1.192   1.762
   13SOL     OW   56   0.335   1.435   1.061
   13SOL    HW1   57   0.257   1.404   1.008
   13SOL    HW2   58   0.393   1.493   1.004
   14SOL     OW   59   1.460   1.505   1.339
   14SOL    HW1   60   1.484   1.599   1.365
   14SOL    HW2   61   1.444   1.451   1.421
   15SOL     OW   62   0.438   0.392   1.499
   15SOL    HW1   63   0.520   0.336   1.508
   15SOL    HW2   64   0.357   0.334   1.503
   16SOL     OW   65   1.603   0.447   0.737
   16SOL    HW1   66   1.529   0.493   0.687
   16SOL    HW2   67   1.654   0.515   0.790
   17SOL     OW   68   0.231   1.713   0.483
   17SOL    HW1   69   0.265   1.790   0.537
   17SOL    HW2   70   0.275   1.713   0.393
   18SOL     OW   71   1.127   1.341   1.690
   18SOL    HW1   72   1.174   1.341   1.778
   18SOL    HW2   73   1.079   1.254   1.679
   19SOL     OW   74   0.230   1.434   0.538
   19SOL    HW1   75   0.204   1.530   0.538
   19SOL    HW2   76   0.159   1.380   0.583
   20SOL     OW   77   0.240   1.091   0.886
   20SOL    HW1   78   0.254   1.007   0.938
   20SOL    HW2   79   0.185   1.155   0.941
   21SOL     OW   80   0.620   1.786   1.439
   21SOL    HW1   81   0.528   1.769   1.474
   21SOL    HW2   82   0.648   1.878   1.465
   22SOL     OW   83   0.606   0.964   0.123
   22SOL    HW1   84   0.613   1.048   0.069
   22SOL    HW2   85   0.652   0.977   0.211
   23SOL     OW   86   1.594   0.114   1.480
   23SOL    HW1   87   1.576   0.181   1.408
   23SOL    HW2   88   1.591   0.160   1.569
   24SOL     OW   89   0.122   0.643   0.563
   24SOL    HW1   90   0.077   0.555   0.580
   24SOL    HW2   91   0.121   0.697   0.647
   25SOL     OW   92   1.842   1.767   0.359
   25SOL    HW1   93   1.896   1.738   0.439
   25SOL    HW2   94   1.872   1.857   0.330
   26SOL     OW   95   0.027   1.596   0.117
   26SOL    HW1   96   0.008   1.500   0.138
   26SOL    HW2   97  -0.006   1.654   0.192
   27SOL     OW   98   1.689   0.922   0.612
   27SOL    HW1   99   1.784   0.893   0.620
   27SOL    HW2  100   1.681   0.987   0.537
   28SOL     OW  101   1.641   1.108   0.432
   28SOL    HW1  102   1.727   1.110   0.380
   28SOL    HW2  103   1.655   1.155   0.520
   29SOL     OW  104   0.113   0.737   1.597
   29SOL    HW1  105   0.201   0.724   1.642
   29SOL    HW2  106   0.100   0.834   1.575
   30SOL     OW  107   0.613   1.365   0.726
   30SOL    HW1  108   0.564   1.278   0.735
   30SOL    HW2  109   0.590   1.408   0.639
   31SOL     OW  110   1.293   1.228   1.423
   31SOL    HW1  111   1.330   1.155   1.365
   31SOL    HW2  112   1.345   1.233   1.508
   32SOL     OW  113   0.809   0.004   0.502
   32SOL    HW1  114   0.849   0.095   0.493
   32SOL    HW2  115   0.709   0.012   0.508
   33SOL     OW  116   0.197   0.976   1.264
   33SOL    HW1  117   0.286   0.931   1.250
   33SOL    HW2  118   0.124   0.911   1.245
   34SOL     OW  119   1.525   0.999   0.190
   34SOL    HW1  120   1.462   0.923   0.203
   34SOL    HW2  121   1.573   1.017   0.276
   35SOL     OW  122   1.187   1.792   1.616
   35SOL    HW1  123   1.211   1.852   1.540
   35SOL    HW2  124   1.194   1.697   1.586
   36SOL     OW  125   0.317   0.251   1.801
   36SOL    HW1  126   0.388   0.322   1.807
   36SOL    HW2  127   0.229   0.290   1.829
   37SOL     OW  128   1.466   1.417   0.953
   37SOL    HW1  129   1.407   1.423   1.033
   37SOL    HW2  130   1.451   1.329   0.907
   38SOL     OW  131   1.667   1.714   0.572
   38SOL    HW1  132   1.626   1.691   0.484
   38SOL    HW2  133   1.649   1.640   0.637
   39SOL     OW  134   0.598   0.729   0.270
   39SOL    HW1  135   0.622   0.798   0.202
   39SOL    HW2  136   0.520   0.762   0.324
   40SOL     OW  137   1.281   0.345   0.944
   40SOL    HW1  138   1.195   0.295   0.931
   40SOL    HW2  139   1.343   0.291   1.000
   41SOL     OW  140   1.576   1.662   0.307
   41SOL    HW1  141   1.665   1.708   0.310
   41SOL    HW2  142   1.555   1.638   0.212
   42SOL     OW  143   0.807   0.605   1.465
   42SOL    HW1  144   0.760   0.602   1.554
   42SOL    HW2  145   0.756   0.550   1.399
   43SOL     OW  146   1.394   0.469   1.674
   43SOL    HW1  147   1.374   0.512   1.762
   43SOL    HW2  148   1.472   0.407   1.683
   44SOL     OW  149   0.973   0.890   1.572
   44SOL    HW1  150   1.019   0.806   1.543
   44SOL    HW2  151   0.917   0.924   1.497
   45SOL     OW  152   0.991   0.410   1.242
   45SOL    HW1  153   0.914   0.444   1.296
   45SOL    HW2  154   0.957   0.359   1.163
   46SOL     OW  155   1.041   0.701   0.429
   46SOL    HW1  156   1.067   0.697   0.525
   46SOL    HW2  157   0.956   0.650   0.415
   47SOL     OW  158   0.076   0.811   0.789
   47SOL    HW1  159   0.175   0.799   0.798
   47SOL    HW2  160   0.052   0.906   0.810
   48SOL     OW  161   0.130   1.821   1.571
   48SOL    HW1  162   0.120   1.806   1.670
   48SOL    HW2  163   0.044   1.857   1.535
   49SOL     OW  164   0.865   0.348   0.195
   49SOL    HW1  165   0.924   0.411   0.146
   49SOL    HW2  166   0.884   0.254   0.166
   50SOL     OW  167   1.719   0.585   1.831
   50SOL    HW1  168   1.693   0.674   1.795
   50SOL    HW2  169   1.717   0.517   1.758
   51SOL     OW  170   1.362   1.144   0.545
   51SOL    HW1  171   1.445   1.115   0.497
   51SOL    HW2  172   1.313   1.211   0.489
   52SOL     OW  173   0.550   0.196   0.885
   52SOL    HW1  174   0.545   0.191   0.985
   52SOL    HW2  175   0.552   0.292   0.856
   53SOL     OW  176   1.008   1.456   0.477
   53SOL    HW1  177   0.962   1.528   0.425
   53SOL    HW2  178   1.004   1.476   0.575
   54SOL     OW  179   0.351   1.801   0.853
   54SOL    HW1  180   0.401   1.715   0.859
   54SOL    HW2  181   0.416   1.878   0.850
   55SOL     OW  182   1.795   1.066   0.873
   55SOL    HW1  183   1.733   1.051   0.797
   55SOL    HW2  184   1.743   1.077   0.958
   56SOL     OW  185   1.227   1.550   1.506
   56SOL    HW1  186   1.233   1.473   1.570
   56SOL    HW2  187   1.175   1.524   1.426
   57SOL     OW  188   0.321   0.943   0.242
   57SOL    HW1  189   0.403   0.982   0.200
   57SOL    HW2  190   0.294   0.861   0.193
   58SOL     OW  191   1.458   0.735   0.728
   58SOL    HW1  192   1.453   0.670   0.803
   58SOL    HW2  193   1.538   0.794   0.741
   59SOL     OW  194   0.461   1.266   1.727
   59SOL    HW1  195   0.411   1.267   1.641
   59SOL    HW2  196   0.398   1.248   1.803
   60SOL     OW  197   1.111   1.776   0.237
   60SOL    HW1  198   1.051   1.714   0.287
   60SOL    HW2  199   1.142   1.732   0.152
   61SOL     OW  200   0.202   0.285   1.498
   61SOL    HW1  201   0.122   0.345   1.485
   61SOL    HW2  202   0.192   0.236   1.584
   62SOL     OW  203   1.632   1.377   0.081
   62SOL    HW1  204   1.600   1.471   0.071
   62SOL    HW2  205   1.556   1.314   0.069
   63SOL     OW  206   0.464   1.743   0.323
   63SOL    HW1  207   0.497   1.782   0.409
   63SOL    HW2  208   0.540   1.736   0.258
   64SOL     OW  209   1.400   0.107   0.426
   64SOL    HW1  210   1.376   0.070   0.336
   64SOL    HW2  211   1.499   0.123   0.430
   65SOL     OW  212   0.249   1.785   1.241
   65SOL    HW1  213   0.306   1.720   1.291
   65SOL    HW2  214   0.233   1.752   1.148
   66SOL     OW  215   0.940   1.698   0.904
   66SOL    HW1  216   1.020   1.641   0.925
   66SOL    HW2  217   0.891   1.658   0.827
   67SOL     OW  218   0.382   0.700   0.480
   67SOL    HW1  219   0.427   0.610   0.477
   67SOL    HW2  220   0.288   0.689   0.513
   68SOL     OW  221   1.547   0.222   1.729
   68SOL    HW1  222   1.542   0.259   1.821
   68SOL    HW2  223   1.475   0.153   1.717
   69SOL     OW  224   0.614   0.122   0.117
   69SOL    HW1  225   0.712   0.100   0.124
   69SOL    HW2  226   0.583   0.105   0.024
   70SOL     OW  227   0.781   0.264   1.749
   70SOL    HW1  228   0.848   0.203   1.792
   70SOL    HW2  229   0.708   0.283   1.814
   71SOL     OW  230   0.888   1.514   1.195
   71SOL    HW1  231   0.865   1.489   1.101
   71SOL    HW2  232   0.949   1.445   1.234
   72SOL     OW  233   1.351   0.590   1.433
   72SOL    HW1  234   1.379   0.547   1.518
   72SOL    HW2  235   1.376   0.686   1.434
   73SOL     OW  236   0.803   1.402   0.924
   73SOL    HW1  237   0.893   1.416   0.882
   73SOL    HW2  238   0.732   1.404   0.853
   74SOL     OW  239   0.922   0.503   0.899
   74SOL    HW1  240   0.897   0.494   0.803
   74SOL    HW2  241   0.970   0.421   0.930
   75SOL     OW  242   0.539   0.064   0.512
   75SOL    HW1  243   0.458   0.065   0.570
   75SOL    HW2  244   0.542   0.147   0.457
   76SOL     OW  245   1.434   1.188   0.041
   76SOL    HW1  246   1.466   1.112   0.098
   76SOL    HW2  247   1.342   1.215   0.071
   77SOL     OW  248   0.297   0.035   0.171
   77SOL    HW1  249   0.346   0.119   0.150
   77SOL    HW2  250   0.359  -0.030   0.216
   78SOL     OW  251   0.935   0.236   0.480
   78SOL    HW1  252   0.887   0.277   0.402
   78SOL    HW2  253   1.034   0.234   0.461
   79SOL     OW  254   1.076   0.683   1.464
   79SOL    HW1  255   0.996   0.622   1.467
   79SOL    HW2  256   1.157   0.630   1.440
   80SOL     OW  257   1.227   1.570   0.793
   80SOL    HW1  258   1.248   1.644   0.728
   80SOL    HW2  259   1.295   1.570   0.866
   81SOL     OW  260   0.459   1.152   0.741
   81SOL    HW1  261   0.388   1.125   0.806
   81SOL    HW2  262   0.433   1.124   0.648
   82SOL     OW  263   1.271   1.797   0.591
   82SOL    HW1  264   1.315   1.861   0.527
   82SOL    HW2  265   1.221   1.849   0.661
   83SOL     OW  266   1.032   0.549   0.016
   83SOL    HW1  267   0.991   0.631  -0.023
   83SOL    HW2  268   1.096   0.575   0.089
   84SOL     OW  269   0.078   0.556   1.386
   84SOL    HW1  270   0.170   0.555   1.345
   84SOL    HW2  271   0.072   0.630   1.453
   85SOL     OW  272   0.561   0.222   1.147
   85SOL    HW1  273   0.599   0.138   1.184
   85SOL    HW2  274   0.473   0.241   1.191
   86SOL     OW  275   0.866   0.454   0.642
   86SOL    HW1  276   0.834   0.526   0.580
   86SOL    HW2  277   0.890   0.373   0.589
   87SOL     OW  278   1.017   0.039   0.753
   87SOL    HW1  279   0.945   0.044   0.684
   87SOL    HW2  280   0.993  -0.030   0.822
   88SOL     OW  281   1.429   1.173   0.867
   88SOL    HW1  282   1.374   1.089   0.860
   88SOL    HW2  283   1.455   1.202   0.775
   89SOL     OW  284   1.466   0.590   0.992
   89SOL    HW1  285   1.436   0.495   0.999
   89SOL    HW2  286   1.539   0.606   1.058
   90SOL     OW  287   1.857   0.833   0.377
   90SOL    HW1  288   1.899   0.769   0.441
   90SOL    HW2  289   1.819   0.782   0.299
   91SOL     OW  290   0.488   1.385   0.174
   91SOL    HW1  291   0.401   1.370   0.221
   91SOL    HW2  292   0.471   1.411   0.079
   92SOL     OW  293   1.664   1.280   0.657
   92SOL    HW1  294   1.763   1.288   0.671
   92SOL    HW2  295   1.619   1.364   0.688
   93SOL     OW  296   1.390   0.575   0.078
   93SOL    HW1  297   1.336   0.554   0.159
   93SOL    HW2  298   1.481   0.534   0.087
   94SOL     OW  299   0.527   0.256   0.328
   94SOL    HW1  300   0.554   0.197   0.253
   94SOL    HW2  301   0.527   0.351   0.297
   95SOL     OW  302   1.754   1.223   1.588
   95SOL    HW1  303   1.845   1.184   1.575
   95SOL    HW2  304   1.762   1.319   1.612
   96SOL     OW  305   1.064   1.347   1.340
   96SOL    HW1  306   0.984   1.324   1.395
   96SOL    HW2  307   1.147   1.321   1.389
   97SOL     OW  308   1.592   1.629   1.625
   97SOL    HW1  309   1.619   1.663   1.535
   97SOL    HW2  310   1.671   1.591   1.671
   98SOL     OW  311   1.111   1.195   1.100
   98SOL    HW1  312   1.071   1.239   1.181
   98SOL    HW2  313   1.070   1.232   1.017
   99SOL     OW  314   1.638   1.099   1.079
   99SOL    HW1  315   1.643   1.180   1.138
   99SOL    HW2  316   1.552   1.101   1.028
  100SOL     OW  317   0.915   0.089   1.402
  100SOL    HW1  318   0.940   0.069   1.307
  100SOL    HW2  319   0.987   0.145   1.444
  101SOL     OW  320   0.980   1.116   1.719
  101SOL    HW1  321   0.881   1.122   1.729
  101SOL    HW2  322   1.003   1.036   1.663
  102SOL     OW  323   0.705   1.050   0.368
  102SOL    HW1  324   0.691   1.057   0.467
  102SOL    HW2  325   0.789   0.999   0.350
  103SOL     OW  326   0.410   0.813   1.251
  103SOL    HW1  327   0.496   0.825   1.301
  103SOL    HW2  328   0.368   0.726   1.278
  104SOL     OW  329   1.274   0.386   1.262
  104SOL    HW1  330   1.295   0.460   1.326
  104SOL    HW2  331   1.185   0.403   1.219
  105SOL     OW  332   0.064   1.564   1.331
  105SOL    HW1  333   0.018   1.646   1.297
  105SOL    HW2  334   0.162   1.583   1.340
  106SOL     OW  335   0.367   1.100   0.501
  106SOL    HW1  336   0.360   1.183   0.445
  106SOL    HW2  337   0.371   1.020   0.441
  107SOL     OW  338   0.566   0.537   0.865
  107SOL    HW1  339   0.578   0.603   0.791
  107SOL    HW2  340   0.612   0.571   0.948
  108SOL     OW  341   1.252   1.348   0.388
  108SOL    HW1  342   1.302   1.425   0.428
  108SOL    HW2  343   1.157   1.350   0.420
  109SOL     OW  344   1.272   1.445   1.142
  109SOL    HW1  345   1.319   1.458   1.229
  109SOL    HW2  346   1.206   1.371   1.151
  110SOL     OW  347   1.582   0.639   0.472
  110SOL    HW1  348   1.551   0.700   0.545
  110SOL    HW2  349   1.632   0.691   0.403
  111SOL     OW  350   0.354   1.510   1.329
  111SOL    HW1  351   0.333   1.466   1.242
  111SOL    HW2  352   0.451   1.536   1.332
  112SOL     OW  353   0.402   0.751   1.598
  112SOL    HW1  354   0.470   0.806   1.551
  112SOL    HW2  355   0.442   0.663   1.625
  113SOL     OW  356   1.587   0.779   1.670
  113SOL    HW1  357   1.495   0.817   1.665
  113SOL    HW2  358   1.647   0.826   1.605
  114SOL     OW  359   1.013   0.105   1.770
  114SOL    HW1  360   1.019   0.190   1.718
  114SOL    HW2  361   1.045   0.029   1.713
  115SOL     OW  362   0.504   0.050   1.740
  115SOL    HW1  363   0.462  -0.007   1.670
  115SOL    HW2  364   0.438   0.119   1.772
  116SOL     OW  365   0.573   0.870   1.029
  116SOL    HW1  366   0.617   0.959   1.020
  116SOL    HW2  367   0.510   0.870   1.106
  117SOL     OW  368   1.360   0.862   1.045
  117SOL    HW1  369   1.285   0.862   0.979
  117SOL    HW2  370   1.397   0.770   1.054
  118SOL     OW  371   1.209   0.525   0.275
  118SOL    HW1  372   1.222   0.441   0.329
  118SOL    HW2  373   1.180   0.599   0.335
  119SOL     OW  374   0.307   0.213   1.231
  119SOL    HW1  375   0.284   0.250   1.321
  119SOL    HW2  376   0.277   0.118   1.225
  120SOL     OW  377   0.037   1.310   1.282
  120SOL    HW1  378   0.090   1.261   1.350
  120SOL    HW2  379   0.059   1.408   1.287
  121SOL     OW  380   0.732   0.634   1.064
  121SOL    HW1  381   0.791   0.608   0.988
  121SOL    HW2  382   0.704   0.730   1.053
  122SOL     OW  383   1.728   0.935   1.854
  122SOL    HW1  384   1.682   0.928   1.765
  122SOL    HW2  385   1.666   0.979   1.920
  123SOL     OW  386   0.307   0.063   0.618
  123SOL    HW1  387   0.296   0.157   0.651
  123SOL    HW2  388   0.302   0.000   0.695
  124SOL     OW  389   1.622   0.367   0.374
  124SOL    HW1  390   1.624   0.291   0.438
  124SOL    HW2  391   1.574   0.444   0.414
  125SOL     OW  392   1.023   0.766   0.966
  125SOL    HW1  393   1.038   0.787   1.062
  125SOL    HW2  394   0.993   0.671   0.957
  126SOL     OW  395   0.980   1.573   1.700
  126SOL    HW1  396   0.960   1.617   1.612
  126SOL    HW2  397   1.019   1.482   1.684
  127SOL     OW  398   1.859   1.518   1.605
  127SOL    HW1  399   1.873   1.545   1.510
  127SOL    HW2  400   1.942   1.540   1.658
  128SOL     OW  401   0.350   0.898   1.804
  128SOL    HW1  402   0.426   0.942   1.852
  128SOL    HW2  403   0.385   0.851   1.722
  129SOL     OW  404   1.540   0.274   0.125
  129SOL    HW1  405   1.479   0.199   0.148
  129SOL    HW2  406   1.562   0.326   0.208
  130SOL     OW  407   1.303   0.838   0.042
  130SOL    HW1  408   1.337   0.745   0.057
  130SOL    HW2  409   1.321   0.865  -0.053
  131SOL     OW  410   1.068   1.333   0.849
  131SOL    HW1  411   1.075   1.249   0.794
  131SOL    HW2  412   1.130   1.402   0.813
  132SOL     OW  413   0.319   0.810   0.949
  132SOL    HW1  414   0.412   0.846   0.954
  132SOL    HW2  415   0.313   0.725   1.001
  133SOL     OW  416   0.339   0.509   1.006
  133SOL    HW1  417   0.287   0.426   0.989
  133SOL    HW2  418   0.416   0.514   0.942
  134SOL     OW  419   1.138   0.380   1.678
  134SOL    HW1  420   1.093   0.443   1.742
  134SOL    HW2  421   1.231   0.411   1.661
  135SOL     OW  422   1.160   0.207   1.477
  135SOL    HW1  423   1.160   0.271   1.554
  135SOL    HW2  424   1.188   0.255   1.394
  136SOL     OW  425   0.008   1.326   0.200
  136SOL    HW1  426  -0.085   1.347   0.169
  136SOL    HW2  427   0.018   1.227   0.213
  137SOL     OW  428   0.088   1.801   0.927
  137SOL    HW1  429   0.046   1.715   0.900
  137SOL    HW2  430   0.182   1.804   0.893
  138SOL     OW  431   0.504   1.568   0.910
  138SOL    HW1  432   0.570   1.642   0.919
  138SOL    HW2  433   0.548   1.489   0.868
  139SOL     OW  434   1.002   0.796   1.238
  139SOL    HW1  435   1.043   0.764   1.324
  139SOL    HW2  436   0.906   0.769   1.235
  140SOL     OW  437   0.040   0.544   1.114
  140SOL    HW1  438   0.125   0.511   1.073
  140SOL    HW2  439   0.053   0.559   1.212
  141SOL     OW  440   0.189   0.520   1.722
  141SOL    HW1  441   0.248   0.480   1.652
  141SOL    HW2  442   0.131   0.591   1.681
  142SOL     OW  443   1.369   0.950   1.660
  142SOL    HW1  444   1.408   1.039   1.680
  142SOL    HW2  445   1.379   0.930   1.563
  143SOL     OW  446   0.815   0.572   0.325
  143SOL    HW1  447   0.822   0.483   0.279
  143SOL    HW2  448   0.721   0.606   0.317
  144SOL     OW  449   1.657   0.604   1.206
  144SOL    HW1  450   1.619   0.535   1.268
  144SOL    HW2  451   1.739   0.568   1.162
  145SOL     OW  452   0.252   1.564   1.744
  145SOL    HW1  453   0.222   1.621   1.820
  145SOL    HW2  454   0.245   1.467   1.770
  146SOL     OW  455   0.671   0.464   1.269
  146SOL    HW1  456   0.637   0.375   1.239
  146SOL    HW2  457   0.697   0.518   1.189
  147SOL     OW  458   0.930   1.678   1.465
  147SOL    HW1  459   0.906   1.660   1.370
  147SOL    HW2  460   0.960   1.772   1.475
  148SOL     OW  461   0.473   0.500   0.191
  148SOL    HW1  462   0.534   0.580   0.195
  148SOL    HW2  463   0.378   0.531   0.198
  149SOL     OW  464   0.159   1.137   1.466
  149SOL    HW1  465   0.181   1.076   1.542
  149SOL    HW2  466   0.169   1.088   1.380
  150SOL     OW  467   1.347   1.059   1.234
  150SOL    HW1  468   1.371   0.996   1.160
  150SOL    HW2  469   1.257   1.099   1.216
  151SOL     OW  470   1.302   0.855   0.309
  151SOL    HW1  471   1.216   0.824   0.351
  151SOL    HW2  472   1.298   0.841   0.210
  152SOL     OW  473   1.759   1.747   1.154
  152SOL    HW1  474   1.820   1.777   1.081
  152SOL    HW2  475   1.721   1.658   1.132
  153SOL     OW  476   1.252   1.731   1.128
  153SOL    HW1  477   1.336   1.736   1.074
  153SOL    HW2  478   1.229   1.635   1.146
  154SOL     OW  479   0.083   1.258   1.022
  154SOL    HW1  480   0.078   1.257   1.122
  154SOL    HW2  481   0.000   1.217   0.984
  155SOL     OW  482   0.688   1.662   1.716
  155SOL    HW1  483   0.632   1.743   1.725
  155SOL    HW2  484   0.740   1.666   1.630
  156SOL     OW  485   0.903   0.086   0.133
  156SOL    HW1  486   0.954   0.087   0.047
  156SOL    HW2  487   0.959   0.044   0.204
  157SOL     OW  488   1.726   0.135   0.523
  157SOL    HW1  489   1.799   0.118   0.456
  157SOL    HW2  490   1.695   0.048   0.561
  158SOL     OW  491   1.388   1.573   0.477
  158SOL    HW1  492   1.455   1.585   0.403
  158SOL    HW2  493   1.348   1.662   0.500
  159SOL     OW  494   0.130   1.794   1.851
  159SOL    HW1  495   0.089   1.720   1.904
  159SOL    HW2  496   0.194   1.845   1.909
  160SOL     OW  497   1.280   0.927   0.672
  160SOL    HW1  498   1.340   0.846   0.674
  160SOL    HW2  499   1.320   0.996   0.612
  161SOL     OW  500   0.830   1.273   1.422
  161SOL    HW1  501   0.825   1.306   1.517
  161SOL    HW2  502   0.744   1.292   1.376
  162SOL     OW  503   0.672   1.616   0.154
  162SOL    HW1  504   0.681   1.626   0.055
  162SOL    HW2  505   0.632   1.527   0.175
  163SOL     OW  506   1.650   1.720   1.394
  163SOL    HW1  507   1.703   1.730   1.310
  163SOL    HW2  508   1.623   1.810   1.428
  164SOL     OW  509   1.841   0.175   0.963
  164SOL    HW1  510   1.880   0.090   0.927
  164SOL    HW2  511   1.743   0.177   0.944
  165SOL     OW  512   0.263   0.326   0.720
  165SOL    HW1  513   0.184   0.377   0.686
  165SOL    HW2  514   0.254   0.311   0.818
  166SOL     OW  515   1.194   1.612   0.031
  166SOL    HW1  516   1.200   1.519   0.068
  166SOL    HW2  517   1.135   1.612  -0.049
  167SOL     OW  518   0.822   1.002   1.372
  167SOL    HW1  519   0.862   1.001   1.280
  167SOL    HW2  520   0.832   1.094   1.412
  168SOL     OW  521   0.916   0.910   0.291
  168SOL    HW1  522   0.979   0.948   0.223
  168SOL    HW2  523   0.956   0.827   0.330
  169SOL     OW  524   1.504   1.607   0.044
  169SOL    HW1  525   1.412   1.644   0.051
  169SOL    HW2  526   1.542   1.627  -0.046
  170SOL     OW  527   0.372   1.288   1.490
  170SOL    HW1  528   0.359   1.381   1.456
  170SOL    HW2  529   0.288   1.236   1.477
  171SOL     OW  530   1.614   1.292   1.289
  171SOL    HW1  531   1.674   1.295   1.369
  171SOL    HW2  532   1.539   1.356   1.302
  172SOL     OW  533   1.039   1.098   0.696
  172SOL    HW1  534   0.969   1.051   0.750
  172SOL    HW2  535   1.098   1.030   0.653
  173SOL     OW  536   1.014   0.236   0.971
  173SOL    HW1  537   1.006   0.200   0.878
  173SOL    HW2  538   1.012   0.160   1.036
  174SOL     OW  539   0.590   1.487   0.491
  174SOL    HW1  540   0.632   1.429   0.421
  174SOL    HW2  541   0.546   1.566   0.447
  175SOL     OW  542   1.709   0.385   1.381
  175SOL    HW1  543   1.782   0.454   1.385
  175SOL    HW2  544   1.737   0.310   1.322
  176SOL     OW  545   0.255   1.348   0.290
  176SOL    HW1  546   0.159   1.349   0.263
  176SOL    HW2  547   0.267   1.401   0.374
  177SOL     OW  548   0.105   1.013   1.726
  177SOL    HW1  549   0.028   0.980   1.780
  177SOL    HW2  550   0.190   0.983   1.768
  178SOL     OW  551   0.672   0.203   1.489
  178SOL    HW1  552   0.762   0.187   1.449
  178SOL    HW2  553   0.680   0.208   1.588
  179SOL     OW  554   0.075   0.345   0.033
  179SOL    HW1  555  -0.017   0.317   0.004
  179SOL    HW2  556   0.106   0.422  -0.023
  180SOL     OW  557   1.440   0.856   1.398
  180SOL    HW1  558   1.383   0.908   1.335
  180SOL    HW2  559   1.536   0.868   1.374
  181SOL     OW  560   0.072   0.166   0.318
  181SOL    HW1  561   0.055   0.249   0.264
  181SOL    HW2  562   0.162   0.129   0.296
  182SOL     OW  563   1.183   1.335   0.119
  182SOL    HW1  564   1.084   1.324   0.121
  182SOL    HW2  565   1.217   1.350   0.212
  183SOL     OW  566   0.613   0.842   1.431
  183SOL    HW1  567   0.669   0.923   1.414
  183SOL    HW2  568   0.672   0.762   1.434
  184SOL     OW  569   1.493   1.767   0.959
  184SOL    HW1  570   1.526   1.831   0.890
  184SOL    HW2  571   1.559   1.761   1.034
  185SOL     OW  572   0.716   0.565   1.708
  185SOL    HW1  573   0.735   0.630   1.782
  185SOL    HW2  574   0.776   0.485   1.717
  186SOL     OW  575   1.450   1.220   1.633
  186SOL    HW1  576   1.441   1.210   1.732
  186SOL    HW2  577   1.546   1.213   1.607
  187SOL     OW  578   0.390   1.741   1.560
  187SOL    HW1  579   0.299   1.782   1.558
  187SOL    HW2  580   0.383   1.647   1.592
  188SOL     OW  581   1.674   0.883   1.254
  188SOL    HW1  582   1.647   0.794   1.217
  188SOL    HW2  583   1.675   0.951   1.181
  189SOL     OW  584   1.225   0.325   0.449
  189SOL    HW1  585   1.290   0.251   0.438
  189SOL    HW2  586   1.245   0.375   0.533
  190SOL     OW  587   0.594   0.745   0.652
  190SOL    HW1  588   0.644   0.830   0.633
  190SOL    HW2  589   0.506   0.747   0.604
  191SOL     OW  590   1.777   0.342   1.642
  191SOL    HW1  591   1.760   0.373   1.548
  191SOL    HW2  592   1.693   0.305   1.680
  192SOL     OW  593   1.730   0.934   1.517
  192SOL    HW1  594   1.768   1.025   1.532
  192SOL    HW2  595   1.722   0.917   1.418
  193SOL     OW  596   0.859   1.374   0.016
  193SOL    HW1  597   0.813   1.389   0.104
  193SOL    HW2  598   0.903   1.459  -0.014
  194SOL     OW  599   0.661   1.790   0.953
  194SOL    HW1  600   0.615   1.878   0.940
  194SOL    HW2  601   0.760   1.802   0.946
  195SOL     OW  602   0.859   0.956   0.861
  195SOL    HW1  603   0.913   0.887   0.909
  195SOL    HW2  604   0.827   1.025   0.927
  196SOL     OW  605   1.083   0.984   0.087
  196SOL    HW1  606   1.060   1.037   0.005
  196SOL    HW2  607   1.164   0.928   0.068
  197SOL     OW  608   1.861   1.569   0.851
  197SOL    HW1  609   1.790   1.557   0.781
  197SOL    HW2  610   1.862   1.490   0.911
  198SOL     OW  611   0.221   1.314   1.844
  198SOL    HW1  612   0.156   1.241   1.823
  198SOL    HW2  613   0.225   1.328   1.942
  199SOL     OW  614   0.079   1.240   0.653
  199SOL    HW1  615   0.078   1.193   0.741
  199SOL    HW2  616   0.161   1.212   0.602
  200SOL     OW  617   0.672   1.391   1.624
  200SOL    HW1  618   0.594   1.341   1.662
  200SOL    HW2  619   0.669   1.486   1.655
  201SOL     OW  620   1.824   0.192   1.227
  201SOL    HW1  621   1.820   0.102   1.271
  201SOL    HW2  622   1.827   0.181   1.128
  202SOL     OW  623   0.428   0.424   0.520
  202SOL    HW1  624   0.458   0.352   0.458
  202SOL    HW2  625   0.389   0.384   0.603
  203SOL     OW  626   1.705   1.487   1.104
  203SOL    HW1  627   1.612   1.462   1.077
  203SOL    HW2  628   1.731   1.437   1.186
  204SOL     OW  629   0.317   0.547   1.280
  204SOL    HW1  630   0.355   0.488   1.352
  204SOL    HW2  631   0.357   0.521   1.192
  205SOL     OW  632   0.812   1.586   0.687
  205SOL    HW1  633   0.844   1.596   0.593
  205SOL    HW2  634   0.733   1.524   0.689
  206SOL     OW  635   1.424   0.214   1.112
  206SOL    HW1  636   1.476   0.149   1.167
  206SOL    HW2  637   1.375   0.277   1.173
  207SOL     OW  638   1.001   0.034   1.154
  207SOL    HW1  639   0.938  -0.038   1.123
  207SOL    HW2  640   1.094  -0.002   1.154
  208SOL     OW  641   0.770   1.330   0.301
  208SOL    HW1  642   0.724   1.243   0.318
  208SOL    HW2  643   0.861   1.327   0.342
  209SOL     OW  644   0.618   1.567   1.284
  209SOL    HW1  645   0.613   1.649   1.341
  209SOL    HW2  646   0.707   1.564   1.239
  210SOL     OW  647   1.352   0.052   0.168
  210SOL    HW1  648   1.387   0.011   0.084
  210SOL    HW2  649   1.262   0.014   0.188
  211SOL     OW  650   1.300   0.453   0.691
  211SOL    HW1  651   1.241   0.533   0.695
  211SOL    HW2  652   1.315   0.418   0.784
  212SOL     OW  653   1.593   0.221   0.882
  212SOL    HW1  654   1.509   0.220   0.936
  212SOL    HW2  655   1.595   0.304   0.826
  213SOL     OW  656   0.039   1.077   0.300
  213SOL    HW1  657   0.138   1.066   0.291
  213SOL    HW2  658  -0.001   0.991   0.332
  214SOL     OW  659   0.875   1.646   0.337
  214SOL    HW1  660   0.798   1.611   0.283
  214SOL    HW2  661   0.843   1.717   0.399
  215SOL     OW  662   0.230   0.628   1.975
  215SOL    HW1  663   0.137   0.626   2.012
  215SOL    HW2  664   0.231   0.589   1.883
  216SOL     OW  665   0.225   0.275   2.858
  216SOL    HW1  666   0.260   0.258   2.950
  216SOL    HW2  667   0.137   0.230   2.846
  217SOL     OW  668   0.019   0.368   2.509
  217SOL    HW1  669  -0.063   0.411   2.548
  217SOL    HW2  670  -0.009   0.295   2.446
  218SOL     OW  671   0.569   1.275   3.027
  218SOL    HW1  672   0.476   1.268   2.990
  218SOL    HW2  673   0.580   1.364   3.071
  219SOL     OW  674   1.555   1.511   2.565
  219SOL    HW1  675   1.498   1.495   2.646
  219SOL    HW2  676   1.496   1.521   2.485
  220SOL     OW  677   1.135   0.703   2.579
  220SOL    HW1  678   1.192   0.781   2.554
  220SOL    HW2  679   1.075   0.729   2.655
  221SOL     OW  680   1.755   0.607   2.093
  221SOL    HW1  681   1.743   0.594   1.994
  221SOL    HW2  682   1.725   0.526   2.142
  222SOL     OW  683   0.768   1.144   2.885
  222SOL    HW1  684   0.690   1.161   2.945
  222SOL    HW2  685   0.802   1.231   2.849
  223SOL     OW  686   0.850   0.798   3.685
  223SOL    HW1  687   0.846   0.874   3.750
  223SOL    HW2  688   0.872   0.834   3.594
  224SOL     OW  689   0.685   1.012   2.527
  224SOL    HW1  690   0.754   0.996   2.597
  224SOL    HW2  691   0.612   1.069   2.565
  225SOL     OW  692   0.686   1.161   3.665
  225SOL    HW1  693   0.746   1.240   3.679
  225SOL    HW2  694   0.600   1.192   3.624
  226SOL     OW  695   0.335   1.435   2.923
  226SOL    HW1  696   0.257   1.404   2.870
  226SOL    HW2  697   0.393   1.493   2.866
  227SOL     OW  698   1.460   1.505   3.201
  227SOL    HW1  699   1.484   1.599   3.227
  227SOL    HW2  700   1.444   1.451   3.283
  228SOL     OW  701   0.438   0.392   3.361
  228SOL    HW1  702   0.520   0.336   3.370
  228SOL    HW2  703   0.357   0.334   3.365
  229SOL     OW  704   1.603   0.447   2.599
  229SOL    HW1  705   1.529   0.493   2.549
  229SOL    HW2  706   1.654   0.515   2.652
  230SOL     OW  707   0.231   1.713   2.345
  230SOL    HW1  708   0.265   1.790   2.399
  230SOL    HW2  709   0.275   1.713   2.255
  231SOL     OW  710   1.127   1.341   3.552
  231SOL    HW1  711   1.174   1.341   3.640
  231SOL    HW2  712   1.079   1.254   3.541
  232SOL     OW  713   0.230   1.434   2.400
  232SOL    HW1  714   0.204   1.530   2.400
  232SOL    HW2  715   0.159   1.380   2.445
  233SOL     OW  716   0.240   1.091   2.748
  233SOL    HW1  717   0.254   1.007   2.800
  233SOL    HW2  718   0.185   1.155   2.803
  234SOL     OW  719   0.620   1.786   3.301
  234SOL    HW1  720   0.528   1.769   3.336
  234SOL    HW2  721   0.648   1.878   3.327
  235SOL     OW  722   0.606   0.964   1.985
  235SOL    HW1  723   0.613   1.048   1.931
  235SOL    HW2  724   0.652   0.977   2.073
  236SOL     OW  725   1.594   0.114   3.342
  236SOL    HW1  726   1.576   0.181   3.270
  236SOL    HW2  727   1.591   0.160   3.431
  237SOL     OW  728   0.122   0.643   2.425
  237SOL    HW1  729   0.077   0.555   2.442
  237SOL    HW2  730   0.121   0.697   2.509
  238SOL     OW  731   1.842   1.767   2.221
  238SOL    HW1  732   1.896   1.738   2.301
  238SOL    HW2  733   1.872   1.857   2.192
  239SOL     OW  734   0.027   1.596   1.979
  239SOL    HW1  735   0.008   1.500   2.000
  239SOL    HW2  736  -0.006   1.654   2.054
  240SOL     OW  737   1.689   0.922   2.474
  240SOL    HW1  738   1.784   0.893   2.482
  240SOL    HW2  739   1.681   0.987   2.399
  241SOL     OW  740   1.641   1.108   2.294
  241SOL    HW1  741   1.727   1.110   2.242
  241SOL    HW2  742   1.655   1.155   2.382
  242SOL     OW  743   0.113   0.737   3.459
  242SOL    HW1  744   0.201   0.724   3.504
  242SOL    HW2  745   0.100   0.834   3.437
  243SOL     OW  746   0.613   1.365   2.588
  243SOL    HW1  747   0.564   1.278   2.597
  243SOL    HW2  748   0.590   1.408   2.501
  244SOL     OW  749   1.293   1.228   3.285
  244SOL    HW1  750   1.330   1.155   3.227
  244SOL    HW2  751   1.345   1.233   3.370
  245SOL     OW  752   0.809   0.004   2.364
  245SOL    HW1  753   0.849   0.095   2.355
  245SOL    HW2  754   0.709   0.012   2.370
  246SOL     OW  755   0.197   0.976   3.126
  246SOL    HW1  756   0.286   0.931   3.112
  246SOL    HW2  757   0.124   0.911   3.107
  247SOL     OW  758   1.525   0.999   2.052
  247SOL    HW1  759   1.462   0.923   2.065
  247SOL    HW2  760   1.573   1.017   2.138
  248SOL     OW  761   1.187   1.792   3.478
  248SOL    HW1  762   1.211   1.852   3.402
  248SOL    HW2  763   1.194   1.697   3.448
  249SOL     OW  764   0.317   0.251   3.663
  249SOL    HW1  765   0.388   0.322   3.669
  249SOL    HW2  766   0.229   0.290   3.691
  250SOL     OW  767   1.466   1.417   2.815
  250SOL    HW1  768   1.407   1.423   2.895
  250SOL    HW2  769   1.451   1.329   2.769
  251SOL     OW  770   1.667   1.714   2.434
  251SOL    HW1  771   1.626   1.691   2.346
  251SOL    HW2  772   1.649   1.640   2.499
  252SOL     OW  773   0.598   0.729   2.132
  252SOL    HW1  774   0.622   0.798   2.064
  252SOL    HW2  775   0.520   0.762   2.186
  253SOL     OW  776   1.281   0.345   2.806
  253SOL    HW1  777   1.195   0.295   2.793
  253SOL    HW2  778   1.343   0.291   2.862
  254SOL     OW  779   1.576   1.662   2.169
  254SOL    HW1  780   1.665   1.708   2.172
  254SOL    HW2  781   1.555   1.638   2.074
  255SOL     OW  782   0.807   0.605   3.327
  255SOL    HW1  783   0.760   0.602   3.416
  255SOL    HW2  784   0.756   0.550   3.261
  256SOL     OW  785   1.394   0.469   3.536
  256SOL    HW1  786   1.374   0.512   3.624
  256SOL    HW2  787   1.472   0.407   3.545
  257SOL     OW  788   0.973   0.890   3.434
  257SOL    HW1  789   1.019   0.806   3.405
  257SOL    HW2  790   0.917   0.924   3.359
  258SOL     OW  791   0.991   0.410   3.104
  258SOL    HW1  792   0.914   0.444   3.158
  258SOL    HW2  793   0.957   0.359   3.025
  259SOL     OW  794   1.041   0.701   2.291
  259SOL    HW1  795   1.067   0.697   2.387
  259SOL    HW2  796   0.956   0.650   2.277
  260SOL     OW  797   0.076   0.811   2.651
  260SOL    HW1  798   0.175   0.799   2.660
  260SOL    HW2  799   0.052   0.906   2.672
  261SOL     OW  800   0.130   1.821   3.433
  261SOL    HW1  801   0.120   1.806   3.532
  261SOL    HW2  802   0.044   1.857   3.397
  262SOL     OW  803   0.865   0.348   2.057
  262SOL    HW1  804   0.924   0.411   2.008
  262SOL    HW2  805   0.884   0.254   2.028
  263SOL     OW  806   1.719   0.585   3.693
  263SOL    HW1  807   1.693   0.674   3.657
  263SOL    HW2  808   1.717   0.517   3.620
  264SOL     OW  809   1.362   1.144   2.407
  264SOL    HW1  810   1.445   1.115   2.359
  264SOL    HW2  811   1.313   1.211   2.351
  265SOL     OW  812   0.550   0.196   2.747
  265SOL    HW1  813   0.545   0.191   2.847
  265SOL    HW2  814   0.552   0.292   2.718
  266SOL     OW  815   1.008   1.456   2.339
  266SOL    HW1  816   0.962   1.528   2.287
  266SOL    HW2  817   1.004   1.476   2.437
  267SOL     OW  818   0.351   1.801   2.715
  267SOL    HW1  819   0.401   1.715   2.721
  267SOL    HW2  820   0.416   1.878   2.712
  268SOL     OW  821   1.795   1.066   2.735
  268SOL    HW1  822   1.733   1.051   2.659
  268SOL    HW2  823   1.743   1.077   2.820
  269SOL     OW  824   1.227   1.550   3.368
  269SOL    HW1  825   1.233   1.473   3.432
  269SOL    HW2  826   1.175   1.524   3.288
  270SOL     OW  827   0.321   0.943   2.104
  270SOL    HW1  828   0.403   0.982   2.062
  270SOL    HW2  829   0.294   0.861   2.055
  271SOL     OW  830   1.458   0.735   2.590
  271SOL    HW1  831   1.453   0.670   2.665
  271SOL    HW2  832   1.538   0.794   2.603
  272SOL     OW  833   0.461   1.266   3.589
  272SOL    HW1  834   0.411   1.267   3.503
  272SOL    HW2  835   0.398   1.248   3.665
  273SOL     OW  836   1.111   1.776   2.099
  273SOL    HW1  837   1.051   1.714   2.149
  273SOL    HW2  838   1.142   1.732   2.014
  274SOL     OW  839   0.202   0.285   3.360
  274SOL    HW1  840   0.122   0.345   3.347
  274SOL    HW2  841   0.192   0.236   3.446
  275SOL     OW  842   1.632   1.377   1.943
  275SOL    HW1  843   1.600   1.471   1.933
  275SOL    HW2  844   1.556   1.314   1.931
  276SOL     OW  845   0.464   1.743   2.185
  276SOL    HW1  846   0.497   1.782   2.271
  276SOL    HW2  847   0.540   1.736   2.120
  277SOL     OW  848   1.400   0.107   2.288
  277SOL    HW1  849   1.376   0.070   2.198
  277SOL    HW2  850   1.499   0.123   2.292
  278SOL     OW  851   0.249   1.785   3.103
  278SOL    HW1  852   0.306   1.720   3.153
  278SOL    HW2  853   0.233   1.752   3.010
  279SOL     OW  854   0.940   1.698   2.766
  279SOL    HW1  855   1.020   1.641   2.787
  279SOL    HW2  856   0.891   1.658   2.689
  280SOL     OW  857   0.382   0.700   2.342
  280SOL    HW1  858   0.427   0.610   2.339
  280SOL    HW2  859   0.288   0.689   2.375
  281SOL     OW  860   1.547   0.222   3.591
  281SOL    HW1  861   1.542   0.259   3.683
  281SOL    HW2  862   1.475   0.153   3.579
  282SOL     OW  863   0.614   0.122   1.979
  282SOL    HW1  864   0.712   0.100   1.986
  282SOL    HW2  865   0.583   0.105   1.886
  283SOL     OW  866   0.781   0.264   3.611
  283SOL    HW1  867   0.848   0.203   3.654
  283SOL    HW2  868   0.708   0.283   3.676
  284SOL     OW  869   0.888   1.514   3.057
  284SOL    HW1  870   0.865   1.489   2.963
  284SOL    HW2  871   0.949   1.445   3.096
  285SOL     OW  872   1.351   0.590   3.295
  285SOL    HW1  873   1.379   0.547   3.380
  285SOL    HW2  874   1.376   0.686   3.296
  286SOL     OW  875   0.803   1.402   2.786
  286SOL    HW1  876   0.893   1.416   2.744
  286SOL    HW2  877   0.732   1.404   2.715
  287SOL     OW  878   0.922   0.503   2.761
  287SOL    HW1  879   0.897   0.494   2.665
  287SOL    HW2  880   0.970   0.421   2.792
  288SOL     OW  881   0.539   0.064   2.374
  288SOL    HW1  882   0.458   0.065   2.432
  288SOL    HW2  883   0.542   0.147   2.319
  289SOL     OW  884   1.434   1.188   1.903
  289SOL    HW1  885   1.466   1.112   1.960
  289SOL    HW2  886   1.342   1.215   1.933
  290SOL     OW  887   0.297   0.035   2.033
  290SOL    HW1  888   0.346   0.119   2.012
  290SOL    HW2  889   0.359  -0.030   2.078
  291SOL     OW  890   0.935   0.236   2.342
  291SOL    HW1  891   0.887   0.277   2.264
  291SOL    HW2  892   1.034   0.234   2.323
  292SOL     OW  893   1.076   0.683   3.326
  292SOL    HW1  894   0.996   0.622   3.329
  292SOL    HW2  895   1.157   0.630   3.302
  293SOL     OW  896   1.227   1.570   2.655
  293SOL    HW1  897   1.248   1.644   2.590
  293SOL    HW2  898   1.295   1.570   2.728
  294SOL     OW  899   0.459   1.152   2.603
  294SOL    HW1  900   0.388   1.125   2.668
  294SOL    HW2  901   0.433   1.124   2.510
  295SOL     OW  902   1.271   1.797   2.453
  295SOL    HW1  903   1.315   1.861   2.389
  295SOL    HW2  904   1.221   1.849   2.523
  296SOL     OW  905   1.032   0.549   1.878
  296SOL    HW1  906   0.991   0.631   1.839
  296SOL    HW2  907   1.096   0.575   1.951
  297SOL     OW  908   0.078   0.556   3.248
  297SOL    HW1  909   0.170   0.555   3.207
  297SOL    HW2  910   0.072   0.630   3.315
  298SOL     OW  911   0.561   0.222   3.009
  298SOL    HW1  912   0.599   0.138   3.046
  298SOL    HW2  913   0.473   0.241   3.053
  299SOL     OW  914   0.866   0.454   2.504
  299SOL    HW1  915   0.834   0.526   2.442
  299SOL    HW2  916   0.890   0.373   2.451
  300SOL     OW  917   1.017   0.039   2.615
  300SOL    HW1  918   0.945   0.044   2.546
  300SOL    HW2  919   0.993  -0.030   2.684
  301SOL     OW  920   1.429   1.173   2.729
  301SOL    HW1  921   1.374   1.089   2.722
  301SOL    HW2  922   1.455   1.202   2.637
  302SOL     OW  923   1.466   0.590   2.854
  302SOL    HW1  924   1.436   0.495   2.861
  302SOL    HW2  925   1.539   0.606   2.920
  303SOL     OW  926   1.857   0.833   2.239
  303SOL    HW1  927   1.899   0.769   2.303
  303SOL    HW2  928   1.819   0.782   2.161
  304SOL     OW  929   0.488   1.385   2.036
  304SOL    HW1  930   0.401   1.370   2.083
  304SOL    HW2  931   0.471   1.411   1.941
  305SOL     OW  932   1.664   1.280   2.519
  305SOL    HW1  933   1.763   1.288   2.533
  305SOL    HW2  934   1.619   1.364   2.550
  306SOL     OW  935   1.390   0.575   1.940
  306SOL    HW1  936   1.336   0.554   2.021
  306SOL    HW2  937   1.481   0.534   1.949
  307SOL     OW  938   0.527   0.256   2.190
  307SOL    HW1  939   0.554   0.197   2.115
  307SOL    HW2  940   0.527   0.351   2.159
  308SOL     OW  941   1.754   1.223   3.450
  308SOL    HW1  942   1.845   1.184   3.437
  308SOL    HW2  943   1.762   1.319   3.474
  309SOL     OW  944   1.064   1.347   3.202
  309SOL    HW1  945   0.984   1.324   3.257
  309SOL    HW2  946   1.147   1.321   3.251
  310SOL     OW  947   1.592   1.629   3.487
  310SOL    HW1  948   1.619   1.663   3.397
  310SOL    HW2  949   1.671   1.591   3.533
  311SOL     OW  950   1.111   1.195   2.962
  311SOL    HW1  951   1.071   1.239   3.043
  311SOL    HW2  952   1.070   1.232   2.879
  312SOL     OW  953   1.638   1.099   2.941
  312SOL    HW1  954   1.643   1.180   3.000
  312SOL    HW2  955   1.552   1.101   2.890
  313SOL     OW  956   0.915   0.089   3.264
  313SOL    HW1  957   0.940   0.069   3.169
  313SOL    HW2  958   0.987   0.145   3.306
  314SOL     OW  959   0.980   1.116   3.581
  314SOL    HW1  960   0.881   1.122   3.591
  314SOL    HW2  961   1.003   1.036   3.525
  315SOL     OW  962   0.705   1.050   2.230
  315SOL    HW1  963   0.691   1.057   2.329
  315SOL    HW2  964   0.789   0.999   2.212
  316SOL     OW  965   0.410   0.813   3.113
  316SOL    HW1  966   0.496   0.825   3.163
  316SOL    HW2  967   0.368   0.726   3.140
  317SOL     OW  968   1.274   0.386   3.124
  317SOL    HW1  969   1.295   0.460   3.188
  317SOL    HW2  970   1.185   0.403   3.081
  318SOL     OW  971   0.064   1.564   3.193
  318SOL    HW1  972   0.018   1.646   3.159
  318SOL    HW2  973   0.162   1.583   3.202
  319SOL     OW  974   0.367   1.100   2.363
  319SOL    HW1  975   0.360   1.183   2.307
  319SOL    HW2  976   0.371   1.020   2.303
  320SOL     OW  977   0.566   0.537   2.727
  320SOL    HW1  978   0.578   0.603   2.653
  320SOL    HW2  979   0.612   0.571   2.810
  321SOL     OW  980   1.252   1.348   2.250
  321SOL    HW1  981   1.302   1.425   2.290
  321SOL    HW2  982   1.157   1.350   2.282
  322SOL     OW  983   1.272   1.445   3.004
  322SOL    HW1  984   1.319   1.458   3.091
  322SOL    HW2  985   1.206   1.371   3.013
  323SOL     OW  986   1.582   0.639   2.334
  323SOL    HW1  987   1.551   0.700   2.407
  323SOL    HW2  988   1.632   0.691   2.265
  324SOL     OW  989   0.354   1.510   3.191
  324SOL    HW1  990   0.333   1.466   3.104
  324SOL    HW2  991   0.451   1.536   3.194
  325SOL     OW  992   0.402   0.751   3.460
  325SOL    HW1  993   0.470   0.806   3.413
  325SOL    HW2  994   0.442   0.663   3.487
  326SOL     OW  995   1.587   0.779   3.532
  326SOL    HW1  996   1.495   0.817   3.527
  326SOL    HW2  997   1.647   0.826   3.467
  327SOL     OW  998   1.013   0.105   3.632
  327SOL    HW1  999   1.019   0.190   3.580
  327SOL    HW2 1000   1.045   0.029   3.575
  328SOL     OW 1001   0.504   0.050   3.602
  328SOL    HW1 1002   0.462  -0.007   3.532
  328SOL    HW2 1003   0.438   0.119   3.634
  329SOL     OW 1004   0.573   0.870   2.891
  329SOL    HW1 1005   0.617   0.959   2.882
  329SOL    HW2 1006   0.510   0.870   2.968
  330SOL     OW 1007   1.360   0.862   2.907
  330SOL    HW1 1008   1.285   0.862   2.841
  330SOL    HW2 1009   1.397   0.770   2.916
  331SOL     OW 1010   1.209   0.525   2.137
  331SOL    HW1 1011   1.222   0.441   2.191
  331SOL    HW2 1012   1.180   0.599   2.197
  332SOL     OW 1013   0.307   0.213   3.093
  332SOL    HW1 1014   0.284   0.250   3.183
  332SOL    HW2 1015   0.277   0.118   3.087
  333SOL     OW 1016   0.037   1.310   3.144
  333SOL    HW1 1017   0.090   1.261   3.212
  333SOL    HW2 1018   0.059   1.408   3.149
  334SOL     OW 1019   0.732   0.634   2.926
  334SOL    HW1 1020   0.791   0.608   2.850
  334SOL    HW2 1021   0.704   0.730   2.915
  335SOL     OW 1022   1.728   0.935   3.716
  335SOL    HW1 1023   1.682   0.928   3.627
  335SOL    HW2 1024   1.666   0.979   3.782
  336SOL     OW 1025   0.307   0.063   2.480
  336SOL    HW1 1026   0.296   0.157   2.513
  336SOL    HW2 1027   0.302   0.000   2.557
  337SOL     OW 1028   1.622   0.367   2.236
  337SOL    HW1 1029   1.624   0.291   2.300
  337SOL    HW2 1030   1.574   0.444   2.276
  338SOL     OW 1031   1.023   0.766   2.828
  338SOL    HW1 1032   1.038   0.787   2.924
  338SOL    HW2 1033   0.993   0.671   2.819
  339SOL     OW 1034   0.980   1.573   3.562
  339SOL    HW1 1035   0.960   1.617   3.474
  339SOL    HW2 1036   1.019   1.482   3.546
  340SOL     OW 1037   1.859   1.518   3.467
  340SOL    HW1 1038   1.873   1.545   3.372
  340SOL    HW2 1039   1.942   1.540   3.520
  341SOL     OW 1040   0.350   0.898   3.666
  341SOL    HW1 1041   0.426   0.942   3.714
  341SOL    HW2 1042   0.385   0.851   3.584
  342SOL     OW 1043   1.540   0.274   1.987
  342SOL    HW1 1044   1.479   0.199   2.010
  342SOL    HW2 1045   1.562   0.326   2.070
  343SOL     OW 1046   1.303   0.838   1.904
  343SOL    HW1 1047   1.337   0.745   1.919
  343SOL    HW2 1048   1.321   0.865   1.809
  344SOL     OW 1049   1.068   1.333   2.711
  344SOL    HW1 1050   1.075   1.249   2.656
  344SOL    HW2 1051   1.130   1.402   2.675
  345SOL     OW 1052   0.319   0.810   2.811
  345SOL    HW1 1053   0.412   0.846   2.816
  345SOL    HW2 1054   0.313   0.725   2.863
  346SOL     OW 1055   0.339   0.509   2.868
  346SOL    HW1 1056   0.287   0.426   2.851
  346SOL    HW2 1057   0.416   0.514   2.804
  347SOL     OW 1058   1.138   0.380   3.540
  347SOL    HW1 1059   1.093   0.443   3.604
  347SOL    HW2 1060   1.231   0.411   3.523
  348SOL     OW 1061   1.160   0.207   3.339
  348SOL    HW1 1062   1.160   0.271   3.416
  348SOL    HW2 1063   1.188   0.255   3.256
  349SOL     OW 1064   0.008   1.326   2.062
  349SOL    HW1 1065  -0.085   1.347   2.031
  349SOL    HW2 1066   0.018   1.227   2.075
  350SOL     OW 1067   0.088   1.801   2.789
  350SOL    HW1 1068   0.046   1.715   2.762
  350SOL    HW2 1069   0.182   1.804   2.755
  351SOL     OW 1070   0.504   1.568   2.772
  351SOL    HW1 1071   0.570   1.642   2.781
  351SOL    HW2 1072   0.548   1.489   2.730
  352SOL     OW 1073   1.002   0.796   3.100
  352SOL    HW1 1074   1.043   0.764   3.186
  352SOL    HW2 1075   0.906   0.769   3.097
  353SOL     OW 1076   0.040   0.544   2.976
  353SOL    HW1 1077   0.125   0.511   2.935
  353SOL    HW2 1078   0.053   0.559   3.074
  354SOL     OW 1079   0.189   0.520   3.584
  354SOL    HW1 1080   0.248   0.480   3.514
  354SOL    HW2 1081   0.131   0.591   3.543
  355SOL     OW 1082   1.369   0.950   3.522
  355SOL    HW1 1083   1.408   1.039   3.542
  355SOL    HW2 1084   1.379   0.930   3.425
  356SOL     OW 1085   0.815   0.572   2.187
  356SOL    HW1 1086   0.822   0.483   2.141
  356SOL    HW2 1087   0.721   0.606   2.179
  357SOL     OW 1088   1.657   0.604   3.068
  357SOL    HW1 1089   1.619   0.535   3.130
  357SOL    HW2 1090   1.739   0.568   3.024
  358SOL     OW 1091   0.252   1.564   3.606
  358SOL    HW1 1092   0.222   1.621   3.682
  358SOL    HW2 1093   0.245   1.467   3.632
  359SOL     OW 1094   0.671   0.464   3.131
  359SOL    HW1 1095   0.637   0.375   3.101
  359SOL    HW2 1096   0.697   0.518   3.051
  360SOL     OW 1097   0.930   1.678   3.327
  360SOL    HW1 1098   0.906   1.660   3.232
  360SOL    HW2 1099   0.960   1.772   3.337
  361SOL     OW 1100   0.473   0.500   2.053
  361SOL    HW1 1101   0.534   0.580   2.057
  361SOL    HW2 1102   0.378   0.531   2.060
  362SOL     OW 1103   0.159   1.137   3.328
  362SOL    HW1 1104   0.181   1.076   3.404
  362SOL    HW2 1105   0.169   1.088   3.242
  363SOL     OW 1106   1.347   1.059   3.096
  363SOL    HW1 1107   1.371   0.996   3.022
  363SOL    HW2 1108   1.257   1.099   3.078
  364SOL     OW 1109   1.302   0.855   2.171
  364SOL    HW1 1110   1.216   0.824   2.213
  364SOL    HW2 1111   1.298   0.841   2.072
  365SOL     OW 1112   1.759   1.747   3.016
  365SOL    HW1 1113   1.820   1.777   2.943
  365SOL    HW2 1114   1.721   1.658   2.994
  366SOL     OW 1115   1.252   1.731   2.990
  366SOL    HW1 1116   1.336   1.736   2.936
  366SOL    HW2 1117   1.229   1.635   3.008
  367SOL     OW 1118   0.083   1.258   2.884
  367SOL    HW1 1119   0.078   1.257   2.984
  367SOL    HW2 1120   0.000   1.217   2.846
  368SOL     OW 1121   0.688   1.662   3.578
  368SOL    HW1 1122   0.632   1.743   3.587
  368SOL    HW2 1123   0.740   1.666   3.492
  369SOL     OW 1124   1.726   0.135   2.385
  369SOL    HW1 1125   1.799   0.118   2.318
  369SOL    HW2 1126   1.695   0.048   2.423
  370SOL     OW 1127   1.388   1.573   2.339
  370SOL    HW1 1128   1.455   1.585   2.265
  370SOL    HW2 1129   1.348   1.662   2.362
  371SOL     OW 1130   0.130   1.794   3.713
  371SOL    HW1 1131   0.089   1.720   3.766
  371SOL    HW2 1132   0.194   1.845   3.771
  372SOL     OW 1133   1.280   0.927   2.534
  372SOL    HW1 1134   1.340   0.846   2.536
  372SOL    HW2 1135   1.320   0.996   2.474
  373SOL     OW 1136   0.830   1.273   3.284
  373SOL    HW1 1137   0.825   1.306   3.379
  373SOL    HW2 1138   0.744   1.292   3.238
  374SOL     OW 1139   0.672   1.616   2.016
  374SOL    HW1 1140   0.681   1.626   1.917
  374SOL    HW2 1141   0.632   1.527   2.037
  375SOL     OW 1142   1.650   1.720   3.256
  375SOL    HW1 1143   1.703   1.730   3.172
  375SOL    HW2 1144   1.623   1.810   3.290
  376SOL     OW 1145   1.841   0.175   2.825
  376SOL    HW1 1146   1.880   0.090   2.789
  376SOL    HW2 1147   1.743   0.177   2.806
  377SOL     OW 1148   0.263   0.326   2.582
  377SOL    HW1 1149   0.184   0.377   2.548
  377SOL    HW2 1150   0.254   0.311   2.680
  378SOL     OW 1151   1.194   1.612   1.893
  378SOL    HW1 1152   1.200   1.519   1.930
  378SOL    HW2 1153   1.135   1.612   1.813
  379SOL     OW 1154   0.822   1.002   3.234
  379SOL    HW1 1155   0.862   1.001   3.142
  379SOL    HW2 1156   0.832   1.094   3.274
  380SOL     OW 1157   0.916   0.910   2.153
  380SOL    HW1 1158   0.979   0.948   2.085
  380SOL    HW2 1159   0.956   0.827   2.192
  381SOL     OW 1160   1.504   1.607   1.906
  381SOL    HW1 1161   1.412   1.644   1.913
  381SOL    HW2 1162   1.542   1.627   1.816
  382SOL     OW 1163   0.372   1.288   3.352
  382SOL    HW1 1164   0.359   1.381   3.318
  382SOL    HW2 1165   0.288   1.236   3.339
  383SOL     OW 1166   1.614   1.292   3.151
  383SOL    HW1 1167   1.674   1.295   3.231
  383SOL    HW2 1168   1.539   1.356   3.164
  384SOL     OW 1169   1.039   1.098   2.558
  384SOL    HW1 1170   0.969   1.051   2.612
  384SOL    HW2 1171   1.098   1.030   2.515
  385SOL     OW 1172   1.014   0.236   2.833
  385SOL    HW1 1173   1.006   0.200   2.740
  385SOL    HW2 1174   1.012   0.160   2.898
  386SOL     OW 1175   0.590   1.487   2.353
  386SOL    HW1 1176   0.632   1.429   2.283
  386SOL    HW2 1177   0.546   1.566   2.309
  387SOL     OW 1178   1.709   0.385   3.243
  387SOL    HW1 1179   1.782   0.454   3.247
  387SOL    HW2 1180   1.737   0.310   3.184
  388SOL     OW 1181   0.255   1.348   2.152
  388SOL    HW1 1182   0.159   1.349   2.125
  388SOL    HW2 1183   0.267   1.401   2.236
  389SOL     OW 1184   0.105   1.013   3.588
  389SOL    HW1 1185   0.028   0.980   3.642
  389SOL    HW2 1186   0.190   0.983   3.630
  390SOL     OW 1187   0.672   0.203   3.351
  390SOL    HW1 1188   0.762   0.187   3.311
  390SOL    HW2 1189   0.680   0.208   3.450
  391SOL     OW 1190   0.075   0.345   1.895
  391SOL    HW1 1191  -0.017   0.317   1.866
  391SOL    HW2 1192   0.106   0.422   1.839
  392SOL     OW 1193   1.440   0.856   3.260
  392SOL    HW1 1194   1.383   0.908   3.197
  392SOL    HW2 1195   1.536   0.868   3.236
  393SOL     OW 1196   0.072   0.166   2.180
  393SOL    HW1 1197   0.055   0.249   2.126
  393SOL    HW2 1198   0.162   0.129   2.158
  394SOL     OW 1199   1.183   1.335   1.981
  394SOL    HW1 1200   1.084   1.324   1.983
  394SOL    HW2 1201   1.217   1.350   2.074
  395SOL     OW 1202   0.613   0.842   3.293
  395SOL    HW1 1203   0.669   0.923   3.276
  395SOL    HW2 1204   0.672   0.762   3.296
  396SOL     OW 1205   1.493   1.767   2.821
  396SOL    HW1 1206   1.526   1.831   2.752
  396SOL    HW2 1207   1.559   1.761   2.896
  397SOL     OW 1208   0.716   0.565   3.570
  397SOL    HW1 1209   0.735   0.630   3.644
  397SOL    HW2 1210   0.776   0.485   3.579
  398SOL     OW 1211   1.450   1.220   3.495
  398SOL    HW1 1212   1.441   1.210   3.594
  398SOL    HW2 1213   1.546   1.213   3.469
  399SOL     OW 1214   0.390   1.741   3.422
  399SOL    HW1 1215   0.299   1.782   3.420
  399SOL    HW2 1216   0.383   1.647   3.454
  400SOL     OW 1217   1.674   0.883   3.116
  400SOL    HW1 1218   1.647   0.794   3.079
  400SOL    HW2 1219   1.675   0.951   3.043
  401SOL     OW 1220   1.225   0.325   2.311
  401SOL    HW1 1221   1.290   0.251   2.300
  401SOL    HW2 1222   1.245   0.375   2.395
  402SOL     OW 1223   0.594   0.745   2.514
  402SOL    HW1 1224   0.644   0.830   2.495
  402SOL    HW2 1225   0.506   0.747   2.466
  403SOL     OW 1226   1.777   0.342   3.504
  403SOL    HW1 1227   1.760   0.373   3.410
  403SOL    HW2 1228   1.693   0.305   3.542
  404SOL     OW 1229   1.730   0.934   3.379
  404SOL    HW1 1230   1.768   1.025   3.394
  404SOL    HW2 1231   1.722   0.917   3.280
  405SOL     OW 1232   0.859   1.374   1.878
  405SOL    HW1 1233   0.813   1.389   1.966
  405SOL    HW2 1234   0.903   1.459   1.848
  406SOL     OW 1235   0.661   1.790   2.815
  406SOL    HW1 1236   0.615   1.878   2.802
  406SOL    HW2 1237   0.760   1.802   2.808
  407SOL     OW 1238   0.859   0.956   2.723
  407SOL    HW1 1239   0.913   0.887   2.771
  407SOL    HW2 1240   0.827   1.025   2.789
  408SOL     OW 1241   1.083   0.984   1.949
  408SOL    HW1 1242   1.060   1.037   1.867
  408SOL    HW2 1243   1.164   0.928   1.930
  409SOL     OW 1244   1.861   1.569   2.713
  409SOL    HW1 1245   1.790   1.557   2.643
  409SOL    HW2 1246   1.862   1.490   2.773
  410SOL     OW 1247   0.221   1.314   3.706
  410SOL    HW1 1248   0.156   1.241   3.685
  410SOL    HW2 1249   0.225   1.328   3.804
  411SOL     OW 1250   0.079   1.240   2.515
  411SOL    HW1 1251   0.078   1.193   2.603
  411SOL    HW2 1252   0.161   1.212   2.464
  412SOL     OW 1253   0.672   1.391   3.486
  412SOL    HW1 1254   0.594   1.341   3.524
  412SOL    HW2 1255   0.669   1.486   3.517
  413SOL     OW 1256   1.824   0.192   3.089
  413SOL    HW1 1257   1.820   0.102   3.133
  413SOL    HW2 1258   1.827   0.181   2.990
  414SOL     OW 1259   0.428   0.424   2.382
  414SOL    HW1 1260   0.458   0.352   2.320
  414SOL    HW2 1261   0.389   0.384   2.465
  415SOL     OW 1262   1.705   1.487   2.966
  415SOL    HW1 1263   1.612   1.462   2.939
  415SOL    HW2 1264   1.731   1.437   3.048
  416SOL     OW 1265   0.317   0.547   3.142
  416SOL    HW1 1266   0.355   0.488   3.214
  416SOL    HW2 1267   0.357   0.521   3.054
  417SOL     OW 1268   0.812   1.586   2.549
  417SOL    HW1 1269   0.844   1.596   2.455
  417SOL    HW2 1270   0.733   1.524   2.551
  418SOL     OW 1271   1.424   0.214   2.974
  418SOL    HW1 1272   1.476   0.149   3.029
  418SOL    HW2 1273   1.375   0.277   3.035
  419SOL     OW 1274   1.001   0.034   3.016
  419SOL    HW1 1275   0.938  -0.038   2.985
  419SOL    HW2 1276   1.094  -0.002   3.016
  420SOL     OW 1277   0.770   1.330   2.163
  420SOL    HW1 1278   0.724   1.243   2.180
  420SOL    HW2 1279   0.861   1.327   2.204
  421SOL     OW 1280   0.618   1.567   3.146
  421SOL    HW1 1281   0.613   1.649   3.203
  421SOL    HW2 1282   0.707   1.564   3.101
  422SOL     OW 1283   1.352   0.052   2.030
  422SOL    HW1 1284   1.387   0.011   1.946
  422SOL    HW2 1285   1.262   0.014   2.050
  423SOL     OW 1286   1.300   0.453   2.553
  423SOL    HW1 1287   1.241   0.533   2.557
  423SOL    HW2 1288   1.315   0.418   2.646
  424SOL     OW 1289   1.593   0.221   2.744
  424SOL    HW1 1290   1.509   0.220   2.798
  424SOL    HW2 1291   1.595   0.304   2.688
  425SOL     OW 1292   0.039   1.077   2.162
  425SOL    HW1 1293   0.138   1.066   2.153
  425SOL    HW2 1294  -0.001   0.991   2.194
  426SOL     OW 1295   0.875   1.646   2.199
  426SOL    HW1 1296   0.798   1.611   2.145
  426SOL    HW2 1297   0.843   1.717   2.261
  427SOL     OW 1298   0.230   0.628   3.837
  427SOL    HW1 1299   0.137   0.626   3.874
  427SOL    HW2 1300   0.231   0.589   3.745
  428SOL     OW 1301   0.225   0.275   4.720
  428SOL    HW1 1302   0.260   0.258   4.812
  428SOL    HW2 1303   0.137   0.230   4.708
  429SOL     OW 1304   0.019   0.368   4.371
  429SOL    HW1 1305  -0.063   0.411   4.410
  429SOL    HW2 1306  -0.009   0.295   4.308
  430SOL     OW 1307   1.555   1.511   4.427
  430SOL    HW1 1308   1.498   1.495   4.508
  430SOL    HW2 1309   1.496   1.521   4.347
  431SOL     OW 1310   1.135   0.703   4.441
  431SOL    HW1 1311   1.192   0.781   4.416
  431SOL    HW2 1312   1.075   0.729   4.517
  432SOL     OW 1313   1.755   0.607   3.955
  432SOL    HW1 1314   1.743   0.594   3.856
  432SOL    HW2 1315   1.725   0.526   4.004
  433SOL     OW 1316   0.768   1.144   4.747
  433SOL    HW1 1317   0.690   1.161   4.807
  433SOL    HW2 1318   0.802   1.231   4.711
  434SOL     OW 1319   0.685   1.012   4.389
  434SOL    HW1 1320   0.754   0.996   4.459
  434SOL    HW2 1321   0.612   1.069   4.427
  435SOL     OW 1322   0.335   1.435   4.785
  435SOL    HW1 1323   0.257   1.404   4.732
  435SOL    HW2 1324   0.393   1.493   4.728
  436SOL     OW 1325   1.603   0.447   4.461
  436SOL    HW1 1326   1.529   0.493   4.411
  436SOL    HW2 1327   1.654   0.515   4.514
  437SOL     OW 1328   0.231   1.713   4.207
  437SOL    HW1 1329   0.265   1.790   4.261
  437SOL    HW2 1330   0.275   1.713   4.117
  438SOL     OW 1331   0.230   1.434   4.262
  438SOL    HW1 1332   0.204   1.530   4.262
  438SOL    HW2 1333   0.159   1.380   4.307
  439SOL     OW 1334   0.240   1.091   4.610
  439SOL    HW1 1335   0.254   1.007   4.662
  439SOL    HW2 1336   0.185   1.155   4.665
  440SOL     OW 1337   0.606   0.964   3.847
  440SOL    HW1 1338   0.613   1.048   3.793
  440SOL    HW2 1339   0.652   0.977   3.935
  441SOL     OW 1340   0.122   0.643   4.287
  441SOL    HW1 1341   0.077   0.555   4.304
  441SOL    HW2 1342   0.121   0.697   4.371
  442SOL     OW 1343   1.842   1.767   4.083
  442SOL    HW1 1344   1.896   1.738   4.163
  442SOL    HW2 1345   1.872   1.857   4.054
  443SOL     OW 1346   0.027   1.596   3.841
  443SOL    HW1 1347   0.008   1.500   3.862
  443SOL    HW2 1348  -0.006   1.654   3.916
  444SOL     OW 1349   1.689   0.922   4.336
  444SOL    HW1 1350   1.784   0.893   4.344
  444SOL    HW2 1351   1.681   0.987   4.261
  445SOL     OW 1352   1.641   1.108   4.156
  445SOL    HW1 1353   1.727   1.110   4.104
  445SOL    HW2 1354   1.655   1.155   4.244
  446SOL     OW 1355   0.613   1.365   4.450
  446SOL    HW1 1356   0.564   1.278   4.459
  446SOL    HW2 1357   0.590   1.408   4.363
  447SOL     OW 1358   0.809   0.004   4.226
  447SOL    HW1 1359   0.849   0.095   4.217
  447SOL    HW2 1360   0.709   0.012   4.232
  448SOL     OW 1361   1.525   0.999   3.914
  448SOL    HW1 1362   1.462   0.923   3.927
  448SOL    HW2 1363   1.573   1.017   4.000
  449SOL     OW 1364   1.466   1.417   4.677
  449SOL    HW1 1365   1.407   1.423   4.757
  449SOL    HW2 1366   1.451   1.329   4.631
  450SOL     OW 1367   1.667   1.714   4.296
  450SOL    HW1 1368   1.626   1.691   4.208
  450SOL    HW2 1369   1.649   1.640   4.361
  451SOL     OW 1370   0.598   0.729   3.994
  451SOL    HW1 1371   0.622   0.798   3.926
  451SOL    HW2 1372   0.520   0.762   4.048
  452SOL     OW 1373   1.281   0.345   4.668
  452SOL    HW1 1374   1.195   0.295   4.655
  452SOL    HW2 1375   1.343   0.291   4.724
  453SOL     OW 1376   1.576   1.662   4.031
  453SOL    HW1 1377   1.665   1.708   4.034
  453SOL    HW2 1378   1.555   1.638   3.936
  454SOL     OW 1379   1.041   0.701   4.153
  454SOL    HW1 1380   1.067   0.697   4.249
  454SOL    HW2 1381   0.956   0.650   4.139
  455SOL     OW 1382   0.076   0.811   4.513
  455SOL    HW1 1383   0.175   0.799   4.522
  455SOL    HW2 1384   0.052   0.906   4.534
  456SOL     OW 1385   0.865   0.348   3.919
  456SOL    HW1 1386   0.924   0.411   3.870
  456SOL    HW2 1387   0.884   0.254   3.890
  457SOL     OW 1388   1.362   1.144   4.269
  457SOL    HW1 1389   1.445   1.115   4.221
  457SOL    HW2 1390   1.313   1.211   4.213
  458SOL     OW 1391   0.550   0.196   4.609
  458SOL    HW1 1392   0.545   0.191   4.709
  458SOL    HW2 1393   0.552   0.292   4.580
  459SOL     OW 1394   1.008   1.456   4.201
  459SOL    HW1 1395   0.962   1.528   4.149
  459SOL    HW2 1396   1.004   1.476   4.299
  460SOL     OW 1397   0.351   1.801   4.577
  460SOL    HW1 1398   0.401   1.715   4.583
  460SOL    HW2 1399   0.416   1.878   4.574
  461SOL     OW 1400   1.795   1.066   4.597
  461SOL    HW1 1401   1.733   1.051   4.521
  461SOL    HW2 1402   1.743   1.077   4.682
  462SOL     OW 1403   0.321   0.943   3.966
  462SOL    HW1 1404   0.403   0.982   3.924
  462SOL    HW2 1405   0.294   0.861   3.917
  463SOL     OW 1406   1.458   0.735   4.452
  463SOL    HW1 1407   1.453   0.670   4.527
  463SOL    HW2 1408   1.538   0.794   4.465
  464SOL     OW 1409   1.111   1.776   3.961
  464SOL    HW1 1410   1.051   1.714   4.011
  464SOL    HW2 1411   1.142   1.732   3.876
  465SOL     OW 1412   1.632   1.377   3.805
  465SOL    HW1 1413   1.600   1.471   3.795
  465SOL    HW2 1414   1.556   1.314   3.793
  466SOL     OW 1415   0.464   1.743   4.047
  466SOL    HW1 1416   0.497   1.782   4.133
  466SOL    HW2 1417   0.540   1.736   3.982
  467SOL     OW 1418   1.400   0.107   4.150
  467SOL    HW1 1419   1.376   0.070   4.060
  467SOL    HW2 1420   1.499   0.123   4.154
  468SOL     OW 1421   0.249   1.785   4.965
  468SOL    HW1 1422   0.306   1.720   5.015
  468SOL    HW2 1423   0.233   1.752   4.872
  469SOL     OW 1424   0.940   1.698   4.628
  469SOL    HW1 1425   1.020   1.641   4.649
  469SOL    HW2 1426   0.891   1.658   4.551
  470SOL     OW 1427   0.382   0.700   4.204
  470SOL    HW1 1428   0.427   0.610   4.201
  470SOL    HW2 1429   0.288   0.689   4.237
  471SOL     OW 1430   0.614   0.122   3.841
  471SOL    HW1 1431   0.712   0.100   3.848
  471SOL    HW2 1432   0.583   0.105   3.748
  472SOL     OW 1433   0.803   1.402   4.648
  472SOL    HW1 1434   0.893   1.416   4.606
  472SOL    HW2 1435   0.732   1.404   4.577
  473SOL     OW 1436   0.922   0.503   4.623
  473SOL    HW1 1437   0.897   0.494   4.527
  473SOL    HW2 1438   0.970   0.421   4.654
  474SOL     OW 1439   0.539   0.064   4.236
  474SOL    HW1 1440   0.458   0.065   4.294
  474SOL    HW2 1441   0.542   0.147   4.181
  475SOL     OW 1442   1.434   1.188   3.765
  475SOL    HW1 1443   1.466   1.112   3.822
  475SOL    HW2 1444   1.342   1.215   3.795
  476SOL     OW 1445   0.297   0.035   3.895
  476SOL    HW1 1446   0.346   0.119   3.874
  476SOL    HW2 1447   0.359  -0.030   3.940
  477SOL     OW 1448   0.935   0.236   4.204
  477SOL    HW1 1449   0.887   0.277   4.126
  477SOL    HW2 1450   1.034   0.234   4.185
  478SOL     OW 1451   1.227   1.570   4.517
  478SOL    HW1 1452   1.248   1.644   4.452
  478SOL    HW2 1453   1.295   1.570   4.590
  479SOL     OW 1454   0.459   1.152   4.465
  479SOL    HW1 1455   0.388   1.125   4.530
  479SOL    HW2 1456   0.433   1.124   4.372
  480SOL     OW 1457   1.271   1.797   4.315
  480SOL    HW1 1458   1.315   1.861   4.251
  480SOL    HW2 1459   1.221   1.849   4.385
  481SOL     OW 1460   1.032   0.549   3.740
  481SOL    HW1 1461   0.991   0.631   3.701
  481SOL    HW2 1462   1.096   0.575   3.813
  482SOL     OW 1463   0.866   0.454   4.366
  482SOL    HW1 1464   0.834   0.526   4.304
  482SOL    HW2 1465   0.890   0.373   4.313
  483SOL     OW 1466   1.017   0.039   4.477
  483SOL    HW1 1467   0.945   0.044   4.408
  483SOL    HW2 1468   0.993  -0.030   4.546
  484SOL     OW 1469   1.429   1.173   4.591
  484SOL    HW1 1470   1.374   1.089   4.584
  484SOL    HW2 1471   1.455   1.202   4.499
  485SOL     OW 1472   1.466   0.590   4.716
  485SOL    HW1 1473   1.436   0.495   4.723
  485SOL    HW2 1474   1.539   0.606   4.782
  486SOL     OW 1475   1.857   0.833   4.101
  486SOL    HW1 1476   1.899   0.769   4.165
  486SOL    HW2 1477   1.819   0.782   4.023
  487SOL     OW 1478   0.488   1.385   3.898
  487SOL    HW1 1479   0.401   1.370   3.945
  487SOL    HW2 1480   0.471   1.411   3.803
  488SOL     OW 1481   1.664   1.280   4.381
  488SOL    HW1 1482   1.763   1.288   4.395
  488SOL    HW2 1483   1.619   1.364   4.412
  489SOL     OW 1484   1.390   0.575   3.802
  489SOL    HW1 1485   1.336   0.554   3.883
  489SOL    HW2 1486   1.481   0.534   3.811
  490SOL     OW 1487   0.527   0.256   4.052
  490SOL    HW1 1488   0.554   0.197   3.977
  490SOL    HW2 1489   0.527   0.351   4.021
  491SOL     OW 1490   1.638   1.099   4.803
  491SOL    HW1 1491   1.643   1.180   4.862
  491SOL    HW2 1492   1.552   1.101   4.752
  492SOL     OW 1493   0.705   1.050   4.092
  492SOL    HW1 1494   0.691   1.057   4.191
  492SOL    HW2 1495   0.789   0.999   4.074
  493SOL     OW 1496   0.410   0.813   4.975
  493SOL    HW1 1497   0.496   0.825   5.025
  493SOL    HW2 1498   0.368   0.726   5.002
  494SOL     OW 1499   0.367   1.100   4.225
  494SOL    HW1 1500   0.360   1.183   4.169
  494SOL    HW2 1501   0.371   1.020   4.165
  495SOL     OW 1502   0.566   0.537   4.589
  495SOL    HW1 1503   0.578   0.603   4.515
  495SOL    HW2 1504   0.612   0.571   4.672
  496SOL     OW 1505   1.252   1.348   4.112
  496SOL    HW1 1506   1.302   1.425   4.152
  496SOL    HW2 1507   1.157   1.350   4.144
  497SOL     OW 1508   1.582   0.639   4.196
  497SOL    HW1 1509   1.551   0.700   4.269
  497SOL    HW2 1510   1.632   0.691   4.127
  498SOL     OW 1511   0.354   1.510   5.053
  498SOL    HW1 1512   0.333   1.466   4.966
  498SOL    HW2 1513   0.451   1.536   5.056
  499SOL     OW 1514   0.573   0.870   4.753
  499SOL    HW1 1515   0.617   0.959   4.744
  499SOL    HW2 1516   0.510   0.870   4.830
  500SOL     OW 1517   1.209   0.525   3.999
  500SOL    HW1 1518   1.222   0.441   4.053
  500SOL    HW2 1519   1.180   0.599   4.059
  501SOL     OW 1520   0.732   0.634   4.788
  501SOL    HW1 1521   0.791   0.608   4.712
  501SOL    HW2 1522   0.704   0.730   4.777
  502SOL     OW 1523   0.307   0.063   4.342
  502SOL    HW1 1524   0.296   0.157   4.375
  502SOL    HW2 1525   0.302   0.000   4.419
  503SOL     OW 1526   1.622   0.367   4.098
  503SOL    HW1 1527   1.624   0.291   4.162
  503SOL    HW2 1528   1.574   0.444   4.138
  504SOL     OW 1529   1.023   0.766   4.690
  504SOL    HW1 1530   1.038   0.787   4.786
  504SOL    HW2 1531   0.993   0.671   4.681
  505SOL     OW 1532   1.540   0.274   3.849
  505SOL    HW1 1533   1.479   0.199   3.872
  505SOL    HW2 1534   1.562   0.326   3.932
  506SOL     OW 1535   1.303   0.838   3.766
  506SOL    HW1 1536   1.337   0.745   3.781
  506SOL    HW2 1537   1.321   0.865   3.671
  507SOL     OW 1538   1.068   1.333   4.573
  507SOL    HW1 1539   1.075   1.249   4.518
  507SOL    HW2 1540   1.130   1.402   4.537
  508SOL     OW 1541   0.319   0.810   4.673
  508SOL    HW1 1542   0.412   0.846   4.678
  508SOL    HW2 1543   0.313   0.725   4.725
  509SOL     OW 1544   0.339   0.509   4.730
  509SOL    HW1 1545   0.287   0.426   4.713
  509SOL    HW2 1546   0.416   0.514   4.666
  510SOL     OW 1547   0.008   1.326   3.924
  510SOL    HW1 1548  -0.085   1.347   3.893
  510SOL    HW2 1549   0.018   1.227   3.937
  511SOL     OW 1550   0.088   1.801   4.651
  511SOL    HW1 1551   0.046   1.715   4.624
  511SOL    HW2 1552   0.182   1.804   4.617
  512SOL     OW 1553   0.504   1.568   4.634
  512SOL    HW1 1554   0.570   1.642   4.643
  512SOL    HW2 1555   0.548   1.489   4.592
  513SOL     OW 1556   1.002   0.796   4.962
  513SOL    HW1 1557   1.043   0.764   5.048
  513SOL    HW2 1558   0.906   0.769   4.959
  514SOL     OW 1559   0.815   0.572   4.049
  514SOL    HW1 1560   0.822   0.483   4.003
  514SOL    HW2 1561   0.721   0.606   4.041
  515SOL     OW 1562   0.671   0.464   4.993
  515SOL    HW1 1563   0.637   0.375   4.963
  515SOL    HW2 1564   0.697   0.518   4.913
  516SOL     OW 1565   0.473   0.500   3.915
  516SOL    HW1 1566   0.534   0.580   3.919
  516SOL    HW2 1567   0.378   0.531   3.922
  517SOL     OW 1568   1.302   0.855   4.033
  517SOL    HW1 1569   1.216   0.824   4.075
  517SOL    HW2 1570   1.298   0.841   3.934
  518SOL     OW 1571   1.759   1.747   4.878
  518SOL    HW1 1572   1.820   1.777   4.805
  518SOL    HW2 1573   1.721   1.658   4.856
  519SOL     OW 1574   0.083   1.258   4.746
  519SOL    HW1 1575   0.078   1.257   4.846
  519SOL    HW2 1576   0.000   1.217   4.708
  520SOL     OW 1577   1.726   0.135   4.247
  520SOL    HW1 1578   1.799   0.118   4.180
  520SOL    HW2 1579   1.695   0.048   4.285
  521SOL     OW 1580   1.388   1.573   4.201
  521SOL    HW1 1581   1.455   1.585   4.127
  521SOL    HW2 1582   1.348   1.662   4.224
  522SOL     OW 1583   1.280   0.927   4.396
  522SOL    HW1 1584   1.340   0.846   4.398
  522SOL    HW2 1585   1.320   0.996   4.336
  523SOL     OW 1586   0.672   1.616   3.878
  523SOL    HW1 1587   0.681   1.626   3.779
  523SOL    HW2 1588   0.632   1.527   3.899
  524SOL     OW 1589   1.841   0.175   4.687
  524SOL    HW1 1590   1.880   0.090   4.651
  524SOL    HW2 1591   1.743   0.177   4.668
  525SOL     OW 1592   0.263   0.326   4.444
  525SOL    HW1 1593   0.184   0.377   4.410
  525SOL    HW2 1594   0.254   0.311   4.542
  526SOL     OW 1595   1.194   1.612   3.755
  526SOL    HW1 1596   1.200   1.519   3.792
  526SOL    HW2 1597   1.135   1.612   3.675
  527SOL     OW 1598   0.916   0.910   4.015
  527SOL    HW1 1599   0.979   0.948   3.947
  527SOL    HW2 1600   0.956   0.827   4.054
  528SOL     OW 1601   1.504   1.607   3.768
  528SOL    HW1 1602   1.412   1.644   3.775
  528SOL    HW2 1603   1.542   1.627   3.678
  529SOL     OW 1604   1.039   1.098   4.420
  529SOL    HW1 1605   0.969   1.051   4.474
  529SOL    HW2 1606   1.098   1.030   4.377
  530SOL     OW 1607   1.014   0.236   4.695
  530SOL    HW1 1608   1.006   0.200   4.602
  530SOL    HW2 1609   1.012   0.160   4.760
  531SOL     OW 1610   0.590   1.487   4.215
  531SOL    HW1 1611   0.632   1.429   4.145
  531SOL    HW2 1612   0.546   1.566   4.171
  532SOL     OW 1613   0.255   1.348   4.014
  532SOL    HW1 1614   0.159   1.349   3.987
  532SOL    HW2 1615   0.267   1.401   4.098
  533SOL     OW 1616   0.075   0.345   3.757
  533SOL    HW1 1617  -0.017   0.317   3.728
  533SOL    HW2 1618   0.106   0.422   3.701
  534SOL     OW 1619   0.072   0.166   4.042
  534SOL    HW1 1620   0.055   0.249   3.988
  534SOL    HW2 1621   0.162   0.129   4.020
  535SOL     OW 1622   1.183   1.335   3.843
  535SOL    HW1 1623   1.084   1.324   3.845
  535SOL    HW2 1624   1.217   1.350   3.936
  536SOL     OW 1625   1.493   1.767   4.683
  536SOL    HW1 1626   1.526   1.831   4.614
  536SOL    HW2 1627   1.559   1.761   4.758
  537SOL     OW 1628   1.674   0.883   4.978
  537SOL    HW1 1629   1.647   0.794   4.941
  537SOL    HW2 1630   1.675   0.951   4.905
  538SOL     OW 1631   1.225   0.325   4.173
  538SOL    HW1 1632   1.290   0.251   4.162
  538SOL    HW2 1633   1.245   0.375   4.257
  539SOL     OW 1634   0.594   0.745   4.376
  539SOL    HW1 1635   0.644   0.830   4.357
  539SOL    HW2 1636   0.506   0.747   4.328
  540SOL     OW 1637   0.859   1.374   3.740
  540SOL    HW1 1638   0.813   1.389   3.828
  540SOL    HW2 1639   0.903   1.459   3.710
  541SOL     OW 1640   0.661   1.790   4.677
  541SOL    HW1 1641   0.615   1.878   4.664
  541SOL    HW2 1642   0.760   1.802   4.670
  542SOL     OW 1643   0.859   0.956   4.585
  542SOL    HW1 1644   0.913   0.887   4.633
  542SOL    HW2 1645   0.827   1.025   4.651
  543SOL     OW 1646   1.083   0.984   3.811
  543SOL    HW1 1647   1.060   1.037   3.729
  543SOL    HW2 1648   1.164   0.928   3.792
  544SOL     OW 1649   1.861   1.569   4.575
  544SOL    HW1 1650   1.790   1.557   4.505
  544SOL    HW2 1651   1.862   1.490   4.635
  545SOL     OW 1652   0.079   1.240   4.377
  545SOL    HW1 1653   0.078   1.193   4.465
  545SOL    HW2 1654   0.161   1.212   4.326
  546SOL     OW 1655   1.824   0.192   4.951
  546SOL    HW1 1656   1.820   0.102   4.995
  546SOL    HW2 1657   1.827   0.181   4.852
  547SOL     OW 1658   0.428   0.424   4.244
  547SOL    HW1 1659   0.458   0.352   4.182
  547SOL    HW2 1660   0.389   0.384   4.327
  548SOL     OW 1661   0.812   1.586   4.411
  548SOL    HW1 1662   0.844   1.596   4.317
  548SOL    HW2 1663   0.733   1.524   4.413
  549SOL     OW 1664   1.424   0.214   4.836
  549SOL    HW1 1665   1.476   0.149   4.891
  549SOL    HW2 1666   1.375   0.277   4.897
  550SOL     OW 1667   0.770   1.330   4.025
  550SOL    HW1 1668   0.724   1.243   4.042
  550SOL    HW2 1669   0.861   1.327   4.066
  551SOL     OW 1670   1.352   0.052   3.892
  551SOL    HW1 1671   1.387   0.011   3.808
  551SOL    HW2 1672   1.262   0.014   3.912
  552SOL     OW 1673   1.300   0.453   4.415
  552SOL    HW1 1674   1.241   0.533   4.419
  552SOL    HW2 1675   1.315   0.418   4.508
  553SOL     OW 1676   1.593   0.221   4.606
  553SOL    HW1 1677   1.509   0.220   4.660
  553SOL    HW2 1678   1.595   0.304   4.550
  554SOL     OW 1679   0.039   1.077   4.024
  554SOL    HW1 1680   0.138   1.066   4.015
  554SOL    HW2 1681  -0.001   0.991   4.056
  555SOL     OW 1682   0.875   1.646   4.061
  555SOL    HW1 1683   0.798   1.611   4.007
  555SOL    HW2 1684   0.843   1.717   4.123
  556SOL     OW 1685   0.230   2.490   0.113
  556SOL    HW1 1686   0.137   2.488   0.150
  556SOL    HW2 1687   0.231   2.451   0.021
  557SOL     OW 1688   0.225   2.137   0.996
  557SOL    HW1 1689   0.260   2.120   1.088
  557SOL    HW2 1690   0.137   2.092   0.984
  558SOL     OW 1691   0.019   2.230   0.647
  558SOL    HW1 1692  -0.063   2.273   0.686
  558SOL    HW2 1693  -0.009   2.157   0.584
  559SOL     OW 1694   0.569   3.137   1.165
  559SOL    HW1 1695   0.476   3.130   1.128
  559SOL    HW2 1696   0.580   3.226   1.209
  560SOL     OW 1697   1.555   3.373   0.703
  560SOL    HW1 1698   1.498   3.357   0.784
  560SOL    HW2 1699   1.496   3.383   0.623
  561SOL     OW 1700   1.135   2.565   0.717
  561SOL    HW1 1701   1.192   2.643   0.692
  561SOL    HW2 1702   1.075   2.591   0.793
  562SOL     OW 1703   1.755   2.469   0.231
  562SOL    HW1 1704   1.743   2.456   0.132
  562SOL    HW2 1705   1.725   2.388   0.280
  563SOL     OW 1706   0.768   3.006   1.023
  563SOL    HW1 1707   0.690   3.023   1.083
  563SOL    HW2 1708   0.802   3.093   0.987
  564SOL     OW 1709   0.850   2.660   1.823
  564SOL    HW1 1710   0.846   2.736   1.888
  564SOL    HW2 1711   0.872   2.696   1.732
  565SOL     OW 1712   0.685   2.874   0.665
  565SOL    HW1 1713   0.754   2.858   0.735
  565SOL    HW2 1714   0.612   2.931   0.703
  566SOL     OW 1715   0.686   3.023   1.803
  566SOL    HW1 1716   0.746   3.102   1.817
  566SOL    HW2 1717   0.600   3.054   1.762
  567SOL     OW 1718   0.335   3.297   1.061
  567SOL    HW1 1719   0.257   3.266   1.008
  567SOL    HW2 1720   0.393   3.355   1.004
  568SOL     OW 1721   1.460   3.367   1.339
  568SOL    HW1 1722   1.484   3.461   1.365
  568SOL    HW2 1723   1.444   3.313   1.421
  569SOL     OW 1724   0.438   2.254   1.499
  569SOL    HW1 1725   0.520   2.198   1.508
  569SOL    HW2 1726   0.357   2.196   1.503
  570SOL     OW 1727   1.603   2.309   0.737
  570SOL    HW1 1728   1.529   2.355   0.687
  570SOL    HW2 1729   1.654   2.377   0.790
  571SOL     OW 1730   0.231   3.575   0.483
  571SOL    HW1 1731   0.265   3.652   0.537
  571SOL    HW2 1732   0.275   3.575   0.393
  572SOL     OW 1733   1.127   3.203   1.690
  572SOL    HW1 1734   1.174   3.203   1.778
  572SOL    HW2 1735   1.079   3.116   1.679
  573SOL     OW 1736   0.230   3.296   0.538
  573SOL    HW1 1737   0.204   3.392   0.538
  573SOL    HW2 1738   0.159   3.242   0.583
  574SOL     OW 1739   0.240   2.953   0.886
  574SOL    HW1 1740   0.254   2.869   0.938
  574SOL    HW2 1741   0.185   3.017   0.941
  575SOL     OW 1742   0.620   3.648   1.439
  575SOL    HW1 1743   0.528   3.631   1.474
  575SOL    HW2 1744   0.648   3.740   1.465
  576SOL     OW 1745   0.606   2.826   0.123
  576SOL    HW1 1746   0.613   2.910   0.069
  576SOL    HW2 1747   0.652   2.839   0.211
  577SOL     OW 1748   1.594   1.976   1.480
  577SOL    HW1 1749   1.576   2.043   1.408
  577SOL    HW2 1750   1.591   2.022   1.569
  578SOL     OW 1751   0.122   2.505   0.563
  578SOL    HW1 1752   0.077   2.417   0.580
  578SOL    HW2 1753   0.121   2.559   0.647
  579SOL     OW 1754   1.842   3.629   0.359
  579SOL    HW1 1755   1.896   3.600   0.439
  579SOL    HW2 1756   1.872   3.719   0.330
  580SOL     OW 1757   0.027   3.458   0.117
  580SOL    HW1 1758   0.008   3.362   0.138
  580SOL    HW2 1759  -0.006   3.516   0.192
  581SOL     OW 1760   1.689   2.784   0.612
  581SOL    HW1 1761   1.784   2.755   0.620
  581SOL    HW2 1762   1.681   2.849   0.537
  582SOL     OW 1763   1.641   2.970   0.432
  582SOL    HW1 1764   1.727   2.972   0.380
  582SOL    HW2 1765   1.655   3.017   0.520
  583SOL     OW 1766   0.113   2.599   1.597
  583SOL    HW1 1767   0.201   2.586   1.642
  583SOL    HW2 1768   0.100   2.696   1.575
  584SOL     OW 1769   0.613   3.227   0.726
  584SOL    HW1 1770   0.564   3.140   0.735
  584SOL    HW2 1771   0.590   3.270   0.639
  585SOL     OW 1772   1.293   3.090   1.423
  585SOL    HW1 1773   1.330   3.017   1.365
  585SOL    HW2 1774   1.345   3.095   1.508
  586SOL     OW 1775   0.809   1.866   0.502
  586SOL    HW1 1776   0.849   1.957   0.493
  586SOL    HW2 1777   0.709   1.874   0.508
  587SOL     OW 1778   0.197   2.838   1.264
  587SOL    HW1 1779   0.286   2.793   1.250
  587SOL    HW2 1780   0.124   2.773   1.245
  588SOL     OW 1781   1.525   2.861   0.190
  588SOL    HW1 1782   1.462   2.785   0.203
  588SOL    HW2 1783   1.573   2.879   0.276
  589SOL     OW 1784   1.187   3.654   1.616
  589SOL    HW1 1785   1.211   3.714   1.540
  589SOL    HW2 1786   1.194   3.559   1.586
  590SOL     OW 1787   0.317   2.113   1.801
  590SOL    HW1 1788   0.388   2.184   1.807
  590SOL    HW2 1789   0.229   2.152   1.829
  591SOL     OW 1790   1.466   3.279   0.953
  591SOL    HW1 1791   1.407   3.285   1.033
  591SOL    HW2 1792   1.451   3.191   0.907
  592SOL     OW 1793   1.667   3.576   0.572
  592SOL    HW1 1794   1.626   3.553   0.484
  592SOL    HW2 1795   1.649   3.502   0.637
  593SOL     OW 1796   0.598   2.591   0.270
  593SOL    HW1 1797   0.622   2.660   0.202
  593SOL    HW2 1798   0.520   2.624   0.324
  594SOL     OW 1799   1.281   2.207   0.944
  594SOL    HW1 1800   1.195   2.157   0.931
  594SOL    HW2 1801   1.343   2.153   1.000
  595SOL     OW 1802   1.576   3.524   0.307
  595SOL    HW1 1803   1.665   3.570   0.310
  595SOL    HW2 1804   1.555   3.500   0.212
  596SOL     OW 1805   0.807   2.467   1.465
  596SOL    HW1 1806   0.760   2.464   1.554
  596SOL    HW2 1807   0.756   2.412   1.399
  597SOL     OW 1808   1.394   2.331   1.674
  597SOL    HW1 1809   1.374   2.374   1.762
  597SOL    HW2 1810   1.472   2.269   1.683
  598SOL     OW 1811   0.973   2.752   1.572
  598SOL    HW1 1812   1.019   2.668   1.543
  598SOL    HW2 1813   0.917   2.786   1.497
  599SOL     OW 1814   0.991   2.272   1.242
  599SOL    HW1 1815   0.914   2.306   1.296
  599SOL    HW2 1816   0.957   2.221   1.163
  600SOL     OW 1817   1.041   2.563   0.429
  600SOL    HW1 1818   1.067   2.559   0.525
  600SOL    HW2 1819   0.956   2.512   0.415
  601SOL     OW 1820   0.076   2.673   0.789
  601SOL    HW1 1821   0.175   2.661   0.798
  601SOL    HW2 1822   0.052   2.768   0.810
  602SOL     OW 1823   0.130   3.683   1.571
  602SOL    HW1 1824   0.120   3.668   1.670
  602SOL    HW2 1825   0.044   3.719   1.535
  603SOL     OW 1826   0.865   2.210   0.195
  603SOL    HW1 1827   0.924   2.273   0.146
  603SOL    HW2 1828   0.884   2.116   0.166
  604SOL     OW 1829   1.719   2.447   1.831
  604SOL    HW1 1830   1.693   2.536   1.795
  604SOL    HW2 1831   1.717   2.379   1.758
  605SOL     OW 1832   1.362   3.006   0.545
  605SOL    HW1 1833   1.445   2.977   0.497
  605SOL    HW2 1834   1.313   3.073   0.489
  606SOL     OW 1835   0.550   2.058   0.885
  606SOL    HW1 1836   0.545   2.053   0.985
  606SOL    HW2 1837   0.552   2.154   0.856
  607SOL     OW 1838   1.008   3.318   0.477
  607SOL    HW1 1839   0.962   3.390   0.425
  607SOL    HW2 1840   1.004   3.338   0.575
  608SOL     OW 1841   0.351   3.663   0.853
  608SOL    HW1 1842   0.401   3.577   0.859
  608SOL    HW2 1843   0.416   3.740   0.850
  609SOL     OW 1844   1.795   2.928   0.873
  609SOL    HW1 1845   1.733   2.913   0.797
  609SOL    HW2 1846   1.743   2.939   0.958
  610SOL     OW 1847   1.227   3.412   1.506
  610SOL    HW1 1848   1.233   3.335   1.570
  610SOL    HW2 1849   1.175   3.386   1.426
  611SOL     OW 1850   0.321   2.805   0.242
  611SOL    HW1 1851   0.403   2.844   0.200
  611SOL    HW2 1852   0.294   2.723   0.193
  612SOL     OW 1853   1.458   2.597   0.728
  612SOL    HW1 1854   1.453   2.532   0.803
  612SOL    HW2 1855   1.538   2.656   0.741
  613SOL     OW 1856   0.461   3.128   1.727
  613SOL    HW1 1857   0.411   3.129   1.641
  613SOL    HW2 1858   0.398   3.110   1.803
  614SOL     OW 1859   1.111   3.638   0.237
  614SOL    HW1 1860   1.051   3.576   0.287
  614SOL    HW2 1861   1.142   3.594   0.152
  615SOL     OW 1862   0.202   2.147   1.498
  615SOL    HW1 1863   0.122   2.207   1.485
  615SOL    HW2 1864   0.192   2.098   1.584
  616SOL     OW 1865   1.632   3.239   0.081
  616SOL    HW1 1866   1.600   3.333   0.071
  616SOL    HW2 1867   1.556   3.176   0.069
  617SOL     OW 1868   0.464   3.605   0.323
  617SOL    HW1 1869   0.497   3.644   0.409
  617SOL    HW2 1870   0.540   3.598   0.258
  618SOL     OW 1871   1.400   1.969   0.426
  618SOL    HW1 1872   1.376   1.932   0.336
  618SOL    HW2 1873   1.499   1.985   0.430
  619SOL     OW 1874   0.249   3.647   1.241
  619SOL    HW1 1875   0.306   3.582   1.291
  619SOL    HW2 1876   0.233   3.614   1.148
  620SOL     OW 1877   0.940   3.560   0.904
  620SOL    HW1 1878   1.020   3.503   0.925
  620SOL    HW2 1879   0.891   3.520   0.827
  621SOL     OW 1880   0.382   2.562   0.480
  621SOL    HW1 1881   0.427   2.472   0.477
  621SOL    HW2 1882   0.288   2.551   0.513
  622SOL     OW 1883   1.547   2.084   1.729
  622SOL    HW1 1884   1.542   2.121   1.821
  622SOL    HW2 1885   1.475   2.015   1.717
  623SOL     OW 1886   0.614   1.984   0.117
  623SOL    HW1 1887   0.712   1.962   0.124
  623SOL    HW2 1888   0.583   1.967   0.024
  624SOL     OW 1889   0.781   2.126   1.749
  624SOL    HW1 1890   0.848   2.065   1.792
  624SOL    HW2 1891   0.708   2.145   1.814
  625SOL     OW 1892   0.888   3.376   1.195
  625SOL    HW1 1893   0.865   3.351   1.101
  625SOL    HW2 1894   0.949   3.307   1.234
  626SOL     OW 1895   1.351   2.452   1.433
  626SOL    HW1 1896   1.379   2.409   1.518
  626SOL    HW2 1897   1.376   2.548   1.434
  627SOL     OW 1898   0.803   3.264   0.924
  627SOL    HW1 1899   0.893   3.278   0.882
  627SOL    HW2 1900   0.732   3.266   0.853
  628SOL     OW 1901   0.922   2.365   0.899
  628SOL    HW1 1902   0.897   2.356   0.803
  628SOL    HW2 1903   0.970   2.283   0.930
  629SOL     OW 1904   0.539   1.926   0.512
  629SOL    HW1 1905   0.458   1.927   0.570
  629SOL    HW2 1906   0.542   2.009   0.457
  630SOL     OW 1907   1.434   3.050   0.041
  630SOL    HW1 1908   1.466   2.974   0.098
  630SOL    HW2 1909   1.342   3.077   0.071
  631SOL     OW 1910   0.935   2.098   0.480
  631SOL    HW1 1911   0.887   2.139   0.402
  631SOL    HW2 1912   1.034   2.096   0.461
  632SOL     OW 1913   1.076   2.545   1.464
  632SOL    HW1 1914   0.996   2.484   1.467
  632SOL    HW2 1915   1.157   2.492   1.440
  633SOL     OW 1916   1.227   3.432   0.793
  633SOL    HW1 1917   1.248   3.506   0.728
  633SOL    HW2 1918   1.295   3.432   0.866
  634SOL     OW 1919   0.459   3.014   0.741
  634SOL    HW1 1920   0.388   2.987   0.806
  634SOL    HW2 1921   0.433   2.986   0.648
  635SOL     OW 1922   1.271   3.659   0.591
  635SOL    HW1 1923   1.315   3.723   0.527
  635SOL    HW2 1924   1.221   3.711   0.661
  636SOL     OW 1925   1.032   2.411   0.016
  636SOL    HW1 1926   0.991   2.493  -0.023
  636SOL    HW2 1927   1.096   2.437   0.089
  637SOL     OW 1928   0.078   2.418   1.386
  637SOL    HW1 1929   0.170   2.417   1.345
  637SOL    HW2 1930   0.072   2.492   1.453
  638SOL     OW 1931   0.561   2.084   1.147
  638SOL    HW1 1932   0.599   2.000   1.184
  638SOL    HW2 1933   0.473   2.103   1.191
  639SOL     OW 1934   0.866   2.316   0.642
  639SOL    HW1 1935   0.834   2.388   0.580
  639SOL    HW2 1936   0.890   2.235   0.589
  640SOL     OW 1937   1.017   1.901   0.753
  640SOL    HW1 1938   0.945   1.906   0.684
  640SOL    HW2 1939   0.993   1.832   0.822
  641SOL     OW 1940   1.429   3.035   0.867
  641SOL    HW1 1941   1.374   2.951   0.860
  641SOL    HW2 1942   1.455   3.064   0.775
  642SOL     OW 1943   1.466   2.452   0.992
  642SOL    HW1 1944   1.436   2.357   0.999
  642SOL    HW2 1945   1.539   2.468   1.058
  643SOL     OW 1946   1.857   2.695   0.377
  643SOL    HW1 1947   1.899   2.631   0.441
  643SOL    HW2 1948   1.819   2.644   0.299
  644SOL     OW 1949   0.488   3.247   0.174
  644SOL    HW1 1950   0.401   3.232   0.221
  644SOL    HW2 1951   0.471   3.273   0.079
  645SOL     OW 1952   1.664   3.142   0.657
  645SOL    HW1 1953   1.763   3.150   0.671
  645SOL    HW2 1954   1.619   3.226   0.688
  646SOL     OW 1955   1.390   2.437   0.078
  646SOL    HW1 1956   1.336   2.416   0.159
  646SOL    HW2 1957   1.481   2.396   0.087
  647SOL     OW 1958   0.527   2.118   0.328
  647SOL    HW1 1959   0.554   2.059   0.253
  647SOL    HW2 1960   0.527   2.213   0.297
  648SOL     OW 1961   1.754   3.085   1.588
  648SOL    HW1 1962   1.845   3.046   1.575
  648SOL    HW2 1963   1.762   3.181   1.612
  649SOL     OW 1964   1.064   3.209   1.340
  649SOL    HW1 1965   0.984   3.186   1.395
  649SOL    HW2 1966   1.147   3.183   1.389
  650SOL     OW 1967   1.592   3.491   1.625
  650SOL    HW1 1968   1.619   3.525   1.535
  650SOL    HW2 1969   1.671   3.453   1.671
  651SOL     OW 1970   1.111   3.057   1.100
  651SOL    HW1 1971   1.071   3.101   1.181
  651SOL    HW2 1972   1.070   3.094   1.017
  652SOL     OW 1973   1.638   2.961   1.079
  652SOL    HW1 1974   1.643   3.042   1.138
  652SOL    HW2 1975   1.552   2.963   1.028
  653SOL     OW 1976   0.915   1.951   1.402
  653SOL    HW1 1977   0.940   1.931   1.307
  653SOL    HW2 1978   0.987   2.007   1.444
  654SOL     OW 1979   0.980   2.978   1.719
  654SOL    HW1 1980   0.881   2.984   1.729
  654SOL    HW2 1981   1.003   2.898   1.663
  655SOL     OW 1982   0.705   2.912   0.368
  655SOL    HW1 1983   0.691   2.919   0.467
  655SOL    HW2 1984   0.789   2.861   0.350
  656SOL     OW 1985   0.410   2.675   1.251
  656SOL    HW1 1986   0.496   2.687   1.301
  656SOL    HW2 1987   0.368   2.588   1.278
  657SOL     OW 1988   1.274   2.248   1.262
  657SOL    HW1 1989   1.295   2.322   1.326
  657SOL    HW2 1990   1.185   2.265   1.219
  658SOL     OW 1991   0.064   3.426   1.331
  658SOL    HW1 1992   0.018   3.508   1.297
  658SOL    HW2 1993   0.162   3.445   1.340
  659SOL     OW 1994   0.367   2.962   0.501
  659SOL    HW1 1995   0.360   3.045   0.445
  659SOL    HW2 1996   0.371   2.882   0.441
  660SOL     OW 1997   0.566   2.399   0.865
  660SOL    HW1 1998   0.578   2.465   0.791
  660SOL    HW2 1999   0.612   2.433   0.948
  661SOL     OW 2000   1.252   3.210   0.388
  661SOL    HW1 2001   1.302   3.287   0.428
  661SOL    HW2 2002   1.157   3.212   0.420
  662SOL     OW 2003   1.272   3.307   1.142
  662SOL    HW1 2004   1.319   3.320   1.229
  662SOL    HW2 2005   1.206   3.233   1.151
  663SOL     OW 2006   1.582   2.501   0.472
  663SOL    HW1 2007   1.551   2.562   0.545
  663SOL    HW2 2008   1.632   2.553   0.403
  664SOL     OW 2009   0.354   3.372   1.329
  664SOL    HW1 2010   0.333   3.328   1.242
  664SOL    HW2 2011   0.451   3.398   1.332
  665SOL     OW 2012   0.402   2.613   1.598
  665SOL    HW1 2013   0.470   2.668   1.551
  665SOL    HW2 2014   0.442   2.525   1.625
  666SOL     OW 2015   1.587   2.641   1.670
  666SOL    HW1 2016   1.495   2.679   1.665
  666SOL    HW2 2017   1.647   2.688   1.605
  667SOL     OW 2018   1.013   1.967   1.770
  667SOL    HW1 2019   1.019   2.052   1.718
  667SOL    HW2 2020   1.045   1.891   1.713
  668SOL     OW 2021   0.504   1.912   1.740
  668SOL    HW1 2022   0.462   1.855   1.670
  668SOL    HW2 2023   0.438   1.981   1.772
  669SOL     OW 2024   0.573   2.732   1.029
  669SOL    HW1 2025   0.617   2.821   1.020
  669SOL    HW2 2026   0.510   2.732   1.106
  670SOL     OW 2027   1.360   2.724   1.045
  670SOL    HW1 2028   1.285   2.724   0.979
  670SOL    HW2 2029   1.397   2.632   1.054
  671SOL     OW 2030   1.209   2.387   0.275
  671SOL    HW1 2031   1.222   2.303   0.329
  671SOL    HW2 2032   1.180   2.461   0.335
  672SOL     OW 2033   0.307   2.075   1.231
  672SOL    HW1 2034   0.284   2.112   1.321
  672SOL    HW2 2035   0.277   1.980   1.225
  673SOL     OW 2036   0.037   3.172   1.282
  673SOL    HW1 2037   0.090   3.123   1.350
  673SOL    HW2 2038   0.059   3.270   1.287
  674SOL     OW 2039   0.732   2.496   1.064
  674SOL    HW1 2040   0.791   2.470   0.988
  674SOL    HW2 2041   0.704   2.592   1.053
  675SOL     OW 2042   1.728   2.797   1.854
  675SOL    HW1 2043   1.682   2.790   1.765
  675SOL    HW2 2044   1.666   2.841   1.920
  676SOL     OW 2045   0.307   1.925   0.618
  676SOL    HW1 2046   0.296   2.019   0.651
  676SOL    HW2 2047   0.302   1.862   0.695
  677SOL     OW 2048   1.622   2.229   0.374
  677SOL    HW1 2049   1.624   2.153   0.438
  677SOL    HW2 2050   1.574   2.306   0.414
  678SOL     OW 2051   1.023   2.628   0.966
  678SOL    HW1 2052   1.038   2.649   1.062
  678SOL    HW2 2053   0.993   2.533   0.957
  679SOL     OW 2054   0.980   3.435   1.700
  679SOL    HW1 2055   0.960   3.479   1.612
  679SOL    HW2 2056   1.019   3.344   1.684
  680SOL     OW 2057   1.859   3.380   1.605
  680SOL    HW1 2058   1.873   3.407   1.510
  680SOL    HW2 2059   1.942   3.402   1.658
  681SOL     OW 2060   0.350   2.760   1.804
  681SOL    HW1 2061   0.426   2.804   1.852
  681SOL    HW2 2062   0.385   2.713   1.722
  682SOL     OW 2063   1.540   2.136   0.125
  682SOL    HW1 2064   1.479   2.061   0.148
  682SOL    HW2 2065   1.562   2.188   0.208
  683SOL     OW 2066   1.303   2.700   0.042
  683SOL    HW1 2067   1.337   2.607   0.057
  683SOL    HW2 2068   1.321   2.727  -0.053
  684SOL     OW 2069   1.068   3.195   0.849
  684SOL    HW1 2070   1.075   3.111   0.794
  684SOL    HW2 2071   1.130   3.264   0.813
  685SOL     OW 2072   0.319   2.672   0.949
  685SOL    HW1 2073   0.412   2.708   0.954
  685SOL    HW2 2074   0.313   2.587   1.001
  686SOL     OW 2075   0.339   2.371   1.006
  686SOL    HW1 2076   0.287   2.288   0.989
  686SOL    HW2 2077   0.416   2.376   0.942
  687SOL     OW 2078   1.138   2.242   1.678
  687SOL    HW1 2079   1.093   2.305   1.742
  687SOL    HW2 2080   1.231   2.273   1.661
  688SOL     OW 2081   1.160   2.069   1.477
  688SOL    HW1 2082   1.160   2.133   1.554
  688SOL    HW2 2083   1.188   2.117   1.394
  689SOL     OW 2084   0.008   3.188   0.200
  689SOL    HW1 2085  -0.085   3.209   0.169
  689SOL    HW2 2086   0.018   3.089   0.213
  690SOL     OW 2087   0.088   3.663   0.927
  690SOL    HW1 2088   0.046   3.577   0.900
  690SOL    HW2 2089   0.182   3.666   0.893
  691SOL     OW 2090   0.504   3.430   0.910
  691SOL    HW1 2091   0.570   3.504   0.919
  691SOL    HW2 2092   0.548   3.351   0.868
  692SOL     OW 2093   1.002   2.658   1.238
  692SOL    HW1 2094   1.043   2.626   1.324
  692SOL    HW2 2095   0.906   2.631   1.235
  693SOL     OW 2096   0.040   2.406   1.114
  693SOL    HW1 2097   0.125   2.373   1.073
  693SOL    HW2 2098   0.053   2.421   1.212
  694SOL     OW 2099   0.189   2.382   1.722
  694SOL    HW1 2100   0.248   2.342   1.652
  694SOL    HW2 2101   0.131   2.453   1.681
  695SOL     OW 2102   1.369   2.812   1.660
  695SOL    HW1 2103   1.408   2.901   1.680
  695SOL    HW2 2104   1.379   2.792   1.563
  696SOL     OW 2105   0.815   2.434   0.325
  696SOL    HW1 2106   0.822   2.345   0.279
  696SOL    HW2 2107   0.721   2.468   0.317
  697SOL     OW 2108   1.657   2.466   1.206
  697SOL    HW1 2109   1.619   2.397   1.268
  697SOL    HW2 2110   1.739   2.430   1.162
  698SOL     OW 2111   0.252   3.426   1.744
  698SOL    HW1 2112   0.222   3.483   1.820
  698SOL    HW2 2113   0.245   3.329   1.770
  699SOL     OW 2114   0.671   2.326   1.269
  699SOL    HW1 2115   0.637   2.237   1.239
  699SOL    HW2 2116   0.697   2.380   1.189
  700SOL     OW 2117   0.930   3.540   1.465
  700SOL    HW1 2118   0.906   3.522   1.370
  700SOL    HW2 2119   0.960   3.634   1.475
  701SOL     OW 2120   0.473   2.362   0.191
  701SOL    HW1 2121   0.534   2.442   0.195
  701SOL    HW2 2122   0.378   2.393   0.198
  702SOL     OW 2123   0.159   2.999   1.466
  702SOL    HW1 2124   0.181   2.938   1.542
  702SOL    HW2 2125   0.169   2.950   1.380
  703SOL     OW 2126   1.347   2.921   1.234
  703SOL    HW1 2127   1.371   2.858   1.160
  703SOL    HW2 2128   1.257   2.961   1.216
  704SOL     OW 2129   1.302   2.717   0.309
  704SOL    HW1 2130   1.216   2.686   0.351
  704SOL    HW2 2131   1.298   2.703   0.210
  705SOL     OW 2132   1.759   3.609   1.154
  705SOL    HW1 2133   1.820   3.639   1.081
  705SOL    HW2 2134   1.721   3.520   1.132
  706SOL     OW 2135   1.252   3.593   1.128
  706SOL    HW1 2136   1.336   3.598   1.074
  706SOL    HW2 2137   1.229   3.497   1.146
  707SOL     OW 2138   0.083   3.120   1.022
  707SOL    HW1 2139   0.078   3.119   1.122
  707SOL    HW2 2140   0.000   3.079   0.984
  708SOL     OW 2141   0.688   3.524   1.716
  708SOL    HW1 2142   0.632   3.605   1.725
  708SOL    HW2 2143   0.740   3.528   1.630
  709SOL     OW 2144   0.903   1.948   0.133
  709SOL    HW1 2145   0.954   1.949   0.047
  709SOL    HW2 2146   0.959   1.906   0.204
  710SOL     OW 2147   1.726   1.997   0.523
  710SOL    HW1 2148   1.799   1.980   0.456
  710SOL    HW2 2149   1.695   1.910   0.561
  711SOL     OW 2150   1.388   3.435   0.477
  711SOL    HW1 2151   1.455   3.447   0.403
  711SOL    HW2 2152   1.348   3.524   0.500
  712SOL     OW 2153   0.130   3.656   1.851
  712SOL    HW1 2154   0.089   3.582   1.904
  712SOL    HW2 2155   0.194   3.707   1.909
  713SOL     OW 2156   1.280   2.789   0.672
  713SOL    HW1 2157   1.340   2.708   0.674
  713SOL    HW2 2158   1.320   2.858   0.612
  714SOL     OW 2159   0.830   3.135   1.422
  714SOL    HW1 2160   0.825   3.168   1.517
  714SOL    HW2 2161   0.744   3.154   1.376
  715SOL     OW 2162   0.672   3.478   0.154
  715SOL    HW1 2163   0.681   3.488   0.055
  715SOL    HW2 2164   0.632   3.389   0.175
  716SOL     OW 2165   1.650   3.582   1.394
  716SOL    HW1 2166   1.703   3.592   1.310
  716SOL    HW2 2167   1.623   3.672   1.428
  717SOL     OW 2168   1.841   2.037   0.963
  717SOL    HW1 2169   1.880   1.952   0.927
  717SOL    HW2 2170   1.743   2.039   0.944
  718SOL     OW 2171   0.263   2.188   0.720
  718SOL    HW1 2172   0.184   2.239   0.686
  718SOL    HW2 2173   0.254   2.173   0.818
  719SOL     OW 2174   1.194   3.474   0.031
  719SOL    HW1 2175   1.200   3.381   0.068
  719SOL    HW2 2176   1.135   3.474  -0.049
  720SOL     OW 2177   0.822   2.864   1.372
  720SOL    HW1 2178   0.862   2.863   1.280
  720SOL    HW2 2179   0.832   2.956   1.412
  721SOL     OW 2180   0.916   2.772   0.291
  721SOL    HW1 2181   0.979   2.810   0.223
  721SOL    HW2 2182   0.956   2.689   0.330
  722SOL     OW 2183   1.504   3.469   0.044
  722SOL    HW1 2184   1.412   3.506   0.051
  722SOL    HW2 2185   1.542   3.489  -0.046
  723SOL     OW 2186   0.372   3.150   1.490
  723SOL    HW1 2187   0.359   3.243   1.456
  723SOL    HW2 2188   0.288   3.098   1.477
  724SOL     OW 2189   1.614   3.154   1.289
  724SOL    HW1 2190   1.674   3.157   1.369
  724SOL    HW2 2191   1.539   3.218   1.302
  725SOL     OW 2192   1.039   2.960   0.696
  725SOL    HW1 2193   0.969   2.913   0.750
  725SOL    HW2 2194   1.098   2.892   0.653
  726SOL     OW 2195   1.014   2.098   0.971
  726SOL    HW1 2196   1.006   2.062   0.878
  726SOL    HW2 2197   1.012   2.022   1.036
  727SOL     OW 2198   0.590   3.349   0.491
  727SOL    HW1 2199   0.632   3.291   0.421
  727SOL    HW2 2200   0.546   3.428   0.447
  728SOL     OW 2201   1.709   2.247   1.381
  728SOL    HW1 2202   1.782   2.316   1.385
  728SOL    HW2 2203   1.737   2.172   1.322
  729SOL     OW 2204   0.255   3.210   0.290
  729SOL    HW1 2205   0.159   3.211   0.263
  729SOL    HW2 2206   0.267   3.263   0.374
  730SOL     OW 2207   0.105   2.875   1.726
  730SOL    HW1 2208   0.028   2.842   1.780
  730SOL    HW2 2209   0.190   2.845   1.768
  731SOL     OW 2210   0.672   2.065   1.489
  731SOL    HW1 2211   0.762   2.049   1.449
  731SOL    HW2 2212   0.680   2.070   1.588
  732SOL     OW 2213   0.075   2.207   0.033
  732SOL    HW1 2214  -0.017   2.179   0.004
  732SOL    HW2 2215   0.106   2.284  -0.023
  733SOL     OW 2216   1.440   2.718   1.398
  733SOL    HW1 2217   1.383   2.770   1.335
  733SOL    HW2 2218   1.536   2.730   1.374
  734SOL     OW 2219   0.072   2.028   0.318
  734SOL    HW1 2220   0.055   2.111   0.264
  734SOL    HW2 2221   0.162   1.991   0.296
  735SOL     OW 2222   1.183   3.197   0.119
  735SOL    HW1 2223   1.084   3.186   0.121
  735SOL    HW2 2224   1.217   3.212   0.212
  736SOL     OW 2225   0.613   2.704   1.431
  736SOL    HW1 2226   0.669   2.785   1.414
  736SOL    HW2 2227   0.672   2.624   1.434
  737SOL     OW 2228   1.493   3.629   0.959
  737SOL    HW1 2229   1.526   3.693   0.890
  737SOL    HW2 2230   1.559   3.623   1.034
  738SOL     OW 2231   0.716   2.427   1.708
  738SOL    HW1 2232   0.735   2.492   1.782
  738SOL    HW2 2233   0.776   2.347   1.717
  739SOL     OW 2234   1.450   3.082   1.633
  739SOL    HW1 2235   1.441   3.072   1.732
  739SOL    HW2 2236   1.546   3.075   1.607
  740SOL     OW 2237   0.390   3.603   1.560
  740SOL    HW1 2238   0.299   3.644   1.558
  740SOL    HW2 2239   0.383   3.509   1.592
  741SOL     OW 2240   1.674   2.745   1.254
  741SOL    HW1 2241   1.647   2.656   1.217
  741SOL    HW2 2242   1.675   2.813   1.181
  742SOL     OW 2243   1.225   2.187   0.449
  742SOL    HW1 2244   1.290   2.113   0.438
  742SOL    HW2 2245   1.245   2.237   0.533
  743SOL     OW 2246   0.594   2.607   0.652
  743SOL    HW1 2247   0.644   2.692   0.633
  743SOL    HW2 2248   0.506   2.609   0.604
  744SOL     OW 2249   1.777   2.204   1.642
  744SOL    HW1 2250   1.760   2.235   1.548
  744SOL    HW2 2251   1.693   2.167   1.680
  745SOL     OW 2252   1.730   2.796   1.517
  745SOL    HW1 2253   1.768   2.887   1.532
  745SOL    HW2 2254   1.722   2.779   1.418
  746SOL     OW 2255   0.859   3.236   0.016
  746SOL    HW1 2256   0.813   3.251   0.104
  746SOL    HW2 2257   0.903   3.321  -0.014
  747SOL     OW 2258   0.661   3.652   0.953
  747SOL    HW1 2259   0.615   3.740   0.940
  747SOL    HW2 2260   0.760   3.664   0.946
  748SOL     OW 2261   0.859   2.818   0.861
  748SOL    HW1 2262   0.913   2.749   0.909
  748SOL    HW2 2263   0.827   2.887   0.927
  749SOL     OW 2264   1.083   2.846   0.087
  749SOL    HW1 2265   1.060   2.899   0.005
  749SOL    HW2 2266   1.164   2.790   0.068
  750SOL     OW 2267   1.861   3.431   0.851
  750SOL    HW1 2268   1.790   3.419   0.781
  750SOL    HW2 2269   1.862   3.352   0.911
  751SOL     OW 2270   0.221   3.176   1.844
  751SOL    HW1 2271   0.156   3.103   1.823
  751SOL    HW2 2272   0.225   3.190   1.942
  752SOL     OW 2273   0.079   3.102   0.653
  752SOL    HW1 2274   0.078   3.055   0.741
  752SOL    HW2 2275   0.161   3.074   0.602
  753SOL     OW 2276   0.672   3.253   1.624
  753SOL    HW1 2277   0.594   3.203   1.662
  753SOL    HW2 2278   0.669   3.348   1.655
  754SOL     OW 2279   1.824   2.054   1.227
  754SOL    HW1 2280   1.820   1.964   1.271
  754SOL    HW2 2281   1.827   2.043   1.128
  755SOL     OW 2282   0.428   2.286   0.520
  755SOL    HW1 2283   0.458   2.214   0.458
  755SOL    HW2 2284   0.389   2.246   0.603
  756SOL     OW 2285   1.705   3.349   1.104
  756SOL    HW1 2286   1.612   3.324   1.077
  756SOL    HW2 2287   1.731   3.299   1.186
  757SOL     OW 2288   0.317   2.409   1.280
  757SOL    HW1 2289   0.355   2.350   1.352
  757SOL    HW2 2290   0.357   2.383   1.192
  758SOL     OW 2291   0.812   3.448   0.687
  758SOL    HW1 2292   0.844   3.458   0.593
  758SOL    HW2 2293   0.733   3.386   0.689
  759SOL     OW 2294   1.424   2.076   1.112
  759SOL    HW1 2295   1.476   2.011   1.167
  759SOL    HW2 2296   1.375   2.139   1.173
  760SOL     OW 2297   1.001   1.896   1.154
  760SOL    HW1 2298   0.938   1.824   1.123
  760SOL    HW2 2299   1.094   1.860   1.154
  761SOL     OW 2300   0.770   3.192   0.301
  761SOL    HW1 2301   0.724   3.105   0.318
  761SOL    HW2 2302   0.861   3.189   0.342
  762SOL     OW 2303   0.618   3.429   1.284
  762SOL    HW1 2304   0.613   3.511   1.341
  762SOL    HW2 2305   0.707   3.426   1.239
  763SOL     OW 2306   1.352   1.914   0.168
  763SOL    HW1 2307   1.387   1.873   0.084
  763SOL    HW2 2308   1.262   1.876   0.188
  764SOL     OW 2309   1.300   2.315   0.691
  764SOL    HW1 2310   1.241   2.395   0.695
  764SOL    HW2 2311   1.315   2.280   0.784
  765SOL     OW 2312   1.593   2.083   0.882
  765SOL    HW1 2313   1.509   2.082   0.936
  765SOL    HW2 2314   1.595   2.166   0.826
  766SOL     OW 2315   0.039   2.939   0.300
  766SOL    HW1 2316   0.138   2.928   0.291
  766SOL    HW2 2317  -0.001   2.853   0.332
  767SOL     OW 2318   0.875   3.508   0.337
  767SOL    HW1 2319   0.798   3.473   0.283
  767SOL    HW2 2320   0.843   3.579   0.399
  768SOL     OW 2321   0.230   2.490   1.975
  768SOL    HW1 2322   0.137   2.488   2.012
  768SOL    HW2 2323   0.231   2.451   1.883
  769SOL     OW 2324   0.225   2.137   2.858
  769SOL    HW1 2325   0.260   2.120   2.950
  769SOL    HW2 2326   0.137   2.092   2.846
  770SOL     OW 2327   0.019   2.230   2.509
  770SOL    HW1 2328  -0.063   2.273   2.548
  770SOL    HW2 2329  -0.009   2.157   2.446
  771SOL     OW 2330   0.569   3.137   3.027
  771SOL    HW1 2331   0.476   3.130   2.990
  771SOL    HW2 2332   0.580   3.226   3.071
  772SOL     OW 2333   1.555   3.373   2.565
  772SOL    HW1 2334   1.498   3.357   2.646
  772SOL    HW2 2335   1.496   3.383   2.485
  773SOL     OW 2336   1.135   2.565   2.579
  773SOL    HW1 2337   1.192   2.643   2.554
  773SOL    HW2 2338   1.075   2.591   2.655
  774SOL     OW 2339   1.755   2.469   2.093
  774SOL    HW1 2340   1.743   2.456   1.994
  774SOL    HW2 2341   1.725   2.388   2.142
  775SOL     OW 2342   0.768   3.006   2.885
  775SOL    HW1 2343   0.690   3.023   2.945
  775SOL    HW2 2344   0.802   3.093   2.849
  776SOL     OW 2345   0.850   2.660   3.685
  776SOL    HW1 2346   0.846   2.736   3.750
  776SOL    HW2 2347   0.872   2.696   3.594
  777SOL     OW 2348   0.685   2.874   2.527
  777SOL    HW1 2349   0.754   2.858   2.597
  777SOL    HW2 2350   0.612   2.931   2.565
  778SOL     OW 2351   0.686   3.023   3.665
  778SOL    HW1 2352   0.746   3.102   3.679
  778SOL    HW2 2353   0.600   3.054   3.624
  779SOL     OW 2354   0.335   3.297   2.923
  779SOL    HW1 2355   0.257   3.266   2.870
  779SOL    HW2 2356   0.393   3.355   2.866
  780SOL     OW 2357   1.460   3.367   3.201
  780SOL    HW1 2358   1.484   3.461   3.227
  780SOL    HW2 2359   1.444   3.313   3.283
  781SOL     OW 2360   0.438   2.254   3.361
  781SOL    HW1 2361   0.520   2.198   3.370
  781SOL    HW2 2362   0.357   2.196   3.365
  782SOL     OW 2363   1.603   2.309   2.599
  782SOL    HW1 2364   1.529   2.355   2.549
  782SOL    HW2 2365   1.654   2.377   2.652
  783SOL     OW 2366   0.231   3.575   2.345
  783SOL    HW1 2367   0.265   3.652   2.399
  783SOL    HW2 2368   0.275   3.575   2.255
  784SOL     OW 2369   1.127   3.203   3.552
  784SOL    HW1 2370   1.174   3.203   3.640
  784SOL    HW2 2371   1.079   3.116   3.541
  785SOL     OW 2372   0.230   3.296   2.400
  785SOL    HW1 2373   0.204   3.392   2.400
  785SOL    HW2 2374   0.159   3.242   2.445
  786SOL     OW 2375   0.240   2.953   2.748
  786SOL    HW1 2376   0.254   2.869   2.800
  786SOL    HW2 2377   0.185   3.017   2.803
  787SOL     OW 2378   0.620   3.648   3.301
  787SOL    HW1 2379   0.528   3.631   3.336
  787SOL    HW2 2380   0.648   3.740   3.327
  788SOL     OW 2381   0.606   2.826   1.985
  788SOL    HW1 2382   0.613   2.910   1.931
  788SOL    HW2 2383   0.652   2.839   2.073
  789SOL     OW 2384   1.594   1.976   3.342
  789SOL    HW1 2385   1.576   2.043   3.270
  789SOL    HW2 2386   1.591   2.022   3.431
  790SOL     OW 2387   0.122   2.505   2.425
  790SOL    HW1 2388   0.077   2.417   2.442
  790SOL    HW2 2389   0.121   2.559   2.509
  791SOL     OW 2390   1.842   3.629   2.221
  791SOL    HW1 2391   1.896   3.600   2.301
  791SOL    HW2 2392   1.872   3.719   2.192
  792SOL     OW 2393   0.027   3.458   1.979
  792SOL    HW1 2394   0.008   3.362   2.000
  792SOL    HW2 2395  -0.006   3.516   2.054
  793SOL     OW 2396   1.689   2.784   2.474
  793SOL    HW1 2397   1.784   2.755   2.482
  793SOL    HW2 2398   1.681   2.849   2.399
  794SOL     OW 2399   1.641   2.970   2.294
  794SOL    HW1 2400   1.727   2.972   2.242
  794SOL    HW2 2401   1.655   3.017   2.382
  795SOL     OW 2402   0.113   2.599   3.459
  795SOL    HW1 2403   0.201   2.586   3.504
  795SOL    HW2 2404   0.100   2.696   3.437
  796SOL     OW 2405   0.613   3.227   2.588
  796SOL    HW1 2406   0.564   3.140   2.597
  796SOL    HW2 2407   0.590   3.270   2.501
  797SOL     OW 2408   1.293   3.090   3.285
  797SOL    HW1 2409   1.330   3.017   3.227
  797SOL    HW2 2410   1.345   3.095   3.370
  798SOL     OW 2411   0.809   1.866   2.364
  798SOL    HW1 2412   0.849   1.957   2.355
  798SOL    HW2 2413   0.709   1.874   2.370
  799SOL     OW 2414   0.197   2.838   3.126
  799SOL    HW1 2415   0.286   2.793   3.112
  799SOL    HW2 2416   0.124   2.773   3.107
  800SOL     OW 2417   1.525   2.861   2.052
  800SOL    HW1 2418   1.462   2.785   2.065
  800SOL    HW2 2419   1.573   2.879   2.138
  801SOL     OW 2420   1.187   3.654   3.478
  801SOL    HW1 2421   1.211   3.714   3.402
  801SOL    HW2 2422   1.194   3.559   3.448
  802SOL     OW 2423   0.317   2.113   3.663
  802SOL    HW1 2424   0.388   2.184   3.669
  802SOL    HW2 2425   0.229   2.152   3.691
  803SOL     OW 2426   1.466   3.279   2.815
  803SOL    HW1 2427   1.407   3.285   2.895
  803SOL    HW2 2428   1.451   3.191   2.769
  804SOL     OW 2429   1.667   3.576   2.434
  804SOL    HW1 2430   1.626   3.553   2.346
  804SOL    HW2 2431   1.649   3.502   2.499
  805SOL     OW 2432   0.598   2.591   2.132
  805SOL    HW1 2433   0.622   2.660   2.064
  805SOL    HW2 2434   0.520   2.624   2.186
  806SOL     OW 2435   1.281   2.207   2.806
  806SOL    HW1 2436   1.195   2.157   2.793
  806SOL    HW2 2437   1.343   2.153   2.862
  807SOL     OW 2438   1.576   3.524   2.169
  807SOL    HW1 2439   1.665   3.570   2.172
  807SOL    HW2 2440   1.555   3.500   2.074
  808SOL     OW 2441   0.807   2.467   3.327
  808SOL    HW1 2442   0.760   2.464   3.416
  808SOL    HW2 2443   0.756   2.412   3.261
  809SOL     OW 2444   1.394   2.331   3.536
  809SOL    HW1 2445   1.374   2.374   3.624
  809SOL    HW2 2446   1.472   2.269   3.545
  810SOL     OW 2447   0.973   2.752   3.434
  810SOL    HW1 2448   1.019   2.668   3.405
  810SOL    HW2 2449   0.917   2.786   3.359
  811SOL     OW 2450   0.991   2.272   3.104
  811SOL    HW1 2451   0.914   2.306   3.158
  811SOL    HW2 2452   0.957   2.221   3.025
  812SOL     OW 2453   1.041   2.563   2.291
  812SOL    HW1 2454   1.067   2.559   2.387
  812SOL    HW2 2455   0.956   2.512   2.277
  813SOL     OW 2456   0.076   2.673   2.651
  813SOL    HW1 2457   0.175   2.661   2.660
  813SOL    HW2 2458   0.052   2.768   2.672
  814SOL     OW 2459   0.130   3.683   3.433
  814SOL    HW1 2460   0.120   3.668   3.532
  814SOL    HW2 2461   0.044   3.719   3.397
  815SOL     OW 2462   0.865   2.210   2.057
  815SOL    HW1 2463   0.924   2.273   2.008
  815SOL    HW2 2464   0.884   2.116   2.028
  816SOL     OW 2465   1.719   2.447   3.693
  816SOL    HW1 2466   1.693   2.536   3.657
  816SOL    HW2 2467   1.717   2.379   3.620
  817SOL     OW 2468   1.362   3.006   2.407
  817SOL    HW1 2469   1.445   2.977   2.359
  817SOL    HW2 2470   1.313   3.073   2.351
  818SOL     OW 2471   0.550   2.058   2.747
  818SOL    HW1 2472   0.545   2.053   2.847
  818SOL    HW2 2473   0.552   2.154   2.718
  819SOL     OW 2474   1.008   3.318   2.339
  819SOL    HW1 2475   0.962   3.390   2.287
  819SOL    HW2 2476   1.004   3.338   2.437
  820SOL     OW 2477   0.351   3.663   2.715
  820SOL    HW1 2478   0.401   3.577   2.721
  820SOL    HW2 2479   0.416   3.740   2.712
  821SOL     OW 2480   1.795   2.928   2.735
  821SOL    HW1 2481   1.733   2.913   2.659
  821SOL    HW2 2482   1.743   2.939   2.820
  822SOL     OW 2483   1.227   3.412   3.368
  822SOL    HW1 2484   1.233   3.335   3.432
  822SOL    HW2 2485   1.175   3.386   3.288
  823SOL     OW 2486   0.321   2.805   2.104
  823SOL    HW1 2487   0.403   2.844   2.062
  823SOL    HW2 2488   0.294   2.723   2.055
  824SOL     OW 2489   1.458   2.597   2.590
  824SOL    HW1 2490   1.453   2.532   2.665
  824SOL    HW2 2491   1.538   2.656   2.603
  825SOL     OW 2492   0.461   3.128   3.589
  825SOL    HW1 2493   0.411   3.129   3.503
  825SOL    HW2 2494   0.398   3.110   3.665
  826SOL     OW 2495   1.111   3.638   2.099
  826SOL    HW1 2496   1.051   3.576   2.149
  826SOL    HW2 2497   1.142   3.594   2.014
  827SOL     OW 2498   0.202   2.147   3.360
  827SOL    HW1 2499   0.122   2.207   3.347
  827SOL    HW2 2500   0.192   2.098   3.446
  828SOL     OW 2501   1.632   3.239   1.943
  828SOL    HW1 2502   1.600   3.333   1.933
  828SOL    HW2 2503   1.556   3.176   1.931
  829SOL     OW 2504   0.464   3.605   2.185
  829SOL    HW1 2505   0.497   3.644   2.271
  829SOL    HW2 2506   0.540   3.598   2.120
  830SOL     OW 2507   1.400   1.969   2.288
  830SOL    HW1 2508   1.376   1.932   2.198
  830SOL    HW2 2509   1.499   1.985   2.292
  831SOL     OW 2510   0.249   3.647   3.103
  831SOL    HW1 2511   0.306   3.582   3.153
  831SOL    HW2 2512   0.233   3.614   3.010
  832SOL     OW 2513   0.940   3.560   2.766
  832SOL    HW1 2514   1.020   3.503   2.787
  832SOL    HW2 2515   0.891   3.520   2.689
  833SOL     OW 2516   0.382   2.562   2.342
  833SOL    HW1 2517   0.427   2.472   2.339
  833SOL    HW2 2518   0.288   2.551   2.375
  834SOL     OW 2519   1.547   2.084   3.591
  834SOL    HW1 2520   1.542   2.121   3.683
  834SOL    HW2 2521   1.475   2.015   3.579
  835SOL     OW 2522   0.614   1.984   1.979
  835SOL    HW1 2523   0.712   1.962   1.986
  835SOL    HW2 2524   0.583   1.967   1.886
  836SOL     OW 2525   0.781   2.126   3.611
  836SOL    HW1 2526   0.848   2.065   3.654
  836SOL    HW2 2527   0.708   2.145   3.676
  837SOL     OW 2528   0.888   3.376   3.057
  837SOL    HW1 2529   0.865   3.351   2.963
  837SOL    HW2 2530   0.949   3.307   3.096
  838SOL     OW 2531   1.351   2.452   3.295
  838SOL    HW1 2532   1.379   2.409   3.380
  838SOL    HW2 2533   1.376   2.548   3.296
  839SOL     OW 2534   0.803   3.264   2.786
  839SOL    HW1 2535   0.893   3.278   2.744
  839SOL    HW2 2536   0.732   3.266   2.715
  840SOL     OW 2537   0.922   2.365   2.761
  840SOL    HW1 2538   0.897   2.356   2.665
  840SOL    HW2 2539   0.970   2.283   2.792
  841SOL     OW 2540   0.539   1.926   2.374
  841SOL    HW1 2541   0.458   1.927   2.432
  841SOL    HW2 2542   0.542   2.009   2.319
  842SOL     OW 2543   1.434   3.050   1.903
  842SOL    HW1 2544   1.466   2.974   1.960
  842SOL    HW2 2545   1.342   3.077   1.933
  843SOL     OW 2546   0.297   1.897   2.033
  843SOL    HW1 2547   0.346   1.981   2.012
  843SOL    HW2 2548   0.359   1.832   2.078
  844SOL     OW 2549   0.935   2.098   2.342
  844SOL    HW1 2550   0.887   2.139   2.264
  844SOL    HW2 2551   1.034   2.096   2.323
  845SOL     OW 2552   1.076   2.545   3.326
  845SOL    HW1 2553   0.996   2.484   3.329
  845SOL    HW2 2554   1.157   2.492   3.302
  846SOL     OW 2555   1.227   3.432   2.655
  846SOL    HW1 2556   1.248   3.506   2.590
  846SOL    HW2 2557   1.295   3.432   2.728
  847SOL     OW 2558   0.459   3.014   2.603
  847SOL    HW1 2559   0.388   2.987   2.668
  847SOL    HW2 2560   0.433   2.986   2.510
  848SOL     OW 2561   1.271   3.659   2.453
  848SOL    HW1 2562   1.315   3.723   2.389
  848SOL    HW2 2563   1.221   3.711   2.523
  849SOL     OW 2564   1.032   2.411   1.878
  849SOL    HW1 2565   0.991   2.493   1.839
  849SOL    HW2 2566   1.096   2.437   1.951
  850SOL     OW 2567   0.078   2.418   3.248
  850SOL    HW1 2568   0.170   2.417   3.207
  850SOL    HW2 2569   0.072   2.492   3.315
  851SOL     OW 2570   0.561   2.084   3.009
  851SOL    HW1 2571   0.599   2.000   3.046
  851SOL    HW2 2572   0.473   2.103   3.053
  852SOL     OW 2573   0.866   2.316   2.504
  852SOL    HW1 2574   0.834   2.388   2.442
  852SOL    HW2 2575   0.890   2.235   2.451
  853SOL     OW 2576   1.017   1.901   2.615
  853SOL    HW1 2577   0.945   1.906   2.546
  853SOL    HW2 2578   0.993   1.832   2.684
  854SOL     OW 2579   1.429   3.035   2.729
  854SOL    HW1 2580   1.374   2.951   2.722
  854SOL    HW2 2581   1.455   3.064   2.637
  855SOL     OW 2582   1.466   2.452   2.854
  855SOL    HW1 2583   1.436   2.357   2.861
  855SOL    HW2 2584   1.539   2.468   2.920
  856SOL     OW 2585   1.857   2.695   2.239
  856SOL    HW1 2586   1.899   2.631   2.303
  856SOL    HW2 2587   1.819   2.644   2.161
  857SOL     OW 2588   0.488   3.247   2.036
  857SOL    HW1 2589   0.401   3.232   2.083
  857SOL    HW2 2590   0.471   3.273   1.941
  858SOL     OW 2591   1.664   3.142   2.519
  858SOL    HW1 2592   1.763   3.150   2.533
  858SOL    HW2 2593   1.619   3.226   2.550
  859SOL     OW 2594   1.390   2.437   1.940
  859SOL    HW1 2595   1.336   2.416   2.021
  859SOL    HW2 2596   1.481   2.396   1.949
  860SOL     OW 2597   0.527   2.118   2.190
  860SOL    HW1 2598   0.554   2.059   2.115
  860SOL    HW2 2599   0.527   2.213   2.159
  861SOL     OW 2600   1.754   3.085   3.450
  861SOL    HW1 2601   1.845   3.046   3.437
  861SOL    HW2 2602   1.762   3.181   3.474
  862SOL     OW 2603   1.064   3.209   3.202
  862SOL    HW1 2604   0.984   3.186   3.257
  862SOL    HW2 2605   1.147   3.183   3.251
  863SOL     OW 2606   1.592   3.491   3.487
  863SOL    HW1 2607   1.619   3.525   3.397
  863SOL    HW2 2608   1.671   3.453   3.533
  864SOL     OW 2609   1.111   3.057   2.962
  864SOL    HW1 2610   1.071   3.101   3.043
  864SOL    HW2 2611   1.070   3.094   2.879
  865SOL     OW 2612   1.638   2.961   2.941
  865SOL    HW1 2613   1.643   3.042   3.000
  865SOL    HW2 2614   1.552   2.963   2.890
  866SOL     OW 2615   0.915   1.951   3.264
  866SOL    HW1 2616   0.940   1.931   3.169
  866SOL    HW2 2617   0.987   2.007   3.306
  867SOL     OW 2618   0.980   2.978   3.581
  867SOL    HW1 2619   0.881   2.984   3.591
  867SOL    HW2 2620   1.003   2.898   3.525
  868SOL     OW 2621   0.705   2.912   2.230
  868SOL    HW1 2622   0.691   2.919   2.329
  868SOL    HW2 2623   0.789   2.861   2.212
  869SOL     OW 2624   0.410   2.675   3.113
  869SOL    HW1 2625   0.496   2.687   3.163
  869SOL    HW2 2626   0.368   2.588   3.140
  870SOL     OW 2627   1.274   2.248   3.124
  870SOL    HW1 2628   1.295   2.322   3.188
  870SOL    HW2 2629   1.185   2.265   3.081
  871SOL     OW 2630   0.064   3.426   3.193
  871SOL    HW1 2631   0.018   3.508   3.159
  871SOL    HW2 2632   0.162   3.445   3.202
  872SOL     OW 2633   0.367   2.962   2.363
  872SOL    HW1 2634   0.360   3.045   2.307
  872SOL    HW2 2635   0.371   2.882   2.303
  873SOL     OW 2636   0.566   2.399   2.727
  873SOL    HW1 2637   0.578   2.465   2.653
  873SOL    HW2 2638   0.612   2.433   2.810
  874SOL     OW 2639   1.252   3.210   2.250
  874SOL    HW1 2640   1.302   3.287   2.290
  874SOL    HW2 2641   1.157   3.212   2.282
  875SOL     OW 2642   1.272   3.307   3.004
  875SOL    HW1 2643   1.319   3.320   3.091
  875SOL    HW2 2644   1.206   3.233   3.013
  876SOL     OW 2645   1.582   2.501   2.334
  876SOL    HW1 2646   1.551   2.562   2.407
  876SOL    HW2 2647   1.632   2.553   2.265
  877SOL     OW 2648   0.354   3.372   3.191
  877SOL    HW1 2649   0.333   3.328   3.104
  877SOL    HW2 2650   0.451   3.398   3.194
  878SOL     OW 2651   0.402   2.613   3.460
  878SOL    HW1 2652   0.470   2.668   3.413
  878SOL    HW2 2653   0.442   2.525   3.487
  879SOL     OW 2654   1.587   2.641   3.532
  879SOL    HW1 2655   1.495   2.679   3.527
  879SOL    HW2 2656   1.647   2.688   3.467
  880SOL     OW 2657   1.013   1.967   3.632
  880SOL    HW1 2658   1.019   2.052   3.580
  880SOL    HW2 2659   1.045   1.891   3.575
  881SOL     OW 2660   0.504   1.912   3.602
  881SOL    HW1 2661   0.462   1.855   3.532
  881SOL    HW2 2662   0.438   1.981   3.634
  882SOL     OW 2663   0.573   2.732   2.891
  882SOL    HW1 2664   0.617   2.821   2.882
  882SOL    HW2 2665   0.510   2.732   2.968
  883SOL     OW 2666   1.360   2.724   2.907
  883SOL    HW1 2667   1.285   2.724   2.841
  883SOL    HW2 2668   1.397   2.632   2.916
  884SOL     OW 2669   1.209   2.387   2.137
  884SOL    HW1 2670   1.222   2.303   2.191
  884SOL    HW2 2671   1.180   2.461   2.197
  885SOL     OW 2672   0.307   2.075   3.093
  885SOL    HW1 2673   0.284   2.112   3.183
  885SOL    HW2 2674   0.277   1.980   3.087
  886SOL     OW 2675   0.037   3.172   3.144
  886SOL    HW1 2676   0.090   3.123   3.212
  886SOL    HW2 2677   0.059   3.270   3.149
  887SOL     OW 2678   0.732   2.496   2.926
  887SOL    HW1 2679   0.791   2.470   2.850
  887SOL    HW2 2680   0.704   2.592   2.915
  888SOL     OW 2681   1.728   2.797   3.716
  888SOL    HW1 2682   1.682   2.790   3.627
  888SOL    HW2 2683   1.666   2.841   3.782
  889SOL     OW 2684   0.307   1.925   2.480
  889SOL    HW1 2685   0.296   2.019   2.513
  889SOL    HW2 2686   0.302   1.862   2.557
  890SOL     OW 2687   1.622   2.229   2.236
  890SOL    HW1 2688   1.624   2.153   2.300
  890SOL    HW2 2689   1.574   2.306   2.276
  891SOL     OW 2690   1.023   2.628   2.828
  891SOL    HW1 2691   1.038   2.649   2.924
  891SOL    HW2 2692   0.993   2.533   2.819
  892SOL     OW 2693   0.980   3.435   3.562
  892SOL    HW1 2694   0.960   3.479   3.474
  892SOL    HW2 2695   1.019   3.344   3.546
  893SOL     OW 2696   1.859   3.380   3.467
  893SOL    HW1 2697   1.873   3.407   3.372
  893SOL    HW2 2698   1.942   3.402   3.520
  894SOL     OW 2699   0.350   2.760   3.666
  894SOL    HW1 2700   0.426   2.804   3.714
  894SOL    HW2 2701   0.385   2.713   3.584
  895SOL     OW 2702   1.540   2.136   1.987
  895SOL    HW1 2703   1.479   2.061   2.010
  895SOL    HW2 2704   1.562   2.188   2.070
  896SOL     OW 2705   1.303   2.700   1.904
  896SOL    HW1 2706   1.337   2.607   1.919
  896SOL    HW2 2707   1.321   2.727   1.809
  897SOL     OW 2708   1.068   3.195   2.711
  897SOL    HW1 2709   1.075   3.111   2.656
  897SOL    HW2 2710   1.130   3.264   2.675
  898SOL     OW 2711   0.319   2.672   2.811
  898SOL    HW1 2712   0.412   2.708   2.816
  898SOL    HW2 2713   0.313   2.587   2.863
  899SOL     OW 2714   0.339   2.371   2.868
  899SOL    HW1 2715   0.287   2.288   2.851
  899SOL    HW2 2716   0.416   2.376   2.804
  900SOL     OW 2717   1.138   2.242   3.540
  900SOL    HW1 2718   1.093   2.305   3.604
  900SOL    HW2 2719   1.231   2.273   3.523
  901SOL     OW 2720   1.160   2.069   3.339
  901SOL    HW1 2721   1.160   2.133   3.416
  901SOL    HW2 2722   1.188   2.117   3.256
  902SOL     OW 2723   0.008   3.188   2.062
  902SOL    HW1 2724  -0.085   3.209   2.031
  902SOL    HW2 2725   0.018   3.089   2.075
  903SOL     OW 2726   0.088   3.663   2.789
  903SOL    HW1 2727   0.046   3.577   2.762
  903SOL    HW2 2728   0.182   3.666   2.755
  904SOL     OW 2729   0.504   3.430   2.772
  904SOL    HW1 2730   0.570   3.504   2.781
  904SOL    HW2 2731   0.548   3.351   2.730
  905SOL     OW 2732   1.002   2.658   3.100
  905SOL    HW1 2733   1.043   2.626   3.186
  905SOL    HW2 2734   0.906   2.631   3.097
  906SOL     OW 2735   0.040   2.406   2.976
  906SOL    HW1 2736   0.125   2.373   2.935
  906SOL    HW2 2737   0.053   2.421   3.074
  907SOL     OW 2738   0.189   2.382   3.584
  907SOL    HW1 2739   0.248   2.342   3.514
  907SOL    HW2 2740   0.131   2.453   3.543
  908SOL     OW 2741   1.369   2.812   3.522
  908SOL    HW1 2742   1.408   2.901   3.542
  908SOL    HW2 2743   1.379   2.792   3.425
  909SOL     OW 2744   0.815   2.434   2.187
  909SOL    HW1 2745   0.822   2.345   2.141
  909SOL    HW2 2746   0.721   2.468   2.179
  910SOL     OW 2747   1.657   2.466   3.068
  910SOL    HW1 2748   1.619   2.397   3.130
  910SOL    HW2 2749   1.739   2.430   3.024
  911SOL     OW 2750   0.252   3.426   3.606
  911SOL    HW1 2751   0.222   3.483   3.682
  911SOL    HW2 2752   0.245   3.329   3.632
  912SOL     OW 2753   0.671   2.326   3.131
  912SOL    HW1 2754   0.637   2.237   3.101
  912SOL    HW2 2755   0.697   2.380   3.051
  913SOL     OW 2756   0.930   3.540   3.327
  913SOL    HW1 2757   0.906   3.522   3.232
  913SOL    HW2 2758   0.960   3.634   3.337
  914SOL     OW 2759   0.473   2.362   2.053
  914SOL    HW1 2760   0.534   2.442   2.057
  914SOL    HW2 2761   0.378   2.393   2.060
  915SOL     OW 2762   0.159   2.999   3.328
  915SOL    HW1 2763   0.181   2.938   3.404
  915SOL    HW2 2764   0.169   2.950   3.242
  916SOL     OW 2765   1.347   2.921   3.096
  916SOL    HW1 2766   1.371   2.858   3.022
  916SOL    HW2 2767   1.257   2.961   3.078
  917SOL     OW 2768   1.302   2.717   2.171
  917SOL    HW1 2769   1.216   2.686   2.213
  917SOL    HW2 2770   1.298   2.703   2.072
  918SOL     OW 2771   1.759   3.609   3.016
  918SOL    HW1 2772   1.820   3.639   2.943
  918SOL    HW2 2773   1.721   3.520   2.994
  919SOL     OW 2774   1.252   3.593   2.990
  919SOL    HW1 2775   1.336   3.598   2.936
  919SOL    HW2 2776   1.229   3.497   3.008
  920SOL     OW 2777   0.083   3.120   2.884
  920SOL    HW1 2778   0.078   3.119   2.984
  920SOL    HW2 2779   0.000   3.079   2.846
  921SOL     OW 2780   0.688   3.524   3.578
  921SOL    HW1 2781   0.632   3.605   3.587
  921SOL    HW2 2782   0.740   3.528   3.492
  922SOL     OW 2783   1.726   1.997   2.385
  922SOL    HW1 2784   1.799   1.980   2.318
  922SOL    HW2 2785   1.695   1.910   2.423
  923SOL     OW 2786   1.388   3.435   2.339
  923SOL    HW1 2787   1.455   3.447   2.265
  923SOL    HW2 2788   1.348   3.524   2.362
  924SOL     OW 2789   0.130   3.656   3.713
  924SOL    HW1 2790   0.089   3.582   3.766
  924SOL    HW2 2791   0.194   3.707   3.771
  925SOL     OW 2792   1.280   2.789   2.534
  925SOL    HW1 2793   1.340   2.708   2.536
  925SOL    HW2 2794   1.320   2.858   2.474
  926SOL     OW 2795   0.830   3.135   3.284
  926SOL    HW1 2796   0.825   3.168   3.379
  926SOL    HW2 2797   0.744   3.154   3.238
  927SOL     OW 2798   0.672   3.478   2.016
  927SOL    HW1 2799   0.681   3.488   1.917
  927SOL    HW2 2800   0.632   3.389   2.037
  928SOL     OW 2801   1.650   3.582   3.256
  928SOL    HW1 2802   1.703   3.592   3.172
  928SOL    HW2 2803   1.623   3.672   3.290
  929SOL     OW 2804   1.841   2.037   2.825
  929SOL    HW1 2805   1.880   1.952   2.789
  929SOL    HW2 2806   1.743   2.039   2.806
  930SOL     OW 2807   0.263   2.188   2.582
  930SOL    HW1 2808   0.184   2.239   2.548
  930SOL    HW2 2809   0.254   2.173   2.680
  931SOL     OW 2810   1.194   3.474   1.893
  931SOL    HW1 2811   1.200   3.381   1.930
  931SOL    HW2 2812   1.135   3.474   1.813
  932SOL     OW 2813   0.822   2.864   3.234
  932SOL    HW1 2814   0.862   2.863   3.142
  932SOL    HW2 2815   0.832   2.956   3.274
  933SOL     OW 2816   0.916   2.772   2.153
  933SOL    HW1 2817   0.979   2.810   2.085
  933SOL    HW2 2818   0.956   2.689   2.192
  934SOL     OW 2819   1.504   3.469   1.906
  934SOL    HW1 2820   1.412   3.506   1.913
  934SOL    HW2 2821   1.542   3.489   1.816
  935SOL     OW 2822   0.372   3.150   3.352
  935SOL    HW1 2823   0.359   3.243   3.318
  935SOL    HW2 2824   0.288   3.098   3.339
  936SOL     OW 2825   1.614   3.154   3.151
  936SOL    HW1 2826   1.674   3.157   3.231
  936SOL    HW2 2827   1.539   3.218   3.164
  937SOL     OW 2828   1.039   2.960   2.558
  937SOL    HW1 2829   0.969   2.913   2.612
  937SOL    HW2 2830   1.098   2.892   2.515
  938SOL     OW 2831   1.014   2.098   2.833
  938SOL    HW1 2832   1.006   2.062   2.740
  938SOL    HW2 2833   1.012   2.022   2.898
  939SOL     OW 2834   0.590   3.349   2.353
  939SOL    HW1 2835   0.632   3.291   2.283
  939SOL    HW2 2836   0.546   3.428   2.309
  940SOL     OW 2837   1.709   2.247   3.243
  940SOL    HW1 2838   1.782   2.316   3.247
  940SOL    HW2 2839   1.737   2.172   3.184
  941SOL     OW 2840   0.255   3.210   2.152
  941SOL    HW1 2841   0.159   3.211   2.125
  941SOL    HW2 2842   0.267   3.263   2.236
  942SOL     OW 2843   0.105   2.875   3.588
  942SOL    HW1 2844   0.028   2.842   3.642
  942SOL    HW2 2845   0.190   2.845   3.630
  943SOL     OW 2846   0.672   2.065   3.351
  943SOL    HW1 2847   0.762   2.049   3.311
  943SOL    HW2 2848   0.680   2.070   3.450
  944SOL     OW 2849   0.075   2.207   1.895
  944SOL    HW1 2850  -0.017   2.179   1.866
  944SOL    HW2 2851   0.106   2.284   1.839
  945SOL     OW 2852   1.440   2.718   3.260
  945SOL    HW1 2853   1.383   2.770   3.197
  945SOL    HW2 2854   1.536   2.730   3.236
  946SOL     OW 2855   0.072   2.028   2.180
  946SOL    HW1 2856   0.055   2.111   2.126
  946SOL    HW2 2857   0.162   1.991   2.158
  947SOL     OW 2858   1.183   3.197   1.981
  947SOL    HW1 2859   1.084   3.186   1.983
  947SOL    HW2 2860   1.217   3.212   2.074
  948SOL     OW 2861   0.613   2.704   3.293
  948SOL    HW1 2862   0.669   2.785   3.276
  948SOL    HW2 2863   0.672   2.624   3.296
  949SOL     OW 2864   1.493   3.629   2.821
  949SOL    HW1 2865   1.526   3.693   2.752
  949SOL    HW2 2866   1.559   3.623   2.896
  950SOL     OW 2867   0.716   2.427   3.570
  950SOL    HW1 2868   0.735   2.492   3.644
  950SOL    HW2 2869   0.776   2.347   3.579
  951SOL     OW 2870   1.450   3.082   3.495
  951SOL    HW1 2871   1.441   3.072   3.594
  951SOL    HW2 2872   1.546   3.075   3.469
  952SOL     OW 2873   0.390   3.603   3.422
  952SOL    HW1 2874   0.299   3.644   3.420
  952SOL    HW2 2875   0.383   3.509   3.454
  953SOL     OW 2876   1.674   2.745   3.116
  953SOL    HW1 2877   1.647   2.656   3.079
  953SOL    HW2 2878   1.675   2.813   3.043
  954SOL     OW 2879   1.225   2.187   2.311
  954SOL    HW1 2880   1.290   2.113   2.300
  954SOL    HW2 2881   1.245   2.237   2.395
  955SOL     OW 2882   0.594   2.607   2.514
  955SOL    HW1 2883   0.644   2.692   2.495
  955SOL    HW2 2884   0.506   2.609   2.466
  956SOL     OW 2885   1.777   2.204   3.504
  956SOL    HW1 2886   1.760   2.235   3.410
  956SOL    HW2 2887   1.693   2.167   3.542
  957SOL     OW 2888   1.730   2.796   3.379
  957SOL    HW1 2889   1.768   2.887   3.394
  957SOL    HW2 2890   1.722   2.779   3.280
  958SOL     OW 2891   0.859   3.236   1.878
  958SOL    HW1 2892   0.813   3.251   1.966
  958SOL    HW2 2893   0.903   3.321   1.848
  959SOL     OW 2894   0.661   3.652   2.815
  959SOL    HW1 2895   0.615   3.740   2.802
  959SOL    HW2 2896   0.760   3.664   2.808
  960SOL     OW 2897   0.859   2.818   2.723
  960SOL    HW1 2898   0.913   2.749   2.771
  960SOL    HW2 2899   0.827   2.887   2.789
  961SOL     OW 2900   1.083   2.846   1.949
  961SOL    HW1 2901   1.060   2.899   1.867
  961SOL    HW2 2902   1.164   2.790   1.930
  962SOL     OW 2903   1.861   3.431   2.713
  962SOL    HW1 2904   1.790   3.419   2.643
  962SOL    HW2 2905   1.862   3.352   2.773
  963SOL     OW 2906   0.221   3.176   3.706
  963SOL    HW1 2907   0.156   3.103   3.685
  963SOL    HW2 2908   0.225   3.190   3.804
  964SOL     OW 2909   0.079   3.102   2.515
  964SOL    HW1 2910   0.078   3.055   2.603
  964SOL    HW2 2911   0.161   3.074   2.464
  965SOL     OW 2912   0.672   3.253   3.486
  965SOL    HW1 2913   0.594   3.203   3.524
  965SOL    HW2 2914   0.669   3.348   3.517
  966SOL     OW 2915   1.824   2.054   3.089
  966SOL    HW1 2916   1.820   1.964   3.133
  966SOL    HW2 2917   1.827   2.043   2.990
  967SOL     OW 2918   0.428   2.286   2.382
  967SOL    HW1 2919   0.458   2.214   2.320
  967SOL    HW2 2920   0.389   2.246   2.465
  968SOL     OW 2921   1.705   3.349   2.966
  968SOL    HW1 2922   1.612   3.324   2.939
  968SOL    HW2 2923   1.731   3.299   3.048
  969SOL     OW 2924   0.317   2.409   3.142
  969SOL    HW1 2925   0.355   2.350   3.214
  969SOL    HW2 2926   0.357   2.383   3.054
  970SOL     OW 2927   0.812   3.448   2.549
  970SOL    HW1 2928   0.844   3.458   2.455
  970SOL    HW2 2929   0.733   3.386   2.551
  971SOL     OW 2930   1.424   2.076   2.974
  971SOL    HW1 2931   1.476   2.011   3.029
  971SOL    HW2 2932   1.375   2.139   3.035
  972SOL     OW 2933   1.001   1.896   3.016
  972SOL    HW1 2934   0.938   1.824   2.985
  972SOL    HW2 2935   1.094   1.860   3.016
  973SOL     OW 2936   0.770   3.192   2.163
  973SOL    HW1 2937   0.724   3.105   2.180
  973SOL    HW2 2938   0.861   3.189   2.204
  974SOL     OW 2939   0.618   3.429   3.146
  974SOL    HW1 2940   0.613   3.511   3.203
  974SOL    HW2 2941   0.707   3.426   3.101
  975SOL     OW 2942   1.352   1.914   2.030
  975SOL    HW1 2943   1.387   1.873   1.946
  975SOL    HW2 2944   1.262   1.876   2.050
  976SOL     OW 2945   1.300   2.315   2.553
  976SOL    HW1 2946   1.241   2.395   2.557
  976SOL    HW2 2947   1.315   2.280   2.646
  977SOL     OW 2948   1.593   2.083   2.744
  977SOL    HW1 2949   1.509   2.082   2.798
  977SOL    HW2 2950   1.595   2.166   2.688
  978SOL     OW 2951   0.039   2.939   2.162
  978SOL    HW1 2952   0.138   2.928   2.153
  978SOL    HW2 2953  -0.001   2.853   2.194
  979SOL     OW 2954   0.875   3.508   2.199
  979SOL    HW1 2955   0.798   3.473   2.145
  979SOL    HW2 2956   0.843   3.579   2.261
  980SOL     OW 2957   0.230   2.490   3.837
  980SOL    HW1 2958   0.137   2.488   3.874
  980SOL    HW2 2959   0.231   2.451   3.745
  981SOL     OW 2960   0.225   2.137   4.720
  981SOL    HW1 2961   0.260   2.120   4.812
  981SOL    HW2 2962   0.137   2.092   4.708
  982SOL     OW 2963   0.019   2.230   4.371
  982SOL    HW1 2964  -0.063   2.273   4.410
  982SOL    HW2 2965  -0.009   2.157   4.308
  983SOL     OW 2966   1.555   3.373   4.427
  983SOL    HW1 2967   1.498   3.357   4.508
  983SOL    HW2 2968   1.496   3.383   4.347
  984SOL     OW 2969   1.135   2.565   4.441
  984SOL    HW1 2970   1.192   2.643   4.416
  984SOL    HW2 2971   1.075   2.591   4.517
  985SOL     OW 2972   1.755   2.469   3.955
  985SOL    HW1 2973   1.743   2.456   3.856
  985SOL    HW2 2974   1.725   2.388   4.004
  986SOL     OW 2975   0.768   3.006   4.747
  986SOL    HW1 2976   0.690   3.023   4.807
  986SOL    HW2 2977   0.802   3.093   4.711
  987SOL     OW 2978   0.685   2.874   4.389
  987SOL    HW1 2979   0.754   2.858   4.459
  987SOL    HW2 2980   0.612   2.931   4.427
  988SOL     OW 2981   0.335   3.297   4.785
  988SOL    HW1 2982   0.257   3.266   4.732
  988SOL    HW2 2983   0.393   3.355   4.728
  989SOL     OW 2984   1.603   2.309   4.461
  989SOL    HW1 2985   1.529   2.355   4.411
  989SOL    HW2 2986   1.654   2.377   4.514
  990SOL     OW 2987   0.231   3.575   4.207
  990SOL    HW1 2988   0.265   3.652   4.261
  990SOL    HW2 2989   0.275   3.575   4.117
  991SOL     OW 2990   0.230   3.296   4.262
  991SOL    HW1 2991   0.204   3.392   4.262
  991SOL    HW2 2992   0.159   3.242   4.307
  992SOL     OW 2993   0.240   2.953   4.610
  992SOL    HW1 2994   0.254   2.869   4.662
  992SOL    HW2 2995   0.185   3.017   4.665
  993SOL     OW 2996   0.606   2.826   3.847
  993SOL    HW1 2997   0.613   2.910   3.793
  993SOL    HW2 2998   0.652   2.839   3.935
  994SOL     OW 2999   0.122   2.505   4.287
  994SOL    HW1 3000   0.077   2.417   4.304
  994SOL    HW2 3001   0.121   2.559   4.371
  995SOL     OW 3002   1.842   3.629   4.083
  995SOL    HW1 3003   1.896   3.600   4.163
  995SOL    HW2 3004   1.872   3.719   4.054
  996SOL     OW 3005   0.027   3.458   3.841
  996SOL    HW1 3006   0.008   3.362   3.862
  996SOL    HW2 3007  -0.006   3.516   3.916
  997SOL     OW 3008   1.689   2.784   4.336
  997SOL    HW1 3009   1.784   2.755   4.344
  997SOL    HW2 3010   1.681   2.849   4.261
  998SOL     OW 3011   1.641   2.970   4.156
  998SOL    HW1 3012   1.727   2.972   4.104
  998SOL    HW2 3013   1.655   3.017   4.244
  999SOL     OW 3014   0.613   3.227   4.450
  999SOL    HW1 3015   0.564   3.140   4.459
  999SOL    HW2 3016   0.590   3.270   4.363
 1000SOL     OW 3017   0.809   1.866   4.226
 1000SOL    HW1 3018   0.849   1.957   4.217
 1000SOL    HW2 3019   0.709   1.874   4.232
 1001SOL     OW 3020   1.525   2.861   3.914
 1001SOL    HW1 3021   1.462   2.785   3.927
 1001SOL    HW2 3022   1.573   2.879   4.000
 1002SOL     OW 3023   1.466   3.279   4.677
 1002SOL    HW1 3024   1.407   3.285   4.757
 1002SOL    HW2 3025   1.451   3.191   4.631
 1003SOL     OW 3026   1.667   3.576   4.296
 1003SOL    HW1 3027   1.626   3.553   4.208
 1003SOL    HW2 3028   1.649   3.502   4.361
 1004SOL     OW 3029   0.598   2.591   3.994
 1004SOL    HW1 3030   0.622   2.660   3.926
 1004SOL    HW2 3031   0.520   2.624   4.048
 1005SOL     OW 3032   1.281   2.207   4.668
 1005SOL    HW1 3033   1.195   2.157   4.655
 1005SOL    HW2 3034   1.343   2.153   4.724
 1006SOL     OW 3035   1.576   3.524   4.031
 1006SOL    HW1 3036   1.665   3.570   4.034
 1006SOL    HW2 3037   1.555   3.500   3.936
 1007SOL     OW 3038   1.041   2.563   4.153
 1007SOL    HW1 3039   1.067   2.559   4.249
 1007SOL    HW2 3040   0.956   2.512   4.139
 1008SOL     OW 3041   0.076   2.673   4.513
 1008SOL    HW1 3042   0.175   2.661   4.522
 1008SOL    HW2 3043   0.052   2.768   4.534
 1009SOL     OW 3044   0.865   2.210   3.919
 1009SOL    HW1 3045   0.924   2.273   3.870
 1009SOL    HW2 3046   0.884   2.116   3.890
 1010SOL     OW 3047   1.362   3.006   4.269
 1010SOL    HW1 3048   1.445   2.977   4.221
 1010SOL    HW2 3049   1.313   3.073   4.213
 1011SOL     OW 3050   0.550   2.058   4.609
 1011SOL    HW1 3051   0.545   2.053   4.709
 1011SOL    HW2 3052   0.552   2.154   4.580
 1012SOL     OW 3053   1.008   3.318   4.201
 1012SOL    HW1 3054   0.962   3.390   4.149
 1012SOL    HW2 3055   1.004   3.338   4.299
 1013SOL     OW 3056   0.351   3.663   4.577
 1013SOL    HW1 3057   0.401   3.577   4.583
 1013SOL    HW2 3058   0.416   3.740   4.574
 1014SOL     OW 3059   1.795   2.928   4.597
 1014SOL    HW1 3060   1.733   2.913   4.521
 1014SOL    HW2 3061   1.743   2.939   4.682
 1015SOL     OW 3062   0.321   2.805   3.966
 1015SOL    HW1 3063   0.403   2.844   3.924
 1015SOL    HW2 3064   0.294   2.723   3.917
 1016SOL     OW 3065   1.458   2.597   4.452
 1016SOL    HW1 3066   1.453   2.532   4.527
 1016SOL    HW2 3067   1.538   2.656   4.465
 1017SOL     OW 3068   1.111   3.638   3.961
 1017SOL    HW1 3069   1.051   3.576   4.011
 1017SOL    HW2 3070   1.142   3.594   3.876
 1018SOL     OW 3071   1.632   3.239   3.805
 1018SOL    HW1 3072   1.600   3.333   3.795
 1018SOL    HW2 3073   1.556   3.176   3.793
 1019SOL     OW 3074   0.464   3.605   4.047
 1019SOL    HW1 3075   0.497   3.644   4.133
 1019SOL    HW2 3076   0.540   3.598   3.982
 1020SOL     OW 3077   1.400   1.969   4.150
 1020SOL    HW1 3078   1.376   1.932   4.060
 1020SOL    HW2 3079   1.499   1.985   4.154
 1021SOL     OW 3080   0.249   3.647   4.965
 1021SOL    HW1 3081   0.306   3.582   5.015
 1021SOL    HW2 3082   0.233   3.614   4.872
 1022SOL     OW 3083   0.940   3.560   4.628
 1022SOL    HW1 3084   1.020   3.503   4.649
 1022SOL    HW2 3085   0.891   3.520   4.551
 1023SOL     OW 3086   0.382   2.562   4.204
 1023SOL    HW1 3087   0.427   2.472   4.201
 1023SOL    HW2 3088   0.288   2.551   4.237
 1024SOL     OW 3089   0.614   1.984   3.841
 1024SOL    HW1 3090   0.712   1.962   3.848
 1024SOL    HW2 3091   0.583   1.967   3.748
 1025SOL     OW 3092   0.803   3.264   4.648
 1025SOL    HW1 3093   0.893   3.278   4.606
 1025SOL    HW2 3094   0.732   3.266   4.577
 1026SOL     OW 3095   0.922   2.365   4.623
 1026SOL    HW1 3096   0.897   2.356   4.527
 1026SOL    HW2 3097   0.970   2.283   4.654
 1027SOL     OW 3098   0.539   1.926   4.236
 1027SOL    HW1 3099   0.458   1.927   4.294
 1027SOL    HW2 3100   0.542   2.009   4.181
 1028SOL     OW 3101   1.434   3.050   3.765
 1028SOL    HW1 3102   1.466   2.974   3.822
 1028SOL    HW2 3103   1.342   3.077   3.795
 1029SOL     OW 3104   0.297   1.897   3.895
 1029SOL    HW1 3105   0.346   1.981   3.874
 1029SOL    HW2 3106   0.359   1.832   3.940
 1030SOL     OW 3107   0.935   2.098   4.204
 1030SOL    HW1 3108   0.887   2.139   4.126
 1030SOL    HW2 3109   1.034   2.096   4.185
 1031SOL     OW 3110   1.227   3.432   4.517
 1031SOL    HW1 3111   1.248   3.506   4.452
 1031SOL    HW2 3112   1.295   3.432   4.590
 1032SOL     OW 3113   0.459   3.014   4.465
 1032SOL    HW1 3114   0.388   2.987   4.530
 1032SOL    HW2 3115   0.433   2.986   4.372
 1033SOL     OW 3116   1.271   3.659   4.315
 1033SOL    HW1 3117   1.315   3.723   4.251
 1033SOL    HW2 3118   1.221   3.711   4.385
 1034SOL     OW 3119   1.032   2.411   3.740
 1034SOL    HW1 3120   0.991   2.493   3.701
 1034SOL    HW2 3121   1.096   2.437   3.813
 1035SOL     OW 3122   0.866   2.316   4.366
 1035SOL    HW1 3123   0.834   2.388   4.304
 1035SOL    HW2 3124   0.890   2.235   4.313
 1036SOL     OW 3125   1.017   1.901   4.477
 1036SOL    HW1 3126   0.945   1.906   4.408
 1036SOL    HW2 3127   0.993   1.832   4.546
 1037SOL     OW 3128   1.429   3.035   4.591
 1037SOL    HW1 3129   1.374   2.951   4.584
 1037SOL    HW2 3130   1.455   3.064   4.499
 1038SOL     OW 3131   1.466   2.452   4.716
 1038SOL    HW1 3132   1.436   2.357   4.723
 1038SOL    HW2 3133   1.539   2.468   4.782
 1039SOL     OW 3134   1.857   2.695   4.101
 1039SOL    HW1 3135   1.899   2.631   4.165
 1039SOL    HW2 3136   1.819   2.644   4.023
 1040SOL     OW 3137   0.488   3.247   3.898
 1040SOL    HW1 3138   0.401   3.232   3.945
 1040SOL    HW2 3139   0.471   3.273   3.803
 1041SOL     OW 3140   1.664   3.142   4.381
 1041SOL    HW1 3141   1.763   3.150   4.395
 1041SOL    HW2 3142   1.619   3.226   4.412
 1042SOL     OW 3143   1.390   2.437   3.802
 1042SOL    HW1 3144   1.336   2.416   3.883
 1042SOL    HW2 3145   1.481   2.396   3.811
 1043SOL     OW 3146   0.527   2.118   4.052
 1043SOL    HW1 3147   0.554   2.059   3.977
 1043SOL    HW2 3148   0.527   2.213   4.021
 1044SOL     OW 3149   1.638   2.961   4.803
 1044SOL    HW1 3150   1.643   3.042   4.862
 1044SOL    HW2 3151   1.552   2.963   4.752
 1045SOL     OW 3152   0.705   2.912   4.092
 1045SOL    HW1 3153   0.691   2.919   4.191
 1045SOL    HW2 3154   0.789   2.861   4.074
 1046SOL     OW 3155   0.410   2.675   4.975
 1046SOL    HW1 3156   0.496   2.687   5.025
 1046SOL    HW2 3157   0.368   2.588   5.002
 1047SOL     OW 3158   0.367   2.962   4.225
 1047SOL    HW1 3159   0.360   3.045   4.169
 1047SOL    HW2 3160   0.371   2.882   4.165
 1048SOL     OW 3161   0.566   2.399   4.589
 1048SOL    HW1 3162   0.578   2.465   4.515
 1048SOL    HW2 3163   0.612   2.433   4.672
 1049SOL     OW 3164   1.252   3.210   4.112
 1049SOL    HW1 3165   1.302   3.287   4.152
 1049SOL    HW2 3166   1.157   3.212   4.144
 1050SOL     OW 3167   1.582   2.501   4.196
 1050SOL    HW1 3168   1.551   2.562   4.269
 1050SOL    HW2 3169   1.632   2.553   4.127
 1051SOL     OW 3170   0.354   3.372   5.053
 1051SOL    HW1 3171   0.333   3.328   4.966
 1051SOL    HW2 3172   0.451   3.398   5.056
 1052SOL     OW 3173   0.573   2.732   4.753
 1052SOL    HW1 3174   0.617   2.821   4.744
 1052SOL    HW2 3175   0.510   2.732   4.830
 1053SOL     OW 3176   1.209   2.387   3.999
 1053SOL    HW1 3177   1.222   2.303   4.053
 1053SOL    HW2 3178   1.180   2.461   4.059
 1054SOL     OW 3179   0.307   2.075   4.955
 1054SOL    HW1 3180   0.284   2.112   5.045
 1054SOL    HW2 3181   0.277   1.980   4.949
 1055SOL     OW 3182   0.732   2.496   4.788
 1055SOL    HW1 3183   0.791   2.470   4.712
 1055SOL    HW2 3184   0.704   2.592   4.777
 1056SOL     OW 3185   0.307   1.925   4.342
 1056SOL    HW1 3186   0.296   2.019   4.375
 1056SOL    HW2 3187   0.302   1.862   4.419
 1057SOL     OW 3188   1.622   2.229   4.098
 1057SOL    HW1 3189   1.624   2.153   4.162
 1057SOL    HW2 3190   1.574   2.306   4.138
 1058SOL     OW 3191   1.023   2.628   4.690
 1058SOL    HW1 3192   1.038   2.649   4.786
 1058SOL    HW2 3193   0.993   2.533   4.681
 1059SOL     OW 3194   1.540   2.136   3.849
 1059SOL    HW1 3195   1.479   2.061   3.872
 1059SOL    HW2 3196   1.562   2.188   3.932
 1060SOL     OW 3197   1.303   2.700   3.766
 1060SOL    HW1 3198   1.337   2.607   3.781
 1060SOL    HW2 3199   1.321   2.727   3.671
 1061SOL     OW 3200   1.068   3.195   4.573
 1061SOL    HW1 3201   1.075   3.111   4.518
 1061SOL    HW2 3202   1.130   3.264   4.537
 1062SOL     OW 3203   0.319   2.672   4.673
 1062SOL    HW1 3204   0.412   2.708   4.678
 1062SOL    HW2 3205   0.313   2.587   4.725
 1063SOL     OW 3206   0.339   2.371   4.730
 1063SOL    HW1 3207   0.287   2.288   4.713
 1063SOL    HW2 3208   0.416   2.376   4.666
 1064SOL     OW 3209   0.008   3.188   3.924
 1064SOL    HW1 3210  -0.085   3.209   3.893
 1064SOL    HW2 3211   0.018   3.089   3.937
 1065SOL     OW 3212   0.088   3.663   4.651
 1065SOL    HW1 3213   0.046   3.577   4.624
 1065SOL    HW2 3214   0.182   3.666   4.617
 1066SOL     OW 3215   0.504   3.430   4.634
 1066SOL    HW1 3216   0.570   3.504   4.643
 1066SOL    HW2 3217   0.548   3.351   4.592
 1067SOL     OW 3218   1.002   2.658   4.962
 1067SOL    HW1 3219   1.043   2.626   5.048
 1067SOL    HW2 3220   0.906   2.631   4.959
 1068SOL     OW 3221   0.815   2.434   4.049
 1068SOL    HW1 3222   0.822   2.345   4.003
 1068SOL    HW2 3223   0.721   2.468   4.041
 1069SOL     OW 3224   0.671   2.326   4.993
 1069SOL    HW1 3225   0.637   2.237   4.963
 1069SOL    HW2 3226   0.697   2.380   4.913
 1070SOL     OW 3227   0.473   2.362   3.915
 1070SOL    HW1 3228   0.534   2.442   3.919
 1070SOL    HW2 3229   0.378   2.393   3.922
 1071SOL     OW 3230   1.302   2.717   4.033
 1071SOL    HW1 3231   1.216   2.686   4.075
 1071SOL    HW2 3232   1.298   2.703   3.934
 1072SOL     OW 3233   1.759   3.609   4.878
 1072SOL    HW1 3234   1.820   3.639   4.805
 1072SOL    HW2 3235   1.721   3.520   4.856
 1073SOL     OW 3236   0.083   3.120   4.746
 1073SOL    HW1 3237   0.078   3.119   4.846
 1073SOL    HW2 3238   0.000   3.079   4.708
 1074SOL     OW 3239   1.726   1.997   4.247
 1074SOL    HW1 3240   1.799   1.980   4.180
 1074SOL    HW2 3241   1.695   1.910   4.285
 1075SOL     OW 3242   1.388   3.435   4.201
 1075SOL    HW1 3243   1.455   3.447   4.127
 1075SOL    HW2 3244   1.348   3.524   4.224
 1076SOL     OW 3245   1.280   2.789   4.396
 1076SOL    HW1 3246   1.340   2.708   4.398
 1076SOL    HW2 3247   1.320   2.858   4.336
 1077SOL     OW 3248   0.672   3.478   3.878
 1077SOL    HW1 3249   0.681   3.488   3.779
 1077SOL    HW2 3250   0.632   3.389   3.899
 1078SOL     OW 3251   1.841   2.037   4.687
 1078SOL    HW1 3252   1.880   1.952   4.651
 1078SOL    HW2 3253   1.743   2.039   4.668
 1079SOL     OW 3254   0.263   2.188   4.444
 1079SOL    HW1 3255   0.184   2.239   4.410
 1079SOL    HW2 3256   0.254   2.173   4.542
 1080SOL     OW 3257   1.194   3.474   3.755
 1080SOL    HW1 3258   1.200   3.381   3.792
 1080SOL    HW2 3259   1.135   3.474   3.675
 1081SOL     OW 3260   0.916   2.772   4.015
 1081SOL    HW1 3261   0.979   2.810   3.947
 1081SOL    HW2 3262   0.956   2.689   4.054
 1082SOL     OW 3263   1.504   3.469   3.768
 1082SOL    HW1 3264   1.412   3.506   3.775
 1082SOL    HW2 3265   1.542   3.489   3.678
 1083SOL     OW 3266   1.039   2.960   4.420
 1083SOL    HW1 3267   0.969   2.913   4.474
 1083SOL    HW2 3268   1.098   2.892   4.377
 1084SOL     OW 3269   1.014   2.098   4.695
 1084SOL    HW1 3270   1.006   2.062   4.602
 1084SOL    HW2 3271   1.012   2.022   4.760
 1085SOL     OW 3272   0.590   3.349   4.215
 1085SOL    HW1 3273   0.632   3.291   4.145
 1085SOL    HW2 3274   0.546   3.428   4.171
 1086SOL     OW 3275   0.255   3.210   4.014
 1086SOL    HW1 3276   0.159   3.211   3.987
 1086SOL    HW2 3277   0.267   3.263   4.098
 1087SOL     OW 3278   0.075   2.207   3.757
 1087SOL    HW1 3279  -0.017   2.179   3.728
 1087SOL    HW2 3280   0.106   2.284   3.701
 1088SOL     OW 3281   0.072   2.028   4.042
 1088SOL    HW1 3282   0.055   2.111   3.988
 1088SOL    HW2 3283   0.162   1.991   4.020
 1089SOL     OW 3284   1.183   3.197   3.843
 1089SOL    HW1 3285   1.084   3.186   3.845
 1089SOL    HW2 3286   1.217   3.212   3.936
 1090SOL     OW 3287   1.493   3.629   4.683
 1090SOL    HW1 3288   1.526   3.693   4.614
 1090SOL    HW2 3289   1.559   3.623   4.758
 1091SOL     OW 3290   1.674   2.745   4.978
 1091SOL    HW1 3291   1.647   2.656   4.941
 1091SOL    HW2 3292   1.675   2.813   4.905
 1092SOL     OW 3293   1.225   2.187   4.173
 1092SOL    HW1 3294   1.290   2.113   4.162
 1092SOL    HW2 3295   1.245   2.237   4.257
 1093SOL     OW 3296   0.594   2.607   4.376
 1093SOL    HW1 3297   0.644   2.692   4.357
 1093SOL    HW2 3298   0.506   2.609   4.328
 1094SOL     OW 3299   0.859   3.236   3.740
 1094SOL    HW1 3300   0.813   3.251   3.828
 1094SOL    HW2 3301   0.903   3.321   3.710
 1095SOL     OW 3302   0.661   3.652   4.677
 1095SOL    HW1 3303   0.615   3.740   4.664
 1095SOL    HW2 3304   0.760   3.664   4.670
 1096SOL     OW 3305   0.859   2.818   4.585
 1096SOL    HW1 3306   0.913   2.749   4.633
 1096SOL    HW2 3307   0.827   2.887   4.651
 1097SOL     OW 3308   1.083   2.846   3.811
 1097SOL    HW1 3309   1.060   2.899   3.729
 1097SOL    HW2 3310   1.164   2.790   3.792
 1098SOL     OW 3311   1.861   3.431   4.575
 1098SOL    HW1 3312   1.790   3.419   4.505
 1098SOL    HW2 3313   1.862   3.352   4.635
 1099SOL     OW 3314   0.079   3.102   4.377
 1099SOL    HW1 3315   0.078   3.055   4.465
 1099SOL    HW2 3316   0.161   3.074   4.326
 1100SOL     OW 3317   1.824   2.054   4.951
 1100SOL    HW1 3318   1.820   1.964   4.995
 1100SOL    HW2 3319   1.827   2.043   4.852
 1101SOL     OW 3320   0.428   2.286   4.244
 1101SOL    HW1 3321   0.458   2.214   4.182
 1101SOL    HW2 3322   0.389   2.246   4.327
 1102SOL     OW 3323   0.812   3.448   4.411
 1102SOL    HW1 3324   0.844   3.458   4.317
 1102SOL    HW2 3325   0.733   3.386   4.413
 1103SOL     OW 3326   1.424   2.076   4.836
 1103SOL    HW1 3327   1.476   2.011   4.891
 1103SOL    HW2 3328   1.375   2.139   4.897
 1104SOL     OW 3329   0.770   3.192   4.025
 1104SOL    HW1 3330   0.724   3.105   4.042
 1104SOL    HW2 3331   0.861   3.189   4.066
 1105SOL     OW 3332   1.352   1.914   3.892
 1105SOL    HW1 3333   1.387   1.873   3.808
 1105SOL    HW2 3334   1.262   1.876   3.912
 1106SOL     OW 3335   1.300   2.315   4.415
 1106SOL    HW1 3336   1.241   2.395   4.419
 1106SOL    HW2 3337   1.315   2.280   4.508
 1107SOL     OW 3338   1.593   2.083   4.606
 1107SOL    HW1 3339   1.509   2.082   4.660
 1107SOL    HW2 3340   1.595   2.166   4.550
 1108SOL     OW 3341   0.039   2.939   4.024
 1108SOL    HW1 3342   0.138   2.928   4.015
 1108SOL    HW2 3343  -0.001   2.853   4.056
 1109SOL     OW 3344   0.875   3.508   4.061
 1109SOL    HW1 3345   0.798   3.473   4.007
 1109SOL    HW2 3346   0.843   3.579   4.123
 1110SOL     OW 3347   0.230   4.352   0.113
 1110SOL    HW1 3348   0.137   4.350   0.150
 1110SOL    HW2 3349   0.231   4.313   0.021
 1111SOL     OW 3350   0.225   3.999   0.996
 1111SOL    HW1 3351   0.260   3.982   1.088
 1111SOL    HW2 3352   0.137   3.954   0.984
 1112SOL     OW 3353   0.019   4.092   0.647
 1112SOL    HW1 3354  -0.063   4.135   0.686
 1112SOL    HW2 3355  -0.009   4.019   0.584
 1113SOL     OW 3356   1.135   4.427   0.717
 1113SOL    HW1 3357   1.192   4.505   0.692
 1113SOL    HW2 3358   1.075   4.453   0.793
 1114SOL     OW 3359   1.755   4.331   0.231
 1114SOL    HW1 3360   1.743   4.318   0.132
 1114SOL    HW2 3361   1.725   4.250   0.280
 1115SOL     OW 3362   0.768   4.868   1.023
 1115SOL    HW1 3363   0.690   4.885   1.083
 1115SOL    HW2 3364   0.802   4.955   0.987
 1116SOL     OW 3365   0.850   4.522   1.823
 1116SOL    HW1 3366   0.846   4.598   1.888
 1116SOL    HW2 3367   0.872   4.558   1.732
 1117SOL     OW 3368   0.685   4.736   0.665
 1117SOL    HW1 3369   0.754   4.720   0.735
 1117SOL    HW2 3370   0.612   4.793   0.703
 1118SOL     OW 3371   0.438   4.116   1.499
 1118SOL    HW1 3372   0.520   4.060   1.508
 1118SOL    HW2 3373   0.357   4.058   1.503
 1119SOL     OW 3374   1.603   4.171   0.737
 1119SOL    HW1 3375   1.529   4.217   0.687
 1119SOL    HW2 3376   1.654   4.239   0.790
 1120SOL     OW 3377   0.230   5.158   0.538
 1120SOL    HW1 3378   0.204   5.254   0.538
 1120SOL    HW2 3379   0.159   5.104   0.583
 1121SOL     OW 3380   0.240   4.815   0.886
 1121SOL    HW1 3381   0.254   4.731   0.938
 1121SOL    HW2 3382   0.185   4.879   0.941
 1122SOL     OW 3383   0.606   4.688   0.123
 1122SOL    HW1 3384   0.613   4.772   0.069
 1122SOL    HW2 3385   0.652   4.701   0.211
 1123SOL     OW 3386   1.594   3.838   1.480
 1123SOL    HW1 3387   1.576   3.905   1.408
 1123SOL    HW2 3388   1.591   3.884   1.569
 1124SOL     OW 3389   0.122   4.367   0.563
 1124SOL    HW1 3390   0.077   4.279   0.580
 1124SOL    HW2 3391   0.121   4.421   0.647
 1125SOL     OW 3392   1.689   4.646   0.612
 1125SOL    HW1 3393   1.784   4.617   0.620
 1125SOL    HW2 3394   1.681   4.711   0.537
 1126SOL     OW 3395   0.113   4.461   1.597
 1126SOL    HW1 3396   0.201   4.448   1.642
 1126SOL    HW2 3397   0.100   4.558   1.575
 1127SOL     OW 3398   1.293   4.952   1.423
 1127SOL    HW1 3399   1.330   4.879   1.365
 1127SOL    HW2 3400   1.345   4.957   1.508
 1128SOL     OW 3401   0.809   3.728   0.502
 1128SOL    HW1 3402   0.849   3.819   0.493
 1128SOL    HW2 3403   0.709   3.736   0.508
 1129SOL     OW 3404   0.197   4.700   1.264
 1129SOL    HW1 3405   0.286   4.655   1.250
 1129SOL    HW2 3406   0.124   4.635   1.245
 1130SOL     OW 3407   1.525   4.723   0.190
 1130SOL    HW1 3408   1.462   4.647   0.203
 1130SOL    HW2 3409   1.573   4.741   0.276
 1131SOL     OW 3410   0.317   3.975   1.801
 1131SOL    HW1 3411   0.388   4.046   1.807
 1131SOL    HW2 3412   0.229   4.014   1.829
 1132SOL     OW 3413   0.598   4.453   0.270
 1132SOL    HW1 3414   0.622   4.522   0.202
 1132SOL    HW2 3415   0.520   4.486   0.324
 1133SOL     OW 3416   1.281   4.069   0.944
 1133SOL    HW1 3417   1.195   4.019   0.931
 1133SOL    HW2 3418   1.343   4.015   1.000
 1134SOL     OW 3419   0.807   4.329   1.465
 1134SOL    HW1 3420   0.760   4.326   1.554
 1134SOL    HW2 3421   0.756   4.274   1.399
 1135SOL     OW 3422   1.394   4.193   1.674
 1135SOL    HW1 3423   1.374   4.236   1.762
 1135SOL    HW2 3424   1.472   4.131   1.683
 1136SOL     OW 3425   0.973   4.614   1.572
 1136SOL    HW1 3426   1.019   4.530   1.543
 1136SOL    HW2 3427   0.917   4.648   1.497
 1137SOL     OW 3428   0.991   4.134   1.242
 1137SOL    HW1 3429   0.914   4.168   1.296
 1137SOL    HW2 3430   0.957   4.083   1.163
 1138SOL     OW 3431   1.041   4.425   0.429
 1138SOL    HW1 3432   1.067   4.421   0.525
 1138SOL    HW2 3433   0.956   4.374   0.415
 1139SOL     OW 3434   0.076   4.535   0.789
 1139SOL    HW1 3435   0.175   4.523   0.798
 1139SOL    HW2 3436   0.052   4.630   0.810
 1140SOL     OW 3437   0.865   4.072   0.195
 1140SOL    HW1 3438   0.924   4.135   0.146
 1140SOL    HW2 3439   0.884   3.978   0.166
 1141SOL     OW 3440   1.719   4.309   1.831
 1141SOL    HW1 3441   1.693   4.398   1.795
 1141SOL    HW2 3442   1.717   4.241   1.758
 1142SOL     OW 3443   0.550   3.920   0.885
 1142SOL    HW1 3444   0.545   3.915   0.985
 1142SOL    HW2 3445   0.552   4.016   0.856
 1143SOL     OW 3446   1.795   4.790   0.873
 1143SOL    HW1 3447   1.733   4.775   0.797
 1143SOL    HW2 3448   1.743   4.801   0.958
 1144SOL     OW 3449   0.321   4.667   0.242
 1144SOL    HW1 3450   0.403   4.706   0.200
 1144SOL    HW2 3451   0.294   4.585   0.193
 1145SOL     OW 3452   1.458   4.459   0.728
 1145SOL    HW1 3453   1.453   4.394   0.803
 1145SOL    HW2 3454   1.538   4.518   0.741
 1146SOL     OW 3455   0.202   4.009   1.498
 1146SOL    HW1 3456   0.122   4.069   1.485
 1146SOL    HW2 3457   0.192   3.960   1.584
 1147SOL     OW 3458   1.400   3.831   0.426
 1147SOL    HW1 3459   1.376   3.794   0.336
 1147SOL    HW2 3460   1.499   3.847   0.430
 1148SOL     OW 3461   0.382   4.424   0.480
 1148SOL    HW1 3462   0.427   4.334   0.477
 1148SOL    HW2 3463   0.288   4.413   0.513
 1149SOL     OW 3464   1.547   3.946   1.729
 1149SOL    HW1 3465   1.542   3.983   1.821
 1149SOL    HW2 3466   1.475   3.877   1.717
 1150SOL     OW 3467   0.614   3.846   0.117
 1150SOL    HW1 3468   0.712   3.824   0.124
 1150SOL    HW2 3469   0.583   3.829   0.024
 1151SOL     OW 3470   0.781   3.988   1.749
 1151SOL    HW1 3471   0.848   3.927   1.792
 1151SOL    HW2 3472   0.708   4.007   1.814
 1152SOL     OW 3473   1.351   4.314   1.433
 1152SOL    HW1 3474   1.379   4.271   1.518
 1152SOL    HW2 3475   1.376   4.410   1.434
 1153SOL     OW 3476   0.922   4.227   0.899
 1153SOL    HW1 3477   0.897   4.218   0.803
 1153SOL    HW2 3478   0.970   4.145   0.930
 1154SOL     OW 3479   0.539   3.788   0.512
 1154SOL    HW1 3480   0.458   3.789   0.570
 1154SOL    HW2 3481   0.542   3.871   0.457
 1155SOL     OW 3482   0.935   3.960   0.480
 1155SOL    HW1 3483   0.887   4.001   0.402
 1155SOL    HW2 3484   1.034   3.958   0.461
 1156SOL     OW 3485   1.076   4.407   1.464
 1156SOL    HW1 3486   0.996   4.346   1.467
 1156SOL    HW2 3487   1.157   4.354   1.440
 1157SOL     OW 3488   1.032   4.273   0.016
 1157SOL    HW1 3489   0.991   4.355  -0.023
 1157SOL    HW2 3490   1.096   4.299   0.089
 1158SOL     OW 3491   0.078   4.280   1.386
 1158SOL    HW1 3492   0.170   4.279   1.345
 1158SOL    HW2 3493   0.072   4.354   1.453
 1159SOL     OW 3494   0.561   3.946   1.147
 1159SOL    HW1 3495   0.599   3.862   1.184
 1159SOL    HW2 3496   0.473   3.965   1.191
 1160SOL     OW 3497   0.866   4.178   0.642
 1160SOL    HW1 3498   0.834   4.250   0.580
 1160SOL    HW2 3499   0.890   4.097   0.589
 1161SOL     OW 3500   1.017   3.763   0.753
 1161SOL    HW1 3501   0.945   3.768   0.684
 1161SOL    HW2 3502   0.993   3.694   0.822
 1162SOL     OW 3503   1.429   4.897   0.867
 1162SOL    HW1 3504   1.374   4.813   0.860
 1162SOL    HW2 3505   1.455   4.926   0.775
 1163SOL     OW 3506   1.466   4.314   0.992
 1163SOL    HW1 3507   1.436   4.219   0.999
 1163SOL    HW2 3508   1.539   4.330   1.058
 1164SOL     OW 3509   1.857   4.557   0.377
 1164SOL    HW1 3510   1.899   4.493   0.441
 1164SOL    HW2 3511   1.819   4.506   0.299
 1165SOL     OW 3512   1.390   4.299   0.078
 1165SOL    HW1 3513   1.336   4.278   0.159
 1165SOL    HW2 3514   1.481   4.258   0.087
 1166SOL     OW 3515   0.527   3.980   0.328
 1166SOL    HW1 3516   0.554   3.921   0.253
 1166SOL    HW2 3517   0.527   4.075   0.297
 1167SOL     OW 3518   1.754   4.947   1.588
 1167SOL    HW1 3519   1.845   4.908   1.575
 1167SOL    HW2 3520   1.762   5.043   1.612
 1168SOL     OW 3521   1.638   4.823   1.079
 1168SOL    HW1 3522   1.643   4.904   1.138
 1168SOL    HW2 3523   1.552   4.825   1.028
 1169SOL     OW 3524   0.915   3.813   1.402
 1169SOL    HW1 3525   0.940   3.793   1.307
 1169SOL    HW2 3526   0.987   3.869   1.444
 1170SOL     OW 3527   0.410   4.537   1.251
 1170SOL    HW1 3528   0.496   4.549   1.301
 1170SOL    HW2 3529   0.368   4.450   1.278
 1171SOL     OW 3530   1.274   4.110   1.262
 1171SOL    HW1 3531   1.295   4.184   1.326
 1171SOL    HW2 3532   1.185   4.127   1.219
 1172SOL     OW 3533   0.367   4.824   0.501
 1172SOL    HW1 3534   0.360   4.907   0.445
 1172SOL    HW2 3535   0.371   4.744   0.441
 1173SOL     OW 3536   0.566   4.261   0.865
 1173SOL    HW1 3537   0.578   4.327   0.791
 1173SOL    HW2 3538   0.612   4.295   0.948
 1174SOL     OW 3539   1.582   4.363   0.472
 1174SOL    HW1 3540   1.551   4.424   0.545
 1174SOL    HW2 3541   1.632   4.415   0.403
 1175SOL     OW 3542   0.402   4.475   1.598
 1175SOL    HW1 3543   0.470   4.530   1.551
 1175SOL    HW2 3544   0.442   4.387   1.625
 1176SOL     OW 3545   1.587   4.503   1.670
 1176SOL    HW1 3546   1.495   4.541   1.665
 1176SOL    HW2 3547   1.647   4.550   1.605
 1177SOL     OW 3548   1.013   3.829   1.770
 1177SOL    HW1 3549   1.019   3.914   1.718
 1177SOL    HW2 3550   1.045   3.753   1.713
 1178SOL     OW 3551   0.504   3.774   1.740
 1178SOL    HW1 3552   0.462   3.717   1.670
 1178SOL    HW2 3553   0.438   3.843   1.772
 1179SOL     OW 3554   0.573   4.594   1.029
 1179SOL    HW1 3555   0.617   4.683   1.020
 1179SOL    HW2 3556   0.510   4.594   1.106
 1180SOL     OW 3557   1.360   4.586   1.045
 1180SOL    HW1 3558   1.285   4.586   0.979
 1180SOL    HW2 3559   1.397   4.494   1.054
 1181SOL     OW 3560   1.209   4.249   0.275
 1181SOL    HW1 3561   1.222   4.165   0.329
 1181SOL    HW2 3562   1.180   4.323   0.335
 1182SOL     OW 3563   0.307   3.937   1.231
 1182SOL    HW1 3564   0.284   3.974   1.321
 1182SOL    HW2 3565   0.277   3.842   1.225
 1183SOL     OW 3566   0.037   5.034   1.282
 1183SOL    HW1 3567   0.090   4.985   1.350
 1183SOL    HW2 3568   0.059   5.132   1.287
 1184SOL     OW 3569   0.732   4.358   1.064
 1184SOL    HW1 3570   0.791   4.332   0.988
 1184SOL    HW2 3571   0.704   4.454   1.053
 1185SOL     OW 3572   1.728   4.659   1.854
 1185SOL    HW1 3573   1.682   4.652   1.765
 1185SOL    HW2 3574   1.666   4.703   1.920
 1186SOL     OW 3575   0.307   3.787   0.618
 1186SOL    HW1 3576   0.296   3.881   0.651
 1186SOL    HW2 3577   0.302   3.724   0.695
 1187SOL     OW 3578   1.622   4.091   0.374
 1187SOL    HW1 3579   1.624   4.015   0.438
 1187SOL    HW2 3580   1.574   4.168   0.414
 1188SOL     OW 3581   1.023   4.490   0.966
 1188SOL    HW1 3582   1.038   4.511   1.062
 1188SOL    HW2 3583   0.993   4.395   0.957
 1189SOL     OW 3584   0.350   4.622   1.804
 1189SOL    HW1 3585   0.426   4.666   1.852
 1189SOL    HW2 3586   0.385   4.575   1.722
 1190SOL     OW 3587   1.540   3.998   0.125
 1190SOL    HW1 3588   1.479   3.923   0.148
 1190SOL    HW2 3589   1.562   4.050   0.208
 1191SOL     OW 3590   1.303   4.562   0.042
 1191SOL    HW1 3591   1.337   4.469   0.057
 1191SOL    HW2 3592   1.321   4.589  -0.053
 1192SOL     OW 3593   0.319   4.534   0.949
 1192SOL    HW1 3594   0.412   4.570   0.954
 1192SOL    HW2 3595   0.313   4.449   1.001
 1193SOL     OW 3596   0.339   4.233   1.006
 1193SOL    HW1 3597   0.287   4.150   0.989
 1193SOL    HW2 3598   0.416   4.238   0.942
 1194SOL     OW 3599   1.138   4.104   1.678
 1194SOL    HW1 3600   1.093   4.167   1.742
 1194SOL    HW2 3601   1.231   4.135   1.661
 1195SOL     OW 3602   1.160   3.931   1.477
 1195SOL    HW1 3603   1.160   3.995   1.554
 1195SOL    HW2 3604   1.188   3.979   1.394
 1196SOL     OW 3605   1.002   4.520   1.238
 1196SOL    HW1 3606   1.043   4.488   1.324
 1196SOL    HW2 3607   0.906   4.493   1.235
 1197SOL     OW 3608   0.040   4.268   1.114
 1197SOL    HW1 3609   0.125   4.235   1.073
 1197SOL    HW2 3610   0.053   4.283   1.212
 1198SOL     OW 3611   0.189   4.244   1.722
 1198SOL    HW1 3612   0.248   4.204   1.652
 1198SOL    HW2 3613   0.131   4.315   1.681
 1199SOL     OW 3614   1.369   4.674   1.660
 1199SOL    HW1 3615   1.408   4.763   1.680
 1199SOL    HW2 3616   1.379   4.654   1.563
 1200SOL     OW 3617   0.815   4.296   0.325
 1200SOL    HW1 3618   0.822   4.207   0.279
 1200SOL    HW2 3619   0.721   4.330   0.317
 1201SOL     OW 3620   1.657   4.328   1.206
 1201SOL    HW1 3621   1.619   4.259   1.268
 1201SOL    HW2 3622   1.739   4.292   1.162
 1202SOL     OW 3623   0.671   4.188   1.269
 1202SOL    HW1 3624   0.637   4.099   1.239
 1202SOL    HW2 3625   0.697   4.242   1.189
 1203SOL     OW 3626   0.473   4.224   0.191
 1203SOL    HW1 3627   0.534   4.304   0.195
 1203SOL    HW2 3628   0.378   4.255   0.198
 1204SOL     OW 3629   0.159   4.861   1.466
 1204SOL    HW1 3630   0.181   4.800   1.542
 1204SOL    HW2 3631   0.169   4.812   1.380
 1205SOL     OW 3632   1.347   4.783   1.234
 1205SOL    HW1 3633   1.371   4.720   1.160
 1205SOL    HW2 3634   1.257   4.823   1.216
 1206SOL     OW 3635   1.302   4.579   0.309
 1206SOL    HW1 3636   1.216   4.548   0.351
 1206SOL    HW2 3637   1.298   4.565   0.210
 1207SOL     OW 3638   0.903   3.810   0.133
 1207SOL    HW1 3639   0.954   3.811   0.047
 1207SOL    HW2 3640   0.959   3.768   0.204
 1208SOL     OW 3641   1.726   3.859   0.523
 1208SOL    HW1 3642   1.799   3.842   0.456
 1208SOL    HW2 3643   1.695   3.772   0.561
 1209SOL     OW 3644   1.280   4.651   0.672
 1209SOL    HW1 3645   1.340   4.570   0.674
 1209SOL    HW2 3646   1.320   4.720   0.612
 1210SOL     OW 3647   1.841   3.899   0.963
 1210SOL    HW1 3648   1.880   3.814   0.927
 1210SOL    HW2 3649   1.743   3.901   0.944
 1211SOL     OW 3650   0.263   4.050   0.720
 1211SOL    HW1 3651   0.184   4.101   0.686
 1211SOL    HW2 3652   0.254   4.035   0.818
 1212SOL     OW 3653   0.822   4.726   1.372
 1212SOL    HW1 3654   0.862   4.725   1.280
 1212SOL    HW2 3655   0.832   4.818   1.412
 1213SOL     OW 3656   0.916   4.634   0.291
 1213SOL    HW1 3657   0.979   4.672   0.223
 1213SOL    HW2 3658   0.956   4.551   0.330
 1214SOL     OW 3659   1.014   3.960   0.971
 1214SOL    HW1 3660   1.006   3.924   0.878
 1214SOL    HW2 3661   1.012   3.884   1.036
 1215SOL     OW 3662   1.709   4.109   1.381
 1215SOL    HW1 3663   1.782   4.178   1.385
 1215SOL    HW2 3664   1.737   4.034   1.322
 1216SOL     OW 3665   0.105   4.737   1.726
 1216SOL    HW1 3666   0.028   4.704   1.780
 1216SOL    HW2 3667   0.190   4.707   1.768
 1217SOL     OW 3668   0.672   3.927   1.489
 1217SOL    HW1 3669   0.762   3.911   1.449
 1217SOL    HW2 3670   0.680   3.932   1.588
 1218SOL     OW 3671   0.075   4.069   0.033
 1218SOL    HW1 3672  -0.017   4.041   0.004
 1218SOL    HW2 3673   0.106   4.146  -0.023
 1219SOL     OW 3674   1.440   4.580   1.398
 1219SOL    HW1 3675   1.383   4.632   1.335
 1219SOL    HW2 3676   1.536   4.592   1.374
 1220SOL     OW 3677   0.072   3.890   0.318
 1220SOL    HW1 3678   0.055   3.973   0.264
 1220SOL    HW2 3679   0.162   3.853   0.296
 1221SOL     OW 3680   1.183   5.059   0.119
 1221SOL    HW1 3681   1.084   5.048   0.121
 1221SOL    HW2 3682   1.217   5.074   0.212
 1222SOL     OW 3683   0.613   4.566   1.431
 1222SOL    HW1 3684   0.669   4.647   1.414
 1222SOL    HW2 3685   0.672   4.486   1.434
 1223SOL     OW 3686   0.716   4.289   1.708
 1223SOL    HW1 3687   0.735   4.354   1.782
 1223SOL    HW2 3688   0.776   4.209   1.717
 1224SOL     OW 3689   1.674   4.607   1.254
 1224SOL    HW1 3690   1.647   4.518   1.217
 1224SOL    HW2 3691   1.675   4.675   1.181
 1225SOL     OW 3692   1.225   4.049   0.449
 1225SOL    HW1 3693   1.290   3.975   0.438
 1225SOL    HW2 3694   1.245   4.099   0.533
 1226SOL     OW 3695   0.594   4.469   0.652
 1226SOL    HW1 3696   0.644   4.554   0.633
 1226SOL    HW2 3697   0.506   4.471   0.604
 1227SOL     OW 3698   1.777   4.066   1.642
 1227SOL    HW1 3699   1.760   4.097   1.548
 1227SOL    HW2 3700   1.693   4.029   1.680
 1228SOL     OW 3701   1.730   4.658   1.517
 1228SOL    HW1 3702   1.768   4.749   1.532
 1228SOL    HW2 3703   1.722   4.641   1.418
 1229SOL     OW 3704   0.859   4.680   0.861
 1229SOL    HW1 3705   0.913   4.611   0.909
 1229SOL    HW2 3706   0.827   4.749   0.927
 1230SOL     OW 3707   1.083   4.708   0.087
 1230SOL    HW1 3708   1.060   4.761   0.005
 1230SOL    HW2 3709   1.164   4.652   0.068
 1231SOL     OW 3710   1.824   3.916   1.227
 1231SOL    HW1 3711   1.820   3.826   1.271
 1231SOL    HW2 3712   1.827   3.905   1.128
 1232SOL     OW 3713   0.428   4.148   0.520
 1232SOL    HW1 3714   0.458   4.076   0.458
 1232SOL    HW2 3715   0.389   4.108   0.603
 1233SOL     OW 3716   0.317   4.271   1.280
 1233SOL    HW1 3717   0.355   4.212   1.352
 1233SOL    HW2 3718   0.357   4.245   1.192
 1234SOL     OW 3719   1.424   3.938   1.112
 1234SOL    HW1 3720   1.476   3.873   1.167
 1234SOL    HW2 3721   1.375   4.001   1.173
 1235SOL     OW 3722   1.001   3.758   1.154
 1235SOL    HW1 3723   0.938   3.686   1.123
 1235SOL    HW2 3724   1.094   3.722   1.154
 1236SOL     OW 3725   1.352   3.776   0.168
 1236SOL    HW1 3726   1.387   3.735   0.084
 1236SOL    HW2 3727   1.262   3.738   0.188
 1237SOL     OW 3728   1.300   4.177   0.691
 1237SOL    HW1 3729   1.241   4.257   0.695
 1237SOL    HW2 3730   1.315   4.142   0.784
 1238SOL     OW 3731   1.593   3.945   0.882
 1238SOL    HW1 3732   1.509   3.944   0.936
 1238SOL    HW2 3733   1.595   4.028   0.826
 1239SOL     OW 3734   0.039   4.801   0.300
 1239SOL    HW1 3735   0.138   4.790   0.291
 1239SOL    HW2 3736  -0.001   4.715   0.332
 1240SOL     OW 3737   0.230   4.352   1.975
 1240SOL    HW1 3738   0.137   4.350   2.012
 1240SOL    HW2 3739   0.231   4.313   1.883
 1241SOL     OW 3740   0.225   3.999   2.858
 1241SOL    HW1 3741   0.260   3.982   2.950
 1241SOL    HW2 3742   0.137   3.954   2.846
 1242SOL     OW 3743   0.019   4.092   2.509
 1242SOL    HW1 3744  -0.063   4.135   2.548
 1242SOL    HW2 3745  -0.009   4.019   2.446
 1243SOL     OW 3746   1.135   4.427   2.579
 1243SOL    HW1 3747   1.192   4.505   2.554
 1243SOL    HW2 3748   1.075   4.453   2.655
 1244SOL     OW 3749   1.755   4.331   2.093
 1244SOL    HW1 3750   1.743   4.318   1.994
 1244SOL    HW2 3751   1.725   4.250   2.142
 1245SOL     OW 3752   0.768   4.868   2.885
 1245SOL    HW1 3753   0.690   4.885   2.945
 1245SOL    HW2 3754   0.802   4.955   2.849
 1246SOL     OW 3755   0.850   4.522   3.685
 1246SOL    HW1 3756   0.846   4.598   3.750
 1246SOL    HW2 3757   0.872   4.558   3.594
 1247SOL     OW 3758   0.685   4.736   2.527
 1247SOL    HW1 3759   0.754   4.720   2.597
 1247SOL    HW2 3760   0.612   4.793   2.565
 1248SOL     OW 3761   0.438   4.116   3.361
 1248SOL    HW1 3762   0.520   4.060   3.370
 1248SOL    HW2 3763   0.357   4.058   3.365
 1249SOL     OW 3764   1.603   4.171   2.599
 1249SOL    HW1 3765   1.529   4.217   2.549
 1249SOL    HW2 3766   1.654   4.239   2.652
 1250SOL     OW 3767   0.230   5.158   2.400
 1250SOL    HW1 3768   0.204   5.254   2.400
 1250SOL    HW2 3769   0.159   5.104   2.445
 1251SOL     OW 3770   0.240   4.815   2.748
 1251SOL    HW1 3771   0.254   4.731   2.800
 1251SOL    HW2 3772   0.185   4.879   2.803
 1252SOL     OW 3773   0.606   4.688   1.985
 1252SOL    HW1 3774   0.613   4.772   1.931
 1252SOL    HW2 3775   0.652   4.701   2.073
 1253SOL     OW 3776   1.594   3.838   3.342
 1253SOL    HW1 3777   1.576   3.905   3.270
 1253SOL    HW2 3778   1.591   3.884   3.431
 1254SOL     OW 3779   0.122   4.367   2.425
 1254SOL    HW1 3780   0.077   4.279   2.442
 1254SOL    HW2 3781   0.121   4.421   2.509
 1255SOL     OW 3782   1.689   4.646   2.474
 1255SOL    HW1 3783   1.784   4.617   2.482
 1255SOL    HW2 3784   1.681   4.711   2.399
 1256SOL     OW 3785   0.113   4.461   3.459
 1256SOL    HW1 3786   0.201   4.448   3.504
 1256SOL    HW2 3787   0.100   4.558   3.437
 1257SOL     OW 3788   1.293   4.952   3.285
 1257SOL    HW1 3789   1.330   4.879   3.227
 1257SOL    HW2 3790   1.345   4.957   3.370
 1258SOL     OW 3791   0.809   3.728   2.364
 1258SOL    HW1 3792   0.849   3.819   2.355
 1258SOL    HW2 3793   0.709   3.736   2.370
 1259SOL     OW 3794   0.197   4.700   3.126
 1259SOL    HW1 3795   0.286   4.655   3.112
 1259SOL    HW2 3796   0.124   4.635   3.107
 1260SOL     OW 3797   1.525   4.723   2.052
 1260SOL    HW1 3798   1.462   4.647   2.065
 1260SOL    HW2 3799   1.573   4.741   2.138
 1261SOL     OW 3800   0.317   3.975   3.663
 1261SOL    HW1 3801   0.388   4.046   3.669
 1261SOL    HW2 3802   0.229   4.014   3.691
 1262SOL     OW 3803   0.598   4.453   2.132
 1262SOL    HW1 3804   0.622   4.522   2.064
 1262SOL    HW2 3805   0.520   4.486   2.186
 1263SOL     OW 3806   1.281   4.069   2.806
 1263SOL    HW1 3807   1.195   4.019   2.793
 1263SOL    HW2 3808   1.343   4.015   2.862
 1264SOL     OW 3809   0.807   4.329   3.327
 1264SOL    HW1 3810   0.760   4.326   3.416
 1264SOL    HW2 3811   0.756   4.274   3.261
 1265SOL     OW 3812   1.394   4.193   3.536
 1265SOL    HW1 3813   1.374   4.236   3.624
 1265SOL    HW2 3814   1.472   4.131   3.545
 1266SOL     OW 3815   0.973   4.614   3.434
 1266SOL    HW1 3816   1.019   4.530   3.405
 1266SOL    HW2 3817   0.917   4.648   3.359
 1267SOL     OW 3818   0.991   4.134   3.104
 1267SOL    HW1 3819   0.914   4.168   3.158
 1267SOL    HW2 3820   0.957   4.083   3.025
 1268SOL     OW 3821   1.041   4.425   2.291
 1268SOL    HW1 3822   1.067   4.421   2.387
 1268SOL    HW2 3823   0.956   4.374   2.277
 1269SOL     OW 3824   0.076   4.535   2.651
 1269SOL    HW1 3825   0.175   4.523   2.660
 1269SOL    HW2 3826   0.052   4.630   2.672
 1270SOL     OW 3827   0.865   4.072   2.057
 1270SOL    HW1 3828   0.924   4.135   2.008
 1270SOL    HW2 3829   0.884   3.978   2.028
 1271SOL     OW 3830   1.719   4.309   3.693
 1271SOL    HW1 3831   1.693   4.398   3.657
 1271SOL    HW2 3832   1.717   4.241   3.620
 1272SOL     OW 3833   0.550   3.920   2.747
 1272SOL    HW1 3834   0.545   3.915   2.847
 1272SOL    HW2 3835   0.552   4.016   2.718
 1273SOL     OW 3836   1.795   4.790   2.735
 1273SOL    HW1 3837   1.733   4.775   2.659
 1273SOL    HW2 3838   1.743   4.801   2.820
 1274SOL     OW 3839   0.321   4.667   2.104
 1274SOL    HW1 3840   0.403   4.706   2.062
 1274SOL    HW2 3841   0.294   4.585   2.055
 1275SOL     OW 3842   1.458   4.459   2.590
 1275SOL    HW1 3843   1.453   4.394   2.665
 1275SOL    HW2 3844   1.538   4.518   2.603
 1276SOL     OW 3845   0.202   4.009   3.360
 1276SOL    HW1 3846   0.122   4.069   3.347
 1276SOL    HW2 3847   0.192   3.960   3.446
 1277SOL     OW 3848   1.400   3.831   2.288
 1277SOL    HW1 3849   1.376   3.794   2.198
 1277SOL    HW2 3850   1.499   3.847   2.292
 1278SOL     OW 3851   0.382   4.424   2.342
 1278SOL    HW1 3852   0.427   4.334   2.339
 1278SOL    HW2 3853   0.288   4.413   2.375
 1279SOL     OW 3854   1.547   3.946   3.591
 1279SOL    HW1 3855   1.542   3.983   3.683
 1279SOL    HW2 3856   1.475   3.877   3.579
 1280SOL     OW 3857   0.614   3.846   1.979
 1280SOL    HW1 3858   0.712   3.824   1.986
 1280SOL    HW2 3859   0.583   3.829   1.886
 1281SOL     OW 3860   0.781   3.988   3.611
 1281SOL    HW1 3861   0.848   3.927   3.654
 1281SOL    HW2 3862   0.708   4.007   3.676
 1282SOL     OW 3863   1.351   4.314   3.295
 1282SOL    HW1 3864   1.379   4.271   3.380
 1282SOL    HW2 3865   1.376   4.410   3.296
 1283SOL     OW 3866   0.922   4.227   2.761
 1283SOL    HW1 3867   0.897   4.218   2.665
 1283SOL    HW2 3868   0.970   4.145   2.792
 1284SOL     OW 3869   0.539   3.788   2.374
 1284SOL    HW1 3870   0.458   3.789   2.432
 1284SOL    HW2 3871   0.542   3.871   2.319
 1285SOL     OW 3872   0.297   3.759   2.033
 1285SOL    HW1 3873   0.346   3.843   2.012
 1285SOL    HW2 3874   0.359   3.694   2.078
 1286SOL     OW 3875   0.935   3.960   2.342
 1286SOL    HW1 3876   0.887   4.001   2.264
 1286SOL    HW2 3877   1.034   3.958   2.323
 1287SOL     OW 3878   1.076   4.407   3.326
 1287SOL    HW1 3879   0.996   4.346   3.329
 1287SOL    HW2 3880   1.157   4.354   3.302
 1288SOL     OW 3881   1.032   4.273   1.878
 1288SOL    HW1 3882   0.991   4.355   1.839
 1288SOL    HW2 3883   1.096   4.299   1.951
 1289SOL     OW 3884   0.078   4.280   3.248
 1289SOL    HW1 3885   0.170   4.279   3.207
 1289SOL    HW2 3886   0.072   4.354   3.315
 1290SOL     OW 3887   0.561   3.946   3.009
 1290SOL    HW1 3888   0.599   3.862   3.046
 1290SOL    HW2 3889   0.473   3.965   3.053
 1291SOL     OW 3890   0.866   4.178   2.504
 1291SOL    HW1 3891   0.834   4.250   2.442
 1291SOL    HW2 3892   0.890   4.097   2.451
 1292SOL     OW 3893   1.017   3.763   2.615
 1292SOL    HW1 3894   0.945   3.768   2.546
 1292SOL    HW2 3895   0.993   3.694   2.684
 1293SOL     OW 3896   1.429   4.897   2.729
 1293SOL    HW1 3897   1.374   4.813   2.722
 1293SOL    HW2 3898   1.455   4.926   2.637
 1294SOL     OW 3899   1.466   4.314   2.854
 1294SOL    HW1 3900   1.436   4.219   2.861
 1294SOL    HW2 3901   1.539   4.330   2.920
 1295SOL     OW 3902   1.857   4.557   2.239
 1295SOL    HW1 3903   1.899   4.493   2.303
 1295SOL    HW2 3904   1.819   4.506   2.161
 1296SOL     OW 3905   1.390   4.299   1.940
 1296SOL    HW1 3906   1.336   4.278   2.021
 1296SOL    HW2 3907   1.481   4.258   1.949
 1297SOL     OW 3908   0.527   3.980   2.190
 1297SOL    HW1 3909   0.554   3.921   2.115
 1297SOL    HW2 3910   0.527   4.075   2.159
 1298SOL     OW 3911   1.754   4.947   3.450
 1298SOL    HW1 3912   1.845   4.908   3.437
 1298SOL    HW2 3913   1.762   5.043   3.474
 1299SOL     OW 3914   1.638   4.823   2.941
 1299SOL    HW1 3915   1.643   4.904   3.000
 1299SOL    HW2 3916   1.552   4.825   2.890
 1300SOL     OW 3917   0.915   3.813   3.264
 1300SOL    HW1 3918   0.940   3.793   3.169
 1300SOL    HW2 3919   0.987   3.869   3.306
 1301SOL     OW 3920   0.410   4.537   3.113
 1301SOL    HW1 3921   0.496   4.549   3.163
 1301SOL    HW2 3922   0.368   4.450   3.140
 1302SOL     OW 3923   1.274   4.110   3.124
 1302SOL    HW1 3924   1.295   4.184   3.188
 1302SOL    HW2 3925   1.185   4.127   3.081
 1303SOL     OW 3926   0.367   4.824   2.363
 1303SOL    HW1 3927   0.360   4.907   2.307
 1303SOL    HW2 3928   0.371   4.744   2.303
 1304SOL     OW 3929   0.566   4.261   2.727
 1304SOL    HW1 3930   0.578   4.327   2.653
 1304SOL    HW2 3931   0.612   4.295   2.810
 1305SOL     OW 3932   1.582   4.363   2.334
 1305SOL    HW1 3933   1.551   4.424   2.407
 1305SOL    HW2 3934   1.632   4.415   2.265
 1306SOL     OW 3935   0.402   4.475   3.460
 1306SOL    HW1 3936   0.470   4.530   3.413
 1306SOL    HW2 3937   0.442   4.387   3.487
 1307SOL     OW 3938   1.587   4.503   3.532
 1307SOL    HW1 3939   1.495   4.541   3.527
 1307SOL    HW2 3940   1.647   4.550   3.467
 1308SOL     OW 3941   1.013   3.829   3.632
 1308SOL    HW1 3942   1.019   3.914   3.580
 1308SOL    HW2 3943   1.045   3.753   3.575
 1309SOL     OW 3944   0.504   3.774   3.602
 1309SOL    HW1 3945   0.462   3.717   3.532
 1309SOL    HW2 3946   0.438   3.843   3.634
 1310SOL     OW 3947   0.573   4.594   2.891
 1310SOL    HW1 3948   0.617   4.683   2.882
 1310SOL    HW2 3949   0.510   4.594   2.968
 1311SOL     OW 3950   1.360   4.586   2.907
 1311SOL    HW1 3951   1.285   4.586   2.841
 1311SOL    HW2 3952   1.397   4.494   2.916
 1312SOL     OW 3953   1.209   4.249   2.137
 1312SOL    HW1 3954   1.222   4.165   2.191
 1312SOL    HW2 3955   1.180   4.323   2.197
 1313SOL     OW 3956   0.307   3.937   3.093
 1313SOL    HW1 3957   0.284   3.974   3.183
 1313SOL    HW2 3958   0.277   3.842   3.087
 1314SOL     OW 3959   0.037   5.034   3.144
 1314SOL    HW1 3960   0.090   4.985   3.212
 1314SOL    HW2 3961   0.059   5.132   3.149
 1315SOL     OW 3962   0.732   4.358   2.926
 1315SOL    HW1 3963   0.791   4.332   2.850
 1315SOL    HW2 3964   0.704   4.454   2.915
 1316SOL     OW 3965   1.728   4.659   3.716
 1316SOL    HW1 3966   1.682   4.652   3.627
 1316SOL    HW2 3967   1.666   4.703   3.782
 1317SOL     OW 3968   0.307   3.787   2.480
 1317SOL    HW1 3969   0.296   3.881   2.513
 1317SOL    HW2 3970   0.302   3.724   2.557
 1318SOL     OW 3971   1.622   4.091   2.236
 1318SOL    HW1 3972   1.624   4.015   2.300
 1318SOL    HW2 3973   1.574   4.168   2.276
 1319SOL     OW 3974   1.023   4.490   2.828
 1319SOL    HW1 3975   1.038   4.511   2.924
 1319SOL    HW2 3976   0.993   4.395   2.819
 1320SOL     OW 3977   0.350   4.622   3.666
 1320SOL    HW1 3978   0.426   4.666   3.714
 1320SOL    HW2 3979   0.385   4.575   3.584
 1321SOL     OW 3980   1.540   3.998   1.987
 1321SOL    HW1 3981   1.479   3.923   2.010
 1321SOL    HW2 3982   1.562   4.050   2.070
 1322SOL     OW 3983   1.303   4.562   1.904
 1322SOL    HW1 3984   1.337   4.469   1.919
 1322SOL    HW2 3985   1.321   4.589   1.809
 1323SOL     OW 3986   0.319   4.534   2.811
 1323SOL    HW1 3987   0.412   4.570   2.816
 1323SOL    HW2 3988   0.313   4.449   2.863
 1324SOL     OW 3989   0.339   4.233   2.868
 1324SOL    HW1 3990   0.287   4.150   2.851
 1324SOL    HW2 3991   0.416   4.238   2.804
 1325SOL     OW 3992   1.138   4.104   3.540
 1325SOL    HW1 3993   1.093   4.167   3.604
 1325SOL    HW2 3994   1.231   4.135   3.523
 1326SOL     OW 3995   1.160   3.931   3.339
 1326SOL    HW1 3996   1.160   3.995   3.416
 1326SOL    HW2 3997   1.188   3.979   3.256
 1327SOL     OW 3998   1.002   4.520   3.100
 1327SOL    HW1 3999   1.043   4.488   3.186
 1327SOL    HW2 4000   0.906   4.493   3.097
 1328SOL     OW 4001   0.040   4.268   2.976
 1328SOL    HW1 4002   0.125   4.235   2.935
 1328SOL    HW2 4003   0.053   4.283   3.074
 1329SOL     OW 4004   0.189   4.244   3.584
 1329SOL    HW1 4005   0.248   4.204   3.514
 1329SOL    HW2 4006   0.131   4.315   3.543
 1330SOL     OW 4007   1.369   4.674   3.522
 1330SOL    HW1 4008   1.408   4.763   3.542
 1330SOL    HW2 4009   1.379   4.654   3.425
 1331SOL     OW 4010   0.815   4.296   2.187
 1331SOL    HW1 4011   0.822   4.207   2.141
 1331SOL    HW2 4012   0.721   4.330   2.179
 1332SOL     OW 4013   1.657   4.328   3.068
 1332SOL    HW1 4014   1.619   4.259   3.130
 1332SOL    HW2 4015   1.739   4.292   3.024
 1333SOL     OW 4016   0.671   4.188   3.131
 1333SOL    HW1 4017   0.637   4.099   3.101
 1333SOL    HW2 4018   0.697   4.242   3.051
 1334SOL     OW 4019   0.473   4.224   2.053
 1334SOL    HW1 4020   0.534   4.304   2.057
 1334SOL    HW2 4021   0.378   4.255   2.060
 1335SOL     OW 4022   0.159   4.861   3.328
 1335SOL    HW1 4023   0.181   4.800   3.404
 1335SOL    HW2 4024   0.169   4.812   3.242
 1336SOL     OW 4025   1.347   4.783   3.096
 1336SOL    HW1 4026   1.371   4.720   3.022
 1336SOL    HW2 4027   1.257   4.823   3.078
 1337SOL     OW 4028   1.302   4.579   2.171
 1337SOL    HW1 4029   1.216   4.548   2.213
 1337SOL    HW2 4030   1.298   4.565   2.072
 1338SOL     OW 4031   1.726   3.859   2.385
 1338SOL    HW1 4032   1.799   3.842   2.318
 1338SOL    HW2 4033   1.695   3.772   2.423
 1339SOL     OW 4034   1.280   4.651   2.534
 1339SOL    HW1 4035   1.340   4.570   2.536
 1339SOL    HW2 4036   1.320   4.720   2.474
 1340SOL     OW 4037   1.841   3.899   2.825
 1340SOL    HW1 4038   1.880   3.814   2.789
 1340SOL    HW2 4039   1.743   3.901   2.806
 1341SOL     OW 4040   0.263   4.050   2.582
 1341SOL    HW1 4041   0.184   4.101   2.548
 1341SOL    HW2 4042   0.254   4.035   2.680
 1342SOL     OW 4043   0.822   4.726   3.234
 1342SOL    HW1 4044   0.862   4.725   3.142
 1342SOL    HW2 4045   0.832   4.818   3.274
 1343SOL     OW 4046   0.916   4.634   2.153
 1343SOL    HW1 4047   0.979   4.672   2.085
 1343SOL    HW2 4048   0.956   4.551   2.192
 1344SOL     OW 4049   1.014   3.960   2.833
 1344SOL    HW1 4050   1.006   3.924   2.740
 1344SOL    HW2 4051   1.012   3.884   2.898
 1345SOL     OW 4052   1.709   4.109   3.243
 1345SOL    HW1 4053   1.782   4.178   3.247
 1345SOL    HW2 4054   1.737   4.034   3.184
 1346SOL     OW 4055   0.105   4.737   3.588
 1346SOL    HW1 4056   0.028   4.704   3.642
 1346SOL    HW2 4057   0.190   4.707   3.630
 1347SOL     OW 4058   0.672   3.927   3.351
 1347SOL    HW1 4059   0.762   3.911   3.311
 1347SOL    HW2 4060   0.680   3.932   3.450
 1348SOL     OW 4061   0.075   4.069   1.895
 1348SOL    HW1 4062  -0.017   4.041   1.866
 1348SOL    HW2 4063   0.106   4.146   1.839
 1349SOL     OW 4064   1.440   4.580   3.260
 1349SOL    HW1 4065   1.383   4.632   3.197
 1349SOL    HW2 4066   1.536   4.592   3.236
 1350SOL     OW 4067   0.072   3.890   2.180
 1350SOL    HW1 4068   0.055   3.973   2.126
 1350SOL    HW2 4069   0.162   3.853   2.158
 1351SOL     OW 4070   1.183   5.059   1.981
 1351SOL    HW1 4071   1.084   5.048   1.983
 1351SOL    HW2 4072   1.217   5.074   2.074
 1352SOL     OW 4073   0.613   4.566   3.293
 1352SOL    HW1 4074   0.669   4.647   3.276
 1352SOL    HW2 4075   0.672   4.486   3.296
 1353SOL     OW 4076   0.716   4.289   3.570
 1353SOL    HW1 4077   0.735   4.354   3.644
 1353SOL    HW2 4078   0.776   4.209   3.579
 1354SOL     OW 4079   1.674   4.607   3.116
 1354SOL    HW1 4080   1.647   4.518   3.079
 1354SOL    HW2 4081   1.675   4.675   3.043
 1355SOL     OW 4082   1.225   4.049   2.311
 1355SOL    HW1 4083   1.290   3.975   2.300
 1355SOL    HW2 4084   1.245   4.099   2.395
 1356SOL     OW 4085   0.594   4.469   2.514
 1356SOL    HW1 4086   0.644   4.554   2.495
 1356SOL    HW2 4087   0.506   4.471   2.466
 1357SOL     OW 4088   1.777   4.066   3.504
 1357SOL    HW1 4089   1.760   4.097   3.410
 1357SOL    HW2 4090   1.693   4.029   3.542
 1358SOL     OW 4091   1.730   4.658   3.379
 1358SOL    HW1 4092   1.768   4.749   3.394
 1358SOL    HW2 4093   1.722   4.641   3.280
 1359SOL     OW 4094   0.859   4.680   2.723
 1359SOL    HW1 4095   0.913   4.611   2.771
 1359SOL    HW2 4096   0.827   4.749   2.789
 1360SOL     OW 4097   1.083   4.708   1.949
 1360SOL    HW1 4098   1.060   4.761   1.867
 1360SOL    HW2 4099   1.164   4.652   1.930
 1361SOL     OW 4100   1.824   3.916   3.089
 1361SOL    HW1 4101   1.820   3.826   3.133
 1361SOL    HW2 4102   1.827   3.905   2.990
 1362SOL     OW 4103   0.428   4.148   2.382
 1362SOL    HW1 4104   0.458   4.076   2.320
 1362SOL    HW2 4105   0.389   4.108   2.465
 1363SOL     OW 4106   0.317   4.271   3.142
 1363SOL    HW1 4107   0.355   4.212   3.214
 1363SOL    HW2 4108   0.357   4.245   3.054
 1364SOL     OW 4109   1.424   3.938   2.974
 1364SOL    HW1 4110   1.476   3.873   3.029
 1364SOL    HW2 4111   1.375   4.001   3.035
 1365SOL     OW 4112   1.001   3.758   3.016
 1365SOL    HW1 4113   0.938   3.686   2.985
 1365SOL    HW2 4114   1.094   3.722   3.016
 1366SOL     OW 4115   1.352   3.776   2.030
 1366SOL    HW1 4116   1.387   3.735   1.946
 1366SOL    HW2 4117   1.262   3.738   2.050
 1367SOL     OW 4118   1.300   4.177   2.553
 1367SOL    HW1 4119   1.241   4.257   2.557
 1367SOL    HW2 4120   1.315   4.142   2.646
 1368SOL     OW 4121   1.593   3.945   2.744
 1368SOL    HW1 4122   1.509   3.944   2.798
 1368SOL    HW2 4123   1.595   4.028   2.688
 1369SOL     OW 4124   0.039   4.801   2.162
 1369SOL    HW1 4125   0.138   4.790   2.153
 1369SOL    HW2 4126  -0.001   4.715   2.194
 1370SOL     OW 4127   0.230   4.352   3.837
 1370SOL    HW1 4128   0.137   4.350   3.874
 1370SOL    HW2 4129   0.231   4.313   3.745
 1371SOL     OW 4130   0.225   3.999   4.720
 1371SOL    HW1 4131   0.260   3.982   4.812
 1371SOL    HW2 4132   0.137   3.954   4.708
 1372SOL     OW 4133   0.019   4.092   4.371
 1372SOL    HW1 4134  -0.063   4.135   4.410
 1372SOL    HW2 4135  -0.009   4.019   4.308
 1373SOL     OW 4136   1.135   4.427   4.441
 1373SOL    HW1 4137   1.192   4.505   4.416
 1373SOL    HW2 4138   1.075   4.453   4.517
 1374SOL     OW 4139   1.755   4.331   3.955
 1374SOL    HW1 4140   1.743   4.318   3.856
 1374SOL    HW2 4141   1.725   4.250   4.004
 1375SOL     OW 4142   0.768   4.868   4.747
 1375SOL    HW1 4143   0.690   4.885   4.807
 1375SOL    HW2 4144   0.802   4.955   4.711
 1376SOL     OW 4145   0.685   4.736   4.389
 1376SOL    HW1 4146   0.754   4.720   4.459
 1376SOL    HW2 4147   0.612   4.793   4.427
 1377SOL     OW 4148   1.603   4.171   4.461
 1377SOL    HW1 4149   1.529   4.217   4.411
 1377SOL    HW2 4150   1.654   4.239   4.514
 1378SOL     OW 4151   0.230   5.158   4.262
 1378SOL    HW1 4152   0.204   5.254   4.262
 1378SOL    HW2 4153   0.159   5.104   4.307
 1379SOL     OW 4154   0.240   4.815   4.610
 1379SOL    HW1 4155   0.254   4.731   4.662
 1379SOL    HW2 4156   0.185   4.879   4.665
 1380SOL     OW 4157   0.606   4.688   3.847
 1380SOL    HW1 4158   0.613   4.772   3.793
 1380SOL    HW2 4159   0.652   4.701   3.935
 1381SOL     OW 4160   0.122   4.367   4.287
 1381SOL    HW1 4161   0.077   4.279   4.304
 1381SOL    HW2 4162   0.121   4.421   4.371
 1382SOL     OW 4163   1.689   4.646   4.336
 1382SOL    HW1 4164   1.784   4.617   4.344
 1382SOL    HW2 4165   1.681   4.711   4.261
 1383SOL     OW 4166   0.809   3.728   4.226
 1383SOL    HW1 4167   0.849   3.819   4.217
 1383SOL    HW2 4168   0.709   3.736   4.232
 1384SOL     OW 4169   1.525   4.723   3.914
 1384SOL    HW1 4170   1.462   4.647   3.927
 1384SOL    HW2 4171   1.573   4.741   4.000
 1385SOL     OW 4172   0.598   4.453   3.994
 1385SOL    HW1 4173   0.622   4.522   3.926
 1385SOL    HW2 4174   0.520   4.486   4.048
 1386SOL     OW 4175   1.281   4.069   4.668
 1386SOL    HW1 4176   1.195   4.019   4.655
 1386SOL    HW2 4177   1.343   4.015   4.724
 1387SOL     OW 4178   1.041   4.425   4.153
 1387SOL    HW1 4179   1.067   4.421   4.249
 1387SOL    HW2 4180   0.956   4.374   4.139
 1388SOL     OW 4181   0.076   4.535   4.513
 1388SOL    HW1 4182   0.175   4.523   4.522
 1388SOL    HW2 4183   0.052   4.630   4.534
 1389SOL     OW 4184   0.865   4.072   3.919
 1389SOL    HW1 4185   0.924   4.135   3.870
 1389SOL    HW2 4186   0.884   3.978   3.890
 1390SOL     OW 4187   0.550   3.920   4.609
 1390SOL    HW1 4188   0.545   3.915   4.709
 1390SOL    HW2 4189   0.552   4.016   4.580
 1391SOL     OW 4190   1.795   4.790   4.597
 1391SOL    HW1 4191   1.733   4.775   4.521
 1391SOL    HW2 4192   1.743   4.801   4.682
 1392SOL     OW 4193   0.321   4.667   3.966
 1392SOL    HW1 4194   0.403   4.706   3.924
 1392SOL    HW2 4195   0.294   4.585   3.917
 1393SOL     OW 4196   1.458   4.459   4.452
 1393SOL    HW1 4197   1.453   4.394   4.527
 1393SOL    HW2 4198   1.538   4.518   4.465
 1394SOL     OW 4199   1.400   3.831   4.150
 1394SOL    HW1 4200   1.376   3.794   4.060
 1394SOL    HW2 4201   1.499   3.847   4.154
 1395SOL     OW 4202   0.382   4.424   4.204
 1395SOL    HW1 4203   0.427   4.334   4.201
 1395SOL    HW2 4204   0.288   4.413   4.237
 1396SOL     OW 4205   0.614   3.846   3.841
 1396SOL    HW1 4206   0.712   3.824   3.848
 1396SOL    HW2 4207   0.583   3.829   3.748
 1397SOL     OW 4208   0.922   4.227   4.623
 1397SOL    HW1 4209   0.897   4.218   4.527
 1397SOL    HW2 4210   0.970   4.145   4.654
 1398SOL     OW 4211   0.539   3.788   4.236
 1398SOL    HW1 4212   0.458   3.789   4.294
 1398SOL    HW2 4213   0.542   3.871   4.181
 1399SOL     OW 4214   0.297   3.759   3.895
 1399SOL    HW1 4215   0.346   3.843   3.874
 1399SOL    HW2 4216   0.359   3.694   3.940
 1400SOL     OW 4217   0.935   3.960   4.204
 1400SOL    HW1 4218   0.887   4.001   4.126
 1400SOL    HW2 4219   1.034   3.958   4.185
 1401SOL     OW 4220   1.032   4.273   3.740
 1401SOL    HW1 4221   0.991   4.355   3.701
 1401SOL    HW2 4222   1.096   4.299   3.813
 1402SOL     OW 4223   0.866   4.178   4.366
 1402SOL    HW1 4224   0.834   4.250   4.304
 1402SOL    HW2 4225   0.890   4.097   4.313
 1403SOL     OW 4226   1.017   3.763   4.477
 1403SOL    HW1 4227   0.945   3.768   4.408
 1403SOL    HW2 4228   0.993   3.694   4.546
 1404SOL     OW 4229   1.429   4.897   4.591
 1404SOL    HW1 4230   1.374   4.813   4.584
 1404SOL    HW2 4231   1.455   4.926   4.499
 1405SOL     OW 4232   1.466   4.314   4.716
 1405SOL    HW1 4233   1.436   4.219   4.723
 1405SOL    HW2 4234   1.539   4.330   4.782
 1406SOL     OW 4235   1.857   4.557   4.101
 1406SOL    HW1 4236   1.899   4.493   4.165
 1406SOL    HW2 4237   1.819   4.506   4.023
 1407SOL     OW 4238   1.390   4.299   3.802
 1407SOL    HW1 4239   1.336   4.278   3.883
 1407SOL    HW2 4240   1.481   4.258   3.811
 1408SOL     OW 4241   0.527   3.980   4.052
 1408SOL    HW1 4242   0.554   3.921   3.977
 1408SOL    HW2 4243   0.527   4.075   4.021
 1409SOL     OW 4244   1.638   4.823   4.803
 1409SOL    HW1 4245   1.643   4.904   4.862
 1409SOL    HW2 4246   1.552   4.825   4.752
 1410SOL     OW 4247   0.410   4.537   4.975
 1410SOL    HW1 4248   0.496   4.549   5.025
 1410SOL    HW2 4249   0.368   4.450   5.002
 1411SOL     OW 4250   0.367   4.824   4.225
 1411SOL    HW1 4251   0.360   4.907   4.169
 1411SOL    HW2 4252   0.371   4.744   4.165
 1412SOL     OW 4253   0.566   4.261   4.589
 1412SOL    HW1 4254   0.578   4.327   4.515
 1412SOL    HW2 4255   0.612   4.295   4.672
 1413SOL     OW 4256   1.582   4.363   4.196
 1413SOL    HW1 4257   1.551   4.424   4.269
 1413SOL    HW2 4258   1.632   4.415   4.127
 1414SOL     OW 4259   0.573   4.594   4.753
 1414SOL    HW1 4260   0.617   4.683   4.744
 1414SOL    HW2 4261   0.510   4.594   4.830
 1415SOL     OW 4262   1.209   4.249   3.999
 1415SOL    HW1 4263   1.222   4.165   4.053
 1415SOL    HW2 4264   1.180   4.323   4.059
 1416SOL     OW 4265   0.307   3.937   4.955
 1416SOL    HW1 4266   0.284   3.974   5.045
 1416SOL    HW2 4267   0.277   3.842   4.949
 1417SOL     OW 4268   0.732   4.358   4.788
 1417SOL    HW1 4269   0.791   4.332   4.712
 1417SOL    HW2 4270   0.704   4.454   4.777
 1418SOL     OW 4271   0.307   3.787   4.342
 1418SOL    HW1 4272   0.296   3.881   4.375
 1418SOL    HW2 4273   0.302   3.724   4.419
 1419SOL     OW 4274   1.622   4.091   4.098
 1419SOL    HW1 4275   1.624   4.015   4.162
 1419SOL    HW2 4276   1.574   4.168   4.138
 1420SOL     OW 4277   1.023   4.490   4.690
 1420SOL    HW1 4278   1.038   4.511   4.786
 1420SOL    HW2 4279   0.993   4.395   4.681
 1421SOL     OW 4280   1.540   3.998   3.849
 1421SOL    HW1 4281   1.479   3.923   3.872
 1421SOL    HW2 4282   1.562   4.050   3.932
 1422SOL     OW 4283   1.303   4.562   3.766
 1422SOL    HW1 4284   1.337   4.469   3.781
 1422SOL    HW2 4285   1.321   4.589   3.671
 1423SOL     OW 4286   0.319   4.534   4.673
 1423SOL    HW1 4287   0.412   4.570   4.678
 1423SOL    HW2 4288   0.313   4.449   4.725
 1424SOL     OW 4289   0.339   4.233   4.730
 1424SOL    HW1 4290   0.287   4.150   4.713
 1424SOL    HW2 4291   0.416   4.238   4.666
 1425SOL     OW 4292   1.002   4.520   4.962
 1425SOL    HW1 4293   1.043   4.488   5.048
 1425SOL    HW2 4294   0.906   4.493   4.959
 1426SOL     OW 4295   0.815   4.296   4.049
 1426SOL    HW1 4296   0.822   4.207   4.003
 1426SOL    HW2 4297   0.721   4.330   4.041
 1427SOL     OW 4298   0.671   4.188   4.993
 1427SOL    HW1 4299   0.637   4.099   4.963
 1427SOL    HW2 4300   0.697   4.242   4.913
 1428SOL     OW 4301   0.473   4.224   3.915
 1428SOL    HW1 4302   0.534   4.304   3.919
 1428SOL    HW2 4303   0.378   4.255   3.922
 1429SOL     OW 4304   1.302   4.579   4.033
 1429SOL    HW1 4305   1.216   4.548   4.075
 1429SOL    HW2 4306   1.298   4.565   3.934
 1430SOL     OW 4307   1.726   3.859   4.247
 1430SOL    HW1 4308   1.799   3.842   4.180
 1430SOL    HW2 4309   1.695   3.772   4.285
 1431SOL     OW 4310   1.280   4.651   4.396
 1431SOL    HW1 4311   1.340   4.570   4.398
 1431SOL    HW2 4312   1.320   4.720   4.336
 1432SOL     OW 4313   1.841   3.899   4.687
 1432SOL    HW1 4314   1.880   3.814   4.651
 1432SOL    HW2 4315   1.743   3.901   4.668
 1433SOL     OW 4316   0.263   4.050   4.444
 1433SOL    HW1 4317   0.184   4.101   4.410
 1433SOL    HW2 4318   0.254   4.035   4.542
 1434SOL     OW 4319   0.916   4.634   4.015
 1434SOL    HW1 4320   0.979   4.672   3.947
 1434SOL    HW2 4321   0.956   4.551   4.054
 1435SOL     OW 4322   1.014   3.960   4.695
 1435SOL    HW1 4323   1.006   3.924   4.602
 1435SOL    HW2 4324   1.012   3.884   4.760
 1436SOL     OW 4325   0.075   4.069   3.757
 1436SOL    HW1 4326  -0.017   4.041   3.728
 1436SOL    HW2 4327   0.106   4.146   3.701
 1437SOL     OW 4328   0.072   3.890   4.042
 1437SOL    HW1 4329   0.055   3.973   3.988
 1437SOL    HW2 4330   0.162   3.853   4.020
 1438SOL     OW 4331   1.183   5.059   3.843
 1438SOL    HW1 4332   1.084   5.048   3.845
 1438SOL    HW2 4333   1.217   5.074   3.936
 1439SOL     OW 4334   1.674   4.607   4.978
 1439SOL    HW1 4335   1.647   4.518   4.941
 1439SOL    HW2 4336   1.675   4.675   4.905
 1440SOL     OW 4337   1.225   4.049   4.173
 1440SOL    HW1 4338   1.290   3.975   4.162
 1440SOL    HW2 4339   1.245   4.099   4.257
 1441SOL     OW 4340   0.594   4.469   4.376
 1441SOL    HW1 4341   0.644   4.554   4.357
 1441SOL    HW2 4342   0.506   4.471   4.328
 1442SOL     OW 4343   0.859   4.680   4.585
 1442SOL    HW1 4344   0.913   4.611   4.633
 1442SOL    HW2 4345   0.827   4.749   4.651
 1443SOL     OW 4346   1.083   4.708   3.811
 1443SOL    HW1 4347   1.060   4.761   3.729
 1443SOL    HW2 4348   1.164   4.652   3.792
 1444SOL     OW 4349   1.824   3.916   4.951
 1444SOL    HW1 4350   1.820   3.826   4.995
 1444SOL    HW2 4351   1.827   3.905   4.852
 1445SOL     OW 4352   0.428   4.148   4.244
 1445SOL    HW1 4353   0.458   4.076   4.182
 1445SOL    HW2 4354   0.389   4.108   4.327
 1446SOL     OW 4355   1.424   3.938   4.836
 1446SOL    HW1 4356   1.476   3.873   4.891
 1446SOL    HW2 4357   1.375   4.001   4.897
 1447SOL     OW 4358   1.352   3.776   3.892
 1447SOL    HW1 4359   1.387   3.735   3.808
 1447SOL    HW2 4360   1.262   3.738   3.912
 1448SOL     OW 4361   1.300   4.177   4.415
 1448SOL    HW1 4362   1.241   4.257   4.419
 1448SOL    HW2 4363   1.315   4.142   4.508
 1449SOL     OW 4364   1.593   3.945   4.606
 1449SOL    HW1 4365   1.509   3.944   4.660
 1449SOL    HW2 4366   1.595   4.028   4.550
 1450SOL     OW 4367   0.039   4.801   4.024
 1450SOL    HW1 4368   0.138   4.790   4.015
 1450SOL    HW2 4369  -0.001   4.715   4.056
 1451SOL     OW 4370   2.092   0.628   0.113
 1451SOL    HW1 4371   1.999   0.626   0.150
 1451SOL    HW2 4372   2.093   0.589   0.021
 1452SOL     OW 4373   2.087   0.275   0.996
 1452SOL    HW1 4374   2.122   0.258   1.088
 1452SOL    HW2 4375   1.999   0.230   0.984
 1453SOL     OW 4376   1.881   0.368   0.647
 1453SOL    HW1 4377   1.799   0.411   0.686
 1453SOL    HW2 4378   1.853   0.295   0.584
 1454SOL     OW 4379   2.431   1.275   1.165
 1454SOL    HW1 4380   2.338   1.268   1.128
 1454SOL    HW2 4381   2.442   1.364   1.209
 1455SOL     OW 4382   3.417   1.511   0.703
 1455SOL    HW1 4383   3.360   1.495   0.784
 1455SOL    HW2 4384   3.358   1.521   0.623
 1456SOL     OW 4385   2.997   0.703   0.717
 1456SOL    HW1 4386   3.054   0.781   0.692
 1456SOL    HW2 4387   2.937   0.729   0.793
 1457SOL     OW 4388   3.617   0.607   0.231
 1457SOL    HW1 4389   3.605   0.594   0.132
 1457SOL    HW2 4390   3.587   0.526   0.280
 1458SOL     OW 4391   2.630   1.144   1.023
 1458SOL    HW1 4392   2.552   1.161   1.083
 1458SOL    HW2 4393   2.664   1.231   0.987
 1459SOL     OW 4394   2.712   0.798   1.823
 1459SOL    HW1 4395   2.708   0.874   1.888
 1459SOL    HW2 4396   2.734   0.834   1.732
 1460SOL     OW 4397   2.547   1.012   0.665
 1460SOL    HW1 4398   2.616   0.996   0.735
 1460SOL    HW2 4399   2.474   1.069   0.703
 1461SOL     OW 4400   2.548   1.161   1.803
 1461SOL    HW1 4401   2.608   1.240   1.817
 1461SOL    HW2 4402   2.462   1.192   1.762
 1462SOL     OW 4403   2.197   1.435   1.061
 1462SOL    HW1 4404   2.119   1.404   1.008
 1462SOL    HW2 4405   2.255   1.493   1.004
 1463SOL     OW 4406   3.322   1.505   1.339
 1463SOL    HW1 4407   3.346   1.599   1.365
 1463SOL    HW2 4408   3.306   1.451   1.421
 1464SOL     OW 4409   2.300   0.392   1.499
 1464SOL    HW1 4410   2.382   0.336   1.508
 1464SOL    HW2 4411   2.219   0.334   1.503
 1465SOL     OW 4412   3.465   0.447   0.737
 1465SOL    HW1 4413   3.391   0.493   0.687
 1465SOL    HW2 4414   3.516   0.515   0.790
 1466SOL     OW 4415   2.093   1.713   0.483
 1466SOL    HW1 4416   2.127   1.790   0.537
 1466SOL    HW2 4417   2.137   1.713   0.393
 1467SOL     OW 4418   2.989   1.341   1.690
 1467SOL    HW1 4419   3.036   1.341   1.778
 1467SOL    HW2 4420   2.941   1.254   1.679
 1468SOL     OW 4421   2.092   1.434   0.538
 1468SOL    HW1 4422   2.066   1.530   0.538
 1468SOL    HW2 4423   2.021   1.380   0.583
 1469SOL     OW 4424   2.102   1.091   0.886
 1469SOL    HW1 4425   2.116   1.007   0.938
 1469SOL    HW2 4426   2.047   1.155   0.941
 1470SOL     OW 4427   2.482   1.786   1.439
 1470SOL    HW1 4428   2.390   1.769   1.474
 1470SOL    HW2 4429   2.510   1.878   1.465
 1471SOL     OW 4430   2.468   0.964   0.123
 1471SOL    HW1 4431   2.475   1.048   0.069
 1471SOL    HW2 4432   2.514   0.977   0.211
 1472SOL     OW 4433   3.456   0.114   1.480
 1472SOL    HW1 4434   3.438   0.181   1.408
 1472SOL    HW2 4435   3.453   0.160   1.569
 1473SOL     OW 4436   1.984   0.643   0.563
 1473SOL    HW1 4437   1.939   0.555   0.580
 1473SOL    HW2 4438   1.983   0.697   0.647
 1474SOL     OW 4439   3.704   1.767   0.359
 1474SOL    HW1 4440   3.758   1.738   0.439
 1474SOL    HW2 4441   3.734   1.857   0.330
 1475SOL     OW 4442   1.889   1.596   0.117
 1475SOL    HW1 4443   1.870   1.500   0.138
 1475SOL    HW2 4444   1.856   1.654   0.192
 1476SOL     OW 4445   3.551   0.922   0.612
 1476SOL    HW1 4446   3.646   0.893   0.620
 1476SOL    HW2 4447   3.543   0.987   0.537
 1477SOL     OW 4448   3.503   1.108   0.432
 1477SOL    HW1 4449   3.589   1.110   0.380
 1477SOL    HW2 4450   3.517   1.155   0.520
 1478SOL     OW 4451   1.975   0.737   1.597
 1478SOL    HW1 4452   2.063   0.724   1.642
 1478SOL    HW2 4453   1.962   0.834   1.575
 1479SOL     OW 4454   2.475   1.365   0.726
 1479SOL    HW1 4455   2.426   1.278   0.735
 1479SOL    HW2 4456   2.452   1.408   0.639
 1480SOL     OW 4457   3.155   1.228   1.423
 1480SOL    HW1 4458   3.192   1.155   1.365
 1480SOL    HW2 4459   3.207   1.233   1.508
 1481SOL     OW 4460   2.671   0.004   0.502
 1481SOL    HW1 4461   2.711   0.095   0.493
 1481SOL    HW2 4462   2.571   0.012   0.508
 1482SOL     OW 4463   2.059   0.976   1.264
 1482SOL    HW1 4464   2.148   0.931   1.250
 1482SOL    HW2 4465   1.986   0.911   1.245
 1483SOL     OW 4466   3.387   0.999   0.190
 1483SOL    HW1 4467   3.324   0.923   0.203
 1483SOL    HW2 4468   3.435   1.017   0.276
 1484SOL     OW 4469   3.049   1.792   1.616
 1484SOL    HW1 4470   3.073   1.852   1.540
 1484SOL    HW2 4471   3.056   1.697   1.586
 1485SOL     OW 4472   2.179   0.251   1.801
 1485SOL    HW1 4473   2.250   0.322   1.807
 1485SOL    HW2 4474   2.091   0.290   1.829
 1486SOL     OW 4475   3.328   1.417   0.953
 1486SOL    HW1 4476   3.269   1.423   1.033
 1486SOL    HW2 4477   3.313   1.329   0.907
 1487SOL     OW 4478   3.529   1.714   0.572
 1487SOL    HW1 4479   3.488   1.691   0.484
 1487SOL    HW2 4480   3.511   1.640   0.637
 1488SOL     OW 4481   2.460   0.729   0.270
 1488SOL    HW1 4482   2.484   0.798   0.202
 1488SOL    HW2 4483   2.382   0.762   0.324
 1489SOL     OW 4484   3.143   0.345   0.944
 1489SOL    HW1 4485   3.057   0.295   0.931
 1489SOL    HW2 4486   3.205   0.291   1.000
 1490SOL     OW 4487   3.438   1.662   0.307
 1490SOL    HW1 4488   3.527   1.708   0.310
 1490SOL    HW2 4489   3.417   1.638   0.212
 1491SOL     OW 4490   2.669   0.605   1.465
 1491SOL    HW1 4491   2.622   0.602   1.554
 1491SOL    HW2 4492   2.618   0.550   1.399
 1492SOL     OW 4493   3.256   0.469   1.674
 1492SOL    HW1 4494   3.236   0.512   1.762
 1492SOL    HW2 4495   3.334   0.407   1.683
 1493SOL     OW 4496   2.835   0.890   1.572
 1493SOL    HW1 4497   2.881   0.806   1.543
 1493SOL    HW2 4498   2.779   0.924   1.497
 1494SOL     OW 4499   2.853   0.410   1.242
 1494SOL    HW1 4500   2.776   0.444   1.296
 1494SOL    HW2 4501   2.819   0.359   1.163
 1495SOL     OW 4502   2.903   0.701   0.429
 1495SOL    HW1 4503   2.929   0.697   0.525
 1495SOL    HW2 4504   2.818   0.650   0.415
 1496SOL     OW 4505   1.938   0.811   0.789
 1496SOL    HW1 4506   2.037   0.799   0.798
 1496SOL    HW2 4507   1.914   0.906   0.810
 1497SOL     OW 4508   1.992   1.821   1.571
 1497SOL    HW1 4509   1.982   1.806   1.670
 1497SOL    HW2 4510   1.906   1.857   1.535
 1498SOL     OW 4511   2.727   0.348   0.195
 1498SOL    HW1 4512   2.786   0.411   0.146
 1498SOL    HW2 4513   2.746   0.254   0.166
 1499SOL     OW 4514   3.581   0.585   1.831
 1499SOL    HW1 4515   3.555   0.674   1.795
 1499SOL    HW2 4516   3.579   0.517   1.758
 1500SOL     OW 4517   3.224   1.144   0.545
 1500SOL    HW1 4518   3.307   1.115   0.497
 1500SOL    HW2 4519   3.175   1.211   0.489
 1501SOL     OW 4520   2.412   0.196   0.885
 1501SOL    HW1 4521   2.407   0.191   0.985
 1501SOL    HW2 4522   2.414   0.292   0.856
 1502SOL     OW 4523   2.870   1.456   0.477
 1502SOL    HW1 4524   2.824   1.528   0.425
 1502SOL    HW2 4525   2.866   1.476   0.575
 1503SOL     OW 4526   2.213   1.801   0.853
 1503SOL    HW1 4527   2.263   1.715   0.859
 1503SOL    HW2 4528   2.278   1.878   0.850
 1504SOL     OW 4529   3.657   1.066   0.873
 1504SOL    HW1 4530   3.595   1.051   0.797
 1504SOL    HW2 4531   3.605   1.077   0.958
 1505SOL     OW 4532   3.089   1.550   1.506
 1505SOL    HW1 4533   3.095   1.473   1.570
 1505SOL    HW2 4534   3.037   1.524   1.426
 1506SOL     OW 4535   2.183   0.943   0.242
 1506SOL    HW1 4536   2.265   0.982   0.200
 1506SOL    HW2 4537   2.156   0.861   0.193
 1507SOL     OW 4538   3.320   0.735   0.728
 1507SOL    HW1 4539   3.315   0.670   0.803
 1507SOL    HW2 4540   3.400   0.794   0.741
 1508SOL     OW 4541   2.323   1.266   1.727
 1508SOL    HW1 4542   2.273   1.267   1.641
 1508SOL    HW2 4543   2.260   1.248   1.803
 1509SOL     OW 4544   2.973   1.776   0.237
 1509SOL    HW1 4545   2.913   1.714   0.287
 1509SOL    HW2 4546   3.004   1.732   0.152
 1510SOL     OW 4547   2.064   0.285   1.498
 1510SOL    HW1 4548   1.984   0.345   1.485
 1510SOL    HW2 4549   2.054   0.236   1.584
 1511SOL     OW 4550   3.494   1.377   0.081
 1511SOL    HW1 4551   3.462   1.471   0.071
 1511SOL    HW2 4552   3.418   1.314   0.069
 1512SOL     OW 4553   2.326   1.743   0.323
 1512SOL    HW1 4554   2.359   1.782   0.409
 1512SOL    HW2 4555   2.402   1.736   0.258
 1513SOL     OW 4556   3.262   0.107   0.426
 1513SOL    HW1 4557   3.238   0.070   0.336
 1513SOL    HW2 4558   3.361   0.123   0.430
 1514SOL     OW 4559   2.111   1.785   1.241
 1514SOL    HW1 4560   2.168   1.720   1.291
 1514SOL    HW2 4561   2.095   1.752   1.148
 1515SOL     OW 4562   2.802   1.698   0.904
 1515SOL    HW1 4563   2.882   1.641   0.925
 1515SOL    HW2 4564   2.753   1.658   0.827
 1516SOL     OW 4565   2.244   0.700   0.480
 1516SOL    HW1 4566   2.289   0.610   0.477
 1516SOL    HW2 4567   2.150   0.689   0.513
 1517SOL     OW 4568   3.409   0.222   1.729
 1517SOL    HW1 4569   3.404   0.259   1.821
 1517SOL    HW2 4570   3.337   0.153   1.717
 1518SOL     OW 4571   2.476   0.122   0.117
 1518SOL    HW1 4572   2.574   0.100   0.124
 1518SOL    HW2 4573   2.445   0.105   0.024
 1519SOL     OW 4574   2.643   0.264   1.749
 1519SOL    HW1 4575   2.710   0.203   1.792
 1519SOL    HW2 4576   2.570   0.283   1.814
 1520SOL     OW 4577   2.750   1.514   1.195
 1520SOL    HW1 4578   2.727   1.489   1.101
 1520SOL    HW2 4579   2.811   1.445   1.234
 1521SOL     OW 4580   3.213   0.590   1.433
 1521SOL    HW1 4581   3.241   0.547   1.518
 1521SOL    HW2 4582   3.238   0.686   1.434
 1522SOL     OW 4583   2.665   1.402   0.924
 1522SOL    HW1 4584   2.755   1.416   0.882
 1522SOL    HW2 4585   2.594   1.404   0.853
 1523SOL     OW 4586   2.784   0.503   0.899
 1523SOL    HW1 4587   2.759   0.494   0.803
 1523SOL    HW2 4588   2.832   0.421   0.930
 1524SOL     OW 4589   2.401   0.064   0.512
 1524SOL    HW1 4590   2.320   0.065   0.570
 1524SOL    HW2 4591   2.404   0.147   0.457
 1525SOL     OW 4592   3.296   1.188   0.041
 1525SOL    HW1 4593   3.328   1.112   0.098
 1525SOL    HW2 4594   3.204   1.215   0.071
 1526SOL     OW 4595   2.159   0.035   0.171
 1526SOL    HW1 4596   2.208   0.119   0.150
 1526SOL    HW2 4597   2.221  -0.030   0.216
 1527SOL     OW 4598   2.797   0.236   0.480
 1527SOL    HW1 4599   2.749   0.277   0.402
 1527SOL    HW2 4600   2.896   0.234   0.461
 1528SOL     OW 4601   2.938   0.683   1.464
 1528SOL    HW1 4602   2.858   0.622   1.467
 1528SOL    HW2 4603   3.019   0.630   1.440
 1529SOL     OW 4604   3.089   1.570   0.793
 1529SOL    HW1 4605   3.110   1.644   0.728
 1529SOL    HW2 4606   3.157   1.570   0.866
 1530SOL     OW 4607   2.321   1.152   0.741
 1530SOL    HW1 4608   2.250   1.125   0.806
 1530SOL    HW2 4609   2.295   1.124   0.648
 1531SOL     OW 4610   3.133   1.797   0.591
 1531SOL    HW1 4611   3.177   1.861   0.527
 1531SOL    HW2 4612   3.083   1.849   0.661
 1532SOL     OW 4613   2.894   0.549   0.016
 1532SOL    HW1 4614   2.853   0.631  -0.023
 1532SOL    HW2 4615   2.958   0.575   0.089
 1533SOL     OW 4616   1.940   0.556   1.386
 1533SOL    HW1 4617   2.032   0.555   1.345
 1533SOL    HW2 4618   1.934   0.630   1.453
 1534SOL     OW 4619   2.423   0.222   1.147
 1534SOL    HW1 4620   2.461   0.138   1.184
 1534SOL    HW2 4621   2.335   0.241   1.191
 1535SOL     OW 4622   2.728   0.454   0.642
 1535SOL    HW1 4623   2.696   0.526   0.580
 1535SOL    HW2 4624   2.752   0.373   0.589
 1536SOL     OW 4625   2.879   0.039   0.753
 1536SOL    HW1 4626   2.807   0.044   0.684
 1536SOL    HW2 4627   2.855  -0.030   0.822
 1537SOL     OW 4628   3.291   1.173   0.867
 1537SOL    HW1 4629   3.236   1.089   0.860
 1537SOL    HW2 4630   3.317   1.202   0.775
 1538SOL     OW 4631   3.328   0.590   0.992
 1538SOL    HW1 4632   3.298   0.495   0.999
 1538SOL    HW2 4633   3.401   0.606   1.058
 1539SOL     OW 4634   3.719   0.833   0.377
 1539SOL    HW1 4635   3.761   0.769   0.441
 1539SOL    HW2 4636   3.681   0.782   0.299
 1540SOL     OW 4637   2.350   1.385   0.174
 1540SOL    HW1 4638   2.263   1.370   0.221
 1540SOL    HW2 4639   2.333   1.411   0.079
 1541SOL     OW 4640   3.526   1.280   0.657
 1541SOL    HW1 4641   3.625   1.288   0.671
 1541SOL    HW2 4642   3.481   1.364   0.688
 1542SOL     OW 4643   3.252   0.575   0.078
 1542SOL    HW1 4644   3.198   0.554   0.159
 1542SOL    HW2 4645   3.343   0.534   0.087
 1543SOL     OW 4646   2.389   0.256   0.328
 1543SOL    HW1 4647   2.416   0.197   0.253
 1543SOL    HW2 4648   2.389   0.351   0.297
 1544SOL     OW 4649   3.616   1.223   1.588
 1544SOL    HW1 4650   3.707   1.184   1.575
 1544SOL    HW2 4651   3.624   1.319   1.612
 1545SOL     OW 4652   2.926   1.347   1.340
 1545SOL    HW1 4653   2.846   1.324   1.395
 1545SOL    HW2 4654   3.009   1.321   1.389
 1546SOL     OW 4655   3.454   1.629   1.625
 1546SOL    HW1 4656   3.481   1.663   1.535
 1546SOL    HW2 4657   3.533   1.591   1.671
 1547SOL     OW 4658   2.973   1.195   1.100
 1547SOL    HW1 4659   2.933   1.239   1.181
 1547SOL    HW2 4660   2.932   1.232   1.017
 1548SOL     OW 4661   3.500   1.099   1.079
 1548SOL    HW1 4662   3.505   1.180   1.138
 1548SOL    HW2 4663   3.414   1.101   1.028
 1549SOL     OW 4664   2.777   0.089   1.402
 1549SOL    HW1 4665   2.802   0.069   1.307
 1549SOL    HW2 4666   2.849   0.145   1.444
 1550SOL     OW 4667   2.842   1.116   1.719
 1550SOL    HW1 4668   2.743   1.122   1.729
 1550SOL    HW2 4669   2.865   1.036   1.663
 1551SOL     OW 4670   2.567   1.050   0.368
 1551SOL    HW1 4671   2.553   1.057   0.467
 1551SOL    HW2 4672   2.651   0.999   0.350
 1552SOL     OW 4673   2.272   0.813   1.251
 1552SOL    HW1 4674   2.358   0.825   1.301
 1552SOL    HW2 4675   2.230   0.726   1.278
 1553SOL     OW 4676   3.136   0.386   1.262
 1553SOL    HW1 4677   3.157   0.460   1.326
 1553SOL    HW2 4678   3.047   0.403   1.219
 1554SOL     OW 4679   1.926   1.564   1.331
 1554SOL    HW1 4680   1.880   1.646   1.297
 1554SOL    HW2 4681   2.024   1.583   1.340
 1555SOL     OW 4682   2.229   1.100   0.501
 1555SOL    HW1 4683   2.222   1.183   0.445
 1555SOL    HW2 4684   2.233   1.020   0.441
 1556SOL     OW 4685   2.428   0.537   0.865
 1556SOL    HW1 4686   2.440   0.603   0.791
 1556SOL    HW2 4687   2.474   0.571   0.948
 1557SOL     OW 4688   3.114   1.348   0.388
 1557SOL    HW1 4689   3.164   1.425   0.428
 1557SOL    HW2 4690   3.019   1.350   0.420
 1558SOL     OW 4691   3.134   1.445   1.142
 1558SOL    HW1 4692   3.181   1.458   1.229
 1558SOL    HW2 4693   3.068   1.371   1.151
 1559SOL     OW 4694   3.444   0.639   0.472
 1559SOL    HW1 4695   3.413   0.700   0.545
 1559SOL    HW2 4696   3.494   0.691   0.403
 1560SOL     OW 4697   2.216   1.510   1.329
 1560SOL    HW1 4698   2.195   1.466   1.242
 1560SOL    HW2 4699   2.313   1.536   1.332
 1561SOL     OW 4700   2.264   0.751   1.598
 1561SOL    HW1 4701   2.332   0.806   1.551
 1561SOL    HW2 4702   2.304   0.663   1.625
 1562SOL     OW 4703   3.449   0.779   1.670
 1562SOL    HW1 4704   3.357   0.817   1.665
 1562SOL    HW2 4705   3.509   0.826   1.605
 1563SOL     OW 4706   2.875   0.105   1.770
 1563SOL    HW1 4707   2.881   0.190   1.718
 1563SOL    HW2 4708   2.907   0.029   1.713
 1564SOL     OW 4709   2.366   0.050   1.740
 1564SOL    HW1 4710   2.324  -0.007   1.670
 1564SOL    HW2 4711   2.300   0.119   1.772
 1565SOL     OW 4712   2.435   0.870   1.029
 1565SOL    HW1 4713   2.479   0.959   1.020
 1565SOL    HW2 4714   2.372   0.870   1.106
 1566SOL     OW 4715   3.222   0.862   1.045
 1566SOL    HW1 4716   3.147   0.862   0.979
 1566SOL    HW2 4717   3.259   0.770   1.054
 1567SOL     OW 4718   3.071   0.525   0.275
 1567SOL    HW1 4719   3.084   0.441   0.329
 1567SOL    HW2 4720   3.042   0.599   0.335
 1568SOL     OW 4721   2.169   0.213   1.231
 1568SOL    HW1 4722   2.146   0.250   1.321
 1568SOL    HW2 4723   2.139   0.118   1.225
 1569SOL     OW 4724   1.899   1.310   1.282
 1569SOL    HW1 4725   1.952   1.261   1.350
 1569SOL    HW2 4726   1.921   1.408   1.287
 1570SOL     OW 4727   2.594   0.634   1.064
 1570SOL    HW1 4728   2.653   0.608   0.988
 1570SOL    HW2 4729   2.566   0.730   1.053
 1571SOL     OW 4730   3.590   0.935   1.854
 1571SOL    HW1 4731   3.544   0.928   1.765
 1571SOL    HW2 4732   3.528   0.979   1.920
 1572SOL     OW 4733   2.169   0.063   0.618
 1572SOL    HW1 4734   2.158   0.157   0.651
 1572SOL    HW2 4735   2.164   0.000   0.695
 1573SOL     OW 4736   3.484   0.367   0.374
 1573SOL    HW1 4737   3.486   0.291   0.438
 1573SOL    HW2 4738   3.436   0.444   0.414
 1574SOL     OW 4739   2.885   0.766   0.966
 1574SOL    HW1 4740   2.900   0.787   1.062
 1574SOL    HW2 4741   2.855   0.671   0.957
 1575SOL     OW 4742   2.842   1.573   1.700
 1575SOL    HW1 4743   2.822   1.617   1.612
 1575SOL    HW2 4744   2.881   1.482   1.684
 1576SOL     OW 4745   3.721   1.518   1.605
 1576SOL    HW1 4746   3.735   1.545   1.510
 1576SOL    HW2 4747   3.804   1.540   1.658
 1577SOL     OW 4748   2.212   0.898   1.804
 1577SOL    HW1 4749   2.288   0.942   1.852
 1577SOL    HW2 4750   2.247   0.851   1.722
 1578SOL     OW 4751   3.402   0.274   0.125
 1578SOL    HW1 4752   3.341   0.199   0.148
 1578SOL    HW2 4753   3.424   0.326   0.208
 1579SOL     OW 4754   3.165   0.838   0.042
 1579SOL    HW1 4755   3.199   0.745   0.057
 1579SOL    HW2 4756   3.183   0.865  -0.053
 1580SOL     OW 4757   2.930   1.333   0.849
 1580SOL    HW1 4758   2.937   1.249   0.794
 1580SOL    HW2 4759   2.992   1.402   0.813
 1581SOL     OW 4760   2.181   0.810   0.949
 1581SOL    HW1 4761   2.274   0.846   0.954
 1581SOL    HW2 4762   2.175   0.725   1.001
 1582SOL     OW 4763   2.201   0.509   1.006
 1582SOL    HW1 4764   2.149   0.426   0.989
 1582SOL    HW2 4765   2.278   0.514   0.942
 1583SOL     OW 4766   3.000   0.380   1.678
 1583SOL    HW1 4767   2.955   0.443   1.742
 1583SOL    HW2 4768   3.093   0.411   1.661
 1584SOL     OW 4769   3.022   0.207   1.477
 1584SOL    HW1 4770   3.022   0.271   1.554
 1584SOL    HW2 4771   3.050   0.255   1.394
 1585SOL     OW 4772   1.870   1.326   0.200
 1585SOL    HW1 4773   1.777   1.347   0.169
 1585SOL    HW2 4774   1.880   1.227   0.213
 1586SOL     OW 4775   1.950   1.801   0.927
 1586SOL    HW1 4776   1.908   1.715   0.900
 1586SOL    HW2 4777   2.044   1.804   0.893
 1587SOL     OW 4778   2.366   1.568   0.910
 1587SOL    HW1 4779   2.432   1.642   0.919
 1587SOL    HW2 4780   2.410   1.489   0.868
 1588SOL     OW 4781   2.864   0.796   1.238
 1588SOL    HW1 4782   2.905   0.764   1.324
 1588SOL    HW2 4783   2.768   0.769   1.235
 1589SOL     OW 4784   1.902   0.544   1.114
 1589SOL    HW1 4785   1.987   0.511   1.073
 1589SOL    HW2 4786   1.915   0.559   1.212
 1590SOL     OW 4787   2.051   0.520   1.722
 1590SOL    HW1 4788   2.110   0.480   1.652
 1590SOL    HW2 4789   1.993   0.591   1.681
 1591SOL     OW 4790   3.231   0.950   1.660
 1591SOL    HW1 4791   3.270   1.039   1.680
 1591SOL    HW2 4792   3.241   0.930   1.563
 1592SOL     OW 4793   2.677   0.572   0.325
 1592SOL    HW1 4794   2.684   0.483   0.279
 1592SOL    HW2 4795   2.583   0.606   0.317
 1593SOL     OW 4796   3.519   0.604   1.206
 1593SOL    HW1 4797   3.481   0.535   1.268
 1593SOL    HW2 4798   3.601   0.568   1.162
 1594SOL     OW 4799   2.114   1.564   1.744
 1594SOL    HW1 4800   2.084   1.621   1.820
 1594SOL    HW2 4801   2.107   1.467   1.770
 1595SOL     OW 4802   2.533   0.464   1.269
 1595SOL    HW1 4803   2.499   0.375   1.239
 1595SOL    HW2 4804   2.559   0.518   1.189
 1596SOL     OW 4805   2.792   1.678   1.465
 1596SOL    HW1 4806   2.768   1.660   1.370
 1596SOL    HW2 4807   2.822   1.772   1.475
 1597SOL     OW 4808   2.335   0.500   0.191
 1597SOL    HW1 4809   2.396   0.580   0.195
 1597SOL    HW2 4810   2.240   0.531   0.198
 1598SOL     OW 4811   2.021   1.137   1.466
 1598SOL    HW1 4812   2.043   1.076   1.542
 1598SOL    HW2 4813   2.031   1.088   1.380
 1599SOL     OW 4814   3.209   1.059   1.234
 1599SOL    HW1 4815   3.233   0.996   1.160
 1599SOL    HW2 4816   3.119   1.099   1.216
 1600SOL     OW 4817   3.164   0.855   0.309
 1600SOL    HW1 4818   3.078   0.824   0.351
 1600SOL    HW2 4819   3.160   0.841   0.210
 1601SOL     OW 4820   3.621   1.747   1.154
 1601SOL    HW1 4821   3.682   1.777   1.081
 1601SOL    HW2 4822   3.583   1.658   1.132
 1602SOL     OW 4823   3.114   1.731   1.128
 1602SOL    HW1 4824   3.198   1.736   1.074
 1602SOL    HW2 4825   3.091   1.635   1.146
 1603SOL     OW 4826   1.945   1.258   1.022
 1603SOL    HW1 4827   1.940   1.257   1.122
 1603SOL    HW2 4828   1.862   1.217   0.984
 1604SOL     OW 4829   2.550   1.662   1.716
 1604SOL    HW1 4830   2.494   1.743   1.725
 1604SOL    HW2 4831   2.602   1.666   1.630
 1605SOL     OW 4832   2.765   0.086   0.133
 1605SOL    HW1 4833   2.816   0.087   0.047
 1605SOL    HW2 4834   2.821   0.044   0.204
 1606SOL     OW 4835   3.588   0.135   0.523
 1606SOL    HW1 4836   3.661   0.118   0.456
 1606SOL    HW2 4837   3.557   0.048   0.561
 1607SOL     OW 4838   3.250   1.573   0.477
 1607SOL    HW1 4839   3.317   1.585   0.403
 1607SOL    HW2 4840   3.210   1.662   0.500
 1608SOL     OW 4841   1.992   1.794   1.851
 1608SOL    HW1 4842   1.951   1.720   1.904
 1608SOL    HW2 4843   2.056   1.845   1.909
 1609SOL     OW 4844   3.142   0.927   0.672
 1609SOL    HW1 4845   3.202   0.846   0.674
 1609SOL    HW2 4846   3.182   0.996   0.612
 1610SOL     OW 4847   2.692   1.273   1.422
 1610SOL    HW1 4848   2.687   1.306   1.517
 1610SOL    HW2 4849   2.606   1.292   1.376
 1611SOL     OW 4850   2.534   1.616   0.154
 1611SOL    HW1 4851   2.543   1.626   0.055
 1611SOL    HW2 4852   2.494   1.527   0.175
 1612SOL     OW 4853   3.512   1.720   1.394
 1612SOL    HW1 4854   3.565   1.730   1.310
 1612SOL    HW2 4855   3.485   1.810   1.428
 1613SOL     OW 4856   3.703   0.175   0.963
 1613SOL    HW1 4857   3.742   0.090   0.927
 1613SOL    HW2 4858   3.605   0.177   0.944
 1614SOL     OW 4859   2.125   0.326   0.720
 1614SOL    HW1 4860   2.046   0.377   0.686
 1614SOL    HW2 4861   2.116   0.311   0.818
 1615SOL     OW 4862   3.056   1.612   0.031
 1615SOL    HW1 4863   3.062   1.519   0.068
 1615SOL    HW2 4864   2.997   1.612  -0.049
 1616SOL     OW 4865   2.684   1.002   1.372
 1616SOL    HW1 4866   2.724   1.001   1.280
 1616SOL    HW2 4867   2.694   1.094   1.412
 1617SOL     OW 4868   2.778   0.910   0.291
 1617SOL    HW1 4869   2.841   0.948   0.223
 1617SOL    HW2 4870   2.818   0.827   0.330
 1618SOL     OW 4871   3.366   1.607   0.044
 1618SOL    HW1 4872   3.274   1.644   0.051
 1618SOL    HW2 4873   3.404   1.627  -0.046
 1619SOL     OW 4874   2.234   1.288   1.490
 1619SOL    HW1 4875   2.221   1.381   1.456
 1619SOL    HW2 4876   2.150   1.236   1.477
 1620SOL     OW 4877   3.476   1.292   1.289
 1620SOL    HW1 4878   3.536   1.295   1.369
 1620SOL    HW2 4879   3.401   1.356   1.302
 1621SOL     OW 4880   2.901   1.098   0.696
 1621SOL    HW1 4881   2.831   1.051   0.750
 1621SOL    HW2 4882   2.960   1.030   0.653
 1622SOL     OW 4883   2.876   0.236   0.971
 1622SOL    HW1 4884   2.868   0.200   0.878
 1622SOL    HW2 4885   2.874   0.160   1.036
 1623SOL     OW 4886   2.452   1.487   0.491
 1623SOL    HW1 4887   2.494   1.429   0.421
 1623SOL    HW2 4888   2.408   1.566   0.447
 1624SOL     OW 4889   3.571   0.385   1.381
 1624SOL    HW1 4890   3.644   0.454   1.385
 1624SOL    HW2 4891   3.599   0.310   1.322
 1625SOL     OW 4892   2.117   1.348   0.290
 1625SOL    HW1 4893   2.021   1.349   0.263
 1625SOL    HW2 4894   2.129   1.401   0.374
 1626SOL     OW 4895   1.967   1.013   1.726
 1626SOL    HW1 4896   1.890   0.980   1.780
 1626SOL    HW2 4897   2.052   0.983   1.768
 1627SOL     OW 4898   2.534   0.203   1.489
 1627SOL    HW1 4899   2.624   0.187   1.449
 1627SOL    HW2 4900   2.542   0.208   1.588
 1628SOL     OW 4901   3.302   0.856   1.398
 1628SOL    HW1 4902   3.245   0.908   1.335
 1628SOL    HW2 4903   3.398   0.868   1.374
 1629SOL     OW 4904   1.934   0.166   0.318
 1629SOL    HW1 4905   1.917   0.249   0.264
 1629SOL    HW2 4906   2.024   0.129   0.296
 1630SOL     OW 4907   3.045   1.335   0.119
 1630SOL    HW1 4908   2.946   1.324   0.121
 1630SOL    HW2 4909   3.079   1.350   0.212
 1631SOL     OW 4910   2.475   0.842   1.431
 1631SOL    HW1 4911   2.531   0.923   1.414
 1631SOL    HW2 4912   2.534   0.762   1.434
 1632SOL     OW 4913   3.355   1.767   0.959
 1632SOL    HW1 4914   3.388   1.831   0.890
 1632SOL    HW2 4915   3.421   1.761   1.034
 1633SOL     OW 4916   2.578   0.565   1.708
 1633SOL    HW1 4917   2.597   0.630   1.782
 1633SOL    HW2 4918   2.638   0.485   1.717
 1634SOL     OW 4919   3.312   1.220   1.633
 1634SOL    HW1 4920   3.303   1.210   1.732
 1634SOL    HW2 4921   3.408   1.213   1.607
 1635SOL     OW 4922   2.252   1.741   1.560
 1635SOL    HW1 4923   2.161   1.782   1.558
 1635SOL    HW2 4924   2.245   1.647   1.592
 1636SOL     OW 4925   3.536   0.883   1.254
 1636SOL    HW1 4926   3.509   0.794   1.217
 1636SOL    HW2 4927   3.537   0.951   1.181
 1637SOL     OW 4928   3.087   0.325   0.449
 1637SOL    HW1 4929   3.152   0.251   0.438
 1637SOL    HW2 4930   3.107   0.375   0.533
 1638SOL     OW 4931   2.456   0.745   0.652
 1638SOL    HW1 4932   2.506   0.830   0.633
 1638SOL    HW2 4933   2.368   0.747   0.604
 1639SOL     OW 4934   3.639   0.342   1.642
 1639SOL    HW1 4935   3.622   0.373   1.548
 1639SOL    HW2 4936   3.555   0.305   1.680
 1640SOL     OW 4937   3.592   0.934   1.517
 1640SOL    HW1 4938   3.630   1.025   1.532
 1640SOL    HW2 4939   3.584   0.917   1.418
 1641SOL     OW 4940   2.721   1.374   0.016
 1641SOL    HW1 4941   2.675   1.389   0.104
 1641SOL    HW2 4942   2.765   1.459  -0.014
 1642SOL     OW 4943   2.523   1.790   0.953
 1642SOL    HW1 4944   2.477   1.878   0.940
 1642SOL    HW2 4945   2.622   1.802   0.946
 1643SOL     OW 4946   2.721   0.956   0.861
 1643SOL    HW1 4947   2.775   0.887   0.909
 1643SOL    HW2 4948   2.689   1.025   0.927
 1644SOL     OW 4949   2.945   0.984   0.087
 1644SOL    HW1 4950   2.922   1.037   0.005
 1644SOL    HW2 4951   3.026   0.928   0.068
 1645SOL     OW 4952   3.723   1.569   0.851
 1645SOL    HW1 4953   3.652   1.557   0.781
 1645SOL    HW2 4954   3.724   1.490   0.911
 1646SOL     OW 4955   2.083   1.314   1.844
 1646SOL    HW1 4956   2.018   1.241   1.823
 1646SOL    HW2 4957   2.087   1.328   1.942
 1647SOL     OW 4958   1.941   1.240   0.653
 1647SOL    HW1 4959   1.940   1.193   0.741
 1647SOL    HW2 4960   2.023   1.212   0.602
 1648SOL     OW 4961   2.534   1.391   1.624
 1648SOL    HW1 4962   2.456   1.341   1.662
 1648SOL    HW2 4963   2.531   1.486   1.655
 1649SOL     OW 4964   3.686   0.192   1.227
 1649SOL    HW1 4965   3.682   0.102   1.271
 1649SOL    HW2 4966   3.689   0.181   1.128
 1650SOL     OW 4967   2.290   0.424   0.520
 1650SOL    HW1 4968   2.320   0.352   0.458
 1650SOL    HW2 4969   2.251   0.384   0.603
 1651SOL     OW 4970   3.567   1.487   1.104
 1651SOL    HW1 4971   3.474   1.462   1.077
 1651SOL    HW2 4972   3.593   1.437   1.186
 1652SOL     OW 4973   2.179   0.547   1.280
 1652SOL    HW1 4974   2.217   0.488   1.352
 1652SOL    HW2 4975   2.219   0.521   1.192
 1653SOL     OW 4976   2.674   1.586   0.687
 1653SOL    HW1 4977   2.706   1.596   0.593
 1653SOL    HW2 4978   2.595   1.524   0.689
 1654SOL     OW 4979   3.286   0.214   1.112
 1654SOL    HW1 4980   3.338   0.149   1.167
 1654SOL    HW2 4981   3.237   0.277   1.173
 1655SOL     OW 4982   2.863   0.034   1.154
 1655SOL    HW1 4983   2.800  -0.038   1.123
 1655SOL    HW2 4984   2.956  -0.002   1.154
 1656SOL     OW 4985   2.632   1.330   0.301
 1656SOL    HW1 4986   2.586   1.243   0.318
 1656SOL    HW2 4987   2.723   1.327   0.342
 1657SOL     OW 4988   2.480   1.567   1.284
 1657SOL    HW1 4989   2.475   1.649   1.341
 1657SOL    HW2 4990   2.569   1.564   1.239
 1658SOL     OW 4991   3.214   0.052   0.168
 1658SOL    HW1 4992   3.249   0.011   0.084
 1658SOL    HW2 4993   3.124   0.014   0.188
 1659SOL     OW 4994   3.162   0.453   0.691
 1659SOL    HW1 4995   3.103   0.533   0.695
 1659SOL    HW2 4996   3.177   0.418   0.784
 1660SOL     OW 4997   3.455   0.221   0.882
 1660SOL    HW1 4998   3.371   0.220   0.936
 1660SOL    HW2 4999   3.457   0.304   0.826
 1661SOL     OW 5000   1.901   1.077   0.300
 1661SOL    HW1 5001   2.000   1.066   0.291
 1661SOL    HW2 5002   1.861   0.991   0.332
 1662SOL     OW 5003   2.737   1.646   0.337
 1662SOL    HW1 5004   2.660   1.611   0.283
 1662SOL    HW2 5005   2.705   1.717   0.399
 1663SOL     OW 5006   2.092   0.628   1.975
 1663SOL    HW1 5007   1.999   0.626   2.012
 1663SOL    HW2 5008   2.093   0.589   1.883
 1664SOL     OW 5009   2.087   0.275   2.858
 1664SOL    HW1 5010   2.122   0.258   2.950
 1664SOL    HW2 5011   1.999   0.230   2.846
 1665SOL     OW 5012   1.881   0.368   2.509
 1665SOL    HW1 5013   1.799   0.411   2.548
 1665SOL    HW2 5014   1.853   0.295   2.446
 1666SOL     OW 5015   2.431   1.275   3.027
 1666SOL    HW1 5016   2.338   1.268   2.990
 1666SOL    HW2 5017   2.442   1.364   3.071
 1667SOL     OW 5018   3.417   1.511   2.565
 1667SOL    HW1 5019   3.360   1.495   2.646
 1667SOL    HW2 5020   3.358   1.521   2.485
 1668SOL     OW 5021   2.997   0.703   2.579
 1668SOL    HW1 5022   3.054   0.781   2.554
 1668SOL    HW2 5023   2.937   0.729   2.655
 1669SOL     OW 5024   3.617   0.607   2.093
 1669SOL    HW1 5025   3.605   0.594   1.994
 1669SOL    HW2 5026   3.587   0.526   2.142
 1670SOL     OW 5027   2.630   1.144   2.885
 1670SOL    HW1 5028   2.552   1.161   2.945
 1670SOL    HW2 5029   2.664   1.231   2.849
 1671SOL     OW 5030   2.712   0.798   3.685
 1671SOL    HW1 5031   2.708   0.874   3.750
 1671SOL    HW2 5032   2.734   0.834   3.594
 1672SOL     OW 5033   2.547   1.012   2.527
 1672SOL    HW1 5034   2.616   0.996   2.597
 1672SOL    HW2 5035   2.474   1.069   2.565
 1673SOL     OW 5036   2.548   1.161   3.665
 1673SOL    HW1 5037   2.608   1.240   3.679
 1673SOL    HW2 5038   2.462   1.192   3.624
 1674SOL     OW 5039   2.197   1.435   2.923
 1674SOL    HW1 5040   2.119   1.404   2.870
 1674SOL    HW2 5041   2.255   1.493   2.866
 1675SOL     OW 5042   3.322   1.505   3.201
 1675SOL    HW1 5043   3.346   1.599   3.227
 1675SOL    HW2 5044   3.306   1.451   3.283
 1676SOL     OW 5045   2.300   0.392   3.361
 1676SOL    HW1 5046   2.382   0.336   3.370
 1676SOL    HW2 5047   2.219   0.334   3.365
 1677SOL     OW 5048   3.465   0.447   2.599
 1677SOL    HW1 5049   3.391   0.493   2.549
 1677SOL    HW2 5050   3.516   0.515   2.652
 1678SOL     OW 5051   2.093   1.713   2.345
 1678SOL    HW1 5052   2.127   1.790   2.399
 1678SOL    HW2 5053   2.137   1.713   2.255
 1679SOL     OW 5054   2.989   1.341   3.552
 1679SOL    HW1 5055   3.036   1.341   3.640
 1679SOL    HW2 5056   2.941   1.254   3.541
 1680SOL     OW 5057   2.092   1.434   2.400
 1680SOL    HW1 5058   2.066   1.530   2.400
 1680SOL    HW2 5059   2.021   1.380   2.445
 1681SOL     OW 5060   2.102   1.091   2.748
 1681SOL    HW1 5061   2.116   1.007   2.800
 1681SOL    HW2 5062   2.047   1.155   2.803
 1682SOL     OW 5063   2.482   1.786   3.301
 1682SOL    HW1 5064   2.390   1.769   3.336
 1682SOL    HW2 5065   2.510   1.878   3.327
 1683SOL     OW 5066   2.468   0.964   1.985
 1683SOL    HW1 5067   2.475   1.048   1.931
 1683SOL    HW2 5068   2.514   0.977   2.073
 1684SOL     OW 5069   3.456   0.114   3.342
 1684SOL    HW1 5070   3.438   0.181   3.270
 1684SOL    HW2 5071   3.453   0.160   3.431
 1685SOL     OW 5072   1.984   0.643   2.425
 1685SOL    HW1 5073   1.939   0.555   2.442
 1685SOL    HW2 5074   1.983   0.697   2.509
 1686SOL     OW 5075   3.704   1.767   2.221
 1686SOL    HW1 5076   3.758   1.738   2.301
 1686SOL    HW2 5077   3.734   1.857   2.192
 1687SOL     OW 5078   1.889   1.596   1.979
 1687SOL    HW1 5079   1.870   1.500   2.000
 1687SOL    HW2 5080   1.856   1.654   2.054
 1688SOL     OW 5081   3.551   0.922   2.474
 1688SOL    HW1 5082   3.646   0.893   2.482
 1688SOL    HW2 5083   3.543   0.987   2.399
 1689SOL     OW 5084   3.503   1.108   2.294
 1689SOL    HW1 5085   3.589   1.110   2.242
 1689SOL    HW2 5086   3.517   1.155   2.382
 1690SOL     OW 5087   1.975   0.737   3.459
 1690SOL    HW1 5088   2.063   0.724   3.504
 1690SOL    HW2 5089   1.962   0.834   3.437
 1691SOL     OW 5090   2.475   1.365   2.588
 1691SOL    HW1 5091   2.426   1.278   2.597
 1691SOL    HW2 5092   2.452   1.408   2.501
 1692SOL     OW 5093   3.155   1.228   3.285
 1692SOL    HW1 5094   3.192   1.155   3.227
 1692SOL    HW2 5095   3.207   1.233   3.370
 1693SOL     OW 5096   2.671   0.004   2.364
 1693SOL    HW1 5097   2.711   0.095   2.355
 1693SOL    HW2 5098   2.571   0.012   2.370
 1694SOL     OW 5099   2.059   0.976   3.126
 1694SOL    HW1 5100   2.148   0.931   3.112
 1694SOL    HW2 5101   1.986   0.911   3.107
 1695SOL     OW 5102   3.387   0.999   2.052
 1695SOL    HW1 5103   3.324   0.923   2.065
 1695SOL    HW2 5104   3.435   1.017   2.138
 1696SOL     OW 5105   3.049   1.792   3.478
 1696SOL    HW1 5106   3.073   1.852   3.402
 1696SOL    HW2 5107   3.056   1.697   3.448
 1697SOL     OW 5108   2.179   0.251   3.663
 1697SOL    HW1 5109   2.250   0.322   3.669
 1697SOL    HW2 5110   2.091   0.290   3.691
 1698SOL     OW 5111   3.328   1.417   2.815
 1698SOL    HW1 5112   3.269   1.423   2.895
 1698SOL    HW2 5113   3.313   1.329   2.769
 1699SOL     OW 5114   3.529   1.714   2.434
 1699SOL    HW1 5115   3.488   1.691   2.346
 1699SOL    HW2 5116   3.511   1.640   2.499
 1700SOL     OW 5117   2.460   0.729   2.132
 1700SOL    HW1 5118   2.484   0.798   2.064
 1700SOL    HW2 5119   2.382   0.762   2.186
 1701SOL     OW 5120   3.143   0.345   2.806
 1701SOL    HW1 5121   3.057   0.295   2.793
 1701SOL    HW2 5122   3.205   0.291   2.862
 1702SOL     OW 5123   3.438   1.662   2.169
 1702SOL    HW1 5124   3.527   1.708   2.172
 1702SOL    HW2 5125   3.417   1.638   2.074
 1703SOL     OW 5126   2.669   0.605   3.327
 1703SOL    HW1 5127   2.622   0.602   3.416
 1703SOL    HW2 5128   2.618   0.550   3.261
 1704SOL     OW 5129   3.256   0.469   3.536
 1704SOL    HW1 5130   3.236   0.512   3.624
 1704SOL    HW2 5131   3.334   0.407   3.545
 1705SOL     OW 5132   2.835   0.890   3.434
 1705SOL    HW1 5133   2.881   0.806   3.405
 1705SOL    HW2 5134   2.779   0.924   3.359
 1706SOL     OW 5135   2.853   0.410   3.104
 1706SOL    HW1 5136   2.776   0.444   3.158
 1706SOL    HW2 5137   2.819   0.359   3.025
 1707SOL     OW 5138   2.903   0.701   2.291
 1707SOL    HW1 5139   2.929   0.697   2.387
 1707SOL    HW2 5140   2.818   0.650   2.277
 1708SOL     OW 5141   1.938   0.811   2.651
 1708SOL    HW1 5142   2.037   0.799   2.660
 1708SOL    HW2 5143   1.914   0.906   2.672
 1709SOL     OW 5144   1.992   1.821   3.433
 1709SOL    HW1 5145   1.982   1.806   3.532
 1709SOL    HW2 5146   1.906   1.857   3.397
 1710SOL     OW 5147   2.727   0.348   2.057
 1710SOL    HW1 5148   2.786   0.411   2.008
 1710SOL    HW2 5149   2.746   0.254   2.028
 1711SOL     OW 5150   3.581   0.585   3.693
 1711SOL    HW1 5151   3.555   0.674   3.657
 1711SOL    HW2 5152   3.579   0.517   3.620
 1712SOL     OW 5153   3.224   1.144   2.407
 1712SOL    HW1 5154   3.307   1.115   2.359
 1712SOL    HW2 5155   3.175   1.211   2.351
 1713SOL     OW 5156   2.412   0.196   2.747
 1713SOL    HW1 5157   2.407   0.191   2.847
 1713SOL    HW2 5158   2.414   0.292   2.718
 1714SOL     OW 5159   2.870   1.456   2.339
 1714SOL    HW1 5160   2.824   1.528   2.287
 1714SOL    HW2 5161   2.866   1.476   2.437
 1715SOL     OW 5162   2.213   1.801   2.715
 1715SOL    HW1 5163   2.263   1.715   2.721
 1715SOL    HW2 5164   2.278   1.878   2.712
 1716SOL     OW 5165   3.657   1.066   2.735
 1716SOL    HW1 5166   3.595   1.051   2.659
 1716SOL    HW2 5167   3.605   1.077   2.820
 1717SOL     OW 5168   3.089   1.550   3.368
 1717SOL    HW1 5169   3.095   1.473   3.432
 1717SOL    HW2 5170   3.037   1.524   3.288
 1718SOL     OW 5171   2.183   0.943   2.104
 1718SOL    HW1 5172   2.265   0.982   2.062
 1718SOL    HW2 5173   2.156   0.861   2.055
 1719SOL     OW 5174   3.320   0.735   2.590
 1719SOL    HW1 5175   3.315   0.670   2.665
 1719SOL    HW2 5176   3.400   0.794   2.603
 1720SOL     OW 5177   2.323   1.266   3.589
 1720SOL    HW1 5178   2.273   1.267   3.503
 1720SOL    HW2 5179   2.260   1.248   3.665
 1721SOL     OW 5180   2.973   1.776   2.099
 1721SOL    HW1 5181   2.913   1.714   2.149
 1721SOL    HW2 5182   3.004   1.732   2.014
 1722SOL     OW 5183   2.064   0.285   3.360
 1722SOL    HW1 5184   1.984   0.345   3.347
 1722SOL    HW2 5185   2.054   0.236   3.446
 1723SOL     OW 5186   3.494   1.377   1.943
 1723SOL    HW1 5187   3.462   1.471   1.933
 1723SOL    HW2 5188   3.418   1.314   1.931
 1724SOL     OW 5189   2.326   1.743   2.185
 1724SOL    HW1 5190   2.359   1.782   2.271
 1724SOL    HW2 5191   2.402   1.736   2.120
 1725SOL     OW 5192   3.262   0.107   2.288
 1725SOL    HW1 5193   3.238   0.070   2.198
 1725SOL    HW2 5194   3.361   0.123   2.292
 1726SOL     OW 5195   2.111   1.785   3.103
 1726SOL    HW1 5196   2.168   1.720   3.153
 1726SOL    HW2 5197   2.095   1.752   3.010
 1727SOL     OW 5198   2.802   1.698   2.766
 1727SOL    HW1 5199   2.882   1.641   2.787
 1727SOL    HW2 5200   2.753   1.658   2.689
 1728SOL     OW 5201   2.244   0.700   2.342
 1728SOL    HW1 5202   2.289   0.610   2.339
 1728SOL    HW2 5203   2.150   0.689   2.375
 1729SOL     OW 5204   3.409   0.222   3.591
 1729SOL    HW1 5205   3.404   0.259   3.683
 1729SOL    HW2 5206   3.337   0.153   3.579
 1730SOL     OW 5207   2.476   0.122   1.979
 1730SOL    HW1 5208   2.574   0.100   1.986
 1730SOL    HW2 5209   2.445   0.105   1.886
 1731SOL     OW 5210   2.643   0.264   3.611
 1731SOL    HW1 5211   2.710   0.203   3.654
 1731SOL    HW2 5212   2.570   0.283   3.676
 1732SOL     OW 5213   2.750   1.514   3.057
 1732SOL    HW1 5214   2.727   1.489   2.963
 1732SOL    HW2 5215   2.811   1.445   3.096
 1733SOL     OW 5216   3.213   0.590   3.295
 1733SOL    HW1 5217   3.241   0.547   3.380
 1733SOL    HW2 5218   3.238   0.686   3.296
 1734SOL     OW 5219   2.665   1.402   2.786
 1734SOL    HW1 5220   2.755   1.416   2.744
 1734SOL    HW2 5221   2.594   1.404   2.715
 1735SOL     OW 5222   2.784   0.503   2.761
 1735SOL    HW1 5223   2.759   0.494   2.665
 1735SOL    HW2 5224   2.832   0.421   2.792
 1736SOL     OW 5225   2.401   0.064   2.374
 1736SOL    HW1 5226   2.320   0.065   2.432
 1736SOL    HW2 5227   2.404   0.147   2.319
 1737SOL     OW 5228   3.296   1.188   1.903
 1737SOL    HW1 5229   3.328   1.112   1.960
 1737SOL    HW2 5230   3.204   1.215   1.933
 1738SOL     OW 5231   2.159   0.035   2.033
 1738SOL    HW1 5232   2.208   0.119   2.012
 1738SOL    HW2 5233   2.221  -0.030   2.078
 1739SOL     OW 5234   2.797   0.236   2.342
 1739SOL    HW1 5235   2.749   0.277   2.264
 1739SOL    HW2 5236   2.896   0.234   2.323
 1740SOL     OW 5237   2.938   0.683   3.326
 1740SOL    HW1 5238   2.858   0.622   3.329
 1740SOL    HW2 5239   3.019   0.630   3.302
 1741SOL     OW 5240   3.089   1.570   2.655
 1741SOL    HW1 5241   3.110   1.644   2.590
 1741SOL    HW2 5242   3.157   1.570   2.728
 1742SOL     OW 5243   2.321   1.152   2.603
 1742SOL    HW1 5244   2.250   1.125   2.668
 1742SOL    HW2 5245   2.295   1.124   2.510
 1743SOL     OW 5246   3.133   1.797   2.453
 1743SOL    HW1 5247   3.177   1.861   2.389
 1743SOL    HW2 5248   3.083   1.849   2.523
 1744SOL     OW 5249   2.894   0.549   1.878
 1744SOL    HW1 5250   2.853   0.631   1.839
 1744SOL    HW2 5251   2.958   0.575   1.951
 1745SOL     OW 5252   1.940   0.556   3.248
 1745SOL    HW1 5253   2.032   0.555   3.207
 1745SOL    HW2 5254   1.934   0.630   3.315
 1746SOL     OW 5255   2.423   0.222   3.009
 1746SOL    HW1 5256   2.461   0.138   3.046
 1746SOL    HW2 5257   2.335   0.241   3.053
 1747SOL     OW 5258   2.728   0.454   2.504
 1747SOL    HW1 5259   2.696   0.526   2.442
 1747SOL    HW2 5260   2.752   0.373   2.451
 1748SOL     OW 5261   2.879   0.039   2.615
 1748SOL    HW1 5262   2.807   0.044   2.546
 1748SOL    HW2 5263   2.855  -0.030   2.684
 1749SOL     OW 5264   3.291   1.173   2.729
 1749SOL    HW1 5265   3.236   1.089   2.722
 1749SOL    HW2 5266   3.317   1.202   2.637
 1750SOL     OW 5267   3.328   0.590   2.854
 1750SOL    HW1 5268   3.298   0.495   2.861
 1750SOL    HW2 5269   3.401   0.606   2.920
 1751SOL     OW 5270   3.719   0.833   2.239
 1751SOL    HW1 5271   3.761   0.769   2.303
 1751SOL    HW2 5272   3.681   0.782   2.161
 1752SOL     OW 5273   2.350   1.385   2.036
 1752SOL    HW1 5274   2.263   1.370   2.083
 1752SOL    HW2 5275   2.333   1.411   1.941
 1753SOL     OW 5276   3.526   1.280   2.519
 1753SOL    HW1 5277   3.625   1.288   2.533
 1753SOL    HW2 5278   3.481   1.364   2.550
 1754SOL     OW 5279   3.252   0.575   1.940
 1754SOL    HW1 5280   3.198   0.554   2.021
 1754SOL    HW2 5281   3.343   0.534   1.949
 1755SOL     OW 5282   2.389   0.256   2.190
 1755SOL    HW1 5283   2.416   0.197   2.115
 1755SOL    HW2 5284   2.389   0.351   2.159
 1756SOL     OW 5285   3.616   1.223   3.450
 1756SOL    HW1 5286   3.707   1.184   3.437
 1756SOL    HW2 5287   3.624   1.319   3.474
 1757SOL     OW 5288   2.926   1.347   3.202
 1757SOL    HW1 5289   2.846   1.324   3.257
 1757SOL    HW2 5290   3.009   1.321   3.251
 1758SOL     OW 5291   3.454   1.629   3.487
 1758SOL    HW1 5292   3.481   1.663   3.397
 1758SOL    HW2 5293   3.533   1.591   3.533
 1759SOL     OW 5294   2.973   1.195   2.962
 1759SOL    HW1 5295   2.933   1.239   3.043
 1759SOL    HW2 5296   2.932   1.232   2.879
 1760SOL     OW 5297   3.500   1.099   2.941
 1760SOL    HW1 5298   3.505   1.180   3.000
 1760SOL    HW2 5299   3.414   1.101   2.890
 1761SOL     OW 5300   2.777   0.089   3.264
 1761SOL    HW1 5301   2.802   0.069   3.169
 1761SOL    HW2 5302   2.849   0.145   3.306
 1762SOL     OW 5303   2.842   1.116   3.581
 1762SOL    HW1 5304   2.743   1.122   3.591
 1762SOL    HW2 5305   2.865   1.036   3.525
 1763SOL     OW 5306   2.567   1.050   2.230
 1763SOL    HW1 5307   2.553   1.057   2.329
 1763SOL    HW2 5308   2.651   0.999   2.212
 1764SOL     OW 5309   2.272   0.813   3.113
 1764SOL    HW1 5310   2.358   0.825   3.163
 1764SOL    HW2 5311   2.230   0.726   3.140
 1765SOL     OW 5312   3.136   0.386   3.124
 1765SOL    HW1 5313   3.157   0.460   3.188
 1765SOL    HW2 5314   3.047   0.403   3.081
 1766SOL     OW 5315   1.926   1.564   3.193
 1766SOL    HW1 5316   1.880   1.646   3.159
 1766SOL    HW2 5317   2.024   1.583   3.202
 1767SOL     OW 5318   2.229   1.100   2.363
 1767SOL    HW1 5319   2.222   1.183   2.307
 1767SOL    HW2 5320   2.233   1.020   2.303
 1768SOL     OW 5321   2.428   0.537   2.727
 1768SOL    HW1 5322   2.440   0.603   2.653
 1768SOL    HW2 5323   2.474   0.571   2.810
 1769SOL     OW 5324   3.114   1.348   2.250
 1769SOL    HW1 5325   3.164   1.425   2.290
 1769SOL    HW2 5326   3.019   1.350   2.282
 1770SOL     OW 5327   3.134   1.445   3.004
 1770SOL    HW1 5328   3.181   1.458   3.091
 1770SOL    HW2 5329   3.068   1.371   3.013
 1771SOL     OW 5330   3.444   0.639   2.334
 1771SOL    HW1 5331   3.413   0.700   2.407
 1771SOL    HW2 5332   3.494   0.691   2.265
 1772SOL     OW 5333   2.216   1.510   3.191
 1772SOL    HW1 5334   2.195   1.466   3.104
 1772SOL    HW2 5335   2.313   1.536   3.194
 1773SOL     OW 5336   2.264   0.751   3.460
 1773SOL    HW1 5337   2.332   0.806   3.413
 1773SOL    HW2 5338   2.304   0.663   3.487
 1774SOL     OW 5339   3.449   0.779   3.532
 1774SOL    HW1 5340   3.357   0.817   3.527
 1774SOL    HW2 5341   3.509   0.826   3.467
 1775SOL     OW 5342   2.875   0.105   3.632
 1775SOL    HW1 5343   2.881   0.190   3.580
 1775SOL    HW2 5344   2.907   0.029   3.575
 1776SOL     OW 5345   2.366   0.050   3.602
 1776SOL    HW1 5346   2.324  -0.007   3.532
 1776SOL    HW2 5347   2.300   0.119   3.634
 1777SOL     OW 5348   2.435   0.870   2.891
 1777SOL    HW1 5349   2.479   0.959   2.882
 1777SOL    HW2 5350   2.372   0.870   2.968
 1778SOL     OW 5351   3.222   0.862   2.907
 1778SOL    HW1 5352   3.147   0.862   2.841
 1778SOL    HW2 5353   3.259   0.770   2.916
 1779SOL     OW 5354   3.071   0.525   2.137
 1779SOL    HW1 5355   3.084   0.441   2.191
 1779SOL    HW2 5356   3.042   0.599   2.197
 1780SOL     OW 5357   2.169   0.213   3.093
 1780SOL    HW1 5358   2.146   0.250   3.183
 1780SOL    HW2 5359   2.139   0.118   3.087
 1781SOL     OW 5360   1.899   1.310   3.144
 1781SOL    HW1 5361   1.952   1.261   3.212
 1781SOL    HW2 5362   1.921   1.408   3.149
 1782SOL     OW 5363   2.594   0.634   2.926
 1782SOL    HW1 5364   2.653   0.608   2.850
 1782SOL    HW2 5365   2.566   0.730   2.915
 1783SOL     OW 5366   3.590   0.935   3.716
 1783SOL    HW1 5367   3.544   0.928   3.627
 1783SOL    HW2 5368   3.528   0.979   3.782
 1784SOL     OW 5369   2.169   0.063   2.480
 1784SOL    HW1 5370   2.158   0.157   2.513
 1784SOL    HW2 5371   2.164   0.000   2.557
 1785SOL     OW 5372   3.484   0.367   2.236
 1785SOL    HW1 5373   3.486   0.291   2.300
 1785SOL    HW2 5374   3.436   0.444   2.276
 1786SOL     OW 5375   2.885   0.766   2.828
 1786SOL    HW1 5376   2.900   0.787   2.924
 1786SOL    HW2 5377   2.855   0.671   2.819
 1787SOL     OW 5378   2.842   1.573   3.562
 1787SOL    HW1 5379   2.822   1.617   3.474
 1787SOL    HW2 5380   2.881   1.482   3.546
 1788SOL     OW 5381   3.721   1.518   3.467
 1788SOL    HW1 5382   3.735   1.545   3.372
 1788SOL    HW2 5383   3.804   1.540   3.520
 1789SOL     OW 5384   2.212   0.898   3.666
 1789SOL    HW1 5385   2.288   0.942   3.714
 1789SOL    HW2 5386   2.247   0.851   3.584
 1790SOL     OW 5387   3.402   0.274   1.987
 1790SOL    HW1 5388   3.341   0.199   2.010
 1790SOL    HW2 5389   3.424   0.326   2.070
 1791SOL     OW 5390   3.165   0.838   1.904
 1791SOL    HW1 5391   3.199   0.745   1.919
 1791SOL    HW2 5392   3.183   0.865   1.809
 1792SOL     OW 5393   2.930   1.333   2.711
 1792SOL    HW1 5394   2.937   1.249   2.656
 1792SOL    HW2 5395   2.992   1.402   2.675
 1793SOL     OW 5396   2.181   0.810   2.811
 1793SOL    HW1 5397   2.274   0.846   2.816
 1793SOL    HW2 5398   2.175   0.725   2.863
 1794SOL     OW 5399   2.201   0.509   2.868
 1794SOL    HW1 5400   2.149   0.426   2.851
 1794SOL    HW2 5401   2.278   0.514   2.804
 1795SOL     OW 5402   3.000   0.380   3.540
 1795SOL    HW1 5403   2.955   0.443   3.604
 1795SOL    HW2 5404   3.093   0.411   3.523
 1796SOL     OW 5405   3.022   0.207   3.339
 1796SOL    HW1 5406   3.022   0.271   3.416
 1796SOL    HW2 5407   3.050   0.255   3.256
 1797SOL     OW 5408   1.870   1.326   2.062
 1797SOL    HW1 5409   1.777   1.347   2.031
 1797SOL    HW2 5410   1.880   1.227   2.075
 1798SOL     OW 5411   1.950   1.801   2.789
 1798SOL    HW1 5412   1.908   1.715   2.762
 1798SOL    HW2 5413   2.044   1.804   2.755
 1799SOL     OW 5414   2.366   1.568   2.772
 1799SOL    HW1 5415   2.432   1.642   2.781
 1799SOL    HW2 5416   2.410   1.489   2.730
 1800SOL     OW 5417   2.864   0.796   3.100
 1800SOL    HW1 5418   2.905   0.764   3.186
 1800SOL    HW2 5419   2.768   0.769   3.097
 1801SOL     OW 5420   1.902   0.544   2.976
 1801SOL    HW1 5421   1.987   0.511   2.935
 1801SOL    HW2 5422   1.915   0.559   3.074
 1802SOL     OW 5423   2.051   0.520   3.584
 1802SOL    HW1 5424   2.110   0.480   3.514
 1802SOL    HW2 5425   1.993   0.591   3.543
 1803SOL     OW 5426   3.231   0.950   3.522
 1803SOL    HW1 5427   3.270   1.039   3.542
 1803SOL    HW2 5428   3.241   0.930   3.425
 1804SOL     OW 5429   2.677   0.572   2.187
 1804SOL    HW1 5430   2.684   0.483   2.141
 1804SOL    HW2 5431   2.583   0.606   2.179
 1805SOL     OW 5432   3.519   0.604   3.068
 1805SOL    HW1 5433   3.481   0.535   3.130
 1805SOL    HW2 5434   3.601   0.568   3.024
 1806SOL     OW 5435   2.114   1.564   3.606
 1806SOL    HW1 5436   2.084   1.621   3.682
 1806SOL    HW2 5437   2.107   1.467   3.632
 1807SOL     OW 5438   2.533   0.464   3.131
 1807SOL    HW1 5439   2.499   0.375   3.101
 1807SOL    HW2 5440   2.559   0.518   3.051
 1808SOL     OW 5441   2.792   1.678   3.327
 1808SOL    HW1 5442   2.768   1.660   3.232
 1808SOL    HW2 5443   2.822   1.772   3.337
 1809SOL     OW 5444   2.335   0.500   2.053
 1809SOL    HW1 5445   2.396   0.580   2.057
 1809SOL    HW2 5446   2.240   0.531   2.060
 1810SOL     OW 5447   2.021   1.137   3.328
 1810SOL    HW1 5448   2.043   1.076   3.404
 1810SOL    HW2 5449   2.031   1.088   3.242
 1811SOL     OW 5450   3.209   1.059   3.096
 1811SOL    HW1 5451   3.233   0.996   3.022
 1811SOL    HW2 5452   3.119   1.099   3.078
 1812SOL     OW 5453   3.164   0.855   2.171
 1812SOL    HW1 5454   3.078   0.824   2.213
 1812SOL    HW2 5455   3.160   0.841   2.072
 1813SOL     OW 5456   3.621   1.747   3.016
 1813SOL    HW1 5457   3.682   1.777   2.943
 1813SOL    HW2 5458   3.583   1.658   2.994
 1814SOL     OW 5459   3.114   1.731   2.990
 1814SOL    HW1 5460   3.198   1.736   2.936
 1814SOL    HW2 5461   3.091   1.635   3.008
 1815SOL     OW 5462   1.945   1.258   2.884
 1815SOL    HW1 5463   1.940   1.257   2.984
 1815SOL    HW2 5464   1.862   1.217   2.846
 1816SOL     OW 5465   2.550   1.662   3.578
 1816SOL    HW1 5466   2.494   1.743   3.587
 1816SOL    HW2 5467   2.602   1.666   3.492
 1817SOL     OW 5468   3.588   0.135   2.385
 1817SOL    HW1 5469   3.661   0.118   2.318
 1817SOL    HW2 5470   3.557   0.048   2.423
 1818SOL     OW 5471   3.250   1.573   2.339
 1818SOL    HW1 5472   3.317   1.585   2.265
 1818SOL    HW2 5473   3.210   1.662   2.362
 1819SOL     OW 5474   1.992   1.794   3.713
 1819SOL    HW1 5475   1.951   1.720   3.766
 1819SOL    HW2 5476   2.056   1.845   3.771
 1820SOL     OW 5477   3.142   0.927   2.534
 1820SOL    HW1 5478   3.202   0.846   2.536
 1820SOL    HW2 5479   3.182   0.996   2.474
 1821SOL     OW 5480   2.692   1.273   3.284
 1821SOL    HW1 5481   2.687   1.306   3.379
 1821SOL    HW2 5482   2.606   1.292   3.238
 1822SOL     OW 5483   2.534   1.616   2.016
 1822SOL    HW1 5484   2.543   1.626   1.917
 1822SOL    HW2 5485   2.494   1.527   2.037
 1823SOL     OW 5486   3.512   1.720   3.256
 1823SOL    HW1 5487   3.565   1.730   3.172
 1823SOL    HW2 5488   3.485   1.810   3.290
 1824SOL     OW 5489   3.703   0.175   2.825
 1824SOL    HW1 5490   3.742   0.090   2.789
 1824SOL    HW2 5491   3.605   0.177   2.806
 1825SOL     OW 5492   2.125   0.326   2.582
 1825SOL    HW1 5493   2.046   0.377   2.548
 1825SOL    HW2 5494   2.116   0.311   2.680
 1826SOL     OW 5495   3.056   1.612   1.893
 1826SOL    HW1 5496   3.062   1.519   1.930
 1826SOL    HW2 5497   2.997   1.612   1.813
 1827SOL     OW 5498   2.684   1.002   3.234
 1827SOL    HW1 5499   2.724   1.001   3.142
 1827SOL    HW2 5500   2.694   1.094   3.274
 1828SOL     OW 5501   2.778   0.910   2.153
 1828SOL    HW1 5502   2.841   0.948   2.085
 1828SOL    HW2 5503   2.818   0.827   2.192
 1829SOL     OW 5504   3.366   1.607   1.906
 1829SOL    HW1 5505   3.274   1.644   1.913
 1829SOL    HW2 5506   3.404   1.627   1.816
 1830SOL     OW 5507   2.234   1.288   3.352
 1830SOL    HW1 5508   2.221   1.381   3.318
 1830SOL    HW2 5509   2.150   1.236   3.339
 1831SOL     OW 5510   3.476   1.292   3.151
 1831SOL    HW1 5511   3.536   1.295   3.231
 1831SOL    HW2 5512   3.401   1.356   3.164
 1832SOL     OW 5513   2.901   1.098   2.558
 1832SOL    HW1 5514   2.831   1.051   2.612
 1832SOL    HW2 5515   2.960   1.030   2.515
 1833SOL     OW 5516   2.876   0.236   2.833
 1833SOL    HW1 5517   2.868   0.200   2.740
 1833SOL    HW2 5518   2.874   0.160   2.898
 1834SOL     OW 5519   2.452   1.487   2.353
 1834SOL    HW1 5520   2.494   1.429   2.283
 1834SOL    HW2 5521   2.408   1.566   2.309
 1835SOL     OW 5522   3.571   0.385   3.243
 1835SOL    HW1 5523   3.644   0.454   3.247
 1835SOL    HW2 5524   3.599   0.310   3.184
 1836SOL     OW 5525   2.117   1.348   2.152
 1836SOL    HW1 5526   2.021   1.349   2.125
 1836SOL    HW2 5527   2.129   1.401   2.236
 1837SOL     OW 5528   1.967   1.013   3.588
 1837SOL    HW1 5529   1.890   0.980   3.642
 1837SOL    HW2 5530   2.052   0.983   3.630
 1838SOL     OW 5531   2.534   0.203   3.351
 1838SOL    HW1 5532   2.624   0.187   3.311
 1838SOL    HW2 5533   2.542   0.208   3.450
 1839SOL     OW 5534   1.937   0.345   1.895
 1839SOL    HW1 5535   1.845   0.317   1.866
 1839SOL    HW2 5536   1.968   0.422   1.839
 1840SOL     OW 5537   3.302   0.856   3.260
 1840SOL    HW1 5538   3.245   0.908   3.197
 1840SOL    HW2 5539   3.398   0.868   3.236
 1841SOL     OW 5540   1.934   0.166   2.180
 1841SOL    HW1 5541   1.917   0.249   2.126
 1841SOL    HW2 5542   2.024   0.129   2.158
 1842SOL     OW 5543   3.045   1.335   1.981
 1842SOL    HW1 5544   2.946   1.324   1.983
 1842SOL    HW2 5545   3.079   1.350   2.074
 1843SOL     OW 5546   2.475   0.842   3.293
 1843SOL    HW1 5547   2.531   0.923   3.276
 1843SOL    HW2 5548   2.534   0.762   3.296
 1844SOL     OW 5549   3.355   1.767   2.821
 1844SOL    HW1 5550   3.388   1.831   2.752
 1844SOL    HW2 5551   3.421   1.761   2.896
 1845SOL     OW 5552   2.578   0.565   3.570
 1845SOL    HW1 5553   2.597   0.630   3.644
 1845SOL    HW2 5554   2.638   0.485   3.579
 1846SOL     OW 5555   3.312   1.220   3.495
 1846SOL    HW1 5556   3.303   1.210   3.594
 1846SOL    HW2 5557   3.408   1.213   3.469
 1847SOL     OW 5558   2.252   1.741   3.422
 1847SOL    HW1 5559   2.161   1.782   3.420
 1847SOL    HW2 5560   2.245   1.647   3.454
 1848SOL     OW 5561   3.536   0.883   3.116
 1848SOL    HW1 5562   3.509   0.794   3.079
 1848SOL    HW2 5563   3.537   0.951   3.043
 1849SOL     OW 5564   3.087   0.325   2.311
 1849SOL    HW1 5565   3.152   0.251   2.300
 1849SOL    HW2 5566   3.107   0.375   2.395
 1850SOL     OW 5567   2.456   0.745   2.514
 1850SOL    HW1 5568   2.506   0.830   2.495
 1850SOL    HW2 5569   2.368   0.747   2.466
 1851SOL     OW 5570   3.639   0.342   3.504
 1851SOL    HW1 5571   3.622   0.373   3.410
 1851SOL    HW2 5572   3.555   0.305   3.542
 1852SOL     OW 5573   3.592   0.934   3.379
 1852SOL    HW1 5574   3.630   1.025   3.394
 1852SOL    HW2 5575   3.584   0.917   3.280
 1853SOL     OW 5576   2.721   1.374   1.878
 1853SOL    HW1 5577   2.675   1.389   1.966
 1853SOL    HW2 5578   2.765   1.459   1.848
 1854SOL     OW 5579   2.523   1.790   2.815
 1854SOL    HW1 5580   2.477   1.878   2.802
 1854SOL    HW2 5581   2.622   1.802   2.808
 1855SOL     OW 5582   2.721   0.956   2.723
 1855SOL    HW1 5583   2.775   0.887   2.771
 1855SOL    HW2 5584   2.689   1.025   2.789
 1856SOL     OW 5585   2.945   0.984   1.949
 1856SOL    HW1 5586   2.922   1.037   1.867
 1856SOL    HW2 5587   3.026   0.928   1.930
 1857SOL     OW 5588   3.723   1.569   2.713
 1857SOL    HW1 5589   3.652   1.557   2.643
 1857SOL    HW2 5590   3.724   1.490   2.773
 1858SOL     OW 5591   2.083   1.314   3.706
 1858SOL    HW1 5592   2.018   1.241   3.685
 1858SOL    HW2 5593   2.087   1.328   3.804
 1859SOL     OW 5594   1.941   1.240   2.515
 1859SOL    HW1 5595   1.940   1.193   2.603
 1859SOL    HW2 5596   2.023   1.212   2.464
 1860SOL     OW 5597   2.534   1.391   3.486
 1860SOL    HW1 5598   2.456   1.341   3.524
 1860SOL    HW2 5599   2.531   1.486   3.517
 1861SOL     OW 5600   3.686   0.192   3.089
 1861SOL    HW1 5601   3.682   0.102   3.133
 1861SOL    HW2 5602   3.689   0.181   2.990
 1862SOL     OW 5603   2.290   0.424   2.382
 1862SOL    HW1 5604   2.320   0.352   2.320
 1862SOL    HW2 5605   2.251   0.384   2.465
 1863SOL     OW 5606   3.567   1.487   2.966
 1863SOL    HW1 5607   3.474   1.462   2.939
 1863SOL    HW2 5608   3.593   1.437   3.048
 1864SOL     OW 5609   2.179   0.547   3.142
 1864SOL    HW1 5610   2.217   0.488   3.214
 1864SOL    HW2 5611   2.219   0.521   3.054
 1865SOL     OW 5612   2.674   1.586   2.549
 1865SOL    HW1 5613   2.706   1.596   2.455
 1865SOL    HW2 5614   2.595   1.524   2.551
 1866SOL     OW 5615   3.286   0.214   2.974
 1866SOL    HW1 5616   3.338   0.149   3.029
 1866SOL    HW2 5617   3.237   0.277   3.035
 1867SOL     OW 5618   2.863   0.034   3.016
 1867SOL    HW1 5619   2.800  -0.038   2.985
 1867SOL    HW2 5620   2.956  -0.002   3.016
 1868SOL     OW 5621   2.632   1.330   2.163
 1868SOL    HW1 5622   2.586   1.243   2.180
 1868SOL    HW2 5623   2.723   1.327   2.204
 1869SOL     OW 5624   2.480   1.567   3.146
 1869SOL    HW1 5625   2.475   1.649   3.203
 1869SOL    HW2 5626   2.569   1.564   3.101
 1870SOL     OW 5627   3.214   0.052   2.030
 1870SOL    HW1 5628   3.249   0.011   1.946
 1870SOL    HW2 5629   3.124   0.014   2.050
 1871SOL     OW 5630   3.162   0.453   2.553
 1871SOL    HW1 5631   3.103   0.533   2.557
 1871SOL    HW2 5632   3.177   0.418   2.646
 1872SOL     OW 5633   3.455   0.221   2.744
 1872SOL    HW1 5634   3.371   0.220   2.798
 1872SOL    HW2 5635   3.457   0.304   2.688
 1873SOL     OW 5636   1.901   1.077   2.162
 1873SOL    HW1 5637   2.000   1.066   2.153
 1873SOL    HW2 5638   1.861   0.991   2.194
 1874SOL     OW 5639   2.737   1.646   2.199
 1874SOL    HW1 5640   2.660   1.611   2.145
 1874SOL    HW2 5641   2.705   1.717   2.261
 1875SOL     OW 5642   2.092   0.628   3.837
 1875SOL    HW1 5643   1.999   0.626   3.874
 1875SOL    HW2 5644   2.093   0.589   3.745
 1876SOL     OW 5645   2.087   0.275   4.720
 1876SOL    HW1 5646   2.122   0.258   4.812
 1876SOL    HW2 5647   1.999   0.230   4.708
 1877SOL     OW 5648   1.881   0.368   4.371
 1877SOL    HW1 5649   1.799   0.411   4.410
 1877SOL    HW2 5650   1.853   0.295   4.308
 1878SOL     OW 5651   3.417   1.511   4.427
 1878SOL    HW1 5652   3.360   1.495   4.508
 1878SOL    HW2 5653   3.358   1.521   4.347
 1879SOL     OW 5654   2.997   0.703   4.441
 1879SOL    HW1 5655   3.054   0.781   4.416
 1879SOL    HW2 5656   2.937   0.729   4.517
 1880SOL     OW 5657   3.617   0.607   3.955
 1880SOL    HW1 5658   3.605   0.594   3.856
 1880SOL    HW2 5659   3.587   0.526   4.004
 1881SOL     OW 5660   2.630   1.144   4.747
 1881SOL    HW1 5661   2.552   1.161   4.807
 1881SOL    HW2 5662   2.664   1.231   4.711
 1882SOL     OW 5663   2.547   1.012   4.389
 1882SOL    HW1 5664   2.616   0.996   4.459
 1882SOL    HW2 5665   2.474   1.069   4.427
 1883SOL     OW 5666   2.197   1.435   4.785
 1883SOL    HW1 5667   2.119   1.404   4.732
 1883SOL    HW2 5668   2.255   1.493   4.728
 1884SOL     OW 5669   3.465   0.447   4.461
 1884SOL    HW1 5670   3.391   0.493   4.411
 1884SOL    HW2 5671   3.516   0.515   4.514
 1885SOL     OW 5672   2.093   1.713   4.207
 1885SOL    HW1 5673   2.127   1.790   4.261
 1885SOL    HW2 5674   2.137   1.713   4.117
 1886SOL     OW 5675   2.092   1.434   4.262
 1886SOL    HW1 5676   2.066   1.530   4.262
 1886SOL    HW2 5677   2.021   1.380   4.307
 1887SOL     OW 5678   2.102   1.091   4.610
 1887SOL    HW1 5679   2.116   1.007   4.662
 1887SOL    HW2 5680   2.047   1.155   4.665
 1888SOL     OW 5681   2.468   0.964   3.847
 1888SOL    HW1 5682   2.475   1.048   3.793
 1888SOL    HW2 5683   2.514   0.977   3.935
 1889SOL     OW 5684   1.984   0.643   4.287
 1889SOL    HW1 5685   1.939   0.555   4.304
 1889SOL    HW2 5686   1.983   0.697   4.371
 1890SOL     OW 5687   3.704   1.767   4.083
 1890SOL    HW1 5688   3.758   1.738   4.163
 1890SOL    HW2 5689   3.734   1.857   4.054
 1891SOL     OW 5690   1.889   1.596   3.841
 1891SOL    HW1 5691   1.870   1.500   3.862
 1891SOL    HW2 5692   1.856   1.654   3.916
 1892SOL     OW 5693   3.551   0.922   4.336
 1892SOL    HW1 5694   3.646   0.893   4.344
 1892SOL    HW2 5695   3.543   0.987   4.261
 1893SOL     OW 5696   3.503   1.108   4.156
 1893SOL    HW1 5697   3.589   1.110   4.104
 1893SOL    HW2 5698   3.517   1.155   4.244
 1894SOL     OW 5699   2.475   1.365   4.450
 1894SOL    HW1 5700   2.426   1.278   4.459
 1894SOL    HW2 5701   2.452   1.408   4.363
 1895SOL     OW 5702   2.671   0.004   4.226
 1895SOL    HW1 5703   2.711   0.095   4.217
 1895SOL    HW2 5704   2.571   0.012   4.232
 1896SOL     OW 5705   3.387   0.999   3.914
 1896SOL    HW1 5706   3.324   0.923   3.927
 1896SOL    HW2 5707   3.435   1.017   4.000
 1897SOL     OW 5708   3.328   1.417   4.677
 1897SOL    HW1 5709   3.269   1.423   4.757
 1897SOL    HW2 5710   3.313   1.329   4.631
 1898SOL     OW 5711   3.529   1.714   4.296
 1898SOL    HW1 5712   3.488   1.691   4.208
 1898SOL    HW2 5713   3.511   1.640   4.361
 1899SOL     OW 5714   2.460   0.729   3.994
 1899SOL    HW1 5715   2.484   0.798   3.926
 1899SOL    HW2 5716   2.382   0.762   4.048
 1900SOL     OW 5717   3.143   0.345   4.668
 1900SOL    HW1 5718   3.057   0.295   4.655
 1900SOL    HW2 5719   3.205   0.291   4.724
 1901SOL     OW 5720   3.438   1.662   4.031
 1901SOL    HW1 5721   3.527   1.708   4.034
 1901SOL    HW2 5722   3.417   1.638   3.936
 1902SOL     OW 5723   2.903   0.701   4.153
 1902SOL    HW1 5724   2.929   0.697   4.249
 1902SOL    HW2 5725   2.818   0.650   4.139
 1903SOL     OW 5726   1.938   0.811   4.513
 1903SOL    HW1 5727   2.037   0.799   4.522
 1903SOL    HW2 5728   1.914   0.906   4.534
 1904SOL     OW 5729   2.727   0.348   3.919
 1904SOL    HW1 5730   2.786   0.411   3.870
 1904SOL    HW2 5731   2.746   0.254   3.890
 1905SOL     OW 5732   3.224   1.144   4.269
 1905SOL    HW1 5733   3.307   1.115   4.221
 1905SOL    HW2 5734   3.175   1.211   4.213
 1906SOL     OW 5735   2.412   0.196   4.609
 1906SOL    HW1 5736   2.407   0.191   4.709
 1906SOL    HW2 5737   2.414   0.292   4.580
 1907SOL     OW 5738   2.870   1.456   4.201
 1907SOL    HW1 5739   2.824   1.528   4.149
 1907SOL    HW2 5740   2.866   1.476   4.299
 1908SOL     OW 5741   2.213   1.801   4.577
 1908SOL    HW1 5742   2.263   1.715   4.583
 1908SOL    HW2 5743   2.278   1.878   4.574
 1909SOL     OW 5744   3.657   1.066   4.597
 1909SOL    HW1 5745   3.595   1.051   4.521
 1909SOL    HW2 5746   3.605   1.077   4.682
 1910SOL     OW 5747   2.183   0.943   3.966
 1910SOL    HW1 5748   2.265   0.982   3.924
 1910SOL    HW2 5749   2.156   0.861   3.917
 1911SOL     OW 5750   3.320   0.735   4.452
 1911SOL    HW1 5751   3.315   0.670   4.527
 1911SOL    HW2 5752   3.400   0.794   4.465
 1912SOL     OW 5753   2.973   1.776   3.961
 1912SOL    HW1 5754   2.913   1.714   4.011
 1912SOL    HW2 5755   3.004   1.732   3.876
 1913SOL     OW 5756   3.494   1.377   3.805
 1913SOL    HW1 5757   3.462   1.471   3.795
 1913SOL    HW2 5758   3.418   1.314   3.793
 1914SOL     OW 5759   2.326   1.743   4.047
 1914SOL    HW1 5760   2.359   1.782   4.133
 1914SOL    HW2 5761   2.402   1.736   3.982
 1915SOL     OW 5762   3.262   0.107   4.150
 1915SOL    HW1 5763   3.238   0.070   4.060
 1915SOL    HW2 5764   3.361   0.123   4.154
 1916SOL     OW 5765   2.111   1.785   4.965
 1916SOL    HW1 5766   2.168   1.720   5.015
 1916SOL    HW2 5767   2.095   1.752   4.872
 1917SOL     OW 5768   2.802   1.698   4.628
 1917SOL    HW1 5769   2.882   1.641   4.649
 1917SOL    HW2 5770   2.753   1.658   4.551
 1918SOL     OW 5771   2.244   0.700   4.204
 1918SOL    HW1 5772   2.289   0.610   4.201
 1918SOL    HW2 5773   2.150   0.689   4.237
 1919SOL     OW 5774   2.476   0.122   3.841
 1919SOL    HW1 5775   2.574   0.100   3.848
 1919SOL    HW2 5776   2.445   0.105   3.748
 1920SOL     OW 5777   2.665   1.402   4.648
 1920SOL    HW1 5778   2.755   1.416   4.606
 1920SOL    HW2 5779   2.594   1.404   4.577
 1921SOL     OW 5780   2.784   0.503   4.623
 1921SOL    HW1 5781   2.759   0.494   4.527
 1921SOL    HW2 5782   2.832   0.421   4.654
 1922SOL     OW 5783   2.401   0.064   4.236
 1922SOL    HW1 5784   2.320   0.065   4.294
 1922SOL    HW2 5785   2.404   0.147   4.181
 1923SOL     OW 5786   3.296   1.188   3.765
 1923SOL    HW1 5787   3.328   1.112   3.822
 1923SOL    HW2 5788   3.204   1.215   3.795
 1924SOL     OW 5789   2.159   0.035   3.895
 1924SOL    HW1 5790   2.208   0.119   3.874
 1924SOL    HW2 5791   2.221  -0.030   3.940
 1925SOL     OW 5792   2.797   0.236   4.204
 1925SOL    HW1 5793   2.749   0.277   4.126
 1925SOL    HW2 5794   2.896   0.234   4.185
 1926SOL     OW 5795   3.089   1.570   4.517
 1926SOL    HW1 5796   3.110   1.644   4.452
 1926SOL    HW2 5797   3.157   1.570   4.590
 1927SOL     OW 5798   2.321   1.152   4.465
 1927SOL    HW1 5799   2.250   1.125   4.530
 1927SOL    HW2 5800   2.295   1.124   4.372
 1928SOL     OW 5801   3.133   1.797   4.315
 1928SOL    HW1 5802   3.177   1.861   4.251
 1928SOL    HW2 5803   3.083   1.849   4.385
 1929SOL     OW 5804   2.894   0.549   3.740
 1929SOL    HW1 5805   2.853   0.631   3.701
 1929SOL    HW2 5806   2.958   0.575   3.813
 1930SOL     OW 5807   2.728   0.454   4.366
 1930SOL    HW1 5808   2.696   0.526   4.304
 1930SOL    HW2 5809   2.752   0.373   4.313
 1931SOL     OW 5810   2.879   0.039   4.477
 1931SOL    HW1 5811   2.807   0.044   4.408
 1931SOL    HW2 5812   2.855  -0.030   4.546
 1932SOL     OW 5813   3.291   1.173   4.591
 1932SOL    HW1 5814   3.236   1.089   4.584
 1932SOL    HW2 5815   3.317   1.202   4.499
 1933SOL     OW 5816   3.328   0.590   4.716
 1933SOL    HW1 5817   3.298   0.495   4.723
 1933SOL    HW2 5818   3.401   0.606   4.782
 1934SOL     OW 5819   3.719   0.833   4.101
 1934SOL    HW1 5820   3.761   0.769   4.165
 1934SOL    HW2 5821   3.681   0.782   4.023
 1935SOL     OW 5822   2.350   1.385   3.898
 1935SOL    HW1 5823   2.263   1.370   3.945
 1935SOL    HW2 5824   2.333   1.411   3.803
 1936SOL     OW 5825   3.526   1.280   4.381
 1936SOL    HW1 5826   3.625   1.288   4.395
 1936SOL    HW2 5827   3.481   1.364   4.412
 1937SOL     OW 5828   3.252   0.575   3.802
 1937SOL    HW1 5829   3.198   0.554   3.883
 1937SOL    HW2 5830   3.343   0.534   3.811
 1938SOL     OW 5831   2.389   0.256   4.052
 1938SOL    HW1 5832   2.416   0.197   3.977
 1938SOL    HW2 5833   2.389   0.351   4.021
 1939SOL     OW 5834   3.500   1.099   4.803
 1939SOL    HW1 5835   3.505   1.180   4.862
 1939SOL    HW2 5836   3.414   1.101   4.752
 1940SOL     OW 5837   2.567   1.050   4.092
 1940SOL    HW1 5838   2.553   1.057   4.191
 1940SOL    HW2 5839   2.651   0.999   4.074
 1941SOL     OW 5840   2.272   0.813   4.975
 1941SOL    HW1 5841   2.358   0.825   5.025
 1941SOL    HW2 5842   2.230   0.726   5.002
 1942SOL     OW 5843   2.229   1.100   4.225
 1942SOL    HW1 5844   2.222   1.183   4.169
 1942SOL    HW2 5845   2.233   1.020   4.165
 1943SOL     OW 5846   2.428   0.537   4.589
 1943SOL    HW1 5847   2.440   0.603   4.515
 1943SOL    HW2 5848   2.474   0.571   4.672
 1944SOL     OW 5849   3.114   1.348   4.112
 1944SOL    HW1 5850   3.164   1.425   4.152
 1944SOL    HW2 5851   3.019   1.350   4.144
 1945SOL     OW 5852   3.444   0.639   4.196
 1945SOL    HW1 5853   3.413   0.700   4.269
 1945SOL    HW2 5854   3.494   0.691   4.127
 1946SOL     OW 5855   2.216   1.510   5.053
 1946SOL    HW1 5856   2.195   1.466   4.966
 1946SOL    HW2 5857   2.313   1.536   5.056
 1947SOL     OW 5858   2.435   0.870   4.753
 1947SOL    HW1 5859   2.479   0.959   4.744
 1947SOL    HW2 5860   2.372   0.870   4.830
 1948SOL     OW 5861   3.071   0.525   3.999
 1948SOL    HW1 5862   3.084   0.441   4.053
 1948SOL    HW2 5863   3.042   0.599   4.059
 1949SOL     OW 5864   2.594   0.634   4.788
 1949SOL    HW1 5865   2.653   0.608   4.712
 1949SOL    HW2 5866   2.566   0.730   4.777
 1950SOL     OW 5867   2.169   0.063   4.342
 1950SOL    HW1 5868   2.158   0.157   4.375
 1950SOL    HW2 5869   2.164   0.000   4.419
 1951SOL     OW 5870   3.484   0.367   4.098
 1951SOL    HW1 5871   3.486   0.291   4.162
 1951SOL    HW2 5872   3.436   0.444   4.138
 1952SOL     OW 5873   2.885   0.766   4.690
 1952SOL    HW1 5874   2.900   0.787   4.786
 1952SOL    HW2 5875   2.855   0.671   4.681
 1953SOL     OW 5876   3.402   0.274   3.849
 1953SOL    HW1 5877   3.341   0.199   3.872
 1953SOL    HW2 5878   3.424   0.326   3.932
 1954SOL     OW 5879   3.165   0.838   3.766
 1954SOL    HW1 5880   3.199   0.745   3.781
 1954SOL    HW2 5881   3.183   0.865   3.671
 1955SOL     OW 5882   2.930   1.333   4.573
 1955SOL    HW1 5883   2.937   1.249   4.518
 1955SOL    HW2 5884   2.992   1.402   4.537
 1956SOL     OW 5885   2.181   0.810   4.673
 1956SOL    HW1 5886   2.274   0.846   4.678
 1956SOL    HW2 5887   2.175   0.725   4.725
 1957SOL     OW 5888   2.201   0.509   4.730
 1957SOL    HW1 5889   2.149   0.426   4.713
 1957SOL    HW2 5890   2.278   0.514   4.666
 1958SOL     OW 5891   1.870   1.326   3.924
 1958SOL    HW1 5892   1.777   1.347   3.893
 1958SOL    HW2 5893   1.880   1.227   3.937
 1959SOL     OW 5894   1.950   1.801   4.651
 1959SOL    HW1 5895   1.908   1.715   4.624
 1959SOL    HW2 5896   2.044   1.804   4.617
 1960SOL     OW 5897   2.366   1.568   4.634
 1960SOL    HW1 5898   2.432   1.642   4.643
 1960SOL    HW2 5899   2.410   1.489   4.592
 1961SOL     OW 5900   2.864   0.796   4.962
 1961SOL    HW1 5901   2.905   0.764   5.048
 1961SOL    HW2 5902   2.768   0.769   4.959
 1962SOL     OW 5903   1.902   0.544   4.838
 1962SOL    HW1 5904   1.987   0.511   4.797
 1962SOL    HW2 5905   1.915   0.559   4.936
 1963SOL     OW 5906   2.677   0.572   4.049
 1963SOL    HW1 5907   2.684   0.483   4.003
 1963SOL    HW2 5908   2.583   0.606   4.041
 1964SOL     OW 5909   2.533   0.464   4.993
 1964SOL    HW1 5910   2.499   0.375   4.963
 1964SOL    HW2 5911   2.559   0.518   4.913
 1965SOL     OW 5912   2.335   0.500   3.915
 1965SOL    HW1 5913   2.396   0.580   3.919
 1965SOL    HW2 5914   2.240   0.531   3.922
 1966SOL     OW 5915   3.164   0.855   4.033
 1966SOL    HW1 5916   3.078   0.824   4.075
 1966SOL    HW2 5917   3.160   0.841   3.934
 1967SOL     OW 5918   3.621   1.747   4.878
 1967SOL    HW1 5919   3.682   1.777   4.805
 1967SOL    HW2 5920   3.583   1.658   4.856
 1968SOL     OW 5921   1.945   1.258   4.746
 1968SOL    HW1 5922   1.940   1.257   4.846
 1968SOL    HW2 5923   1.862   1.217   4.708
 1969SOL     OW 5924   3.588   0.135   4.247
 1969SOL    HW1 5925   3.661   0.118   4.180
 1969SOL    HW2 5926   3.557   0.048   4.285
 1970SOL     OW 5927   3.250   1.573   4.201
 1970SOL    HW1 5928   3.317   1.585   4.127
 1970SOL    HW2 5929   3.210   1.662   4.224
 1971SOL     OW 5930   3.142   0.927   4.396
 1971SOL    HW1 5931   3.202   0.846   4.398
 1971SOL    HW2 5932   3.182   0.996   4.336
 1972SOL     OW 5933   2.534   1.616   3.878
 1972SOL    HW1 5934   2.543   1.626   3.779
 1972SOL    HW2 5935   2.494   1.527   3.899
 1973SOL     OW 5936   3.703   0.175   4.687
 1973SOL    HW1 5937   3.742   0.090   4.651
 1973SOL    HW2 5938   3.605   0.177   4.668
 1974SOL     OW 5939   2.125   0.326   4.444
 1974SOL    HW1 5940   2.046   0.377   4.410
 1974SOL    HW2 5941   2.116   0.311   4.542
 1975SOL     OW 5942   3.056   1.612   3.755
 1975SOL    HW1 5943   3.062   1.519   3.792
 1975SOL    HW2 5944   2.997   1.612   3.675
 1976SOL     OW 5945   2.778   0.910   4.015
 1976SOL    HW1 5946   2.841   0.948   3.947
 1976SOL    HW2 5947   2.818   0.827   4.054
 1977SOL     OW 5948   3.366   1.607   3.768
 1977SOL    HW1 5949   3.274   1.644   3.775
 1977SOL    HW2 5950   3.404   1.627   3.678
 1978SOL     OW 5951   2.901   1.098   4.420
 1978SOL    HW1 5952   2.831   1.051   4.474
 1978SOL    HW2 5953   2.960   1.030   4.377
 1979SOL     OW 5954   2.876   0.236   4.695
 1979SOL    HW1 5955   2.868   0.200   4.602
 1979SOL    HW2 5956   2.874   0.160   4.760
 1980SOL     OW 5957   2.452   1.487   4.215
 1980SOL    HW1 5958   2.494   1.429   4.145
 1980SOL    HW2 5959   2.408   1.566   4.171
 1981SOL     OW 5960   2.117   1.348   4.014
 1981SOL    HW1 5961   2.021   1.349   3.987
 1981SOL    HW2 5962   2.129   1.401   4.098
 1982SOL     OW 5963   1.937   0.345   3.757
 1982SOL    HW1 5964   1.845   0.317   3.728
 1982SOL    HW2 5965   1.968   0.422   3.701
 1983SOL     OW 5966   1.934   0.166   4.042
 1983SOL    HW1 5967   1.917   0.249   3.988
 1983SOL    HW2 5968   2.024   0.129   4.020
 1984SOL     OW 5969   3.045   1.335   3.843
 1984SOL    HW1 5970   2.946   1.324   3.845
 1984SOL    HW2 5971   3.079   1.350   3.936
 1985SOL     OW 5972   3.355   1.767   4.683
 1985SOL    HW1 5973   3.388   1.831   4.614
 1985SOL    HW2 5974   3.421   1.761   4.758
 1986SOL     OW 5975   3.536   0.883   4.978
 1986SOL    HW1 5976   3.509   0.794   4.941
 1986SOL    HW2 5977   3.537   0.951   4.905
 1987SOL     OW 5978   3.087   0.325   4.173
 1987SOL    HW1 5979   3.152   0.251   4.162
 1987SOL    HW2 5980   3.107   0.375   4.257
 1988SOL     OW 5981   2.456   0.745   4.376
 1988SOL    HW1 5982   2.506   0.830   4.357
 1988SOL    HW2 5983   2.368   0.747   4.328
 1989SOL     OW 5984   2.721   1.374   3.740
 1989SOL    HW1 5985   2.675   1.389   3.828
 1989SOL    HW2 5986   2.765   1.459   3.710
 1990SOL     OW 5987   2.523   1.790   4.677
 1990SOL    HW1 5988   2.477   1.878   4.664
 1990SOL    HW2 5989   2.622   1.802   4.670
 1991SOL     OW 5990   2.721   0.956   4.585
 1991SOL    HW1 5991   2.775   0.887   4.633
 1991SOL    HW2 5992   2.689   1.025   4.651
 1992SOL     OW 5993   2.945   0.984   3.811
 1992SOL    HW1 5994   2.922   1.037   3.729
 1992SOL    HW2 5995   3.026   0.928   3.792
 1993SOL     OW 5996   3.723   1.569   4.575
 1993SOL    HW1 5997   3.652   1.557   4.505
 1993SOL    HW2 5998   3.724   1.490   4.635
 1994SOL     OW 5999   1.941   1.240   4.377
 1994SOL    HW1 6000   1.940   1.193   4.465
 1994SOL    HW2 6001   2.023   1.212   4.326
 1995SOL     OW 6002   3.686   0.192   4.951
 1995SOL    HW1 6003   3.682   0.102   4.995
 1995SOL    HW2 6004   3.689   0.181   4.852
 1996SOL     OW 6005   2.290   0.424   4.244
 1996SOL    HW1 6006   2.320   0.352   4.182
 1996SOL    HW2 6007   2.251   0.384   4.327
 1997SOL     OW 6008   2.674   1.586   4.411
 1997SOL    HW1 6009   2.706   1.596   4.317
 1997SOL    HW2 6010   2.595   1.524   4.413
 1998SOL     OW 6011   3.286   0.214   4.836
 1998SOL    HW1 6012   3.338   0.149   4.891
 1998SOL    HW2 6013   3.237   0.277   4.897
 1999SOL     OW 6014   2.632   1.330   4.025
 1999SOL    HW1 6015   2.586   1.243   4.042
 1999SOL    HW2 6016   2.723   1.327   4.066
 2000SOL     OW 6017   3.214   0.052   3.892
 2000SOL    HW1 6018   3.249   0.011   3.808
 2000SOL    HW2 6019   3.124   0.014   3.912
 2001SOL     OW 6020   3.162   0.453   4.415
 2001SOL    HW1 6021   3.103   0.533   4.419
 2001SOL    HW2 6022   3.177   0.418   4.508
 2002SOL     OW 6023   3.455   0.221   4.606
 2002SOL    HW1 6024   3.371   0.220   4.660
 2002SOL    HW2 6025   3.457   0.304   4.550
 2003SOL     OW 6026   1.901   1.077   4.024
 2003SOL    HW1 6027   2.000   1.066   4.015
 2003SOL    HW2 6028   1.861   0.991   4.056
 2004SOL     OW 6029   2.737   1.646   4.061
 2004SOL    HW1 6030   2.660   1.611   4.007
 2004SOL    HW2 6031   2.705   1.717   4.123
 2005SOL     OW 6032   2.092   2.490   0.113
 2005SOL    HW1 6033   1.999   2.488   0.150
 2005SOL    HW2 6034   2.093   2.451   0.021
 2006SOL     OW 6035   2.087   2.137   0.996
 2006SOL    HW1 6036   2.122   2.120   1.088
 2006SOL    HW2 6037   1.999   2.092   0.984
 2007SOL     OW 6038   1.881   2.230   0.647
 2007SOL    HW1 6039   1.799   2.273   0.686
 2007SOL    HW2 6040   1.853   2.157   0.584
 2008SOL     OW 6041   2.431   3.137   1.165
 2008SOL    HW1 6042   2.338   3.130   1.128
 2008SOL    HW2 6043   2.442   3.226   1.209
 2009SOL     OW 6044   3.417   3.373   0.703
 2009SOL    HW1 6045   3.360   3.357   0.784
 2009SOL    HW2 6046   3.358   3.383   0.623
 2010SOL     OW 6047   2.997   2.565   0.717
 2010SOL    HW1 6048   3.054   2.643   0.692
 2010SOL    HW2 6049   2.937   2.591   0.793
 2011SOL     OW 6050   3.617   2.469   0.231
 2011SOL    HW1 6051   3.605   2.456   0.132
 2011SOL    HW2 6052   3.587   2.388   0.280
 2012SOL     OW 6053   2.630   3.006   1.023
 2012SOL    HW1 6054   2.552   3.023   1.083
 2012SOL    HW2 6055   2.664   3.093   0.987
 2013SOL     OW 6056   2.712   2.660   1.823
 2013SOL    HW1 6057   2.708   2.736   1.888
 2013SOL    HW2 6058   2.734   2.696   1.732
 2014SOL     OW 6059   2.547   2.874   0.665
 2014SOL    HW1 6060   2.616   2.858   0.735
 2014SOL    HW2 6061   2.474   2.931   0.703
 2015SOL     OW 6062   2.548   3.023   1.803
 2015SOL    HW1 6063   2.608   3.102   1.817
 2015SOL    HW2 6064   2.462   3.054   1.762
 2016SOL     OW 6065   2.197   3.297   1.061
 2016SOL    HW1 6066   2.119   3.266   1.008
 2016SOL    HW2 6067   2.255   3.355   1.004
 2017SOL     OW 6068   3.322   3.367   1.339
 2017SOL    HW1 6069   3.346   3.461   1.365
 2017SOL    HW2 6070   3.306   3.313   1.421
 2018SOL     OW 6071   2.300   2.254   1.499
 2018SOL    HW1 6072   2.382   2.198   1.508
 2018SOL    HW2 6073   2.219   2.196   1.503
 2019SOL     OW 6074   3.465   2.309   0.737
 2019SOL    HW1 6075   3.391   2.355   0.687
 2019SOL    HW2 6076   3.516   2.377   0.790
 2020SOL     OW 6077   2.093   3.575   0.483
 2020SOL    HW1 6078   2.127   3.652   0.537
 2020SOL    HW2 6079   2.137   3.575   0.393
 2021SOL     OW 6080   2.989   3.203   1.690
 2021SOL    HW1 6081   3.036   3.203   1.778
 2021SOL    HW2 6082   2.941   3.116   1.679
 2022SOL     OW 6083   2.092   3.296   0.538
 2022SOL    HW1 6084   2.066   3.392   0.538
 2022SOL    HW2 6085   2.021   3.242   0.583
 2023SOL     OW 6086   2.102   2.953   0.886
 2023SOL    HW1 6087   2.116   2.869   0.938
 2023SOL    HW2 6088   2.047   3.017   0.941
 2024SOL     OW 6089   2.482   3.648   1.439
 2024SOL    HW1 6090   2.390   3.631   1.474
 2024SOL    HW2 6091   2.510   3.740   1.465
 2025SOL     OW 6092   2.468   2.826   0.123
 2025SOL    HW1 6093   2.475   2.910   0.069
 2025SOL    HW2 6094   2.514   2.839   0.211
 2026SOL     OW 6095   3.456   1.976   1.480
 2026SOL    HW1 6096   3.438   2.043   1.408
 2026SOL    HW2 6097   3.453   2.022   1.569
 2027SOL     OW 6098   1.984   2.505   0.563
 2027SOL    HW1 6099   1.939   2.417   0.580
 2027SOL    HW2 6100   1.983   2.559   0.647
 2028SOL     OW 6101   3.704   3.629   0.359
 2028SOL    HW1 6102   3.758   3.600   0.439
 2028SOL    HW2 6103   3.734   3.719   0.330
 2029SOL     OW 6104   1.889   3.458   0.117
 2029SOL    HW1 6105   1.870   3.362   0.138
 2029SOL    HW2 6106   1.856   3.516   0.192
 2030SOL     OW 6107   3.551   2.784   0.612
 2030SOL    HW1 6108   3.646   2.755   0.620
 2030SOL    HW2 6109   3.543   2.849   0.537
 2031SOL     OW 6110   3.503   2.970   0.432
 2031SOL    HW1 6111   3.589   2.972   0.380
 2031SOL    HW2 6112   3.517   3.017   0.520
 2032SOL     OW 6113   1.975   2.599   1.597
 2032SOL    HW1 6114   2.063   2.586   1.642
 2032SOL    HW2 6115   1.962   2.696   1.575
 2033SOL     OW 6116   2.475   3.227   0.726
 2033SOL    HW1 6117   2.426   3.140   0.735
 2033SOL    HW2 6118   2.452   3.270   0.639
 2034SOL     OW 6119   3.155   3.090   1.423
 2034SOL    HW1 6120   3.192   3.017   1.365
 2034SOL    HW2 6121   3.207   3.095   1.508
 2035SOL     OW 6122   2.671   1.866   0.502
 2035SOL    HW1 6123   2.711   1.957   0.493
 2035SOL    HW2 6124   2.571   1.874   0.508
 2036SOL     OW 6125   2.059   2.838   1.264
 2036SOL    HW1 6126   2.148   2.793   1.250
 2036SOL    HW2 6127   1.986   2.773   1.245
 2037SOL     OW 6128   3.387   2.861   0.190
 2037SOL    HW1 6129   3.324   2.785   0.203
 2037SOL    HW2 6130   3.435   2.879   0.276
 2038SOL     OW 6131   3.049   3.654   1.616
 2038SOL    HW1 6132   3.073   3.714   1.540
 2038SOL    HW2 6133   3.056   3.559   1.586
 2039SOL     OW 6134   2.179   2.113   1.801
 2039SOL    HW1 6135   2.250   2.184   1.807
 2039SOL    HW2 6136   2.091   2.152   1.829
 2040SOL     OW 6137   3.328   3.279   0.953
 2040SOL    HW1 6138   3.269   3.285   1.033
 2040SOL    HW2 6139   3.313   3.191   0.907
 2041SOL     OW 6140   3.529   3.576   0.572
 2041SOL    HW1 6141   3.488   3.553   0.484
 2041SOL    HW2 6142   3.511   3.502   0.637
 2042SOL     OW 6143   2.460   2.591   0.270
 2042SOL    HW1 6144   2.484   2.660   0.202
 2042SOL    HW2 6145   2.382   2.624   0.324
 2043SOL     OW 6146   3.143   2.207   0.944
 2043SOL    HW1 6147   3.057   2.157   0.931
 2043SOL    HW2 6148   3.205   2.153   1.000
 2044SOL     OW 6149   3.438   3.524   0.307
 2044SOL    HW1 6150   3.527   3.570   0.310
 2044SOL    HW2 6151   3.417   3.500   0.212
 2045SOL     OW 6152   2.669   2.467   1.465
 2045SOL    HW1 6153   2.622   2.464   1.554
 2045SOL    HW2 6154   2.618   2.412   1.399
 2046SOL     OW 6155   3.256   2.331   1.674
 2046SOL    HW1 6156   3.236   2.374   1.762
 2046SOL    HW2 6157   3.334   2.269   1.683
 2047SOL     OW 6158   2.835   2.752   1.572
 2047SOL    HW1 6159   2.881   2.668   1.543
 2047SOL    HW2 6160   2.779   2.786   1.497
 2048SOL     OW 6161   2.853   2.272   1.242
 2048SOL    HW1 6162   2.776   2.306   1.296
 2048SOL    HW2 6163   2.819   2.221   1.163
 2049SOL     OW 6164   2.903   2.563   0.429
 2049SOL    HW1 6165   2.929   2.559   0.525
 2049SOL    HW2 6166   2.818   2.512   0.415
 2050SOL     OW 6167   1.938   2.673   0.789
 2050SOL    HW1 6168   2.037   2.661   0.798
 2050SOL    HW2 6169   1.914   2.768   0.810
 2051SOL     OW 6170   1.992   3.683   1.571
 2051SOL    HW1 6171   1.982   3.668   1.670
 2051SOL    HW2 6172   1.906   3.719   1.535
 2052SOL     OW 6173   2.727   2.210   0.195
 2052SOL    HW1 6174   2.786   2.273   0.146
 2052SOL    HW2 6175   2.746   2.116   0.166
 2053SOL     OW 6176   3.581   2.447   1.831
 2053SOL    HW1 6177   3.555   2.536   1.795
 2053SOL    HW2 6178   3.579   2.379   1.758
 2054SOL     OW 6179   3.224   3.006   0.545
 2054SOL    HW1 6180   3.307   2.977   0.497
 2054SOL    HW2 6181   3.175   3.073   0.489
 2055SOL     OW 6182   2.412   2.058   0.885
 2055SOL    HW1 6183   2.407   2.053   0.985
 2055SOL    HW2 6184   2.414   2.154   0.856
 2056SOL     OW 6185   2.870   3.318   0.477
 2056SOL    HW1 6186   2.824   3.390   0.425
 2056SOL    HW2 6187   2.866   3.338   0.575
 2057SOL     OW 6188   2.213   3.663   0.853
 2057SOL    HW1 6189   2.263   3.577   0.859
 2057SOL    HW2 6190   2.278   3.740   0.850
 2058SOL     OW 6191   3.657   2.928   0.873
 2058SOL    HW1 6192   3.595   2.913   0.797
 2058SOL    HW2 6193   3.605   2.939   0.958
 2059SOL     OW 6194   3.089   3.412   1.506
 2059SOL    HW1 6195   3.095   3.335   1.570
 2059SOL    HW2 6196   3.037   3.386   1.426
 2060SOL     OW 6197   2.183   2.805   0.242
 2060SOL    HW1 6198   2.265   2.844   0.200
 2060SOL    HW2 6199   2.156   2.723   0.193
 2061SOL     OW 6200   3.320   2.597   0.728
 2061SOL    HW1 6201   3.315   2.532   0.803
 2061SOL    HW2 6202   3.400   2.656   0.741
 2062SOL     OW 6203   2.323   3.128   1.727
 2062SOL    HW1 6204   2.273   3.129   1.641
 2062SOL    HW2 6205   2.260   3.110   1.803
 2063SOL     OW 6206   2.973   3.638   0.237
 2063SOL    HW1 6207   2.913   3.576   0.287
 2063SOL    HW2 6208   3.004   3.594   0.152
 2064SOL     OW 6209   2.064   2.147   1.498
 2064SOL    HW1 6210   1.984   2.207   1.485
 2064SOL    HW2 6211   2.054   2.098   1.584
 2065SOL     OW 6212   3.494   3.239   0.081
 2065SOL    HW1 6213   3.462   3.333   0.071
 2065SOL    HW2 6214   3.418   3.176   0.069
 2066SOL     OW 6215   2.326   3.605   0.323
 2066SOL    HW1 6216   2.359   3.644   0.409
 2066SOL    HW2 6217   2.402   3.598   0.258
 2067SOL     OW 6218   3.262   1.969   0.426
 2067SOL    HW1 6219   3.238   1.932   0.336
 2067SOL    HW2 6220   3.361   1.985   0.430
 2068SOL     OW 6221   2.111   3.647   1.241
 2068SOL    HW1 6222   2.168   3.582   1.291
 2068SOL    HW2 6223   2.095   3.614   1.148
 2069SOL     OW 6224   2.802   3.560   0.904
 2069SOL    HW1 6225   2.882   3.503   0.925
 2069SOL    HW2 6226   2.753   3.520   0.827
 2070SOL     OW 6227   2.244   2.562   0.480
 2070SOL    HW1 6228   2.289   2.472   0.477
 2070SOL    HW2 6229   2.150   2.551   0.513
 2071SOL     OW 6230   3.409   2.084   1.729
 2071SOL    HW1 6231   3.404   2.121   1.821
 2071SOL    HW2 6232   3.337   2.015   1.717
 2072SOL     OW 6233   2.476   1.984   0.117
 2072SOL    HW1 6234   2.574   1.962   0.124
 2072SOL    HW2 6235   2.445   1.967   0.024
 2073SOL     OW 6236   2.643   2.126   1.749
 2073SOL    HW1 6237   2.710   2.065   1.792
 2073SOL    HW2 6238   2.570   2.145   1.814
 2074SOL     OW 6239   2.750   3.376   1.195
 2074SOL    HW1 6240   2.727   3.351   1.101
 2074SOL    HW2 6241   2.811   3.307   1.234
 2075SOL     OW 6242   3.213   2.452   1.433
 2075SOL    HW1 6243   3.241   2.409   1.518
 2075SOL    HW2 6244   3.238   2.548   1.434
 2076SOL     OW 6245   2.665   3.264   0.924
 2076SOL    HW1 6246   2.755   3.278   0.882
 2076SOL    HW2 6247   2.594   3.266   0.853
 2077SOL     OW 6248   2.784   2.365   0.899
 2077SOL    HW1 6249   2.759   2.356   0.803
 2077SOL    HW2 6250   2.832   2.283   0.930
 2078SOL     OW 6251   2.401   1.926   0.512
 2078SOL    HW1 6252   2.320   1.927   0.570
 2078SOL    HW2 6253   2.404   2.009   0.457
 2079SOL     OW 6254   3.296   3.050   0.041
 2079SOL    HW1 6255   3.328   2.974   0.098
 2079SOL    HW2 6256   3.204   3.077   0.071
 2080SOL     OW 6257   2.797   2.098   0.480
 2080SOL    HW1 6258   2.749   2.139   0.402
 2080SOL    HW2 6259   2.896   2.096   0.461
 2081SOL     OW 6260   2.938   2.545   1.464
 2081SOL    HW1 6261   2.858   2.484   1.467
 2081SOL    HW2 6262   3.019   2.492   1.440
 2082SOL     OW 6263   3.089   3.432   0.793
 2082SOL    HW1 6264   3.110   3.506   0.728
 2082SOL    HW2 6265   3.157   3.432   0.866
 2083SOL     OW 6266   2.321   3.014   0.741
 2083SOL    HW1 6267   2.250   2.987   0.806
 2083SOL    HW2 6268   2.295   2.986   0.648
 2084SOL     OW 6269   3.133   3.659   0.591
 2084SOL    HW1 6270   3.177   3.723   0.527
 2084SOL    HW2 6271   3.083   3.711   0.661
 2085SOL     OW 6272   2.894   2.411   0.016
 2085SOL    HW1 6273   2.853   2.493  -0.023
 2085SOL    HW2 6274   2.958   2.437   0.089
 2086SOL     OW 6275   1.940   2.418   1.386
 2086SOL    HW1 6276   2.032   2.417   1.345
 2086SOL    HW2 6277   1.934   2.492   1.453
 2087SOL     OW 6278   2.423   2.084   1.147
 2087SOL    HW1 6279   2.461   2.000   1.184
 2087SOL    HW2 6280   2.335   2.103   1.191
 2088SOL     OW 6281   2.728   2.316   0.642
 2088SOL    HW1 6282   2.696   2.388   0.580
 2088SOL    HW2 6283   2.752   2.235   0.589
 2089SOL     OW 6284   2.879   1.901   0.753
 2089SOL    HW1 6285   2.807   1.906   0.684
 2089SOL    HW2 6286   2.855   1.832   0.822
 2090SOL     OW 6287   3.291   3.035   0.867
 2090SOL    HW1 6288   3.236   2.951   0.860
 2090SOL    HW2 6289   3.317   3.064   0.775
 2091SOL     OW 6290   3.328   2.452   0.992
 2091SOL    HW1 6291   3.298   2.357   0.999
 2091SOL    HW2 6292   3.401   2.468   1.058
 2092SOL     OW 6293   3.719   2.695   0.377
 2092SOL    HW1 6294   3.761   2.631   0.441
 2092SOL    HW2 6295   3.681   2.644   0.299
 2093SOL     OW 6296   2.350   3.247   0.174
 2093SOL    HW1 6297   2.263   3.232   0.221
 2093SOL    HW2 6298   2.333   3.273   0.079
 2094SOL     OW 6299   3.526   3.142   0.657
 2094SOL    HW1 6300   3.625   3.150   0.671
 2094SOL    HW2 6301   3.481   3.226   0.688
 2095SOL     OW 6302   3.252   2.437   0.078
 2095SOL    HW1 6303   3.198   2.416   0.159
 2095SOL    HW2 6304   3.343   2.396   0.087
 2096SOL     OW 6305   2.389   2.118   0.328
 2096SOL    HW1 6306   2.416   2.059   0.253
 2096SOL    HW2 6307   2.389   2.213   0.297
 2097SOL     OW 6308   3.616   3.085   1.588
 2097SOL    HW1 6309   3.707   3.046   1.575
 2097SOL    HW2 6310   3.624   3.181   1.612
 2098SOL     OW 6311   2.926   3.209   1.340
 2098SOL    HW1 6312   2.846   3.186   1.395
 2098SOL    HW2 6313   3.009   3.183   1.389
 2099SOL     OW 6314   3.454   3.491   1.625
 2099SOL    HW1 6315   3.481   3.525   1.535
 2099SOL    HW2 6316   3.533   3.453   1.671
 2100SOL     OW 6317   2.973   3.057   1.100
 2100SOL    HW1 6318   2.933   3.101   1.181
 2100SOL    HW2 6319   2.932   3.094   1.017
 2101SOL     OW 6320   3.500   2.961   1.079
 2101SOL    HW1 6321   3.505   3.042   1.138
 2101SOL    HW2 6322   3.414   2.963   1.028
 2102SOL     OW 6323   2.777   1.951   1.402
 2102SOL    HW1 6324   2.802   1.931   1.307
 2102SOL    HW2 6325   2.849   2.007   1.444
 2103SOL     OW 6326   2.842   2.978   1.719
 2103SOL    HW1 6327   2.743   2.984   1.729
 2103SOL    HW2 6328   2.865   2.898   1.663
 2104SOL     OW 6329   2.567   2.912   0.368
 2104SOL    HW1 6330   2.553   2.919   0.467
 2104SOL    HW2 6331   2.651   2.861   0.350
 2105SOL     OW 6332   2.272   2.675   1.251
 2105SOL    HW1 6333   2.358   2.687   1.301
 2105SOL    HW2 6334   2.230   2.588   1.278
 2106SOL     OW 6335   3.136   2.248   1.262
 2106SOL    HW1 6336   3.157   2.322   1.326
 2106SOL    HW2 6337   3.047   2.265   1.219
 2107SOL     OW 6338   1.926   3.426   1.331
 2107SOL    HW1 6339   1.880   3.508   1.297
 2107SOL    HW2 6340   2.024   3.445   1.340
 2108SOL     OW 6341   2.229   2.962   0.501
 2108SOL    HW1 6342   2.222   3.045   0.445
 2108SOL    HW2 6343   2.233   2.882   0.441
 2109SOL     OW 6344   2.428   2.399   0.865
 2109SOL    HW1 6345   2.440   2.465   0.791
 2109SOL    HW2 6346   2.474   2.433   0.948
 2110SOL     OW 6347   3.114   3.210   0.388
 2110SOL    HW1 6348   3.164   3.287   0.428
 2110SOL    HW2 6349   3.019   3.212   0.420
 2111SOL     OW 6350   3.134   3.307   1.142
 2111SOL    HW1 6351   3.181   3.320   1.229
 2111SOL    HW2 6352   3.068   3.233   1.151
 2112SOL     OW 6353   3.444   2.501   0.472
 2112SOL    HW1 6354   3.413   2.562   0.545
 2112SOL    HW2 6355   3.494   2.553   0.403
 2113SOL     OW 6356   2.216   3.372   1.329
 2113SOL    HW1 6357   2.195   3.328   1.242
 2113SOL    HW2 6358   2.313   3.398   1.332
 2114SOL     OW 6359   2.264   2.613   1.598
 2114SOL    HW1 6360   2.332   2.668   1.551
 2114SOL    HW2 6361   2.304   2.525   1.625
 2115SOL     OW 6362   3.449   2.641   1.670
 2115SOL    HW1 6363   3.357   2.679   1.665
 2115SOL    HW2 6364   3.509   2.688   1.605
 2116SOL     OW 6365   2.875   1.967   1.770
 2116SOL    HW1 6366   2.881   2.052   1.718
 2116SOL    HW2 6367   2.907   1.891   1.713
 2117SOL     OW 6368   2.366   1.912   1.740
 2117SOL    HW1 6369   2.324   1.855   1.670
 2117SOL    HW2 6370   2.300   1.981   1.772
 2118SOL     OW 6371   2.435   2.732   1.029
 2118SOL    HW1 6372   2.479   2.821   1.020
 2118SOL    HW2 6373   2.372   2.732   1.106
 2119SOL     OW 6374   3.222   2.724   1.045
 2119SOL    HW1 6375   3.147   2.724   0.979
 2119SOL    HW2 6376   3.259   2.632   1.054
 2120SOL     OW 6377   3.071   2.387   0.275
 2120SOL    HW1 6378   3.084   2.303   0.329
 2120SOL    HW2 6379   3.042   2.461   0.335
 2121SOL     OW 6380   2.169   2.075   1.231
 2121SOL    HW1 6381   2.146   2.112   1.321
 2121SOL    HW2 6382   2.139   1.980   1.225
 2122SOL     OW 6383   1.899   3.172   1.282
 2122SOL    HW1 6384   1.952   3.123   1.350
 2122SOL    HW2 6385   1.921   3.270   1.287
 2123SOL     OW 6386   2.594   2.496   1.064
 2123SOL    HW1 6387   2.653   2.470   0.988
 2123SOL    HW2 6388   2.566   2.592   1.053
 2124SOL     OW 6389   3.590   2.797   1.854
 2124SOL    HW1 6390   3.544   2.790   1.765
 2124SOL    HW2 6391   3.528   2.841   1.920
 2125SOL     OW 6392   2.169   1.925   0.618
 2125SOL    HW1 6393   2.158   2.019   0.651
 2125SOL    HW2 6394   2.164   1.862   0.695
 2126SOL     OW 6395   3.484   2.229   0.374
 2126SOL    HW1 6396   3.486   2.153   0.438
 2126SOL    HW2 6397   3.436   2.306   0.414
 2127SOL     OW 6398   2.885   2.628   0.966
 2127SOL    HW1 6399   2.900   2.649   1.062
 2127SOL    HW2 6400   2.855   2.533   0.957
 2128SOL     OW 6401   2.842   3.435   1.700
 2128SOL    HW1 6402   2.822   3.479   1.612
 2128SOL    HW2 6403   2.881   3.344   1.684
 2129SOL     OW 6404   3.721   3.380   1.605
 2129SOL    HW1 6405   3.735   3.407   1.510
 2129SOL    HW2 6406   3.804   3.402   1.658
 2130SOL     OW 6407   2.212   2.760   1.804
 2130SOL    HW1 6408   2.288   2.804   1.852
 2130SOL    HW2 6409   2.247   2.713   1.722
 2131SOL     OW 6410   3.402   2.136   0.125
 2131SOL    HW1 6411   3.341   2.061   0.148
 2131SOL    HW2 6412   3.424   2.188   0.208
 2132SOL     OW 6413   3.165   2.700   0.042
 2132SOL    HW1 6414   3.199   2.607   0.057
 2132SOL    HW2 6415   3.183   2.727  -0.053
 2133SOL     OW 6416   2.930   3.195   0.849
 2133SOL    HW1 6417   2.937   3.111   0.794
 2133SOL    HW2 6418   2.992   3.264   0.813
 2134SOL     OW 6419   2.181   2.672   0.949
 2134SOL    HW1 6420   2.274   2.708   0.954
 2134SOL    HW2 6421   2.175   2.587   1.001
 2135SOL     OW 6422   2.201   2.371   1.006
 2135SOL    HW1 6423   2.149   2.288   0.989
 2135SOL    HW2 6424   2.278   2.376   0.942
 2136SOL     OW 6425   3.000   2.242   1.678
 2136SOL    HW1 6426   2.955   2.305   1.742
 2136SOL    HW2 6427   3.093   2.273   1.661
 2137SOL     OW 6428   3.022   2.069   1.477
 2137SOL    HW1 6429   3.022   2.133   1.554
 2137SOL    HW2 6430   3.050   2.117   1.394
 2138SOL     OW 6431   1.870   3.188   0.200
 2138SOL    HW1 6432   1.777   3.209   0.169
 2138SOL    HW2 6433   1.880   3.089   0.213
 2139SOL     OW 6434   1.950   3.663   0.927
 2139SOL    HW1 6435   1.908   3.577   0.900
 2139SOL    HW2 6436   2.044   3.666   0.893
 2140SOL     OW 6437   2.366   3.430   0.910
 2140SOL    HW1 6438   2.432   3.504   0.919
 2140SOL    HW2 6439   2.410   3.351   0.868
 2141SOL     OW 6440   2.864   2.658   1.238
 2141SOL    HW1 6441   2.905   2.626   1.324
 2141SOL    HW2 6442   2.768   2.631   1.235
 2142SOL     OW 6443   1.902   2.406   1.114
 2142SOL    HW1 6444   1.987   2.373   1.073
 2142SOL    HW2 6445   1.915   2.421   1.212
 2143SOL     OW 6446   2.051   2.382   1.722
 2143SOL    HW1 6447   2.110   2.342   1.652
 2143SOL    HW2 6448   1.993   2.453   1.681
 2144SOL     OW 6449   3.231   2.812   1.660
 2144SOL    HW1 6450   3.270   2.901   1.680
 2144SOL    HW2 6451   3.241   2.792   1.563
 2145SOL     OW 6452   2.677   2.434   0.325
 2145SOL    HW1 6453   2.684   2.345   0.279
 2145SOL    HW2 6454   2.583   2.468   0.317
 2146SOL     OW 6455   3.519   2.466   1.206
 2146SOL    HW1 6456   3.481   2.397   1.268
 2146SOL    HW2 6457   3.601   2.430   1.162
 2147SOL     OW 6458   2.114   3.426   1.744
 2147SOL    HW1 6459   2.084   3.483   1.820
 2147SOL    HW2 6460   2.107   3.329   1.770
 2148SOL     OW 6461   2.533   2.326   1.269
 2148SOL    HW1 6462   2.499   2.237   1.239
 2148SOL    HW2 6463   2.559   2.380   1.189
 2149SOL     OW 6464   2.792   3.540   1.465
 2149SOL    HW1 6465   2.768   3.522   1.370
 2149SOL    HW2 6466   2.822   3.634   1.475
 2150SOL     OW 6467   2.335   2.362   0.191
 2150SOL    HW1 6468   2.396   2.442   0.195
 2150SOL    HW2 6469   2.240   2.393   0.198
 2151SOL     OW 6470   2.021   2.999   1.466
 2151SOL    HW1 6471   2.043   2.938   1.542
 2151SOL    HW2 6472   2.031   2.950   1.380
 2152SOL     OW 6473   3.209   2.921   1.234
 2152SOL    HW1 6474   3.233   2.858   1.160
 2152SOL    HW2 6475   3.119   2.961   1.216
 2153SOL     OW 6476   3.164   2.717   0.309
 2153SOL    HW1 6477   3.078   2.686   0.351
 2153SOL    HW2 6478   3.160   2.703   0.210
 2154SOL     OW 6479   3.621   3.609   1.154
 2154SOL    HW1 6480   3.682   3.639   1.081
 2154SOL    HW2 6481   3.583   3.520   1.132
 2155SOL     OW 6482   3.114   3.593   1.128
 2155SOL    HW1 6483   3.198   3.598   1.074
 2155SOL    HW2 6484   3.091   3.497   1.146
 2156SOL     OW 6485   1.945   3.120   1.022
 2156SOL    HW1 6486   1.940   3.119   1.122
 2156SOL    HW2 6487   1.862   3.079   0.984
 2157SOL     OW 6488   2.550   3.524   1.716
 2157SOL    HW1 6489   2.494   3.605   1.725
 2157SOL    HW2 6490   2.602   3.528   1.630
 2158SOL     OW 6491   2.765   1.948   0.133
 2158SOL    HW1 6492   2.816   1.949   0.047
 2158SOL    HW2 6493   2.821   1.906   0.204
 2159SOL     OW 6494   3.588   1.997   0.523
 2159SOL    HW1 6495   3.661   1.980   0.456
 2159SOL    HW2 6496   3.557   1.910   0.561
 2160SOL     OW 6497   3.250   3.435   0.477
 2160SOL    HW1 6498   3.317   3.447   0.403
 2160SOL    HW2 6499   3.210   3.524   0.500
 2161SOL     OW 6500   1.992   3.656   1.851
 2161SOL    HW1 6501   1.951   3.582   1.904
 2161SOL    HW2 6502   2.056   3.707   1.909
 2162SOL     OW 6503   3.142   2.789   0.672
 2162SOL    HW1 6504   3.202   2.708   0.674
 2162SOL    HW2 6505   3.182   2.858   0.612
 2163SOL     OW 6506   2.692   3.135   1.422
 2163SOL    HW1 6507   2.687   3.168   1.517
 2163SOL    HW2 6508   2.606   3.154   1.376
 2164SOL     OW 6509   2.534   3.478   0.154
 2164SOL    HW1 6510   2.543   3.488   0.055
 2164SOL    HW2 6511   2.494   3.389   0.175
 2165SOL     OW 6512   3.512   3.582   1.394
 2165SOL    HW1 6513   3.565   3.592   1.310
 2165SOL    HW2 6514   3.485   3.672   1.428
 2166SOL     OW 6515   3.703   2.037   0.963
 2166SOL    HW1 6516   3.742   1.952   0.927
 2166SOL    HW2 6517   3.605   2.039   0.944
 2167SOL     OW 6518   2.125   2.188   0.720
 2167SOL    HW1 6519   2.046   2.239   0.686
 2167SOL    HW2 6520   2.116   2.173   0.818
 2168SOL     OW 6521   3.056   3.474   0.031
 2168SOL    HW1 6522   3.062   3.381   0.068
 2168SOL    HW2 6523   2.997   3.474  -0.049
 2169SOL     OW 6524   2.684   2.864   1.372
 2169SOL    HW1 6525   2.724   2.863   1.280
 2169SOL    HW2 6526   2.694   2.956   1.412
 2170SOL     OW 6527   2.778   2.772   0.291
 2170SOL    HW1 6528   2.841   2.810   0.223
 2170SOL    HW2 6529   2.818   2.689   0.330
 2171SOL     OW 6530   3.366   3.469   0.044
 2171SOL    HW1 6531   3.274   3.506   0.051
 2171SOL    HW2 6532   3.404   3.489  -0.046
 2172SOL     OW 6533   2.234   3.150   1.490
 2172SOL    HW1 6534   2.221   3.243   1.456
 2172SOL    HW2 6535   2.150   3.098   1.477
 2173SOL     OW 6536   3.476   3.154   1.289
 2173SOL    HW1 6537   3.536   3.157   1.369
 2173SOL    HW2 6538   3.401   3.218   1.302
 2174SOL     OW 6539   2.901   2.960   0.696
 2174SOL    HW1 6540   2.831   2.913   0.750
 2174SOL    HW2 6541   2.960   2.892   0.653
 2175SOL     OW 6542   2.876   2.098   0.971
 2175SOL    HW1 6543   2.868   2.062   0.878
 2175SOL    HW2 6544   2.874   2.022   1.036
 2176SOL     OW 6545   2.452   3.349   0.491
 2176SOL    HW1 6546   2.494   3.291   0.421
 2176SOL    HW2 6547   2.408   3.428   0.447
 2177SOL     OW 6548   3.571   2.247   1.381
 2177SOL    HW1 6549   3.644   2.316   1.385
 2177SOL    HW2 6550   3.599   2.172   1.322
 2178SOL     OW 6551   2.117   3.210   0.290
 2178SOL    HW1 6552   2.021   3.211   0.263
 2178SOL    HW2 6553   2.129   3.263   0.374
 2179SOL     OW 6554   1.967   2.875   1.726
 2179SOL    HW1 6555   1.890   2.842   1.780
 2179SOL    HW2 6556   2.052   2.845   1.768
 2180SOL     OW 6557   2.534   2.065   1.489
 2180SOL    HW1 6558   2.624   2.049   1.449
 2180SOL    HW2 6559   2.542   2.070   1.588
 2181SOL     OW 6560   3.302   2.718   1.398
 2181SOL    HW1 6561   3.245   2.770   1.335
 2181SOL    HW2 6562   3.398   2.730   1.374
 2182SOL     OW 6563   1.934   2.028   0.318
 2182SOL    HW1 6564   1.917   2.111   0.264
 2182SOL    HW2 6565   2.024   1.991   0.296
 2183SOL     OW 6566   3.045   3.197   0.119
 2183SOL    HW1 6567   2.946   3.186   0.121
 2183SOL    HW2 6568   3.079   3.212   0.212
 2184SOL     OW 6569   2.475   2.704   1.431
 2184SOL    HW1 6570   2.531   2.785   1.414
 2184SOL    HW2 6571   2.534   2.624   1.434
 2185SOL     OW 6572   3.355   3.629   0.959
 2185SOL    HW1 6573   3.388   3.693   0.890
 2185SOL    HW2 6574   3.421   3.623   1.034
 2186SOL     OW 6575   2.578   2.427   1.708
 2186SOL    HW1 6576   2.597   2.492   1.782
 2186SOL    HW2 6577   2.638   2.347   1.717
 2187SOL     OW 6578   3.312   3.082   1.633
 2187SOL    HW1 6579   3.303   3.072   1.732
 2187SOL    HW2 6580   3.408   3.075   1.607
 2188SOL     OW 6581   2.252   3.603   1.560
 2188SOL    HW1 6582   2.161   3.644   1.558
 2188SOL    HW2 6583   2.245   3.509   1.592
 2189SOL     OW 6584   3.536   2.745   1.254
 2189SOL    HW1 6585   3.509   2.656   1.217
 2189SOL    HW2 6586   3.537   2.813   1.181
 2190SOL     OW 6587   3.087   2.187   0.449
 2190SOL    HW1 6588   3.152   2.113   0.438
 2190SOL    HW2 6589   3.107   2.237   0.533
 2191SOL     OW 6590   2.456   2.607   0.652
 2191SOL    HW1 6591   2.506   2.692   0.633
 2191SOL    HW2 6592   2.368   2.609   0.604
 2192SOL     OW 6593   3.639   2.204   1.642
 2192SOL    HW1 6594   3.622   2.235   1.548
 2192SOL    HW2 6595   3.555   2.167   1.680
 2193SOL     OW 6596   3.592   2.796   1.517
 2193SOL    HW1 6597   3.630   2.887   1.532
 2193SOL    HW2 6598   3.584   2.779   1.418
 2194SOL     OW 6599   2.721   3.236   0.016
 2194SOL    HW1 6600   2.675   3.251   0.104
 2194SOL    HW2 6601   2.765   3.321  -0.014
 2195SOL     OW 6602   2.523   3.652   0.953
 2195SOL    HW1 6603   2.477   3.740   0.940
 2195SOL    HW2 6604   2.622   3.664   0.946
 2196SOL     OW 6605   2.721   2.818   0.861
 2196SOL    HW1 6606   2.775   2.749   0.909
 2196SOL    HW2 6607   2.689   2.887   0.927
 2197SOL     OW 6608   2.945   2.846   0.087
 2197SOL    HW1 6609   2.922   2.899   0.005
 2197SOL    HW2 6610   3.026   2.790   0.068
 2198SOL     OW 6611   3.723   3.431   0.851
 2198SOL    HW1 6612   3.652   3.419   0.781
 2198SOL    HW2 6613   3.724   3.352   0.911
 2199SOL     OW 6614   2.083   3.176   1.844
 2199SOL    HW1 6615   2.018   3.103   1.823
 2199SOL    HW2 6616   2.087   3.190   1.942
 2200SOL     OW 6617   1.941   3.102   0.653
 2200SOL    HW1 6618   1.940   3.055   0.741
 2200SOL    HW2 6619   2.023   3.074   0.602
 2201SOL     OW 6620   2.534   3.253   1.624
 2201SOL    HW1 6621   2.456   3.203   1.662
 2201SOL    HW2 6622   2.531   3.348   1.655
 2202SOL     OW 6623   3.686   2.054   1.227
 2202SOL    HW1 6624   3.682   1.964   1.271
 2202SOL    HW2 6625   3.689   2.043   1.128
 2203SOL     OW 6626   2.290   2.286   0.520
 2203SOL    HW1 6627   2.320   2.214   0.458
 2203SOL    HW2 6628   2.251   2.246   0.603
 2204SOL     OW 6629   3.567   3.349   1.104
 2204SOL    HW1 6630   3.474   3.324   1.077
 2204SOL    HW2 6631   3.593   3.299   1.186
 2205SOL     OW 6632   2.179   2.409   1.280
 2205SOL    HW1 6633   2.217   2.350   1.352
 2205SOL    HW2 6634   2.219   2.383   1.192
 2206SOL     OW 6635   2.674   3.448   0.687
 2206SOL    HW1 6636   2.706   3.458   0.593
 2206SOL    HW2 6637   2.595   3.386   0.689
 2207SOL     OW 6638   3.286   2.076   1.112
 2207SOL    HW1 6639   3.338   2.011   1.167
 2207SOL    HW2 6640   3.237   2.139   1.173
 2208SOL     OW 6641   2.863   1.896   1.154
 2208SOL    HW1 6642   2.800   1.824   1.123
 2208SOL    HW2 6643   2.956   1.860   1.154
 2209SOL     OW 6644   2.632   3.192   0.301
 2209SOL    HW1 6645   2.586   3.105   0.318
 2209SOL    HW2 6646   2.723   3.189   0.342
 2210SOL     OW 6647   2.480   3.429   1.284
 2210SOL    HW1 6648   2.475   3.511   1.341
 2210SOL    HW2 6649   2.569   3.426   1.239
 2211SOL     OW 6650   3.214   1.914   0.168
 2211SOL    HW1 6651   3.249   1.873   0.084
 2211SOL    HW2 6652   3.124   1.876   0.188
 2212SOL     OW 6653   3.162   2.315   0.691
 2212SOL    HW1 6654   3.103   2.395   0.695
 2212SOL    HW2 6655   3.177   2.280   0.784
 2213SOL     OW 6656   3.455   2.083   0.882
 2213SOL    HW1 6657   3.371   2.082   0.936
 2213SOL    HW2 6658   3.457   2.166   0.826
 2214SOL     OW 6659   1.901   2.939   0.300
 2214SOL    HW1 6660   2.000   2.928   0.291
 2214SOL    HW2 6661   1.861   2.853   0.332
 2215SOL     OW 6662   2.737   3.508   0.337
 2215SOL    HW1 6663   2.660   3.473   0.283
 2215SOL    HW2 6664   2.705   3.579   0.399
 2216SOL     OW 6665   2.092   2.490   1.975
 2216SOL    HW1 6666   1.999   2.488   2.012
 2216SOL    HW2 6667   2.093   2.451   1.883
 2217SOL     OW 6668   2.087   2.137   2.858
 2217SOL    HW1 6669   2.122   2.120   2.950
 2217SOL    HW2 6670   1.999   2.092   2.846
 2218SOL     OW 6671   1.881   2.230   2.509
 2218SOL    HW1 6672   1.799   2.273   2.548
 2218SOL    HW2 6673   1.853   2.157   2.446
 2219SOL     OW 6674   2.431   3.137   3.027
 2219SOL    HW1 6675   2.338   3.130   2.990
 2219SOL    HW2 6676   2.442   3.226   3.071
 2220SOL     OW 6677   3.417   3.373   2.565
 2220SOL    HW1 6678   3.360   3.357   2.646
 2220SOL    HW2 6679   3.358   3.383   2.485
 2221SOL     OW 6680   2.997   2.565   2.579
 2221SOL    HW1 6681   3.054   2.643   2.554
 2221SOL    HW2 6682   2.937   2.591   2.655
 2222SOL     OW 6683   3.617   2.469   2.093
 2222SOL    HW1 6684   3.605   2.456   1.994
 2222SOL    HW2 6685   3.587   2.388   2.142
 2223SOL     OW 6686   2.630   3.006   2.885
 2223SOL    HW1 6687   2.552   3.023   2.945
 2223SOL    HW2 6688   2.664   3.093   2.849
 2224SOL     OW 6689   2.712   2.660   3.685
 2224SOL    HW1 6690   2.708   2.736   3.750
 2224SOL    HW2 6691   2.734   2.696   3.594
 2225SOL     OW 6692   2.547   2.874   2.527
 2225SOL    HW1 6693   2.616   2.858   2.597
 2225SOL    HW2 6694   2.474   2.931   2.565
 2226SOL     OW 6695   2.548   3.023   3.665
 2226SOL    HW1 6696   2.608   3.102   3.679
 2226SOL    HW2 6697   2.462   3.054   3.624
 2227SOL     OW 6698   2.197   3.297   2.923
 2227SOL    HW1 6699   2.119   3.266   2.870
 2227SOL    HW2 6700   2.255   3.355   2.866
 2228SOL     OW 6701   3.322   3.367   3.201
 2228SOL    HW1 6702   3.346   3.461   3.227
 2228SOL    HW2 6703   3.306   3.313   3.283
 2229SOL     OW 6704   2.300   2.254   3.361
 2229SOL    HW1 6705   2.382   2.198   3.370
 2229SOL    HW2 6706   2.219   2.196   3.365
 2230SOL     OW 6707   3.465   2.309   2.599
 2230SOL    HW1 6708   3.391   2.355   2.549
 2230SOL    HW2 6709   3.516   2.377   2.652
 2231SOL     OW 6710   2.093   3.575   2.345
 2231SOL    HW1 6711   2.127   3.652   2.399
 2231SOL    HW2 6712   2.137   3.575   2.255
 2232SOL     OW 6713   2.989   3.203   3.552
 2232SOL    HW1 6714   3.036   3.203   3.640
 2232SOL    HW2 6715   2.941   3.116   3.541
 2233SOL     OW 6716   2.092   3.296   2.400
 2233SOL    HW1 6717   2.066   3.392   2.400
 2233SOL    HW2 6718   2.021   3.242   2.445
 2234SOL     OW 6719   2.102   2.953   2.748
 2234SOL    HW1 6720   2.116   2.869   2.800
 2234SOL    HW2 6721   2.047   3.017   2.803
 2235SOL     OW 6722   2.482   3.648   3.301
 2235SOL    HW1 6723   2.390   3.631   3.336
 2235SOL    HW2 6724   2.510   3.740   3.327
 2236SOL     OW 6725   2.468   2.826   1.985
 2236SOL    HW1 6726   2.475   2.910   1.931
 2236SOL    HW2 6727   2.514   2.839   2.073
 2237SOL     OW 6728   3.456   1.976   3.342
 2237SOL    HW1 6729   3.438   2.043   3.270
 2237SOL    HW2 6730   3.453   2.022   3.431
 2238SOL     OW 6731   1.984   2.505   2.425
 2238SOL    HW1 6732   1.939   2.417   2.442
 2238SOL    HW2 6733   1.983   2.559   2.509
 2239SOL     OW 6734   3.704   3.629   2.221
 2239SOL    HW1 6735   3.758   3.600   2.301
 2239SOL    HW2 6736   3.734   3.719   2.192
 2240SOL     OW 6737   1.889   3.458   1.979
 2240SOL    HW1 6738   1.870   3.362   2.000
 2240SOL    HW2 6739   1.856   3.516   2.054
 2241SOL     OW 6740   3.551   2.784   2.474
 2241SOL    HW1 6741   3.646   2.755   2.482
 2241SOL    HW2 6742   3.543   2.849   2.399
 2242SOL     OW 6743   3.503   2.970   2.294
 2242SOL    HW1 6744   3.589   2.972   2.242
 2242SOL    HW2 6745   3.517   3.017   2.382
 2243SOL     OW 6746   1.975   2.599   3.459
 2243SOL    HW1 6747   2.063   2.586   3.504
 2243SOL    HW2 6748   1.962   2.696   3.437
 2244SOL     OW 6749   2.475   3.227   2.588
 2244SOL    HW1 6750   2.426   3.140   2.597
 2244SOL    HW2 6751   2.452   3.270   2.501
 2245SOL     OW 6752   3.155   3.090   3.285
 2245SOL    HW1 6753   3.192   3.017   3.227
 2245SOL    HW2 6754   3.207   3.095   3.370
 2246SOL     OW 6755   2.671   1.866   2.364
 2246SOL    HW1 6756   2.711   1.957   2.355
 2246SOL    HW2 6757   2.571   1.874   2.370
 2247SOL     OW 6758   2.059   2.838   3.126
 2247SOL    HW1 6759   2.148   2.793   3.112
 2247SOL    HW2 6760   1.986   2.773   3.107
 2248SOL     OW 6761   3.387   2.861   2.052
 2248SOL    HW1 6762   3.324   2.785   2.065
 2248SOL    HW2 6763   3.435   2.879   2.138
 2249SOL     OW 6764   3.049   3.654   3.478
 2249SOL    HW1 6765   3.073   3.714   3.402
 2249SOL    HW2 6766   3.056   3.559   3.448
 2250SOL     OW 6767   2.179   2.113   3.663
 2250SOL    HW1 6768   2.250   2.184   3.669
 2250SOL    HW2 6769   2.091   2.152   3.691
 2251SOL     OW 6770   3.328   3.279   2.815
 2251SOL    HW1 6771   3.269   3.285   2.895
 2251SOL    HW2 6772   3.313   3.191   2.769
 2252SOL     OW 6773   3.529   3.576   2.434
 2252SOL    HW1 6774   3.488   3.553   2.346
 2252SOL    HW2 6775   3.511   3.502   2.499
 2253SOL     OW 6776   3.143   2.207   2.806
 2253SOL    HW1 6777   3.057   2.157   2.793
 2253SOL    HW2 6778   3.205   2.153   2.862
 2254SOL     OW 6779   3.438   3.524   2.169
 2254SOL    HW1 6780   3.527   3.570   2.172
 2254SOL    HW2 6781   3.417   3.500   2.074
 2255SOL     OW 6782   2.669   2.467   3.327
 2255SOL    HW1 6783   2.622   2.464   3.416
 2255SOL    HW2 6784   2.618   2.412   3.261
 2256SOL     OW 6785   3.256   2.331   3.536
 2256SOL    HW1 6786   3.236   2.374   3.624
 2256SOL    HW2 6787   3.334   2.269   3.545
 2257SOL     OW 6788   2.835   2.752   3.434
 2257SOL    HW1 6789   2.881   2.668   3.405
 2257SOL    HW2 6790   2.779   2.786   3.359
 2258SOL     OW 6791   2.853   2.272   3.104
 2258SOL    HW1 6792   2.776   2.306   3.158
 2258SOL    HW2 6793   2.819   2.221   3.025
 2259SOL     OW 6794   2.903   2.563   2.291
 2259SOL    HW1 6795   2.929   2.559   2.387
 2259SOL    HW2 6796   2.818   2.512   2.277
 2260SOL     OW 6797   1.938   2.673   2.651
 2260SOL    HW1 6798   2.037   2.661   2.660
 2260SOL    HW2 6799   1.914   2.768   2.672
 2261SOL     OW 6800   1.992   3.683   3.433
 2261SOL    HW1 6801   1.982   3.668   3.532
 2261SOL    HW2 6802   1.906   3.719   3.397
 2262SOL     OW 6803   2.727   2.210   2.057
 2262SOL    HW1 6804   2.786   2.273   2.008
 2262SOL    HW2 6805   2.746   2.116   2.028
 2263SOL     OW 6806   3.581   2.447   3.693
 2263SOL    HW1 6807   3.555   2.536   3.657
 2263SOL    HW2 6808   3.579   2.379   3.620
 2264SOL     OW 6809   3.224   3.006   2.407
 2264SOL    HW1 6810   3.307   2.977   2.359
 2264SOL    HW2 6811   3.175   3.073   2.351
 2265SOL     OW 6812   2.412   2.058   2.747
 2265SOL    HW1 6813   2.407   2.053   2.847
 2265SOL    HW2 6814   2.414   2.154   2.718
 2266SOL     OW 6815   2.870   3.318   2.339
 2266SOL    HW1 6816   2.824   3.390   2.287
 2266SOL    HW2 6817   2.866   3.338   2.437
 2267SOL     OW 6818   2.213   3.663   2.715
 2267SOL    HW1 6819   2.263   3.577   2.721
 2267SOL    HW2 6820   2.278   3.740   2.712
 2268SOL     OW 6821   3.657   2.928   2.735
 2268SOL    HW1 6822   3.595   2.913   2.659
 2268SOL    HW2 6823   3.605   2.939   2.820
 2269SOL     OW 6824   3.089   3.412   3.368
 2269SOL    HW1 6825   3.095   3.335   3.432
 2269SOL    HW2 6826   3.037   3.386   3.288
 2270SOL     OW 6827   2.183   2.805   2.104
 2270SOL    HW1 6828   2.265   2.844   2.062
 2270SOL    HW2 6829   2.156   2.723   2.055
 2271SOL     OW 6830   3.320   2.597   2.590
 2271SOL    HW1 6831   3.315   2.532   2.665
 2271SOL    HW2 6832   3.400   2.656   2.603
 2272SOL     OW 6833   2.323   3.128   3.589
 2272SOL    HW1 6834   2.273   3.129   3.503
 2272SOL    HW2 6835   2.260   3.110   3.665
 2273SOL     OW 6836   2.973   3.638   2.099
 2273SOL    HW1 6837   2.913   3.576   2.149
 2273SOL    HW2 6838   3.004   3.594   2.014
 2274SOL     OW 6839   2.064   2.147   3.360
 2274SOL    HW1 6840   1.984   2.207   3.347
 2274SOL    HW2 6841   2.054   2.098   3.446
 2275SOL     OW 6842   3.494   3.239   1.943
 2275SOL    HW1 6843   3.462   3.333   1.933
 2275SOL    HW2 6844   3.418   3.176   1.931
 2276SOL     OW 6845   2.326   3.605   2.185
 2276SOL    HW1 6846   2.359   3.644   2.271
 2276SOL    HW2 6847   2.402   3.598   2.120
 2277SOL     OW 6848   3.262   1.969   2.288
 2277SOL    HW1 6849   3.238   1.932   2.198
 2277SOL    HW2 6850   3.361   1.985   2.292
 2278SOL     OW 6851   2.111   3.647   3.103
 2278SOL    HW1 6852   2.168   3.582   3.153
 2278SOL    HW2 6853   2.095   3.614   3.010
 2279SOL     OW 6854   2.802   3.560   2.766
 2279SOL    HW1 6855   2.882   3.503   2.787
 2279SOL    HW2 6856   2.753   3.520   2.689
 2280SOL     OW 6857   3.409   2.084   3.591
 2280SOL    HW1 6858   3.404   2.121   3.683
 2280SOL    HW2 6859   3.337   2.015   3.579
 2281SOL     OW 6860   2.476   1.984   1.979
 2281SOL    HW1 6861   2.574   1.962   1.986
 2281SOL    HW2 6862   2.445   1.967   1.886
 2282SOL     OW 6863   2.643   2.126   3.611
 2282SOL    HW1 6864   2.710   2.065   3.654
 2282SOL    HW2 6865   2.570   2.145   3.676
 2283SOL     OW 6866   2.750   3.376   3.057
 2283SOL    HW1 6867   2.727   3.351   2.963
 2283SOL    HW2 6868   2.811   3.307   3.096
 2284SOL     OW 6869   3.213   2.452   3.295
 2284SOL    HW1 6870   3.241   2.409   3.380
 2284SOL    HW2 6871   3.238   2.548   3.296
 2285SOL     OW 6872   2.665   3.264   2.786
 2285SOL    HW1 6873   2.755   3.278   2.744
 2285SOL    HW2 6874   2.594   3.266   2.715
 2286SOL     OW 6875   2.784   2.365   2.761
 2286SOL    HW1 6876   2.759   2.356   2.665
 2286SOL    HW2 6877   2.832   2.283   2.792
 2287SOL     OW 6878   3.296   3.050   1.903
 2287SOL    HW1 6879   3.328   2.974   1.960
 2287SOL    HW2 6880   3.204   3.077   1.933
 2288SOL     OW 6881   2.159   1.897   2.033
 2288SOL    HW1 6882   2.208   1.981   2.012
 2288SOL    HW2 6883   2.221   1.832   2.078
 2289SOL     OW 6884   2.797   2.098   2.342
 2289SOL    HW1 6885   2.749   2.139   2.264
 2289SOL    HW2 6886   2.896   2.096   2.323
 2290SOL     OW 6887   2.938   2.545   3.326
 2290SOL    HW1 6888   2.858   2.484   3.329
 2290SOL    HW2 6889   3.019   2.492   3.302
 2291SOL     OW 6890   3.089   3.432   2.655
 2291SOL    HW1 6891   3.110   3.506   2.590
 2291SOL    HW2 6892   3.157   3.432   2.728
 2292SOL     OW 6893   2.321   3.014   2.603
 2292SOL    HW1 6894   2.250   2.987   2.668
 2292SOL    HW2 6895   2.295   2.986   2.510
 2293SOL     OW 6896   3.133   3.659   2.453
 2293SOL    HW1 6897   3.177   3.723   2.389
 2293SOL    HW2 6898   3.083   3.711   2.523
 2294SOL     OW 6899   2.894   2.411   1.878
 2294SOL    HW1 6900   2.853   2.493   1.839
 2294SOL    HW2 6901   2.958   2.437   1.951
 2295SOL     OW 6902   1.940   2.418   3.248
 2295SOL    HW1 6903   2.032   2.417   3.207
 2295SOL    HW2 6904   1.934   2.492   3.315
 2296SOL     OW 6905   2.423   2.084   3.009
 2296SOL    HW1 6906   2.461   2.000   3.046
 2296SOL    HW2 6907   2.335   2.103   3.053
 2297SOL     OW 6908   2.728   2.316   2.504
 2297SOL    HW1 6909   2.696   2.388   2.442
 2297SOL    HW2 6910   2.752   2.235   2.451
 2298SOL     OW 6911   2.879   1.901   2.615
 2298SOL    HW1 6912   2.807   1.906   2.546
 2298SOL    HW2 6913   2.855   1.832   2.684
 2299SOL     OW 6914   3.291   3.035   2.729
 2299SOL    HW1 6915   3.236   2.951   2.722
 2299SOL    HW2 6916   3.317   3.064   2.637
 2300SOL     OW 6917   3.328   2.452   2.854
 2300SOL    HW1 6918   3.298   2.357   2.861
 2300SOL    HW2 6919   3.401   2.468   2.920
 2301SOL     OW 6920   3.719   2.695   2.239
 2301SOL    HW1 6921   3.761   2.631   2.303
 2301SOL    HW2 6922   3.681   2.644   2.161
 2302SOL     OW 6923   2.350   3.247   2.036
 2302SOL    HW1 6924   2.263   3.232   2.083
 2302SOL    HW2 6925   2.333   3.273   1.941
 2303SOL     OW 6926   3.526   3.142   2.519
 2303SOL    HW1 6927   3.625   3.150   2.533
 2303SOL    HW2 6928   3.481   3.226   2.550
 2304SOL     OW 6929   3.252   2.437   1.940
 2304SOL    HW1 6930   3.198   2.416   2.021
 2304SOL    HW2 6931   3.343   2.396   1.949
 2305SOL     OW 6932   3.616   3.085   3.450
 2305SOL    HW1 6933   3.707   3.046   3.437
 2305SOL    HW2 6934   3.624   3.181   3.474
 2306SOL     OW 6935   2.926   3.209   3.202
 2306SOL    HW1 6936   2.846   3.186   3.257
 2306SOL    HW2 6937   3.009   3.183   3.251
 2307SOL     OW 6938   3.454   3.491   3.487
 2307SOL    HW1 6939   3.481   3.525   3.397
 2307SOL    HW2 6940   3.533   3.453   3.533
 2308SOL     OW 6941   2.973   3.057   2.962
 2308SOL    HW1 6942   2.933   3.101   3.043
 2308SOL    HW2 6943   2.932   3.094   2.879
 2309SOL     OW 6944   3.500   2.961   2.941
 2309SOL    HW1 6945   3.505   3.042   3.000
 2309SOL    HW2 6946   3.414   2.963   2.890
 2310SOL     OW 6947   2.777   1.951   3.264
 2310SOL    HW1 6948   2.802   1.931   3.169
 2310SOL    HW2 6949   2.849   2.007   3.306
 2311SOL     OW 6950   2.842   2.978   3.581
 2311SOL    HW1 6951   2.743   2.984   3.591
 2311SOL    HW2 6952   2.865   2.898   3.525
 2312SOL     OW 6953   2.567   2.912   2.230
 2312SOL    HW1 6954   2.553   2.919   2.329
 2312SOL    HW2 6955   2.651   2.861   2.212
 2313SOL     OW 6956   2.272   2.675   3.113
 2313SOL    HW1 6957   2.358   2.687   3.163
 2313SOL    HW2 6958   2.230   2.588   3.140
 2314SOL     OW 6959   3.136   2.248   3.124
 2314SOL    HW1 6960   3.157   2.322   3.188
 2314SOL    HW2 6961   3.047   2.265   3.081
 2315SOL     OW 6962   1.926   3.426   3.193
 2315SOL    HW1 6963   1.880   3.508   3.159
 2315SOL    HW2 6964   2.024   3.445   3.202
 2316SOL     OW 6965   2.229   2.962   2.363
 2316SOL    HW1 6966   2.222   3.045   2.307
 2316SOL    HW2 6967   2.233   2.882   2.303
 2317SOL     OW 6968   2.428   2.399   2.727
 2317SOL    HW1 6969   2.440   2.465   2.653
 2317SOL    HW2 6970   2.474   2.433   2.810
 2318SOL     OW 6971   3.114   3.210   2.250
 2318SOL    HW1 6972   3.164   3.287   2.290
 2318SOL    HW2 6973   3.019   3.212   2.282
 2319SOL     OW 6974   3.134   3.307   3.004
 2319SOL    HW1 6975   3.181   3.320   3.091
 2319SOL    HW2 6976   3.068   3.233   3.013
 2320SOL     OW 6977   3.444   2.501   2.334
 2320SOL    HW1 6978   3.413   2.562   2.407
 2320SOL    HW2 6979   3.494   2.553   2.265
 2321SOL     OW 6980   2.216   3.372   3.191
 2321SOL    HW1 6981   2.195   3.328   3.104
 2321SOL    HW2 6982   2.313   3.398   3.194
 2322SOL     OW 6983   2.264   2.613   3.460
 2322SOL    HW1 6984   2.332   2.668   3.413
 2322SOL    HW2 6985   2.304   2.525   3.487
 2323SOL     OW 6986   3.449   2.641   3.532
 2323SOL    HW1 6987   3.357   2.679   3.527
 2323SOL    HW2 6988   3.509   2.688   3.467
 2324SOL     OW 6989   2.875   1.967   3.632
 2324SOL    HW1 6990   2.881   2.052   3.580
 2324SOL    HW2 6991   2.907   1.891   3.575
 2325SOL     OW 6992   2.366   1.912   3.602
 2325SOL    HW1 6993   2.324   1.855   3.532
 2325SOL    HW2 6994   2.300   1.981   3.634
 2326SOL     OW 6995   2.435   2.732   2.891
 2326SOL    HW1 6996   2.479   2.821   2.882
 2326SOL    HW2 6997   2.372   2.732   2.968
 2327SOL     OW 6998   3.222   2.724   2.907
 2327SOL    HW1 6999   3.147   2.724   2.841
 2327SOL    HW2 7000   3.259   2.632   2.916
 2328SOL     OW 7001   3.071   2.387   2.137
 2328SOL    HW1 7002   3.084   2.303   2.191
 2328SOL    HW2 7003   3.042   2.461   2.197
 2329SOL     OW 7004   2.169   2.075   3.093
 2329SOL    HW1 7005   2.146   2.112   3.183
 2329SOL    HW2 7006   2.139   1.980   3.087
 2330SOL     OW 7007   1.899   3.172   3.144
 2330SOL    HW1 7008   1.952   3.123   3.212
 2330SOL    HW2 7009   1.921   3.270   3.149
 2331SOL     OW 7010   3.590   2.797   3.716
 2331SOL    HW1 7011   3.544   2.790   3.627
 2331SOL    HW2 7012   3.528   2.841   3.782
 2332SOL     OW 7013   2.169   1.925   2.480
 2332SOL    HW1 7014   2.158   2.019   2.513
 2332SOL    HW2 7015   2.164   1.862   2.557
 2333SOL     OW 7016   3.484   2.229   2.236
 2333SOL    HW1 7017   3.486   2.153   2.300
 2333SOL    HW2 7018   3.436   2.306   2.276
 2334SOL     OW 7019   2.885   2.628   2.828
 2334SOL    HW1 7020   2.900   2.649   2.924
 2334SOL    HW2 7021   2.855   2.533   2.819
 2335SOL     OW 7022   2.842   3.435   3.562
 2335SOL    HW1 7023   2.822   3.479   3.474
 2335SOL    HW2 7024   2.881   3.344   3.546
 2336SOL     OW 7025   3.721   3.380   3.467
 2336SOL    HW1 7026   3.735   3.407   3.372
 2336SOL    HW2 7027   3.804   3.402   3.520
 2337SOL     OW 7028   2.212   2.760   3.666
 2337SOL    HW1 7029   2.288   2.804   3.714
 2337SOL    HW2 7030   2.247   2.713   3.584
 2338SOL     OW 7031   3.402   2.136   1.987
 2338SOL    HW1 7032   3.341   2.061   2.010
 2338SOL    HW2 7033   3.424   2.188   2.070
 2339SOL     OW 7034   3.165   2.700   1.904
 2339SOL    HW1 7035   3.199   2.607   1.919
 2339SOL    HW2 7036   3.183   2.727   1.809
 2340SOL     OW 7037   2.930   3.195   2.711
 2340SOL    HW1 7038   2.937   3.111   2.656
 2340SOL    HW2 7039   2.992   3.264   2.675
 2341SOL     OW 7040   2.181   2.672   2.811
 2341SOL    HW1 7041   2.274   2.708   2.816
 2341SOL    HW2 7042   2.175   2.587   2.863
 2342SOL     OW 7043   2.201   2.371   2.868
 2342SOL    HW1 7044   2.149   2.288   2.851
 2342SOL    HW2 7045   2.278   2.376   2.804
 2343SOL     OW 7046   3.000   2.242   3.540
 2343SOL    HW1 7047   2.955   2.305   3.604
 2343SOL    HW2 7048   3.093   2.273   3.523
 2344SOL     OW 7049   3.022   2.069   3.339
 2344SOL    HW1 7050   3.022   2.133   3.416
 2344SOL    HW2 7051   3.050   2.117   3.256
 2345SOL     OW 7052   1.870   3.188   2.062
 2345SOL    HW1 7053   1.777   3.209   2.031
 2345SOL    HW2 7054   1.880   3.089   2.075
 2346SOL     OW 7055   1.950   3.663   2.789
 2346SOL    HW1 7056   1.908   3.577   2.762
 2346SOL    HW2 7057   2.044   3.666   2.755
 2347SOL     OW 7058   2.366   3.430   2.772
 2347SOL    HW1 7059   2.432   3.504   2.781
 2347SOL    HW2 7060   2.410   3.351   2.730
 2348SOL     OW 7061   2.864   2.658   3.100
 2348SOL    HW1 7062   2.905   2.626   3.186
 2348SOL    HW2 7063   2.768   2.631   3.097
 2349SOL     OW 7064   1.902   2.406   2.976
 2349SOL    HW1 7065   1.987   2.373   2.935
 2349SOL    HW2 7066   1.915   2.421   3.074
 2350SOL     OW 7067   2.051   2.382   3.584
 2350SOL    HW1 7068   2.110   2.342   3.514
 2350SOL    HW2 7069   1.993   2.453   3.543
 2351SOL     OW 7070   3.231   2.812   3.522
 2351SOL    HW1 7071   3.270   2.901   3.542
 2351SOL    HW2 7072   3.241   2.792   3.425
 2352SOL     OW 7073   2.677   2.434   2.187
 2352SOL    HW1 7074   2.684   2.345   2.141
 2352SOL    HW2 7075   2.583   2.468   2.179
 2353SOL     OW 7076   3.519   2.466   3.068
 2353SOL    HW1 7077   3.481   2.397   3.130
 2353SOL    HW2 7078   3.601   2.430   3.024
 2354SOL     OW 7079   2.114   3.426   3.606
 2354SOL    HW1 7080   2.084   3.483   3.682
 2354SOL    HW2 7081   2.107   3.329   3.632
 2355SOL     OW 7082   2.533   2.326   3.131
 2355SOL    HW1 7083   2.499   2.237   3.101
 2355SOL    HW2 7084   2.559   2.380   3.051
 2356SOL     OW 7085   2.792   3.540   3.327
 2356SOL    HW1 7086   2.768   3.522   3.232
 2356SOL    HW2 7087   2.822   3.634   3.337
 2357SOL     OW 7088   2.335   2.362   2.053
 2357SOL    HW1 7089   2.396   2.442   2.057
 2357SOL    HW2 7090   2.240   2.393   2.060
 2358SOL     OW 7091   2.021   2.999   3.328
 2358SOL    HW1 7092   2.043   2.938   3.404
 2358SOL    HW2 7093   2.031   2.950   3.242
 2359SOL     OW 7094   3.209   2.921   3.096
 2359SOL    HW1 7095   3.233   2.858   3.022
 2359SOL    HW2 7096   3.119   2.961   3.078
 2360SOL     OW 7097   3.164   2.717   2.171
 2360SOL    HW1 7098   3.078   2.686   2.213
 2360SOL    HW2 7099   3.160   2.703   2.072
 2361SOL     OW 7100   3.621   3.609   3.016
 2361SOL    HW1 7101   3.682   3.639   2.943
 2361SOL    HW2 7102   3.583   3.520   2.994
 2362SOL     OW 7103   3.114   3.593   2.990
 2362SOL    HW1 7104   3.198   3.598   2.936
 2362SOL    HW2 7105   3.091   3.497   3.008
 2363SOL     OW 7106   1.945   3.120   2.884
 2363SOL    HW1 7107   1.940   3.119   2.984
 2363SOL    HW2 7108   1.862   3.079   2.846
 2364SOL     OW 7109   2.550   3.524   3.578
 2364SOL    HW1 7110   2.494   3.605   3.587
 2364SOL    HW2 7111   2.602   3.528   3.492
 2365SOL     OW 7112   3.588   1.997   2.385
 2365SOL    HW1 7113   3.661   1.980   2.318
 2365SOL    HW2 7114   3.557   1.910   2.423
 2366SOL     OW 7115   3.250   3.435   2.339
 2366SOL    HW1 7116   3.317   3.447   2.265
 2366SOL    HW2 7117   3.210   3.524   2.362
 2367SOL     OW 7118   1.992   3.656   3.713
 2367SOL    HW1 7119   1.951   3.582   3.766
 2367SOL    HW2 7120   2.056   3.707   3.771
 2368SOL     OW 7121   3.142   2.789   2.534
 2368SOL    HW1 7122   3.202   2.708   2.536
 2368SOL    HW2 7123   3.182   2.858   2.474
 2369SOL     OW 7124   2.692   3.135   3.284
 2369SOL    HW1 7125   2.687   3.168   3.379
 2369SOL    HW2 7126   2.606   3.154   3.238
 2370SOL     OW 7127   2.534   3.478   2.016
 2370SOL    HW1 7128   2.543   3.488   1.917
 2370SOL    HW2 7129   2.494   3.389   2.037
 2371SOL     OW 7130   3.512   3.582   3.256
 2371SOL    HW1 7131   3.565   3.592   3.172
 2371SOL    HW2 7132   3.485   3.672   3.290
 2372SOL     OW 7133   3.703   2.037   2.825
 2372SOL    HW1 7134   3.742   1.952   2.789
 2372SOL    HW2 7135   3.605   2.039   2.806
 2373SOL     OW 7136   2.125   2.188   2.582
 2373SOL    HW1 7137   2.046   2.239   2.548
 2373SOL    HW2 7138   2.116   2.173   2.680
 2374SOL     OW 7139   3.056   3.474   1.893
 2374SOL    HW1 7140   3.062   3.381   1.930
 2374SOL    HW2 7141   2.997   3.474   1.813
 2375SOL     OW 7142   2.684   2.864   3.234
 2375SOL    HW1 7143   2.724   2.863   3.142
 2375SOL    HW2 7144   2.694   2.956   3.274
 2376SOL     OW 7145   2.778   2.772   2.153
 2376SOL    HW1 7146   2.841   2.810   2.085
 2376SOL    HW2 7147   2.818   2.689   2.192
 2377SOL     OW 7148   3.366   3.469   1.906
 2377SOL    HW1 7149   3.274   3.506   1.913
 2377SOL    HW2 7150   3.404   3.489   1.816
 2378SOL     OW 7151   2.234   3.150   3.352
 2378SOL    HW1 7152   2.221   3.243   3.318
 2378SOL    HW2 7153   2.150   3.098   3.339
 2379SOL     OW 7154   3.476   3.154   3.151
 2379SOL    HW1 7155   3.536   3.157   3.231
 2379SOL    HW2 7156   3.401   3.218   3.164
 2380SOL     OW 7157   2.901   2.960   2.558
 2380SOL    HW1 7158   2.831   2.913   2.612
 2380SOL    HW2 7159   2.960   2.892   2.515
 2381SOL     OW 7160   2.876   2.098   2.833
 2381SOL    HW1 7161   2.868   2.062   2.740
 2381SOL    HW2 7162   2.874   2.022   2.898
 2382SOL     OW 7163   2.452   3.349   2.353
 2382SOL    HW1 7164   2.494   3.291   2.283
 2382SOL    HW2 7165   2.408   3.428   2.309
 2383SOL     OW 7166   3.571   2.247   3.243
 2383SOL    HW1 7167   3.644   2.316   3.247
 2383SOL    HW2 7168   3.599   2.172   3.184
 2384SOL     OW 7169   2.117   3.210   2.152
 2384SOL    HW1 7170   2.021   3.211   2.125
 2384SOL    HW2 7171   2.129   3.263   2.236
 2385SOL     OW 7172   1.967   2.875   3.588
 2385SOL    HW1 7173   1.890   2.842   3.642
 2385SOL    HW2 7174   2.052   2.845   3.630
 2386SOL     OW 7175   2.534   2.065   3.351
 2386SOL    HW1 7176   2.624   2.049   3.311
 2386SOL    HW2 7177   2.542   2.070   3.450
 2387SOL     OW 7178   1.937   2.207   1.895
 2387SOL    HW1 7179   1.845   2.179   1.866
 2387SOL    HW2 7180   1.968   2.284   1.839
 2388SOL     OW 7181   3.302   2.718   3.260
 2388SOL    HW1 7182   3.245   2.770   3.197
 2388SOL    HW2 7183   3.398   2.730   3.236
 2389SOL     OW 7184   1.934   2.028   2.180
 2389SOL    HW1 7185   1.917   2.111   2.126
 2389SOL    HW2 7186   2.024   1.991   2.158
 2390SOL     OW 7187   3.045   3.197   1.981
 2390SOL    HW1 7188   2.946   3.186   1.983
 2390SOL    HW2 7189   3.079   3.212   2.074
 2391SOL     OW 7190   2.475   2.704   3.293
 2391SOL    HW1 7191   2.531   2.785   3.276
 2391SOL    HW2 7192   2.534   2.624   3.296
 2392SOL     OW 7193   3.355   3.629   2.821
 2392SOL    HW1 7194   3.388   3.693   2.752
 2392SOL    HW2 7195   3.421   3.623   2.896
 2393SOL     OW 7196   2.578   2.427   3.570
 2393SOL    HW1 7197   2.597   2.492   3.644
 2393SOL    HW2 7198   2.638   2.347   3.579
 2394SOL     OW 7199   3.312   3.082   3.495
 2394SOL    HW1 7200   3.303   3.072   3.594
 2394SOL    HW2 7201   3.408   3.075   3.469
 2395SOL     OW 7202   2.252   3.603   3.422
 2395SOL    HW1 7203   2.161   3.644   3.420
 2395SOL    HW2 7204   2.245   3.509   3.454
 2396SOL     OW 7205   3.536   2.745   3.116
 2396SOL    HW1 7206   3.509   2.656   3.079
 2396SOL    HW2 7207   3.537   2.813   3.043
 2397SOL     OW 7208   3.087   2.187   2.311
 2397SOL    HW1 7209   3.152   2.113   2.300
 2397SOL    HW2 7210   3.107   2.237   2.395
 2398SOL     OW 7211   3.639   2.204   3.504
 2398SOL    HW1 7212   3.622   2.235   3.410
 2398SOL    HW2 7213   3.555   2.167   3.542
 2399SOL     OW 7214   3.592   2.796   3.379
 2399SOL    HW1 7215   3.630   2.887   3.394
 2399SOL    HW2 7216   3.584   2.779   3.280
 2400SOL     OW 7217   2.721   3.236   1.878
 2400SOL    HW1 7218   2.675   3.251   1.966
 2400SOL    HW2 7219   2.765   3.321   1.848
 2401SOL     OW 7220   2.523   3.652   2.815
 2401SOL    HW1 7221   2.477   3.740   2.802
 2401SOL    HW2 7222   2.622   3.664   2.808
 2402SOL     OW 7223   2.721   2.818   2.723
 2402SOL    HW1 7224   2.775   2.749   2.771
 2402SOL    HW2 7225   2.689   2.887   2.789
 2403SOL     OW 7226   2.945   2.846   1.949
 2403SOL    HW1 7227   2.922   2.899   1.867
 2403SOL    HW2 7228   3.026   2.790   1.930
 2404SOL     OW 7229   3.723   3.431   2.713
 2404SOL    HW1 7230   3.652   3.419   2.643
 2404SOL    HW2 7231   3.724   3.352   2.773
 2405SOL     OW 7232   2.083   3.176   3.706
 2405SOL    HW1 7233   2.018   3.103   3.685
 2405SOL    HW2 7234   2.087   3.190   3.804
 2406SOL     OW 7235   1.941   3.102   2.515
 2406SOL    HW1 7236   1.940   3.055   2.603
 2406SOL    HW2 7237   2.023   3.074   2.464
 2407SOL     OW 7238   2.534   3.253   3.486
 2407SOL    HW1 7239   2.456   3.203   3.524
 2407SOL    HW2 7240   2.531   3.348   3.517
 2408SOL     OW 7241   3.686   2.054   3.089
 2408SOL    HW1 7242   3.682   1.964   3.133
 2408SOL    HW2 7243   3.689   2.043   2.990
 2409SOL     OW 7244   3.567   3.349   2.966
 2409SOL    HW1 7245   3.474   3.324   2.939
 2409SOL    HW2 7246   3.593   3.299   3.048
 2410SOL     OW 7247   2.179   2.409   3.142
 2410SOL    HW1 7248   2.217   2.350   3.214
 2410SOL    HW2 7249   2.219   2.383   3.054
 2411SOL     OW 7250   2.674   3.448   2.549
 2411SOL    HW1 7251   2.706   3.458   2.455
 2411SOL    HW2 7252   2.595   3.386   2.551
 2412SOL     OW 7253   3.286   2.076   2.974
 2412SOL    HW1 7254   3.338   2.011   3.029
 2412SOL    HW2 7255   3.237   2.139   3.035
 2413SOL     OW 7256   2.863   1.896   3.016
 2413SOL    HW1 7257   2.800   1.824   2.985
 2413SOL    HW2 7258   2.956   1.860   3.016
 2414SOL     OW 7259   2.632   3.192   2.163
 2414SOL    HW1 7260   2.586   3.105   2.180
 2414SOL    HW2 7261   2.723   3.189   2.204
 2415SOL     OW 7262   2.480   3.429   3.146
 2415SOL    HW1 7263   2.475   3.511   3.203
 2415SOL    HW2 7264   2.569   3.426   3.101
 2416SOL     OW 7265   3.214   1.914   2.030
 2416SOL    HW1 7266   3.249   1.873   1.946
 2416SOL    HW2 7267   3.124   1.876   2.050
 2417SOL     OW 7268   3.162   2.315   2.553
 2417SOL    HW1 7269   3.103   2.395   2.557
 2417SOL    HW2 7270   3.177   2.280   2.646
 2418SOL     OW 7271   3.455   2.083   2.744
 2418SOL    HW1 7272   3.371   2.082   2.798
 2418SOL    HW2 7273   3.457   2.166   2.688
 2419SOL     OW 7274   1.901   2.939   2.162
 2419SOL    HW1 7275   2.000   2.928   2.153
 2419SOL    HW2 7276   1.861   2.853   2.194
 2420SOL     OW 7277   2.737   3.508   2.199
 2420SOL    HW1 7278   2.660   3.473   2.145
 2420SOL    HW2 7279   2.705   3.579   2.261
 2421SOL     OW 7280   2.092   2.490   3.837
 2421SOL    HW1 7281   1.999   2.488   3.874
 2421SOL    HW2 7282   2.093   2.451   3.745
 2422SOL     OW 7283   2.087   2.137   4.720
 2422SOL    HW1 7284   2.122   2.120   4.812
 2422SOL    HW2 7285   1.999   2.092   4.708
 2423SOL     OW 7286   1.881   2.230   4.371
 2423SOL    HW1 7287   1.799   2.273   4.410
 2423SOL    HW2 7288   1.853   2.157   4.308
 2424SOL     OW 7289   3.417   3.373   4.427
 2424SOL    HW1 7290   3.360   3.357   4.508
 2424SOL    HW2 7291   3.358   3.383   4.347
 2425SOL     OW 7292   2.997   2.565   4.441
 2425SOL    HW1 7293   3.054   2.643   4.416
 2425SOL    HW2 7294   2.937   2.591   4.517
 2426SOL     OW 7295   3.617   2.469   3.955
 2426SOL    HW1 7296   3.605   2.456   3.856
 2426SOL    HW2 7297   3.587   2.388   4.004
 2427SOL     OW 7298   2.630   3.006   4.747
 2427SOL    HW1 7299   2.552   3.023   4.807
 2427SOL    HW2 7300   2.664   3.093   4.711
 2428SOL     OW 7301   2.547   2.874   4.389
 2428SOL    HW1 7302   2.616   2.858   4.459
 2428SOL    HW2 7303   2.474   2.931   4.427
 2429SOL     OW 7304   2.197   3.297   4.785
 2429SOL    HW1 7305   2.119   3.266   4.732
 2429SOL    HW2 7306   2.255   3.355   4.728
 2430SOL     OW 7307   3.465   2.309   4.461
 2430SOL    HW1 7308   3.391   2.355   4.411
 2430SOL    HW2 7309   3.516   2.377   4.514
 2431SOL     OW 7310   2.093   3.575   4.207
 2431SOL    HW1 7311   2.127   3.652   4.261
 2431SOL    HW2 7312   2.137   3.575   4.117
 2432SOL     OW 7313   2.092   3.296   4.262
 2432SOL    HW1 7314   2.066   3.392   4.262
 2432SOL    HW2 7315   2.021   3.242   4.307
 2433SOL     OW 7316   2.102   2.953   4.610
 2433SOL    HW1 7317   2.116   2.869   4.662
 2433SOL    HW2 7318   2.047   3.017   4.665
 2434SOL     OW 7319   2.468   2.826   3.847
 2434SOL    HW1 7320   2.475   2.910   3.793
 2434SOL    HW2 7321   2.514   2.839   3.935
 2435SOL     OW 7322   1.984   2.505   4.287
 2435SOL    HW1 7323   1.939   2.417   4.304
 2435SOL    HW2 7324   1.983   2.559   4.371
 2436SOL     OW 7325   3.704   3.629   4.083
 2436SOL    HW1 7326   3.758   3.600   4.163
 2436SOL    HW2 7327   3.734   3.719   4.054
 2437SOL     OW 7328   1.889   3.458   3.841
 2437SOL    HW1 7329   1.870   3.362   3.862
 2437SOL    HW2 7330   1.856   3.516   3.916
 2438SOL     OW 7331   3.551   2.784   4.336
 2438SOL    HW1 7332   3.646   2.755   4.344
 2438SOL    HW2 7333   3.543   2.849   4.261
 2439SOL     OW 7334   3.503   2.970   4.156
 2439SOL    HW1 7335   3.589   2.972   4.104
 2439SOL    HW2 7336   3.517   3.017   4.244
 2440SOL     OW 7337   2.475   3.227   4.450
 2440SOL    HW1 7338   2.426   3.140   4.459
 2440SOL    HW2 7339   2.452   3.270   4.363
 2441SOL     OW 7340   2.671   1.866   4.226
 2441SOL    HW1 7341   2.711   1.957   4.217
 2441SOL    HW2 7342   2.571   1.874   4.232
 2442SOL     OW 7343   3.387   2.861   3.914
 2442SOL    HW1 7344   3.324   2.785   3.927
 2442SOL    HW2 7345   3.435   2.879   4.000
 2443SOL     OW 7346   3.328   3.279   4.677
 2443SOL    HW1 7347   3.269   3.285   4.757
 2443SOL    HW2 7348   3.313   3.191   4.631
 2444SOL     OW 7349   3.529   3.576   4.296
 2444SOL    HW1 7350   3.488   3.553   4.208
 2444SOL    HW2 7351   3.511   3.502   4.361
 2445SOL     OW 7352   2.460   2.591   3.994
 2445SOL    HW1 7353   2.484   2.660   3.926
 2445SOL    HW2 7354   2.382   2.624   4.048
 2446SOL     OW 7355   3.143   2.207   4.668
 2446SOL    HW1 7356   3.057   2.157   4.655
 2446SOL    HW2 7357   3.205   2.153   4.724
 2447SOL     OW 7358   3.438   3.524   4.031
 2447SOL    HW1 7359   3.527   3.570   4.034
 2447SOL    HW2 7360   3.417   3.500   3.936
 2448SOL     OW 7361   2.903   2.563   4.153
 2448SOL    HW1 7362   2.929   2.559   4.249
 2448SOL    HW2 7363   2.818   2.512   4.139
 2449SOL     OW 7364   1.938   2.673   4.513
 2449SOL    HW1 7365   2.037   2.661   4.522
 2449SOL    HW2 7366   1.914   2.768   4.534
 2450SOL     OW 7367   2.727   2.210   3.919
 2450SOL    HW1 7368   2.786   2.273   3.870
 2450SOL    HW2 7369   2.746   2.116   3.890
 2451SOL     OW 7370   3.224   3.006   4.269
 2451SOL    HW1 7371   3.307   2.977   4.221
 2451SOL    HW2 7372   3.175   3.073   4.213
 2452SOL     OW 7373   2.412   2.058   4.609
 2452SOL    HW1 7374   2.407   2.053   4.709
 2452SOL    HW2 7375   2.414   2.154   4.580
 2453SOL     OW 7376   2.870   3.318   4.201
 2453SOL    HW1 7377   2.824   3.390   4.149
 2453SOL    HW2 7378   2.866   3.338   4.299
 2454SOL     OW 7379   2.213   3.663   4.577
 2454SOL    HW1 7380   2.263   3.577   4.583
 2454SOL    HW2 7381   2.278   3.740   4.574
 2455SOL     OW 7382   3.657   2.928   4.597
 2455SOL    HW1 7383   3.595   2.913   4.521
 2455SOL    HW2 7384   3.605   2.939   4.682
 2456SOL     OW 7385   2.183   2.805   3.966
 2456SOL    HW1 7386   2.265   2.844   3.924
 2456SOL    HW2 7387   2.156   2.723   3.917
 2457SOL     OW 7388   3.320   2.597   4.452
 2457SOL    HW1 7389   3.315   2.532   4.527
 2457SOL    HW2 7390   3.400   2.656   4.465
 2458SOL     OW 7391   2.973   3.638   3.961
 2458SOL    HW1 7392   2.913   3.576   4.011
 2458SOL    HW2 7393   3.004   3.594   3.876
 2459SOL     OW 7394   3.494   3.239   3.805
 2459SOL    HW1 7395   3.462   3.333   3.795
 2459SOL    HW2 7396   3.418   3.176   3.793
 2460SOL     OW 7397   2.326   3.605   4.047
 2460SOL    HW1 7398   2.359   3.644   4.133
 2460SOL    HW2 7399   2.402   3.598   3.982
 2461SOL     OW 7400   3.262   1.969   4.150
 2461SOL    HW1 7401   3.238   1.932   4.060
 2461SOL    HW2 7402   3.361   1.985   4.154
 2462SOL     OW 7403   2.111   3.647   4.965
 2462SOL    HW1 7404   2.168   3.582   5.015
 2462SOL    HW2 7405   2.095   3.614   4.872
 2463SOL     OW 7406   2.802   3.560   4.628
 2463SOL    HW1 7407   2.882   3.503   4.649
 2463SOL    HW2 7408   2.753   3.520   4.551
 2464SOL     OW 7409   2.244   2.562   4.204
 2464SOL    HW1 7410   2.289   2.472   4.201
 2464SOL    HW2 7411   2.150   2.551   4.237
 2465SOL     OW 7412   2.476   1.984   3.841
 2465SOL    HW1 7413   2.574   1.962   3.848
 2465SOL    HW2 7414   2.445   1.967   3.748
 2466SOL     OW 7415   2.665   3.264   4.648
 2466SOL    HW1 7416   2.755   3.278   4.606
 2466SOL    HW2 7417   2.594   3.266   4.577
 2467SOL     OW 7418   2.784   2.365   4.623
 2467SOL    HW1 7419   2.759   2.356   4.527
 2467SOL    HW2 7420   2.832   2.283   4.654
 2468SOL     OW 7421   2.401   1.926   4.236
 2468SOL    HW1 7422   2.320   1.927   4.294
 2468SOL    HW2 7423   2.404   2.009   4.181
 2469SOL     OW 7424   3.296   3.050   3.765
 2469SOL    HW1 7425   3.328   2.974   3.822
 2469SOL    HW2 7426   3.204   3.077   3.795
 2470SOL     OW 7427   2.159   1.897   3.895
 2470SOL    HW1 7428   2.208   1.981   3.874
 2470SOL    HW2 7429   2.221   1.832   3.940
 2471SOL     OW 7430   2.797   2.098   4.204
 2471SOL    HW1 7431   2.749   2.139   4.126
 2471SOL    HW2 7432   2.896   2.096   4.185
 2472SOL     OW 7433   3.089   3.432   4.517
 2472SOL    HW1 7434   3.110   3.506   4.452
 2472SOL    HW2 7435   3.157   3.432   4.590
 2473SOL     OW 7436   2.321   3.014   4.465
 2473SOL    HW1 7437   2.250   2.987   4.530
 2473SOL    HW2 7438   2.295   2.986   4.372
 2474SOL     OW 7439   3.133   3.659   4.315
 2474SOL    HW1 7440   3.177   3.723   4.251
 2474SOL    HW2 7441   3.083   3.711   4.385
 2475SOL     OW 7442   2.894   2.411   3.740
 2475SOL    HW1 7443   2.853   2.493   3.701
 2475SOL    HW2 7444   2.958   2.437   3.813
 2476SOL     OW 7445   2.728   2.316   4.366
 2476SOL    HW1 7446   2.696   2.388   4.304
 2476SOL    HW2 7447   2.752   2.235   4.313
 2477SOL     OW 7448   2.879   1.901   4.477
 2477SOL    HW1 7449   2.807   1.906   4.408
 2477SOL    HW2 7450   2.855   1.832   4.546
 2478SOL     OW 7451   3.291   3.035   4.591
 2478SOL    HW1 7452   3.236   2.951   4.584
 2478SOL    HW2 7453   3.317   3.064   4.499
 2479SOL     OW 7454   3.328   2.452   4.716
 2479SOL    HW1 7455   3.298   2.357   4.723
 2479SOL    HW2 7456   3.401   2.468   4.782
 2480SOL     OW 7457   3.719   2.695   4.101
 2480SOL    HW1 7458   3.761   2.631   4.165
 2480SOL    HW2 7459   3.681   2.644   4.023
 2481SOL     OW 7460   2.350   3.247   3.898
 2481SOL    HW1 7461   2.263   3.232   3.945
 2481SOL    HW2 7462   2.333   3.273   3.803
 2482SOL     OW 7463   3.526   3.142   4.381
 2482SOL    HW1 7464   3.625   3.150   4.395
 2482SOL    HW2 7465   3.481   3.226   4.412
 2483SOL     OW 7466   3.252   2.437   3.802
 2483SOL    HW1 7467   3.198   2.416   3.883
 2483SOL    HW2 7468   3.343   2.396   3.811
 2484SOL     OW 7469   2.389   2.118   4.052
 2484SOL    HW1 7470   2.416   2.059   3.977
 2484SOL    HW2 7471   2.389   2.213   4.021
 2485SOL     OW 7472   3.500   2.961   4.803
 2485SOL    HW1 7473   3.505   3.042   4.862
 2485SOL    HW2 7474   3.414   2.963   4.752
 2486SOL     OW 7475   2.567   2.912   4.092
 2486SOL    HW1 7476   2.553   2.919   4.191
 2486SOL    HW2 7477   2.651   2.861   4.074
 2487SOL     OW 7478   2.272   2.675   4.975
 2487SOL    HW1 7479   2.358   2.687   5.025
 2487SOL    HW2 7480   2.230   2.588   5.002
 2488SOL     OW 7481   2.229   2.962   4.225
 2488SOL    HW1 7482   2.222   3.045   4.169
 2488SOL    HW2 7483   2.233   2.882   4.165
 2489SOL     OW 7484   2.428   2.399   4.589
 2489SOL    HW1 7485   2.440   2.465   4.515
 2489SOL    HW2 7486   2.474   2.433   4.672
 2490SOL     OW 7487   3.114   3.210   4.112
 2490SOL    HW1 7488   3.164   3.287   4.152
 2490SOL    HW2 7489   3.019   3.212   4.144
 2491SOL     OW 7490   3.444   2.501   4.196
 2491SOL    HW1 7491   3.413   2.562   4.269
 2491SOL    HW2 7492   3.494   2.553   4.127
 2492SOL     OW 7493   2.216   3.372   5.053
 2492SOL    HW1 7494   2.195   3.328   4.966
 2492SOL    HW2 7495   2.313   3.398   5.056
 2493SOL     OW 7496   2.435   2.732   4.753
 2493SOL    HW1 7497   2.479   2.821   4.744
 2493SOL    HW2 7498   2.372   2.732   4.830
 2494SOL     OW 7499   3.071   2.387   3.999
 2494SOL    HW1 7500   3.084   2.303   4.053
 2494SOL    HW2 7501   3.042   2.461   4.059
 2495SOL     OW 7502   2.169   2.075   4.955
 2495SOL    HW1 7503   2.146   2.112   5.045
 2495SOL    HW2 7504   2.139   1.980   4.949
 2496SOL     OW 7505   2.594   2.496   4.788
 2496SOL    HW1 7506   2.653   2.470   4.712
 2496SOL    HW2 7507   2.566   2.592   4.777
 2497SOL     OW 7508   2.169   1.925   4.342
 2497SOL    HW1 7509   2.158   2.019   4.375
 2497SOL    HW2 7510   2.164   1.862   4.419
 2498SOL     OW 7511   3.484   2.229   4.098
 2498SOL    HW1 7512   3.486   2.153   4.162
 2498SOL    HW2 7513   3.436   2.306   4.138
 2499SOL     OW 7514   2.885   2.628   4.690
 2499SOL    HW1 7515   2.900   2.649   4.786
 2499SOL    HW2 7516   2.855   2.533   4.681
 2500SOL     OW 7517   3.402   2.136   3.849
 2500SOL    HW1 7518   3.341   2.061   3.872
 2500SOL    HW2 7519   3.424   2.188   3.932
 2501SOL     OW 7520   3.165   2.700   3.766
 2501SOL    HW1 7521   3.199   2.607   3.781
 2501SOL    HW2 7522   3.183   2.727   3.671
 2502SOL     OW 7523   2.930   3.195   4.573
 2502SOL    HW1 7524   2.937   3.111   4.518
 2502SOL    HW2 7525   2.992   3.264   4.537
 2503SOL     OW 7526   2.181   2.672   4.673
 2503SOL    HW1 7527   2.274   2.708   4.678
 2503SOL    HW2 7528   2.175   2.587   4.725
 2504SOL     OW 7529   2.201   2.371   4.730
 2504SOL    HW1 7530   2.149   2.288   4.713
 2504SOL    HW2 7531   2.278   2.376   4.666
 2505SOL     OW 7532   1.870   3.188   3.924
 2505SOL    HW1 7533   1.777   3.209   3.893
 2505SOL    HW2 7534   1.880   3.089   3.937
 2506SOL     OW 7535   1.950   3.663   4.651
 2506SOL    HW1 7536   1.908   3.577   4.624
 2506SOL    HW2 7537   2.044   3.666   4.617
 2507SOL     OW 7538   2.366   3.430   4.634
 2507SOL    HW1 7539   2.432   3.504   4.643
 2507SOL    HW2 7540   2.410   3.351   4.592
 2508SOL     OW 7541   2.864   2.658   4.962
 2508SOL    HW1 7542   2.905   2.626   5.048
 2508SOL    HW2 7543   2.768   2.631   4.959
 2509SOL     OW 7544   1.902   2.406   4.838
 2509SOL    HW1 7545   1.987   2.373   4.797
 2509SOL    HW2 7546   1.915   2.421   4.936
 2510SOL     OW 7547   2.677   2.434   4.049
 2510SOL    HW1 7548   2.684   2.345   4.003
 2510SOL    HW2 7549   2.583   2.468   4.041
 2511SOL     OW 7550   2.533   2.326   4.993
 2511SOL    HW1 7551   2.499   2.237   4.963
 2511SOL    HW2 7552   2.559   2.380   4.913
 2512SOL     OW 7553   2.335   2.362   3.915
 2512SOL    HW1 7554   2.396   2.442   3.919
 2512SOL    HW2 7555   2.240   2.393   3.922
 2513SOL     OW 7556   3.164   2.717   4.033
 2513SOL    HW1 7557   3.078   2.686   4.075
 2513SOL    HW2 7558   3.160   2.703   3.934
 2514SOL     OW 7559   3.621   3.609   4.878
 2514SOL    HW1 7560   3.682   3.639   4.805
 2514SOL    HW2 7561   3.583   3.520   4.856
 2515SOL     OW 7562   1.945   3.120   4.746
 2515SOL    HW1 7563   1.940   3.119   4.846
 2515SOL    HW2 7564   1.862   3.079   4.708
 2516SOL     OW 7565   3.588   1.997   4.247
 2516SOL    HW1 7566   3.661   1.980   4.180
 2516SOL    HW2 7567   3.557   1.910   4.285
 2517SOL     OW 7568   3.250   3.435   4.201
 2517SOL    HW1 7569   3.317   3.447   4.127
 2517SOL    HW2 7570   3.210   3.524   4.224
 2518SOL     OW 7571   3.142   2.789   4.396
 2518SOL    HW1 7572   3.202   2.708   4.398
 2518SOL    HW2 7573   3.182   2.858   4.336
 2519SOL     OW 7574   2.534   3.478   3.878
 2519SOL    HW1 7575   2.543   3.488   3.779
 2519SOL    HW2 7576   2.494   3.389   3.899
 2520SOL     OW 7577   3.703   2.037   4.687
 2520SOL    HW1 7578   3.742   1.952   4.651
 2520SOL    HW2 7579   3.605   2.039   4.668
 2521SOL     OW 7580   2.125   2.188   4.444
 2521SOL    HW1 7581   2.046   2.239   4.410
 2521SOL    HW2 7582   2.116   2.173   4.542
 2522SOL     OW 7583   3.056   3.474   3.755
 2522SOL    HW1 7584   3.062   3.381   3.792
 2522SOL    HW2 7585   2.997   3.474   3.675
 2523SOL     OW 7586   2.778   2.772   4.015
 2523SOL    HW1 7587   2.841   2.810   3.947
 2523SOL    HW2 7588   2.818   2.689   4.054
 2524SOL     OW 7589   3.366   3.469   3.768
 2524SOL    HW1 7590   3.274   3.506   3.775
 2524SOL    HW2 7591   3.404   3.489   3.678
 2525SOL     OW 7592   2.901   2.960   4.420
 2525SOL    HW1 7593   2.831   2.913   4.474
 2525SOL    HW2 7594   2.960   2.892   4.377
 2526SOL     OW 7595   2.876   2.098   4.695
 2526SOL    HW1 7596   2.868   2.062   4.602
 2526SOL    HW2 7597   2.874   2.022   4.760
 2527SOL     OW 7598   2.452   3.349   4.215
 2527SOL    HW1 7599   2.494   3.291   4.145
 2527SOL    HW2 7600   2.408   3.428   4.171
 2528SOL     OW 7601   2.117   3.210   4.014
 2528SOL    HW1 7602   2.021   3.211   3.987
 2528SOL    HW2 7603   2.129   3.263   4.098
 2529SOL     OW 7604   1.937   2.207   3.757
 2529SOL    HW1 7605   1.845   2.179   3.728
 2529SOL    HW2 7606   1.968   2.284   3.701
 2530SOL     OW 7607   1.934   2.028   4.042
 2530SOL    HW1 7608   1.917   2.111   3.988
 2530SOL    HW2 7609   2.024   1.991   4.020
 2531SOL     OW 7610   3.045   3.197   3.843
 2531SOL    HW1 7611   2.946   3.186   3.845
 2531SOL    HW2 7612   3.079   3.212   3.936
 2532SOL     OW 7613   3.355   3.629   4.683
 2532SOL    HW1 7614   3.388   3.693   4.614
 2532SOL    HW2 7615   3.421   3.623   4.758
 2533SOL     OW 7616   3.536   2.745   4.978
 2533SOL    HW1 7617   3.509   2.656   4.941
 2533SOL    HW2 7618   3.537   2.813   4.905
 2534SOL     OW 7619   3.087   2.187   4.173
 2534SOL    HW1 7620   3.152   2.113   4.162
 2534SOL    HW2 7621   3.107   2.237   4.257
 2535SOL     OW 7622   2.456   2.607   4.376
 2535SOL    HW1 7623   2.506   2.692   4.357
 2535SOL    HW2 7624   2.368   2.609   4.328
 2536SOL     OW 7625   2.721   3.236   3.740
 2536SOL    HW1 7626   2.675   3.251   3.828
 2536SOL    HW2 7627   2.765   3.321   3.710
 2537SOL     OW 7628   2.523   3.652   4.677
 2537SOL    HW1 7629   2.477   3.740   4.664
 2537SOL    HW2 7630   2.622   3.664   4.670
 2538SOL     OW 7631   2.721   2.818   4.585
 2538SOL    HW1 7632   2.775   2.749   4.633
 2538SOL    HW2 7633   2.689   2.887   4.651
 2539SOL     OW 7634   2.945   2.846   3.811
 2539SOL    HW1 7635   2.922   2.899   3.729
 2539SOL    HW2 7636   3.026   2.790   3.792
 2540SOL     OW 7637   3.723   3.431   4.575
 2540SOL    HW1 7638   3.652   3.419   4.505
 2540SOL    HW2 7639   3.724   3.352   4.635
 2541SOL     OW 7640   1.941   3.102   4.377
 2541SOL    HW1 7641   1.940   3.055   4.465
 2541SOL    HW2 7642   2.023   3.074   4.326
 2542SOL     OW 7643   3.686   2.054   4.951
 2542SOL    HW1 7644   3.682   1.964   4.995
 2542SOL    HW2 7645   3.689   2.043   4.852
 2543SOL     OW 7646   2.290   2.286   4.244
 2543SOL    HW1 7647   2.320   2.214   4.182
 2543SOL    HW2 7648   2.251   2.246   4.327
 2544SOL     OW 7649   2.674   3.448   4.411
 2544SOL    HW1 7650   2.706   3.458   4.317
 2544SOL    HW2 7651   2.595   3.386   4.413
 2545SOL     OW 7652   3.286   2.076   4.836
 2545SOL    HW1 7653   3.338   2.011   4.891
 2545SOL    HW2 7654   3.237   2.139   4.897
 2546SOL     OW 7655   2.632   3.192   4.025
 2546SOL    HW1 7656   2.586   3.105   4.042
 2546SOL    HW2 7657   2.723   3.189   4.066
 2547SOL     OW 7658   3.214   1.914   3.892
 2547SOL    HW1 7659   3.249   1.873   3.808
 2547SOL    HW2 7660   3.124   1.876   3.912
 2548SOL     OW 7661   3.162   2.315   4.415
 2548SOL    HW1 7662   3.103   2.395   4.419
 2548SOL    HW2 7663   3.177   2.280   4.508
 2549SOL     OW 7664   3.455   2.083   4.606
 2549SOL    HW1 7665   3.371   2.082   4.660
 2549SOL    HW2 7666   3.457   2.166   4.550
 2550SOL     OW 7667   1.901   2.939   4.024
 2550SOL    HW1 7668   2.000   2.928   4.015
 2550SOL    HW2 7669   1.861   2.853   4.056
 2551SOL     OW 7670   2.737   3.508   4.061
 2551SOL    HW1 7671   2.660   3.473   4.007
 2551SOL    HW2 7672   2.705   3.579   4.123
 2552SOL     OW 7673   2.092   4.352   0.113
 2552SOL    HW1 7674   1.999   4.350   0.150
 2552SOL    HW2 7675   2.093   4.313   0.021
 2553SOL     OW 7676   2.087   3.999   0.996
 2553SOL    HW1 7677   2.122   3.982   1.088
 2553SOL    HW2 7678   1.999   3.954   0.984
 2554SOL     OW 7679   1.881   4.092   0.647
 2554SOL    HW1 7680   1.799   4.135   0.686
 2554SOL    HW2 7681   1.853   4.019   0.584
 2555SOL     OW 7682   2.997   4.427   0.717
 2555SOL    HW1 7683   3.054   4.505   0.692
 2555SOL    HW2 7684   2.937   4.453   0.793
 2556SOL     OW 7685   3.617   4.331   0.231
 2556SOL    HW1 7686   3.605   4.318   0.132
 2556SOL    HW2 7687   3.587   4.250   0.280
 2557SOL     OW 7688   2.630   4.868   1.023
 2557SOL    HW1 7689   2.552   4.885   1.083
 2557SOL    HW2 7690   2.664   4.955   0.987
 2558SOL     OW 7691   2.712   4.522   1.823
 2558SOL    HW1 7692   2.708   4.598   1.888
 2558SOL    HW2 7693   2.734   4.558   1.732
 2559SOL     OW 7694   2.547   4.736   0.665
 2559SOL    HW1 7695   2.616   4.720   0.735
 2559SOL    HW2 7696   2.474   4.793   0.703
 2560SOL     OW 7697   2.300   4.116   1.499
 2560SOL    HW1 7698   2.382   4.060   1.508
 2560SOL    HW2 7699   2.219   4.058   1.503
 2561SOL     OW 7700   3.465   4.171   0.737
 2561SOL    HW1 7701   3.391   4.217   0.687
 2561SOL    HW2 7702   3.516   4.239   0.790
 2562SOL     OW 7703   2.092   5.158   0.538
 2562SOL    HW1 7704   2.066   5.254   0.538
 2562SOL    HW2 7705   2.021   5.104   0.583
 2563SOL     OW 7706   2.102   4.815   0.886
 2563SOL    HW1 7707   2.116   4.731   0.938
 2563SOL    HW2 7708   2.047   4.879   0.941
 2564SOL     OW 7709   2.468   4.688   0.123
 2564SOL    HW1 7710   2.475   4.772   0.069
 2564SOL    HW2 7711   2.514   4.701   0.211
 2565SOL     OW 7712   3.456   3.838   1.480
 2565SOL    HW1 7713   3.438   3.905   1.408
 2565SOL    HW2 7714   3.453   3.884   1.569
 2566SOL     OW 7715   1.984   4.367   0.563
 2566SOL    HW1 7716   1.939   4.279   0.580
 2566SOL    HW2 7717   1.983   4.421   0.647
 2567SOL     OW 7718   3.551   4.646   0.612
 2567SOL    HW1 7719   3.646   4.617   0.620
 2567SOL    HW2 7720   3.543   4.711   0.537
 2568SOL     OW 7721   1.975   4.461   1.597
 2568SOL    HW1 7722   2.063   4.448   1.642
 2568SOL    HW2 7723   1.962   4.558   1.575
 2569SOL     OW 7724   3.155   4.952   1.423
 2569SOL    HW1 7725   3.192   4.879   1.365
 2569SOL    HW2 7726   3.207   4.957   1.508
 2570SOL     OW 7727   2.671   3.728   0.502
 2570SOL    HW1 7728   2.711   3.819   0.493
 2570SOL    HW2 7729   2.571   3.736   0.508
 2571SOL     OW 7730   2.059   4.700   1.264
 2571SOL    HW1 7731   2.148   4.655   1.250
 2571SOL    HW2 7732   1.986   4.635   1.245
 2572SOL     OW 7733   3.387   4.723   0.190
 2572SOL    HW1 7734   3.324   4.647   0.203
 2572SOL    HW2 7735   3.435   4.741   0.276
 2573SOL     OW 7736   2.179   3.975   1.801
 2573SOL    HW1 7737   2.250   4.046   1.807
 2573SOL    HW2 7738   2.091   4.014   1.829
 2574SOL     OW 7739   2.460   4.453   0.270
 2574SOL    HW1 7740   2.484   4.522   0.202
 2574SOL    HW2 7741   2.382   4.486   0.324
 2575SOL     OW 7742   3.143   4.069   0.944
 2575SOL    HW1 7743   3.057   4.019   0.931
 2575SOL    HW2 7744   3.205   4.015   1.000
 2576SOL     OW 7745   2.669   4.329   1.465
 2576SOL    HW1 7746   2.622   4.326   1.554
 2576SOL    HW2 7747   2.618   4.274   1.399
 2577SOL     OW 7748   3.256   4.193   1.674
 2577SOL    HW1 7749   3.236   4.236   1.762
 2577SOL    HW2 7750   3.334   4.131   1.683
 2578SOL     OW 7751   2.835   4.614   1.572
 2578SOL    HW1 7752   2.881   4.530   1.543
 2578SOL    HW2 7753   2.779   4.648   1.497
 2579SOL     OW 7754   2.853   4.134   1.242
 2579SOL    HW1 7755   2.776   4.168   1.296
 2579SOL    HW2 7756   2.819   4.083   1.163
 2580SOL     OW 7757   2.903   4.425   0.429
 2580SOL    HW1 7758   2.929   4.421   0.525
 2580SOL    HW2 7759   2.818   4.374   0.415
 2581SOL     OW 7760   1.938   4.535   0.789
 2581SOL    HW1 7761   2.037   4.523   0.798
 2581SOL    HW2 7762   1.914   4.630   0.810
 2582SOL     OW 7763   2.727   4.072   0.195
 2582SOL    HW1 7764   2.786   4.135   0.146
 2582SOL    HW2 7765   2.746   3.978   0.166
 2583SOL     OW 7766   3.581   4.309   1.831
 2583SOL    HW1 7767   3.555   4.398   1.795
 2583SOL    HW2 7768   3.579   4.241   1.758
 2584SOL     OW 7769   2.412   3.920   0.885
 2584SOL    HW1 7770   2.407   3.915   0.985
 2584SOL    HW2 7771   2.414   4.016   0.856
 2585SOL     OW 7772   3.657   4.790   0.873
 2585SOL    HW1 7773   3.595   4.775   0.797
 2585SOL    HW2 7774   3.605   4.801   0.958
 2586SOL     OW 7775   2.183   4.667   0.242
 2586SOL    HW1 7776   2.265   4.706   0.200
 2586SOL    HW2 7777   2.156   4.585   0.193
 2587SOL     OW 7778   3.320   4.459   0.728
 2587SOL    HW1 7779   3.315   4.394   0.803
 2587SOL    HW2 7780   3.400   4.518   0.741
 2588SOL     OW 7781   2.064   4.009   1.498
 2588SOL    HW1 7782   1.984   4.069   1.485
 2588SOL    HW2 7783   2.054   3.960   1.584
 2589SOL     OW 7784   3.262   3.831   0.426
 2589SOL    HW1 7785   3.238   3.794   0.336
 2589SOL    HW2 7786   3.361   3.847   0.430
 2590SOL     OW 7787   2.244   4.424   0.480
 2590SOL    HW1 7788   2.289   4.334   0.477
 2590SOL    HW2 7789   2.150   4.413   0.513
 2591SOL     OW 7790   3.409   3.946   1.729
 2591SOL    HW1 7791   3.404   3.983   1.821
 2591SOL    HW2 7792   3.337   3.877   1.717
 2592SOL     OW 7793   2.476   3.846   0.117
 2592SOL    HW1 7794   2.574   3.824   0.124
 2592SOL    HW2 7795   2.445   3.829   0.024
 2593SOL     OW 7796   2.643   3.988   1.749
 2593SOL    HW1 7797   2.710   3.927   1.792
 2593SOL    HW2 7798   2.570   4.007   1.814
 2594SOL     OW 7799   3.213   4.314   1.433
 2594SOL    HW1 7800   3.241   4.271   1.518
 2594SOL    HW2 7801   3.238   4.410   1.434
 2595SOL     OW 7802   2.784   4.227   0.899
 2595SOL    HW1 7803   2.759   4.218   0.803
 2595SOL    HW2 7804   2.832   4.145   0.930
 2596SOL     OW 7805   2.401   3.788   0.512
 2596SOL    HW1 7806   2.320   3.789   0.570
 2596SOL    HW2 7807   2.404   3.871   0.457
 2597SOL     OW 7808   2.797   3.960   0.480
 2597SOL    HW1 7809   2.749   4.001   0.402
 2597SOL    HW2 7810   2.896   3.958   0.461
 2598SOL     OW 7811   2.938   4.407   1.464
 2598SOL    HW1 7812   2.858   4.346   1.467
 2598SOL    HW2 7813   3.019   4.354   1.440
 2599SOL     OW 7814   2.894   4.273   0.016
 2599SOL    HW1 7815   2.853   4.355  -0.023
 2599SOL    HW2 7816   2.958   4.299   0.089
 2600SOL     OW 7817   1.940   4.280   1.386
 2600SOL    HW1 7818   2.032   4.279   1.345
 2600SOL    HW2 7819   1.934   4.354   1.453
 2601SOL     OW 7820   2.423   3.946   1.147
 2601SOL    HW1 7821   2.461   3.862   1.184
 2601SOL    HW2 7822   2.335   3.965   1.191
 2602SOL     OW 7823   2.728   4.178   0.642
 2602SOL    HW1 7824   2.696   4.250   0.580
 2602SOL    HW2 7825   2.752   4.097   0.589
 2603SOL     OW 7826   2.879   3.763   0.753
 2603SOL    HW1 7827   2.807   3.768   0.684
 2603SOL    HW2 7828   2.855   3.694   0.822
 2604SOL     OW 7829   3.291   4.897   0.867
 2604SOL    HW1 7830   3.236   4.813   0.860
 2604SOL    HW2 7831   3.317   4.926   0.775
 2605SOL     OW 7832   3.328   4.314   0.992
 2605SOL    HW1 7833   3.298   4.219   0.999
 2605SOL    HW2 7834   3.401   4.330   1.058
 2606SOL     OW 7835   3.719   4.557   0.377
 2606SOL    HW1 7836   3.761   4.493   0.441
 2606SOL    HW2 7837   3.681   4.506   0.299
 2607SOL     OW 7838   3.252   4.299   0.078
 2607SOL    HW1 7839   3.198   4.278   0.159
 2607SOL    HW2 7840   3.343   4.258   0.087
 2608SOL     OW 7841   2.389   3.980   0.328
 2608SOL    HW1 7842   2.416   3.921   0.253
 2608SOL    HW2 7843   2.389   4.075   0.297
 2609SOL     OW 7844   3.616   4.947   1.588
 2609SOL    HW1 7845   3.707   4.908   1.575
 2609SOL    HW2 7846   3.624   5.043   1.612
 2610SOL     OW 7847   3.500   4.823   1.079
 2610SOL    HW1 7848   3.505   4.904   1.138
 2610SOL    HW2 7849   3.414   4.825   1.028
 2611SOL     OW 7850   2.777   3.813   1.402
 2611SOL    HW1 7851   2.802   3.793   1.307
 2611SOL    HW2 7852   2.849   3.869   1.444
 2612SOL     OW 7853   2.272   4.537   1.251
 2612SOL    HW1 7854   2.358   4.549   1.301
 2612SOL    HW2 7855   2.230   4.450   1.278
 2613SOL     OW 7856   3.136   4.110   1.262
 2613SOL    HW1 7857   3.157   4.184   1.326
 2613SOL    HW2 7858   3.047   4.127   1.219
 2614SOL     OW 7859   2.229   4.824   0.501
 2614SOL    HW1 7860   2.222   4.907   0.445
 2614SOL    HW2 7861   2.233   4.744   0.441
 2615SOL     OW 7862   2.428   4.261   0.865
 2615SOL    HW1 7863   2.440   4.327   0.791
 2615SOL    HW2 7864   2.474   4.295   0.948
 2616SOL     OW 7865   3.444   4.363   0.472
 2616SOL    HW1 7866   3.413   4.424   0.545
 2616SOL    HW2 7867   3.494   4.415   0.403
 2617SOL     OW 7868   2.264   4.475   1.598
 2617SOL    HW1 7869   2.332   4.530   1.551
 2617SOL    HW2 7870   2.304   4.387   1.625
 2618SOL     OW 7871   3.449   4.503   1.670
 2618SOL    HW1 7872   3.357   4.541   1.665
 2618SOL    HW2 7873   3.509   4.550   1.605
 2619SOL     OW 7874   2.875   3.829   1.770
 2619SOL    HW1 7875   2.881   3.914   1.718
 2619SOL    HW2 7876   2.907   3.753   1.713
 2620SOL     OW 7877   2.366   3.774   1.740
 2620SOL    HW1 7878   2.324   3.717   1.670
 2620SOL    HW2 7879   2.300   3.843   1.772
 2621SOL     OW 7880   2.435   4.594   1.029
 2621SOL    HW1 7881   2.479   4.683   1.020
 2621SOL    HW2 7882   2.372   4.594   1.106
 2622SOL     OW 7883   3.222   4.586   1.045
 2622SOL    HW1 7884   3.147   4.586   0.979
 2622SOL    HW2 7885   3.259   4.494   1.054
 2623SOL     OW 7886   3.071   4.249   0.275
 2623SOL    HW1 7887   3.084   4.165   0.329
 2623SOL    HW2 7888   3.042   4.323   0.335
 2624SOL     OW 7889   2.169   3.937   1.231
 2624SOL    HW1 7890   2.146   3.974   1.321
 2624SOL    HW2 7891   2.139   3.842   1.225
 2625SOL     OW 7892   2.594   4.358   1.064
 2625SOL    HW1 7893   2.653   4.332   0.988
 2625SOL    HW2 7894   2.566   4.454   1.053
 2626SOL     OW 7895   3.590   4.659   1.854
 2626SOL    HW1 7896   3.544   4.652   1.765
 2626SOL    HW2 7897   3.528   4.703   1.920
 2627SOL     OW 7898   2.169   3.787   0.618
 2627SOL    HW1 7899   2.158   3.881   0.651
 2627SOL    HW2 7900   2.164   3.724   0.695
 2628SOL     OW 7901   3.484   4.091   0.374
 2628SOL    HW1 7902   3.486   4.015   0.438
 2628SOL    HW2 7903   3.436   4.168   0.414
 2629SOL     OW 7904   2.885   4.490   0.966
 2629SOL    HW1 7905   2.900   4.511   1.062
 2629SOL    HW2 7906   2.855   4.395   0.957
 2630SOL     OW 7907   2.212   4.622   1.804
 2630SOL    HW1 7908   2.288   4.666   1.852
 2630SOL    HW2 7909   2.247   4.575   1.722
 2631SOL     OW 7910   3.402   3.998   0.125
 2631SOL    HW1 7911   3.341   3.923   0.148
 2631SOL    HW2 7912   3.424   4.050   0.208
 2632SOL     OW 7913   3.165   4.562   0.042
 2632SOL    HW1 7914   3.199   4.469   0.057
 2632SOL    HW2 7915   3.183   4.589  -0.053
 2633SOL     OW 7916   2.181   4.534   0.949
 2633SOL    HW1 7917   2.274   4.570   0.954
 2633SOL    HW2 7918   2.175   4.449   1.001
 2634SOL     OW 7919   2.201   4.233   1.006
 2634SOL    HW1 7920   2.149   4.150   0.989
 2634SOL    HW2 7921   2.278   4.238   0.942
 2635SOL     OW 7922   3.000   4.104   1.678
 2635SOL    HW1 7923   2.955   4.167   1.742
 2635SOL    HW2 7924   3.093   4.135   1.661
 2636SOL     OW 7925   3.022   3.931   1.477
 2636SOL    HW1 7926   3.022   3.995   1.554
 2636SOL    HW2 7927   3.050   3.979   1.394
 2637SOL     OW 7928   2.864   4.520   1.238
 2637SOL    HW1 7929   2.905   4.488   1.324
 2637SOL    HW2 7930   2.768   4.493   1.235
 2638SOL     OW 7931   1.902   4.268   1.114
 2638SOL    HW1 7932   1.987   4.235   1.073
 2638SOL    HW2 7933   1.915   4.283   1.212
 2639SOL     OW 7934   2.051   4.244   1.722
 2639SOL    HW1 7935   2.110   4.204   1.652
 2639SOL    HW2 7936   1.993   4.315   1.681
 2640SOL     OW 7937   3.231   4.674   1.660
 2640SOL    HW1 7938   3.270   4.763   1.680
 2640SOL    HW2 7939   3.241   4.654   1.563
 2641SOL     OW 7940   2.677   4.296   0.325
 2641SOL    HW1 7941   2.684   4.207   0.279
 2641SOL    HW2 7942   2.583   4.330   0.317
 2642SOL     OW 7943   3.519   4.328   1.206
 2642SOL    HW1 7944   3.481   4.259   1.268
 2642SOL    HW2 7945   3.601   4.292   1.162
 2643SOL     OW 7946   2.533   4.188   1.269
 2643SOL    HW1 7947   2.499   4.099   1.239
 2643SOL    HW2 7948   2.559   4.242   1.189
 2644SOL     OW 7949   2.335   4.224   0.191
 2644SOL    HW1 7950   2.396   4.304   0.195
 2644SOL    HW2 7951   2.240   4.255   0.198
 2645SOL     OW 7952   2.021   4.861   1.466
 2645SOL    HW1 7953   2.043   4.800   1.542
 2645SOL    HW2 7954   2.031   4.812   1.380
 2646SOL     OW 7955   3.209   4.783   1.234
 2646SOL    HW1 7956   3.233   4.720   1.160
 2646SOL    HW2 7957   3.119   4.823   1.216
 2647SOL     OW 7958   3.164   4.579   0.309
 2647SOL    HW1 7959   3.078   4.548   0.351
 2647SOL    HW2 7960   3.160   4.565   0.210
 2648SOL     OW 7961   2.765   3.810   0.133
 2648SOL    HW1 7962   2.816   3.811   0.047
 2648SOL    HW2 7963   2.821   3.768   0.204
 2649SOL     OW 7964   3.588   3.859   0.523
 2649SOL    HW1 7965   3.661   3.842   0.456
 2649SOL    HW2 7966   3.557   3.772   0.561
 2650SOL     OW 7967   3.142   4.651   0.672
 2650SOL    HW1 7968   3.202   4.570   0.674
 2650SOL    HW2 7969   3.182   4.720   0.612
 2651SOL     OW 7970   3.703   3.899   0.963
 2651SOL    HW1 7971   3.742   3.814   0.927
 2651SOL    HW2 7972   3.605   3.901   0.944
 2652SOL     OW 7973   2.125   4.050   0.720
 2652SOL    HW1 7974   2.046   4.101   0.686
 2652SOL    HW2 7975   2.116   4.035   0.818
 2653SOL     OW 7976   2.684   4.726   1.372
 2653SOL    HW1 7977   2.724   4.725   1.280
 2653SOL    HW2 7978   2.694   4.818   1.412
 2654SOL     OW 7979   2.778   4.634   0.291
 2654SOL    HW1 7980   2.841   4.672   0.223
 2654SOL    HW2 7981   2.818   4.551   0.330
 2655SOL     OW 7982   2.876   3.960   0.971
 2655SOL    HW1 7983   2.868   3.924   0.878
 2655SOL    HW2 7984   2.874   3.884   1.036
 2656SOL     OW 7985   3.571   4.109   1.381
 2656SOL    HW1 7986   3.644   4.178   1.385
 2656SOL    HW2 7987   3.599   4.034   1.322
 2657SOL     OW 7988   1.967   4.737   1.726
 2657SOL    HW1 7989   1.890   4.704   1.780
 2657SOL    HW2 7990   2.052   4.707   1.768
 2658SOL     OW 7991   2.534   3.927   1.489
 2658SOL    HW1 7992   2.624   3.911   1.449
 2658SOL    HW2 7993   2.542   3.932   1.588
 2659SOL     OW 7994   3.302   4.580   1.398
 2659SOL    HW1 7995   3.245   4.632   1.335
 2659SOL    HW2 7996   3.398   4.592   1.374
 2660SOL     OW 7997   1.934   3.890   0.318
 2660SOL    HW1 7998   1.917   3.973   0.264
 2660SOL    HW2 7999   2.024   3.853   0.296
 2661SOL     OW 8000   3.045   5.059   0.119
 2661SOL    HW1 8001   2.946   5.048   0.121
 2661SOL    HW2 8002   3.079   5.074   0.212
 2662SOL     OW 8003   2.475   4.566   1.431
 2662SOL    HW1 8004   2.531   4.647   1.414
 2662SOL    HW2 8005   2.534   4.486   1.434
 2663SOL     OW 8006   2.578   4.289   1.708
 2663SOL    HW1 8007   2.597   4.354   1.782
 2663SOL    HW2 8008   2.638   4.209   1.717
 2664SOL     OW 8009   3.536   4.607   1.254
 2664SOL    HW1 8010   3.509   4.518   1.217
 2664SOL    HW2 8011   3.537   4.675   1.181
 2665SOL     OW 8012   3.087   4.049   0.449
 2665SOL    HW1 8013   3.152   3.975   0.438
 2665SOL    HW2 8014   3.107   4.099   0.533
 2666SOL     OW 8015   2.456   4.469   0.652
 2666SOL    HW1 8016   2.506   4.554   0.633
 2666SOL    HW2 8017   2.368   4.471   0.604
 2667SOL     OW 8018   3.639   4.066   1.642
 2667SOL    HW1 8019   3.622   4.097   1.548
 2667SOL    HW2 8020   3.555   4.029   1.680
 2668SOL     OW 8021   3.592   4.658   1.517
 2668SOL    HW1 8022   3.630   4.749   1.532
 2668SOL    HW2 8023   3.584   4.641   1.418
 2669SOL     OW 8024   2.721   4.680   0.861
 2669SOL    HW1 8025   2.775   4.611   0.909
 2669SOL    HW2 8026   2.689   4.749   0.927
 2670SOL     OW 8027   2.945   4.708   0.087
 2670SOL    HW1 8028   2.922   4.761   0.005
 2670SOL    HW2 8029   3.026   4.652   0.068
 2671SOL     OW 8030   3.686   3.916   1.227
 2671SOL    HW1 8031   3.682   3.826   1.271
 2671SOL    HW2 8032   3.689   3.905   1.128
 2672SOL     OW 8033   2.290   4.148   0.520
 2672SOL    HW1 8034   2.320   4.076   0.458
 2672SOL    HW2 8035   2.251   4.108   0.603
 2673SOL     OW 8036   2.179   4.271   1.280
 2673SOL    HW1 8037   2.217   4.212   1.352
 2673SOL    HW2 8038   2.219   4.245   1.192
 2674SOL     OW 8039   3.286   3.938   1.112
 2674SOL    HW1 8040   3.338   3.873   1.167
 2674SOL    HW2 8041   3.237   4.001   1.173
 2675SOL     OW 8042   2.863   3.758   1.154
 2675SOL    HW1 8043   2.800   3.686   1.123
 2675SOL    HW2 8044   2.956   3.722   1.154
 2676SOL     OW 8045   3.214   3.776   0.168
 2676SOL    HW1 8046   3.249   3.735   0.084
 2676SOL    HW2 8047   3.124   3.738   0.188
 2677SOL     OW 8048   3.162   4.177   0.691
 2677SOL    HW1 8049   3.103   4.257   0.695
 2677SOL    HW2 8050   3.177   4.142   0.784
 2678SOL     OW 8051   3.455   3.945   0.882
 2678SOL    HW1 8052   3.371   3.944   0.936
 2678SOL    HW2 8053   3.457   4.028   0.826
 2679SOL     OW 8054   1.901   4.801   0.300
 2679SOL    HW1 8055   2.000   4.790   0.291
 2679SOL    HW2 8056   1.861   4.715   0.332
 2680SOL     OW 8057   2.092   4.352   1.975
 2680SOL    HW1 8058   1.999   4.350   2.012
 2680SOL    HW2 8059   2.093   4.313   1.883
 2681SOL     OW 8060   2.087   3.999   2.858
 2681SOL    HW1 8061   2.122   3.982   2.950
 2681SOL    HW2 8062   1.999   3.954   2.846
 2682SOL     OW 8063   1.881   4.092   2.509
 2682SOL    HW1 8064   1.799   4.135   2.548
 2682SOL    HW2 8065   1.853   4.019   2.446
 2683SOL     OW 8066   2.997   4.427   2.579
 2683SOL    HW1 8067   3.054   4.505   2.554
 2683SOL    HW2 8068   2.937   4.453   2.655
 2684SOL     OW 8069   3.617   4.331   2.093
 2684SOL    HW1 8070   3.605   4.318   1.994
 2684SOL    HW2 8071   3.587   4.250   2.142
 2685SOL     OW 8072   2.630   4.868   2.885
 2685SOL    HW1 8073   2.552   4.885   2.945
 2685SOL    HW2 8074   2.664   4.955   2.849
 2686SOL     OW 8075   2.712   4.522   3.685
 2686SOL    HW1 8076   2.708   4.598   3.750
 2686SOL    HW2 8077   2.734   4.558   3.594
 2687SOL     OW 8078   2.547   4.736   2.527
 2687SOL    HW1 8079   2.616   4.720   2.597
 2687SOL    HW2 8080   2.474   4.793   2.565
 2688SOL     OW 8081   2.300   4.116   3.361
 2688SOL    HW1 8082   2.382   4.060   3.370
 2688SOL    HW2 8083   2.219   4.058   3.365
 2689SOL     OW 8084   3.465   4.171   2.599
 2689SOL    HW1 8085   3.391   4.217   2.549
 2689SOL    HW2 8086   3.516   4.239   2.652
 2690SOL     OW 8087   2.092   5.158   2.400
 2690SOL    HW1 8088   2.066   5.254   2.400
 2690SOL    HW2 8089   2.021   5.104   2.445
 2691SOL     OW 8090   2.102   4.815   2.748
 2691SOL    HW1 8091   2.116   4.731   2.800
 2691SOL    HW2 8092   2.047   4.879   2.803
 2692SOL     OW 8093   2.468   4.688   1.985
 2692SOL    HW1 8094   2.475   4.772   1.931
 2692SOL    HW2 8095   2.514   4.701   2.073
 2693SOL     OW 8096   3.456   3.838   3.342
 2693SOL    HW1 8097   3.438   3.905   3.270
 2693SOL    HW2 8098   3.453   3.884   3.431
 2694SOL     OW 8099   1.984   4.367   2.425
 2694SOL    HW1 8100   1.939   4.279   2.442
 2694SOL    HW2 8101   1.983   4.421   2.509
 2695SOL     OW 8102   3.551   4.646   2.474
 2695SOL    HW1 8103   3.646   4.617   2.482
 2695SOL    HW2 8104   3.543   4.711   2.399
 2696SOL     OW 8105   1.975   4.461   3.459
 2696SOL    HW1 8106   2.063   4.448   3.504
 2696SOL    HW2 8107   1.962   4.558   3.437
 2697SOL     OW 8108   3.155   4.952   3.285
 2697SOL    HW1 8109   3.192   4.879   3.227
 2697SOL    HW2 8110   3.207   4.957   3.370
 2698SOL     OW 8111   2.671   3.728   2.364
 2698SOL    HW1 8112   2.711   3.819   2.355
 2698SOL    HW2 8113   2.571   3.736   2.370
 2699SOL     OW 8114   2.059   4.700   3.126
 2699SOL    HW1 8115   2.148   4.655   3.112
 2699SOL    HW2 8116   1.986   4.635   3.107
 2700SOL     OW 8117   3.387   4.723   2.052
 2700SOL    HW1 8118   3.324   4.647   2.065
 2700SOL    HW2 8119   3.435   4.741   2.138
 2701SOL     OW 8120   2.179   3.975   3.663
 2701SOL    HW1 8121   2.250   4.046   3.669
 2701SOL    HW2 8122   2.091   4.014   3.691
 2702SOL     OW 8123   2.460   4.453   2.132
 2702SOL    HW1 8124   2.484   4.522   2.064
 2702SOL    HW2 8125   2.382   4.486   2.186
 2703SOL     OW 8126   3.143   4.069   2.806
 2703SOL    HW1 8127   3.057   4.019   2.793
 2703SOL    HW2 8128   3.205   4.015   2.862
 2704SOL     OW 8129   2.669   4.329   3.327
 2704SOL    HW1 8130   2.622   4.326   3.416
 2704SOL    HW2 8131   2.618   4.274   3.261
 2705SOL     OW 8132   3.256   4.193   3.536
 2705SOL    HW1 8133   3.236   4.236   3.624
 2705SOL    HW2 8134   3.334   4.131   3.545
 2706SOL     OW 8135   2.835   4.614   3.434
 2706SOL    HW1 8136   2.881   4.530   3.405
 2706SOL    HW2 8137   2.779   4.648   3.359
 2707SOL     OW 8138   2.853   4.134   3.104
 2707SOL    HW1 8139   2.776   4.168   3.158
 2707SOL    HW2 8140   2.819   4.083   3.025
 2708SOL     OW 8141   2.903   4.425   2.291
 2708SOL    HW1 8142   2.929   4.421   2.387
 2708SOL    HW2 8143   2.818   4.374   2.277
 2709SOL     OW 8144   1.938   4.535   2.651
 2709SOL    HW1 8145   2.037   4.523   2.660
 2709SOL    HW2 8146   1.914   4.630   2.672
 2710SOL     OW 8147   2.727   4.072   2.057
 2710SOL    HW1 8148   2.786   4.135   2.008
 2710SOL    HW2 8149   2.746   3.978   2.028
 2711SOL     OW 8150   3.581   4.309   3.693
 2711SOL    HW1 8151   3.555   4.398   3.657
 2711SOL    HW2 8152   3.579   4.241   3.620
 2712SOL     OW 8153   2.412   3.920   2.747
 2712SOL    HW1 8154   2.407   3.915   2.847
 2712SOL    HW2 8155   2.414   4.016   2.718
 2713SOL     OW 8156   3.657   4.790   2.735
 2713SOL    HW1 8157   3.595   4.775   2.659
 2713SOL    HW2 8158   3.605   4.801   2.820
 2714SOL     OW 8159   2.183   4.667   2.104
 2714SOL    HW1 8160   2.265   4.706   2.062
 2714SOL    HW2 8161   2.156   4.585   2.055
 2715SOL     OW 8162   3.320   4.459   2.590
 2715SOL    HW1 8163   3.315   4.394   2.665
 2715SOL    HW2 8164   3.400   4.518   2.603
 2716SOL     OW 8165   2.064   4.009   3.360
 2716SOL    HW1 8166   1.984   4.069   3.347
 2716SOL    HW2 8167   2.054   3.960   3.446
 2717SOL     OW 8168   3.262   3.831   2.288
 2717SOL    HW1 8169   3.238   3.794   2.198
 2717SOL    HW2 8170   3.361   3.847   2.292
 2718SOL     OW 8171   2.244   4.424   2.342
 2718SOL    HW1 8172   2.289   4.334   2.339
 2718SOL    HW2 8173   2.150   4.413   2.375
 2719SOL     OW 8174   3.409   3.946   3.591
 2719SOL    HW1 8175   3.404   3.983   3.683
 2719SOL    HW2 8176   3.337   3.877   3.579
 2720SOL     OW 8177   2.476   3.846   1.979
 2720SOL    HW1 8178   2.574   3.824   1.986
 2720SOL    HW2 8179   2.445   3.829   1.886
 2721SOL     OW 8180   2.643   3.988   3.611
 2721SOL    HW1 8181   2.710   3.927   3.654
 2721SOL    HW2 8182   2.570   4.007   3.676
 2722SOL     OW 8183   3.213   4.314   3.295
 2722SOL    HW1 8184   3.241   4.271   3.380
 2722SOL    HW2 8185   3.238   4.410   3.296
 2723SOL     OW 8186   2.784   4.227   2.761
 2723SOL    HW1 8187   2.759   4.218   2.665
 2723SOL    HW2 8188   2.832   4.145   2.792
 2724SOL     OW 8189   2.401   3.788   2.374
 2724SOL    HW1 8190   2.320   3.789   2.432
 2724SOL    HW2 8191   2.404   3.871   2.319
 2725SOL     OW 8192   2.159   3.759   2.033
 2725SOL    HW1 8193   2.208   3.843   2.012
 2725SOL    HW2 8194   2.221   3.694   2.078
 2726SOL     OW 8195   2.797   3.960   2.342
 2726SOL    HW1 8196   2.749   4.001   2.264
 2726SOL    HW2 8197   2.896   3.958   2.323
 2727SOL     OW 8198   2.938   4.407   3.326
 2727SOL    HW1 8199   2.858   4.346   3.329
 2727SOL    HW2 8200   3.019   4.354   3.302
 2728SOL     OW 8201   2.894   4.273   1.878
 2728SOL    HW1 8202   2.853   4.355   1.839
 2728SOL    HW2 8203   2.958   4.299   1.951
 2729SOL     OW 8204   1.940   4.280   3.248
 2729SOL    HW1 8205   2.032   4.279   3.207
 2729SOL    HW2 8206   1.934   4.354   3.315
 2730SOL     OW 8207   2.423   3.946   3.009
 2730SOL    HW1 8208   2.461   3.862   3.046
 2730SOL    HW2 8209   2.335   3.965   3.053
 2731SOL     OW 8210   2.728   4.178   2.504
 2731SOL    HW1 8211   2.696   4.250   2.442
 2731SOL    HW2 8212   2.752   4.097   2.451
 2732SOL     OW 8213   2.879   3.763   2.615
 2732SOL    HW1 8214   2.807   3.768   2.546
 2732SOL    HW2 8215   2.855   3.694   2.684
 2733SOL     OW 8216   3.291   4.897   2.729
 2733SOL    HW1 8217   3.236   4.813   2.722
 2733SOL    HW2 8218   3.317   4.926   2.637
 2734SOL     OW 8219   3.328   4.314   2.854
 2734SOL    HW1 8220   3.298   4.219   2.861
 2734SOL    HW2 8221   3.401   4.330   2.920
 2735SOL     OW 8222   3.719   4.557   2.239
 2735SOL    HW1 8223   3.761   4.493   2.303
 2735SOL    HW2 8224   3.681   4.506   2.161
 2736SOL     OW 8225   3.252   4.299   1.940
 2736SOL    HW1 8226   3.198   4.278   2.021
 2736SOL    HW2 8227   3.343   4.258   1.949
 2737SOL     OW 8228   2.389   3.980   2.190
 2737SOL    HW1 8229   2.416   3.921   2.115
 2737SOL    HW2 8230   2.389   4.075   2.159
 2738SOL     OW 8231   3.616   4.947   3.450
 2738SOL    HW1 8232   3.707   4.908   3.437
 2738SOL    HW2 8233   3.624   5.043   3.474
 2739SOL     OW 8234   3.500   4.823   2.941
 2739SOL    HW1 8235   3.505   4.904   3.000
 2739SOL    HW2 8236   3.414   4.825   2.890
 2740SOL     OW 8237   2.777   3.813   3.264
 2740SOL    HW1 8238   2.802   3.793   3.169
 2740SOL    HW2 8239   2.849   3.869   3.306
 2741SOL     OW 8240   2.272   4.537   3.113
 2741SOL    HW1 8241   2.358   4.549   3.163
 2741SOL    HW2 8242   2.230   4.450   3.140
 2742SOL     OW 8243   3.136   4.110   3.124
 2742SOL    HW1 8244   3.157   4.184   3.188
 2742SOL    HW2 8245   3.047   4.127   3.081
 2743SOL     OW 8246   2.229   4.824   2.363
 2743SOL    HW1 8247   2.222   4.907   2.307
 2743SOL    HW2 8248   2.233   4.744   2.303
 2744SOL     OW 8249   2.428   4.261   2.727
 2744SOL    HW1 8250   2.440   4.327   2.653
 2744SOL    HW2 8251   2.474   4.295   2.810
 2745SOL     OW 8252   3.444   4.363   2.334
 2745SOL    HW1 8253   3.413   4.424   2.407
 2745SOL    HW2 8254   3.494   4.415   2.265
 2746SOL     OW 8255   2.264   4.475   3.460
 2746SOL    HW1 8256   2.332   4.530   3.413
 2746SOL    HW2 8257   2.304   4.387   3.487
 2747SOL     OW 8258   3.449   4.503   3.532
 2747SOL    HW1 8259   3.357   4.541   3.527
 2747SOL    HW2 8260   3.509   4.550   3.467
 2748SOL     OW 8261   2.875   3.829   3.632
 2748SOL    HW1 8262   2.881   3.914   3.580
 2748SOL    HW2 8263   2.907   3.753   3.575
 2749SOL     OW 8264   2.366   3.774   3.602
 2749SOL    HW1 8265   2.324   3.717   3.532
 2749SOL    HW2 8266   2.300   3.843   3.634
 2750SOL     OW 8267   2.435   4.594   2.891
 2750SOL    HW1 8268   2.479   4.683   2.882
 2750SOL    HW2 8269   2.372   4.594   2.968
 2751SOL     OW 8270   3.222   4.586   2.907
 2751SOL    HW1 8271   3.147   4.586   2.841
 2751SOL    HW2 8272   3.259   4.494   2.916
 2752SOL     OW 8273   3.071   4.249   2.137
 2752SOL    HW1 8274   3.084   4.165   2.191
 2752SOL    HW2 8275   3.042   4.323   2.197
 2753SOL     OW 8276   2.169   3.937   3.093
 2753SOL    HW1 8277   2.146   3.974   3.183
 2753SOL    HW2 8278   2.139   3.842   3.087
 2754SOL     OW 8279   2.594   4.358   2.926
 2754SOL    HW1 8280   2.653   4.332   2.850
 2754SOL    HW2 8281   2.566   4.454   2.915
 2755SOL     OW 8282   3.590   4.659   3.716
 2755SOL    HW1 8283   3.544   4.652   3.627
 2755SOL    HW2 8284   3.528   4.703   3.782
 2756SOL     OW 8285   2.169   3.787   2.480
 2756SOL    HW1 8286   2.158   3.881   2.513
 2756SOL    HW2 8287   2.164   3.724   2.557
 2757SOL     OW 8288   3.484   4.091   2.236
 2757SOL    HW1 8289   3.486   4.015   2.300
 2757SOL    HW2 8290   3.436   4.168   2.276
 2758SOL     OW 8291   2.885   4.490   2.828
 2758SOL    HW1 8292   2.900   4.511   2.924
 2758SOL    HW2 8293   2.855   4.395   2.819
 2759SOL     OW 8294   2.212   4.622   3.666
 2759SOL    HW1 8295   2.288   4.666   3.714
 2759SOL    HW2 8296   2.247   4.575   3.584
 2760SOL     OW 8297   3.402   3.998   1.987
 2760SOL    HW1 8298   3.341   3.923   2.010
 2760SOL    HW2 8299   3.424   4.050   2.070
 2761SOL     OW 8300   3.165   4.562   1.904
 2761SOL    HW1 8301   3.199   4.469   1.919
 2761SOL    HW2 8302   3.183   4.589   1.809
 2762SOL     OW 8303   2.181   4.534   2.811
 2762SOL    HW1 8304   2.274   4.570   2.816
 2762SOL    HW2 8305   2.175   4.449   2.863
 2763SOL     OW 8306   2.201   4.233   2.868
 2763SOL    HW1 8307   2.149   4.150   2.851
 2763SOL    HW2 8308   2.278   4.238   2.804
 2764SOL     OW 8309   3.000   4.104   3.540
 2764SOL    HW1 8310   2.955   4.167   3.604
 2764SOL    HW2 8311   3.093   4.135   3.523
 2765SOL     OW 8312   3.022   3.931   3.339
 2765SOL    HW1 8313   3.022   3.995   3.416
 2765SOL    HW2 8314   3.050   3.979   3.256
 2766SOL     OW 8315   2.864   4.520   3.100
 2766SOL    HW1 8316   2.905   4.488   3.186
 2766SOL    HW2 8317   2.768   4.493   3.097
 2767SOL     OW 8318   1.902   4.268   2.976
 2767SOL    HW1 8319   1.987   4.235   2.935
 2767SOL    HW2 8320   1.915   4.283   3.074
 2768SOL     OW 8321   2.051   4.244   3.584
 2768SOL    HW1 8322   2.110   4.204   3.514
 2768SOL    HW2 8323   1.993   4.315   3.543
 2769SOL     OW 8324   3.231   4.674   3.522
 2769SOL    HW1 8325   3.270   4.763   3.542
 2769SOL    HW2 8326   3.241   4.654   3.425
 2770SOL     OW 8327   2.677   4.296   2.187
 2770SOL    HW1 8328   2.684   4.207   2.141
 2770SOL    HW2 8329   2.583   4.330   2.179
 2771SOL     OW 8330   3.519   4.328   3.068
 2771SOL    HW1 8331   3.481   4.259   3.130
 2771SOL    HW2 8332   3.601   4.292   3.024
 2772SOL     OW 8333   2.533   4.188   3.131
 2772SOL    HW1 8334   2.499   4.099   3.101
 2772SOL    HW2 8335   2.559   4.242   3.051
 2773SOL     OW 8336   2.335   4.224   2.053
 2773SOL    HW1 8337   2.396   4.304   2.057
 2773SOL    HW2 8338   2.240   4.255   2.060
 2774SOL     OW 8339   2.021   4.861   3.328
 2774SOL    HW1 8340   2.043   4.800   3.404
 2774SOL    HW2 8341   2.031   4.812   3.242
 2775SOL     OW 8342   3.209   4.783   3.096
 2775SOL    HW1 8343   3.233   4.720   3.022
 2775SOL    HW2 8344   3.119   4.823   3.078
 2776SOL     OW 8345   3.164   4.579   2.171
 2776SOL    HW1 8346   3.078   4.548   2.213
 2776SOL    HW2 8347   3.160   4.565   2.072
 2777SOL     OW 8348   3.588   3.859   2.385
 2777SOL    HW1 8349   3.661   3.842   2.318
 2777SOL    HW2 8350   3.557   3.772   2.423
 2778SOL     OW 8351   3.142   4.651   2.534
 2778SOL    HW1 8352   3.202   4.570   2.536
 2778SOL    HW2 8353   3.182   4.720   2.474
 2779SOL     OW 8354   3.703   3.899   2.825
 2779SOL    HW1 8355   3.742   3.814   2.789
 2779SOL    HW2 8356   3.605   3.901   2.806
 2780SOL     OW 8357   2.125   4.050   2.582
 2780SOL    HW1 8358   2.046   4.101   2.548
 2780SOL    HW2 8359   2.116   4.035   2.680
 2781SOL     OW 8360   2.684   4.726   3.234
 2781SOL    HW1 8361   2.724   4.725   3.142
 2781SOL    HW2 8362   2.694   4.818   3.274
 2782SOL     OW 8363   2.778   4.634   2.153
 2782SOL    HW1 8364   2.841   4.672   2.085
 2782SOL    HW2 8365   2.818   4.551   2.192
 2783SOL     OW 8366   2.876   3.960   2.833
 2783SOL    HW1 8367   2.868   3.924   2.740
 2783SOL    HW2 8368   2.874   3.884   2.898
 2784SOL     OW 8369   3.571   4.109   3.243
 2784SOL    HW1 8370   3.644   4.178   3.247
 2784SOL    HW2 8371   3.599   4.034   3.184
 2785SOL     OW 8372   1.967   4.737   3.588
 2785SOL    HW1 8373   1.890   4.704   3.642
 2785SOL    HW2 8374   2.052   4.707   3.630
 2786SOL     OW 8375   2.534   3.927   3.351
 2786SOL    HW1 8376   2.624   3.911   3.311
 2786SOL    HW2 8377   2.542   3.932   3.450
 2787SOL     OW 8378   1.937   4.069   1.895
 2787SOL    HW1 8379   1.845   4.041   1.866
 2787SOL    HW2 8380   1.968   4.146   1.839
 2788SOL     OW 8381   3.302   4.580   3.260
 2788SOL    HW1 8382   3.245   4.632   3.197
 2788SOL    HW2 8383   3.398   4.592   3.236
 2789SOL     OW 8384   1.934   3.890   2.180
 2789SOL    HW1 8385   1.917   3.973   2.126
 2789SOL    HW2 8386   2.024   3.853   2.158
 2790SOL     OW 8387   3.045   5.059   1.981
 2790SOL    HW1 8388   2.946   5.048   1.983
 2790SOL    HW2 8389   3.079   5.074   2.074
 2791SOL     OW 8390   2.475   4.566   3.293
 2791SOL    HW1 8391   2.531   4.647   3.276
 2791SOL    HW2 8392   2.534   4.486   3.296
 2792SOL     OW 8393   2.578   4.289   3.570
 2792SOL    HW1 8394   2.597   4.354   3.644
 2792SOL    HW2 8395   2.638   4.209   3.579
 2793SOL     OW 8396   3.536   4.607   3.116
 2793SOL    HW1 8397   3.509   4.518   3.079
 2793SOL    HW2 8398   3.537   4.675   3.043
 2794SOL     OW 8399   3.087   4.049   2.311
 2794SOL    HW1 8400   3.152   3.975   2.300
 2794SOL    HW2 8401   3.107   4.099   2.395
 2795SOL     OW 8402   2.456   4.469   2.514
 2795SOL    HW1 8403   2.506   4.554   2.495
 2795SOL    HW2 8404   2.368   4.471   2.466
 2796SOL     OW 8405   3.639   4.066   3.504
 2796SOL    HW1 8406   3.622   4.097   3.410
 2796SOL    HW2 8407   3.555   4.029   3.542
 2797SOL     OW 8408   3.592   4.658   3.379
 2797SOL    HW1 8409   3.630   4.749   3.394
 2797SOL    HW2 8410   3.584   4.641   3.280
 2798SOL     OW 8411   2.721   4.680   2.723
 2798SOL    HW1 8412   2.775   4.611   2.771
 2798SOL    HW2 8413   2.689   4.749   2.789
 2799SOL     OW 8414   2.945   4.708   1.949
 2799SOL    HW1 8415   2.922   4.761   1.867
 2799SOL    HW2 8416   3.026   4.652   1.930
 2800SOL     OW 8417   3.686   3.916   3.089
 2800SOL    HW1 8418   3.682   3.826   3.133
 2800SOL    HW2 8419   3.689   3.905   2.990
 2801SOL     OW 8420   2.290   4.148   2.382
 2801SOL    HW1 8421   2.320   4.076   2.320
 2801SOL    HW2 8422   2.251   4.108   2.465
 2802SOL     OW 8423   2.179   4.271   3.142
 2802SOL    HW1 8424   2.217   4.212   3.214
 2802SOL    HW2 8425   2.219   4.245   3.054
 2803SOL     OW 8426   3.286   3.938   2.974
 2803SOL    HW1 8427   3.338   3.873   3.029
 2803SOL    HW2 8428   3.237   4.001   3.035
 2804SOL     OW 8429   2.863   3.758   3.016
 2804SOL    HW1 8430   2.800   3.686   2.985
 2804SOL    HW2 8431   2.956   3.722   3.016
 2805SOL     OW 8432   3.214   3.776   2.030
 2805SOL    HW1 8433   3.249   3.735   1.946
 2805SOL    HW2 8434   3.124   3.738   2.050
 2806SOL     OW 8435   3.162   4.177   2.553
 2806SOL    HW1 8436   3.103   4.257   2.557
 2806SOL    HW2 8437   3.177   4.142   2.646
 2807SOL     OW 8438   3.455   3.945   2.744
 2807SOL    HW1 8439   3.371   3.944   2.798
 2807SOL    HW2 8440   3.457   4.028   2.688
 2808SOL     OW 8441   1.901   4.801   2.162
 2808SOL    HW1 8442   2.000   4.790   2.153
 2808SOL    HW2 8443   1.861   4.715   2.194
 2809SOL     OW 8444   2.092   4.352   3.837
 2809SOL    HW1 8445   1.999   4.350   3.874
 2809SOL    HW2 8446   2.093   4.313   3.745
 2810SOL     OW 8447   2.087   3.999   4.720
 2810SOL    HW1 8448   2.122   3.982   4.812
 2810SOL    HW2 8449   1.999   3.954   4.708
 2811SOL     OW 8450   1.881   4.092   4.371
 2811SOL    HW1 8451   1.799   4.135   4.410
 2811SOL    HW2 8452   1.853   4.019   4.308
 2812SOL     OW 8453   2.997   4.427   4.441
 2812SOL    HW1 8454   3.054   4.505   4.416
 2812SOL    HW2 8455   2.937   4.453   4.517
 2813SOL     OW 8456   3.617   4.331   3.955
 2813SOL    HW1 8457   3.605   4.318   3.856
 2813SOL    HW2 8458   3.587   4.250   4.004
 2814SOL     OW 8459   2.630   4.868   4.747
 2814SOL    HW1 8460   2.552   4.885   4.807
 2814SOL    HW2 8461   2.664   4.955   4.711
 2815SOL     OW 8462   2.547   4.736   4.389
 2815SOL    HW1 8463   2.616   4.720   4.459
 2815SOL    HW2 8464   2.474   4.793   4.427
 2816SOL     OW 8465   3.465   4.171   4.461
 2816SOL    HW1 8466   3.391   4.217   4.411
 2816SOL    HW2 8467   3.516   4.239   4.514
 2817SOL     OW 8468   2.092   5.158   4.262
 2817SOL    HW1 8469   2.066   5.254   4.262
 2817SOL    HW2 8470   2.021   5.104   4.307
 2818SOL     OW 8471   2.102   4.815   4.610
 2818SOL    HW1 8472   2.116   4.731   4.662
 2818SOL    HW2 8473   2.047   4.879   4.665
 2819SOL     OW 8474   2.468   4.688   3.847
 2819SOL    HW1 8475   2.475   4.772   3.793
 2819SOL    HW2 8476   2.514   4.701   3.935
 2820SOL     OW 8477   1.984   4.367   4.287
 2820SOL    HW1 8478   1.939   4.279   4.304
 2820SOL    HW2 8479   1.983   4.421   4.371
 2821SOL     OW 8480   3.551   4.646   4.336
 2821SOL    HW1 8481   3.646   4.617   4.344
 2821SOL    HW2 8482   3.543   4.711   4.261
 2822SOL     OW 8483   2.671   3.728   4.226
 2822SOL    HW1 8484   2.711   3.819   4.217
 2822SOL    HW2 8485   2.571   3.736   4.232
 2823SOL     OW 8486   3.387   4.723   3.914
 2823SOL    HW1 8487   3.324   4.647   3.927
 2823SOL    HW2 8488   3.435   4.741   4.000
 2824SOL     OW 8489   2.460   4.453   3.994
 2824SOL    HW1 8490   2.484   4.522   3.926
 2824SOL    HW2 8491   2.382   4.486   4.048
 2825SOL     OW 8492   3.143   4.069   4.668
 2825SOL    HW1 8493   3.057   4.019   4.655
 2825SOL    HW2 8494   3.205   4.015   4.724
 2826SOL     OW 8495   2.903   4.425   4.153
 2826SOL    HW1 8496   2.929   4.421   4.249
 2826SOL    HW2 8497   2.818   4.374   4.139
 2827SOL     OW 8498   1.938   4.535   4.513
 2827SOL    HW1 8499   2.037   4.523   4.522
 2827SOL    HW2 8500   1.914   4.630   4.534
 2828SOL     OW 8501   2.727   4.072   3.919
 2828SOL    HW1 8502   2.786   4.135   3.870
 2828SOL    HW2 8503   2.746   3.978   3.890
 2829SOL     OW 8504   2.412   3.920   4.609
 2829SOL    HW1 8505   2.407   3.915   4.709
 2829SOL    HW2 8506   2.414   4.016   4.580
 2830SOL     OW 8507   3.657   4.790   4.597
 2830SOL    HW1 8508   3.595   4.775   4.521
 2830SOL    HW2 8509   3.605   4.801   4.682
 2831SOL     OW 8510   2.183   4.667   3.966
 2831SOL    HW1 8511   2.265   4.706   3.924
 2831SOL    HW2 8512   2.156   4.585   3.917
 2832SOL     OW 8513   3.320   4.459   4.452
 2832SOL    HW1 8514   3.315   4.394   4.527
 2832SOL    HW2 8515   3.400   4.518   4.465
 2833SOL     OW 8516   3.262   3.831   4.150
 2833SOL    HW1 8517   3.238   3.794   4.060
 2833SOL    HW2 8518   3.361   3.847   4.154
 2834SOL     OW 8519   2.244   4.424   4.204
 2834SOL    HW1 8520   2.289   4.334   4.201
 2834SOL    HW2 8521   2.150   4.413   4.237
 2835SOL     OW 8522   2.476   3.846   3.841
 2835SOL    HW1 8523   2.574   3.824   3.848
 2835SOL    HW2 8524   2.445   3.829   3.748
 2836SOL     OW 8525   2.784   4.227   4.623
 2836SOL    HW1 8526   2.759   4.218   4.527
 2836SOL    HW2 8527   2.832   4.145   4.654
 2837SOL     OW 8528   2.401   3.788   4.236
 2837SOL    HW1 8529   2.320   3.789   4.294
 2837SOL    HW2 8530   2.404   3.871   4.181
 2838SOL     OW 8531   2.159   3.759   3.895
 2838SOL    HW1 8532   2.208   3.843   3.874
 2838SOL    HW2 8533   2.221   3.694   3.940
 2839SOL     OW 8534   2.797   3.960   4.204
 2839SOL    HW1 8535   2.749   4.001   4.126
 2839SOL    HW2 8536   2.896   3.958   4.185
 2840SOL     OW 8537   2.894   4.273   3.740
 2840SOL    HW1 8538   2.853   4.355   3.701
 2840SOL    HW2 8539   2.958   4.299   3.813
 2841SOL     OW 8540   2.728   4.178   4.366
 2841SOL    HW1 8541   2.696   4.250   4.304
 2841SOL    HW2 8542   2.752   4.097   4.313
 2842SOL     OW 8543   2.879   3.763   4.477
 2842SOL    HW1 8544   2.807   3.768   4.408
 2842SOL    HW2 8545   2.855   3.694   4.546
 2843SOL     OW 8546   3.291   4.897   4.591
 2843SOL    HW1 8547   3.236   4.813   4.584
 2843SOL    HW2 8548   3.317   4.926   4.499
 2844SOL     OW 8549   3.328   4.314   4.716
 2844SOL    HW1 8550   3.298   4.219   4.723
 2844SOL    HW2 8551   3.401   4.330   4.782
 2845SOL     OW 8552   3.719   4.557   4.101
 2845SOL    HW1 8553   3.761   4.493   4.165
 2845SOL    HW2 8554   3.681   4.506   4.023
 2846SOL     OW 8555   3.252   4.299   3.802
 2846SOL    HW1 8556   3.198   4.278   3.883
 2846SOL    HW2 8557   3.343   4.258   3.811
 2847SOL     OW 8558   2.389   3.980   4.052
 2847SOL    HW1 8559   2.416   3.921   3.977
 2847SOL    HW2 8560   2.389   4.075   4.021
 2848SOL     OW 8561   3.500   4.823   4.803
 2848SOL    HW1 8562   3.505   4.904   4.862
 2848SOL    HW2 8563   3.414   4.825   4.752
 2849SOL     OW 8564   2.272   4.537   4.975
 2849SOL    HW1 8565   2.358   4.549   5.025
 2849SOL    HW2 8566   2.230   4.450   5.002
 2850SOL     OW 8567   2.229   4.824   4.225
 2850SOL    HW1 8568   2.222   4.907   4.169
 2850SOL    HW2 8569   2.233   4.744   4.165
 2851SOL     OW 8570   2.428   4.261   4.589
 2851SOL    HW1 8571   2.440   4.327   4.515
 2851SOL    HW2 8572   2.474   4.295   4.672
 2852SOL     OW 8573   3.444   4.363   4.196
 2852SOL    HW1 8574   3.413   4.424   4.269
 2852SOL    HW2 8575   3.494   4.415   4.127
 2853SOL     OW 8576   2.435   4.594   4.753
 2853SOL    HW1 8577   2.479   4.683   4.744
 2853SOL    HW2 8578   2.372   4.594   4.830
 2854SOL     OW 8579   3.071   4.249   3.999
 2854SOL    HW1 8580   3.084   4.165   4.053
 2854SOL    HW2 8581   3.042   4.323   4.059
 2855SOL     OW 8582   2.169   3.937   4.955
 2855SOL    HW1 8583   2.146   3.974   5.045
 2855SOL    HW2 8584   2.139   3.842   4.949
 2856SOL     OW 8585   2.594   4.358   4.788
 2856SOL    HW1 8586   2.653   4.332   4.712
 2856SOL    HW2 8587   2.566   4.454   4.777
 2857SOL     OW 8588   2.169   3.787   4.342
 2857SOL    HW1 8589   2.158   3.881   4.375
 2857SOL    HW2 8590   2.164   3.724   4.419
 2858SOL     OW 8591   3.484   4.091   4.098
 2858SOL    HW1 8592   3.486   4.015   4.162
 2858SOL    HW2 8593   3.436   4.168   4.138
 2859SOL     OW 8594   2.885   4.490   4.690
 2859SOL    HW1 8595   2.900   4.511   4.786
 2859SOL    HW2 8596   2.855   4.395   4.681
 2860SOL     OW 8597   3.402   3.998   3.849
 2860SOL    HW1 8598   3.341   3.923   3.872
 2860SOL    HW2 8599   3.424   4.050   3.932
 2861SOL     OW 8600   3.165   4.562   3.766
 2861SOL    HW1 8601   3.199   4.469   3.781
 2861SOL    HW2 8602   3.183   4.589   3.671
 2862SOL     OW 8603   2.181   4.534   4.673
 2862SOL    HW1 8604   2.274   4.570   4.678
 2862SOL    HW2 8605   2.175   4.449   4.725
 2863SOL     OW 8606   2.201   4.233   4.730
 2863SOL    HW1 8607   2.149   4.150   4.713
 2863SOL    HW2 8608   2.278   4.238   4.666
 2864SOL     OW 8609   2.864   4.520   4.962
 2864SOL    HW1 8610   2.905   4.488   5.048
 2864SOL    HW2 8611   2.768   4.493   4.959
 2865SOL     OW 8612   1.902   4.268   4.838
 2865SOL    HW1 8613   1.987   4.235   4.797
 2865SOL    HW2 8614   1.915   4.283   4.936
 2866SOL     OW 8615   2.677   4.296   4.049
 2866SOL    HW1 8616   2.684   4.207   4.003
 2866SOL    HW2 8617   2.583   4.330   4.041
 2867SOL     OW 8618   2.533   4.188   4.993
 2867SOL    HW1 8619   2.499   4.099   4.963
 2867SOL    HW2 8620   2.559   4.242   4.913
 2868SOL     OW 8621   2.335   4.224   3.915
 2868SOL    HW1 8622   2.396   4.304   3.919
 2868SOL    HW2 8623   2.240   4.255   3.922
 2869SOL     OW 8624   3.164   4.579   4.033
 2869SOL    HW1 8625   3.078   4.548   4.075
 2869SOL    HW2 8626   3.160   4.565   3.934
 2870SOL     OW 8627   3.588   3.859   4.247
 2870SOL    HW1 8628   3.661   3.842   4.180
 2870SOL    HW2 8629   3.557   3.772   4.285
 2871SOL     OW 8630   3.142   4.651   4.396
 2871SOL    HW1 8631   3.202   4.570   4.398
 2871SOL    HW2 8632   3.182   4.720   4.336
 2872SOL     OW 8633   3.703   3.899   4.687
 2872SOL    HW1 8634   3.742   3.814   4.651
 2872SOL    HW2 8635   3.605   3.901   4.668
 2873SOL     OW 8636   2.125   4.050   4.444
 2873SOL    HW1 8637   2.046   4.101   4.410
 2873SOL    HW2 8638   2.116   4.035   4.542
 2874SOL     OW 8639   2.778   4.634   4.015
 2874SOL    HW1 8640   2.841   4.672   3.947
 2874SOL    HW2 8641   2.818   4.551   4.054
 2875SOL     OW 8642   2.876   3.960   4.695
 2875SOL    HW1 8643   2.868   3.924   4.602
 2875SOL    HW2 8644   2.874   3.884   4.760
 2876SOL     OW 8645   1.937   4.069   3.757
 2876SOL    HW1 8646   1.845   4.041   3.728
 2876SOL    HW2 8647   1.968   4.146   3.701
 2877SOL     OW 8648   1.934   3.890   4.042
 2877SOL    HW1 8649   1.917   3.973   3.988
 2877SOL    HW2 8650   2.024   3.853   4.020
 2878SOL     OW 8651   3.045   5.059   3.843
 2878SOL    HW1 8652   2.946   5.048   3.845
 2878SOL    HW2 8653   3.079   5.074   3.936
 2879SOL     OW 8654   3.536   4.607   4.978
 2879SOL    HW1 8655   3.509   4.518   4.941
 2879SOL    HW2 8656   3.537   4.675   4.905
 2880SOL     OW 8657   3.087   4.049   4.173
 2880SOL    HW1 8658   3.152   3.975   4.162
 2880SOL    HW2 8659   3.107   4.099   4.257
 2881SOL     OW 8660   2.456   4.469   4.376
 2881SOL    HW1 8661   2.506   4.554   4.357
 2881SOL    HW2 8662   2.368   4.471   4.328
 2882SOL     OW 8663   2.721   4.680   4.585
 2882SOL    HW1 8664   2.775   4.611   4.633
 2882SOL    HW2 8665   2.689   4.749   4.651
 2883SOL     OW 8666   2.945   4.708   3.811
 2883SOL    HW1 8667   2.922   4.761   3.729
 2883SOL    HW2 8668   3.026   4.652   3.792
 2884SOL     OW 8669   3.686   3.916   4.951
 2884SOL    HW1 8670   3.682   3.826   4.995
 2884SOL    HW2 8671   3.689   3.905   4.852
 2885SOL     OW 8672   2.290   4.148   4.244
 2885SOL    HW1 8673   2.320   4.076   4.182
 2885SOL    HW2 8674   2.251   4.108   4.327
 2886SOL     OW 8675   3.286   3.938   4.836
 2886SOL    HW1 8676   3.338   3.873   4.891
 2886SOL    HW2 8677   3.237   4.001   4.897
 2887SOL     OW 8678   3.214   3.776   3.892
 2887SOL    HW1 8679   3.249   3.735   3.808
 2887SOL    HW2 8680   3.124   3.738   3.912
 2888SOL     OW 8681   3.162   4.177   4.415
 2888SOL    HW1 8682   3.103   4.257   4.419
 2888SOL    HW2 8683   3.177   4.142   4.508
 2889SOL     OW 8684   3.455   3.945   4.606
 2889SOL    HW1 8685   3.371   3.944   4.660
 2889SOL    HW2 8686   3.457   4.028   4.550
 2890SOL     OW 8687   1.901   4.801   4.024
 2890SOL    HW1 8688   2.000   4.790   4.015
 2890SOL    HW2 8689   1.861   4.715   4.056
 2891SOL     OW 8690   3.954   0.628   0.113
 2891SOL    HW1 8691   3.861   0.626   0.150
 2891SOL    HW2 8692   3.955   0.589   0.021
 2892SOL     OW 8693   3.949   0.275   0.996
 2892SOL    HW1 8694   3.984   0.258   1.088
 2892SOL    HW2 8695   3.861   0.230   0.984
 2893SOL     OW 8696   3.743   0.368   0.647
 2893SOL    HW1 8697   3.661   0.411   0.686
 2893SOL    HW2 8698   3.715   0.295   0.584
 2894SOL     OW 8699   4.293   1.275   1.165
 2894SOL    HW1 8700   4.200   1.268   1.128
 2894SOL    HW2 8701   4.304   1.364   1.209
 2895SOL     OW 8702   4.492   1.144   1.023
 2895SOL    HW1 8703   4.414   1.161   1.083
 2895SOL    HW2 8704   4.526   1.231   0.987
 2896SOL     OW 8705   4.574   0.798   1.823
 2896SOL    HW1 8706   4.570   0.874   1.888
 2896SOL    HW2 8707   4.596   0.834   1.732
 2897SOL     OW 8708   4.409   1.012   0.665
 2897SOL    HW1 8709   4.478   0.996   0.735
 2897SOL    HW2 8710   4.336   1.069   0.703
 2898SOL     OW 8711   4.410   1.161   1.803
 2898SOL    HW1 8712   4.470   1.240   1.817
 2898SOL    HW2 8713   4.324   1.192   1.762
 2899SOL     OW 8714   4.059   1.435   1.061
 2899SOL    HW1 8715   3.981   1.404   1.008
 2899SOL    HW2 8716   4.117   1.493   1.004
 2900SOL     OW 8717   4.162   0.392   1.499
 2900SOL    HW1 8718   4.244   0.336   1.508
 2900SOL    HW2 8719   4.081   0.334   1.503
 2901SOL     OW 8720   3.955   1.713   0.483
 2901SOL    HW1 8721   3.989   1.790   0.537
 2901SOL    HW2 8722   3.999   1.713   0.393
 2902SOL     OW 8723   4.851   1.341   1.690
 2902SOL    HW1 8724   4.898   1.341   1.778
 2902SOL    HW2 8725   4.803   1.254   1.679
 2903SOL     OW 8726   3.954   1.434   0.538
 2903SOL    HW1 8727   3.928   1.530   0.538
 2903SOL    HW2 8728   3.883   1.380   0.583
 2904SOL     OW 8729   3.964   1.091   0.886
 2904SOL    HW1 8730   3.978   1.007   0.938
 2904SOL    HW2 8731   3.909   1.155   0.941
 2905SOL     OW 8732   4.344   1.786   1.439
 2905SOL    HW1 8733   4.252   1.769   1.474
 2905SOL    HW2 8734   4.372   1.878   1.465
 2906SOL     OW 8735   4.330   0.964   0.123
 2906SOL    HW1 8736   4.337   1.048   0.069
 2906SOL    HW2 8737   4.376   0.977   0.211
 2907SOL     OW 8738   3.846   0.643   0.563
 2907SOL    HW1 8739   3.801   0.555   0.580
 2907SOL    HW2 8740   3.845   0.697   0.647
 2908SOL     OW 8741   3.751   1.596   0.117
 2908SOL    HW1 8742   3.732   1.500   0.138
 2908SOL    HW2 8743   3.718   1.654   0.192
 2909SOL     OW 8744   3.837   0.737   1.597
 2909SOL    HW1 8745   3.925   0.724   1.642
 2909SOL    HW2 8746   3.824   0.834   1.575
 2910SOL     OW 8747   4.337   1.365   0.726
 2910SOL    HW1 8748   4.288   1.278   0.735
 2910SOL    HW2 8749   4.314   1.408   0.639
 2911SOL     OW 8750   4.533   0.004   0.502
 2911SOL    HW1 8751   4.573   0.095   0.493
 2911SOL    HW2 8752   4.433   0.012   0.508
 2912SOL     OW 8753   3.921   0.976   1.264
 2912SOL    HW1 8754   4.010   0.931   1.250
 2912SOL    HW2 8755   3.848   0.911   1.245
 2913SOL     OW 8756   4.041   0.251   1.801
 2913SOL    HW1 8757   4.112   0.322   1.807
 2913SOL    HW2 8758   3.953   0.290   1.829
 2914SOL     OW 8759   4.322   0.729   0.270
 2914SOL    HW1 8760   4.346   0.798   0.202
 2914SOL    HW2 8761   4.244   0.762   0.324
 2915SOL     OW 8762   4.531   0.605   1.465
 2915SOL    HW1 8763   4.484   0.602   1.554
 2915SOL    HW2 8764   4.480   0.550   1.399
 2916SOL     OW 8765   4.697   0.890   1.572
 2916SOL    HW1 8766   4.743   0.806   1.543
 2916SOL    HW2 8767   4.641   0.924   1.497
 2917SOL     OW 8768   4.715   0.410   1.242
 2917SOL    HW1 8769   4.638   0.444   1.296
 2917SOL    HW2 8770   4.681   0.359   1.163
 2918SOL     OW 8771   4.765   0.701   0.429
 2918SOL    HW1 8772   4.791   0.697   0.525
 2918SOL    HW2 8773   4.680   0.650   0.415
 2919SOL     OW 8774   3.800   0.811   0.789
 2919SOL    HW1 8775   3.899   0.799   0.798
 2919SOL    HW2 8776   3.776   0.906   0.810
 2920SOL     OW 8777   3.854   1.821   1.571
 2920SOL    HW1 8778   3.844   1.806   1.670
 2920SOL    HW2 8779   3.768   1.857   1.535
 2921SOL     OW 8780   4.589   0.348   0.195
 2921SOL    HW1 8781   4.648   0.411   0.146
 2921SOL    HW2 8782   4.608   0.254   0.166
 2922SOL     OW 8783   4.274   0.196   0.885
 2922SOL    HW1 8784   4.269   0.191   0.985
 2922SOL    HW2 8785   4.276   0.292   0.856
 2923SOL     OW 8786   4.732   1.456   0.477
 2923SOL    HW1 8787   4.686   1.528   0.425
 2923SOL    HW2 8788   4.728   1.476   0.575
 2924SOL     OW 8789   4.075   1.801   0.853
 2924SOL    HW1 8790   4.125   1.715   0.859
 2924SOL    HW2 8791   4.140   1.878   0.850
 2925SOL     OW 8792   4.045   0.943   0.242
 2925SOL    HW1 8793   4.127   0.982   0.200
 2925SOL    HW2 8794   4.018   0.861   0.193
 2926SOL     OW 8795   4.185   1.266   1.727
 2926SOL    HW1 8796   4.135   1.267   1.641
 2926SOL    HW2 8797   4.122   1.248   1.803
 2927SOL     OW 8798   3.926   0.285   1.498
 2927SOL    HW1 8799   3.846   0.345   1.485
 2927SOL    HW2 8800   3.916   0.236   1.584
 2928SOL     OW 8801   4.188   1.743   0.323
 2928SOL    HW1 8802   4.221   1.782   0.409
 2928SOL    HW2 8803   4.264   1.736   0.258
 2929SOL     OW 8804   3.973   1.785   1.241
 2929SOL    HW1 8805   4.030   1.720   1.291
 2929SOL    HW2 8806   3.957   1.752   1.148
 2930SOL     OW 8807   4.664   1.698   0.904
 2930SOL    HW1 8808   4.744   1.641   0.925
 2930SOL    HW2 8809   4.615   1.658   0.827
 2931SOL     OW 8810   4.106   0.700   0.480
 2931SOL    HW1 8811   4.151   0.610   0.477
 2931SOL    HW2 8812   4.012   0.689   0.513
 2932SOL     OW 8813   4.338   0.122   0.117
 2932SOL    HW1 8814   4.436   0.100   0.124
 2932SOL    HW2 8815   4.307   0.105   0.024
 2933SOL     OW 8816   4.505   0.264   1.749
 2933SOL    HW1 8817   4.572   0.203   1.792
 2933SOL    HW2 8818   4.432   0.283   1.814
 2934SOL     OW 8819   4.612   1.514   1.195
 2934SOL    HW1 8820   4.589   1.489   1.101
 2934SOL    HW2 8821   4.673   1.445   1.234
 2935SOL     OW 8822   4.527   1.402   0.924
 2935SOL    HW1 8823   4.617   1.416   0.882
 2935SOL    HW2 8824   4.456   1.404   0.853
 2936SOL     OW 8825   4.646   0.503   0.899
 2936SOL    HW1 8826   4.621   0.494   0.803
 2936SOL    HW2 8827   4.694   0.421   0.930
 2937SOL     OW 8828   4.263   0.064   0.512
 2937SOL    HW1 8829   4.182   0.065   0.570
 2937SOL    HW2 8830   4.266   0.147   0.457
 2938SOL     OW 8831   5.158   1.188   0.041
 2938SOL    HW1 8832   5.190   1.112   0.098
 2938SOL    HW2 8833   5.066   1.215   0.071
 2939SOL     OW 8834   4.021   0.035   0.171
 2939SOL    HW1 8835   4.070   0.119   0.150
 2939SOL    HW2 8836   4.083  -0.030   0.216
 2940SOL     OW 8837   4.659   0.236   0.480
 2940SOL    HW1 8838   4.611   0.277   0.402
 2940SOL    HW2 8839   4.758   0.234   0.461
 2941SOL     OW 8840   4.951   1.570   0.793
 2941SOL    HW1 8841   4.972   1.644   0.728
 2941SOL    HW2 8842   5.019   1.570   0.866
 2942SOL     OW 8843   4.183   1.152   0.741
 2942SOL    HW1 8844   4.112   1.125   0.806
 2942SOL    HW2 8845   4.157   1.124   0.648
 2943SOL     OW 8846   4.756   0.549   0.016
 2943SOL    HW1 8847   4.715   0.631  -0.023
 2943SOL    HW2 8848   4.820   0.575   0.089
 2944SOL     OW 8849   3.802   0.556   1.386
 2944SOL    HW1 8850   3.894   0.555   1.345
 2944SOL    HW2 8851   3.796   0.630   1.453
 2945SOL     OW 8852   4.285   0.222   1.147
 2945SOL    HW1 8853   4.323   0.138   1.184
 2945SOL    HW2 8854   4.197   0.241   1.191
 2946SOL     OW 8855   4.590   0.454   0.642
 2946SOL    HW1 8856   4.558   0.526   0.580
 2946SOL    HW2 8857   4.614   0.373   0.589
 2947SOL     OW 8858   4.741   0.039   0.753
 2947SOL    HW1 8859   4.669   0.044   0.684
 2947SOL    HW2 8860   4.717  -0.030   0.822
 2948SOL     OW 8861   4.212   1.385   0.174
 2948SOL    HW1 8862   4.125   1.370   0.221
 2948SOL    HW2 8863   4.195   1.411   0.079
 2949SOL     OW 8864   4.251   0.256   0.328
 2949SOL    HW1 8865   4.278   0.197   0.253
 2949SOL    HW2 8866   4.251   0.351   0.297
 2950SOL     OW 8867   4.639   0.089   1.402
 2950SOL    HW1 8868   4.664   0.069   1.307
 2950SOL    HW2 8869   4.711   0.145   1.444
 2951SOL     OW 8870   4.704   1.116   1.719
 2951SOL    HW1 8871   4.605   1.122   1.729
 2951SOL    HW2 8872   4.727   1.036   1.663
 2952SOL     OW 8873   4.429   1.050   0.368
 2952SOL    HW1 8874   4.415   1.057   0.467
 2952SOL    HW2 8875   4.513   0.999   0.350
 2953SOL     OW 8876   4.134   0.813   1.251
 2953SOL    HW1 8877   4.220   0.825   1.301
 2953SOL    HW2 8878   4.092   0.726   1.278
 2954SOL     OW 8879   3.788   1.564   1.331
 2954SOL    HW1 8880   3.742   1.646   1.297
 2954SOL    HW2 8881   3.886   1.583   1.340
 2955SOL     OW 8882   4.091   1.100   0.501
 2955SOL    HW1 8883   4.084   1.183   0.445
 2955SOL    HW2 8884   4.095   1.020   0.441
 2956SOL     OW 8885   4.290   0.537   0.865
 2956SOL    HW1 8886   4.302   0.603   0.791
 2956SOL    HW2 8887   4.336   0.571   0.948
 2957SOL     OW 8888   4.078   1.510   1.329
 2957SOL    HW1 8889   4.057   1.466   1.242
 2957SOL    HW2 8890   4.175   1.536   1.332
 2958SOL     OW 8891   4.126   0.751   1.598
 2958SOL    HW1 8892   4.194   0.806   1.551
 2958SOL    HW2 8893   4.166   0.663   1.625
 2959SOL     OW 8894   4.737   0.105   1.770
 2959SOL    HW1 8895   4.743   0.190   1.718
 2959SOL    HW2 8896   4.769   0.029   1.713
 2960SOL     OW 8897   4.228   0.050   1.740
 2960SOL    HW1 8898   4.186  -0.007   1.670
 2960SOL    HW2 8899   4.162   0.119   1.772
 2961SOL     OW 8900   4.297   0.870   1.029
 2961SOL    HW1 8901   4.341   0.959   1.020
 2961SOL    HW2 8902   4.234   0.870   1.106
 2962SOL     OW 8903   4.933   0.525   0.275
 2962SOL    HW1 8904   4.946   0.441   0.329
 2962SOL    HW2 8905   4.904   0.599   0.335
 2963SOL     OW 8906   4.031   0.213   1.231
 2963SOL    HW1 8907   4.008   0.250   1.321
 2963SOL    HW2 8908   4.001   0.118   1.225
 2964SOL     OW 8909   3.761   1.310   1.282
 2964SOL    HW1 8910   3.814   1.261   1.350
 2964SOL    HW2 8911   3.783   1.408   1.287
 2965SOL     OW 8912   4.456   0.634   1.064
 2965SOL    HW1 8913   4.515   0.608   0.988
 2965SOL    HW2 8914   4.428   0.730   1.053
 2966SOL     OW 8915   4.031   0.063   0.618
 2966SOL    HW1 8916   4.020   0.157   0.651
 2966SOL    HW2 8917   4.026   0.000   0.695
 2967SOL     OW 8918   4.747   0.766   0.966
 2967SOL    HW1 8919   4.762   0.787   1.062
 2967SOL    HW2 8920   4.717   0.671   0.957
 2968SOL     OW 8921   4.704   1.573   1.700
 2968SOL    HW1 8922   4.684   1.617   1.612
 2968SOL    HW2 8923   4.743   1.482   1.684
 2969SOL     OW 8924   4.074   0.898   1.804
 2969SOL    HW1 8925   4.150   0.942   1.852
 2969SOL    HW2 8926   4.109   0.851   1.722
 2970SOL     OW 8927   4.792   1.333   0.849
 2970SOL    HW1 8928   4.799   1.249   0.794
 2970SOL    HW2 8929   4.854   1.402   0.813
 2971SOL     OW 8930   4.043   0.810   0.949
 2971SOL    HW1 8931   4.136   0.846   0.954
 2971SOL    HW2 8932   4.037   0.725   1.001
 2972SOL     OW 8933   4.063   0.509   1.006
 2972SOL    HW1 8934   4.011   0.426   0.989
 2972SOL    HW2 8935   4.140   0.514   0.942
 2973SOL     OW 8936   4.862   0.380   1.678
 2973SOL    HW1 8937   4.817   0.443   1.742
 2973SOL    HW2 8938   4.955   0.411   1.661
 2974SOL     OW 8939   3.732   1.326   0.200
 2974SOL    HW1 8940   3.639   1.347   0.169
 2974SOL    HW2 8941   3.742   1.227   0.213
 2975SOL     OW 8942   3.812   1.801   0.927
 2975SOL    HW1 8943   3.770   1.715   0.900
 2975SOL    HW2 8944   3.906   1.804   0.893
 2976SOL     OW 8945   4.228   1.568   0.910
 2976SOL    HW1 8946   4.294   1.642   0.919
 2976SOL    HW2 8947   4.272   1.489   0.868
 2977SOL     OW 8948   4.726   0.796   1.238
 2977SOL    HW1 8949   4.767   0.764   1.324
 2977SOL    HW2 8950   4.630   0.769   1.235
 2978SOL     OW 8951   3.764   0.544   1.114
 2978SOL    HW1 8952   3.849   0.511   1.073
 2978SOL    HW2 8953   3.777   0.559   1.212
 2979SOL     OW 8954   3.913   0.520   1.722
 2979SOL    HW1 8955   3.972   0.480   1.652
 2979SOL    HW2 8956   3.855   0.591   1.681
 2980SOL     OW 8957   4.539   0.572   0.325
 2980SOL    HW1 8958   4.546   0.483   0.279
 2980SOL    HW2 8959   4.445   0.606   0.317
 2981SOL     OW 8960   3.976   1.564   1.744
 2981SOL    HW1 8961   3.946   1.621   1.820
 2981SOL    HW2 8962   3.969   1.467   1.770
 2982SOL     OW 8963   4.395   0.464   1.269
 2982SOL    HW1 8964   4.361   0.375   1.239
 2982SOL    HW2 8965   4.421   0.518   1.189
 2983SOL     OW 8966   4.654   1.678   1.465
 2983SOL    HW1 8967   4.630   1.660   1.370
 2983SOL    HW2 8968   4.684   1.772   1.475
 2984SOL     OW 8969   4.197   0.500   0.191
 2984SOL    HW1 8970   4.258   0.580   0.195
 2984SOL    HW2 8971   4.102   0.531   0.198
 2985SOL     OW 8972   3.883   1.137   1.466
 2985SOL    HW1 8973   3.905   1.076   1.542
 2985SOL    HW2 8974   3.893   1.088   1.380
 2986SOL     OW 8975   5.026   0.855   0.309
 2986SOL    HW1 8976   4.940   0.824   0.351
 2986SOL    HW2 8977   5.022   0.841   0.210
 2987SOL     OW 8978   3.807   1.258   1.022
 2987SOL    HW1 8979   3.802   1.257   1.122
 2987SOL    HW2 8980   3.724   1.217   0.984
 2988SOL     OW 8981   4.412   1.662   1.716
 2988SOL    HW1 8982   4.356   1.743   1.725
 2988SOL    HW2 8983   4.464   1.666   1.630
 2989SOL     OW 8984   4.627   0.086   0.133
 2989SOL    HW1 8985   4.678   0.087   0.047
 2989SOL    HW2 8986   4.683   0.044   0.204
 2990SOL     OW 8987   3.854   1.794   1.851
 2990SOL    HW1 8988   3.813   1.720   1.904
 2990SOL    HW2 8989   3.918   1.845   1.909
 2991SOL     OW 8990   4.554   1.273   1.422
 2991SOL    HW1 8991   4.549   1.306   1.517
 2991SOL    HW2 8992   4.468   1.292   1.376
 2992SOL     OW 8993   4.396   1.616   0.154
 2992SOL    HW1 8994   4.405   1.626   0.055
 2992SOL    HW2 8995   4.356   1.527   0.175
 2993SOL     OW 8996   3.987   0.326   0.720
 2993SOL    HW1 8997   3.908   0.377   0.686
 2993SOL    HW2 8998   3.978   0.311   0.818
 2994SOL     OW 8999   4.546   1.002   1.372
 2994SOL    HW1 9000   4.586   1.001   1.280
 2994SOL    HW2 9001   4.556   1.094   1.412
 2995SOL     OW 9002   4.640   0.910   0.291
 2995SOL    HW1 9003   4.703   0.948   0.223
 2995SOL    HW2 9004   4.680   0.827   0.330
 2996SOL     OW 9005   4.096   1.288   1.490
 2996SOL    HW1 9006   4.083   1.381   1.456
 2996SOL    HW2 9007   4.012   1.236   1.477
 2997SOL     OW 9008   4.763   1.098   0.696
 2997SOL    HW1 9009   4.693   1.051   0.750
 2997SOL    HW2 9010   4.822   1.030   0.653
 2998SOL     OW 9011   4.738   0.236   0.971
 2998SOL    HW1 9012   4.730   0.200   0.878
 2998SOL    HW2 9013   4.736   0.160   1.036
 2999SOL     OW 9014   4.314   1.487   0.491
 2999SOL    HW1 9015   4.356   1.429   0.421
 2999SOL    HW2 9016   4.270   1.566   0.447
 3000SOL     OW 9017   3.979   1.348   0.290
 3000SOL    HW1 9018   3.883   1.349   0.263
 3000SOL    HW2 9019   3.991   1.401   0.374
 3001SOL     OW 9020   3.829   1.013   1.726
 3001SOL    HW1 9021   3.752   0.980   1.780
 3001SOL    HW2 9022   3.914   0.983   1.768
 3002SOL     OW 9023   4.396   0.203   1.489
 3002SOL    HW1 9024   4.486   0.187   1.449
 3002SOL    HW2 9025   4.404   0.208   1.588
 3003SOL     OW 9026   3.796   0.166   0.318
 3003SOL    HW1 9027   3.779   0.249   0.264
 3003SOL    HW2 9028   3.886   0.129   0.296
 3004SOL     OW 9029   4.337   0.842   1.431
 3004SOL    HW1 9030   4.393   0.923   1.414
 3004SOL    HW2 9031   4.396   0.762   1.434
 3005SOL     OW 9032   4.440   0.565   1.708
 3005SOL    HW1 9033   4.459   0.630   1.782
 3005SOL    HW2 9034   4.500   0.485   1.717
 3006SOL     OW 9035   4.114   1.741   1.560
 3006SOL    HW1 9036   4.023   1.782   1.558
 3006SOL    HW2 9037   4.107   1.647   1.592
 3007SOL     OW 9038   4.318   0.745   0.652
 3007SOL    HW1 9039   4.368   0.830   0.633
 3007SOL    HW2 9040   4.230   0.747   0.604
 3008SOL     OW 9041   4.583   1.374   0.016
 3008SOL    HW1 9042   4.537   1.389   0.104
 3008SOL    HW2 9043   4.627   1.459  -0.014
 3009SOL     OW 9044   4.385   1.790   0.953
 3009SOL    HW1 9045   4.339   1.878   0.940
 3009SOL    HW2 9046   4.484   1.802   0.946
 3010SOL     OW 9047   4.583   0.956   0.861
 3010SOL    HW1 9048   4.637   0.887   0.909
 3010SOL    HW2 9049   4.551   1.025   0.927
 3011SOL     OW 9050   4.807   0.984   0.087
 3011SOL    HW1 9051   4.784   1.037   0.005
 3011SOL    HW2 9052   4.888   0.928   0.068
 3012SOL     OW 9053   3.945   1.314   1.844
 3012SOL    HW1 9054   3.880   1.241   1.823
 3012SOL    HW2 9055   3.949   1.328   1.942
 3013SOL     OW 9056   3.803   1.240   0.653
 3013SOL    HW1 9057   3.802   1.193   0.741
 3013SOL    HW2 9058   3.885   1.212   0.602
 3014SOL     OW 9059   4.396   1.391   1.624
 3014SOL    HW1 9060   4.318   1.341   1.662
 3014SOL    HW2 9061   4.393   1.486   1.655
 3015SOL     OW 9062   4.152   0.424   0.520
 3015SOL    HW1 9063   4.182   0.352   0.458
 3015SOL    HW2 9064   4.113   0.384   0.603
 3016SOL     OW 9065   4.041   0.547   1.280
 3016SOL    HW1 9066   4.079   0.488   1.352
 3016SOL    HW2 9067   4.081   0.521   1.192
 3017SOL     OW 9068   4.536   1.586   0.687
 3017SOL    HW1 9069   4.568   1.596   0.593
 3017SOL    HW2 9070   4.457   1.524   0.689
 3018SOL     OW 9071   4.725   0.034   1.154
 3018SOL    HW1 9072   4.662  -0.038   1.123
 3018SOL    HW2 9073   4.818  -0.002   1.154
 3019SOL     OW 9074   4.494   1.330   0.301
 3019SOL    HW1 9075   4.448   1.243   0.318
 3019SOL    HW2 9076   4.585   1.327   0.342
 3020SOL     OW 9077   4.342   1.567   1.284
 3020SOL    HW1 9078   4.337   1.649   1.341
 3020SOL    HW2 9079   4.431   1.564   1.239
 3021SOL     OW 9080   3.763   1.077   0.300
 3021SOL    HW1 9081   3.862   1.066   0.291
 3021SOL    HW2 9082   3.723   0.991   0.332
 3022SOL     OW 9083   4.599   1.646   0.337
 3022SOL    HW1 9084   4.522   1.611   0.283
 3022SOL    HW2 9085   4.567   1.717   0.399
 3023SOL     OW 9086   3.954   0.628   1.975
 3023SOL    HW1 9087   3.861   0.626   2.012
 3023SOL    HW2 9088   3.955   0.589   1.883
 3024SOL     OW 9089   3.949   0.275   2.858
 3024SOL    HW1 9090   3.984   0.258   2.950
 3024SOL    HW2 9091   3.861   0.230   2.846
 3025SOL     OW 9092   3.743   0.368   2.509
 3025SOL    HW1 9093   3.661   0.411   2.548
 3025SOL    HW2 9094   3.715   0.295   2.446
 3026SOL     OW 9095   4.293   1.275   3.027
 3026SOL    HW1 9096   4.200   1.268   2.990
 3026SOL    HW2 9097   4.304   1.364   3.071
 3027SOL     OW 9098   4.492   1.144   2.885
 3027SOL    HW1 9099   4.414   1.161   2.945
 3027SOL    HW2 9100   4.526   1.231   2.849
 3028SOL     OW 9101   4.574   0.798   3.685
 3028SOL    HW1 9102   4.570   0.874   3.750
 3028SOL    HW2 9103   4.596   0.834   3.594
 3029SOL     OW 9104   4.409   1.012   2.527
 3029SOL    HW1 9105   4.478   0.996   2.597
 3029SOL    HW2 9106   4.336   1.069   2.565
 3030SOL     OW 9107   4.410   1.161   3.665
 3030SOL    HW1 9108   4.470   1.240   3.679
 3030SOL    HW2 9109   4.324   1.192   3.624
 3031SOL     OW 9110   4.059   1.435   2.923
 3031SOL    HW1 9111   3.981   1.404   2.870
 3031SOL    HW2 9112   4.117   1.493   2.866
 3032SOL     OW 9113   4.162   0.392   3.361
 3032SOL    HW1 9114   4.244   0.336   3.370
 3032SOL    HW2 9115   4.081   0.334   3.365
 3033SOL     OW 9116   3.955   1.713   2.345
 3033SOL    HW1 9117   3.989   1.790   2.399
 3033SOL    HW2 9118   3.999   1.713   2.255
 3034SOL     OW 9119   4.851   1.341   3.552
 3034SOL    HW1 9120   4.898   1.341   3.640
 3034SOL    HW2 9121   4.803   1.254   3.541
 3035SOL     OW 9122   3.954   1.434   2.400
 3035SOL    HW1 9123   3.928   1.530   2.400
 3035SOL    HW2 9124   3.883   1.380   2.445
 3036SOL     OW 9125   3.964   1.091   2.748
 3036SOL    HW1 9126   3.978   1.007   2.800
 3036SOL    HW2 9127   3.909   1.155   2.803
 3037SOL     OW 9128   4.344   1.786   3.301
 3037SOL    HW1 9129   4.252   1.769   3.336
 3037SOL    HW2 9130   4.372   1.878   3.327
 3038SOL     OW 9131   4.330   0.964   1.985
 3038SOL    HW1 9132   4.337   1.048   1.931
 3038SOL    HW2 9133   4.376   0.977   2.073
 3039SOL     OW 9134   3.846   0.643   2.425
 3039SOL    HW1 9135   3.801   0.555   2.442
 3039SOL    HW2 9136   3.845   0.697   2.509
 3040SOL     OW 9137   3.751   1.596   1.979
 3040SOL    HW1 9138   3.732   1.500   2.000
 3040SOL    HW2 9139   3.718   1.654   2.054
 3041SOL     OW 9140   3.837   0.737   3.459
 3041SOL    HW1 9141   3.925   0.724   3.504
 3041SOL    HW2 9142   3.824   0.834   3.437
 3042SOL     OW 9143   4.337   1.365   2.588
 3042SOL    HW1 9144   4.288   1.278   2.597
 3042SOL    HW2 9145   4.314   1.408   2.501
 3043SOL     OW 9146   4.533   0.004   2.364
 3043SOL    HW1 9147   4.573   0.095   2.355
 3043SOL    HW2 9148   4.433   0.012   2.370
 3044SOL     OW 9149   3.921   0.976   3.126
 3044SOL    HW1 9150   4.010   0.931   3.112
 3044SOL    HW2 9151   3.848   0.911   3.107
 3045SOL     OW 9152   4.041   0.251   3.663
 3045SOL    HW1 9153   4.112   0.322   3.669
 3045SOL    HW2 9154   3.953   0.290   3.691
 3046SOL     OW 9155   4.322   0.729   2.132
 3046SOL    HW1 9156   4.346   0.798   2.064
 3046SOL    HW2 9157   4.244   0.762   2.186
 3047SOL     OW 9158   4.531   0.605   3.327
 3047SOL    HW1 9159   4.484   0.602   3.416
 3047SOL    HW2 9160   4.480   0.550   3.261
 3048SOL     OW 9161   4.697   0.890   3.434
 3048SOL    HW1 9162   4.743   0.806   3.405
 3048SOL    HW2 9163   4.641   0.924   3.359
 3049SOL     OW 9164   4.715   0.410   3.104
 3049SOL    HW1 9165   4.638   0.444   3.158
 3049SOL    HW2 9166   4.681   0.359   3.025
 3050SOL     OW 9167   4.765   0.701   2.291
 3050SOL    HW1 9168   4.791   0.697   2.387
 3050SOL    HW2 9169   4.680   0.650   2.277
 3051SOL     OW 9170   3.800   0.811   2.651
 3051SOL    HW1 9171   3.899   0.799   2.660
 3051SOL    HW2 9172   3.776   0.906   2.672
 3052SOL     OW 9173   3.854   1.821   3.433
 3052SOL    HW1 9174   3.844   1.806   3.532
 3052SOL    HW2 9175   3.768   1.857   3.397
 3053SOL     OW 9176   4.589   0.348   2.057
 3053SOL    HW1 9177   4.648   0.411   2.008
 3053SOL    HW2 9178   4.608   0.254   2.028
 3054SOL     OW 9179   4.274   0.196   2.747
 3054SOL    HW1 9180   4.269   0.191   2.847
 3054SOL    HW2 9181   4.276   0.292   2.718
 3055SOL     OW 9182   4.732   1.456   2.339
 3055SOL    HW1 9183   4.686   1.528   2.287
 3055SOL    HW2 9184   4.728   1.476   2.437
 3056SOL     OW 9185   4.075   1.801   2.715
 3056SOL    HW1 9186   4.125   1.715   2.721
 3056SOL    HW2 9187   4.140   1.878   2.712
 3057SOL     OW 9188   4.045   0.943   2.104
 3057SOL    HW1 9189   4.127   0.982   2.062
 3057SOL    HW2 9190   4.018   0.861   2.055
 3058SOL     OW 9191   4.185   1.266   3.589
 3058SOL    HW1 9192   4.135   1.267   3.503
 3058SOL    HW2 9193   4.122   1.248   3.665
 3059SOL     OW 9194   3.926   0.285   3.360
 3059SOL    HW1 9195   3.846   0.345   3.347
 3059SOL    HW2 9196   3.916   0.236   3.446
 3060SOL     OW 9197   4.188   1.743   2.185
 3060SOL    HW1 9198   4.221   1.782   2.271
 3060SOL    HW2 9199   4.264   1.736   2.120
 3061SOL     OW 9200   3.973   1.785   3.103
 3061SOL    HW1 9201   4.030   1.720   3.153
 3061SOL    HW2 9202   3.957   1.752   3.010
 3062SOL     OW 9203   4.664   1.698   2.766
 3062SOL    HW1 9204   4.744   1.641   2.787
 3062SOL    HW2 9205   4.615   1.658   2.689
 3063SOL     OW 9206   4.106   0.700   2.342
 3063SOL    HW1 9207   4.151   0.610   2.339
 3063SOL    HW2 9208   4.012   0.689   2.375
 3064SOL     OW 9209   4.338   0.122   1.979
 3064SOL    HW1 9210   4.436   0.100   1.986
 3064SOL    HW2 9211   4.307   0.105   1.886
 3065SOL     OW 9212   4.505   0.264   3.611
 3065SOL    HW1 9213   4.572   0.203   3.654
 3065SOL    HW2 9214   4.432   0.283   3.676
 3066SOL     OW 9215   4.612   1.514   3.057
 3066SOL    HW1 9216   4.589   1.489   2.963
 3066SOL    HW2 9217   4.673   1.445   3.096
 3067SOL     OW 9218   4.527   1.402   2.786
 3067SOL    HW1 9219   4.617   1.416   2.744
 3067SOL    HW2 9220   4.456   1.404   2.715
 3068SOL     OW 9221   4.646   0.503   2.761
 3068SOL    HW1 9222   4.621   0.494   2.665
 3068SOL    HW2 9223   4.694   0.421   2.792
 3069SOL     OW 9224   4.263   0.064   2.374
 3069SOL    HW1 9225   4.182   0.065   2.432
 3069SOL    HW2 9226   4.266   0.147   2.319
 3070SOL     OW 9227   4.021   0.035   2.033
 3070SOL    HW1 9228   4.070   0.119   2.012
 3070SOL    HW2 9229   4.083  -0.030   2.078
 3071SOL     OW 9230   4.659   0.236   2.342
 3071SOL    HW1 9231   4.611   0.277   2.264
 3071SOL    HW2 9232   4.758   0.234   2.323
 3072SOL     OW 9233   4.951   1.570   2.655
 3072SOL    HW1 9234   4.972   1.644   2.590
 3072SOL    HW2 9235   5.019   1.570   2.728
 3073SOL     OW 9236   4.183   1.152   2.603
 3073SOL    HW1 9237   4.112   1.125   2.668
 3073SOL    HW2 9238   4.157   1.124   2.510
 3074SOL     OW 9239   4.756   0.549   1.878
 3074SOL    HW1 9240   4.715   0.631   1.839
 3074SOL    HW2 9241   4.820   0.575   1.951
 3075SOL     OW 9242   3.802   0.556   3.248
 3075SOL    HW1 9243   3.894   0.555   3.207
 3075SOL    HW2 9244   3.796   0.630   3.315
 3076SOL     OW 9245   4.285   0.222   3.009
 3076SOL    HW1 9246   4.323   0.138   3.046
 3076SOL    HW2 9247   4.197   0.241   3.053
 3077SOL     OW 9248   4.590   0.454   2.504
 3077SOL    HW1 9249   4.558   0.526   2.442
 3077SOL    HW2 9250   4.614   0.373   2.451
 3078SOL     OW 9251   4.741   0.039   2.615
 3078SOL    HW1 9252   4.669   0.044   2.546
 3078SOL    HW2 9253   4.717  -0.030   2.684
 3079SOL     OW 9254   4.212   1.385   2.036
 3079SOL    HW1 9255   4.125   1.370   2.083
 3079SOL    HW2 9256   4.195   1.411   1.941
 3080SOL     OW 9257   4.251   0.256   2.190
 3080SOL    HW1 9258   4.278   0.197   2.115
 3080SOL    HW2 9259   4.251   0.351   2.159
 3081SOL     OW 9260   4.639   0.089   3.264
 3081SOL    HW1 9261   4.664   0.069   3.169
 3081SOL    HW2 9262   4.711   0.145   3.306
 3082SOL     OW 9263   4.704   1.116   3.581
 3082SOL    HW1 9264   4.605   1.122   3.591
 3082SOL    HW2 9265   4.727   1.036   3.525
 3083SOL     OW 9266   4.429   1.050   2.230
 3083SOL    HW1 9267   4.415   1.057   2.329
 3083SOL    HW2 9268   4.513   0.999   2.212
 3084SOL     OW 9269   4.134   0.813   3.113
 3084SOL    HW1 9270   4.220   0.825   3.163
 3084SOL    HW2 9271   4.092   0.726   3.140
 3085SOL     OW 9272   3.788   1.564   3.193
 3085SOL    HW1 9273   3.742   1.646   3.159
 3085SOL    HW2 9274   3.886   1.583   3.202
 3086SOL     OW 9275   4.091   1.100   2.363
 3086SOL    HW1 9276   4.084   1.183   2.307
 3086SOL    HW2 9277   4.095   1.020   2.303
 3087SOL     OW 9278   4.290   0.537   2.727
 3087SOL    HW1 9279   4.302   0.603   2.653
 3087SOL    HW2 9280   4.336   0.571   2.810
 3088SOL     OW 9281   4.078   1.510   3.191
 3088SOL    HW1 9282   4.057   1.466   3.104
 3088SOL    HW2 9283   4.175   1.536   3.194
 3089SOL     OW 9284   4.126   0.751   3.460
 3089SOL    HW1 9285   4.194   0.806   3.413
 3089SOL    HW2 9286   4.166   0.663   3.487
 3090SOL     OW 9287   4.737   0.105   3.632
 3090SOL    HW1 9288   4.743   0.190   3.580
 3090SOL    HW2 9289   4.769   0.029   3.575
 3091SOL     OW 9290   4.228   0.050   3.602
 3091SOL    HW1 9291   4.186  -0.007   3.532
 3091SOL    HW2 9292   4.162   0.119   3.634
 3092SOL     OW 9293   4.297   0.870   2.891
 3092SOL    HW1 9294   4.341   0.959   2.882
 3092SOL    HW2 9295   4.234   0.870   2.968
 3093SOL     OW 9296   4.933   0.525   2.137
 3093SOL    HW1 9297   4.946   0.441   2.191
 3093SOL    HW2 9298   4.904   0.599   2.197
 3094SOL     OW 9299   4.031   0.213   3.093
 3094SOL    HW1 9300   4.008   0.250   3.183
 3094SOL    HW2 9301   4.001   0.118   3.087
 3095SOL     OW 9302   3.761   1.310   3.144
 3095SOL    HW1 9303   3.814   1.261   3.212
 3095SOL    HW2 9304   3.783   1.408   3.149
 3096SOL     OW 9305   4.456   0.634   2.926
 3096SOL    HW1 9306   4.515   0.608   2.850
 3096SOL    HW2 9307   4.428   0.730   2.915
 3097SOL     OW 9308   4.031   0.063   2.480
 3097SOL    HW1 9309   4.020   0.157   2.513
 3097SOL    HW2 9310   4.026   0.000   2.557
 3098SOL     OW 9311   4.747   0.766   2.828
 3098SOL    HW1 9312   4.762   0.787   2.924
 3098SOL    HW2 9313   4.717   0.671   2.819
 3099SOL     OW 9314   4.704   1.573   3.562
 3099SOL    HW1 9315   4.684   1.617   3.474
 3099SOL    HW2 9316   4.743   1.482   3.546
 3100SOL     OW 9317   4.074   0.898   3.666
 3100SOL    HW1 9318   4.150   0.942   3.714
 3100SOL    HW2 9319   4.109   0.851   3.584
 3101SOL     OW 9320   4.792   1.333   2.711
 3101SOL    HW1 9321   4.799   1.249   2.656
 3101SOL    HW2 9322   4.854   1.402   2.675
 3102SOL     OW 9323   4.043   0.810   2.811
 3102SOL    HW1 9324   4.136   0.846   2.816
 3102SOL    HW2 9325   4.037   0.725   2.863
 3103SOL     OW 9326   4.063   0.509   2.868
 3103SOL    HW1 9327   4.011   0.426   2.851
 3103SOL    HW2 9328   4.140   0.514   2.804
 3104SOL     OW 9329   4.862   0.380   3.540
 3104SOL    HW1 9330   4.817   0.443   3.604
 3104SOL    HW2 9331   4.955   0.411   3.523
 3105SOL     OW 9332   3.732   1.326   2.062
 3105SOL    HW1 9333   3.639   1.347   2.031
 3105SOL    HW2 9334   3.742   1.227   2.075
 3106SOL     OW 9335   3.812   1.801   2.789
 3106SOL    HW1 9336   3.770   1.715   2.762
 3106SOL    HW2 9337   3.906   1.804   2.755
 3107SOL     OW 9338   4.228   1.568   2.772
 3107SOL    HW1 9339   4.294   1.642   2.781
 3107SOL    HW2 9340   4.272   1.489   2.730
 3108SOL     OW 9341   4.726   0.796   3.100
 3108SOL    HW1 9342   4.767   0.764   3.186
 3108SOL    HW2 9343   4.630   0.769   3.097
 3109SOL     OW 9344   3.764   0.544   2.976
 3109SOL    HW1 9345   3.849   0.511   2.935
 3109SOL    HW2 9346   3.777   0.559   3.074
 3110SOL     OW 9347   3.913   0.520   3.584
 3110SOL    HW1 9348   3.972   0.480   3.514
 3110SOL    HW2 9349   3.855   0.591   3.543
 3111SOL     OW 9350   4.539   0.572   2.187
 3111SOL    HW1 9351   4.546   0.483   2.141
 3111SOL    HW2 9352   4.445   0.606   2.179
 3112SOL     OW 9353   3.976   1.564   3.606
 3112SOL    HW1 9354   3.946   1.621   3.682
 3112SOL    HW2 9355   3.969   1.467   3.632
 3113SOL     OW 9356   4.395   0.464   3.131
 3113SOL    HW1 9357   4.361   0.375   3.101
 3113SOL    HW2 9358   4.421   0.518   3.051
 3114SOL     OW 9359   4.654   1.678   3.327
 3114SOL    HW1 9360   4.630   1.660   3.232
 3114SOL    HW2 9361   4.684   1.772   3.337
 3115SOL     OW 9362   4.197   0.500   2.053
 3115SOL    HW1 9363   4.258   0.580   2.057
 3115SOL    HW2 9364   4.102   0.531   2.060
 3116SOL     OW 9365   3.883   1.137   3.328
 3116SOL    HW1 9366   3.905   1.076   3.404
 3116SOL    HW2 9367   3.893   1.088   3.242
 3117SOL     OW 9368   5.026   0.855   2.171
 3117SOL    HW1 9369   4.940   0.824   2.213
 3117SOL    HW2 9370   5.022   0.841   2.072
 3118SOL     OW 9371   3.807   1.258   2.884
 3118SOL    HW1 9372   3.802   1.257   2.984
 3118SOL    HW2 9373   3.724   1.217   2.846
 3119SOL     OW 9374   4.412   1.662   3.578
 3119SOL    HW1 9375   4.356   1.743   3.587
 3119SOL    HW2 9376   4.464   1.666   3.492
 3120SOL     OW 9377   3.854   1.794   3.713
 3120SOL    HW1 9378   3.813   1.720   3.766
 3120SOL    HW2 9379   3.918   1.845   3.771
 3121SOL     OW 9380   4.554   1.273   3.284
 3121SOL    HW1 9381   4.549   1.306   3.379
 3121SOL    HW2 9382   4.468   1.292   3.238
 3122SOL     OW 9383   4.396   1.616   2.016
 3122SOL    HW1 9384   4.405   1.626   1.917
 3122SOL    HW2 9385   4.356   1.527   2.037
 3123SOL     OW 9386   3.987   0.326   2.582
 3123SOL    HW1 9387   3.908   0.377   2.548
 3123SOL    HW2 9388   3.978   0.311   2.680
 3124SOL     OW 9389   4.546   1.002   3.234
 3124SOL    HW1 9390   4.586   1.001   3.142
 3124SOL    HW2 9391   4.556   1.094   3.274
 3125SOL     OW 9392   4.640   0.910   2.153
 3125SOL    HW1 9393   4.703   0.948   2.085
 3125SOL    HW2 9394   4.680   0.827   2.192
 3126SOL     OW 9395   4.096   1.288   3.352
 3126SOL    HW1 9396   4.083   1.381   3.318
 3126SOL    HW2 9397   4.012   1.236   3.339
 3127SOL     OW 9398   4.763   1.098   2.558
 3127SOL    HW1 9399   4.693   1.051   2.612
 3127SOL    HW2 9400   4.822   1.030   2.515
 3128SOL     OW 9401   4.738   0.236   2.833
 3128SOL    HW1 9402   4.730   0.200   2.740
 3128SOL    HW2 9403   4.736   0.160   2.898
 3129SOL     OW 9404   4.314   1.487   2.353
 3129SOL    HW1 9405   4.356   1.429   2.283
 3129SOL    HW2 9406   4.270   1.566   2.309
 3130SOL     OW 9407   3.979   1.348   2.152
 3130SOL    HW1 9408   3.883   1.349   2.125
 3130SOL    HW2 9409   3.991   1.401   2.236
 3131SOL     OW 9410   3.829   1.013   3.588
 3131SOL    HW1 9411   3.752   0.980   3.642
 3131SOL    HW2 9412   3.914   0.983   3.630
 3132SOL     OW 9413   4.396   0.203   3.351
 3132SOL    HW1 9414   4.486   0.187   3.311
 3132SOL    HW2 9415   4.404   0.208   3.450
 3133SOL     OW 9416   3.799   0.345   1.895
 3133SOL    HW1 9417   3.707   0.317   1.866
 3133SOL    HW2 9418   3.830   0.422   1.839
 3134SOL     OW 9419   3.796   0.166   2.180
 3134SOL    HW1 9420   3.779   0.249   2.126
 3134SOL    HW2 9421   3.886   0.129   2.158
 3135SOL     OW 9422   4.337   0.842   3.293
 3135SOL    HW1 9423   4.393   0.923   3.276
 3135SOL    HW2 9424   4.396   0.762   3.296
 3136SOL     OW 9425   4.440   0.565   3.570
 3136SOL    HW1 9426   4.459   0.630   3.644
 3136SOL    HW2 9427   4.500   0.485   3.579
 3137SOL     OW 9428   4.114   1.741   3.422
 3137SOL    HW1 9429   4.023   1.782   3.420
 3137SOL    HW2 9430   4.107   1.647   3.454
 3138SOL     OW 9431   4.318   0.745   2.514
 3138SOL    HW1 9432   4.368   0.830   2.495
 3138SOL    HW2 9433   4.230   0.747   2.466
 3139SOL     OW 9434   4.583   1.374   1.878
 3139SOL    HW1 9435   4.537   1.389   1.966
 3139SOL    HW2 9436   4.627   1.459   1.848
 3140SOL     OW 9437   4.385   1.790   2.815
 3140SOL    HW1 9438   4.339   1.878   2.802
 3140SOL    HW2 9439   4.484   1.802   2.808
 3141SOL     OW 9440   4.583   0.956   2.723
 3141SOL    HW1 9441   4.637   0.887   2.771
 3141SOL    HW2 9442   4.551   1.025   2.789
 3142SOL     OW 9443   4.807   0.984   1.949
 3142SOL    HW1 9444   4.784   1.037   1.867
 3142SOL    HW2 9445   4.888   0.928   1.930
 3143SOL     OW 9446   3.945   1.314   3.706
 3143SOL    HW1 9447   3.880   1.241   3.685
 3143SOL    HW2 9448   3.949   1.328   3.804
 3144SOL     OW 9449   3.803   1.240   2.515
 3144SOL    HW1 9450   3.802   1.193   2.603
 3144SOL    HW2 9451   3.885   1.212   2.464
 3145SOL     OW 9452   4.396   1.391   3.486
 3145SOL    HW1 9453   4.318   1.341   3.524
 3145SOL    HW2 9454   4.393   1.486   3.517
 3146SOL     OW 9455   4.152   0.424   2.382
 3146SOL    HW1 9456   4.182   0.352   2.320
 3146SOL    HW2 9457   4.113   0.384   2.465
 3147SOL     OW 9458   4.041   0.547   3.142
 3147SOL    HW1 9459   4.079   0.488   3.214
 3147SOL    HW2 9460   4.081   0.521   3.054
 3148SOL     OW 9461   4.536   1.586   2.549
 3148SOL    HW1 9462   4.568   1.596   2.455
 3148SOL    HW2 9463   4.457   1.524   2.551
 3149SOL     OW 9464   4.725   0.034   3.016
 3149SOL    HW1 9465   4.662  -0.038   2.985
 3149SOL    HW2 9466   4.818  -0.002   3.016
 3150SOL     OW 9467   4.494   1.330   2.163
 3150SOL    HW1 9468   4.448   1.243   2.180
 3150SOL    HW2 9469   4.585   1.327   2.204
 3151SOL     OW 9470   4.342   1.567   3.146
 3151SOL    HW1 9471   4.337   1.649   3.203
 3151SOL    HW2 9472   4.431   1.564   3.101
 3152SOL     OW 9473   3.763   1.077   2.162
 3152SOL    HW1 9474   3.862   1.066   2.153
 3152SOL    HW2 9475   3.723   0.991   2.194
 3153SOL     OW 9476   4.599   1.646   2.199
 3153SOL    HW1 9477   4.522   1.611   2.145
 3153SOL    HW2 9478   4.567   1.717   2.261
 3154SOL     OW 9479   3.954   0.628   3.837
 3154SOL    HW1 9480   3.861   0.626   3.874
 3154SOL    HW2 9481   3.955   0.589   3.745
 3155SOL     OW 9482   3.949   0.275   4.720
 3155SOL    HW1 9483   3.984   0.258   4.812
 3155SOL    HW2 9484   3.861   0.230   4.708
 3156SOL     OW 9485   3.743   0.368   4.371
 3156SOL    HW1 9486   3.661   0.411   4.410
 3156SOL    HW2 9487   3.715   0.295   4.308
 3157SOL     OW 9488   4.492   1.144   4.747
 3157SOL    HW1 9489   4.414   1.161   4.807
 3157SOL    HW2 9490   4.526   1.231   4.711
 3158SOL     OW 9491   4.409   1.012   4.389
 3158SOL    HW1 9492   4.478   0.996   4.459
 3158SOL    HW2 9493   4.336   1.069   4.427
 3159SOL     OW 9494   4.059   1.435   4.785
 3159SOL    HW1 9495   3.981   1.404   4.732
 3159SOL    HW2 9496   4.117   1.493   4.728
 3160SOL     OW 9497   3.955   1.713   4.207
 3160SOL    HW1 9498   3.989   1.790   4.261
 3160SOL    HW2 9499   3.999   1.713   4.117
 3161SOL     OW 9500   3.954   1.434   4.262
 3161SOL    HW1 9501   3.928   1.530   4.262
 3161SOL    HW2 9502   3.883   1.380   4.307
 3162SOL     OW 9503   3.964   1.091   4.610
 3162SOL    HW1 9504   3.978   1.007   4.662
 3162SOL    HW2 9505   3.909   1.155   4.665
 3163SOL     OW 9506   4.330   0.964   3.847
 3163SOL    HW1 9507   4.337   1.048   3.793
 3163SOL    HW2 9508   4.376   0.977   3.935
 3164SOL     OW 9509   3.846   0.643   4.287
 3164SOL    HW1 9510   3.801   0.555   4.304
 3164SOL    HW2 9511   3.845   0.697   4.371
 3165SOL     OW 9512   3.751   1.596   3.841
 3165SOL    HW1 9513   3.732   1.500   3.862
 3165SOL    HW2 9514   3.718   1.654   3.916
 3166SOL     OW 9515   4.337   1.365   4.450
 3166SOL    HW1 9516   4.288   1.278   4.459
 3166SOL    HW2 9517   4.314   1.408   4.363
 3167SOL     OW 9518   4.533   0.004   4.226
 3167SOL    HW1 9519   4.573   0.095   4.217
 3167SOL    HW2 9520   4.433   0.012   4.232
 3168SOL     OW 9521   4.322   0.729   3.994
 3168SOL    HW1 9522   4.346   0.798   3.926
 3168SOL    HW2 9523   4.244   0.762   4.048
 3169SOL     OW 9524   4.765   0.701   4.153
 3169SOL    HW1 9525   4.791   0.697   4.249
 3169SOL    HW2 9526   4.680   0.650   4.139
 3170SOL     OW 9527   3.800   0.811   4.513
 3170SOL    HW1 9528   3.899   0.799   4.522
 3170SOL    HW2 9529   3.776   0.906   4.534
 3171SOL     OW 9530   4.589   0.348   3.919
 3171SOL    HW1 9531   4.648   0.411   3.870
 3171SOL    HW2 9532   4.608   0.254   3.890
 3172SOL     OW 9533   4.274   0.196   4.609
 3172SOL    HW1 9534   4.269   0.191   4.709
 3172SOL    HW2 9535   4.276   0.292   4.580
 3173SOL     OW 9536   4.732   1.456   4.201
 3173SOL    HW1 9537   4.686   1.528   4.149
 3173SOL    HW2 9538   4.728   1.476   4.299
 3174SOL     OW 9539   4.075   1.801   4.577
 3174SOL    HW1 9540   4.125   1.715   4.583
 3174SOL    HW2 9541   4.140   1.878   4.574
 3175SOL     OW 9542   4.045   0.943   3.966
 3175SOL    HW1 9543   4.127   0.982   3.924
 3175SOL    HW2 9544   4.018   0.861   3.917
 3176SOL     OW 9545   4.188   1.743   4.047
 3176SOL    HW1 9546   4.221   1.782   4.133
 3176SOL    HW2 9547   4.264   1.736   3.982
 3177SOL     OW 9548   3.973   1.785   4.965
 3177SOL    HW1 9549   4.030   1.720   5.015
 3177SOL    HW2 9550   3.957   1.752   4.872
 3178SOL     OW 9551   4.664   1.698   4.628
 3178SOL    HW1 9552   4.744   1.641   4.649
 3178SOL    HW2 9553   4.615   1.658   4.551
 3179SOL     OW 9554   4.106   0.700   4.204
 3179SOL    HW1 9555   4.151   0.610   4.201
 3179SOL    HW2 9556   4.012   0.689   4.237
 3180SOL     OW 9557   4.338   0.122   3.841
 3180SOL    HW1 9558   4.436   0.100   3.848
 3180SOL    HW2 9559   4.307   0.105   3.748
 3181SOL     OW 9560   4.527   1.402   4.648
 3181SOL    HW1 9561   4.617   1.416   4.606
 3181SOL    HW2 9562   4.456   1.404   4.577
 3182SOL     OW 9563   4.646   0.503   4.623
 3182SOL    HW1 9564   4.621   0.494   4.527
 3182SOL    HW2 9565   4.694   0.421   4.654
 3183SOL     OW 9566   4.263   0.064   4.236
 3183SOL    HW1 9567   4.182   0.065   4.294
 3183SOL    HW2 9568   4.266   0.147   4.181
 3184SOL     OW 9569   4.021   0.035   3.895
 3184SOL    HW1 9570   4.070   0.119   3.874
 3184SOL    HW2 9571   4.083  -0.030   3.940
 3185SOL     OW 9572   4.659   0.236   4.204
 3185SOL    HW1 9573   4.611   0.277   4.126
 3185SOL    HW2 9574   4.758   0.234   4.185
 3186SOL     OW 9575   4.951   1.570   4.517
 3186SOL    HW1 9576   4.972   1.644   4.452
 3186SOL    HW2 9577   5.019   1.570   4.590
 3187SOL     OW 9578   4.183   1.152   4.465
 3187SOL    HW1 9579   4.112   1.125   4.530
 3187SOL    HW2 9580   4.157   1.124   4.372
 3188SOL     OW 9581   4.756   0.549   3.740
 3188SOL    HW1 9582   4.715   0.631   3.701
 3188SOL    HW2 9583   4.820   0.575   3.813
 3189SOL     OW 9584   4.590   0.454   4.366
 3189SOL    HW1 9585   4.558   0.526   4.304
 3189SOL    HW2 9586   4.614   0.373   4.313
 3190SOL     OW 9587   4.741   0.039   4.477
 3190SOL    HW1 9588   4.669   0.044   4.408
 3190SOL    HW2 9589   4.717  -0.030   4.546
 3191SOL     OW 9590   4.212   1.385   3.898
 3191SOL    HW1 9591   4.125   1.370   3.945
 3191SOL    HW2 9592   4.195   1.411   3.803
 3192SOL     OW 9593   4.251   0.256   4.052
 3192SOL    HW1 9594   4.278   0.197   3.977
 3192SOL    HW2 9595   4.251   0.351   4.021
 3193SOL     OW 9596   4.429   1.050   4.092
 3193SOL    HW1 9597   4.415   1.057   4.191
 3193SOL    HW2 9598   4.513   0.999   4.074
 3194SOL     OW 9599   4.134   0.813   4.975
 3194SOL    HW1 9600   4.220   0.825   5.025
 3194SOL    HW2 9601   4.092   0.726   5.002
 3195SOL     OW 9602   4.091   1.100   4.225
 3195SOL    HW1 9603   4.084   1.183   4.169
 3195SOL    HW2 9604   4.095   1.020   4.165
 3196SOL     OW 9605   4.290   0.537   4.589
 3196SOL    HW1 9606   4.302   0.603   4.515
 3196SOL    HW2 9607   4.336   0.571   4.672
 3197SOL     OW 9608   4.078   1.510   5.053
 3197SOL    HW1 9609   4.057   1.466   4.966
 3197SOL    HW2 9610   4.175   1.536   5.056
 3198SOL     OW 9611   4.297   0.870   4.753
 3198SOL    HW1 9612   4.341   0.959   4.744
 3198SOL    HW2 9613   4.234   0.870   4.830
 3199SOL     OW 9614   4.933   0.525   3.999
 3199SOL    HW1 9615   4.946   0.441   4.053
 3199SOL    HW2 9616   4.904   0.599   4.059
 3200SOL     OW 9617   4.456   0.634   4.788
 3200SOL    HW1 9618   4.515   0.608   4.712
 3200SOL    HW2 9619   4.428   0.730   4.777
 3201SOL     OW 9620   4.031   0.063   4.342
 3201SOL    HW1 9621   4.020   0.157   4.375
 3201SOL    HW2 9622   4.026   0.000   4.419
 3202SOL     OW 9623   4.747   0.766   4.690
 3202SOL    HW1 9624   4.762   0.787   4.786
 3202SOL    HW2 9625   4.717   0.671   4.681
 3203SOL     OW 9626   4.792   1.333   4.573
 3203SOL    HW1 9627   4.799   1.249   4.518
 3203SOL    HW2 9628   4.854   1.402   4.537
 3204SOL     OW 9629   4.043   0.810   4.673
 3204SOL    HW1 9630   4.136   0.846   4.678
 3204SOL    HW2 9631   4.037   0.725   4.725
 3205SOL     OW 9632   4.063   0.509   4.730
 3205SOL    HW1 9633   4.011   0.426   4.713
 3205SOL    HW2 9634   4.140   0.514   4.666
 3206SOL     OW 9635   3.732   1.326   3.924
 3206SOL    HW1 9636   3.639   1.347   3.893
 3206SOL    HW2 9637   3.742   1.227   3.937
 3207SOL     OW 9638   3.812   1.801   4.651
 3207SOL    HW1 9639   3.770   1.715   4.624
 3207SOL    HW2 9640   3.906   1.804   4.617
 3208SOL     OW 9641   4.228   1.568   4.634
 3208SOL    HW1 9642   4.294   1.642   4.643
 3208SOL    HW2 9643   4.272   1.489   4.592
 3209SOL     OW 9644   4.726   0.796   4.962
 3209SOL    HW1 9645   4.767   0.764   5.048
 3209SOL    HW2 9646   4.630   0.769   4.959
 3210SOL     OW 9647   3.764   0.544   4.838
 3210SOL    HW1 9648   3.849   0.511   4.797
 3210SOL    HW2 9649   3.777   0.559   4.936
 3211SOL     OW 9650   4.539   0.572   4.049
 3211SOL    HW1 9651   4.546   0.483   4.003
 3211SOL    HW2 9652   4.445   0.606   4.041
 3212SOL     OW 9653   4.395   0.464   4.993
 3212SOL    HW1 9654   4.361   0.375   4.963
 3212SOL    HW2 9655   4.421   0.518   4.913
 3213SOL     OW 9656   4.197   0.500   3.915
 3213SOL    HW1 9657   4.258   0.580   3.919
 3213SOL    HW2 9658   4.102   0.531   3.922
 3214SOL     OW 9659   5.026   0.855   4.033
 3214SOL    HW1 9660   4.940   0.824   4.075
 3214SOL    HW2 9661   5.022   0.841   3.934
 3215SOL     OW 9662   3.807   1.258   4.746
 3215SOL    HW1 9663   3.802   1.257   4.846
 3215SOL    HW2 9664   3.724   1.217   4.708
 3216SOL     OW 9665   4.396   1.616   3.878
 3216SOL    HW1 9666   4.405   1.626   3.779
 3216SOL    HW2 9667   4.356   1.527   3.899
 3217SOL     OW 9668   3.987   0.326   4.444
 3217SOL    HW1 9669   3.908   0.377   4.410
 3217SOL    HW2 9670   3.978   0.311   4.542
 3218SOL     OW 9671   4.640   0.910   4.015
 3218SOL    HW1 9672   4.703   0.948   3.947
 3218SOL    HW2 9673   4.680   0.827   4.054
 3219SOL     OW 9674   4.763   1.098   4.420
 3219SOL    HW1 9675   4.693   1.051   4.474
 3219SOL    HW2 9676   4.822   1.030   4.377
 3220SOL     OW 9677   4.738   0.236   4.695
 3220SOL    HW1 9678   4.730   0.200   4.602
 3220SOL    HW2 9679   4.736   0.160   4.760
 3221SOL     OW 9680   4.314   1.487   4.215
 3221SOL    HW1 9681   4.356   1.429   4.145
 3221SOL    HW2 9682   4.270   1.566   4.171
 3222SOL     OW 9683   3.979   1.348   4.014
 3222SOL    HW1 9684   3.883   1.349   3.987
 3222SOL    HW2 9685   3.991   1.401   4.098
 3223SOL     OW 9686   3.799   0.345   3.757
 3223SOL    HW1 9687   3.707   0.317   3.728
 3223SOL    HW2 9688   3.830   0.422   3.701
 3224SOL     OW 9689   3.796   0.166   4.042
 3224SOL    HW1 9690   3.779   0.249   3.988
 3224SOL    HW2 9691   3.886   0.129   4.020
 3225SOL     OW 9692   4.318   0.745   4.376
 3225SOL    HW1 9693   4.368   0.830   4.357
 3225SOL    HW2 9694   4.230   0.747   4.328
 3226SOL     OW 9695   4.583   1.374   3.740
 3226SOL    HW1 9696   4.537   1.389   3.828
 3226SOL    HW2 9697   4.627   1.459   3.710
 3227SOL     OW 9698   4.385   1.790   4.677
 3227SOL    HW1 9699   4.339   1.878   4.664
 3227SOL    HW2 9700   4.484   1.802   4.670
 3228SOL     OW 9701   4.583   0.956   4.585
 3228SOL    HW1 9702   4.637   0.887   4.633
 3228SOL    HW2 9703   4.551   1.025   4.651
 3229SOL     OW 9704   4.807   0.984   3.811
 3229SOL    HW1 9705   4.784   1.037   3.729
 3229SOL    HW2 9706   4.888   0.928   3.792
 3230SOL     OW 9707   3.803   1.240   4.377
 3230SOL    HW1 9708   3.802   1.193   4.465
 3230SOL    HW2 9709   3.885   1.212   4.326
 3231SOL     OW 9710   4.152   0.424   4.244
 3231SOL    HW1 9711   4.182   0.352   4.182
 3231SOL    HW2 9712   4.113   0.384   4.327
 3232SOL     OW 9713   4.536   1.586   4.411
 3232SOL    HW1 9714   4.568   1.596   4.317
 3232SOL    HW2 9715   4.457   1.524   4.413
 3233SOL     OW 9716   4.494   1.330   4.025
 3233SOL    HW1 9717   4.448   1.243   4.042
 3233SOL    HW2 9718   4.585   1.327   4.066
 3234SOL     OW 9719   3.763   1.077   4.024
 3234SOL    HW1 9720   3.862   1.066   4.015
 3234SOL    HW2 9721   3.723   0.991   4.056
 3235SOL     OW 9722   4.599   1.646   4.061
 3235SOL    HW1 9723   4.522   1.611   4.007
 3235SOL    HW2 9724   4.567   1.717   4.123
 3236SOL     OW 9725   3.954   2.490   0.113
 3236SOL    HW1 9726   3.861   2.488   0.150
 3236SOL    HW2 9727   3.955   2.451   0.021
 3237SOL     OW 9728   3.949   2.137   0.996
 3237SOL    HW1 9729   3.984   2.120   1.088
 3237SOL    HW2 9730   3.861   2.092   0.984
 3238SOL     OW 9731   3.743   2.230   0.647
 3238SOL    HW1 9732   3.661   2.273   0.686
 3238SOL    HW2 9733   3.715   2.157   0.584
 3239SOL     OW 9734   4.293   3.137   1.165
 3239SOL    HW1 9735   4.200   3.130   1.128
 3239SOL    HW2 9736   4.304   3.226   1.209
 3240SOL     OW 9737   4.492   3.006   1.023
 3240SOL    HW1 9738   4.414   3.023   1.083
 3240SOL    HW2 9739   4.526   3.093   0.987
 3241SOL     OW 9740   4.574   2.660   1.823
 3241SOL    HW1 9741   4.570   2.736   1.888
 3241SOL    HW2 9742   4.596   2.696   1.732
 3242SOL     OW 9743   4.409   2.874   0.665
 3242SOL    HW1 9744   4.478   2.858   0.735
 3242SOL    HW2 9745   4.336   2.931   0.703
 3243SOL     OW 9746   4.410   3.023   1.803
 3243SOL    HW1 9747   4.470   3.102   1.817
 3243SOL    HW2 9748   4.324   3.054   1.762
 3244SOL     OW 9749   4.059   3.297   1.061
 3244SOL    HW1 9750   3.981   3.266   1.008
 3244SOL    HW2 9751   4.117   3.355   1.004
 3245SOL     OW 9752   4.162   2.254   1.499
 3245SOL    HW1 9753   4.244   2.198   1.508
 3245SOL    HW2 9754   4.081   2.196   1.503
 3246SOL     OW 9755   3.955   3.575   0.483
 3246SOL    HW1 9756   3.989   3.652   0.537
 3246SOL    HW2 9757   3.999   3.575   0.393
 3247SOL     OW 9758   4.851   3.203   1.690
 3247SOL    HW1 9759   4.898   3.203   1.778
 3247SOL    HW2 9760   4.803   3.116   1.679
 3248SOL     OW 9761   3.954   3.296   0.538
 3248SOL    HW1 9762   3.928   3.392   0.538
 3248SOL    HW2 9763   3.883   3.242   0.583
 3249SOL     OW 9764   3.964   2.953   0.886
 3249SOL    HW1 9765   3.978   2.869   0.938
 3249SOL    HW2 9766   3.909   3.017   0.941
 3250SOL     OW 9767   4.344   3.648   1.439
 3250SOL    HW1 9768   4.252   3.631   1.474
 3250SOL    HW2 9769   4.372   3.740   1.465
 3251SOL     OW 9770   4.330   2.826   0.123
 3251SOL    HW1 9771   4.337   2.910   0.069
 3251SOL    HW2 9772   4.376   2.839   0.211
 3252SOL     OW 9773   3.846   2.505   0.563
 3252SOL    HW1 9774   3.801   2.417   0.580
 3252SOL    HW2 9775   3.845   2.559   0.647
 3253SOL     OW 9776   3.751   3.458   0.117
 3253SOL    HW1 9777   3.732   3.362   0.138
 3253SOL    HW2 9778   3.718   3.516   0.192
 3254SOL     OW 9779   3.837   2.599   1.597
 3254SOL    HW1 9780   3.925   2.586   1.642
 3254SOL    HW2 9781   3.824   2.696   1.575
 3255SOL     OW 9782   4.337   3.227   0.726
 3255SOL    HW1 9783   4.288   3.140   0.735
 3255SOL    HW2 9784   4.314   3.270   0.639
 3256SOL     OW 9785   4.533   1.866   0.502
 3256SOL    HW1 9786   4.573   1.957   0.493
 3256SOL    HW2 9787   4.433   1.874   0.508
 3257SOL     OW 9788   3.921   2.838   1.264
 3257SOL    HW1 9789   4.010   2.793   1.250
 3257SOL    HW2 9790   3.848   2.773   1.245
 3258SOL     OW 9791   4.041   2.113   1.801
 3258SOL    HW1 9792   4.112   2.184   1.807
 3258SOL    HW2 9793   3.953   2.152   1.829
 3259SOL     OW 9794   4.322   2.591   0.270
 3259SOL    HW1 9795   4.346   2.660   0.202
 3259SOL    HW2 9796   4.244   2.624   0.324
 3260SOL     OW 9797   4.531   2.467   1.465
 3260SOL    HW1 9798   4.484   2.464   1.554
 3260SOL    HW2 9799   4.480   2.412   1.399
 3261SOL     OW 9800   4.697   2.752   1.572
 3261SOL    HW1 9801   4.743   2.668   1.543
 3261SOL    HW2 9802   4.641   2.786   1.497
 3262SOL     OW 9803   4.715   2.272   1.242
 3262SOL    HW1 9804   4.638   2.306   1.296
 3262SOL    HW2 9805   4.681   2.221   1.163
 3263SOL     OW 9806   4.765   2.563   0.429
 3263SOL    HW1 9807   4.791   2.559   0.525
 3263SOL    HW2 9808   4.680   2.512   0.415
 3264SOL     OW 9809   3.800   2.673   0.789
 3264SOL    HW1 9810   3.899   2.661   0.798
 3264SOL    HW2 9811   3.776   2.768   0.810
 3265SOL     OW 9812   3.854   3.683   1.571
 3265SOL    HW1 9813   3.844   3.668   1.670
 3265SOL    HW2 9814   3.768   3.719   1.535
 3266SOL     OW 9815   4.589   2.210   0.195
 3266SOL    HW1 9816   4.648   2.273   0.146
 3266SOL    HW2 9817   4.608   2.116   0.166
 3267SOL     OW 9818   4.274   2.058   0.885
 3267SOL    HW1 9819   4.269   2.053   0.985
 3267SOL    HW2 9820   4.276   2.154   0.856
 3268SOL     OW 9821   4.732   3.318   0.477
 3268SOL    HW1 9822   4.686   3.390   0.425
 3268SOL    HW2 9823   4.728   3.338   0.575
 3269SOL     OW 9824   4.075   3.663   0.853
 3269SOL    HW1 9825   4.125   3.577   0.859
 3269SOL    HW2 9826   4.140   3.740   0.850
 3270SOL     OW 9827   4.045   2.805   0.242
 3270SOL    HW1 9828   4.127   2.844   0.200
 3270SOL    HW2 9829   4.018   2.723   0.193
 3271SOL     OW 9830   4.185   3.128   1.727
 3271SOL    HW1 9831   4.135   3.129   1.641
 3271SOL    HW2 9832   4.122   3.110   1.803
 3272SOL     OW 9833   3.926   2.147   1.498
 3272SOL    HW1 9834   3.846   2.207   1.485
 3272SOL    HW2 9835   3.916   2.098   1.584
 3273SOL     OW 9836   4.188   3.605   0.323
 3273SOL    HW1 9837   4.221   3.644   0.409
 3273SOL    HW2 9838   4.264   3.598   0.258
 3274SOL     OW 9839   3.973   3.647   1.241
 3274SOL    HW1 9840   4.030   3.582   1.291
 3274SOL    HW2 9841   3.957   3.614   1.148
 3275SOL     OW 9842   4.664   3.560   0.904
 3275SOL    HW1 9843   4.744   3.503   0.925
 3275SOL    HW2 9844   4.615   3.520   0.827
 3276SOL     OW 9845   4.106   2.562   0.480
 3276SOL    HW1 9846   4.151   2.472   0.477
 3276SOL    HW2 9847   4.012   2.551   0.513
 3277SOL     OW 9848   4.338   1.984   0.117
 3277SOL    HW1 9849   4.436   1.962   0.124
 3277SOL    HW2 9850   4.307   1.967   0.024
 3278SOL     OW 9851   4.505   2.126   1.749
 3278SOL    HW1 9852   4.572   2.065   1.792
 3278SOL    HW2 9853   4.432   2.145   1.814
 3279SOL     OW 9854   4.612   3.376   1.195
 3279SOL    HW1 9855   4.589   3.351   1.101
 3279SOL    HW2 9856   4.673   3.307   1.234
 3280SOL     OW 9857   4.527   3.264   0.924
 3280SOL    HW1 9858   4.617   3.278   0.882
 3280SOL    HW2 9859   4.456   3.266   0.853
 3281SOL     OW 9860   4.646   2.365   0.899
 3281SOL    HW1 9861   4.621   2.356   0.803
 3281SOL    HW2 9862   4.694   2.283   0.930
 3282SOL     OW 9863   4.263   1.926   0.512
 3282SOL    HW1 9864   4.182   1.927   0.570
 3282SOL    HW2 9865   4.266   2.009   0.457
 3283SOL     OW 9866   5.158   3.050   0.041
 3283SOL    HW1 9867   5.190   2.974   0.098
 3283SOL    HW2 9868   5.066   3.077   0.071
 3284SOL     OW 9869   4.659   2.098   0.480
 3284SOL    HW1 9870   4.611   2.139   0.402
 3284SOL    HW2 9871   4.758   2.096   0.461
 3285SOL     OW 9872   4.951   3.432   0.793
 3285SOL    HW1 9873   4.972   3.506   0.728
 3285SOL    HW2 9874   5.019   3.432   0.866
 3286SOL     OW 9875   4.183   3.014   0.741
 3286SOL    HW1 9876   4.112   2.987   0.806
 3286SOL    HW2 9877   4.157   2.986   0.648
 3287SOL     OW 9878   4.756   2.411   0.016
 3287SOL    HW1 9879   4.715   2.493  -0.023
 3287SOL    HW2 9880   4.820   2.437   0.089
 3288SOL     OW 9881   3.802   2.418   1.386
 3288SOL    HW1 9882   3.894   2.417   1.345
 3288SOL    HW2 9883   3.796   2.492   1.453
 3289SOL     OW 9884   4.285   2.084   1.147
 3289SOL    HW1 9885   4.323   2.000   1.184
 3289SOL    HW2 9886   4.197   2.103   1.191
 3290SOL     OW 9887   4.590   2.316   0.642
 3290SOL    HW1 9888   4.558   2.388   0.580
 3290SOL    HW2 9889   4.614   2.235   0.589
 3291SOL     OW 9890   4.741   1.901   0.753
 3291SOL    HW1 9891   4.669   1.906   0.684
 3291SOL    HW2 9892   4.717   1.832   0.822
 3292SOL     OW 9893   4.212   3.247   0.174
 3292SOL    HW1 9894   4.125   3.232   0.221
 3292SOL    HW2 9895   4.195   3.273   0.079
 3293SOL     OW 9896   4.251   2.118   0.328
 3293SOL    HW1 9897   4.278   2.059   0.253
 3293SOL    HW2 9898   4.251   2.213   0.297
 3294SOL     OW 9899   4.639   1.951   1.402
 3294SOL    HW1 9900   4.664   1.931   1.307
 3294SOL    HW2 9901   4.711   2.007   1.444
 3295SOL     OW 9902   4.704   2.978   1.719
 3295SOL    HW1 9903   4.605   2.984   1.729
 3295SOL    HW2 9904   4.727   2.898   1.663
 3296SOL     OW 9905   4.429   2.912   0.368
 3296SOL    HW1 9906   4.415   2.919   0.467
 3296SOL    HW2 9907   4.513   2.861   0.350
 3297SOL     OW 9908   4.134   2.675   1.251
 3297SOL    HW1 9909   4.220   2.687   1.301
 3297SOL    HW2 9910   4.092   2.588   1.278
 3298SOL     OW 9911   3.788   3.426   1.331
 3298SOL    HW1 9912   3.742   3.508   1.297
 3298SOL    HW2 9913   3.886   3.445   1.340
 3299SOL     OW 9914   4.091   2.962   0.501
 3299SOL    HW1 9915   4.084   3.045   0.445
 3299SOL    HW2 9916   4.095   2.882   0.441
 3300SOL     OW 9917   4.290   2.399   0.865
 3300SOL    HW1 9918   4.302   2.465   0.791
 3300SOL    HW2 9919   4.336   2.433   0.948
 3301SOL     OW 9920   4.078   3.372   1.329
 3301SOL    HW1 9921   4.057   3.328   1.242
 3301SOL    HW2 9922   4.175   3.398   1.332
 3302SOL     OW 9923   4.126   2.613   1.598
 3302SOL    HW1 9924   4.194   2.668   1.551
 3302SOL    HW2 9925   4.166   2.525   1.625
 3303SOL     OW 9926   4.737   1.967   1.770
 3303SOL    HW1 9927   4.743   2.052   1.718
 3303SOL    HW2 9928   4.769   1.891   1.713
 3304SOL     OW 9929   4.228   1.912   1.740
 3304SOL    HW1 9930   4.186   1.855   1.670
 3304SOL    HW2 9931   4.162   1.981   1.772
 3305SOL     OW 9932   4.297   2.732   1.029
 3305SOL    HW1 9933   4.341   2.821   1.020
 3305SOL    HW2 9934   4.234   2.732   1.106
 3306SOL     OW 9935   4.933   2.387   0.275
 3306SOL    HW1 9936   4.946   2.303   0.329
 3306SOL    HW2 9937   4.904   2.461   0.335
 3307SOL     OW 9938   4.031   2.075   1.231
 3307SOL    HW1 9939   4.008   2.112   1.321
 3307SOL    HW2 9940   4.001   1.980   1.225
 3308SOL     OW 9941   3.761   3.172   1.282
 3308SOL    HW1 9942   3.814   3.123   1.350
 3308SOL    HW2 9943   3.783   3.270   1.287
 3309SOL     OW 9944   4.456   2.496   1.064
 3309SOL    HW1 9945   4.515   2.470   0.988
 3309SOL    HW2 9946   4.428   2.592   1.053
 3310SOL     OW 9947   4.031   1.925   0.618
 3310SOL    HW1 9948   4.020   2.019   0.651
 3310SOL    HW2 9949   4.026   1.862   0.695
 3311SOL     OW 9950   4.747   2.628   0.966
 3311SOL    HW1 9951   4.762   2.649   1.062
 3311SOL    HW2 9952   4.717   2.533   0.957
 3312SOL     OW 9953   4.704   3.435   1.700
 3312SOL    HW1 9954   4.684   3.479   1.612
 3312SOL    HW2 9955   4.743   3.344   1.684
 3313SOL     OW 9956   4.074   2.760   1.804
 3313SOL    HW1 9957   4.150   2.804   1.852
 3313SOL    HW2 9958   4.109   2.713   1.722
 3314SOL     OW 9959   4.792   3.195   0.849
 3314SOL    HW1 9960   4.799   3.111   0.794
 3314SOL    HW2 9961   4.854   3.264   0.813
 3315SOL     OW 9962   4.043   2.672   0.949
 3315SOL    HW1 9963   4.136   2.708   0.954
 3315SOL    HW2 9964   4.037   2.587   1.001
 3316SOL     OW 9965   4.063   2.371   1.006
 3316SOL    HW1 9966   4.011   2.288   0.989
 3316SOL    HW2 9967   4.140   2.376   0.942
 3317SOL     OW 9968   4.862   2.242   1.678
 3317SOL    HW1 9969   4.817   2.305   1.742
 3317SOL    HW2 9970   4.955   2.273   1.661
 3318SOL     OW 9971   4.884   2.069   1.477
 3318SOL    HW1 9972   4.884   2.133   1.554
 3318SOL    HW2 9973   4.912   2.117   1.394
 3319SOL     OW 9974   3.732   3.188   0.200
 3319SOL    HW1 9975   3.639   3.209   0.169
 3319SOL    HW2 9976   3.742   3.089   0.213
 3320SOL     OW 9977   3.812   3.663   0.927
 3320SOL    HW1 9978   3.770   3.577   0.900
 3320SOL    HW2 9979   3.906   3.666   0.893
 3321SOL     OW 9980   4.228   3.430   0.910
 3321SOL    HW1 9981   4.294   3.504   0.919
 3321SOL    HW2 9982   4.272   3.351   0.868
 3322SOL     OW 9983   4.726   2.658   1.238
 3322SOL    HW1 9984   4.767   2.626   1.324
 3322SOL    HW2 9985   4.630   2.631   1.235
 3323SOL     OW 9986   3.764   2.406   1.114
 3323SOL    HW1 9987   3.849   2.373   1.073
 3323SOL    HW2 9988   3.777   2.421   1.212
 3324SOL     OW 9989   3.913   2.382   1.722
 3324SOL    HW1 9990   3.972   2.342   1.652
 3324SOL    HW2 9991   3.855   2.453   1.681
 3325SOL     OW 9992   4.539   2.434   0.325
 3325SOL    HW1 9993   4.546   2.345   0.279
 3325SOL    HW2 9994   4.445   2.468   0.317
 3326SOL     OW 9995   3.976   3.426   1.744
 3326SOL    HW1 9996   3.946   3.483   1.820
 3326SOL    HW2 9997   3.969   3.329   1.770
 3327SOL     OW 9998   4.395   2.326   1.269
 3327SOL    HW1 9999   4.361   2.237   1.239
 3327SOL    HW210000   4.421   2.380   1.189
 3328SOL     OW10001   4.654   3.540   1.465
 3328SOL    HW110002   4.630   3.522   1.370
 3328SOL    HW210003   4.684   3.634   1.475
 3329SOL     OW10004   4.197   2.362   0.191
 3329SOL    HW110005   4.258   2.442   0.195
 3329SOL    HW210006   4.102   2.393   0.198
 3330SOL     OW10007   3.883   2.999   1.466
 3330SOL    HW110008   3.905   2.938   1.542
 3330SOL    HW210009   3.893   2.950   1.380
 3331SOL     OW10010   5.026   2.717   0.309
 3331SOL    HW110011   4.940   2.686   0.351
 3331SOL    HW210012   5.022   2.703   0.210
 3332SOL     OW10013   3.807   3.120   1.022
 3332SOL    HW110014   3.802   3.119   1.122
 3332SOL    HW210015   3.724   3.079   0.984
 3333SOL     OW10016   4.412   3.524   1.716
 3333SOL    HW110017   4.356   3.605   1.725
 3333SOL    HW210018   4.464   3.528   1.630
 3334SOL     OW10019   4.627   1.948   0.133
 3334SOL    HW110020   4.678   1.949   0.047
 3334SOL    HW210021   4.683   1.906   0.204
 3335SOL     OW10022   3.854   3.656   1.851
 3335SOL    HW110023   3.813   3.582   1.904
 3335SOL    HW210024   3.918   3.707   1.909
 3336SOL     OW10025   4.554   3.135   1.422
 3336SOL    HW110026   4.549   3.168   1.517
 3336SOL    HW210027   4.468   3.154   1.376
 3337SOL     OW10028   4.396   3.478   0.154
 3337SOL    HW110029   4.405   3.488   0.055
 3337SOL    HW210030   4.356   3.389   0.175
 3338SOL     OW10031   3.987   2.188   0.720
 3338SOL    HW110032   3.908   2.239   0.686
 3338SOL    HW210033   3.978   2.173   0.818
 3339SOL     OW10034   4.546   2.864   1.372
 3339SOL    HW110035   4.586   2.863   1.280
 3339SOL    HW210036   4.556   2.956   1.412
 3340SOL     OW10037   4.640   2.772   0.291
 3340SOL    HW110038   4.703   2.810   0.223
 3340SOL    HW210039   4.680   2.689   0.330
 3341SOL     OW10040   4.096   3.150   1.490
 3341SOL    HW110041   4.083   3.243   1.456
 3341SOL    HW210042   4.012   3.098   1.477
 3342SOL     OW10043   4.763   2.960   0.696
 3342SOL    HW110044   4.693   2.913   0.750
 3342SOL    HW210045   4.822   2.892   0.653
 3343SOL     OW10046   4.738   2.098   0.971
 3343SOL    HW110047   4.730   2.062   0.878
 3343SOL    HW210048   4.736   2.022   1.036
 3344SOL     OW10049   4.314   3.349   0.491
 3344SOL    HW110050   4.356   3.291   0.421
 3344SOL    HW210051   4.270   3.428   0.447
 3345SOL     OW10052   3.979   3.210   0.290
 3345SOL    HW110053   3.883   3.211   0.263
 3345SOL    HW210054   3.991   3.263   0.374
 3346SOL     OW10055   3.829   2.875   1.726
 3346SOL    HW110056   3.752   2.842   1.780
 3346SOL    HW210057   3.914   2.845   1.768
 3347SOL     OW10058   4.396   2.065   1.489
 3347SOL    HW110059   4.486   2.049   1.449
 3347SOL    HW210060   4.404   2.070   1.588
 3348SOL     OW10061   3.796   2.028   0.318
 3348SOL    HW110062   3.779   2.111   0.264
 3348SOL    HW210063   3.886   1.991   0.296
 3349SOL     OW10064   4.337   2.704   1.431
 3349SOL    HW110065   4.393   2.785   1.414
 3349SOL    HW210066   4.396   2.624   1.434
 3350SOL     OW10067   4.440   2.427   1.708
 3350SOL    HW110068   4.459   2.492   1.782
 3350SOL    HW210069   4.500   2.347   1.717
 3351SOL     OW10070   4.114   3.603   1.560
 3351SOL    HW110071   4.023   3.644   1.558
 3351SOL    HW210072   4.107   3.509   1.592
 3352SOL     OW10073   4.318   2.607   0.652
 3352SOL    HW110074   4.368   2.692   0.633
 3352SOL    HW210075   4.230   2.609   0.604
 3353SOL     OW10076   4.583   3.236   0.016
 3353SOL    HW110077   4.537   3.251   0.104
 3353SOL    HW210078   4.627   3.321  -0.014
 3354SOL     OW10079   4.385   3.652   0.953
 3354SOL    HW110080   4.339   3.740   0.940
 3354SOL    HW210081   4.484   3.664   0.946
 3355SOL     OW10082   4.583   2.818   0.861
 3355SOL    HW110083   4.637   2.749   0.909
 3355SOL    HW210084   4.551   2.887   0.927
 3356SOL     OW10085   4.807   2.846   0.087
 3356SOL    HW110086   4.784   2.899   0.005
 3356SOL    HW210087   4.888   2.790   0.068
 3357SOL     OW10088   3.945   3.176   1.844
 3357SOL    HW110089   3.880   3.103   1.823
 3357SOL    HW210090   3.949   3.190   1.942
 3358SOL     OW10091   3.803   3.102   0.653
 3358SOL    HW110092   3.802   3.055   0.741
 3358SOL    HW210093   3.885   3.074   0.602
 3359SOL     OW10094   4.396   3.253   1.624
 3359SOL    HW110095   4.318   3.203   1.662
 3359SOL    HW210096   4.393   3.348   1.655
 3360SOL     OW10097   4.152   2.286   0.520
 3360SOL    HW110098   4.182   2.214   0.458
 3360SOL    HW210099   4.113   2.246   0.603
 3361SOL     OW10100   4.041   2.409   1.280
 3361SOL    HW110101   4.079   2.350   1.352
 3361SOL    HW210102   4.081   2.383   1.192
 3362SOL     OW10103   4.536   3.448   0.687
 3362SOL    HW110104   4.568   3.458   0.593
 3362SOL    HW210105   4.457   3.386   0.689
 3363SOL     OW10106   4.725   1.896   1.154
 3363SOL    HW110107   4.662   1.824   1.123
 3363SOL    HW210108   4.818   1.860   1.154
 3364SOL     OW10109   4.494   3.192   0.301
 3364SOL    HW110110   4.448   3.105   0.318
 3364SOL    HW210111   4.585   3.189   0.342
 3365SOL     OW10112   4.342   3.429   1.284
 3365SOL    HW110113   4.337   3.511   1.341
 3365SOL    HW210114   4.431   3.426   1.239
 3366SOL     OW10115   3.763   2.939   0.300
 3366SOL    HW110116   3.862   2.928   0.291
 3366SOL    HW210117   3.723   2.853   0.332
 3367SOL     OW10118   4.599   3.508   0.337
 3367SOL    HW110119   4.522   3.473   0.283
 3367SOL    HW210120   4.567   3.579   0.399
 3368SOL     OW10121   3.954   2.490   1.975
 3368SOL    HW110122   3.861   2.488   2.012
 3368SOL    HW210123   3.955   2.451   1.883
 3369SOL     OW10124   3.949   2.137   2.858
 3369SOL    HW110125   3.984   2.120   2.950
 3369SOL    HW210126   3.861   2.092   2.846
 3370SOL     OW10127   3.743   2.230   2.509
 3370SOL    HW110128   3.661   2.273   2.548
 3370SOL    HW210129   3.715   2.157   2.446
 3371SOL     OW10130   4.293   3.137   3.027
 3371SOL    HW110131   4.200   3.130   2.990
 3371SOL    HW210132   4.304   3.226   3.071
 3372SOL     OW10133   4.492   3.006   2.885
 3372SOL    HW110134   4.414   3.023   2.945
 3372SOL    HW210135   4.526   3.093   2.849
 3373SOL     OW10136   4.574   2.660   3.685
 3373SOL    HW110137   4.570   2.736   3.750
 3373SOL    HW210138   4.596   2.696   3.594
 3374SOL     OW10139   4.409   2.874   2.527
 3374SOL    HW110140   4.478   2.858   2.597
 3374SOL    HW210141   4.336   2.931   2.565
 3375SOL     OW10142   4.410   3.023   3.665
 3375SOL    HW110143   4.470   3.102   3.679
 3375SOL    HW210144   4.324   3.054   3.624
 3376SOL     OW10145   4.059   3.297   2.923
 3376SOL    HW110146   3.981   3.266   2.870
 3376SOL    HW210147   4.117   3.355   2.866
 3377SOL     OW10148   4.162   2.254   3.361
 3377SOL    HW110149   4.244   2.198   3.370
 3377SOL    HW210150   4.081   2.196   3.365
 3378SOL     OW10151   3.955   3.575   2.345
 3378SOL    HW110152   3.989   3.652   2.399
 3378SOL    HW210153   3.999   3.575   2.255
 3379SOL     OW10154   4.851   3.203   3.552
 3379SOL    HW110155   4.898   3.203   3.640
 3379SOL    HW210156   4.803   3.116   3.541
 3380SOL     OW10157   3.954   3.296   2.400
 3380SOL    HW110158   3.928   3.392   2.400
 3380SOL    HW210159   3.883   3.242   2.445
 3381SOL     OW10160   3.964   2.953   2.748
 3381SOL    HW110161   3.978   2.869   2.800
 3381SOL    HW210162   3.909   3.017   2.803
 3382SOL     OW10163   4.344   3.648   3.301
 3382SOL    HW110164   4.252   3.631   3.336
 3382SOL    HW210165   4.372   3.740   3.327
 3383SOL     OW10166   4.330   2.826   1.985
 3383SOL    HW110167   4.337   2.910   1.931
 3383SOL    HW210168   4.376   2.839   2.073
 3384SOL     OW10169   3.846   2.505   2.425
 3384SOL    HW110170   3.801   2.417   2.442
 3384SOL    HW210171   3.845   2.559   2.509
 3385SOL     OW10172   3.751   3.458   1.979
 3385SOL    HW110173   3.732   3.362   2.000
 3385SOL    HW210174   3.718   3.516   2.054
 3386SOL     OW10175   3.837   2.599   3.459
 3386SOL    HW110176   3.925   2.586   3.504
 3386SOL    HW210177   3.824   2.696   3.437
 3387SOL     OW10178   4.337   3.227   2.588
 3387SOL    HW110179   4.288   3.140   2.597
 3387SOL    HW210180   4.314   3.270   2.501
 3388SOL     OW10181   4.533   1.866   2.364
 3388SOL    HW110182   4.573   1.957   2.355
 3388SOL    HW210183   4.433   1.874   2.370
 3389SOL     OW10184   3.921   2.838   3.126
 3389SOL    HW110185   4.010   2.793   3.112
 3389SOL    HW210186   3.848   2.773   3.107
 3390SOL     OW10187   4.041   2.113   3.663
 3390SOL    HW110188   4.112   2.184   3.669
 3390SOL    HW210189   3.953   2.152   3.691
 3391SOL     OW10190   4.322   2.591   2.132
 3391SOL    HW110191   4.346   2.660   2.064
 3391SOL    HW210192   4.244   2.624   2.186
 3392SOL     OW10193   4.531   2.467   3.327
 3392SOL    HW110194   4.484   2.464   3.416
 3392SOL    HW210195   4.480   2.412   3.261
 3393SOL     OW10196   4.697   2.752   3.434
 3393SOL    HW110197   4.743   2.668   3.405
 3393SOL    HW210198   4.641   2.786   3.359
 3394SOL     OW10199   4.715   2.272   3.104
 3394SOL    HW110200   4.638   2.306   3.158
 3394SOL    HW210201   4.681   2.221   3.025
 3395SOL     OW10202   4.765   2.563   2.291
 3395SOL    HW110203   4.791   2.559   2.387
 3395SOL    HW210204   4.680   2.512   2.277
 3396SOL     OW10205   3.800   2.673   2.651
 3396SOL    HW110206   3.899   2.661   2.660
 3396SOL    HW210207   3.776   2.768   2.672
 3397SOL     OW10208   3.854   3.683   3.433
 3397SOL    HW110209   3.844   3.668   3.532
 3397SOL    HW210210   3.768   3.719   3.397
 3398SOL     OW10211   4.589   2.210   2.057
 3398SOL    HW110212   4.648   2.273   2.008
 3398SOL    HW210213   4.608   2.116   2.028
 3399SOL     OW10214   4.274   2.058   2.747
 3399SOL    HW110215   4.269   2.053   2.847
 3399SOL    HW210216   4.276   2.154   2.718
 3400SOL     OW10217   4.732   3.318   2.339
 3400SOL    HW110218   4.686   3.390   2.287
 3400SOL    HW210219   4.728   3.338   2.437
 3401SOL     OW10220   4.075   3.663   2.715
 3401SOL    HW110221   4.125   3.577   2.721
 3401SOL    HW210222   4.140   3.740   2.712
 3402SOL     OW10223   4.045   2.805   2.104
 3402SOL    HW110224   4.127   2.844   2.062
 3402SOL    HW210225   4.018   2.723   2.055
 3403SOL     OW10226   4.185   3.128   3.589
 3403SOL    HW110227   4.135   3.129   3.503
 3403SOL    HW210228   4.122   3.110   3.665
 3404SOL     OW10229   3.926   2.147   3.360
 3404SOL    HW110230   3.846   2.207   3.347
 3404SOL    HW210231   3.916   2.098   3.446
 3405SOL     OW10232   4.188   3.605   2.185
 3405SOL    HW110233   4.221   3.644   2.271
 3405SOL    HW210234   4.264   3.598   2.120
 3406SOL     OW10235   3.973   3.647   3.103
 3406SOL    HW110236   4.030   3.582   3.153
 3406SOL    HW210237   3.957   3.614   3.010
 3407SOL     OW10238   4.664   3.560   2.766
 3407SOL    HW110239   4.744   3.503   2.787
 3407SOL    HW210240   4.615   3.520   2.689
 3408SOL     OW10241   4.106   2.562   2.342
 3408SOL    HW110242   4.151   2.472   2.339
 3408SOL    HW210243   4.012   2.551   2.375
 3409SOL     OW10244   4.338   1.984   1.979
 3409SOL    HW110245   4.436   1.962   1.986
 3409SOL    HW210246   4.307   1.967   1.886
 3410SOL     OW10247   4.505   2.126   3.611
 3410SOL    HW110248   4.572   2.065   3.654
 3410SOL    HW210249   4.432   2.145   3.676
 3411SOL     OW10250   4.612   3.376   3.057
 3411SOL    HW110251   4.589   3.351   2.963
 3411SOL    HW210252   4.673   3.307   3.096
 3412SOL     OW10253   4.527   3.264   2.786
 3412SOL    HW110254   4.617   3.278   2.744
 3412SOL    HW210255   4.456   3.266   2.715
 3413SOL     OW10256   4.646   2.365   2.761
 3413SOL    HW110257   4.621   2.356   2.665
 3413SOL    HW210258   4.694   2.283   2.792
 3414SOL     OW10259   4.263   1.926   2.374
 3414SOL    HW110260   4.182   1.927   2.432
 3414SOL    HW210261   4.266   2.009   2.319
 3415SOL     OW10262   4.021   1.897   2.033
 3415SOL    HW110263   4.070   1.981   2.012
 3415SOL    HW210264   4.083   1.832   2.078
 3416SOL     OW10265   4.659   2.098   2.342
 3416SOL    HW110266   4.611   2.139   2.264
 3416SOL    HW210267   4.758   2.096   2.323
 3417SOL     OW10268   4.951   3.432   2.655
 3417SOL    HW110269   4.972   3.506   2.590
 3417SOL    HW210270   5.019   3.432   2.728
 3418SOL     OW10271   4.183   3.014   2.603
 3418SOL    HW110272   4.112   2.987   2.668
 3418SOL    HW210273   4.157   2.986   2.510
 3419SOL     OW10274   4.756   2.411   1.878
 3419SOL    HW110275   4.715   2.493   1.839
 3419SOL    HW210276   4.820   2.437   1.951
 3420SOL     OW10277   3.802   2.418   3.248
 3420SOL    HW110278   3.894   2.417   3.207
 3420SOL    HW210279   3.796   2.492   3.315
 3421SOL     OW10280   4.285   2.084   3.009
 3421SOL    HW110281   4.323   2.000   3.046
 3421SOL    HW210282   4.197   2.103   3.053
 3422SOL     OW10283   4.590   2.316   2.504
 3422SOL    HW110284   4.558   2.388   2.442
 3422SOL    HW210285   4.614   2.235   2.451
 3423SOL     OW10286   4.741   1.901   2.615
 3423SOL    HW110287   4.669   1.906   2.546
 3423SOL    HW210288   4.717   1.832   2.684
 3424SOL     OW10289   4.212   3.247   2.036
 3424SOL    HW110290   4.125   3.232   2.083
 3424SOL    HW210291   4.195   3.273   1.941
 3425SOL     OW10292   4.251   2.118   2.190
 3425SOL    HW110293   4.278   2.059   2.115
 3425SOL    HW210294   4.251   2.213   2.159
 3426SOL     OW10295   4.639   1.951   3.264
 3426SOL    HW110296   4.664   1.931   3.169
 3426SOL    HW210297   4.711   2.007   3.306
 3427SOL     OW10298   4.704   2.978   3.581
 3427SOL    HW110299   4.605   2.984   3.591
 3427SOL    HW210300   4.727   2.898   3.525
 3428SOL     OW10301   4.429   2.912   2.230
 3428SOL    HW110302   4.415   2.919   2.329
 3428SOL    HW210303   4.513   2.861   2.212
 3429SOL     OW10304   4.134   2.675   3.113
 3429SOL    HW110305   4.220   2.687   3.163
 3429SOL    HW210306   4.092   2.588   3.140
 3430SOL     OW10307   3.788   3.426   3.193
 3430SOL    HW110308   3.742   3.508   3.159
 3430SOL    HW210309   3.886   3.445   3.202
 3431SOL     OW10310   4.091   2.962   2.363
 3431SOL    HW110311   4.084   3.045   2.307
 3431SOL    HW210312   4.095   2.882   2.303
 3432SOL     OW10313   4.290   2.399   2.727
 3432SOL    HW110314   4.302   2.465   2.653
 3432SOL    HW210315   4.336   2.433   2.810
 3433SOL     OW10316   4.078   3.372   3.191
 3433SOL    HW110317   4.057   3.328   3.104
 3433SOL    HW210318   4.175   3.398   3.194
 3434SOL     OW10319   4.126   2.613   3.460
 3434SOL    HW110320   4.194   2.668   3.413
 3434SOL    HW210321   4.166   2.525   3.487
 3435SOL     OW10322   4.737   1.967   3.632
 3435SOL    HW110323   4.743   2.052   3.580
 3435SOL    HW210324   4.769   1.891   3.575
 3436SOL     OW10325   4.228   1.912   3.602
 3436SOL    HW110326   4.186   1.855   3.532
 3436SOL    HW210327   4.162   1.981   3.634
 3437SOL     OW10328   4.297   2.732   2.891
 3437SOL    HW110329   4.341   2.821   2.882
 3437SOL    HW210330   4.234   2.732   2.968
 3438SOL     OW10331   4.933   2.387   2.137
 3438SOL    HW110332   4.946   2.303   2.191
 3438SOL    HW210333   4.904   2.461   2.197
 3439SOL     OW10334   4.031   2.075   3.093
 3439SOL    HW110335   4.008   2.112   3.183
 3439SOL    HW210336   4.001   1.980   3.087
 3440SOL     OW10337   3.761   3.172   3.144
 3440SOL    HW110338   3.814   3.123   3.212
 3440SOL    HW210339   3.783   3.270   3.149
 3441SOL     OW10340   4.456   2.496   2.926
 3441SOL    HW110341   4.515   2.470   2.850
 3441SOL    HW210342   4.428   2.592   2.915
 3442SOL     OW10343   4.031   1.925   2.480
 3442SOL    HW110344   4.020   2.019   2.513
 3442SOL    HW210345   4.026   1.862   2.557
 3443SOL     OW10346   4.747   2.628   2.828
 3443SOL    HW110347   4.762   2.649   2.924
 3443SOL    HW210348   4.717   2.533   2.819
 3444SOL     OW10349   4.704   3.435   3.562
 3444SOL    HW110350   4.684   3.479   3.474
 3444SOL    HW210351   4.743   3.344   3.546
 3445SOL     OW10352   4.074   2.760   3.666
 3445SOL    HW110353   4.150   2.804   3.714
 3445SOL    HW210354   4.109   2.713   3.584
 3446SOL     OW10355   4.792   3.195   2.711
 3446SOL    HW110356   4.799   3.111   2.656
 3446SOL    HW210357   4.854   3.264   2.675
 3447SOL     OW10358   4.043   2.672   2.811
 3447SOL    HW110359   4.136   2.708   2.816
 3447SOL    HW210360   4.037   2.587   2.863
 3448SOL     OW10361   4.063   2.371   2.868
 3448SOL    HW110362   4.011   2.288   2.851
 3448SOL    HW210363   4.140   2.376   2.804
 3449SOL     OW10364   4.862   2.242   3.540
 3449SOL    HW110365   4.817   2.305   3.604
 3449SOL    HW210366   4.955   2.273   3.523
 3450SOL     OW10367   4.884   2.069   3.339
 3450SOL    HW110368   4.884   2.133   3.416
 3450SOL    HW210369   4.912   2.117   3.256
 3451SOL     OW10370   3.732   3.188   2.062
 3451SOL    HW110371   3.639   3.209   2.031
 3451SOL    HW210372   3.742   3.089   2.075
 3452SOL     OW10373   3.812   3.663   2.789
 3452SOL    HW110374   3.770   3.577   2.762
 3452SOL    HW210375   3.906   3.666   2.755
 3453SOL     OW10376   4.228   3.430   2.772
 3453SOL    HW110377   4.294   3.504   2.781
 3453SOL    HW210378   4.272   3.351   2.730
 3454SOL     OW10379   4.726   2.658   3.100
 3454SOL    HW110380   4.767   2.626   3.186
 3454SOL    HW210381   4.630   2.631   3.097
 3455SOL     OW10382   3.764   2.406   2.976
 3455SOL    HW110383   3.849   2.373   2.935
 3455SOL    HW210384   3.777   2.421   3.074
 3456SOL     OW10385   3.913   2.382   3.584
 3456SOL    HW110386   3.972   2.342   3.514
 3456SOL    HW210387   3.855   2.453   3.543
 3457SOL     OW10388   4.539   2.434   2.187
 3457SOL    HW110389   4.546   2.345   2.141
 3457SOL    HW210390   4.445   2.468   2.179
 3458SOL     OW10391   3.976   3.426   3.606
 3458SOL    HW110392   3.946   3.483   3.682
 3458SOL    HW210393   3.969   3.329   3.632
 3459SOL     OW10394   4.395   2.326   3.131
 3459SOL    HW110395   4.361   2.237   3.101
 3459SOL    HW210396   4.421   2.380   3.051
 3460SOL     OW10397   4.654   3.540   3.327
 3460SOL    HW110398   4.630   3.522   3.232
 3460SOL    HW210399   4.684   3.634   3.337
 3461SOL     OW10400   4.197   2.362   2.053
 3461SOL    HW110401   4.258   2.442   2.057
 3461SOL    HW210402   4.102   2.393   2.060
 3462SOL     OW10403   3.883   2.999   3.328
 3462SOL    HW110404   3.905   2.938   3.404
 3462SOL    HW210405   3.893   2.950   3.242
 3463SOL     OW10406   5.026   2.717   2.171
 3463SOL    HW110407   4.940   2.686   2.213
 3463SOL    HW210408   5.022   2.703   2.072
 3464SOL     OW10409   3.807   3.120   2.884
 3464SOL    HW110410   3.802   3.119   2.984
 3464SOL    HW210411   3.724   3.079   2.846
 3465SOL     OW10412   4.412   3.524   3.578
 3465SOL    HW110413   4.356   3.605   3.587
 3465SOL    HW210414   4.464   3.528   3.492
 3466SOL     OW10415   3.854   3.656   3.713
 3466SOL    HW110416   3.813   3.582   3.766
 3466SOL    HW210417   3.918   3.707   3.771
 3467SOL     OW10418   4.554   3.135   3.284
 3467SOL    HW110419   4.549   3.168   3.379
 3467SOL    HW210420   4.468   3.154   3.238
 3468SOL     OW10421   4.396   3.478   2.016
 3468SOL    HW110422   4.405   3.488   1.917
 3468SOL    HW210423   4.356   3.389   2.037
 3469SOL     OW10424   3.987   2.188   2.582
 3469SOL    HW110425   3.908   2.239   2.548
 3469SOL    HW210426   3.978   2.173   2.680
 3470SOL     OW10427   4.546   2.864   3.234
 3470SOL    HW110428   4.586   2.863   3.142
 3470SOL    HW210429   4.556   2.956   3.274
 3471SOL     OW10430   4.640   2.772   2.153
 3471SOL    HW110431   4.703   2.810   2.085
 3471SOL    HW210432   4.680   2.689   2.192
 3472SOL     OW10433   4.096   3.150   3.352
 3472SOL    HW110434   4.083   3.243   3.318
 3472SOL    HW210435   4.012   3.098   3.339
 3473SOL     OW10436   4.763   2.960   2.558
 3473SOL    HW110437   4.693   2.913   2.612
 3473SOL    HW210438   4.822   2.892   2.515
 3474SOL     OW10439   4.738   2.098   2.833
 3474SOL    HW110440   4.730   2.062   2.740
 3474SOL    HW210441   4.736   2.022   2.898
 3475SOL     OW10442   4.314   3.349   2.353
 3475SOL    HW110443   4.356   3.291   2.283
 3475SOL    HW210444   4.270   3.428   2.309
 3476SOL     OW10445   3.979   3.210   2.152
 3476SOL    HW110446   3.883   3.211   2.125
 3476SOL    HW210447   3.991   3.263   2.236
 3477SOL     OW10448   3.829   2.875   3.588
 3477SOL    HW110449   3.752   2.842   3.642
 3477SOL    HW210450   3.914   2.845   3.630
 3478SOL     OW10451   4.396   2.065   3.351
 3478SOL    HW110452   4.486   2.049   3.311
 3478SOL    HW210453   4.404   2.070   3.450
 3479SOL     OW10454   3.799   2.207   1.895
 3479SOL    HW110455   3.707   2.179   1.866
 3479SOL    HW210456   3.830   2.284   1.839
 3480SOL     OW10457   3.796   2.028   2.180
 3480SOL    HW110458   3.779   2.111   2.126
 3480SOL    HW210459   3.886   1.991   2.158
 3481SOL     OW10460   4.337   2.704   3.293
 3481SOL    HW110461   4.393   2.785   3.276
 3481SOL    HW210462   4.396   2.624   3.296
 3482SOL     OW10463   4.440   2.427   3.570
 3482SOL    HW110464   4.459   2.492   3.644
 3482SOL    HW210465   4.500   2.347   3.579
 3483SOL     OW10466   4.114   3.603   3.422
 3483SOL    HW110467   4.023   3.644   3.420
 3483SOL    HW210468   4.107   3.509   3.454
 3484SOL     OW10469   4.318   2.607   2.514
 3484SOL    HW110470   4.368   2.692   2.495
 3484SOL    HW210471   4.230   2.609   2.466
 3485SOL     OW10472   4.583   3.236   1.878
 3485SOL    HW110473   4.537   3.251   1.966
 3485SOL    HW210474   4.627   3.321   1.848
 3486SOL     OW10475   4.385   3.652   2.815
 3486SOL    HW110476   4.339   3.740   2.802
 3486SOL    HW210477   4.484   3.664   2.808
 3487SOL     OW10478   4.583   2.818   2.723
 3487SOL    HW110479   4.637   2.749   2.771
 3487SOL    HW210480   4.551   2.887   2.789
 3488SOL     OW10481   4.807   2.846   1.949
 3488SOL    HW110482   4.784   2.899   1.867
 3488SOL    HW210483   4.888   2.790   1.930
 3489SOL     OW10484   3.945   3.176   3.706
 3489SOL    HW110485   3.880   3.103   3.685
 3489SOL    HW210486   3.949   3.190   3.804
 3490SOL     OW10487   3.803   3.102   2.515
 3490SOL    HW110488   3.802   3.055   2.603
 3490SOL    HW210489   3.885   3.074   2.464
 3491SOL     OW10490   4.396   3.253   3.486
 3491SOL    HW110491   4.318   3.203   3.524
 3491SOL    HW210492   4.393   3.348   3.517
 3492SOL     OW10493   4.152   2.286   2.382
 3492SOL    HW110494   4.182   2.214   2.320
 3492SOL    HW210495   4.113   2.246   2.465
 3493SOL     OW10496   4.041   2.409   3.142
 3493SOL    HW110497   4.079   2.350   3.214
 3493SOL    HW210498   4.081   2.383   3.054
 3494SOL     OW10499   4.536   3.448   2.549
 3494SOL    HW110500   4.568   3.458   2.455
 3494SOL    HW210501   4.457   3.386   2.551
 3495SOL     OW10502   4.725   1.896   3.016
 3495SOL    HW110503   4.662   1.824   2.985
 3495SOL    HW210504   4.818   1.860   3.016
 3496SOL     OW10505   4.494   3.192   2.163
 3496SOL    HW110506   4.448   3.105   2.180
 3496SOL    HW210507   4.585   3.189   2.204
 3497SOL     OW10508   4.342   3.429   3.146
 3497SOL    HW110509   4.337   3.511   3.203
 3497SOL    HW210510   4.431   3.426   3.101
 3498SOL     OW10511   3.763   2.939   2.162
 3498SOL    HW110512   3.862   2.928   2.153
 3498SOL    HW210513   3.723   2.853   2.194
 3499SOL     OW10514   4.599   3.508   2.199
 3499SOL    HW110515   4.522   3.473   2.145
 3499SOL    HW210516   4.567   3.579   2.261
 3500SOL     OW10517   3.954   2.490   3.837
 3500SOL    HW110518   3.861   2.488   3.874
 3500SOL    HW210519   3.955   2.451   3.745
 3501SOL     OW10520   3.949   2.137   4.720
 3501SOL    HW110521   3.984   2.120   4.812
 3501SOL    HW210522   3.861   2.092   4.708
 3502SOL     OW10523   3.743   2.230   4.371
 3502SOL    HW110524   3.661   2.273   4.410
 3502SOL    HW210525   3.715   2.157   4.308
 3503SOL     OW10526   4.492   3.006   4.747
 3503SOL    HW110527   4.414   3.023   4.807
 3503SOL    HW210528   4.526   3.093   4.711
 3504SOL     OW10529   4.409   2.874   4.389
 3504SOL    HW110530   4.478   2.858   4.459
 3504SOL    HW210531   4.336   2.931   4.427
 3505SOL     OW10532   4.059   3.297   4.785
 3505SOL    HW110533   3.981   3.266   4.732
 3505SOL    HW210534   4.117   3.355   4.728
 3506SOL     OW10535   3.955   3.575   4.207
 3506SOL    HW110536   3.989   3.652   4.261
 3506SOL    HW210537   3.999   3.575   4.117
 3507SOL     OW10538   3.954   3.296   4.262
 3507SOL    HW110539   3.928   3.392   4.262
 3507SOL    HW210540   3.883   3.242   4.307
 3508SOL     OW10541   3.964   2.953   4.610
 3508SOL    HW110542   3.978   2.869   4.662
 3508SOL    HW210543   3.909   3.017   4.665
 3509SOL     OW10544   4.330   2.826   3.847
 3509SOL    HW110545   4.337   2.910   3.793
 3509SOL    HW210546   4.376   2.839   3.935
 3510SOL     OW10547   3.846   2.505   4.287
 3510SOL    HW110548   3.801   2.417   4.304
 3510SOL    HW210549   3.845   2.559   4.371
 3511SOL     OW10550   3.751   3.458   3.841
 3511SOL    HW110551   3.732   3.362   3.862
 3511SOL    HW210552   3.718   3.516   3.916
 3512SOL     OW10553   4.337   3.227   4.450
 3512SOL    HW110554   4.288   3.140   4.459
 3512SOL    HW210555   4.314   3.270   4.363
 3513SOL     OW10556   4.533   1.866   4.226
 3513SOL    HW110557   4.573   1.957   4.217
 3513SOL    HW210558   4.433   1.874   4.232
 3514SOL     OW10559   4.322   2.591   3.994
 3514SOL    HW110560   4.346   2.660   3.926
 3514SOL    HW210561   4.244   2.624   4.048
 3515SOL     OW10562   4.765   2.563   4.153
 3515SOL    HW110563   4.791   2.559   4.249
 3515SOL    HW210564   4.680   2.512   4.139
 3516SOL     OW10565   3.800   2.673   4.513
 3516SOL    HW110566   3.899   2.661   4.522
 3516SOL    HW210567   3.776   2.768   4.534
 3517SOL     OW10568   4.589   2.210   3.919
 3517SOL    HW110569   4.648   2.273   3.870
 3517SOL    HW210570   4.608   2.116   3.890
 3518SOL     OW10571   4.274   2.058   4.609
 3518SOL    HW110572   4.269   2.053   4.709
 3518SOL    HW210573   4.276   2.154   4.580
 3519SOL     OW10574   4.732   3.318   4.201
 3519SOL    HW110575   4.686   3.390   4.149
 3519SOL    HW210576   4.728   3.338   4.299
 3520SOL     OW10577   4.075   3.663   4.577
 3520SOL    HW110578   4.125   3.577   4.583
 3520SOL    HW210579   4.140   3.740   4.574
 3521SOL     OW10580   4.045   2.805   3.966
 3521SOL    HW110581   4.127   2.844   3.924
 3521SOL    HW210582   4.018   2.723   3.917
 3522SOL     OW10583   4.188   3.605   4.047
 3522SOL    HW110584   4.221   3.644   4.133
 3522SOL    HW210585   4.264   3.598   3.982
 3523SOL     OW10586   3.973   3.647   4.965
 3523SOL    HW110587   4.030   3.582   5.015
 3523SOL    HW210588   3.957   3.614   4.872
 3524SOL     OW10589   4.664   3.560   4.628
 3524SOL    HW110590   4.744   3.503   4.649
 3524SOL    HW210591   4.615   3.520   4.551
 3525SOL     OW10592   4.106   2.562   4.204
 3525SOL    HW110593   4.151   2.472   4.201
 3525SOL    HW210594   4.012   2.551   4.237
 3526SOL     OW10595   4.338   1.984   3.841
 3526SOL    HW110596   4.436   1.962   3.848
 3526SOL    HW210597   4.307   1.967   3.748
 3527SOL     OW10598   4.527   3.264   4.648
 3527SOL    HW110599   4.617   3.278   4.606
 3527SOL    HW210600   4.456   3.266   4.577
 3528SOL     OW10601   4.646   2.365   4.623
 3528SOL    HW110602   4.621   2.356   4.527
 3528SOL    HW210603   4.694   2.283   4.654
 3529SOL     OW10604   4.263   1.926   4.236
 3529SOL    HW110605   4.182   1.927   4.294
 3529SOL    HW210606   4.266   2.009   4.181
 3530SOL     OW10607   4.021   1.897   3.895
 3530SOL    HW110608   4.070   1.981   3.874
 3530SOL    HW210609   4.083   1.832   3.940
 3531SOL     OW10610   4.659   2.098   4.204
 3531SOL    HW110611   4.611   2.139   4.126
 3531SOL    HW210612   4.758   2.096   4.185
 3532SOL     OW10613   4.951   3.432   4.517
 3532SOL    HW110614   4.972   3.506   4.452
 3532SOL    HW210615   5.019   3.432   4.590
 3533SOL     OW10616   4.183   3.014   4.465
 3533SOL    HW110617   4.112   2.987   4.530
 3533SOL    HW210618   4.157   2.986   4.372
 3534SOL     OW10619   4.756   2.411   3.740
 3534SOL    HW110620   4.715   2.493   3.701
 3534SOL    HW210621   4.820   2.437   3.813
 3535SOL     OW10622   4.590   2.316   4.366
 3535SOL    HW110623   4.558   2.388   4.304
 3535SOL    HW210624   4.614   2.235   4.313
 3536SOL     OW10625   4.741   1.901   4.477
 3536SOL    HW110626   4.669   1.906   4.408
 3536SOL    HW210627   4.717   1.832   4.546
 3537SOL     OW10628   4.212   3.247   3.898
 3537SOL    HW110629   4.125   3.232   3.945
 3537SOL    HW210630   4.195   3.273   3.803
 3538SOL     OW10631   4.251   2.118   4.052
 3538SOL    HW110632   4.278   2.059   3.977
 3538SOL    HW210633   4.251   2.213   4.021
 3539SOL     OW10634   4.429   2.912   4.092
 3539SOL    HW110635   4.415   2.919   4.191
 3539SOL    HW210636   4.513   2.861   4.074
 3540SOL     OW10637   4.134   2.675   4.975
 3540SOL    HW110638   4.220   2.687   5.025
 3540SOL    HW210639   4.092   2.588   5.002
 3541SOL     OW10640   4.091   2.962   4.225
 3541SOL    HW110641   4.084   3.045   4.169
 3541SOL    HW210642   4.095   2.882   4.165
 3542SOL     OW10643   4.290   2.399   4.589
 3542SOL    HW110644   4.302   2.465   4.515
 3542SOL    HW210645   4.336   2.433   4.672
 3543SOL     OW10646   4.078   3.372   5.053
 3543SOL    HW110647   4.057   3.328   4.966
 3543SOL    HW210648   4.175   3.398   5.056
 3544SOL     OW10649   4.297   2.732   4.753
 3544SOL    HW110650   4.341   2.821   4.744
 3544SOL    HW210651   4.234   2.732   4.830
 3545SOL     OW10652   4.933   2.387   3.999
 3545SOL    HW110653   4.946   2.303   4.053
 3545SOL    HW210654   4.904   2.461   4.059
 3546SOL     OW10655   4.031   2.075   4.955
 3546SOL    HW110656   4.008   2.112   5.045
 3546SOL    HW210657   4.001   1.980   4.949
 3547SOL     OW10658   4.456   2.496   4.788
 3547SOL    HW110659   4.515   2.470   4.712
 3547SOL    HW210660   4.428   2.592   4.777
 3548SOL     OW10661   4.031   1.925   4.342
 3548SOL    HW110662   4.020   2.019   4.375
 3548SOL    HW210663   4.026   1.862   4.419
 3549SOL     OW10664   4.747   2.628   4.690
 3549SOL    HW110665   4.762   2.649   4.786
 3549SOL    HW210666   4.717   2.533   4.681
 3550SOL     OW10667   4.792   3.195   4.573
 3550SOL    HW110668   4.799   3.111   4.518
 3550SOL    HW210669   4.854   3.264   4.537
 3551SOL     OW10670   4.043   2.672   4.673
 3551SOL    HW110671   4.136   2.708   4.678
 3551SOL    HW210672   4.037   2.587   4.725
 3552SOL     OW10673   4.063   2.371   4.730
 3552SOL    HW110674   4.011   2.288   4.713
 3552SOL    HW210675   4.140   2.376   4.666
 3553SOL     OW10676   3.732   3.188   3.924
 3553SOL    HW110677   3.639   3.209   3.893
 3553SOL    HW210678   3.742   3.089   3.937
 3554SOL     OW10679   3.812   3.663   4.651
 3554SOL    HW110680   3.770   3.577   4.624
 3554SOL    HW210681   3.906   3.666   4.617
 3555SOL     OW10682   4.228   3.430   4.634
 3555SOL    HW110683   4.294   3.504   4.643
 3555SOL    HW210684   4.272   3.351   4.592
 3556SOL     OW10685   4.726   2.658   4.962
 3556SOL    HW110686   4.767   2.626   5.048
 3556SOL    HW210687   4.630   2.631   4.959
 3557SOL     OW10688   3.764   2.406   4.838
 3557SOL    HW110689   3.849   2.373   4.797
 3557SOL    HW210690   3.777   2.421   4.936
 3558SOL     OW10691   4.539   2.434   4.049
 3558SOL    HW110692   4.546   2.345   4.003
 3558SOL    HW210693   4.445   2.468   4.041
 3559SOL     OW10694   4.395   2.326   4.993
 3559SOL    HW110695   4.361   2.237   4.963
 3559SOL    HW210696   4.421   2.380   4.913
 3560SOL     OW10697   4.197   2.362   3.915
 3560SOL    HW110698   4.258   2.442   3.919
 3560SOL    HW210699   4.102   2.393   3.922
 3561SOL     OW10700   5.026   2.717   4.033
 3561SOL    HW110701   4.940   2.686   4.075
 3561SOL    HW210702   5.022   2.703   3.934
 3562SOL     OW10703   3.807   3.120   4.746
 3562SOL    HW110704   3.802   3.119   4.846
 3562SOL    HW210705   3.724   3.079   4.708
 3563SOL     OW10706   4.396   3.478   3.878
 3563SOL    HW110707   4.405   3.488   3.779
 3563SOL    HW210708   4.356   3.389   3.899
 3564SOL     OW10709   3.987   2.188   4.444
 3564SOL    HW110710   3.908   2.239   4.410
 3564SOL    HW210711   3.978   2.173   4.542
 3565SOL     OW10712   4.640   2.772   4.015
 3565SOL    HW110713   4.703   2.810   3.947
 3565SOL    HW210714   4.680   2.689   4.054
 3566SOL     OW10715   4.763   2.960   4.420
 3566SOL    HW110716   4.693   2.913   4.474
 3566SOL    HW210717   4.822   2.892   4.377
 3567SOL     OW10718   4.738   2.098   4.695
 3567SOL    HW110719   4.730   2.062   4.602
 3567SOL    HW210720   4.736   2.022   4.760
 3568SOL     OW10721   4.314   3.349   4.215
 3568SOL    HW110722   4.356   3.291   4.145
 3568SOL    HW210723   4.270   3.428   4.171
 3569SOL     OW10724   3.979   3.210   4.014
 3569SOL    HW110725   3.883   3.211   3.987
 3569SOL    HW210726   3.991   3.263   4.098
 3570SOL     OW10727   3.799   2.207   3.757
 3570SOL    HW110728   3.707   2.179   3.728
 3570SOL    HW210729   3.830   2.284   3.701
 3571SOL     OW10730   3.796   2.028   4.042
 3571SOL    HW110731   3.779   2.111   3.988
 3571SOL    HW210732   3.886   1.991   4.020
 3572SOL     OW10733   4.318   2.607   4.376
 3572SOL    HW110734   4.368   2.692   4.357
 3572SOL    HW210735   4.230   2.609   4.328
 3573SOL     OW10736   4.583   3.236   3.740
 3573SOL    HW110737   4.537   3.251   3.828
 3573SOL    HW210738   4.627   3.321   3.710
 3574SOL     OW10739   4.385   3.652   4.677
 3574SOL    HW110740   4.339   3.740   4.664
 3574SOL    HW210741   4.484   3.664   4.670
 3575SOL     OW10742   4.583   2.818   4.585
 3575SOL    HW110743   4.637   2.749   4.633
 3575SOL    HW210744   4.551   2.887   4.651
 3576SOL     OW10745   4.807   2.846   3.811
 3576SOL    HW110746   4.784   2.899   3.729
 3576SOL    HW210747   4.888   2.790   3.792
 3577SOL     OW10748   3.803   3.102   4.377
 3577SOL    HW110749   3.802   3.055   4.465
 3577SOL    HW210750   3.885   3.074   4.326
 3578SOL     OW10751   4.152   2.286   4.244
 3578SOL    HW110752   4.182   2.214   4.182
 3578SOL    HW210753   4.113   2.246   4.327
 3579SOL     OW10754   4.536   3.448   4.411
 3579SOL    HW110755   4.568   3.458   4.317
 3579SOL    HW210756   4.457   3.386   4.413
 3580SOL     OW10757   4.494   3.192   4.025
 3580SOL    HW110758   4.448   3.105   4.042
 3580SOL    HW210759   4.585   3.189   4.066
 3581SOL     OW10760   3.763   2.939   4.024
 3581SOL    HW110761   3.862   2.928   4.015
 3581SOL    HW210762   3.723   2.853   4.056
 3582SOL     OW10763   4.599   3.508   4.061
 3582SOL    HW110764   4.522   3.473   4.007
 3582SOL    HW210765   4.567   3.579   4.123
 3583SOL     OW10766   3.954   4.352   0.113
 3583SOL    HW110767   3.861   4.350   0.150
 3583SOL    HW210768   3.955   4.313   0.021
 3584SOL     OW10769   3.949   3.999   0.996
 3584SOL    HW110770   3.984   3.982   1.088
 3584SOL    HW210771   3.861   3.954   0.984
 3585SOL     OW10772   3.743   4.092   0.647
 3585SOL    HW110773   3.661   4.135   0.686
 3585SOL    HW210774   3.715   4.019   0.584
 3586SOL     OW10775   4.492   4.868   1.023
 3586SOL    HW110776   4.414   4.885   1.083
 3586SOL    HW210777   4.526   4.955   0.987
 3587SOL     OW10778   4.574   4.522   1.823
 3587SOL    HW110779   4.570   4.598   1.888
 3587SOL    HW210780   4.596   4.558   1.732
 3588SOL     OW10781   4.409   4.736   0.665
 3588SOL    HW110782   4.478   4.720   0.735
 3588SOL    HW210783   4.336   4.793   0.703
 3589SOL     OW10784   4.162   4.116   1.499
 3589SOL    HW110785   4.244   4.060   1.508
 3589SOL    HW210786   4.081   4.058   1.503
 3590SOL     OW10787   3.954   5.158   0.538
 3590SOL    HW110788   3.928   5.254   0.538
 3590SOL    HW210789   3.883   5.104   0.583
 3591SOL     OW10790   3.964   4.815   0.886
 3591SOL    HW110791   3.978   4.731   0.938
 3591SOL    HW210792   3.909   4.879   0.941
 3592SOL     OW10793   4.330   4.688   0.123
 3592SOL    HW110794   4.337   4.772   0.069
 3592SOL    HW210795   4.376   4.701   0.211
 3593SOL     OW10796   3.846   4.367   0.563
 3593SOL    HW110797   3.801   4.279   0.580
 3593SOL    HW210798   3.845   4.421   0.647
 3594SOL     OW10799   3.837   4.461   1.597
 3594SOL    HW110800   3.925   4.448   1.642
 3594SOL    HW210801   3.824   4.558   1.575
 3595SOL     OW10802   4.533   3.728   0.502
 3595SOL    HW110803   4.573   3.819   0.493
 3595SOL    HW210804   4.433   3.736   0.508
 3596SOL     OW10805   3.921   4.700   1.264
 3596SOL    HW110806   4.010   4.655   1.250
 3596SOL    HW210807   3.848   4.635   1.245
 3597SOL     OW10808   4.041   3.975   1.801
 3597SOL    HW110809   4.112   4.046   1.807
 3597SOL    HW210810   3.953   4.014   1.829
 3598SOL     OW10811   4.322   4.453   0.270
 3598SOL    HW110812   4.346   4.522   0.202
 3598SOL    HW210813   4.244   4.486   0.324
 3599SOL     OW10814   4.531   4.329   1.465
 3599SOL    HW110815   4.484   4.326   1.554
 3599SOL    HW210816   4.480   4.274   1.399
 3600SOL     OW10817   4.697   4.614   1.572
 3600SOL    HW110818   4.743   4.530   1.543
 3600SOL    HW210819   4.641   4.648   1.497
 3601SOL     OW10820   4.715   4.134   1.242
 3601SOL    HW110821   4.638   4.168   1.296
 3601SOL    HW210822   4.681   4.083   1.163
 3602SOL     OW10823   4.765   4.425   0.429
 3602SOL    HW110824   4.791   4.421   0.525
 3602SOL    HW210825   4.680   4.374   0.415
 3603SOL     OW10826   3.800   4.535   0.789
 3603SOL    HW110827   3.899   4.523   0.798
 3603SOL    HW210828   3.776   4.630   0.810
 3604SOL     OW10829   4.589   4.072   0.195
 3604SOL    HW110830   4.648   4.135   0.146
 3604SOL    HW210831   4.608   3.978   0.166
 3605SOL     OW10832   4.274   3.920   0.885
 3605SOL    HW110833   4.269   3.915   0.985
 3605SOL    HW210834   4.276   4.016   0.856
 3606SOL     OW10835   4.045   4.667   0.242
 3606SOL    HW110836   4.127   4.706   0.200
 3606SOL    HW210837   4.018   4.585   0.193
 3607SOL     OW10838   3.926   4.009   1.498
 3607SOL    HW110839   3.846   4.069   1.485
 3607SOL    HW210840   3.916   3.960   1.584
 3608SOL     OW10841   4.106   4.424   0.480
 3608SOL    HW110842   4.151   4.334   0.477
 3608SOL    HW210843   4.012   4.413   0.513
 3609SOL     OW10844   4.338   3.846   0.117
 3609SOL    HW110845   4.436   3.824   0.124
 3609SOL    HW210846   4.307   3.829   0.024
 3610SOL     OW10847   4.505   3.988   1.749
 3610SOL    HW110848   4.572   3.927   1.792
 3610SOL    HW210849   4.432   4.007   1.814
 3611SOL     OW10850   4.646   4.227   0.899
 3611SOL    HW110851   4.621   4.218   0.803
 3611SOL    HW210852   4.694   4.145   0.930
 3612SOL     OW10853   4.263   3.788   0.512
 3612SOL    HW110854   4.182   3.789   0.570
 3612SOL    HW210855   4.266   3.871   0.457
 3613SOL     OW10856   4.659   3.960   0.480
 3613SOL    HW110857   4.611   4.001   0.402
 3613SOL    HW210858   4.758   3.958   0.461
 3614SOL     OW10859   4.756   4.273   0.016
 3614SOL    HW110860   4.715   4.355  -0.023
 3614SOL    HW210861   4.820   4.299   0.089
 3615SOL     OW10862   3.802   4.280   1.386
 3615SOL    HW110863   3.894   4.279   1.345
 3615SOL    HW210864   3.796   4.354   1.453
 3616SOL     OW10865   4.285   3.946   1.147
 3616SOL    HW110866   4.323   3.862   1.184
 3616SOL    HW210867   4.197   3.965   1.191
 3617SOL     OW10868   4.590   4.178   0.642
 3617SOL    HW110869   4.558   4.250   0.580
 3617SOL    HW210870   4.614   4.097   0.589
 3618SOL     OW10871   4.741   3.763   0.753
 3618SOL    HW110872   4.669   3.768   0.684
 3618SOL    HW210873   4.717   3.694   0.822
 3619SOL     OW10874   4.251   3.980   0.328
 3619SOL    HW110875   4.278   3.921   0.253
 3619SOL    HW210876   4.251   4.075   0.297
 3620SOL     OW10877   4.639   3.813   1.402
 3620SOL    HW110878   4.664   3.793   1.307
 3620SOL    HW210879   4.711   3.869   1.444
 3621SOL     OW10880   4.134   4.537   1.251
 3621SOL    HW110881   4.220   4.549   1.301
 3621SOL    HW210882   4.092   4.450   1.278
 3622SOL     OW10883   4.091   4.824   0.501
 3622SOL    HW110884   4.084   4.907   0.445
 3622SOL    HW210885   4.095   4.744   0.441
 3623SOL     OW10886   4.290   4.261   0.865
 3623SOL    HW110887   4.302   4.327   0.791
 3623SOL    HW210888   4.336   4.295   0.948
 3624SOL     OW10889   4.126   4.475   1.598
 3624SOL    HW110890   4.194   4.530   1.551
 3624SOL    HW210891   4.166   4.387   1.625
 3625SOL     OW10892   4.737   3.829   1.770
 3625SOL    HW110893   4.743   3.914   1.718
 3625SOL    HW210894   4.769   3.753   1.713
 3626SOL     OW10895   4.228   3.774   1.740
 3626SOL    HW110896   4.186   3.717   1.670
 3626SOL    HW210897   4.162   3.843   1.772
 3627SOL     OW10898   4.297   4.594   1.029
 3627SOL    HW110899   4.341   4.683   1.020
 3627SOL    HW210900   4.234   4.594   1.106
 3628SOL     OW10901   4.933   4.249   0.275
 3628SOL    HW110902   4.946   4.165   0.329
 3628SOL    HW210903   4.904   4.323   0.335
 3629SOL     OW10904   4.031   3.937   1.231
 3629SOL    HW110905   4.008   3.974   1.321
 3629SOL    HW210906   4.001   3.842   1.225
 3630SOL     OW10907   4.456   4.358   1.064
 3630SOL    HW110908   4.515   4.332   0.988
 3630SOL    HW210909   4.428   4.454   1.053
 3631SOL     OW10910   4.031   3.787   0.618
 3631SOL    HW110911   4.020   3.881   0.651
 3631SOL    HW210912   4.026   3.724   0.695
 3632SOL     OW10913   4.747   4.490   0.966
 3632SOL    HW110914   4.762   4.511   1.062
 3632SOL    HW210915   4.717   4.395   0.957
 3633SOL     OW10916   4.074   4.622   1.804
 3633SOL    HW110917   4.150   4.666   1.852
 3633SOL    HW210918   4.109   4.575   1.722
 3634SOL     OW10919   4.043   4.534   0.949
 3634SOL    HW110920   4.136   4.570   0.954
 3634SOL    HW210921   4.037   4.449   1.001
 3635SOL     OW10922   4.063   4.233   1.006
 3635SOL    HW110923   4.011   4.150   0.989
 3635SOL    HW210924   4.140   4.238   0.942
 3636SOL     OW10925   4.862   4.104   1.678
 3636SOL    HW110926   4.817   4.167   1.742
 3636SOL    HW210927   4.955   4.135   1.661
 3637SOL     OW10928   4.884   3.931   1.477
 3637SOL    HW110929   4.884   3.995   1.554
 3637SOL    HW210930   4.912   3.979   1.394
 3638SOL     OW10931   4.726   4.520   1.238
 3638SOL    HW110932   4.767   4.488   1.324
 3638SOL    HW210933   4.630   4.493   1.235
 3639SOL     OW10934   3.764   4.268   1.114
 3639SOL    HW110935   3.849   4.235   1.073
 3639SOL    HW210936   3.777   4.283   1.212
 3640SOL     OW10937   3.913   4.244   1.722
 3640SOL    HW110938   3.972   4.204   1.652
 3640SOL    HW210939   3.855   4.315   1.681
 3641SOL     OW10940   4.539   4.296   0.325
 3641SOL    HW110941   4.546   4.207   0.279
 3641SOL    HW210942   4.445   4.330   0.317
 3642SOL     OW10943   4.395   4.188   1.269
 3642SOL    HW110944   4.361   4.099   1.239
 3642SOL    HW210945   4.421   4.242   1.189
 3643SOL     OW10946   4.197   4.224   0.191
 3643SOL    HW110947   4.258   4.304   0.195
 3643SOL    HW210948   4.102   4.255   0.198
 3644SOL     OW10949   3.883   4.861   1.466
 3644SOL    HW110950   3.905   4.800   1.542
 3644SOL    HW210951   3.893   4.812   1.380
 3645SOL     OW10952   5.026   4.579   0.309
 3645SOL    HW110953   4.940   4.548   0.351
 3645SOL    HW210954   5.022   4.565   0.210
 3646SOL     OW10955   4.627   3.810   0.133
 3646SOL    HW110956   4.678   3.811   0.047
 3646SOL    HW210957   4.683   3.768   0.204
 3647SOL     OW10958   3.987   4.050   0.720
 3647SOL    HW110959   3.908   4.101   0.686
 3647SOL    HW210960   3.978   4.035   0.818
 3648SOL     OW10961   4.546   4.726   1.372
 3648SOL    HW110962   4.586   4.725   1.280
 3648SOL    HW210963   4.556   4.818   1.412
 3649SOL     OW10964   4.640   4.634   0.291
 3649SOL    HW110965   4.703   4.672   0.223
 3649SOL    HW210966   4.680   4.551   0.330
 3650SOL     OW10967   4.738   3.960   0.971
 3650SOL    HW110968   4.730   3.924   0.878
 3650SOL    HW210969   4.736   3.884   1.036
 3651SOL     OW10970   3.829   4.737   1.726
 3651SOL    HW110971   3.752   4.704   1.780
 3651SOL    HW210972   3.914   4.707   1.768
 3652SOL     OW10973   4.396   3.927   1.489
 3652SOL    HW110974   4.486   3.911   1.449
 3652SOL    HW210975   4.404   3.932   1.588
 3653SOL     OW10976   3.796   3.890   0.318
 3653SOL    HW110977   3.779   3.973   0.264
 3653SOL    HW210978   3.886   3.853   0.296
 3654SOL     OW10979   4.337   4.566   1.431
 3654SOL    HW110980   4.393   4.647   1.414
 3654SOL    HW210981   4.396   4.486   1.434
 3655SOL     OW10982   4.440   4.289   1.708
 3655SOL    HW110983   4.459   4.354   1.782
 3655SOL    HW210984   4.500   4.209   1.717
 3656SOL     OW10985   4.318   4.469   0.652
 3656SOL    HW110986   4.368   4.554   0.633
 3656SOL    HW210987   4.230   4.471   0.604
 3657SOL     OW10988   4.583   4.680   0.861
 3657SOL    HW110989   4.637   4.611   0.909
 3657SOL    HW210990   4.551   4.749   0.927
 3658SOL     OW10991   4.807   4.708   0.087
 3658SOL    HW110992   4.784   4.761   0.005
 3658SOL    HW210993   4.888   4.652   0.068
 3659SOL     OW10994   4.152   4.148   0.520
 3659SOL    HW110995   4.182   4.076   0.458
 3659SOL    HW210996   4.113   4.108   0.603
 3660SOL     OW10997   4.041   4.271   1.280
 3660SOL    HW110998   4.079   4.212   1.352
 3660SOL    HW210999   4.081   4.245   1.192
 3661SOL     OW11000   4.725   3.758   1.154
 3661SOL    HW111001   4.662   3.686   1.123
 3661SOL    HW211002   4.818   3.722   1.154
 3662SOL     OW11003   3.763   4.801   0.300
 3662SOL    HW111004   3.862   4.790   0.291
 3662SOL    HW211005   3.723   4.715   0.332
 3663SOL     OW11006   3.954   4.352   1.975
 3663SOL    HW111007   3.861   4.350   2.012
 3663SOL    HW211008   3.955   4.313   1.883
 3664SOL     OW11009   3.949   3.999   2.858
 3664SOL    HW111010   3.984   3.982   2.950
 3664SOL    HW211011   3.861   3.954   2.846
 3665SOL     OW11012   3.743   4.092   2.509
 3665SOL    HW111013   3.661   4.135   2.548
 3665SOL    HW211014   3.715   4.019   2.446
 3666SOL     OW11015   4.492   4.868   2.885
 3666SOL    HW111016   4.414   4.885   2.945
 3666SOL    HW211017   4.526   4.955   2.849
 3667SOL     OW11018   4.574   4.522   3.685
 3667SOL    HW111019   4.570   4.598   3.750
 3667SOL    HW211020   4.596   4.558   3.594
 3668SOL     OW11021   4.409   4.736   2.527
 3668SOL    HW111022   4.478   4.720   2.597
 3668SOL    HW211023   4.336   4.793   2.565
 3669SOL     OW11024   4.162   4.116   3.361
 3669SOL    HW111025   4.244   4.060   3.370
 3669SOL    HW211026   4.081   4.058   3.365
 3670SOL     OW11027   3.954   5.158   2.400
 3670SOL    HW111028   3.928   5.254   2.400
 3670SOL    HW211029   3.883   5.104   2.445
 3671SOL     OW11030   3.964   4.815   2.748
 3671SOL    HW111031   3.978   4.731   2.800
 3671SOL    HW211032   3.909   4.879   2.803
 3672SOL     OW11033   4.330   4.688   1.985
 3672SOL    HW111034   4.337   4.772   1.931
 3672SOL    HW211035   4.376   4.701   2.073
 3673SOL     OW11036   3.846   4.367   2.425
 3673SOL    HW111037   3.801   4.279   2.442
 3673SOL    HW211038   3.845   4.421   2.509
 3674SOL     OW11039   3.837   4.461   3.459
 3674SOL    HW111040   3.925   4.448   3.504
 3674SOL    HW211041   3.824   4.558   3.437
 3675SOL     OW11042   4.533   3.728   2.364
 3675SOL    HW111043   4.573   3.819   2.355
 3675SOL    HW211044   4.433   3.736   2.370
 3676SOL     OW11045   3.921   4.700   3.126
 3676SOL    HW111046   4.010   4.655   3.112
 3676SOL    HW211047   3.848   4.635   3.107
 3677SOL     OW11048   4.041   3.975   3.663
 3677SOL    HW111049   4.112   4.046   3.669
 3677SOL    HW211050   3.953   4.014   3.691
 3678SOL     OW11051   4.322   4.453   2.132
 3678SOL    HW111052   4.346   4.522   2.064
 3678SOL    HW211053   4.244   4.486   2.186
 3679SOL     OW11054   4.531   4.329   3.327
 3679SOL    HW111055   4.484   4.326   3.416
 3679SOL    HW211056   4.480   4.274   3.261
 3680SOL     OW11057   4.697   4.614   3.434
 3680SOL    HW111058   4.743   4.530   3.405
 3680SOL    HW211059   4.641   4.648   3.359
 3681SOL     OW11060   4.715   4.134   3.104
 3681SOL    HW111061   4.638   4.168   3.158
 3681SOL    HW211062   4.681   4.083   3.025
 3682SOL     OW11063   4.765   4.425   2.291
 3682SOL    HW111064   4.791   4.421   2.387
 3682SOL    HW211065   4.680   4.374   2.277
 3683SOL     OW11066   3.800   4.535   2.651
 3683SOL    HW111067   3.899   4.523   2.660
 3683SOL    HW211068   3.776   4.630   2.672
 3684SOL     OW11069   4.589   4.072   2.057
 3684SOL    HW111070   4.648   4.135   2.008
 3684SOL    HW211071   4.608   3.978   2.028
 3685SOL     OW11072   4.274   3.920   2.747
 3685SOL    HW111073   4.269   3.915   2.847
 3685SOL    HW211074   4.276   4.016   2.718
 3686SOL     OW11075   4.045   4.667   2.104
 3686SOL    HW111076   4.127   4.706   2.062
 3686SOL    HW211077   4.018   4.585   2.055
 3687SOL     OW11078   3.926   4.009   3.360
 3687SOL    HW111079   3.846   4.069   3.347
 3687SOL    HW211080   3.916   3.960   3.446
 3688SOL     OW11081   4.106   4.424   2.342
 3688SOL    HW111082   4.151   4.334   2.339
 3688SOL    HW211083   4.012   4.413   2.375
 3689SOL     OW11084   4.338   3.846   1.979
 3689SOL    HW111085   4.436   3.824   1.986
 3689SOL    HW211086   4.307   3.829   1.886
 3690SOL     OW11087   4.505   3.988   3.611
 3690SOL    HW111088   4.572   3.927   3.654
 3690SOL    HW211089   4.432   4.007   3.676
 3691SOL     OW11090   4.646   4.227   2.761
 3691SOL    HW111091   4.621   4.218   2.665
 3691SOL    HW211092   4.694   4.145   2.792
 3692SOL     OW11093   4.263   3.788   2.374
 3692SOL    HW111094   4.182   3.789   2.432
 3692SOL    HW211095   4.266   3.871   2.319
 3693SOL     OW11096   4.021   3.759   2.033
 3693SOL    HW111097   4.070   3.843   2.012
 3693SOL    HW211098   4.083   3.694   2.078
 3694SOL     OW11099   4.659   3.960   2.342
 3694SOL    HW111100   4.611   4.001   2.264
 3694SOL    HW211101   4.758   3.958   2.323
 3695SOL     OW11102   4.756   4.273   1.878
 3695SOL    HW111103   4.715   4.355   1.839
 3695SOL    HW211104   4.820   4.299   1.951
 3696SOL     OW11105   3.802   4.280   3.248
 3696SOL    HW111106   3.894   4.279   3.207
 3696SOL    HW211107   3.796   4.354   3.315
 3697SOL     OW11108   4.285   3.946   3.009
 3697SOL    HW111109   4.323   3.862   3.046
 3697SOL    HW211110   4.197   3.965   3.053
 3698SOL     OW11111   4.590   4.178   2.504
 3698SOL    HW111112   4.558   4.250   2.442
 3698SOL    HW211113   4.614   4.097   2.451
 3699SOL     OW11114   4.741   3.763   2.615
 3699SOL    HW111115   4.669   3.768   2.546
 3699SOL    HW211116   4.717   3.694   2.684
 3700SOL     OW11117   4.251   3.980   2.190
 3700SOL    HW111118   4.278   3.921   2.115
 3700SOL    HW211119   4.251   4.075   2.159
 3701SOL     OW11120   4.639   3.813   3.264
 3701SOL    HW111121   4.664   3.793   3.169
 3701SOL    HW211122   4.711   3.869   3.306
 3702SOL     OW11123   4.134   4.537   3.113
 3702SOL    HW111124   4.220   4.549   3.163
 3702SOL    HW211125   4.092   4.450   3.140
 3703SOL     OW11126   4.091   4.824   2.363
 3703SOL    HW111127   4.084   4.907   2.307
 3703SOL    HW211128   4.095   4.744   2.303
 3704SOL     OW11129   4.290   4.261   2.727
 3704SOL    HW111130   4.302   4.327   2.653
 3704SOL    HW211131   4.336   4.295   2.810
 3705SOL     OW11132   4.126   4.475   3.460
 3705SOL    HW111133   4.194   4.530   3.413
 3705SOL    HW211134   4.166   4.387   3.487
 3706SOL     OW11135   4.737   3.829   3.632
 3706SOL    HW111136   4.743   3.914   3.580
 3706SOL    HW211137   4.769   3.753   3.575
 3707SOL     OW11138   4.228   3.774   3.602
 3707SOL    HW111139   4.186   3.717   3.532
 3707SOL    HW211140   4.162   3.843   3.634
 3708SOL     OW11141   4.297   4.594   2.891
 3708SOL    HW111142   4.341   4.683   2.882
 3708SOL    HW211143   4.234   4.594   2.968
 3709SOL     OW11144   4.933   4.249   2.137
 3709SOL    HW111145   4.946   4.165   2.191
 3709SOL    HW211146   4.904   4.323   2.197
 3710SOL     OW11147   4.031   3.937   3.093
 3710SOL    HW111148   4.008   3.974   3.183
 3710SOL    HW211149   4.001   3.842   3.087
 3711SOL     OW11150   4.456   4.358   2.926
 3711SOL    HW111151   4.515   4.332   2.850
 3711SOL    HW211152   4.428   4.454   2.915
 3712SOL     OW11153   4.031   3.787   2.480
 3712SOL    HW111154   4.020   3.881   2.513
 3712SOL    HW211155   4.026   3.724   2.557
 3713SOL     OW11156   4.747   4.490   2.828
 3713SOL    HW111157   4.762   4.511   2.924
 3713SOL    HW211158   4.717   4.395   2.819
 3714SOL     OW11159   4.074   4.622   3.666
 3714SOL    HW111160   4.150   4.666   3.714
 3714SOL    HW211161   4.109   4.575   3.584
 3715SOL     OW11162   4.043   4.534   2.811
 3715SOL    HW111163   4.136   4.570   2.816
 3715SOL    HW211164   4.037   4.449   2.863
 3716SOL     OW11165   4.063   4.233   2.868
 3716SOL    HW111166   4.011   4.150   2.851
 3716SOL    HW211167   4.140   4.238   2.804
 3717SOL     OW11168   4.862   4.104   3.540
 3717SOL    HW111169   4.817   4.167   3.604
 3717SOL    HW211170   4.955   4.135   3.523
 3718SOL     OW11171   4.884   3.931   3.339
 3718SOL    HW111172   4.884   3.995   3.416
 3718SOL    HW211173   4.912   3.979   3.256
 3719SOL     OW11174   4.726   4.520   3.100
 3719SOL    HW111175   4.767   4.488   3.186
 3719SOL    HW211176   4.630   4.493   3.097
 3720SOL     OW11177   3.764   4.268   2.976
 3720SOL    HW111178   3.849   4.235   2.935
 3720SOL    HW211179   3.777   4.283   3.074
 3721SOL     OW11180   3.913   4.244   3.584
 3721SOL    HW111181   3.972   4.204   3.514
 3721SOL    HW211182   3.855   4.315   3.543
 3722SOL     OW11183   4.539   4.296   2.187
 3722SOL    HW111184   4.546   4.207   2.141
 3722SOL    HW211185   4.445   4.330   2.179
 3723SOL     OW11186   4.395   4.188   3.131
 3723SOL    HW111187   4.361   4.099   3.101
 3723SOL    HW211188   4.421   4.242   3.051
 3724SOL     OW11189   4.197   4.224   2.053
 3724SOL    HW111190   4.258   4.304   2.057
 3724SOL    HW211191   4.102   4.255   2.060
 3725SOL     OW11192   3.883   4.861   3.328
 3725SOL    HW111193   3.905   4.800   3.404
 3725SOL    HW211194   3.893   4.812   3.242
 3726SOL     OW11195   5.026   4.579   2.171
 3726SOL    HW111196   4.940   4.548   2.213
 3726SOL    HW211197   5.022   4.565   2.072
 3727SOL     OW11198   3.987   4.050   2.582
 3727SOL    HW111199   3.908   4.101   2.548
 3727SOL    HW211200   3.978   4.035   2.680
 3728SOL     OW11201   4.546   4.726   3.234
 3728SOL    HW111202   4.586   4.725   3.142
 3728SOL    HW211203   4.556   4.818   3.274
 3729SOL     OW11204   4.640   4.634   2.153
 3729SOL    HW111205   4.703   4.672   2.085
 3729SOL    HW211206   4.680   4.551   2.192
 3730SOL     OW11207   4.738   3.960   2.833
 3730SOL    HW111208   4.730   3.924   2.740
 3730SOL    HW211209   4.736   3.884   2.898
 3731SOL     OW11210   3.829   4.737   3.588
 3731SOL    HW111211   3.752   4.704   3.642
 3731SOL    HW211212   3.914   4.707   3.630
 3732SOL     OW11213   4.396   3.927   3.351
 3732SOL    HW111214   4.486   3.911   3.311
 3732SOL    HW211215   4.404   3.932   3.450
 3733SOL     OW11216   3.799   4.069   1.895
 3733SOL    HW111217   3.707   4.041   1.866
 3733SOL    HW211218   3.830   4.146   1.839
 3734SOL     OW11219   3.796   3.890   2.180
 3734SOL    HW111220   3.779   3.973   2.126
 3734SOL    HW211221   3.886   3.853   2.158
 3735SOL     OW11222   4.337   4.566   3.293
 3735SOL    HW111223   4.393   4.647   3.276
 3735SOL    HW211224   4.396   4.486   3.296
 3736SOL     OW11225   4.440   4.289   3.570
 3736SOL    HW111226   4.459   4.354   3.644
 3736SOL    HW211227   4.500   4.209   3.579
 3737SOL     OW11228   4.318   4.469   2.514
 3737SOL    HW111229   4.368   4.554   2.495
 3737SOL    HW211230   4.230   4.471   2.466
 3738SOL     OW11231   4.583   4.680   2.723
 3738SOL    HW111232   4.637   4.611   2.771
 3738SOL    HW211233   4.551   4.749   2.789
 3739SOL     OW11234   4.807   4.708   1.949
 3739SOL    HW111235   4.784   4.761   1.867
 3739SOL    HW211236   4.888   4.652   1.930
 3740SOL     OW11237   4.152   4.148   2.382
 3740SOL    HW111238   4.182   4.076   2.320
 3740SOL    HW211239   4.113   4.108   2.465
 3741SOL     OW11240   4.041   4.271   3.142
 3741SOL    HW111241   4.079   4.212   3.214
 3741SOL    HW211242   4.081   4.245   3.054
 3742SOL     OW11243   4.725   3.758   3.016
 3742SOL    HW111244   4.662   3.686   2.985
 3742SOL    HW211245   4.818   3.722   3.016
 3743SOL     OW11246   3.763   4.801   2.162
 3743SOL    HW111247   3.862   4.790   2.153
 3743SOL    HW211248   3.723   4.715   2.194
 3744SOL     OW11249   3.954   4.352   3.837
 3744SOL    HW111250   3.861   4.350   3.874
 3744SOL    HW211251   3.955   4.313   3.745
 3745SOL     OW11252   3.949   3.999   4.720
 3745SOL    HW111253   3.984   3.982   4.812
 3745SOL    HW211254   3.861   3.954   4.708
 3746SOL     OW11255   3.743   4.092   4.371
 3746SOL    HW111256   3.661   4.135   4.410
 3746SOL    HW211257   3.715   4.019   4.308
 3747SOL     OW11258   4.492   4.868   4.747
 3747SOL    HW111259   4.414   4.885   4.807
 3747SOL    HW211260   4.526   4.955   4.711
 3748SOL     OW11261   4.409   4.736   4.389
 3748SOL    HW111262   4.478   4.720   4.459
 3748SOL    HW211263   4.336   4.793   4.427
 3749SOL     OW11264   3.954   5.158   4.262
 3749SOL    HW111265   3.928   5.254   4.262
 3749SOL    HW211266   3.883   5.104   4.307
 3750SOL     OW11267   3.964   4.815   4.610
 3750SOL    HW111268   3.978   4.731   4.662
 3750SOL    HW211269   3.909   4.879   4.665
 3751SOL     OW11270   4.330   4.688   3.847
 3751SOL    HW111271   4.337   4.772   3.793
 3751SOL    HW211272   4.376   4.701   3.935
 3752SOL     OW11273   3.846   4.367   4.287
 3752SOL    HW111274   3.801   4.279   4.304
 3752SOL    HW211275   3.845   4.421   4.371
 3753SOL     OW11276   4.533   3.728   4.226
 3753SOL    HW111277   4.573   3.819   4.217
 3753SOL    HW211278   4.433   3.736   4.232
 3754SOL     OW11279   4.322   4.453   3.994
 3754SOL    HW111280   4.346   4.522   3.926
 3754SOL    HW211281   4.244   4.486   4.048
 3755SOL     OW11282   4.765   4.425   4.153
 3755SOL    HW111283   4.791   4.421   4.249
 3755SOL    HW211284   4.680   4.374   4.139
 3756SOL     OW11285   3.800   4.535   4.513
 3756SOL    HW111286   3.899   4.523   4.522
 3756SOL    HW211287   3.776   4.630   4.534
 3757SOL     OW11288   4.589   4.072   3.919
 3757SOL    HW111289   4.648   4.135   3.870
 3757SOL    HW211290   4.608   3.978   3.890
 3758SOL     OW11291   4.274   3.920   4.609
 3758SOL    HW111292   4.269   3.915   4.709
 3758SOL    HW211293   4.276   4.016   4.580
 3759SOL     OW11294   4.045   4.667   3.966
 3759SOL    HW111295   4.127   4.706   3.924
 3759SOL    HW211296   4.018   4.585   3.917
 3760SOL     OW11297   4.106   4.424   4.204
 3760SOL    HW111298   4.151   4.334   4.201
 3760SOL    HW211299   4.012   4.413   4.237
 3761SOL     OW11300   4.338   3.846   3.841
 3761SOL    HW111301   4.436   3.824   3.848
 3761SOL    HW211302   4.307   3.829   3.748
 3762SOL     OW11303   4.646   4.227   4.623
 3762SOL    HW111304   4.621   4.218   4.527
 3762SOL    HW211305   4.694   4.145   4.654
 3763SOL     OW11306   4.263   3.788   4.236
 3763SOL    HW111307   4.182   3.789   4.294
 3763SOL    HW211308   4.266   3.871   4.181
 3764SOL     OW11309   4.021   3.759   3.895
 3764SOL    HW111310   4.070   3.843   3.874
 3764SOL    HW211311   4.083   3.694   3.940
 3765SOL     OW11312   4.659   3.960   4.204
 3765SOL    HW111313   4.611   4.001   4.126
 3765SOL    HW211314   4.758   3.958   4.185
 3766SOL     OW11315   4.756   4.273   3.740
 3766SOL    HW111316   4.715   4.355   3.701
 3766SOL    HW211317   4.820   4.299   3.813
 3767SOL     OW11318   4.590   4.178   4.366
 3767SOL    HW111319   4.558   4.250   4.304
 3767SOL    HW211320   4.614   4.097   4.313
 3768SOL     OW11321   4.741   3.763   4.477
 3768SOL    HW111322   4.669   3.768   4.408
 3768SOL    HW211323   4.717   3.694   4.546
 3769SOL     OW11324   4.251   3.980   4.052
 3769SOL    HW111325   4.278   3.921   3.977
 3769SOL    HW211326   4.251   4.075   4.021
 3770SOL     OW11327   4.134   4.537   4.975
 3770SOL    HW111328   4.220   4.549   5.025
 3770SOL    HW211329   4.092   4.450   5.002
 3771SOL     OW11330   4.091   4.824   4.225
 3771SOL    HW111331   4.084   4.907   4.169
 3771SOL    HW211332   4.095   4.744   4.165
 3772SOL     OW11333   4.290   4.261   4.589
 3772SOL    HW111334   4.302   4.327   4.515
 3772SOL    HW211335   4.336   4.295   4.672
 3773SOL     OW11336   4.297   4.594   4.753
 3773SOL    HW111337   4.341   4.683   4.744
 3773SOL    HW211338   4.234   4.594   4.830
 3774SOL     OW11339   4.933   4.249   3.999
 3774SOL    HW111340   4.946   4.165   4.053
 3774SOL    HW211341   4.904   4.323   4.059
 3775SOL     OW11342   4.031   3.937   4.955
 3775SOL    HW111343   4.008   3.974   5.045
 3775SOL    HW211344   4.001   3.842   4.949
 3776SOL     OW11345   4.456   4.358   4.788
 3776SOL    HW111346   4.515   4.332   4.712
 3776SOL    HW211347   4.428   4.454   4.777
 3777SOL     OW11348   4.031   3.787   4.342
 3777SOL    HW111349   4.020   3.881   4.375
 3777SOL    HW211350   4.026   3.724   4.419
 3778SOL     OW11351   4.747   4.490   4.690
 3778SOL    HW111352   4.762   4.511   4.786
 3778SOL    HW211353   4.717   4.395   4.681
 3779SOL     OW11354   4.043   4.534   4.673
 3779SOL    HW111355   4.136   4.570   4.678
 3779SOL    HW211356   4.037   4.449   4.725
 3780SOL     OW11357   4.063   4.233   4.730
 3780SOL    HW111358   4.011   4.150   4.713
 3780SOL    HW211359   4.140   4.238   4.666
 3781SOL     OW11360   4.726   4.520   4.962
 3781SOL    HW111361   4.767   4.488   5.048
 3781SOL    HW211362   4.630   4.493   4.959
 3782SOL     OW11363   3.764   4.268   4.838
 3782SOL    HW111364   3.849   4.235   4.797
 3782SOL    HW211365   3.777   4.283   4.936
 3783SOL     OW11366   4.539   4.296   4.049
 3783SOL    HW111367   4.546   4.207   4.003
 3783SOL    HW211368   4.445   4.330   4.041
 3784SOL     OW11369   4.395   4.188   4.993
 3784SOL    HW111370   4.361   4.099   4.963
 3784SOL    HW211371   4.421   4.242   4.913
 3785SOL     OW11372   4.197   4.224   3.915
 3785SOL    HW111373   4.258   4.304   3.919
 3785SOL    HW211374   4.102   4.255   3.922
 3786SOL     OW11375   5.071   4.783   4.958
 3786SOL    HW111376   5.095   4.720   4.884
 3786SOL    HW211377   4.981   4.823   4.940
 3787SOL     OW11378   5.026   4.579   4.033
 3787SOL    HW111379   4.940   4.548   4.075
 3787SOL    HW211380   5.022   4.565   3.934
 3788SOL     OW11381   3.987   4.050   4.444
 3788SOL    HW111382   3.908   4.101   4.410
 3788SOL    HW211383   3.978   4.035   4.542
 3789SOL     OW11384   4.640   4.634   4.015
 3789SOL    HW111385   4.703   4.672   3.947
 3789SOL    HW211386   4.680   4.551   4.054
 3790SOL     OW11387   4.738   3.960   4.695
 3790SOL    HW111388   4.730   3.924   4.602
 3790SOL    HW211389   4.736   3.884   4.760
 3791SOL     OW11390   3.799   4.069   3.757
 3791SOL    HW111391   3.707   4.041   3.728
 3791SOL    HW211392   3.830   4.146   3.701
 3792SOL     OW11393   3.796   3.890   4.042
 3792SOL    HW111394   3.779   3.973   3.988
 3792SOL    HW211395   3.886   3.853   4.020
 3793SOL     OW11396   4.318   4.469   4.376
 3793SOL    HW111397   4.368   4.554   4.357
 3793SOL    HW211398   4.230   4.471   4.328
 3794SOL     OW11399   4.583   4.680   4.585
 3794SOL    HW111400   4.637   4.611   4.633
 3794SOL    HW211401   4.551   4.749   4.651
 3795SOL     OW11402   4.807   4.708   3.811
 3795SOL    HW111403   4.784   4.761   3.729
 3795SOL    HW211404   4.888   4.652   3.792
 3796SOL     OW11405   4.152   4.148   4.244
 3796SOL    HW111406   4.182   4.076   4.182
 3796SOL    HW211407   4.113   4.108   4.327
 3797SOL     OW11408   3.763   4.801   4.024
 3797SOL    HW111409   3.862   4.790   4.015
 3797SOL    HW211410   3.723   4.715   4.056
   4.88287   4.88287   4.88287
