4_methylpentan_2_ol
    21
  -1.0910000  -0.8790000  -2.1940000  -1.0610000   0.5650000  -0.1500000
   1.9550000   2.3020000  -3.0390000  -0.3930000   1.5690000  -2.3520000
  -1.3050000   0.5380000  -1.6610000   1.1130000   1.2950000  -2.2680000
   1.4810000   1.3580000  -0.8880000  -0.0430000  -1.1830000  -2.1030000
  -1.3800000  -0.9570000  -3.2460000  -1.7000000  -1.5990000  -1.6370000
  -1.2460000   1.5650000   0.2570000  -1.7310000  -0.1320000   0.3650000
  -0.0300000   0.2850000   0.0930000   1.7510000   3.3230000  -2.7000000
   3.0220000   2.1220000  -2.8660000   1.7730000   2.2450000  -4.1160000
  -0.5860000   2.5670000  -1.9350000  -0.6760000   1.6480000  -3.4110000
  -2.3520000   0.8150000  -1.8280000   1.3350000   0.2790000  -2.6120000
   2.1970000   2.0080000  -0.8270000
