%VERSION  VERSION_STAMP = V0001.000  DATE = 05/21/26  00:01:57                  
%FLAG TITLE                                                                     
%FORMAT(20a4)                                                                   
4_methylpentan_2_ol                                                             
%FLAG POINTERS                                                                  
%FORMAT(10I8)                                                                   
      21       5      14       6      30       7      44       4       0       0
     107       1       6       7       4       5       7       8       5       0
       0       0       0       0       0       0       0       0      21       0
       0
%FLAG ATOM_NAME                                                                 
%FORMAT(20a4)                                                                   
C1  C2  C3  C4  C5  C6  O1  H1  H2  H3  H4  H5  H6  H7  H8  H9  H10 H11 H12 H13 
H14 
%FLAG CHARGE                                                                    
%FORMAT(5E16.8)                                                                 
 -1.68738498E+00 -1.68738498E+00 -2.35249893E+00 -1.90240812E+00 -1.12431591E+00
  2.48005503E+00 -1.08932909E+01  6.62690384E-01  6.62690384E-01  6.62690384E-01
  6.62690384E-01  6.62690384E-01  6.62690384E-01  7.59869910E-01  7.59869910E-01
  7.59869910E-01  7.68981060E-01  7.68981060E-01  7.41647610E-01  1.41587271E+00
  7.19780850E+00
%FLAG ATOMIC_NUMBER                                                             
%FORMAT(10I8)                                                                   
       6       6       6       6       6       6       8       1       1       1
       1       1       1       1       1       1       1       1       1       1
       1
%FLAG MASS                                                                      
%FORMAT(5E16.8)                                                                 
  1.20100000E+01  1.20100000E+01  1.20100000E+01  1.20100000E+01  1.20100000E+01
  1.20100000E+01  1.60000000E+01  1.00800000E+00  1.00800000E+00  1.00800000E+00
  1.00800000E+00  1.00800000E+00  1.00800000E+00  1.00800000E+00  1.00800000E+00
  1.00800000E+00  1.00800000E+00  1.00800000E+00  1.00800000E+00  1.00800000E+00
  1.00800000E+00
%FLAG ATOM_TYPE_INDEX                                                           
%FORMAT(10I8)                                                                   
       1       1       1       1       1       1       2       3       3       3
       3       3       3       3       3       3       3       3       3       4
       5
%FLAG NUMBER_EXCLUDED_ATOMS                                                     
%FORMAT(10I8)                                                                   
      13      12      11      17      12       9       7       3       2       1
       3       2       1       3       2       1       3       2       1       1
       1
%FLAG NONBONDED_PARM_INDEX                                                      
%FORMAT(10I8)                                                                   
       1       2       4       7      11       2       3       5       8      12
       4       5       6       9      13       7       8       9      10      14
      11      12      13      14      15
%FLAG RESIDUE_LABEL                                                             
%FORMAT(20a4)                                                                   
MOL 
%FLAG RESIDUE_POINTER                                                           
%FORMAT(10I8)                                                                   
       1
%FLAG BOND_FORCE_CONSTANT                                                       
%FORMAT(5E16.8)                                                                 
  2.28890000E+02  3.45250000E+02  2.85150000E+02  3.44220000E+02  5.35510000E+02
%FLAG BOND_EQUIL_VALUE                                                          
%FORMAT(5E16.8)                                                                 
  1.53540000E+00  1.09620000E+00  1.42420000E+00  1.09690000E+00  9.72500000E-01
%FLAG ANGLE_FORCE_CONSTANT                                                      
%FORMAT(5E16.8)                                                                 
  5.98700000E+01  4.32700000E+01  7.67900000E+01  4.32800000E+01  6.51300000E+01
  5.62900000E+01  3.58000000E+01
%FLAG ANGLE_EQUIL_VALUE                                                         
%FORMAT(5E16.8)                                                                 
  1.96576518E+00  1.91427794E+00  1.91392888E+00  1.91270715E+00  1.87430989E+00
  1.92649525E+00  1.88024401E+00
%FLAG DIHEDRAL_FORCE_CONSTANT                                                   
%FORMAT(5E16.8)                                                                 
  1.30000000E-01  5.20000000E-01  6.00000000E-02  1.80000000E-01  1.55555556E-01
  9.00000000E-02  1.20000000E-01  1.23000000E-01
%FLAG DIHEDRAL_PERIODICITY                                                      
%FORMAT(5E16.8)                                                                 
  3.00000000E+00  3.00000000E+00  3.00000000E+00  3.00000000E+00  3.00000000E+00
  3.00000000E+00  3.00000000E+00  3.00000000E+00
%FLAG DIHEDRAL_PHASE                                                            
%FORMAT(5E16.8)                                                                 
  0.00000000E+00  0.00000000E+00  0.00000000E+00  0.00000000E+00  0.00000000E+00
  0.00000000E+00  0.00000000E+00  0.00000000E+00
%FLAG SCEE_SCALE_FACTOR                                                         
%FORMAT(5E16.8)                                                                 
  1.20000000E+00  1.20000000E+00  1.20000000E+00  1.20000000E+00  1.20000000E+00
  1.20000000E+00  1.20000000E+00  1.20000000E+00
%FLAG SCNB_SCALE_FACTOR                                                         
%FORMAT(5E16.8)                                                                 
  2.00000000E+00  2.00000000E+00  2.00000000E+00  2.00000000E+00  2.00000000E+00
  2.00000000E+00  2.00000000E+00  2.00000000E+00
%FLAG SOLTY                                                                     
%FORMAT(5E16.8)                                                                 
  0.00000000E+00  0.00000000E+00  0.00000000E+00  0.00000000E+00  0.00000000E+00
%FLAG LENNARD_JONES_ACOEF                                                       
%FORMAT(5E16.8)                                                                 
  1.02073671E+06  7.18991463E+05  5.03152404E+05  1.00235148E+05  6.80216136E+04
  7.94617769E+03  6.97998263E+04  4.69084694E+04  5.22955465E+03  3.39005767E+03
  3.03553352E+02  1.74176419E+02  8.80612241E+00  4.36660257E+00  1.10360882E-05
%FLAG LENNARD_JONES_BCOEF                                                       
%FORMAT(5E16.8)                                                                 
  6.63431737E+02  5.36620538E+02  4.32634597E+02  1.37787728E+02  1.09393126E+02
  2.57122925E+01  1.14981426E+02  9.08431526E+01  2.08590256E+01  1.67944276E+01
  5.22789272E+00  3.81654050E+00  5.90150328E-01  4.15568027E-01  4.55498033E-04
%FLAG BONDS_INC_HYDROGEN                                                        
%FORMAT(10I8)                                                                   
       0      21       2       0      24       2       0      27       2       3
      30       2       3      33       2       3      36       2       6      39
       2       6      42       2       6      45       2       9      48       2
       9      51       2      12      54       2      15      57       4      18
      60       5
%FLAG BONDS_WITHOUT_HYDROGEN                                                    
%FORMAT(10I8)                                                                   
       0      12       1       3      12       1       6      15       1       9
      12       1       9      15       1      15      18       3
%FLAG ANGLES_INC_HYDROGEN                                                       
%FORMAT(10I8)                                                                   
       0      12      54       2       3      12      54       2       6      15
      57       4       9      12      54       2       9      15      57       4
      12       0      21       2      12       0      24       2      12       0
      27       2      12       3      30       2      12       3      33       2
      12       3      36       2      12       9      48       2      12       9
      51       2      15       6      39       2      15       6      42       2
      15       6      45       2      15       9      48       2      15       9
      51       2      15      18      60       5      18      15      57       6
      21       0      24       7      21       0      27       7      24       0
      27       7      30       3      33       7      30       3      36       7
      33       3      36       7      39       6      42       7      39       6
      45       7      42       6      45       7      48       9      51       7
%FLAG ANGLES_WITHOUT_HYDROGEN                                                   
%FORMAT(10I8)                                                                   
       0      12       3       1       0      12       9       1       3      12
       9       1       6      15       9       1       6      15      18       3
       9      15      18       3      12       9      15       1
%FLAG DIHEDRALS_INC_HYDROGEN                                                    
%FORMAT(10I8)                                                                   
       0      12       3      30       1       0      12       3      33       1
       0      12       3      36       1       0      12       9      48       1
       0      12       9      51       1      21       0      12       3       1
      24       0      12       3       1      27       0      12       3       1
       3      12       9      48       1       3      12       9      51       1
       6      15       9      48       1       6      15       9      51       1
       6      15      18      60       3      21       0      12       9       1
      24       0      12       9       1      27       0      12       9       1
       9      12       3      30       1       9      12       3      33       1
       9      12       3      36       1       9      15       6      39       1
       9      15       6      42       1       9      15       6      45       1
       9      15      18      60       3      12       9      15      57       5
      15       9      12      54       1      18      15       6      39       6
      18      15       6      42       6      18      15       6      45       6
      18      15       9      48       6      18      15       9      51       6
      21       0      12      54       7      24       0      12      54       7
      27       0      12      54       7      30       3      12      54       7
      33       3      12      54       7      36       3      12      54       7
      39       6      15      57       5      42       6      15      57       5
      45       6      15      57       5      48       9      12      54       7
      48       9      15      57       5      51       9      12      54       7
      51       9      15      57       5      57      15      18      60       8
%FLAG DIHEDRALS_WITHOUT_HYDROGEN                                                
%FORMAT(10I8)                                                                   
       0      12       9      15       2       3      12       9      15       2
       6      15       9      12       2      12       9      15      18       4
%FLAG EXCLUDED_ATOMS_LIST                                                       
%FORMAT(10I8)                                                                   
       2       4       5       6       8       9      10      11      12      13
      17      18      19       4       5       6       8       9      10      11
      12      13      17      18      19       4       5       6       7      14
      15      16      17      18      20      21       5       6       7       8
       9      10      11      12      13      14      15      16      17      18
      19      20      21       6       7       8       9      10      11      12
      13      17      18      19      20       7      14      15      16      17
      18      19      20      21      14      15      16      17      18      20
      21       9      10      19      10      19      19      12      13      19
      13      19      19      15      16      20      16      20      20      18
      19      20      19      20       0      21       0
%FLAG HBOND_ACOEF                                                               
%FORMAT(5E16.8)                                                                 

%FLAG HBOND_BCOEF                                                               
%FORMAT(5E16.8)                                                                 

%FLAG HBCUT                                                                     
%FORMAT(5E16.8)                                                                 

%FLAG AMBER_ATOM_TYPE                                                           
%FORMAT(20a4)                                                                   
c3  c3  c3  c3  c3  c3  oh  hc  hc  hc  hc  hc  hc  hc  hc  hc  hc  hc  hc  h1  
ho  
%FLAG TREE_CHAIN_CLASSIFICATION                                                 
%FORMAT(20a4)                                                                   
BLA BLA BLA BLA BLA BLA BLA BLA BLA BLA BLA BLA BLA BLA BLA BLA BLA BLA BLA BLA 
BLA 
%FLAG JOIN_ARRAY                                                                
%FORMAT(10I8)                                                                   
       0       0       0       0       0       0       0       0       0       0
       0       0       0       0       0       0       0       0       0       0
       0
%FLAG IROTAT                                                                    
%FORMAT(10I8)                                                                   
       0       0       0       0       0       0       0       0       0       0
       0       0       0       0       0       0       0       0       0       0
       0
%FLAG RADIUS_SET                                                                
%FORMAT(1a80)                                                                   
modified Bondi radii (mbondi)                                                   
%FLAG RADII                                                                     
%FORMAT(5E16.8)                                                                 
  1.70000000E+00  1.70000000E+00  1.70000000E+00  1.70000000E+00  1.70000000E+00
  1.70000000E+00  1.50000000E+00  1.30000000E+00  1.30000000E+00  1.30000000E+00
  1.30000000E+00  1.30000000E+00  1.30000000E+00  1.30000000E+00  1.30000000E+00
  1.30000000E+00  1.30000000E+00  1.30000000E+00  1.30000000E+00  1.30000000E+00
  8.00000000E-01
%FLAG SCREEN                                                                    
%FORMAT(5E16.8)                                                                 
  7.20000000E-01  7.20000000E-01  7.20000000E-01  7.20000000E-01  7.20000000E-01
  7.20000000E-01  8.50000000E-01  8.50000000E-01  8.50000000E-01  8.50000000E-01
  8.50000000E-01  8.50000000E-01  8.50000000E-01  8.50000000E-01  8.50000000E-01
  8.50000000E-01  8.50000000E-01  8.50000000E-01  8.50000000E-01  8.50000000E-01
  8.50000000E-01
%FLAG IPOL                                                                      
%FORMAT(1I8)                                                                    
       0
