; mobley_5123639_GMX_OPLS.top created by acpype (v: 2023.10.27) on Thu May 21 00:01:54 2026

; Include forcefield parameters
#include "ffoplsaa.itp"

; Include mobley_5123639_GMX.itp topology
#include "mobley_5123639_GMX.itp"

; Ligand position restraints
#ifdef POSRES_LIG
#include "posre_mobley_5123639.itp"
#endif

[ system ]
 mobley_5123639

[ molecules ]
; Compound        nmols
 mobley_5123639   1     
