mobley_5123639_GMX.gro created by acpype (v: 2023.10.27) on Thu May 21 00:01:54 2026
 21
    1  MOL   C1    1  -0.109  -0.088  -0.219
    1  MOL   C2    2  -0.106   0.056  -0.015
    1  MOL   C3    3   0.196   0.230  -0.304
    1  MOL   C4    4  -0.039   0.157  -0.235
    1  MOL   C5    5  -0.131   0.054  -0.166
    1  MOL   C6    6   0.111   0.130  -0.227
    1  MOL   O1    7   0.148   0.136  -0.089
    1  MOL   H1    8  -0.004  -0.118  -0.210
    1  MOL   H2    9  -0.138  -0.096  -0.325
    1  MOL   H3   10  -0.170  -0.160  -0.164
    1  MOL   H4   11  -0.125   0.157   0.026
    1  MOL   H5   12  -0.173  -0.013   0.036
    1  MOL   H6   13  -0.003   0.028   0.009
    1  MOL   H7   14   0.175   0.332  -0.270
    1  MOL   H8   15   0.302   0.212  -0.287
    1  MOL   H9   16   0.177   0.225  -0.412
    1  MOL  H10   17  -0.059   0.257  -0.194
    1  MOL  H11   18  -0.068   0.165  -0.341
    1  MOL  H12   19  -0.235   0.082  -0.183
    1  MOL  H13   20   0.134   0.028  -0.261
    1  MOL  H14   21   0.220   0.201  -0.083
   10.74800     9.84400     8.96200
