; mobley_5263791_GMX_OPLS.top created by acpype (v: 2023.10.27) on Thu May 21 00:04:44 2026

; Include forcefield parameters
#include "ffoplsaa.itp"

; Include mobley_5263791_GMX.itp topology
#include "mobley_5263791_GMX.itp"

; Ligand position restraints
#ifdef POSRES_LIG
#include "posre_mobley_5263791.itp"
#endif

[ system ]
 mobley_5263791

[ molecules ]
; Compound        nmols
 mobley_5263791   1     
