; mobley_7913234_GMX_OPLS.top created by acpype (v: 2023.10.27) on Wed May 20 23:46:05 2026

; Include forcefield parameters
#include "ffoplsaa.itp"

; Include mobley_7913234_GMX.itp topology
#include "mobley_7913234_GMX.itp"

; Ligand position restraints
#ifdef POSRES_LIG
#include "posre_mobley_7913234.itp"
#endif

[ system ]
 mobley_7913234

[ molecules ]
; Compound        nmols
 mobley_7913234   1     
