mobley_7913234_GMX.gro created by acpype (v: 2023.10.27) on Wed May 20 23:46:05 2026
 25
    1  MOL   C1    1  -0.720   0.406  -0.228
    1  MOL   C2    2  -0.445  -0.307   0.177
    1  MOL   C3    3  -0.689   0.334  -0.098
    1  MOL   C4    4  -0.643   0.190  -0.123
    1  MOL   C5    5  -0.607   0.119   0.007
    1  MOL   C6    6  -0.529  -0.085   0.094
    1  MOL   C7    7  -0.481  -0.224   0.055
    1  MOL   O1    8  -0.365  -0.210  -0.028
    1  MOL   O2    9  -0.564  -0.013  -0.023
    1  MOL   H1   10  -0.798   0.353  -0.284
    1  MOL   H2   11  -0.755   0.508  -0.209
    1  MOL   H3   12  -0.631   0.411  -0.290
    1  MOL   H4   13  -0.368  -0.256   0.237
    1  MOL   H5   14  -0.532  -0.324   0.240
    1  MOL   H6   15  -0.403  -0.404   0.148
    1  MOL   H7   16  -0.611   0.389  -0.044
    1  MOL   H8   17  -0.778   0.333  -0.034
    1  MOL   H9   18  -0.721   0.134  -0.175
    1  MOL  H10   19  -0.556   0.190  -0.190
    1  MOL  H11   20  -0.526   0.171   0.059
    1  MOL  H12   21  -0.694   0.113   0.073
    1  MOL  H13   22  -0.618  -0.090   0.158
    1  MOL  H14   23  -0.450  -0.029   0.146
    1  MOL  H15   24  -0.558  -0.274  -0.005
    1  MOL  H16   25  -0.339  -0.300  -0.053
    9.18600    18.22800    10.61800
