SAMPL4_025
    25
  -7.2030000   4.0560000  -2.2770000  -4.4490000  -3.0690000   1.7690000
  -6.8890000   3.3360000  -0.9760000  -6.4270000   1.9030000  -1.2270000
  -6.0700000   1.1920000   0.0700000  -5.2870000  -0.8450000   0.9420000
  -4.8110000  -2.2370000   0.5480000  -3.6530000  -2.0990000  -0.2750000
  -5.6360000  -0.1270000  -0.2330000  -7.9790000   3.5280000  -2.8400000
  -7.5510000   5.0770000  -2.0860000  -6.3080000   4.1140000  -2.9040000
  -3.6830000  -2.5620000   2.3650000  -5.3230000  -3.2430000   2.4050000
  -4.0300000  -4.0370000   1.4750000  -6.1110000   3.8890000  -0.4370000
  -7.7830000   3.3330000  -0.3410000  -7.2090000   1.3370000  -1.7480000
  -5.5570000   1.8970000  -1.8960000  -5.2620000   1.7130000   0.5930000
  -6.9400000   1.1270000   0.7330000  -6.1750000  -0.8960000   1.5810000
  -4.4970000  -0.2900000   1.4580000  -5.5780000  -2.7440000  -0.0480000
  -3.3860000  -2.9950000  -0.5270000
