; mobley_1352110_GMX_OPLS.itp created by acpype (v: 2023.10.27) on Thu May 21 00:02:12 2026

; For OPLS atomtypes manual fine tuning
; AC_at:OPLS_at:OPLScode: Possible_Alternatives (see ffoplsaa.atp and ffoplsaanb.itp)
; c:C:opls_235: ['271']
; c3:CT:opls_135: ['136', '137', '149', '157', '158', '206', '209', '210', '223B', '224B', '245', '246', '274', '283', '284', '285', '292', '292B', '293B', '296', '307', '308', '505']
; n:N:opls_237: ['238', '239']
; o:O:opls_236: ['272']
; ss:S:opls_202: []
; hc:HC:opls_140: []
; h1:HC:opls_140: []

[ moleculetype ]
;name            nrexcl
 mobley_1352110   3

[ atoms ]
;   nr  type  resi  res  atom  cgnr     charge      mass       ; qtot   bond_type
     1 opls_235     1   MOL    C1    1     0.684700     12.01100 ; qtot  0.685  C   
     2 opls_135     1   MOL    C2    2    -0.092100     12.01100 ; qtot  0.593  CT  
     3 opls_135     1   MOL    C3    3    -0.094100     12.01100 ; qtot  0.498  CT  
     4 opls_135     1   MOL    C4    4    -0.112100     12.01100 ; qtot  0.386  CT  
     5 opls_135     1   MOL    C5    5    -0.078400     12.01100 ; qtot  0.308  CT  
     6 opls_135     1   MOL    C6    6    -0.073400     12.01100 ; qtot  0.235  CT  
     7 opls_135     1   MOL    C7    7    -0.103400     12.01100 ; qtot  0.131  CT  
     8 opls_135     1   MOL    C8    8     0.090000     12.01100 ; qtot  0.221  CT  
     9 opls_135     1   MOL    C9    9     0.090000     12.01100 ; qtot  0.311  CT  
    10 opls_135     1   MOL   C10   10    -0.015300     12.01100 ; qtot  0.296  CT  
    11 opls_237     1   MOL    N1   11    -0.459800     14.00670 ; qtot -0.164  N   
    12 opls_236     1   MOL    O1   12    -0.609100     15.99940 ; qtot -0.773  O   
    13 opls_202     1   MOL    S1   13    -0.269700     32.06000 ; qtot -1.043  S   
    14 opls_140     1   MOL    H1   14     0.035033      1.00800 ; qtot -1.008  HC  
    15 opls_140     1   MOL    H2   15     0.035033      1.00800 ; qtot -0.973  HC  
    16 opls_140     1   MOL    H3   16     0.035033      1.00800 ; qtot -0.938  HC  
    17 opls_140     1   MOL    H4   17     0.036700      1.00800 ; qtot -0.901  HC  
    18 opls_140     1   MOL    H5   18     0.036700      1.00800 ; qtot -0.864  HC  
    19 opls_140     1   MOL    H6   19     0.036700      1.00800 ; qtot -0.828  HC  
    20 opls_140     1   MOL    H7   20     0.042367      1.00800 ; qtot -0.785  HC  
    21 opls_140     1   MOL    H8   21     0.042367      1.00800 ; qtot -0.743  HC  
    22 opls_140     1   MOL    H9   22     0.042367      1.00800 ; qtot -0.700  HC  
    23 opls_140     1   MOL   H10   23     0.040200      1.00800 ; qtot -0.660  HC  
    24 opls_140     1   MOL   H11   24     0.040200      1.00800 ; qtot -0.620  HC  
    25 opls_140     1   MOL   H12   25     0.050700      1.00800 ; qtot -0.569  HC  
    26 opls_140     1   MOL   H13   26     0.050700      1.00800 ; qtot -0.519  HC  
    27 opls_140     1   MOL   H14   27     0.051700      1.00800 ; qtot -0.467  HC  
    28 opls_140     1   MOL   H15   28     0.051700      1.00800 ; qtot -0.415  HC  
    29 opls_140     1   MOL   H16   29     0.059700      1.00800 ; qtot -0.356  HC  
    30 opls_140     1   MOL   H17   30     0.059700      1.00800 ; qtot -0.296  HC  
    31 opls_140     1   MOL   H18   31     0.058700      1.00800 ; qtot -0.237  HC  
    32 opls_140     1   MOL   H19   32     0.058700      1.00800 ; qtot -0.178  HC  
    33 opls_140     1   MOL   H20   33     0.089200      1.00800 ; qtot -0.089  HC  
    34 opls_140     1   MOL   H21   34     0.089200      1.00800 ; qtot -0.000  HC  

[ bonds ]
;   ai     aj funct   r             k
     1     11   1 ;    1.3967e-01    2.6565e+05 ;     C1 - N1          C - N     
     1     12   1 ;    1.2190e-01    4.9421e+05 ;     C1 - O1          C - O     
     1     13   1 ;    1.8104e-01    1.6708e+05 ;     C1 - S1          C - S     
     2      5   1 ;    1.5354e-01    1.9154e+05 ;     C2 - C5         CT - CT    
     2     14   1 ;    1.0962e-01    2.8891e+05 ;     C2 - H1         CT - HC    
     2     15   1 ;    1.0962e-01    2.8891e+05 ;     C2 - H2         CT - HC    
     2     16   1 ;    1.0962e-01    2.8891e+05 ;     C2 - H3         CT - HC    
     3      6   1 ;    1.5354e-01    1.9154e+05 ;     C3 - C6         CT - CT    
     3     17   1 ;    1.0962e-01    2.8891e+05 ;     C3 - H4         CT - HC    
     3     18   1 ;    1.0962e-01    2.8891e+05 ;     C3 - H5         CT - HC    
     3     19   1 ;    1.0962e-01    2.8891e+05 ;     C3 - H6         CT - HC    
     4      8   1 ;    1.5354e-01    1.9154e+05 ;     C4 - C8         CT - CT    
     4     20   1 ;    1.0962e-01    2.8891e+05 ;     C4 - H7         CT - HC    
     4     21   1 ;    1.0962e-01    2.8891e+05 ;     C4 - H8         CT - HC    
     4     22   1 ;    1.0962e-01    2.8891e+05 ;     C4 - H9         CT - HC    
     5      7   1 ;    1.5354e-01    1.9154e+05 ;     C5 - C7         CT - CT    
     5     23   1 ;    1.0962e-01    2.8891e+05 ;     C5 - H10        CT - HC    
     5     24   1 ;    1.0962e-01    2.8891e+05 ;     C5 - H11        CT - HC    
     6     10   1 ;    1.5354e-01    1.9154e+05 ;     C6 - C10        CT - CT    
     6     25   1 ;    1.0962e-01    2.8891e+05 ;     C6 - H12        CT - HC    
     6     26   1 ;    1.0962e-01    2.8891e+05 ;     C6 - H13        CT - HC    
     7      9   1 ;    1.5354e-01    1.9154e+05 ;     C7 - C9         CT - CT    
     7     27   1 ;    1.0962e-01    2.8891e+05 ;     C7 - H14        CT - HC    
     7     28   1 ;    1.0962e-01    2.8891e+05 ;     C7 - H15        CT - HC    
     8     11   1 ;    1.4643e-01    2.1293e+05 ;     C8 - N1         CT - N     
     8     29   1 ;    1.0969e-01    2.8804e+05 ;     C8 - H16        CT - HC    
     8     30   1 ;    1.0969e-01    2.8804e+05 ;     C8 - H17        CT - HC    
     9     11   1 ;    1.4643e-01    2.1293e+05 ;     C9 - N1         CT - N     
     9     31   1 ;    1.0969e-01    2.8804e+05 ;     C9 - H18        CT - HC    
     9     32   1 ;    1.0969e-01    2.8804e+05 ;     C9 - H19        CT - HC    
    10     13   1 ;    1.8407e-01    1.5459e+05 ;    C10 - S1         CT - S     
    10     33   1 ;    1.0969e-01    2.8804e+05 ;    C10 - H20        CT - HC    
    10     34   1 ;    1.0969e-01    2.8804e+05 ;    C10 - H21        CT - HC    

[ pairs ]
;   ai     aj    funct
     1      4      1 ;     C1 - C4    
     1      6      1 ;     C1 - C6    
     1      7      1 ;     C1 - C7    
     1     29      1 ;     C1 - H16   
     1     30      1 ;     C1 - H17   
     1     31      1 ;     C1 - H18   
     1     32      1 ;     C1 - H19   
     1     33      1 ;     C1 - H20   
     1     34      1 ;     C1 - H21   
     2      9      1 ;     C2 - C9    
     2     27      1 ;     C2 - H14   
     2     28      1 ;     C2 - H15   
     3     13      1 ;     C3 - S1    
     3     33      1 ;     C3 - H20   
     3     34      1 ;     C3 - H21   
     4      9      1 ;     C4 - C9    
     5     11      1 ;     C5 - N1    
     5     31      1 ;     C5 - H18   
     5     32      1 ;     C5 - H19   
     7      8      1 ;     C7 - C8    
     7     14      1 ;     C7 - H1    
     7     15      1 ;     C7 - H2    
     7     16      1 ;     C7 - H3    
     8     31      1 ;     C8 - H18   
     8     32      1 ;     C8 - H19   
     9     23      1 ;     C9 - H10   
     9     24      1 ;     C9 - H11   
     9     29      1 ;     C9 - H16   
     9     30      1 ;     C9 - H17   
    10     17      1 ;    C10 - H4    
    10     18      1 ;    C10 - H5    
    10     19      1 ;    C10 - H6    
    11     10      1 ;     N1 - C10   
    11     20      1 ;     N1 - H7    
    11     21      1 ;     N1 - H8    
    11     22      1 ;     N1 - H9    
    11     27      1 ;     N1 - H14   
    11     28      1 ;     N1 - H15   
    12      8      1 ;     O1 - C8    
    12      9      1 ;     O1 - C9    
    12     10      1 ;     O1 - C10   
    13      8      1 ;     S1 - C8    
    13      9      1 ;     S1 - C9    
    13     25      1 ;     S1 - H12   
    13     26      1 ;     S1 - H13   
    14     23      1 ;     H1 - H10   
    14     24      1 ;     H1 - H11   
    15     23      1 ;     H2 - H10   
    15     24      1 ;     H2 - H11   
    16     23      1 ;     H3 - H10   
    16     24      1 ;     H3 - H11   
    17     25      1 ;     H4 - H12   
    17     26      1 ;     H4 - H13   
    18     25      1 ;     H5 - H12   
    18     26      1 ;     H5 - H13   
    19     25      1 ;     H6 - H12   
    19     26      1 ;     H6 - H13   
    20     29      1 ;     H7 - H16   
    20     30      1 ;     H7 - H17   
    21     29      1 ;     H8 - H16   
    21     30      1 ;     H8 - H17   
    22     29      1 ;     H9 - H16   
    22     30      1 ;     H9 - H17   
    23     27      1 ;    H10 - H14   
    23     28      1 ;    H10 - H15   
    24     27      1 ;    H11 - H14   
    24     28      1 ;    H11 - H15   
    25     33      1 ;    H12 - H20   
    25     34      1 ;    H12 - H21   
    26     33      1 ;    H13 - H20   
    26     34      1 ;    H13 - H21   
    27     31      1 ;    H14 - H18   
    27     32      1 ;    H14 - H19   
    28     31      1 ;    H15 - H18   
    28     32      1 ;    H15 - H19   

[ angles ]
;   ai     aj     ak    funct   theta         cth
     1     11      8      1 ;    1.1883e+02    6.4634e+02 ;     C1 - N1   - C8        C -    N - CT  
     1     11      9      1 ;    1.1883e+02    6.4634e+02 ;     C1 - N1   - C9        C -    N - CT  
     1     13     10      1 ;    9.9120e+01    7.8383e+02 ;     C1 - S1   - C10       C -    S - CT  
     2      5      7      1 ;    1.1263e+02    5.0099e+02 ;     C2 - C5   - C7       CT -   CT - CT  
     2      5     23      1 ;    1.0968e+02    3.6208e+02 ;     C2 - C5   - H10      CT -   CT - HC  
     2      5     24      1 ;    1.0968e+02    3.6208e+02 ;     C2 - C5   - H11      CT -   CT - HC  
     3      6     10      1 ;    1.1263e+02    5.0099e+02 ;     C3 - C6   - C10      CT -   CT - CT  
     3      6     25      1 ;    1.0968e+02    3.6208e+02 ;     C3 - C6   - H12      CT -   CT - HC  
     3      6     26      1 ;    1.0968e+02    3.6208e+02 ;     C3 - C6   - H13      CT -   CT - HC  
     4      8     11      1 ;    1.1278e+02    5.4350e+02 ;     C4 - C8   - N1       CT -   CT - N   
     4      8     29      1 ;    1.0959e+02    3.6217e+02 ;     C4 - C8   - H16      CT -   CT - HC  
     4      8     30      1 ;    1.0959e+02    3.6217e+02 ;     C4 - C8   - H17      CT -   CT - HC  
     5      2     14      1 ;    1.0968e+02    3.6208e+02 ;     C5 - C2   - H1       CT -   CT - HC  
     5      2     15      1 ;    1.0968e+02    3.6208e+02 ;     C5 - C2   - H2       CT -   CT - HC  
     5      2     16      1 ;    1.0968e+02    3.6208e+02 ;     C5 - C2   - H3       CT -   CT - HC  
     5      7      9      1 ;    1.1263e+02    5.0099e+02 ;     C5 - C7   - C9       CT -   CT - CT  
     5      7     27      1 ;    1.0968e+02    3.6208e+02 ;     C5 - C7   - H14      CT -   CT - HC  
     5      7     28      1 ;    1.0968e+02    3.6208e+02 ;     C5 - C7   - H15      CT -   CT - HC  
     6      3     17      1 ;    1.0968e+02    3.6208e+02 ;     C6 - C3   - H4       CT -   CT - HC  
     6      3     18      1 ;    1.0968e+02    3.6208e+02 ;     C6 - C3   - H5       CT -   CT - HC  
     6      3     19      1 ;    1.0968e+02    3.6208e+02 ;     C6 - C3   - H6       CT -   CT - HC  
     6     10     13      1 ;    1.1018e+02    5.2651e+02 ;     C6 - C10  - S1       CT -   CT - S   
     6     10     33      1 ;    1.0959e+02    3.6217e+02 ;     C6 - C10  - H20      CT -   CT - HC  
     6     10     34      1 ;    1.0959e+02    3.6217e+02 ;     C6 - C10  - H21      CT -   CT - HC  
     7      5     23      1 ;    1.0968e+02    3.6208e+02 ;     C7 - C5   - H10      CT -   CT - HC  
     7      5     24      1 ;    1.0968e+02    3.6208e+02 ;     C7 - C5   - H11      CT -   CT - HC  
     7      9     11      1 ;    1.1278e+02    5.4350e+02 ;     C7 - C9   - N1       CT -   CT - N   
     7      9     31      1 ;    1.0959e+02    3.6217e+02 ;     C7 - C9   - H18      CT -   CT - HC  
     7      9     32      1 ;    1.0959e+02    3.6217e+02 ;     C7 - C9   - H19      CT -   CT - HC  
     8      4     20      1 ;    1.0968e+02    3.6208e+02 ;     C8 - C4   - H7       CT -   CT - HC  
     8      4     21      1 ;    1.0968e+02    3.6208e+02 ;     C8 - C4   - H8       CT -   CT - HC  
     8      4     22      1 ;    1.0968e+02    3.6208e+02 ;     C8 - C4   - H9       CT -   CT - HC  
     8     11      9      1 ;    1.1675e+02    6.3773e+02 ;     C8 - N1   - C9       CT -    N - CT  
     9      7     27      1 ;    1.0968e+02    3.6208e+02 ;     C9 - C7   - H14      CT -   CT - HC  
     9      7     28      1 ;    1.0968e+02    3.6208e+02 ;     C9 - C7   - H15      CT -   CT - HC  
    10      6     25      1 ;    1.0968e+02    3.6208e+02 ;    C10 - C6   - H12      CT -   CT - HC  
    10      6     26      1 ;    1.0968e+02    3.6208e+02 ;    C10 - C6   - H13      CT -   CT - HC  
    11      1     12      1 ;    1.2257e+02    7.2534e+02 ;     N1 - C1   - O1        N -    C - O   
    11      1     13      1 ;    1.1029e+02    5.7823e+02 ;     N1 - C1   - S1        N -    C - S   
    11      8     29      1 ;    1.0876e+02    4.0242e+02 ;     N1 - C8   - H16       N -   CT - HC  
    11      8     30      1 ;    1.0876e+02    4.0242e+02 ;     N1 - C8   - H17       N -   CT - HC  
    11      9     31      1 ;    1.0876e+02    4.0242e+02 ;     N1 - C9   - H18       N -   CT - HC  
    11      9     32      1 ;    1.0876e+02    4.0242e+02 ;     N1 - C9   - H19       N -   CT - HC  
    12      1     13      1 ;    1.2338e+02    6.3873e+02 ;     O1 - C1   - S1        O -    C - S   
    13     10     33      1 ;    1.0873e+02    3.5196e+02 ;     S1 - C10  - H20       S -   CT - HC  
    13     10     34      1 ;    1.0873e+02    3.5196e+02 ;     S1 - C10  - H21       S -   CT - HC  
    14      2     15      1 ;    1.0773e+02    2.9957e+02 ;     H1 - C2   - H2       HC -   CT - HC  
    14      2     16      1 ;    1.0773e+02    2.9957e+02 ;     H1 - C2   - H3       HC -   CT - HC  
    15      2     16      1 ;    1.0773e+02    2.9957e+02 ;     H2 - C2   - H3       HC -   CT - HC  
    17      3     18      1 ;    1.0773e+02    2.9957e+02 ;     H4 - C3   - H5       HC -   CT - HC  
    17      3     19      1 ;    1.0773e+02    2.9957e+02 ;     H4 - C3   - H6       HC -   CT - HC  
    18      3     19      1 ;    1.0773e+02    2.9957e+02 ;     H5 - C3   - H6       HC -   CT - HC  
    20      4     21      1 ;    1.0773e+02    2.9957e+02 ;     H7 - C4   - H8       HC -   CT - HC  
    20      4     22      1 ;    1.0773e+02    2.9957e+02 ;     H7 - C4   - H9       HC -   CT - HC  
    21      4     22      1 ;    1.0773e+02    2.9957e+02 ;     H8 - C4   - H9       HC -   CT - HC  
    23      5     24      1 ;    1.0773e+02    2.9957e+02 ;    H10 - C5   - H11      HC -   CT - HC  
    25      6     26      1 ;    1.0773e+02    2.9957e+02 ;    H12 - C6   - H13      HC -   CT - HC  
    27      7     28      1 ;    1.0773e+02    2.9957e+02 ;    H14 - C7   - H15      HC -   CT - HC  
    29      8     30      1 ;    1.0855e+02    2.9824e+02 ;    H16 - C8   - H17      HC -   CT - HC  
    31      9     32      1 ;    1.0855e+02    2.9824e+02 ;    H18 - C9   - H19      HC -   CT - HC  
    33     10     34      1 ;    1.0855e+02    2.9824e+02 ;    H20 - C10  - H21      HC -   CT - HC  

[ dihedrals ] ; propers
; for gromacs 4.5 or higher, using funct 9
;    i      j      k      l   func   phase     kd      pn
     1     11      8      4      9 ;     0.00   9.45584   1 ;     C1-    N1-    C8-    C4
     1     11      8      4      9 ;   180.00   0.12552   3 ;     C1-    N1-    C8-    C4
     1     11      8      4      9 ;   180.00   2.71960   4 ;     C1-    N1-    C8-    C4
     1     11      8     29      9 ;   180.00   0.00000   2 ;     C1-    N1-    C8-   H16
     1     11      8     30      9 ;   180.00   0.00000   2 ;     C1-    N1-    C8-   H17
     1     11      9      7      9 ;     0.00   9.45584   1 ;     C1-    N1-    C9-    C7
     1     11      9      7      9 ;   180.00   0.12552   3 ;     C1-    N1-    C9-    C7
     1     11      9      7      9 ;   180.00   2.71960   4 ;     C1-    N1-    C9-    C7
     1     11      9     31      9 ;   180.00   0.00000   2 ;     C1-    N1-    C9-   H18
     1     11      9     32      9 ;   180.00   0.00000   2 ;     C1-    N1-    C9-   H19
     1     13     10      6      9 ;     0.00   1.39467   3 ;     C1-    S1-   C10-    C6
     1     13     10     33      9 ;     0.00   1.39467   3 ;     C1-    S1-   C10-   H20
     1     13     10     34      9 ;     0.00   1.39467   3 ;     C1-    S1-   C10-   H21
     2      5      7      9      9 ;     0.00   2.17568   3 ;     C2-    C5-    C7-    C9
     2      5      7     27      9 ;     0.00   0.54392   3 ;     C2-    C5-    C7-   H14
     2      5      7     28      9 ;     0.00   0.54392   3 ;     C2-    C5-    C7-   H15
     3      6     10     13      9 ;     0.00   0.65084   3 ;     C3-    C6-   C10-    S1
     3      6     10     33      9 ;     0.00   0.65084   3 ;     C3-    C6-   C10-   H20
     3      6     10     34      9 ;     0.00   0.65084   3 ;     C3-    C6-   C10-   H21
     4      8     11      9      9 ;     0.00   0.00000   0 ;     C4-    C8-    N1-    C9
     5      7      9     11      9 ;     0.00   0.41840   3 ;     C5-    C7-    C9-    N1
     5      7      9     31      9 ;     0.00   0.65084   3 ;     C5-    C7-    C9-   H18
     5      7      9     32      9 ;     0.00   0.65084   3 ;     C5-    C7-    C9-   H19
     7      5      2     14      9 ;     0.00   0.54392   3 ;     C7-    C5-    C2-    H1
     7      5      2     15      9 ;     0.00   0.54392   3 ;     C7-    C5-    C2-    H2
     7      5      2     16      9 ;     0.00   0.54392   3 ;     C7-    C5-    C2-    H3
     7      9     11      8      9 ;     0.00   0.00000   0 ;     C7-    C9-    N1-    C8
     8     11      9     31      9 ;     0.00   0.00000   0 ;     C8-    N1-    C9-   H18
     8     11      9     32      9 ;     0.00   0.00000   0 ;     C8-    N1-    C9-   H19
     9      7      5     23      9 ;     0.00   0.54392   3 ;     C9-    C7-    C5-   H10
     9      7      5     24      9 ;     0.00   0.54392   3 ;     C9-    C7-    C5-   H11
     9     11      8     29      9 ;     0.00   0.00000   0 ;     C9-    N1-    C8-   H16
     9     11      8     30      9 ;     0.00   0.00000   0 ;     C9-    N1-    C8-   H17
    10      6      3     17      9 ;     0.00   0.54392   3 ;    C10-    C6-    C3-    H4
    10      6      3     18      9 ;     0.00   0.54392   3 ;    C10-    C6-    C3-    H5
    10      6      3     19      9 ;     0.00   0.54392   3 ;    C10-    C6-    C3-    H6
    11      1     13     10      9 ;   180.00  12.97040   2 ;     N1-    C1-    S1-   C10
    11      8      4     20      9 ;     0.00   0.65084   3 ;     N1-    C8-    C4-    H7
    11      8      4     21      9 ;     0.00   0.65084   3 ;     N1-    C8-    C4-    H8
    11      8      4     22      9 ;     0.00   0.65084   3 ;     N1-    C8-    C4-    H9
    11      9      7     27      9 ;     0.00   0.65084   3 ;     N1-    C9-    C7-   H14
    11      9      7     28      9 ;     0.00   0.65084   3 ;     N1-    C9-    C7-   H15
    12      1     11      8      9 ;   180.00  10.46000   2 ;     O1-    C1-    N1-    C8
    12      1     11      9      9 ;   180.00  10.46000   2 ;     O1-    C1-    N1-    C9
    12      1     13     10      9 ;   180.00  12.97040   2 ;     O1-    C1-    S1-   C10
    13      1     11      8      9 ;   180.00  10.46000   2 ;     S1-    C1-    N1-    C8
    13      1     11      9      9 ;   180.00  10.46000   2 ;     S1-    C1-    N1-    C9
    13     10      6     25      9 ;     0.00   0.65084   3 ;     S1-   C10-    C6-   H12
    13     10      6     26      9 ;     0.00   0.65084   3 ;     S1-   C10-    C6-   H13
    14      2      5     23      9 ;     0.00   0.50208   3 ;     H1-    C2-    C5-   H10
    14      2      5     24      9 ;     0.00   0.50208   3 ;     H1-    C2-    C5-   H11
    15      2      5     23      9 ;     0.00   0.50208   3 ;     H2-    C2-    C5-   H10
    15      2      5     24      9 ;     0.00   0.50208   3 ;     H2-    C2-    C5-   H11
    16      2      5     23      9 ;     0.00   0.50208   3 ;     H3-    C2-    C5-   H10
    16      2      5     24      9 ;     0.00   0.50208   3 ;     H3-    C2-    C5-   H11
    17      3      6     25      9 ;     0.00   0.50208   3 ;     H4-    C3-    C6-   H12
    17      3      6     26      9 ;     0.00   0.50208   3 ;     H4-    C3-    C6-   H13
    18      3      6     25      9 ;     0.00   0.50208   3 ;     H5-    C3-    C6-   H12
    18      3      6     26      9 ;     0.00   0.50208   3 ;     H5-    C3-    C6-   H13
    19      3      6     25      9 ;     0.00   0.50208   3 ;     H6-    C3-    C6-   H12
    19      3      6     26      9 ;     0.00   0.50208   3 ;     H6-    C3-    C6-   H13
    20      4      8     29      9 ;     0.00   0.65084   3 ;     H7-    C4-    C8-   H16
    20      4      8     30      9 ;     0.00   0.65084   3 ;     H7-    C4-    C8-   H17
    21      4      8     29      9 ;     0.00   0.65084   3 ;     H8-    C4-    C8-   H16
    21      4      8     30      9 ;     0.00   0.65084   3 ;     H8-    C4-    C8-   H17
    22      4      8     29      9 ;     0.00   0.65084   3 ;     H9-    C4-    C8-   H16
    22      4      8     30      9 ;     0.00   0.65084   3 ;     H9-    C4-    C8-   H17
    23      5      7     27      9 ;     0.00   0.50208   3 ;    H10-    C5-    C7-   H14
    23      5      7     28      9 ;     0.00   0.50208   3 ;    H10-    C5-    C7-   H15
    24      5      7     27      9 ;     0.00   0.50208   3 ;    H11-    C5-    C7-   H14
    24      5      7     28      9 ;     0.00   0.50208   3 ;    H11-    C5-    C7-   H15
    25      6     10     33      9 ;     0.00   0.65084   3 ;    H12-    C6-   C10-   H20
    25      6     10     34      9 ;     0.00   0.65084   3 ;    H12-    C6-   C10-   H21
    26      6     10     33      9 ;     0.00   0.65084   3 ;    H13-    C6-   C10-   H20
    26      6     10     34      9 ;     0.00   0.65084   3 ;    H13-    C6-   C10-   H21
    27      7      9     31      9 ;     0.00   0.65084   3 ;    H14-    C7-    C9-   H18
    27      7      9     32      9 ;     0.00   0.65084   3 ;    H14-    C7-    C9-   H19
    28      7      9     31      9 ;     0.00   0.65084   3 ;    H15-    C7-    C9-   H18
    28      7      9     32      9 ;     0.00   0.65084   3 ;    H15-    C7-    C9-   H19

[ dihedrals ] ; impropers
; treated as propers in GROMACS to use correct AMBER analytical function
;    i      j      k      l   func   phase     kd      pn
     1      8     11      9      4 ;   180.00   4.60240   2 ;     C1-    C8-    N1-    C9
    13      1     12     11      4 ;   180.00   4.60240   2 ;     S1-    C1-    O1-    N1
