%VERSION  VERSION_STAMP = V0001.000  DATE = 05/21/26  00:02:30                  
%FLAG TITLE                                                                     
%FORMAT(20a4)                                                                   
CUP08044_AM1BCC_v1_0                                                            
%FLAG POINTERS                                                                  
%FORMAT(10I8)                                                                   
      34       7      21      12      48      13      61      20       0       0
     172       1      12      13      20       8      15      14       7       0
       0       0       0       0       0       0       0       0      34       0
       0
%FLAG ATOM_NAME                                                                 
%FORMAT(20a4)                                                                   
C1  C2  C3  C4  C5  C6  C7  C8  C9  C10 N1  O1  S1  H1  H2  H3  H4  H5  H6  H7  
H8  H9  H10 H11 H12 H13 H14 H15 H16 H17 H18 H19 H20 H21 
%FLAG CHARGE                                                                    
%FORMAT(5E16.8)                                                                 
  1.25314757E+01 -1.67827383E+00 -1.71471843E+00 -2.04271983E+00 -1.42862832E+00
 -1.33751682E+00 -1.88418582E+00  1.64000700E+00  1.64000700E+00 -2.78801190E-01
 -8.37861354E+00 -1.10992029E+01 -4.91455431E+00  6.38381836E-01  6.38381836E-01
  6.38381836E-01  6.68758410E-01  6.68758410E-01  6.68758410E-01  7.72024184E-01
  7.72024184E-01  7.72024184E-01  7.32536460E-01  7.32536460E-01  9.23870610E-01
  9.23870610E-01  9.42092910E-01  9.42092910E-01  1.08787131E+00  1.08787131E+00
  1.06964901E+00  1.06964901E+00  1.62542916E+00  1.62542916E+00
%FLAG ATOMIC_NUMBER                                                             
%FORMAT(10I8)                                                                   
       6       6       6       6       6       6       6       6       6       6
       7       8      16       1       1       1       1       1       1       1
       1       1       1       1       1       1       1       1       1       1
       1       1       1       1
%FLAG MASS                                                                      
%FORMAT(5E16.8)                                                                 
  1.20100000E+01  1.20100000E+01  1.20100000E+01  1.20100000E+01  1.20100000E+01
  1.20100000E+01  1.20100000E+01  1.20100000E+01  1.20100000E+01  1.20100000E+01
  1.40100000E+01  1.60000000E+01  3.20600000E+01  1.00800000E+00  1.00800000E+00
  1.00800000E+00  1.00800000E+00  1.00800000E+00  1.00800000E+00  1.00800000E+00
  1.00800000E+00  1.00800000E+00  1.00800000E+00  1.00800000E+00  1.00800000E+00
  1.00800000E+00  1.00800000E+00  1.00800000E+00  1.00800000E+00  1.00800000E+00
  1.00800000E+00  1.00800000E+00  1.00800000E+00  1.00800000E+00
%FLAG ATOM_TYPE_INDEX                                                           
%FORMAT(10I8)                                                                   
       1       2       2       2       2       2       2       2       2       2
       3       4       5       6       6       6       6       6       6       6
       6       6       6       6       6       6       6       6       7       7
       7       7       7       7
%FLAG NUMBER_EXCLUDED_ATOMS                                                     
%FORMAT(10I8)                                                                   
      15      10      10       8      12       9      12      11      11      10
      11       1       4       4       3       2       4       3       2       4
       3       2       3       2       3       2       3       2       1       1
       1       1       1       1
%FLAG NONBONDED_PARM_INDEX                                                      
%FORMAT(10I8)                                                                   
       1       2       4       7      11      16      22       2       3       5
       8      12      17      23       4       5       6       9      13      18
      24       7       8       9      10      14      19      25      11      12
      13      14      15      20      26      16      17      18      19      20
      21      27      22      23      24      25      26      27      28
%FLAG RESIDUE_LABEL                                                             
%FORMAT(20a4)                                                                   
MOL 
%FLAG RESIDUE_POINTER                                                           
%FORMAT(10I8)                                                                   
       1
%FLAG BOND_FORCE_CONSTANT                                                       
%FORMAT(5E16.8)                                                                 
  3.17460000E+02  5.90600000E+02  1.99660000E+02  2.28890000E+02  3.45250000E+02
  2.54460000E+02  3.44220000E+02  1.84740000E+02
%FLAG BOND_EQUIL_VALUE                                                          
%FORMAT(5E16.8)                                                                 
  1.39670000E+00  1.21900000E+00  1.81040000E+00  1.53540000E+00  1.09620000E+00
  1.46430000E+00  1.09690000E+00  1.84070000E+00
%FLAG ANGLE_FORCE_CONSTANT                                                      
%FORMAT(5E16.8)                                                                 
  7.72400000E+01  9.36700000E+01  5.98700000E+01  4.32700000E+01  6.49500000E+01
  4.32800000E+01  6.29200000E+01  7.62100000E+01  8.66800000E+01  6.91000000E+01
  4.80900000E+01  7.63300000E+01  4.20600000E+01  3.58000000E+01  3.56400000E+01
%FLAG ANGLE_EQUIL_VALUE                                                         
%FORMAT(5E16.8)                                                                 
  2.07397564E+00  1.72997110E+00  1.96576518E+00  1.91427794E+00  1.96838317E+00
  1.91270715E+00  1.92300459E+00  2.03767278E+00  2.13925098E+00  1.92492446E+00
  1.89822091E+00  2.15338815E+00  1.89769731E+00  1.88024401E+00  1.89455572E+00
%FLAG DIHEDRAL_FORCE_CONSTANT                                                   
%FORMAT(5E16.8)                                                                 
  2.26000000E+00  3.00000000E-02  6.50000000E-01  0.00000000E+00  3.33333333E-01
  5.20000000E-01  1.30000000E-01  1.55555556E-01  0.00000000E+00  1.00000000E-01
  2.50000000E+00  3.10000000E+00  1.20000000E-01  1.10000000E+00
%FLAG DIHEDRAL_PERIODICITY                                                      
%FORMAT(5E16.8)                                                                 
  1.00000000E+00  3.00000000E+00  4.00000000E+00  2.00000000E+00  3.00000000E+00
  3.00000000E+00  3.00000000E+00  3.00000000E+00  2.00000000E+00  3.00000000E+00
  2.00000000E+00  2.00000000E+00  3.00000000E+00  2.00000000E+00
%FLAG DIHEDRAL_PHASE                                                            
%FORMAT(5E16.8)                                                                 
  0.00000000E+00  3.14159400E+00  3.14159400E+00  3.14159400E+00  0.00000000E+00
  0.00000000E+00  0.00000000E+00  0.00000000E+00  0.00000000E+00  0.00000000E+00
  3.14159400E+00  3.14159400E+00  0.00000000E+00  3.14159400E+00
%FLAG SCEE_SCALE_FACTOR                                                         
%FORMAT(5E16.8)                                                                 
  1.20000000E+00  1.20000000E+00  1.20000000E+00  1.20000000E+00  1.20000000E+00
  1.20000000E+00  1.20000000E+00  1.20000000E+00  1.20000000E+00  1.20000000E+00
  1.20000000E+00  1.20000000E+00  1.20000000E+00  0.00000000E+00
%FLAG SCNB_SCALE_FACTOR                                                         
%FORMAT(5E16.8)                                                                 
  2.00000000E+00  2.00000000E+00  2.00000000E+00  2.00000000E+00  2.00000000E+00
  2.00000000E+00  2.00000000E+00  2.00000000E+00  2.00000000E+00  2.00000000E+00
  2.00000000E+00  2.00000000E+00  2.00000000E+00  0.00000000E+00
%FLAG SOLTY                                                                     
%FORMAT(5E16.8)                                                                 
  0.00000000E+00  0.00000000E+00  0.00000000E+00  0.00000000E+00  0.00000000E+00
  0.00000000E+00  0.00000000E+00
%FLAG LENNARD_JONES_ACOEF                                                       
%FORMAT(5E16.8)                                                                 
  6.96551276E+05  8.43969952E+05  1.02073671E+06  7.01106848E+05  8.52084164E+05
  7.02078680E+05  5.17507491E+05  6.30925504E+05  5.15491878E+05  3.76435470E+05
  1.73376823E+06  2.09089895E+06  1.75889445E+06  1.30884564E+06  4.26366419E+06
  8.12662403E+04  1.00235148E+05  7.93773615E+04  5.68021765E+04  2.11783234E+05
  7.94617769E+03  5.63013422E+04  6.97998263E+04  5.45183252E+04  3.86646725E+04
  1.48672098E+05  5.22955465E+03  3.39005767E+03
%FLAG LENNARD_JONES_BCOEF                                                       
%FORMAT(5E16.8)                                                                 
  5.24668528E+02  5.90251928E+02  6.63431737E+02  5.97113873E+02  6.72777963E+02
  6.77820248E+02  4.98871431E+02  5.62969425E+02  5.64804067E+02  4.69350655E+02
  1.07629402E+03  1.20800124E+03  1.22973599E+03  1.03157656E+03  2.19459223E+03
  1.21392023E+02  1.37787728E+02  1.36094315E+02  1.11953944E+02  2.54804909E+02
  2.57122925E+01  1.01040256E+02  1.14981426E+02  1.12788003E+02  9.23664132E+01
  2.13489607E+02  2.08590256E+01  1.67944276E+01
%FLAG BONDS_INC_HYDROGEN                                                        
%FORMAT(10I8)                                                                   
       3      39       5       3      42       5       3      45       5       6
      48       5       6      51       5       6      54       5       9      57
       5       9      60       5       9      63       5      12      66       5
      12      69       5      15      72       5      15      75       5      18
      78       5      18      81       5      21      84       7      21      87
       7      24      90       7      24      93       7      27      96       7
      27      99       7
%FLAG BONDS_WITHOUT_HYDROGEN                                                    
%FORMAT(10I8)                                                                   
       0      30       1       0      33       2       0      36       3       3
      12       4       6      15       4       9      21       4      12      18
       4      15      27       4      18      24       4      21      30       6
      24      30       6      27      36       8
%FLAG ANGLES_INC_HYDROGEN                                                       
%FORMAT(10I8)                                                                   
       3      12      66       4       3      12      69       4       6      15
      72       4       6      15      75       4       9      21      84       6
       9      21      87       6      12       3      39       4      12       3
      42       4      12       3      45       4      12      18      78       4
      12      18      81       4      15       6      48       4      15       6
      51       4      15       6      54       4      15      27      96       6
      15      27      99       6      18      12      66       4      18      12
      69       4      18      24      90       6      18      24      93       6
      21       9      57       4      21       9      60       4      21       9
      63       4      24      18      78       4      24      18      81       4
      27      15      72       4      27      15      75       4      30      21
      84      11      30      21      87      11      30      24      90      11
      30      24      93      11      36      27      96      13      36      27
      99      13      39       3      42      14      39       3      45      14
      42       3      45      14      48       6      51      14      48       6
      54      14      51       6      54      14      57       9      60      14
      57       9      63      14      60       9      63      14      66      12
      69      14      72      15      75      14      78      18      81      14
      84      21      87      15      90      24      93      15      96      27
      99      15
%FLAG ANGLES_WITHOUT_HYDROGEN                                                   
%FORMAT(10I8)                                                                   
       0      30      21       1       0      30      24       1       0      36
      27       2       3      12      18       3       6      15      27       3
       9      21      30       5      12      18      24       3      15      27
      36       7      18      24      30       5      21      30      24       8
      30       0      33       9      30       0      36      10      33       0
      36      12
%FLAG DIHEDRALS_INC_HYDROGEN                                                    
%FORMAT(10I8)                                                                   
       0      30      21      84       4       0      30      21      87       4
       0      30      24      90       4       0      30      24      93       4
       0      36      27      96       5       0      36      27      99       5
       3      12      18      78       7       3      12      18      81       7
       6      15      27      96       8       6      15      27      99       8
      12      18      24      90       8      12      18      24      93       8
      18      12       3      39       7      18      12       3      42       7
      18      12       3      45       7      21      30      24      90       9
      21      30      24      93       9      24      18      12      66       7
      24      18      12      69       7      24      30      21      84       9
      24      30      21      87       9      27      15       6      48       7
      27      15       6      51       7      27      15       6      54       7
      30      21       9      57       8      30      21       9      60       8
      30      21       9      63       8      30      24      18      78       8
      30      24      18      81       8      36      27      15      72       8
      36      27      15      75       8      39       3      12      66      13
      39       3      12      69      13      42       3      12      66      13
      42       3      12      69      13      45       3      12      66      13
      45       3      12      69      13      48       6      15      72      13
      48       6      15      75      13      51       6      15      72      13
      51       6      15      75      13      54       6      15      72      13
      54       6      15      75      13      57       9      21      84       8
      57       9      21      87       8      60       9      21      84       8
      60       9      21      87       8      63       9      21      84       8
      63       9      21      87       8      66      12      18      78      13
      66      12      18      81      13      69      12      18      78      13
      69      12      18      81      13      72      15      27      96       8
      72      15      27      99       8      75      15      27      96       8
      75      15      27      99       8      78      18      24      90       8
      78      18      24      93       8      81      18      24      90       8
      81      18      24      93       8
%FLAG DIHEDRALS_WITHOUT_HYDROGEN                                                
%FORMAT(10I8)                                                                   
       0      30      21       9       1       0      30     -21       9       2
       0      30     -21       9       3       0      30      24      18       1
       0      30     -24      18       2       0      30     -24      18       3
       0      36      27      15       5       3      12      18      24       6
       6      15      27      36       8       9      21      30      24       9
      12      18      24      30      10      18      24      30      21       9
      33       0      30      21      11      36       0      30      21      11
      33       0      30      24      11      36       0      30      24      11
      30       0      36      27      12      33       0      36      27      12
      36       0     -33     -30      14       0      21     -30     -24      14
%FLAG EXCLUDED_ATOMS_LIST                                                       
%FORMAT(10I8)                                                                   
       4       6       7       8       9      10      11      12      13      29
      30      31      32      33      34       5       7       9      14      15
      16      23      24      27      28       6      10      13      17      18
      19      25      26      33      34       8       9      11      20      21
      22      29      30       7       9      11      14      15      16      23
      24      27      28      31      32      10      13      17      18      19
      25      26      33      34       8       9      11      14      15      16
      23      24      27      28      31      32       9      11      12      13
      20      21      22      29      30      31      32      11      12      13
      23      24      27      28      29      30      31      32      11      12
      13      17      18      19      25      26      33      34      12      13
      20      21      22      27      28      29      30      31      32      13
      25      26      33      34      15      16      23      24      16      23
      24      23      24      18      19      25      26      19      25      26
      25      26      21      22      29      30      22      29      30      29
      30      24      27      28      27      28      26      33      34      33
      34      28      31      32      31      32      30       0      32       0
      34       0
%FLAG HBOND_ACOEF                                                               
%FORMAT(5E16.8)                                                                 

%FLAG HBOND_BCOEF                                                               
%FORMAT(5E16.8)                                                                 

%FLAG HBCUT                                                                     
%FORMAT(5E16.8)                                                                 

%FLAG AMBER_ATOM_TYPE                                                           
%FORMAT(20a4)                                                                   
c   c3  c3  c3  c3  c3  c3  c3  c3  c3  n   o   ss  hc  hc  hc  hc  hc  hc  hc  
hc  hc  hc  hc  hc  hc  hc  hc  h1  h1  h1  h1  h1  h1  
%FLAG TREE_CHAIN_CLASSIFICATION                                                 
%FORMAT(20a4)                                                                   
BLA BLA BLA BLA BLA BLA BLA BLA BLA BLA BLA BLA BLA BLA BLA BLA BLA BLA BLA BLA 
BLA BLA BLA BLA BLA BLA BLA BLA BLA BLA BLA BLA BLA BLA 
%FLAG JOIN_ARRAY                                                                
%FORMAT(10I8)                                                                   
       0       0       0       0       0       0       0       0       0       0
       0       0       0       0       0       0       0       0       0       0
       0       0       0       0       0       0       0       0       0       0
       0       0       0       0
%FLAG IROTAT                                                                    
%FORMAT(10I8)                                                                   
       0       0       0       0       0       0       0       0       0       0
       0       0       0       0       0       0       0       0       0       0
       0       0       0       0       0       0       0       0       0       0
       0       0       0       0
%FLAG RADIUS_SET                                                                
%FORMAT(1a80)                                                                   
modified Bondi radii (mbondi)                                                   
%FLAG RADII                                                                     
%FORMAT(5E16.8)                                                                 
  1.70000000E+00  1.70000000E+00  1.70000000E+00  1.70000000E+00  1.70000000E+00
  1.70000000E+00  1.70000000E+00  1.70000000E+00  1.70000000E+00  1.70000000E+00
  1.55000000E+00  1.50000000E+00  1.80000000E+00  1.30000000E+00  1.30000000E+00
  1.30000000E+00  1.30000000E+00  1.30000000E+00  1.30000000E+00  1.30000000E+00
  1.30000000E+00  1.30000000E+00  1.30000000E+00  1.30000000E+00  1.30000000E+00
  1.30000000E+00  1.30000000E+00  1.30000000E+00  1.30000000E+00  1.30000000E+00
  1.30000000E+00  1.30000000E+00  1.30000000E+00  1.30000000E+00
%FLAG SCREEN                                                                    
%FORMAT(5E16.8)                                                                 
  7.20000000E-01  7.20000000E-01  7.20000000E-01  7.20000000E-01  7.20000000E-01
  7.20000000E-01  7.20000000E-01  7.20000000E-01  7.20000000E-01  7.20000000E-01
  7.90000000E-01  8.50000000E-01  9.60000000E-01  8.50000000E-01  8.50000000E-01
  8.50000000E-01  8.50000000E-01  8.50000000E-01  8.50000000E-01  8.50000000E-01
  8.50000000E-01  8.50000000E-01  8.50000000E-01  8.50000000E-01  8.50000000E-01
  8.50000000E-01  8.50000000E-01  8.50000000E-01  8.50000000E-01  8.50000000E-01
  8.50000000E-01  8.50000000E-01  8.50000000E-01  8.50000000E-01
%FLAG IPOL                                                                      
%FORMAT(1I8)                                                                    
       0
