; mobley_1352110_GMX_OPLS.top created by acpype (v: 2023.10.27) on Thu May 21 00:02:12 2026

; Include forcefield parameters
#include "ffoplsaa.itp"

; Include mobley_1352110_GMX.itp topology
#include "mobley_1352110_GMX.itp"

; Ligand position restraints
#ifdef POSRES_LIG
#include "posre_mobley_1352110.itp"
#endif

[ system ]
 mobley_1352110

[ molecules ]
; Compound        nmols
 mobley_1352110   1     
