mobley_1352110_GMX.gro created by acpype (v: 2023.10.27) on Thu May 21 00:02:12 2026
 34
    1  MOL   C1    1  -0.083  -0.145   0.260
    1  MOL   C2    2  -0.528   0.229   0.271
    1  MOL   C3    3  -0.038  -0.429   0.698
    1  MOL   C4    4   0.046  -0.014  -0.009
    1  MOL   C5    5  -0.376   0.228   0.269
    1  MOL   C6    6  -0.082  -0.294   0.644
    1  MOL   C7    7  -0.322   0.092   0.222
    1  MOL   C8    8  -0.094  -0.056   0.033
    1  MOL   C9    9  -0.169   0.091   0.220
    1  MOL  C10   10  -0.062  -0.287   0.493
    1  MOL   N1   11  -0.116  -0.039   0.176
    1  MOL   O1   12  -0.035  -0.250   0.219
    1  MOL   S1   13  -0.116  -0.124   0.432
    1  MOL   H1   14  -0.567   0.153   0.340
    1  MOL   H2   15  -0.564   0.327   0.305
    1  MOL   H3   16  -0.569   0.210   0.172
    1  MOL   H4   17  -0.096  -0.511   0.653
    1  MOL   H5   18   0.068  -0.448   0.678
    1  MOL   H6   19  -0.053  -0.433   0.807
    1  MOL   H7   20   0.064   0.092   0.014
    1  MOL   H8   21   0.122  -0.073   0.044
    1  MOL   H9   22   0.059  -0.028  -0.116
    1  MOL  H10   23  -0.340   0.307   0.202
    1  MOL  H11   24  -0.338   0.250   0.369
    1  MOL  H12   25  -0.024  -0.216   0.694
    1  MOL  H13   26  -0.187  -0.278   0.670
    1  MOL  H14   27  -0.359   0.013   0.288
    1  MOL  H15   28  -0.360   0.070   0.122
    1  MOL  H16   29  -0.110  -0.161   0.006
    1  MOL  H17   30  -0.169   0.002  -0.022
    1  MOL  H18   31  -0.129   0.118   0.318
    1  MOL  H19   32  -0.132   0.168   0.151
    1  MOL  H20   33   0.043  -0.302   0.468
    1  MOL  H21   34  -0.121  -0.365   0.444
   13.81200    16.74600    18.45800
