CUP08044_AM1BCC_v1_0
    34
  -0.8340000  -1.4540000   2.5990000  -5.2760000   2.2910000   2.7120000
  -0.3800000  -4.2950000   6.9830000   0.4580000  -0.1390000  -0.0860000
  -3.7560000   2.2750000   2.6880000  -0.8180000  -2.9420000   6.4400000
  -3.2180000   0.9230000   2.2230000  -0.9420000  -0.5610000   0.3300000
  -1.6880000   0.9140000   2.1970000  -0.6240000  -2.8670000   4.9280000
  -1.1580000  -0.3850000   1.7650000  -0.3520000  -2.5040000   2.1860000
  -1.1570000  -1.2420000   4.3160000  -5.6650000   1.5310000   3.3980000
  -5.6410000   3.2680000   3.0460000  -5.6870000   2.0970000   1.7160000
  -0.9620000  -5.1050000   6.5320000   0.6800000  -4.4760000   6.7760000
  -0.5260000  -4.3330000   8.0670000   0.6370000   0.9170000   0.1430000
   1.2190000  -0.7270000   0.4380000   0.5950000  -0.2840000  -1.1620000
  -3.3990000   3.0680000   2.0200000  -3.3780000   2.5020000   3.6920000
  -0.2350000  -2.1580000   6.9400000  -1.8720000  -2.7840000   6.6990000
  -3.5890000   0.1320000   2.8850000  -3.6040000   0.6970000   1.2220000
  -1.0950000  -1.6130000   0.0620000  -1.6930000   0.0190000  -0.2180000
  -1.2880000   1.1760000   3.1820000  -1.3170000   1.6820000   1.5080000
   0.4320000  -3.0180000   4.6780000  -1.2130000  -3.6490000   4.4360000
