mobley_5952846_GMX.gro created by acpype (v: 2023.10.27) on Wed May 20 23:48:22 2026
    6
    1MOL     C1    1   2.198   2.154   2.221
    1MOL     C2    2   2.238   2.282   2.215
    1MOL    CL1    3   2.309   2.021   2.220
    1MOL    CL2    4   2.030   2.109   2.229
    1MOL    CL3    5   2.126   2.415   2.216
    1MOL    CL4    6   2.406   2.327   2.206
   4.43523   4.43523   4.43523
