mobley_2636578_GMX.gro created by acpype (v: 2023.10.27) on Thu May 21 00:00:15 2026
   17
    1MOL     C1    1   2.431   2.477   2.526
    1MOL     C2    2   2.430   2.573   2.408
    1MOL     C3    3   2.520   2.356   2.500
    1MOL     N1    4   2.339   2.781   2.335
    1MOL     N2    5   2.599   2.155   2.598
    1MOL     O1    6   2.406   2.750   2.236
    1MOL     O2    7   2.655   2.149   2.488
    1MOL     O3    8   2.269   2.880   2.355
    1MOL     O4    9   2.604   2.075   2.692
    1MOL     O5   10   2.347   2.684   2.439
    1MOL     O6   11   2.519   2.271   2.613
    1MOL     H1   12   2.465   2.530   2.616
    1MOL     H2   13   2.329   2.445   2.548
    1MOL     H3   14   2.531   2.610   2.387
    1MOL     H4   15   2.391   2.524   2.318
    1MOL     H5   16   2.623   2.387   2.482
    1MOL     H6   17   2.485   2.299   2.413
   4.93478   4.93478   4.93478
