mobley_2636578_GMX.gro created by acpype (v: 2023.10.27) on Thu May 21 00:00:15 2026
11822
    1MOL     C1    1   2.431   2.477   2.526
    1MOL     C2    2   2.430   2.573   2.408
    1MOL     C3    3   2.520   2.356   2.500
    1MOL     N1    4   2.339   2.781   2.335
    1MOL     N2    5   2.599   2.155   2.598
    1MOL     O1    6   2.406   2.750   2.236
    1MOL     O2    7   2.655   2.149   2.488
    1MOL     O3    8   2.269   2.880   2.355
    1MOL     O4    9   2.604   2.075   2.692
    1MOL     O5   10   2.347   2.684   2.439
    1MOL     O6   11   2.519   2.271   2.613
    1MOL     H1   12   2.465   2.530   2.616
    1MOL     H2   13   2.329   2.445   2.548
    1MOL     H3   14   2.531   2.610   2.387
    1MOL     H4   15   2.391   2.524   2.318
    1MOL     H5   16   2.623   2.387   2.482
    1MOL     H6   17   2.485   2.299   2.413
    2SOL     OW   18   0.230   0.628   0.113
    2SOL    HW1   19   0.137   0.626   0.150
    2SOL    HW2   20   0.231   0.589   0.021
    3SOL     OW   21   0.225   0.275   0.996
    3SOL    HW1   22   0.260   0.258   1.088
    3SOL    HW2   23   0.137   0.230   0.984
    4SOL     OW   24   0.019   0.368   0.647
    4SOL    HW1   25  -0.063   0.411   0.686
    4SOL    HW2   26  -0.009   0.295   0.584
    5SOL     OW   27   0.569   1.275   1.165
    5SOL    HW1   28   0.476   1.268   1.128
    5SOL    HW2   29   0.580   1.364   1.209
    6SOL     OW   30   1.555   1.511   0.703
    6SOL    HW1   31   1.498   1.495   0.784
    6SOL    HW2   32   1.496   1.521   0.623
    7SOL     OW   33   1.135   0.703   0.717
    7SOL    HW1   34   1.192   0.781   0.692
    7SOL    HW2   35   1.075   0.729   0.793
    8SOL     OW   36   1.755   0.607   0.231
    8SOL    HW1   37   1.743   0.594   0.132
    8SOL    HW2   38   1.725   0.526   0.280
    9SOL     OW   39   0.768   1.144   1.023
    9SOL    HW1   40   0.690   1.161   1.083
    9SOL    HW2   41   0.802   1.231   0.987
   10SOL     OW   42   0.850   0.798   1.823
   10SOL    HW1   43   0.846   0.874   1.888
   10SOL    HW2   44   0.872   0.834   1.732
   11SOL     OW   45   0.685   1.012   0.665
   11SOL    HW1   46   0.754   0.996   0.735
   11SOL    HW2   47   0.612   1.069   0.703
   12SOL     OW   48   0.686   1.161   1.803
   12SOL    HW1   49   0.746   1.240   1.817
   12SOL    HW2   50   0.600   1.192   1.762
   13SOL     OW   51   0.335   1.435   1.061
   13SOL    HW1   52   0.257   1.404   1.008
   13SOL    HW2   53   0.393   1.493   1.004
   14SOL     OW   54   1.460   1.505   1.339
   14SOL    HW1   55   1.484   1.599   1.365
   14SOL    HW2   56   1.444   1.451   1.421
   15SOL     OW   57   0.438   0.392   1.499
   15SOL    HW1   58   0.520   0.336   1.508
   15SOL    HW2   59   0.357   0.334   1.503
   16SOL     OW   60   1.603   0.447   0.737
   16SOL    HW1   61   1.529   0.493   0.687
   16SOL    HW2   62   1.654   0.515   0.790
   17SOL     OW   63   0.231   1.713   0.483
   17SOL    HW1   64   0.265   1.790   0.537
   17SOL    HW2   65   0.275   1.713   0.393
   18SOL     OW   66   1.127   1.341   1.690
   18SOL    HW1   67   1.174   1.341   1.778
   18SOL    HW2   68   1.079   1.254   1.679
   19SOL     OW   69   0.230   1.434   0.538
   19SOL    HW1   70   0.204   1.530   0.538
   19SOL    HW2   71   0.159   1.380   0.583
   20SOL     OW   72   0.240   1.091   0.886
   20SOL    HW1   73   0.254   1.007   0.938
   20SOL    HW2   74   0.185   1.155   0.941
   21SOL     OW   75   0.620   1.786   1.439
   21SOL    HW1   76   0.528   1.769   1.474
   21SOL    HW2   77   0.648   1.878   1.465
   22SOL     OW   78   0.606   0.964   0.123
   22SOL    HW1   79   0.613   1.048   0.069
   22SOL    HW2   80   0.652   0.977   0.211
   23SOL     OW   81   1.594   0.114   1.480
   23SOL    HW1   82   1.576   0.181   1.408
   23SOL    HW2   83   1.591   0.160   1.569
   24SOL     OW   84   0.122   0.643   0.563
   24SOL    HW1   85   0.077   0.555   0.580
   24SOL    HW2   86   0.121   0.697   0.647
   25SOL     OW   87   1.842   1.767   0.359
   25SOL    HW1   88   1.896   1.738   0.439
   25SOL    HW2   89   1.872   1.857   0.330
   26SOL     OW   90   0.027   1.596   0.117
   26SOL    HW1   91   0.008   1.500   0.138
   26SOL    HW2   92  -0.006   1.654   0.192
   27SOL     OW   93   1.689   0.922   0.612
   27SOL    HW1   94   1.784   0.893   0.620
   27SOL    HW2   95   1.681   0.987   0.537
   28SOL     OW   96   1.641   1.108   0.432
   28SOL    HW1   97   1.727   1.110   0.380
   28SOL    HW2   98   1.655   1.155   0.520
   29SOL     OW   99   0.113   0.737   1.597
   29SOL    HW1  100   0.201   0.724   1.642
   29SOL    HW2  101   0.100   0.834   1.575
   30SOL     OW  102   0.613   1.365   0.726
   30SOL    HW1  103   0.564   1.278   0.735
   30SOL    HW2  104   0.590   1.408   0.639
   31SOL     OW  105   1.293   1.228   1.423
   31SOL    HW1  106   1.330   1.155   1.365
   31SOL    HW2  107   1.345   1.233   1.508
   32SOL     OW  108   0.809   0.004   0.502
   32SOL    HW1  109   0.849   0.095   0.493
   32SOL    HW2  110   0.709   0.012   0.508
   33SOL     OW  111   0.197   0.976   1.264
   33SOL    HW1  112   0.286   0.931   1.250
   33SOL    HW2  113   0.124   0.911   1.245
   34SOL     OW  114   1.525   0.999   0.190
   34SOL    HW1  115   1.462   0.923   0.203
   34SOL    HW2  116   1.573   1.017   0.276
   35SOL     OW  117   1.187   1.792   1.616
   35SOL    HW1  118   1.211   1.852   1.540
   35SOL    HW2  119   1.194   1.697   1.586
   36SOL     OW  120   0.317   0.251   1.801
   36SOL    HW1  121   0.388   0.322   1.807
   36SOL    HW2  122   0.229   0.290   1.829
   37SOL     OW  123   1.466   1.417   0.953
   37SOL    HW1  124   1.407   1.423   1.033
   37SOL    HW2  125   1.451   1.329   0.907
   38SOL     OW  126   1.667   1.714   0.572
   38SOL    HW1  127   1.626   1.691   0.484
   38SOL    HW2  128   1.649   1.640   0.637
   39SOL     OW  129   0.598   0.729   0.270
   39SOL    HW1  130   0.622   0.798   0.202
   39SOL    HW2  131   0.520   0.762   0.324
   40SOL     OW  132   1.281   0.345   0.944
   40SOL    HW1  133   1.195   0.295   0.931
   40SOL    HW2  134   1.343   0.291   1.000
   41SOL     OW  135   1.576   1.662   0.307
   41SOL    HW1  136   1.665   1.708   0.310
   41SOL    HW2  137   1.555   1.638   0.212
   42SOL     OW  138   0.807   0.605   1.465
   42SOL    HW1  139   0.760   0.602   1.554
   42SOL    HW2  140   0.756   0.550   1.399
   43SOL     OW  141   1.394   0.469   1.674
   43SOL    HW1  142   1.374   0.512   1.762
   43SOL    HW2  143   1.472   0.407   1.683
   44SOL     OW  144   0.973   0.890   1.572
   44SOL    HW1  145   1.019   0.806   1.543
   44SOL    HW2  146   0.917   0.924   1.497
   45SOL     OW  147   0.991   0.410   1.242
   45SOL    HW1  148   0.914   0.444   1.296
   45SOL    HW2  149   0.957   0.359   1.163
   46SOL     OW  150   1.041   0.701   0.429
   46SOL    HW1  151   1.067   0.697   0.525
   46SOL    HW2  152   0.956   0.650   0.415
   47SOL     OW  153   0.076   0.811   0.789
   47SOL    HW1  154   0.175   0.799   0.798
   47SOL    HW2  155   0.052   0.906   0.810
   48SOL     OW  156   0.130   1.821   1.571
   48SOL    HW1  157   0.120   1.806   1.670
   48SOL    HW2  158   0.044   1.857   1.535
   49SOL     OW  159   0.865   0.348   0.195
   49SOL    HW1  160   0.924   0.411   0.146
   49SOL    HW2  161   0.884   0.254   0.166
   50SOL     OW  162   1.719   0.585   1.831
   50SOL    HW1  163   1.693   0.674   1.795
   50SOL    HW2  164   1.717   0.517   1.758
   51SOL     OW  165   1.362   1.144   0.545
   51SOL    HW1  166   1.445   1.115   0.497
   51SOL    HW2  167   1.313   1.211   0.489
   52SOL     OW  168   0.550   0.196   0.885
   52SOL    HW1  169   0.545   0.191   0.985
   52SOL    HW2  170   0.552   0.292   0.856
   53SOL     OW  171   1.008   1.456   0.477
   53SOL    HW1  172   0.962   1.528   0.425
   53SOL    HW2  173   1.004   1.476   0.575
   54SOL     OW  174   0.351   1.801   0.853
   54SOL    HW1  175   0.401   1.715   0.859
   54SOL    HW2  176   0.416   1.878   0.850
   55SOL     OW  177   1.795   1.066   0.873
   55SOL    HW1  178   1.733   1.051   0.797
   55SOL    HW2  179   1.743   1.077   0.958
   56SOL     OW  180   1.227   1.550   1.506
   56SOL    HW1  181   1.233   1.473   1.570
   56SOL    HW2  182   1.175   1.524   1.426
   57SOL     OW  183   0.321   0.943   0.242
   57SOL    HW1  184   0.403   0.982   0.200
   57SOL    HW2  185   0.294   0.861   0.193
   58SOL     OW  186   1.458   0.735   0.728
   58SOL    HW1  187   1.453   0.670   0.803
   58SOL    HW2  188   1.538   0.794   0.741
   59SOL     OW  189   0.461   1.266   1.727
   59SOL    HW1  190   0.411   1.267   1.641
   59SOL    HW2  191   0.398   1.248   1.803
   60SOL     OW  192   1.111   1.776   0.237
   60SOL    HW1  193   1.051   1.714   0.287
   60SOL    HW2  194   1.142   1.732   0.152
   61SOL     OW  195   0.202   0.285   1.498
   61SOL    HW1  196   0.122   0.345   1.485
   61SOL    HW2  197   0.192   0.236   1.584
   62SOL     OW  198   1.632   1.377   0.081
   62SOL    HW1  199   1.600   1.471   0.071
   62SOL    HW2  200   1.556   1.314   0.069
   63SOL     OW  201   0.464   1.743   0.323
   63SOL    HW1  202   0.497   1.782   0.409
   63SOL    HW2  203   0.540   1.736   0.258
   64SOL     OW  204   1.400   0.107   0.426
   64SOL    HW1  205   1.376   0.070   0.336
   64SOL    HW2  206   1.499   0.123   0.430
   65SOL     OW  207   0.249   1.785   1.241
   65SOL    HW1  208   0.306   1.720   1.291
   65SOL    HW2  209   0.233   1.752   1.148
   66SOL     OW  210   0.940   1.698   0.904
   66SOL    HW1  211   1.020   1.641   0.925
   66SOL    HW2  212   0.891   1.658   0.827
   67SOL     OW  213   0.382   0.700   0.480
   67SOL    HW1  214   0.427   0.610   0.477
   67SOL    HW2  215   0.288   0.689   0.513
   68SOL     OW  216   1.547   0.222   1.729
   68SOL    HW1  217   1.542   0.259   1.821
   68SOL    HW2  218   1.475   0.153   1.717
   69SOL     OW  219   0.614   0.122   0.117
   69SOL    HW1  220   0.712   0.100   0.124
   69SOL    HW2  221   0.583   0.105   0.024
   70SOL     OW  222   0.781   0.264   1.749
   70SOL    HW1  223   0.848   0.203   1.792
   70SOL    HW2  224   0.708   0.283   1.814
   71SOL     OW  225   0.888   1.514   1.195
   71SOL    HW1  226   0.865   1.489   1.101
   71SOL    HW2  227   0.949   1.445   1.234
   72SOL     OW  228   1.351   0.590   1.433
   72SOL    HW1  229   1.379   0.547   1.518
   72SOL    HW2  230   1.376   0.686   1.434
   73SOL     OW  231   0.803   1.402   0.924
   73SOL    HW1  232   0.893   1.416   0.882
   73SOL    HW2  233   0.732   1.404   0.853
   74SOL     OW  234   0.922   0.503   0.899
   74SOL    HW1  235   0.897   0.494   0.803
   74SOL    HW2  236   0.970   0.421   0.930
   75SOL     OW  237   0.539   0.064   0.512
   75SOL    HW1  238   0.458   0.065   0.570
   75SOL    HW2  239   0.542   0.147   0.457
   76SOL     OW  240   1.434   1.188   0.041
   76SOL    HW1  241   1.466   1.112   0.098
   76SOL    HW2  242   1.342   1.215   0.071
   77SOL     OW  243   0.297   0.035   0.171
   77SOL    HW1  244   0.346   0.119   0.150
   77SOL    HW2  245   0.359  -0.030   0.216
   78SOL     OW  246   0.935   0.236   0.480
   78SOL    HW1  247   0.887   0.277   0.402
   78SOL    HW2  248   1.034   0.234   0.461
   79SOL     OW  249   1.076   0.683   1.464
   79SOL    HW1  250   0.996   0.622   1.467
   79SOL    HW2  251   1.157   0.630   1.440
   80SOL     OW  252   1.227   1.570   0.793
   80SOL    HW1  253   1.248   1.644   0.728
   80SOL    HW2  254   1.295   1.570   0.866
   81SOL     OW  255   0.459   1.152   0.741
   81SOL    HW1  256   0.388   1.125   0.806
   81SOL    HW2  257   0.433   1.124   0.648
   82SOL     OW  258   1.271   1.797   0.591
   82SOL    HW1  259   1.315   1.861   0.527
   82SOL    HW2  260   1.221   1.849   0.661
   83SOL     OW  261   1.032   0.549   0.016
   83SOL    HW1  262   0.991   0.631  -0.023
   83SOL    HW2  263   1.096   0.575   0.089
   84SOL     OW  264   0.078   0.556   1.386
   84SOL    HW1  265   0.170   0.555   1.345
   84SOL    HW2  266   0.072   0.630   1.453
   85SOL     OW  267   0.561   0.222   1.147
   85SOL    HW1  268   0.599   0.138   1.184
   85SOL    HW2  269   0.473   0.241   1.191
   86SOL     OW  270   0.866   0.454   0.642
   86SOL    HW1  271   0.834   0.526   0.580
   86SOL    HW2  272   0.890   0.373   0.589
   87SOL     OW  273   1.017   0.039   0.753
   87SOL    HW1  274   0.945   0.044   0.684
   87SOL    HW2  275   0.993  -0.030   0.822
   88SOL     OW  276   1.429   1.173   0.867
   88SOL    HW1  277   1.374   1.089   0.860
   88SOL    HW2  278   1.455   1.202   0.775
   89SOL     OW  279   1.466   0.590   0.992
   89SOL    HW1  280   1.436   0.495   0.999
   89SOL    HW2  281   1.539   0.606   1.058
   90SOL     OW  282   1.857   0.833   0.377
   90SOL    HW1  283   1.899   0.769   0.441
   90SOL    HW2  284   1.819   0.782   0.299
   91SOL     OW  285   0.488   1.385   0.174
   91SOL    HW1  286   0.401   1.370   0.221
   91SOL    HW2  287   0.471   1.411   0.079
   92SOL     OW  288   1.664   1.280   0.657
   92SOL    HW1  289   1.763   1.288   0.671
   92SOL    HW2  290   1.619   1.364   0.688
   93SOL     OW  291   1.390   0.575   0.078
   93SOL    HW1  292   1.336   0.554   0.159
   93SOL    HW2  293   1.481   0.534   0.087
   94SOL     OW  294   0.527   0.256   0.328
   94SOL    HW1  295   0.554   0.197   0.253
   94SOL    HW2  296   0.527   0.351   0.297
   95SOL     OW  297   1.754   1.223   1.588
   95SOL    HW1  298   1.845   1.184   1.575
   95SOL    HW2  299   1.762   1.319   1.612
   96SOL     OW  300   1.064   1.347   1.340
   96SOL    HW1  301   0.984   1.324   1.395
   96SOL    HW2  302   1.147   1.321   1.389
   97SOL     OW  303   1.592   1.629   1.625
   97SOL    HW1  304   1.619   1.663   1.535
   97SOL    HW2  305   1.671   1.591   1.671
   98SOL     OW  306   1.111   1.195   1.100
   98SOL    HW1  307   1.071   1.239   1.181
   98SOL    HW2  308   1.070   1.232   1.017
   99SOL     OW  309   1.638   1.099   1.079
   99SOL    HW1  310   1.643   1.180   1.138
   99SOL    HW2  311   1.552   1.101   1.028
  100SOL     OW  312   0.915   0.089   1.402
  100SOL    HW1  313   0.940   0.069   1.307
  100SOL    HW2  314   0.987   0.145   1.444
  101SOL     OW  315   0.980   1.116   1.719
  101SOL    HW1  316   0.881   1.122   1.729
  101SOL    HW2  317   1.003   1.036   1.663
  102SOL     OW  318   0.705   1.050   0.368
  102SOL    HW1  319   0.691   1.057   0.467
  102SOL    HW2  320   0.789   0.999   0.350
  103SOL     OW  321   0.410   0.813   1.251
  103SOL    HW1  322   0.496   0.825   1.301
  103SOL    HW2  323   0.368   0.726   1.278
  104SOL     OW  324   1.274   0.386   1.262
  104SOL    HW1  325   1.295   0.460   1.326
  104SOL    HW2  326   1.185   0.403   1.219
  105SOL     OW  327   0.064   1.564   1.331
  105SOL    HW1  328   0.018   1.646   1.297
  105SOL    HW2  329   0.162   1.583   1.340
  106SOL     OW  330   0.367   1.100   0.501
  106SOL    HW1  331   0.360   1.183   0.445
  106SOL    HW2  332   0.371   1.020   0.441
  107SOL     OW  333   0.566   0.537   0.865
  107SOL    HW1  334   0.578   0.603   0.791
  107SOL    HW2  335   0.612   0.571   0.948
  108SOL     OW  336   1.252   1.348   0.388
  108SOL    HW1  337   1.302   1.425   0.428
  108SOL    HW2  338   1.157   1.350   0.420
  109SOL     OW  339   1.272   1.445   1.142
  109SOL    HW1  340   1.319   1.458   1.229
  109SOL    HW2  341   1.206   1.371   1.151
  110SOL     OW  342   1.582   0.639   0.472
  110SOL    HW1  343   1.551   0.700   0.545
  110SOL    HW2  344   1.632   0.691   0.403
  111SOL     OW  345   0.354   1.510   1.329
  111SOL    HW1  346   0.333   1.466   1.242
  111SOL    HW2  347   0.451   1.536   1.332
  112SOL     OW  348   0.402   0.751   1.598
  112SOL    HW1  349   0.470   0.806   1.551
  112SOL    HW2  350   0.442   0.663   1.625
  113SOL     OW  351   1.587   0.779   1.670
  113SOL    HW1  352   1.495   0.817   1.665
  113SOL    HW2  353   1.647   0.826   1.605
  114SOL     OW  354   1.013   0.105   1.770
  114SOL    HW1  355   1.019   0.190   1.718
  114SOL    HW2  356   1.045   0.029   1.713
  115SOL     OW  357   0.504   0.050   1.740
  115SOL    HW1  358   0.462  -0.007   1.670
  115SOL    HW2  359   0.438   0.119   1.772
  116SOL     OW  360   0.573   0.870   1.029
  116SOL    HW1  361   0.617   0.959   1.020
  116SOL    HW2  362   0.510   0.870   1.106
  117SOL     OW  363   1.360   0.862   1.045
  117SOL    HW1  364   1.285   0.862   0.979
  117SOL    HW2  365   1.397   0.770   1.054
  118SOL     OW  366   1.209   0.525   0.275
  118SOL    HW1  367   1.222   0.441   0.329
  118SOL    HW2  368   1.180   0.599   0.335
  119SOL     OW  369   0.307   0.213   1.231
  119SOL    HW1  370   0.284   0.250   1.321
  119SOL    HW2  371   0.277   0.118   1.225
  120SOL     OW  372   0.037   1.310   1.282
  120SOL    HW1  373   0.090   1.261   1.350
  120SOL    HW2  374   0.059   1.408   1.287
  121SOL     OW  375   0.732   0.634   1.064
  121SOL    HW1  376   0.791   0.608   0.988
  121SOL    HW2  377   0.704   0.730   1.053
  122SOL     OW  378   1.728   0.935   1.854
  122SOL    HW1  379   1.682   0.928   1.765
  122SOL    HW2  380   1.666   0.979   1.920
  123SOL     OW  381   0.307   0.063   0.618
  123SOL    HW1  382   0.296   0.157   0.651
  123SOL    HW2  383   0.302   0.000   0.695
  124SOL     OW  384   1.622   0.367   0.374
  124SOL    HW1  385   1.624   0.291   0.438
  124SOL    HW2  386   1.574   0.444   0.414
  125SOL     OW  387   1.023   0.766   0.966
  125SOL    HW1  388   1.038   0.787   1.062
  125SOL    HW2  389   0.993   0.671   0.957
  126SOL     OW  390   0.980   1.573   1.700
  126SOL    HW1  391   0.960   1.617   1.612
  126SOL    HW2  392   1.019   1.482   1.684
  127SOL     OW  393   1.859   1.518   1.605
  127SOL    HW1  394   1.873   1.545   1.510
  127SOL    HW2  395   1.942   1.540   1.658
  128SOL     OW  396   0.350   0.898   1.804
  128SOL    HW1  397   0.426   0.942   1.852
  128SOL    HW2  398   0.385   0.851   1.722
  129SOL     OW  399   1.540   0.274   0.125
  129SOL    HW1  400   1.479   0.199   0.148
  129SOL    HW2  401   1.562   0.326   0.208
  130SOL     OW  402   1.303   0.838   0.042
  130SOL    HW1  403   1.337   0.745   0.057
  130SOL    HW2  404   1.321   0.865  -0.053
  131SOL     OW  405   1.068   1.333   0.849
  131SOL    HW1  406   1.075   1.249   0.794
  131SOL    HW2  407   1.130   1.402   0.813
  132SOL     OW  408   0.319   0.810   0.949
  132SOL    HW1  409   0.412   0.846   0.954
  132SOL    HW2  410   0.313   0.725   1.001
  133SOL     OW  411   0.339   0.509   1.006
  133SOL    HW1  412   0.287   0.426   0.989
  133SOL    HW2  413   0.416   0.514   0.942
  134SOL     OW  414   1.138   0.380   1.678
  134SOL    HW1  415   1.093   0.443   1.742
  134SOL    HW2  416   1.231   0.411   1.661
  135SOL     OW  417   1.160   0.207   1.477
  135SOL    HW1  418   1.160   0.271   1.554
  135SOL    HW2  419   1.188   0.255   1.394
  136SOL     OW  420   0.008   1.326   0.200
  136SOL    HW1  421  -0.085   1.347   0.169
  136SOL    HW2  422   0.018   1.227   0.213
  137SOL     OW  423   0.088   1.801   0.927
  137SOL    HW1  424   0.046   1.715   0.900
  137SOL    HW2  425   0.182   1.804   0.893
  138SOL     OW  426   0.504   1.568   0.910
  138SOL    HW1  427   0.570   1.642   0.919
  138SOL    HW2  428   0.548   1.489   0.868
  139SOL     OW  429   1.002   0.796   1.238
  139SOL    HW1  430   1.043   0.764   1.324
  139SOL    HW2  431   0.906   0.769   1.235
  140SOL     OW  432   0.040   0.544   1.114
  140SOL    HW1  433   0.125   0.511   1.073
  140SOL    HW2  434   0.053   0.559   1.212
  141SOL     OW  435   0.189   0.520   1.722
  141SOL    HW1  436   0.248   0.480   1.652
  141SOL    HW2  437   0.131   0.591   1.681
  142SOL     OW  438   1.369   0.950   1.660
  142SOL    HW1  439   1.408   1.039   1.680
  142SOL    HW2  440   1.379   0.930   1.563
  143SOL     OW  441   0.815   0.572   0.325
  143SOL    HW1  442   0.822   0.483   0.279
  143SOL    HW2  443   0.721   0.606   0.317
  144SOL     OW  444   1.657   0.604   1.206
  144SOL    HW1  445   1.619   0.535   1.268
  144SOL    HW2  446   1.739   0.568   1.162
  145SOL     OW  447   0.252   1.564   1.744
  145SOL    HW1  448   0.222   1.621   1.820
  145SOL    HW2  449   0.245   1.467   1.770
  146SOL     OW  450   0.671   0.464   1.269
  146SOL    HW1  451   0.637   0.375   1.239
  146SOL    HW2  452   0.697   0.518   1.189
  147SOL     OW  453   0.930   1.678   1.465
  147SOL    HW1  454   0.906   1.660   1.370
  147SOL    HW2  455   0.960   1.772   1.475
  148SOL     OW  456   0.473   0.500   0.191
  148SOL    HW1  457   0.534   0.580   0.195
  148SOL    HW2  458   0.378   0.531   0.198
  149SOL     OW  459   0.159   1.137   1.466
  149SOL    HW1  460   0.181   1.076   1.542
  149SOL    HW2  461   0.169   1.088   1.380
  150SOL     OW  462   1.347   1.059   1.234
  150SOL    HW1  463   1.371   0.996   1.160
  150SOL    HW2  464   1.257   1.099   1.216
  151SOL     OW  465   1.302   0.855   0.309
  151SOL    HW1  466   1.216   0.824   0.351
  151SOL    HW2  467   1.298   0.841   0.210
  152SOL     OW  468   1.759   1.747   1.154
  152SOL    HW1  469   1.820   1.777   1.081
  152SOL    HW2  470   1.721   1.658   1.132
  153SOL     OW  471   1.252   1.731   1.128
  153SOL    HW1  472   1.336   1.736   1.074
  153SOL    HW2  473   1.229   1.635   1.146
  154SOL     OW  474   0.083   1.258   1.022
  154SOL    HW1  475   0.078   1.257   1.122
  154SOL    HW2  476   0.000   1.217   0.984
  155SOL     OW  477   0.688   1.662   1.716
  155SOL    HW1  478   0.632   1.743   1.725
  155SOL    HW2  479   0.740   1.666   1.630
  156SOL     OW  480   0.903   0.086   0.133
  156SOL    HW1  481   0.954   0.087   0.047
  156SOL    HW2  482   0.959   0.044   0.204
  157SOL     OW  483   1.726   0.135   0.523
  157SOL    HW1  484   1.799   0.118   0.456
  157SOL    HW2  485   1.695   0.048   0.561
  158SOL     OW  486   1.388   1.573   0.477
  158SOL    HW1  487   1.455   1.585   0.403
  158SOL    HW2  488   1.348   1.662   0.500
  159SOL     OW  489   0.130   1.794   1.851
  159SOL    HW1  490   0.089   1.720   1.904
  159SOL    HW2  491   0.194   1.845   1.909
  160SOL     OW  492   1.280   0.927   0.672
  160SOL    HW1  493   1.340   0.846   0.674
  160SOL    HW2  494   1.320   0.996   0.612
  161SOL     OW  495   0.830   1.273   1.422
  161SOL    HW1  496   0.825   1.306   1.517
  161SOL    HW2  497   0.744   1.292   1.376
  162SOL     OW  498   0.672   1.616   0.154
  162SOL    HW1  499   0.681   1.626   0.055
  162SOL    HW2  500   0.632   1.527   0.175
  163SOL     OW  501   1.650   1.720   1.394
  163SOL    HW1  502   1.703   1.730   1.310
  163SOL    HW2  503   1.623   1.810   1.428
  164SOL     OW  504   1.841   0.175   0.963
  164SOL    HW1  505   1.880   0.090   0.927
  164SOL    HW2  506   1.743   0.177   0.944
  165SOL     OW  507   0.263   0.326   0.720
  165SOL    HW1  508   0.184   0.377   0.686
  165SOL    HW2  509   0.254   0.311   0.818
  166SOL     OW  510   1.194   1.612   0.031
  166SOL    HW1  511   1.200   1.519   0.068
  166SOL    HW2  512   1.135   1.612  -0.049
  167SOL     OW  513   0.822   1.002   1.372
  167SOL    HW1  514   0.862   1.001   1.280
  167SOL    HW2  515   0.832   1.094   1.412
  168SOL     OW  516   0.916   0.910   0.291
  168SOL    HW1  517   0.979   0.948   0.223
  168SOL    HW2  518   0.956   0.827   0.330
  169SOL     OW  519   1.504   1.607   0.044
  169SOL    HW1  520   1.412   1.644   0.051
  169SOL    HW2  521   1.542   1.627  -0.046
  170SOL     OW  522   0.372   1.288   1.490
  170SOL    HW1  523   0.359   1.381   1.456
  170SOL    HW2  524   0.288   1.236   1.477
  171SOL     OW  525   1.614   1.292   1.289
  171SOL    HW1  526   1.674   1.295   1.369
  171SOL    HW2  527   1.539   1.356   1.302
  172SOL     OW  528   1.039   1.098   0.696
  172SOL    HW1  529   0.969   1.051   0.750
  172SOL    HW2  530   1.098   1.030   0.653
  173SOL     OW  531   1.014   0.236   0.971
  173SOL    HW1  532   1.006   0.200   0.878
  173SOL    HW2  533   1.012   0.160   1.036
  174SOL     OW  534   0.590   1.487   0.491
  174SOL    HW1  535   0.632   1.429   0.421
  174SOL    HW2  536   0.546   1.566   0.447
  175SOL     OW  537   1.709   0.385   1.381
  175SOL    HW1  538   1.782   0.454   1.385
  175SOL    HW2  539   1.737   0.310   1.322
  176SOL     OW  540   0.255   1.348   0.290
  176SOL    HW1  541   0.159   1.349   0.263
  176SOL    HW2  542   0.267   1.401   0.374
  177SOL     OW  543   0.105   1.013   1.726
  177SOL    HW1  544   0.028   0.980   1.780
  177SOL    HW2  545   0.190   0.983   1.768
  178SOL     OW  546   0.672   0.203   1.489
  178SOL    HW1  547   0.762   0.187   1.449
  178SOL    HW2  548   0.680   0.208   1.588
  179SOL     OW  549   0.075   0.345   0.033
  179SOL    HW1  550  -0.017   0.317   0.004
  179SOL    HW2  551   0.106   0.422  -0.023
  180SOL     OW  552   1.440   0.856   1.398
  180SOL    HW1  553   1.383   0.908   1.335
  180SOL    HW2  554   1.536   0.868   1.374
  181SOL     OW  555   0.072   0.166   0.318
  181SOL    HW1  556   0.055   0.249   0.264
  181SOL    HW2  557   0.162   0.129   0.296
  182SOL     OW  558   1.183   1.335   0.119
  182SOL    HW1  559   1.084   1.324   0.121
  182SOL    HW2  560   1.217   1.350   0.212
  183SOL     OW  561   0.613   0.842   1.431
  183SOL    HW1  562   0.669   0.923   1.414
  183SOL    HW2  563   0.672   0.762   1.434
  184SOL     OW  564   1.493   1.767   0.959
  184SOL    HW1  565   1.526   1.831   0.890
  184SOL    HW2  566   1.559   1.761   1.034
  185SOL     OW  567   0.716   0.565   1.708
  185SOL    HW1  568   0.735   0.630   1.782
  185SOL    HW2  569   0.776   0.485   1.717
  186SOL     OW  570   1.450   1.220   1.633
  186SOL    HW1  571   1.441   1.210   1.732
  186SOL    HW2  572   1.546   1.213   1.607
  187SOL     OW  573   0.390   1.741   1.560
  187SOL    HW1  574   0.299   1.782   1.558
  187SOL    HW2  575   0.383   1.647   1.592
  188SOL     OW  576   1.674   0.883   1.254
  188SOL    HW1  577   1.647   0.794   1.217
  188SOL    HW2  578   1.675   0.951   1.181
  189SOL     OW  579   1.225   0.325   0.449
  189SOL    HW1  580   1.290   0.251   0.438
  189SOL    HW2  581   1.245   0.375   0.533
  190SOL     OW  582   0.594   0.745   0.652
  190SOL    HW1  583   0.644   0.830   0.633
  190SOL    HW2  584   0.506   0.747   0.604
  191SOL     OW  585   1.777   0.342   1.642
  191SOL    HW1  586   1.760   0.373   1.548
  191SOL    HW2  587   1.693   0.305   1.680
  192SOL     OW  588   1.730   0.934   1.517
  192SOL    HW1  589   1.768   1.025   1.532
  192SOL    HW2  590   1.722   0.917   1.418
  193SOL     OW  591   0.859   1.374   0.016
  193SOL    HW1  592   0.813   1.389   0.104
  193SOL    HW2  593   0.903   1.459  -0.014
  194SOL     OW  594   0.661   1.790   0.953
  194SOL    HW1  595   0.615   1.878   0.940
  194SOL    HW2  596   0.760   1.802   0.946
  195SOL     OW  597   0.859   0.956   0.861
  195SOL    HW1  598   0.913   0.887   0.909
  195SOL    HW2  599   0.827   1.025   0.927
  196SOL     OW  600   1.083   0.984   0.087
  196SOL    HW1  601   1.060   1.037   0.005
  196SOL    HW2  602   1.164   0.928   0.068
  197SOL     OW  603   1.861   1.569   0.851
  197SOL    HW1  604   1.790   1.557   0.781
  197SOL    HW2  605   1.862   1.490   0.911
  198SOL     OW  606   0.221   1.314   1.844
  198SOL    HW1  607   0.156   1.241   1.823
  198SOL    HW2  608   0.225   1.328   1.942
  199SOL     OW  609   0.079   1.240   0.653
  199SOL    HW1  610   0.078   1.193   0.741
  199SOL    HW2  611   0.161   1.212   0.602
  200SOL     OW  612   0.672   1.391   1.624
  200SOL    HW1  613   0.594   1.341   1.662
  200SOL    HW2  614   0.669   1.486   1.655
  201SOL     OW  615   1.824   0.192   1.227
  201SOL    HW1  616   1.820   0.102   1.271
  201SOL    HW2  617   1.827   0.181   1.128
  202SOL     OW  618   0.428   0.424   0.520
  202SOL    HW1  619   0.458   0.352   0.458
  202SOL    HW2  620   0.389   0.384   0.603
  203SOL     OW  621   1.705   1.487   1.104
  203SOL    HW1  622   1.612   1.462   1.077
  203SOL    HW2  623   1.731   1.437   1.186
  204SOL     OW  624   0.317   0.547   1.280
  204SOL    HW1  625   0.355   0.488   1.352
  204SOL    HW2  626   0.357   0.521   1.192
  205SOL     OW  627   0.812   1.586   0.687
  205SOL    HW1  628   0.844   1.596   0.593
  205SOL    HW2  629   0.733   1.524   0.689
  206SOL     OW  630   1.424   0.214   1.112
  206SOL    HW1  631   1.476   0.149   1.167
  206SOL    HW2  632   1.375   0.277   1.173
  207SOL     OW  633   1.001   0.034   1.154
  207SOL    HW1  634   0.938  -0.038   1.123
  207SOL    HW2  635   1.094  -0.002   1.154
  208SOL     OW  636   0.770   1.330   0.301
  208SOL    HW1  637   0.724   1.243   0.318
  208SOL    HW2  638   0.861   1.327   0.342
  209SOL     OW  639   0.618   1.567   1.284
  209SOL    HW1  640   0.613   1.649   1.341
  209SOL    HW2  641   0.707   1.564   1.239
  210SOL     OW  642   1.352   0.052   0.168
  210SOL    HW1  643   1.387   0.011   0.084
  210SOL    HW2  644   1.262   0.014   0.188
  211SOL     OW  645   1.300   0.453   0.691
  211SOL    HW1  646   1.241   0.533   0.695
  211SOL    HW2  647   1.315   0.418   0.784
  212SOL     OW  648   1.593   0.221   0.882
  212SOL    HW1  649   1.509   0.220   0.936
  212SOL    HW2  650   1.595   0.304   0.826
  213SOL     OW  651   0.039   1.077   0.300
  213SOL    HW1  652   0.138   1.066   0.291
  213SOL    HW2  653  -0.001   0.991   0.332
  214SOL     OW  654   0.875   1.646   0.337
  214SOL    HW1  655   0.798   1.611   0.283
  214SOL    HW2  656   0.843   1.717   0.399
  215SOL     OW  657   0.230   0.628   1.975
  215SOL    HW1  658   0.137   0.626   2.012
  215SOL    HW2  659   0.231   0.589   1.883
  216SOL     OW  660   0.225   0.275   2.858
  216SOL    HW1  661   0.260   0.258   2.950
  216SOL    HW2  662   0.137   0.230   2.846
  217SOL     OW  663   0.019   0.368   2.509
  217SOL    HW1  664  -0.063   0.411   2.548
  217SOL    HW2  665  -0.009   0.295   2.446
  218SOL     OW  666   0.569   1.275   3.027
  218SOL    HW1  667   0.476   1.268   2.990
  218SOL    HW2  668   0.580   1.364   3.071
  219SOL     OW  669   1.555   1.511   2.565
  219SOL    HW1  670   1.498   1.495   2.646
  219SOL    HW2  671   1.496   1.521   2.485
  220SOL     OW  672   1.135   0.703   2.579
  220SOL    HW1  673   1.192   0.781   2.554
  220SOL    HW2  674   1.075   0.729   2.655
  221SOL     OW  675   1.755   0.607   2.093
  221SOL    HW1  676   1.743   0.594   1.994
  221SOL    HW2  677   1.725   0.526   2.142
  222SOL     OW  678   0.768   1.144   2.885
  222SOL    HW1  679   0.690   1.161   2.945
  222SOL    HW2  680   0.802   1.231   2.849
  223SOL     OW  681   0.850   0.798   3.685
  223SOL    HW1  682   0.846   0.874   3.750
  223SOL    HW2  683   0.872   0.834   3.594
  224SOL     OW  684   0.685   1.012   2.527
  224SOL    HW1  685   0.754   0.996   2.597
  224SOL    HW2  686   0.612   1.069   2.565
  225SOL     OW  687   0.686   1.161   3.665
  225SOL    HW1  688   0.746   1.240   3.679
  225SOL    HW2  689   0.600   1.192   3.624
  226SOL     OW  690   0.335   1.435   2.923
  226SOL    HW1  691   0.257   1.404   2.870
  226SOL    HW2  692   0.393   1.493   2.866
  227SOL     OW  693   1.460   1.505   3.201
  227SOL    HW1  694   1.484   1.599   3.227
  227SOL    HW2  695   1.444   1.451   3.283
  228SOL     OW  696   0.438   0.392   3.361
  228SOL    HW1  697   0.520   0.336   3.370
  228SOL    HW2  698   0.357   0.334   3.365
  229SOL     OW  699   1.603   0.447   2.599
  229SOL    HW1  700   1.529   0.493   2.549
  229SOL    HW2  701   1.654   0.515   2.652
  230SOL     OW  702   0.231   1.713   2.345
  230SOL    HW1  703   0.265   1.790   2.399
  230SOL    HW2  704   0.275   1.713   2.255
  231SOL     OW  705   1.127   1.341   3.552
  231SOL    HW1  706   1.174   1.341   3.640
  231SOL    HW2  707   1.079   1.254   3.541
  232SOL     OW  708   0.230   1.434   2.400
  232SOL    HW1  709   0.204   1.530   2.400
  232SOL    HW2  710   0.159   1.380   2.445
  233SOL     OW  711   0.240   1.091   2.748
  233SOL    HW1  712   0.254   1.007   2.800
  233SOL    HW2  713   0.185   1.155   2.803
  234SOL     OW  714   0.620   1.786   3.301
  234SOL    HW1  715   0.528   1.769   3.336
  234SOL    HW2  716   0.648   1.878   3.327
  235SOL     OW  717   0.606   0.964   1.985
  235SOL    HW1  718   0.613   1.048   1.931
  235SOL    HW2  719   0.652   0.977   2.073
  236SOL     OW  720   1.594   0.114   3.342
  236SOL    HW1  721   1.576   0.181   3.270
  236SOL    HW2  722   1.591   0.160   3.431
  237SOL     OW  723   0.122   0.643   2.425
  237SOL    HW1  724   0.077   0.555   2.442
  237SOL    HW2  725   0.121   0.697   2.509
  238SOL     OW  726   1.842   1.767   2.221
  238SOL    HW1  727   1.896   1.738   2.301
  238SOL    HW2  728   1.872   1.857   2.192
  239SOL     OW  729   0.027   1.596   1.979
  239SOL    HW1  730   0.008   1.500   2.000
  239SOL    HW2  731  -0.006   1.654   2.054
  240SOL     OW  732   1.689   0.922   2.474
  240SOL    HW1  733   1.784   0.893   2.482
  240SOL    HW2  734   1.681   0.987   2.399
  241SOL     OW  735   1.641   1.108   2.294
  241SOL    HW1  736   1.727   1.110   2.242
  241SOL    HW2  737   1.655   1.155   2.382
  242SOL     OW  738   0.113   0.737   3.459
  242SOL    HW1  739   0.201   0.724   3.504
  242SOL    HW2  740   0.100   0.834   3.437
  243SOL     OW  741   0.613   1.365   2.588
  243SOL    HW1  742   0.564   1.278   2.597
  243SOL    HW2  743   0.590   1.408   2.501
  244SOL     OW  744   1.293   1.228   3.285
  244SOL    HW1  745   1.330   1.155   3.227
  244SOL    HW2  746   1.345   1.233   3.370
  245SOL     OW  747   0.809   0.004   2.364
  245SOL    HW1  748   0.849   0.095   2.355
  245SOL    HW2  749   0.709   0.012   2.370
  246SOL     OW  750   0.197   0.976   3.126
  246SOL    HW1  751   0.286   0.931   3.112
  246SOL    HW2  752   0.124   0.911   3.107
  247SOL     OW  753   1.525   0.999   2.052
  247SOL    HW1  754   1.462   0.923   2.065
  247SOL    HW2  755   1.573   1.017   2.138
  248SOL     OW  756   1.187   1.792   3.478
  248SOL    HW1  757   1.211   1.852   3.402
  248SOL    HW2  758   1.194   1.697   3.448
  249SOL     OW  759   0.317   0.251   3.663
  249SOL    HW1  760   0.388   0.322   3.669
  249SOL    HW2  761   0.229   0.290   3.691
  250SOL     OW  762   1.466   1.417   2.815
  250SOL    HW1  763   1.407   1.423   2.895
  250SOL    HW2  764   1.451   1.329   2.769
  251SOL     OW  765   1.667   1.714   2.434
  251SOL    HW1  766   1.626   1.691   2.346
  251SOL    HW2  767   1.649   1.640   2.499
  252SOL     OW  768   0.598   0.729   2.132
  252SOL    HW1  769   0.622   0.798   2.064
  252SOL    HW2  770   0.520   0.762   2.186
  253SOL     OW  771   1.281   0.345   2.806
  253SOL    HW1  772   1.195   0.295   2.793
  253SOL    HW2  773   1.343   0.291   2.862
  254SOL     OW  774   1.576   1.662   2.169
  254SOL    HW1  775   1.665   1.708   2.172
  254SOL    HW2  776   1.555   1.638   2.074
  255SOL     OW  777   0.807   0.605   3.327
  255SOL    HW1  778   0.760   0.602   3.416
  255SOL    HW2  779   0.756   0.550   3.261
  256SOL     OW  780   1.394   0.469   3.536
  256SOL    HW1  781   1.374   0.512   3.624
  256SOL    HW2  782   1.472   0.407   3.545
  257SOL     OW  783   0.973   0.890   3.434
  257SOL    HW1  784   1.019   0.806   3.405
  257SOL    HW2  785   0.917   0.924   3.359
  258SOL     OW  786   0.991   0.410   3.104
  258SOL    HW1  787   0.914   0.444   3.158
  258SOL    HW2  788   0.957   0.359   3.025
  259SOL     OW  789   1.041   0.701   2.291
  259SOL    HW1  790   1.067   0.697   2.387
  259SOL    HW2  791   0.956   0.650   2.277
  260SOL     OW  792   0.076   0.811   2.651
  260SOL    HW1  793   0.175   0.799   2.660
  260SOL    HW2  794   0.052   0.906   2.672
  261SOL     OW  795   0.130   1.821   3.433
  261SOL    HW1  796   0.120   1.806   3.532
  261SOL    HW2  797   0.044   1.857   3.397
  262SOL     OW  798   0.865   0.348   2.057
  262SOL    HW1  799   0.924   0.411   2.008
  262SOL    HW2  800   0.884   0.254   2.028
  263SOL     OW  801   1.719   0.585   3.693
  263SOL    HW1  802   1.693   0.674   3.657
  263SOL    HW2  803   1.717   0.517   3.620
  264SOL     OW  804   1.362   1.144   2.407
  264SOL    HW1  805   1.445   1.115   2.359
  264SOL    HW2  806   1.313   1.211   2.351
  265SOL     OW  807   0.550   0.196   2.747
  265SOL    HW1  808   0.545   0.191   2.847
  265SOL    HW2  809   0.552   0.292   2.718
  266SOL     OW  810   1.008   1.456   2.339
  266SOL    HW1  811   0.962   1.528   2.287
  266SOL    HW2  812   1.004   1.476   2.437
  267SOL     OW  813   0.351   1.801   2.715
  267SOL    HW1  814   0.401   1.715   2.721
  267SOL    HW2  815   0.416   1.878   2.712
  268SOL     OW  816   1.795   1.066   2.735
  268SOL    HW1  817   1.733   1.051   2.659
  268SOL    HW2  818   1.743   1.077   2.820
  269SOL     OW  819   1.227   1.550   3.368
  269SOL    HW1  820   1.233   1.473   3.432
  269SOL    HW2  821   1.175   1.524   3.288
  270SOL     OW  822   0.321   0.943   2.104
  270SOL    HW1  823   0.403   0.982   2.062
  270SOL    HW2  824   0.294   0.861   2.055
  271SOL     OW  825   1.458   0.735   2.590
  271SOL    HW1  826   1.453   0.670   2.665
  271SOL    HW2  827   1.538   0.794   2.603
  272SOL     OW  828   0.461   1.266   3.589
  272SOL    HW1  829   0.411   1.267   3.503
  272SOL    HW2  830   0.398   1.248   3.665
  273SOL     OW  831   1.111   1.776   2.099
  273SOL    HW1  832   1.051   1.714   2.149
  273SOL    HW2  833   1.142   1.732   2.014
  274SOL     OW  834   0.202   0.285   3.360
  274SOL    HW1  835   0.122   0.345   3.347
  274SOL    HW2  836   0.192   0.236   3.446
  275SOL     OW  837   1.632   1.377   1.943
  275SOL    HW1  838   1.600   1.471   1.933
  275SOL    HW2  839   1.556   1.314   1.931
  276SOL     OW  840   0.464   1.743   2.185
  276SOL    HW1  841   0.497   1.782   2.271
  276SOL    HW2  842   0.540   1.736   2.120
  277SOL     OW  843   1.400   0.107   2.288
  277SOL    HW1  844   1.376   0.070   2.198
  277SOL    HW2  845   1.499   0.123   2.292
  278SOL     OW  846   0.249   1.785   3.103
  278SOL    HW1  847   0.306   1.720   3.153
  278SOL    HW2  848   0.233   1.752   3.010
  279SOL     OW  849   0.940   1.698   2.766
  279SOL    HW1  850   1.020   1.641   2.787
  279SOL    HW2  851   0.891   1.658   2.689
  280SOL     OW  852   0.382   0.700   2.342
  280SOL    HW1  853   0.427   0.610   2.339
  280SOL    HW2  854   0.288   0.689   2.375
  281SOL     OW  855   1.547   0.222   3.591
  281SOL    HW1  856   1.542   0.259   3.683
  281SOL    HW2  857   1.475   0.153   3.579
  282SOL     OW  858   0.614   0.122   1.979
  282SOL    HW1  859   0.712   0.100   1.986
  282SOL    HW2  860   0.583   0.105   1.886
  283SOL     OW  861   0.781   0.264   3.611
  283SOL    HW1  862   0.848   0.203   3.654
  283SOL    HW2  863   0.708   0.283   3.676
  284SOL     OW  864   0.888   1.514   3.057
  284SOL    HW1  865   0.865   1.489   2.963
  284SOL    HW2  866   0.949   1.445   3.096
  285SOL     OW  867   1.351   0.590   3.295
  285SOL    HW1  868   1.379   0.547   3.380
  285SOL    HW2  869   1.376   0.686   3.296
  286SOL     OW  870   0.803   1.402   2.786
  286SOL    HW1  871   0.893   1.416   2.744
  286SOL    HW2  872   0.732   1.404   2.715
  287SOL     OW  873   0.922   0.503   2.761
  287SOL    HW1  874   0.897   0.494   2.665
  287SOL    HW2  875   0.970   0.421   2.792
  288SOL     OW  876   0.539   0.064   2.374
  288SOL    HW1  877   0.458   0.065   2.432
  288SOL    HW2  878   0.542   0.147   2.319
  289SOL     OW  879   1.434   1.188   1.903
  289SOL    HW1  880   1.466   1.112   1.960
  289SOL    HW2  881   1.342   1.215   1.933
  290SOL     OW  882   0.297   0.035   2.033
  290SOL    HW1  883   0.346   0.119   2.012
  290SOL    HW2  884   0.359  -0.030   2.078
  291SOL     OW  885   0.935   0.236   2.342
  291SOL    HW1  886   0.887   0.277   2.264
  291SOL    HW2  887   1.034   0.234   2.323
  292SOL     OW  888   1.076   0.683   3.326
  292SOL    HW1  889   0.996   0.622   3.329
  292SOL    HW2  890   1.157   0.630   3.302
  293SOL     OW  891   1.227   1.570   2.655
  293SOL    HW1  892   1.248   1.644   2.590
  293SOL    HW2  893   1.295   1.570   2.728
  294SOL     OW  894   0.459   1.152   2.603
  294SOL    HW1  895   0.388   1.125   2.668
  294SOL    HW2  896   0.433   1.124   2.510
  295SOL     OW  897   1.271   1.797   2.453
  295SOL    HW1  898   1.315   1.861   2.389
  295SOL    HW2  899   1.221   1.849   2.523
  296SOL     OW  900   1.032   0.549   1.878
  296SOL    HW1  901   0.991   0.631   1.839
  296SOL    HW2  902   1.096   0.575   1.951
  297SOL     OW  903   0.078   0.556   3.248
  297SOL    HW1  904   0.170   0.555   3.207
  297SOL    HW2  905   0.072   0.630   3.315
  298SOL     OW  906   0.561   0.222   3.009
  298SOL    HW1  907   0.599   0.138   3.046
  298SOL    HW2  908   0.473   0.241   3.053
  299SOL     OW  909   0.866   0.454   2.504
  299SOL    HW1  910   0.834   0.526   2.442
  299SOL    HW2  911   0.890   0.373   2.451
  300SOL     OW  912   1.017   0.039   2.615
  300SOL    HW1  913   0.945   0.044   2.546
  300SOL    HW2  914   0.993  -0.030   2.684
  301SOL     OW  915   1.429   1.173   2.729
  301SOL    HW1  916   1.374   1.089   2.722
  301SOL    HW2  917   1.455   1.202   2.637
  302SOL     OW  918   1.466   0.590   2.854
  302SOL    HW1  919   1.436   0.495   2.861
  302SOL    HW2  920   1.539   0.606   2.920
  303SOL     OW  921   1.857   0.833   2.239
  303SOL    HW1  922   1.899   0.769   2.303
  303SOL    HW2  923   1.819   0.782   2.161
  304SOL     OW  924   0.488   1.385   2.036
  304SOL    HW1  925   0.401   1.370   2.083
  304SOL    HW2  926   0.471   1.411   1.941
  305SOL     OW  927   1.664   1.280   2.519
  305SOL    HW1  928   1.763   1.288   2.533
  305SOL    HW2  929   1.619   1.364   2.550
  306SOL     OW  930   1.390   0.575   1.940
  306SOL    HW1  931   1.336   0.554   2.021
  306SOL    HW2  932   1.481   0.534   1.949
  307SOL     OW  933   0.527   0.256   2.190
  307SOL    HW1  934   0.554   0.197   2.115
  307SOL    HW2  935   0.527   0.351   2.159
  308SOL     OW  936   1.754   1.223   3.450
  308SOL    HW1  937   1.845   1.184   3.437
  308SOL    HW2  938   1.762   1.319   3.474
  309SOL     OW  939   1.064   1.347   3.202
  309SOL    HW1  940   0.984   1.324   3.257
  309SOL    HW2  941   1.147   1.321   3.251
  310SOL     OW  942   1.592   1.629   3.487
  310SOL    HW1  943   1.619   1.663   3.397
  310SOL    HW2  944   1.671   1.591   3.533
  311SOL     OW  945   1.111   1.195   2.962
  311SOL    HW1  946   1.071   1.239   3.043
  311SOL    HW2  947   1.070   1.232   2.879
  312SOL     OW  948   1.638   1.099   2.941
  312SOL    HW1  949   1.643   1.180   3.000
  312SOL    HW2  950   1.552   1.101   2.890
  313SOL     OW  951   0.915   0.089   3.264
  313SOL    HW1  952   0.940   0.069   3.169
  313SOL    HW2  953   0.987   0.145   3.306
  314SOL     OW  954   0.980   1.116   3.581
  314SOL    HW1  955   0.881   1.122   3.591
  314SOL    HW2  956   1.003   1.036   3.525
  315SOL     OW  957   0.705   1.050   2.230
  315SOL    HW1  958   0.691   1.057   2.329
  315SOL    HW2  959   0.789   0.999   2.212
  316SOL     OW  960   0.410   0.813   3.113
  316SOL    HW1  961   0.496   0.825   3.163
  316SOL    HW2  962   0.368   0.726   3.140
  317SOL     OW  963   1.274   0.386   3.124
  317SOL    HW1  964   1.295   0.460   3.188
  317SOL    HW2  965   1.185   0.403   3.081
  318SOL     OW  966   0.064   1.564   3.193
  318SOL    HW1  967   0.018   1.646   3.159
  318SOL    HW2  968   0.162   1.583   3.202
  319SOL     OW  969   0.367   1.100   2.363
  319SOL    HW1  970   0.360   1.183   2.307
  319SOL    HW2  971   0.371   1.020   2.303
  320SOL     OW  972   0.566   0.537   2.727
  320SOL    HW1  973   0.578   0.603   2.653
  320SOL    HW2  974   0.612   0.571   2.810
  321SOL     OW  975   1.252   1.348   2.250
  321SOL    HW1  976   1.302   1.425   2.290
  321SOL    HW2  977   1.157   1.350   2.282
  322SOL     OW  978   1.272   1.445   3.004
  322SOL    HW1  979   1.319   1.458   3.091
  322SOL    HW2  980   1.206   1.371   3.013
  323SOL     OW  981   1.582   0.639   2.334
  323SOL    HW1  982   1.551   0.700   2.407
  323SOL    HW2  983   1.632   0.691   2.265
  324SOL     OW  984   0.354   1.510   3.191
  324SOL    HW1  985   0.333   1.466   3.104
  324SOL    HW2  986   0.451   1.536   3.194
  325SOL     OW  987   0.402   0.751   3.460
  325SOL    HW1  988   0.470   0.806   3.413
  325SOL    HW2  989   0.442   0.663   3.487
  326SOL     OW  990   1.587   0.779   3.532
  326SOL    HW1  991   1.495   0.817   3.527
  326SOL    HW2  992   1.647   0.826   3.467
  327SOL     OW  993   1.013   0.105   3.632
  327SOL    HW1  994   1.019   0.190   3.580
  327SOL    HW2  995   1.045   0.029   3.575
  328SOL     OW  996   0.504   0.050   3.602
  328SOL    HW1  997   0.462  -0.007   3.532
  328SOL    HW2  998   0.438   0.119   3.634
  329SOL     OW  999   0.573   0.870   2.891
  329SOL    HW1 1000   0.617   0.959   2.882
  329SOL    HW2 1001   0.510   0.870   2.968
  330SOL     OW 1002   1.360   0.862   2.907
  330SOL    HW1 1003   1.285   0.862   2.841
  330SOL    HW2 1004   1.397   0.770   2.916
  331SOL     OW 1005   1.209   0.525   2.137
  331SOL    HW1 1006   1.222   0.441   2.191
  331SOL    HW2 1007   1.180   0.599   2.197
  332SOL     OW 1008   0.307   0.213   3.093
  332SOL    HW1 1009   0.284   0.250   3.183
  332SOL    HW2 1010   0.277   0.118   3.087
  333SOL     OW 1011   0.037   1.310   3.144
  333SOL    HW1 1012   0.090   1.261   3.212
  333SOL    HW2 1013   0.059   1.408   3.149
  334SOL     OW 1014   0.732   0.634   2.926
  334SOL    HW1 1015   0.791   0.608   2.850
  334SOL    HW2 1016   0.704   0.730   2.915
  335SOL     OW 1017   1.728   0.935   3.716
  335SOL    HW1 1018   1.682   0.928   3.627
  335SOL    HW2 1019   1.666   0.979   3.782
  336SOL     OW 1020   0.307   0.063   2.480
  336SOL    HW1 1021   0.296   0.157   2.513
  336SOL    HW2 1022   0.302   0.000   2.557
  337SOL     OW 1023   1.622   0.367   2.236
  337SOL    HW1 1024   1.624   0.291   2.300
  337SOL    HW2 1025   1.574   0.444   2.276
  338SOL     OW 1026   1.023   0.766   2.828
  338SOL    HW1 1027   1.038   0.787   2.924
  338SOL    HW2 1028   0.993   0.671   2.819
  339SOL     OW 1029   0.980   1.573   3.562
  339SOL    HW1 1030   0.960   1.617   3.474
  339SOL    HW2 1031   1.019   1.482   3.546
  340SOL     OW 1032   1.859   1.518   3.467
  340SOL    HW1 1033   1.873   1.545   3.372
  340SOL    HW2 1034   1.942   1.540   3.520
  341SOL     OW 1035   0.350   0.898   3.666
  341SOL    HW1 1036   0.426   0.942   3.714
  341SOL    HW2 1037   0.385   0.851   3.584
  342SOL     OW 1038   1.540   0.274   1.987
  342SOL    HW1 1039   1.479   0.199   2.010
  342SOL    HW2 1040   1.562   0.326   2.070
  343SOL     OW 1041   1.303   0.838   1.904
  343SOL    HW1 1042   1.337   0.745   1.919
  343SOL    HW2 1043   1.321   0.865   1.809
  344SOL     OW 1044   1.068   1.333   2.711
  344SOL    HW1 1045   1.075   1.249   2.656
  344SOL    HW2 1046   1.130   1.402   2.675
  345SOL     OW 1047   0.319   0.810   2.811
  345SOL    HW1 1048   0.412   0.846   2.816
  345SOL    HW2 1049   0.313   0.725   2.863
  346SOL     OW 1050   0.339   0.509   2.868
  346SOL    HW1 1051   0.287   0.426   2.851
  346SOL    HW2 1052   0.416   0.514   2.804
  347SOL     OW 1053   1.138   0.380   3.540
  347SOL    HW1 1054   1.093   0.443   3.604
  347SOL    HW2 1055   1.231   0.411   3.523
  348SOL     OW 1056   1.160   0.207   3.339
  348SOL    HW1 1057   1.160   0.271   3.416
  348SOL    HW2 1058   1.188   0.255   3.256
  349SOL     OW 1059   0.008   1.326   2.062
  349SOL    HW1 1060  -0.085   1.347   2.031
  349SOL    HW2 1061   0.018   1.227   2.075
  350SOL     OW 1062   0.088   1.801   2.789
  350SOL    HW1 1063   0.046   1.715   2.762
  350SOL    HW2 1064   0.182   1.804   2.755
  351SOL     OW 1065   0.504   1.568   2.772
  351SOL    HW1 1066   0.570   1.642   2.781
  351SOL    HW2 1067   0.548   1.489   2.730
  352SOL     OW 1068   1.002   0.796   3.100
  352SOL    HW1 1069   1.043   0.764   3.186
  352SOL    HW2 1070   0.906   0.769   3.097
  353SOL     OW 1071   0.040   0.544   2.976
  353SOL    HW1 1072   0.125   0.511   2.935
  353SOL    HW2 1073   0.053   0.559   3.074
  354SOL     OW 1074   0.189   0.520   3.584
  354SOL    HW1 1075   0.248   0.480   3.514
  354SOL    HW2 1076   0.131   0.591   3.543
  355SOL     OW 1077   1.369   0.950   3.522
  355SOL    HW1 1078   1.408   1.039   3.542
  355SOL    HW2 1079   1.379   0.930   3.425
  356SOL     OW 1080   0.815   0.572   2.187
  356SOL    HW1 1081   0.822   0.483   2.141
  356SOL    HW2 1082   0.721   0.606   2.179
  357SOL     OW 1083   1.657   0.604   3.068
  357SOL    HW1 1084   1.619   0.535   3.130
  357SOL    HW2 1085   1.739   0.568   3.024
  358SOL     OW 1086   0.252   1.564   3.606
  358SOL    HW1 1087   0.222   1.621   3.682
  358SOL    HW2 1088   0.245   1.467   3.632
  359SOL     OW 1089   0.671   0.464   3.131
  359SOL    HW1 1090   0.637   0.375   3.101
  359SOL    HW2 1091   0.697   0.518   3.051
  360SOL     OW 1092   0.930   1.678   3.327
  360SOL    HW1 1093   0.906   1.660   3.232
  360SOL    HW2 1094   0.960   1.772   3.337
  361SOL     OW 1095   0.473   0.500   2.053
  361SOL    HW1 1096   0.534   0.580   2.057
  361SOL    HW2 1097   0.378   0.531   2.060
  362SOL     OW 1098   0.159   1.137   3.328
  362SOL    HW1 1099   0.181   1.076   3.404
  362SOL    HW2 1100   0.169   1.088   3.242
  363SOL     OW 1101   1.347   1.059   3.096
  363SOL    HW1 1102   1.371   0.996   3.022
  363SOL    HW2 1103   1.257   1.099   3.078
  364SOL     OW 1104   1.302   0.855   2.171
  364SOL    HW1 1105   1.216   0.824   2.213
  364SOL    HW2 1106   1.298   0.841   2.072
  365SOL     OW 1107   1.759   1.747   3.016
  365SOL    HW1 1108   1.820   1.777   2.943
  365SOL    HW2 1109   1.721   1.658   2.994
  366SOL     OW 1110   1.252   1.731   2.990
  366SOL    HW1 1111   1.336   1.736   2.936
  366SOL    HW2 1112   1.229   1.635   3.008
  367SOL     OW 1113   0.083   1.258   2.884
  367SOL    HW1 1114   0.078   1.257   2.984
  367SOL    HW2 1115   0.000   1.217   2.846
  368SOL     OW 1116   0.688   1.662   3.578
  368SOL    HW1 1117   0.632   1.743   3.587
  368SOL    HW2 1118   0.740   1.666   3.492
  369SOL     OW 1119   1.726   0.135   2.385
  369SOL    HW1 1120   1.799   0.118   2.318
  369SOL    HW2 1121   1.695   0.048   2.423
  370SOL     OW 1122   1.388   1.573   2.339
  370SOL    HW1 1123   1.455   1.585   2.265
  370SOL    HW2 1124   1.348   1.662   2.362
  371SOL     OW 1125   0.130   1.794   3.713
  371SOL    HW1 1126   0.089   1.720   3.766
  371SOL    HW2 1127   0.194   1.845   3.771
  372SOL     OW 1128   1.280   0.927   2.534
  372SOL    HW1 1129   1.340   0.846   2.536
  372SOL    HW2 1130   1.320   0.996   2.474
  373SOL     OW 1131   0.830   1.273   3.284
  373SOL    HW1 1132   0.825   1.306   3.379
  373SOL    HW2 1133   0.744   1.292   3.238
  374SOL     OW 1134   0.672   1.616   2.016
  374SOL    HW1 1135   0.681   1.626   1.917
  374SOL    HW2 1136   0.632   1.527   2.037
  375SOL     OW 1137   1.650   1.720   3.256
  375SOL    HW1 1138   1.703   1.730   3.172
  375SOL    HW2 1139   1.623   1.810   3.290
  376SOL     OW 1140   1.841   0.175   2.825
  376SOL    HW1 1141   1.880   0.090   2.789
  376SOL    HW2 1142   1.743   0.177   2.806
  377SOL     OW 1143   0.263   0.326   2.582
  377SOL    HW1 1144   0.184   0.377   2.548
  377SOL    HW2 1145   0.254   0.311   2.680
  378SOL     OW 1146   1.194   1.612   1.893
  378SOL    HW1 1147   1.200   1.519   1.930
  378SOL    HW2 1148   1.135   1.612   1.813
  379SOL     OW 1149   0.822   1.002   3.234
  379SOL    HW1 1150   0.862   1.001   3.142
  379SOL    HW2 1151   0.832   1.094   3.274
  380SOL     OW 1152   0.916   0.910   2.153
  380SOL    HW1 1153   0.979   0.948   2.085
  380SOL    HW2 1154   0.956   0.827   2.192
  381SOL     OW 1155   1.504   1.607   1.906
  381SOL    HW1 1156   1.412   1.644   1.913
  381SOL    HW2 1157   1.542   1.627   1.816
  382SOL     OW 1158   0.372   1.288   3.352
  382SOL    HW1 1159   0.359   1.381   3.318
  382SOL    HW2 1160   0.288   1.236   3.339
  383SOL     OW 1161   1.614   1.292   3.151
  383SOL    HW1 1162   1.674   1.295   3.231
  383SOL    HW2 1163   1.539   1.356   3.164
  384SOL     OW 1164   1.039   1.098   2.558
  384SOL    HW1 1165   0.969   1.051   2.612
  384SOL    HW2 1166   1.098   1.030   2.515
  385SOL     OW 1167   1.014   0.236   2.833
  385SOL    HW1 1168   1.006   0.200   2.740
  385SOL    HW2 1169   1.012   0.160   2.898
  386SOL     OW 1170   0.590   1.487   2.353
  386SOL    HW1 1171   0.632   1.429   2.283
  386SOL    HW2 1172   0.546   1.566   2.309
  387SOL     OW 1173   1.709   0.385   3.243
  387SOL    HW1 1174   1.782   0.454   3.247
  387SOL    HW2 1175   1.737   0.310   3.184
  388SOL     OW 1176   0.255   1.348   2.152
  388SOL    HW1 1177   0.159   1.349   2.125
  388SOL    HW2 1178   0.267   1.401   2.236
  389SOL     OW 1179   0.105   1.013   3.588
  389SOL    HW1 1180   0.028   0.980   3.642
  389SOL    HW2 1181   0.190   0.983   3.630
  390SOL     OW 1182   0.672   0.203   3.351
  390SOL    HW1 1183   0.762   0.187   3.311
  390SOL    HW2 1184   0.680   0.208   3.450
  391SOL     OW 1185   0.075   0.345   1.895
  391SOL    HW1 1186  -0.017   0.317   1.866
  391SOL    HW2 1187   0.106   0.422   1.839
  392SOL     OW 1188   1.440   0.856   3.260
  392SOL    HW1 1189   1.383   0.908   3.197
  392SOL    HW2 1190   1.536   0.868   3.236
  393SOL     OW 1191   0.072   0.166   2.180
  393SOL    HW1 1192   0.055   0.249   2.126
  393SOL    HW2 1193   0.162   0.129   2.158
  394SOL     OW 1194   1.183   1.335   1.981
  394SOL    HW1 1195   1.084   1.324   1.983
  394SOL    HW2 1196   1.217   1.350   2.074
  395SOL     OW 1197   0.613   0.842   3.293
  395SOL    HW1 1198   0.669   0.923   3.276
  395SOL    HW2 1199   0.672   0.762   3.296
  396SOL     OW 1200   1.493   1.767   2.821
  396SOL    HW1 1201   1.526   1.831   2.752
  396SOL    HW2 1202   1.559   1.761   2.896
  397SOL     OW 1203   0.716   0.565   3.570
  397SOL    HW1 1204   0.735   0.630   3.644
  397SOL    HW2 1205   0.776   0.485   3.579
  398SOL     OW 1206   1.450   1.220   3.495
  398SOL    HW1 1207   1.441   1.210   3.594
  398SOL    HW2 1208   1.546   1.213   3.469
  399SOL     OW 1209   0.390   1.741   3.422
  399SOL    HW1 1210   0.299   1.782   3.420
  399SOL    HW2 1211   0.383   1.647   3.454
  400SOL     OW 1212   1.674   0.883   3.116
  400SOL    HW1 1213   1.647   0.794   3.079
  400SOL    HW2 1214   1.675   0.951   3.043
  401SOL     OW 1215   1.225   0.325   2.311
  401SOL    HW1 1216   1.290   0.251   2.300
  401SOL    HW2 1217   1.245   0.375   2.395
  402SOL     OW 1218   0.594   0.745   2.514
  402SOL    HW1 1219   0.644   0.830   2.495
  402SOL    HW2 1220   0.506   0.747   2.466
  403SOL     OW 1221   1.777   0.342   3.504
  403SOL    HW1 1222   1.760   0.373   3.410
  403SOL    HW2 1223   1.693   0.305   3.542
  404SOL     OW 1224   1.730   0.934   3.379
  404SOL    HW1 1225   1.768   1.025   3.394
  404SOL    HW2 1226   1.722   0.917   3.280
  405SOL     OW 1227   0.859   1.374   1.878
  405SOL    HW1 1228   0.813   1.389   1.966
  405SOL    HW2 1229   0.903   1.459   1.848
  406SOL     OW 1230   0.661   1.790   2.815
  406SOL    HW1 1231   0.615   1.878   2.802
  406SOL    HW2 1232   0.760   1.802   2.808
  407SOL     OW 1233   0.859   0.956   2.723
  407SOL    HW1 1234   0.913   0.887   2.771
  407SOL    HW2 1235   0.827   1.025   2.789
  408SOL     OW 1236   1.083   0.984   1.949
  408SOL    HW1 1237   1.060   1.037   1.867
  408SOL    HW2 1238   1.164   0.928   1.930
  409SOL     OW 1239   1.861   1.569   2.713
  409SOL    HW1 1240   1.790   1.557   2.643
  409SOL    HW2 1241   1.862   1.490   2.773
  410SOL     OW 1242   0.221   1.314   3.706
  410SOL    HW1 1243   0.156   1.241   3.685
  410SOL    HW2 1244   0.225   1.328   3.804
  411SOL     OW 1245   0.079   1.240   2.515
  411SOL    HW1 1246   0.078   1.193   2.603
  411SOL    HW2 1247   0.161   1.212   2.464
  412SOL     OW 1248   0.672   1.391   3.486
  412SOL    HW1 1249   0.594   1.341   3.524
  412SOL    HW2 1250   0.669   1.486   3.517
  413SOL     OW 1251   1.824   0.192   3.089
  413SOL    HW1 1252   1.820   0.102   3.133
  413SOL    HW2 1253   1.827   0.181   2.990
  414SOL     OW 1254   0.428   0.424   2.382
  414SOL    HW1 1255   0.458   0.352   2.320
  414SOL    HW2 1256   0.389   0.384   2.465
  415SOL     OW 1257   1.705   1.487   2.966
  415SOL    HW1 1258   1.612   1.462   2.939
  415SOL    HW2 1259   1.731   1.437   3.048
  416SOL     OW 1260   0.317   0.547   3.142
  416SOL    HW1 1261   0.355   0.488   3.214
  416SOL    HW2 1262   0.357   0.521   3.054
  417SOL     OW 1263   0.812   1.586   2.549
  417SOL    HW1 1264   0.844   1.596   2.455
  417SOL    HW2 1265   0.733   1.524   2.551
  418SOL     OW 1266   1.424   0.214   2.974
  418SOL    HW1 1267   1.476   0.149   3.029
  418SOL    HW2 1268   1.375   0.277   3.035
  419SOL     OW 1269   1.001   0.034   3.016
  419SOL    HW1 1270   0.938  -0.038   2.985
  419SOL    HW2 1271   1.094  -0.002   3.016
  420SOL     OW 1272   0.770   1.330   2.163
  420SOL    HW1 1273   0.724   1.243   2.180
  420SOL    HW2 1274   0.861   1.327   2.204
  421SOL     OW 1275   0.618   1.567   3.146
  421SOL    HW1 1276   0.613   1.649   3.203
  421SOL    HW2 1277   0.707   1.564   3.101
  422SOL     OW 1278   1.352   0.052   2.030
  422SOL    HW1 1279   1.387   0.011   1.946
  422SOL    HW2 1280   1.262   0.014   2.050
  423SOL     OW 1281   1.300   0.453   2.553
  423SOL    HW1 1282   1.241   0.533   2.557
  423SOL    HW2 1283   1.315   0.418   2.646
  424SOL     OW 1284   1.593   0.221   2.744
  424SOL    HW1 1285   1.509   0.220   2.798
  424SOL    HW2 1286   1.595   0.304   2.688
  425SOL     OW 1287   0.039   1.077   2.162
  425SOL    HW1 1288   0.138   1.066   2.153
  425SOL    HW2 1289  -0.001   0.991   2.194
  426SOL     OW 1290   0.875   1.646   2.199
  426SOL    HW1 1291   0.798   1.611   2.145
  426SOL    HW2 1292   0.843   1.717   2.261
  427SOL     OW 1293   0.230   0.628   3.837
  427SOL    HW1 1294   0.137   0.626   3.874
  427SOL    HW2 1295   0.231   0.589   3.745
  428SOL     OW 1296   0.225   0.275   4.720
  428SOL    HW1 1297   0.260   0.258   4.812
  428SOL    HW2 1298   0.137   0.230   4.708
  429SOL     OW 1299   0.019   0.368   4.371
  429SOL    HW1 1300  -0.063   0.411   4.410
  429SOL    HW2 1301  -0.009   0.295   4.308
  430SOL     OW 1302   0.569   1.275   4.889
  430SOL    HW1 1303   0.476   1.268   4.852
  430SOL    HW2 1304   0.580   1.364   4.933
  431SOL     OW 1305   1.555   1.511   4.427
  431SOL    HW1 1306   1.498   1.495   4.508
  431SOL    HW2 1307   1.496   1.521   4.347
  432SOL     OW 1308   1.135   0.703   4.441
  432SOL    HW1 1309   1.192   0.781   4.416
  432SOL    HW2 1310   1.075   0.729   4.517
  433SOL     OW 1311   1.755   0.607   3.955
  433SOL    HW1 1312   1.743   0.594   3.856
  433SOL    HW2 1313   1.725   0.526   4.004
  434SOL     OW 1314   0.768   1.144   4.747
  434SOL    HW1 1315   0.690   1.161   4.807
  434SOL    HW2 1316   0.802   1.231   4.711
  435SOL     OW 1317   0.685   1.012   4.389
  435SOL    HW1 1318   0.754   0.996   4.459
  435SOL    HW2 1319   0.612   1.069   4.427
  436SOL     OW 1320   0.335   1.435   4.785
  436SOL    HW1 1321   0.257   1.404   4.732
  436SOL    HW2 1322   0.393   1.493   4.728
  437SOL     OW 1323   1.603   0.447   4.461
  437SOL    HW1 1324   1.529   0.493   4.411
  437SOL    HW2 1325   1.654   0.515   4.514
  438SOL     OW 1326   0.231   1.713   4.207
  438SOL    HW1 1327   0.265   1.790   4.261
  438SOL    HW2 1328   0.275   1.713   4.117
  439SOL     OW 1329   0.230   1.434   4.262
  439SOL    HW1 1330   0.204   1.530   4.262
  439SOL    HW2 1331   0.159   1.380   4.307
  440SOL     OW 1332   0.240   1.091   4.610
  440SOL    HW1 1333   0.254   1.007   4.662
  440SOL    HW2 1334   0.185   1.155   4.665
  441SOL     OW 1335   0.606   0.964   3.847
  441SOL    HW1 1336   0.613   1.048   3.793
  441SOL    HW2 1337   0.652   0.977   3.935
  442SOL     OW 1338   0.122   0.643   4.287
  442SOL    HW1 1339   0.077   0.555   4.304
  442SOL    HW2 1340   0.121   0.697   4.371
  443SOL     OW 1341   1.842   1.767   4.083
  443SOL    HW1 1342   1.896   1.738   4.163
  443SOL    HW2 1343   1.872   1.857   4.054
  444SOL     OW 1344   0.027   1.596   3.841
  444SOL    HW1 1345   0.008   1.500   3.862
  444SOL    HW2 1346  -0.006   1.654   3.916
  445SOL     OW 1347   1.689   0.922   4.336
  445SOL    HW1 1348   1.784   0.893   4.344
  445SOL    HW2 1349   1.681   0.987   4.261
  446SOL     OW 1350   1.641   1.108   4.156
  446SOL    HW1 1351   1.727   1.110   4.104
  446SOL    HW2 1352   1.655   1.155   4.244
  447SOL     OW 1353   0.613   1.365   4.450
  447SOL    HW1 1354   0.564   1.278   4.459
  447SOL    HW2 1355   0.590   1.408   4.363
  448SOL     OW 1356   0.809   0.004   4.226
  448SOL    HW1 1357   0.849   0.095   4.217
  448SOL    HW2 1358   0.709   0.012   4.232
  449SOL     OW 1359   0.197   0.976   4.988
  449SOL    HW1 1360   0.286   0.931   4.974
  449SOL    HW2 1361   0.124   0.911   4.969
  450SOL     OW 1362   1.525   0.999   3.914
  450SOL    HW1 1363   1.462   0.923   3.927
  450SOL    HW2 1364   1.573   1.017   4.000
  451SOL     OW 1365   1.466   1.417   4.677
  451SOL    HW1 1366   1.407   1.423   4.757
  451SOL    HW2 1367   1.451   1.329   4.631
  452SOL     OW 1368   1.667   1.714   4.296
  452SOL    HW1 1369   1.626   1.691   4.208
  452SOL    HW2 1370   1.649   1.640   4.361
  453SOL     OW 1371   0.598   0.729   3.994
  453SOL    HW1 1372   0.622   0.798   3.926
  453SOL    HW2 1373   0.520   0.762   4.048
  454SOL     OW 1374   1.281   0.345   4.668
  454SOL    HW1 1375   1.195   0.295   4.655
  454SOL    HW2 1376   1.343   0.291   4.724
  455SOL     OW 1377   1.576   1.662   4.031
  455SOL    HW1 1378   1.665   1.708   4.034
  455SOL    HW2 1379   1.555   1.638   3.936
  456SOL     OW 1380   1.041   0.701   4.153
  456SOL    HW1 1381   1.067   0.697   4.249
  456SOL    HW2 1382   0.956   0.650   4.139
  457SOL     OW 1383   0.076   0.811   4.513
  457SOL    HW1 1384   0.175   0.799   4.522
  457SOL    HW2 1385   0.052   0.906   4.534
  458SOL     OW 1386   0.865   0.348   3.919
  458SOL    HW1 1387   0.924   0.411   3.870
  458SOL    HW2 1388   0.884   0.254   3.890
  459SOL     OW 1389   1.362   1.144   4.269
  459SOL    HW1 1390   1.445   1.115   4.221
  459SOL    HW2 1391   1.313   1.211   4.213
  460SOL     OW 1392   0.550   0.196   4.609
  460SOL    HW1 1393   0.545   0.191   4.709
  460SOL    HW2 1394   0.552   0.292   4.580
  461SOL     OW 1395   1.008   1.456   4.201
  461SOL    HW1 1396   0.962   1.528   4.149
  461SOL    HW2 1397   1.004   1.476   4.299
  462SOL     OW 1398   0.351   1.801   4.577
  462SOL    HW1 1399   0.401   1.715   4.583
  462SOL    HW2 1400   0.416   1.878   4.574
  463SOL     OW 1401   1.795   1.066   4.597
  463SOL    HW1 1402   1.733   1.051   4.521
  463SOL    HW2 1403   1.743   1.077   4.682
  464SOL     OW 1404   0.321   0.943   3.966
  464SOL    HW1 1405   0.403   0.982   3.924
  464SOL    HW2 1406   0.294   0.861   3.917
  465SOL     OW 1407   1.458   0.735   4.452
  465SOL    HW1 1408   1.453   0.670   4.527
  465SOL    HW2 1409   1.538   0.794   4.465
  466SOL     OW 1410   1.111   1.776   3.961
  466SOL    HW1 1411   1.051   1.714   4.011
  466SOL    HW2 1412   1.142   1.732   3.876
  467SOL     OW 1413   1.632   1.377   3.805
  467SOL    HW1 1414   1.600   1.471   3.795
  467SOL    HW2 1415   1.556   1.314   3.793
  468SOL     OW 1416   0.464   1.743   4.047
  468SOL    HW1 1417   0.497   1.782   4.133
  468SOL    HW2 1418   0.540   1.736   3.982
  469SOL     OW 1419   1.400   0.107   4.150
  469SOL    HW1 1420   1.376   0.070   4.060
  469SOL    HW2 1421   1.499   0.123   4.154
  470SOL     OW 1422   0.249   1.785   4.965
  470SOL    HW1 1423   0.306   1.720   5.015
  470SOL    HW2 1424   0.233   1.752   4.872
  471SOL     OW 1425   0.940   1.698   4.628
  471SOL    HW1 1426   1.020   1.641   4.649
  471SOL    HW2 1427   0.891   1.658   4.551
  472SOL     OW 1428   0.382   0.700   4.204
  472SOL    HW1 1429   0.427   0.610   4.201
  472SOL    HW2 1430   0.288   0.689   4.237
  473SOL     OW 1431   0.614   0.122   3.841
  473SOL    HW1 1432   0.712   0.100   3.848
  473SOL    HW2 1433   0.583   0.105   3.748
  474SOL     OW 1434   0.803   1.402   4.648
  474SOL    HW1 1435   0.893   1.416   4.606
  474SOL    HW2 1436   0.732   1.404   4.577
  475SOL     OW 1437   0.922   0.503   4.623
  475SOL    HW1 1438   0.897   0.494   4.527
  475SOL    HW2 1439   0.970   0.421   4.654
  476SOL     OW 1440   0.539   0.064   4.236
  476SOL    HW1 1441   0.458   0.065   4.294
  476SOL    HW2 1442   0.542   0.147   4.181
  477SOL     OW 1443   1.434   1.188   3.765
  477SOL    HW1 1444   1.466   1.112   3.822
  477SOL    HW2 1445   1.342   1.215   3.795
  478SOL     OW 1446   0.297   0.035   3.895
  478SOL    HW1 1447   0.346   0.119   3.874
  478SOL    HW2 1448   0.359  -0.030   3.940
  479SOL     OW 1449   0.935   0.236   4.204
  479SOL    HW1 1450   0.887   0.277   4.126
  479SOL    HW2 1451   1.034   0.234   4.185
  480SOL     OW 1452   1.227   1.570   4.517
  480SOL    HW1 1453   1.248   1.644   4.452
  480SOL    HW2 1454   1.295   1.570   4.590
  481SOL     OW 1455   0.459   1.152   4.465
  481SOL    HW1 1456   0.388   1.125   4.530
  481SOL    HW2 1457   0.433   1.124   4.372
  482SOL     OW 1458   1.271   1.797   4.315
  482SOL    HW1 1459   1.315   1.861   4.251
  482SOL    HW2 1460   1.221   1.849   4.385
  483SOL     OW 1461   1.032   0.549   3.740
  483SOL    HW1 1462   0.991   0.631   3.701
  483SOL    HW2 1463   1.096   0.575   3.813
  484SOL     OW 1464   0.866   0.454   4.366
  484SOL    HW1 1465   0.834   0.526   4.304
  484SOL    HW2 1466   0.890   0.373   4.313
  485SOL     OW 1467   1.017   0.039   4.477
  485SOL    HW1 1468   0.945   0.044   4.408
  485SOL    HW2 1469   0.993  -0.030   4.546
  486SOL     OW 1470   1.429   1.173   4.591
  486SOL    HW1 1471   1.374   1.089   4.584
  486SOL    HW2 1472   1.455   1.202   4.499
  487SOL     OW 1473   1.466   0.590   4.716
  487SOL    HW1 1474   1.436   0.495   4.723
  487SOL    HW2 1475   1.539   0.606   4.782
  488SOL     OW 1476   1.857   0.833   4.101
  488SOL    HW1 1477   1.899   0.769   4.165
  488SOL    HW2 1478   1.819   0.782   4.023
  489SOL     OW 1479   0.488   1.385   3.898
  489SOL    HW1 1480   0.401   1.370   3.945
  489SOL    HW2 1481   0.471   1.411   3.803
  490SOL     OW 1482   1.664   1.280   4.381
  490SOL    HW1 1483   1.763   1.288   4.395
  490SOL    HW2 1484   1.619   1.364   4.412
  491SOL     OW 1485   1.390   0.575   3.802
  491SOL    HW1 1486   1.336   0.554   3.883
  491SOL    HW2 1487   1.481   0.534   3.811
  492SOL     OW 1488   0.527   0.256   4.052
  492SOL    HW1 1489   0.554   0.197   3.977
  492SOL    HW2 1490   0.527   0.351   4.021
  493SOL     OW 1491   1.111   1.195   4.824
  493SOL    HW1 1492   1.071   1.239   4.905
  493SOL    HW2 1493   1.070   1.232   4.741
  494SOL     OW 1494   1.638   1.099   4.803
  494SOL    HW1 1495   1.643   1.180   4.862
  494SOL    HW2 1496   1.552   1.101   4.752
  495SOL     OW 1497   0.705   1.050   4.092
  495SOL    HW1 1498   0.691   1.057   4.191
  495SOL    HW2 1499   0.789   0.999   4.074
  496SOL     OW 1500   0.410   0.813   4.975
  496SOL    HW1 1501   0.496   0.825   5.025
  496SOL    HW2 1502   0.368   0.726   5.002
  497SOL     OW 1503   0.367   1.100   4.225
  497SOL    HW1 1504   0.360   1.183   4.169
  497SOL    HW2 1505   0.371   1.020   4.165
  498SOL     OW 1506   0.566   0.537   4.589
  498SOL    HW1 1507   0.578   0.603   4.515
  498SOL    HW2 1508   0.612   0.571   4.672
  499SOL     OW 1509   1.252   1.348   4.112
  499SOL    HW1 1510   1.302   1.425   4.152
  499SOL    HW2 1511   1.157   1.350   4.144
  500SOL     OW 1512   1.272   1.445   4.866
  500SOL    HW1 1513   1.319   1.458   4.953
  500SOL    HW2 1514   1.206   1.371   4.875
  501SOL     OW 1515   1.582   0.639   4.196
  501SOL    HW1 1516   1.551   0.700   4.269
  501SOL    HW2 1517   1.632   0.691   4.127
  502SOL     OW 1518   0.573   0.870   4.753
  502SOL    HW1 1519   0.617   0.959   4.744
  502SOL    HW2 1520   0.510   0.870   4.830
  503SOL     OW 1521   1.209   0.525   3.999
  503SOL    HW1 1522   1.222   0.441   4.053
  503SOL    HW2 1523   1.180   0.599   4.059
  504SOL     OW 1524   0.307   0.213   4.955
  504SOL    HW1 1525   0.284   0.250   5.045
  504SOL    HW2 1526   0.277   0.118   4.949
  505SOL     OW 1527   0.732   0.634   4.788
  505SOL    HW1 1528   0.791   0.608   4.712
  505SOL    HW2 1529   0.704   0.730   4.777
  506SOL     OW 1530   0.307   0.063   4.342
  506SOL    HW1 1531   0.296   0.157   4.375
  506SOL    HW2 1532   0.302   0.000   4.419
  507SOL     OW 1533   1.622   0.367   4.098
  507SOL    HW1 1534   1.624   0.291   4.162
  507SOL    HW2 1535   1.574   0.444   4.138
  508SOL     OW 1536   1.023   0.766   4.690
  508SOL    HW1 1537   1.038   0.787   4.786
  508SOL    HW2 1538   0.993   0.671   4.681
  509SOL     OW 1539   1.540   0.274   3.849
  509SOL    HW1 1540   1.479   0.199   3.872
  509SOL    HW2 1541   1.562   0.326   3.932
  510SOL     OW 1542   1.303   0.838   3.766
  510SOL    HW1 1543   1.337   0.745   3.781
  510SOL    HW2 1544   1.321   0.865   3.671
  511SOL     OW 1545   1.068   1.333   4.573
  511SOL    HW1 1546   1.075   1.249   4.518
  511SOL    HW2 1547   1.130   1.402   4.537
  512SOL     OW 1548   0.319   0.810   4.673
  512SOL    HW1 1549   0.412   0.846   4.678
  512SOL    HW2 1550   0.313   0.725   4.725
  513SOL     OW 1551   0.339   0.509   4.730
  513SOL    HW1 1552   0.287   0.426   4.713
  513SOL    HW2 1553   0.416   0.514   4.666
  514SOL     OW 1554   0.008   1.326   3.924
  514SOL    HW1 1555  -0.085   1.347   3.893
  514SOL    HW2 1556   0.018   1.227   3.937
  515SOL     OW 1557   0.088   1.801   4.651
  515SOL    HW1 1558   0.046   1.715   4.624
  515SOL    HW2 1559   0.182   1.804   4.617
  516SOL     OW 1560   0.504   1.568   4.634
  516SOL    HW1 1561   0.570   1.642   4.643
  516SOL    HW2 1562   0.548   1.489   4.592
  517SOL     OW 1563   1.002   0.796   4.962
  517SOL    HW1 1564   1.043   0.764   5.048
  517SOL    HW2 1565   0.906   0.769   4.959
  518SOL     OW 1566   0.040   0.544   4.838
  518SOL    HW1 1567   0.125   0.511   4.797
  518SOL    HW2 1568   0.053   0.559   4.936
  519SOL     OW 1569   0.815   0.572   4.049
  519SOL    HW1 1570   0.822   0.483   4.003
  519SOL    HW2 1571   0.721   0.606   4.041
  520SOL     OW 1572   1.657   0.604   4.930
  520SOL    HW1 1573   1.619   0.535   4.992
  520SOL    HW2 1574   1.739   0.568   4.886
  521SOL     OW 1575   0.671   0.464   4.993
  521SOL    HW1 1576   0.637   0.375   4.963
  521SOL    HW2 1577   0.697   0.518   4.913
  522SOL     OW 1578   0.473   0.500   3.915
  522SOL    HW1 1579   0.534   0.580   3.919
  522SOL    HW2 1580   0.378   0.531   3.922
  523SOL     OW 1581   1.302   0.855   4.033
  523SOL    HW1 1582   1.216   0.824   4.075
  523SOL    HW2 1583   1.298   0.841   3.934
  524SOL     OW 1584   1.759   1.747   4.878
  524SOL    HW1 1585   1.820   1.777   4.805
  524SOL    HW2 1586   1.721   1.658   4.856
  525SOL     OW 1587   0.083   1.258   4.746
  525SOL    HW1 1588   0.078   1.257   4.846
  525SOL    HW2 1589   0.000   1.217   4.708
  526SOL     OW 1590   1.726   0.135   4.247
  526SOL    HW1 1591   1.799   0.118   4.180
  526SOL    HW2 1592   1.695   0.048   4.285
  527SOL     OW 1593   1.388   1.573   4.201
  527SOL    HW1 1594   1.455   1.585   4.127
  527SOL    HW2 1595   1.348   1.662   4.224
  528SOL     OW 1596   1.280   0.927   4.396
  528SOL    HW1 1597   1.340   0.846   4.398
  528SOL    HW2 1598   1.320   0.996   4.336
  529SOL     OW 1599   0.672   1.616   3.878
  529SOL    HW1 1600   0.681   1.626   3.779
  529SOL    HW2 1601   0.632   1.527   3.899
  530SOL     OW 1602   1.841   0.175   4.687
  530SOL    HW1 1603   1.880   0.090   4.651
  530SOL    HW2 1604   1.743   0.177   4.668
  531SOL     OW 1605   0.263   0.326   4.444
  531SOL    HW1 1606   0.184   0.377   4.410
  531SOL    HW2 1607   0.254   0.311   4.542
  532SOL     OW 1608   1.194   1.612   3.755
  532SOL    HW1 1609   1.200   1.519   3.792
  532SOL    HW2 1610   1.135   1.612   3.675
  533SOL     OW 1611   0.822   1.002   5.096
  533SOL    HW1 1612   0.862   1.001   5.004
  533SOL    HW2 1613   0.832   1.094   5.136
  534SOL     OW 1614   0.916   0.910   4.015
  534SOL    HW1 1615   0.979   0.948   3.947
  534SOL    HW2 1616   0.956   0.827   4.054
  535SOL     OW 1617   1.504   1.607   3.768
  535SOL    HW1 1618   1.412   1.644   3.775
  535SOL    HW2 1619   1.542   1.627   3.678
  536SOL     OW 1620   1.039   1.098   4.420
  536SOL    HW1 1621   0.969   1.051   4.474
  536SOL    HW2 1622   1.098   1.030   4.377
  537SOL     OW 1623   1.014   0.236   4.695
  537SOL    HW1 1624   1.006   0.200   4.602
  537SOL    HW2 1625   1.012   0.160   4.760
  538SOL     OW 1626   0.590   1.487   4.215
  538SOL    HW1 1627   0.632   1.429   4.145
  538SOL    HW2 1628   0.546   1.566   4.171
  539SOL     OW 1629   1.709   0.385   5.105
  539SOL    HW1 1630   1.782   0.454   5.109
  539SOL    HW2 1631   1.737   0.310   5.046
  540SOL     OW 1632   0.255   1.348   4.014
  540SOL    HW1 1633   0.159   1.349   3.987
  540SOL    HW2 1634   0.267   1.401   4.098
  541SOL     OW 1635   0.075   0.345   3.757
  541SOL    HW1 1636  -0.017   0.317   3.728
  541SOL    HW2 1637   0.106   0.422   3.701
  542SOL     OW 1638   0.072   0.166   4.042
  542SOL    HW1 1639   0.055   0.249   3.988
  542SOL    HW2 1640   0.162   0.129   4.020
  543SOL     OW 1641   1.183   1.335   3.843
  543SOL    HW1 1642   1.084   1.324   3.845
  543SOL    HW2 1643   1.217   1.350   3.936
  544SOL     OW 1644   1.493   1.767   4.683
  544SOL    HW1 1645   1.526   1.831   4.614
  544SOL    HW2 1646   1.559   1.761   4.758
  545SOL     OW 1647   1.674   0.883   4.978
  545SOL    HW1 1648   1.647   0.794   4.941
  545SOL    HW2 1649   1.675   0.951   4.905
  546SOL     OW 1650   1.225   0.325   4.173
  546SOL    HW1 1651   1.290   0.251   4.162
  546SOL    HW2 1652   1.245   0.375   4.257
  547SOL     OW 1653   0.594   0.745   4.376
  547SOL    HW1 1654   0.644   0.830   4.357
  547SOL    HW2 1655   0.506   0.747   4.328
  548SOL     OW 1656   0.859   1.374   3.740
  548SOL    HW1 1657   0.813   1.389   3.828
  548SOL    HW2 1658   0.903   1.459   3.710
  549SOL     OW 1659   0.661   1.790   4.677
  549SOL    HW1 1660   0.615   1.878   4.664
  549SOL    HW2 1661   0.760   1.802   4.670
  550SOL     OW 1662   0.859   0.956   4.585
  550SOL    HW1 1663   0.913   0.887   4.633
  550SOL    HW2 1664   0.827   1.025   4.651
  551SOL     OW 1665   1.083   0.984   3.811
  551SOL    HW1 1666   1.060   1.037   3.729
  551SOL    HW2 1667   1.164   0.928   3.792
  552SOL     OW 1668   1.861   1.569   4.575
  552SOL    HW1 1669   1.790   1.557   4.505
  552SOL    HW2 1670   1.862   1.490   4.635
  553SOL     OW 1671   0.079   1.240   4.377
  553SOL    HW1 1672   0.078   1.193   4.465
  553SOL    HW2 1673   0.161   1.212   4.326
  554SOL     OW 1674   1.824   0.192   4.951
  554SOL    HW1 1675   1.820   0.102   4.995
  554SOL    HW2 1676   1.827   0.181   4.852
  555SOL     OW 1677   0.428   0.424   4.244
  555SOL    HW1 1678   0.458   0.352   4.182
  555SOL    HW2 1679   0.389   0.384   4.327
  556SOL     OW 1680   1.705   1.487   4.828
  556SOL    HW1 1681   1.612   1.462   4.801
  556SOL    HW2 1682   1.731   1.437   4.910
  557SOL     OW 1683   0.812   1.586   4.411
  557SOL    HW1 1684   0.844   1.596   4.317
  557SOL    HW2 1685   0.733   1.524   4.413
  558SOL     OW 1686   1.424   0.214   4.836
  558SOL    HW1 1687   1.476   0.149   4.891
  558SOL    HW2 1688   1.375   0.277   4.897
  559SOL     OW 1689   0.770   1.330   4.025
  559SOL    HW1 1690   0.724   1.243   4.042
  559SOL    HW2 1691   0.861   1.327   4.066
  560SOL     OW 1692   1.352   0.052   3.892
  560SOL    HW1 1693   1.387   0.011   3.808
  560SOL    HW2 1694   1.262   0.014   3.912
  561SOL     OW 1695   1.300   0.453   4.415
  561SOL    HW1 1696   1.241   0.533   4.419
  561SOL    HW2 1697   1.315   0.418   4.508
  562SOL     OW 1698   1.593   0.221   4.606
  562SOL    HW1 1699   1.509   0.220   4.660
  562SOL    HW2 1700   1.595   0.304   4.550
  563SOL     OW 1701   0.039   1.077   4.024
  563SOL    HW1 1702   0.138   1.066   4.015
  563SOL    HW2 1703  -0.001   0.991   4.056
  564SOL     OW 1704   0.875   1.646   4.061
  564SOL    HW1 1705   0.798   1.611   4.007
  564SOL    HW2 1706   0.843   1.717   4.123
  565SOL     OW 1707   0.230   2.490   0.113
  565SOL    HW1 1708   0.137   2.488   0.150
  565SOL    HW2 1709   0.231   2.451   0.021
  566SOL     OW 1710   0.225   2.137   0.996
  566SOL    HW1 1711   0.260   2.120   1.088
  566SOL    HW2 1712   0.137   2.092   0.984
  567SOL     OW 1713   0.019   2.230   0.647
  567SOL    HW1 1714  -0.063   2.273   0.686
  567SOL    HW2 1715  -0.009   2.157   0.584
  568SOL     OW 1716   0.569   3.137   1.165
  568SOL    HW1 1717   0.476   3.130   1.128
  568SOL    HW2 1718   0.580   3.226   1.209
  569SOL     OW 1719   1.555   3.373   0.703
  569SOL    HW1 1720   1.498   3.357   0.784
  569SOL    HW2 1721   1.496   3.383   0.623
  570SOL     OW 1722   1.135   2.565   0.717
  570SOL    HW1 1723   1.192   2.643   0.692
  570SOL    HW2 1724   1.075   2.591   0.793
  571SOL     OW 1725   1.755   2.469   0.231
  571SOL    HW1 1726   1.743   2.456   0.132
  571SOL    HW2 1727   1.725   2.388   0.280
  572SOL     OW 1728   0.768   3.006   1.023
  572SOL    HW1 1729   0.690   3.023   1.083
  572SOL    HW2 1730   0.802   3.093   0.987
  573SOL     OW 1731   0.850   2.660   1.823
  573SOL    HW1 1732   0.846   2.736   1.888
  573SOL    HW2 1733   0.872   2.696   1.732
  574SOL     OW 1734   0.685   2.874   0.665
  574SOL    HW1 1735   0.754   2.858   0.735
  574SOL    HW2 1736   0.612   2.931   0.703
  575SOL     OW 1737   0.686   3.023   1.803
  575SOL    HW1 1738   0.746   3.102   1.817
  575SOL    HW2 1739   0.600   3.054   1.762
  576SOL     OW 1740   0.335   3.297   1.061
  576SOL    HW1 1741   0.257   3.266   1.008
  576SOL    HW2 1742   0.393   3.355   1.004
  577SOL     OW 1743   1.460   3.367   1.339
  577SOL    HW1 1744   1.484   3.461   1.365
  577SOL    HW2 1745   1.444   3.313   1.421
  578SOL     OW 1746   0.438   2.254   1.499
  578SOL    HW1 1747   0.520   2.198   1.508
  578SOL    HW2 1748   0.357   2.196   1.503
  579SOL     OW 1749   1.603   2.309   0.737
  579SOL    HW1 1750   1.529   2.355   0.687
  579SOL    HW2 1751   1.654   2.377   0.790
  580SOL     OW 1752   0.231   3.575   0.483
  580SOL    HW1 1753   0.265   3.652   0.537
  580SOL    HW2 1754   0.275   3.575   0.393
  581SOL     OW 1755   1.127   3.203   1.690
  581SOL    HW1 1756   1.174   3.203   1.778
  581SOL    HW2 1757   1.079   3.116   1.679
  582SOL     OW 1758   0.230   3.296   0.538
  582SOL    HW1 1759   0.204   3.392   0.538
  582SOL    HW2 1760   0.159   3.242   0.583
  583SOL     OW 1761   0.240   2.953   0.886
  583SOL    HW1 1762   0.254   2.869   0.938
  583SOL    HW2 1763   0.185   3.017   0.941
  584SOL     OW 1764   0.620   3.648   1.439
  584SOL    HW1 1765   0.528   3.631   1.474
  584SOL    HW2 1766   0.648   3.740   1.465
  585SOL     OW 1767   0.606   2.826   0.123
  585SOL    HW1 1768   0.613   2.910   0.069
  585SOL    HW2 1769   0.652   2.839   0.211
  586SOL     OW 1770   1.594   1.976   1.480
  586SOL    HW1 1771   1.576   2.043   1.408
  586SOL    HW2 1772   1.591   2.022   1.569
  587SOL     OW 1773   0.122   2.505   0.563
  587SOL    HW1 1774   0.077   2.417   0.580
  587SOL    HW2 1775   0.121   2.559   0.647
  588SOL     OW 1776   1.842   3.629   0.359
  588SOL    HW1 1777   1.896   3.600   0.439
  588SOL    HW2 1778   1.872   3.719   0.330
  589SOL     OW 1779   0.027   3.458   0.117
  589SOL    HW1 1780   0.008   3.362   0.138
  589SOL    HW2 1781  -0.006   3.516   0.192
  590SOL     OW 1782   1.689   2.784   0.612
  590SOL    HW1 1783   1.784   2.755   0.620
  590SOL    HW2 1784   1.681   2.849   0.537
  591SOL     OW 1785   1.641   2.970   0.432
  591SOL    HW1 1786   1.727   2.972   0.380
  591SOL    HW2 1787   1.655   3.017   0.520
  592SOL     OW 1788   0.113   2.599   1.597
  592SOL    HW1 1789   0.201   2.586   1.642
  592SOL    HW2 1790   0.100   2.696   1.575
  593SOL     OW 1791   0.613   3.227   0.726
  593SOL    HW1 1792   0.564   3.140   0.735
  593SOL    HW2 1793   0.590   3.270   0.639
  594SOL     OW 1794   1.293   3.090   1.423
  594SOL    HW1 1795   1.330   3.017   1.365
  594SOL    HW2 1796   1.345   3.095   1.508
  595SOL     OW 1797   0.809   1.866   0.502
  595SOL    HW1 1798   0.849   1.957   0.493
  595SOL    HW2 1799   0.709   1.874   0.508
  596SOL     OW 1800   0.197   2.838   1.264
  596SOL    HW1 1801   0.286   2.793   1.250
  596SOL    HW2 1802   0.124   2.773   1.245
  597SOL     OW 1803   1.525   2.861   0.190
  597SOL    HW1 1804   1.462   2.785   0.203
  597SOL    HW2 1805   1.573   2.879   0.276
  598SOL     OW 1806   1.187   3.654   1.616
  598SOL    HW1 1807   1.211   3.714   1.540
  598SOL    HW2 1808   1.194   3.559   1.586
  599SOL     OW 1809   0.317   2.113   1.801
  599SOL    HW1 1810   0.388   2.184   1.807
  599SOL    HW2 1811   0.229   2.152   1.829
  600SOL     OW 1812   1.466   3.279   0.953
  600SOL    HW1 1813   1.407   3.285   1.033
  600SOL    HW2 1814   1.451   3.191   0.907
  601SOL     OW 1815   1.667   3.576   0.572
  601SOL    HW1 1816   1.626   3.553   0.484
  601SOL    HW2 1817   1.649   3.502   0.637
  602SOL     OW 1818   0.598   2.591   0.270
  602SOL    HW1 1819   0.622   2.660   0.202
  602SOL    HW2 1820   0.520   2.624   0.324
  603SOL     OW 1821   1.281   2.207   0.944
  603SOL    HW1 1822   1.195   2.157   0.931
  603SOL    HW2 1823   1.343   2.153   1.000
  604SOL     OW 1824   1.576   3.524   0.307
  604SOL    HW1 1825   1.665   3.570   0.310
  604SOL    HW2 1826   1.555   3.500   0.212
  605SOL     OW 1827   0.807   2.467   1.465
  605SOL    HW1 1828   0.760   2.464   1.554
  605SOL    HW2 1829   0.756   2.412   1.399
  606SOL     OW 1830   1.394   2.331   1.674
  606SOL    HW1 1831   1.374   2.374   1.762
  606SOL    HW2 1832   1.472   2.269   1.683
  607SOL     OW 1833   0.973   2.752   1.572
  607SOL    HW1 1834   1.019   2.668   1.543
  607SOL    HW2 1835   0.917   2.786   1.497
  608SOL     OW 1836   0.991   2.272   1.242
  608SOL    HW1 1837   0.914   2.306   1.296
  608SOL    HW2 1838   0.957   2.221   1.163
  609SOL     OW 1839   1.041   2.563   0.429
  609SOL    HW1 1840   1.067   2.559   0.525
  609SOL    HW2 1841   0.956   2.512   0.415
  610SOL     OW 1842   0.076   2.673   0.789
  610SOL    HW1 1843   0.175   2.661   0.798
  610SOL    HW2 1844   0.052   2.768   0.810
  611SOL     OW 1845   0.130   3.683   1.571
  611SOL    HW1 1846   0.120   3.668   1.670
  611SOL    HW2 1847   0.044   3.719   1.535
  612SOL     OW 1848   0.865   2.210   0.195
  612SOL    HW1 1849   0.924   2.273   0.146
  612SOL    HW2 1850   0.884   2.116   0.166
  613SOL     OW 1851   1.719   2.447   1.831
  613SOL    HW1 1852   1.693   2.536   1.795
  613SOL    HW2 1853   1.717   2.379   1.758
  614SOL     OW 1854   1.362   3.006   0.545
  614SOL    HW1 1855   1.445   2.977   0.497
  614SOL    HW2 1856   1.313   3.073   0.489
  615SOL     OW 1857   0.550   2.058   0.885
  615SOL    HW1 1858   0.545   2.053   0.985
  615SOL    HW2 1859   0.552   2.154   0.856
  616SOL     OW 1860   1.008   3.318   0.477
  616SOL    HW1 1861   0.962   3.390   0.425
  616SOL    HW2 1862   1.004   3.338   0.575
  617SOL     OW 1863   0.351   3.663   0.853
  617SOL    HW1 1864   0.401   3.577   0.859
  617SOL    HW2 1865   0.416   3.740   0.850
  618SOL     OW 1866   1.795   2.928   0.873
  618SOL    HW1 1867   1.733   2.913   0.797
  618SOL    HW2 1868   1.743   2.939   0.958
  619SOL     OW 1869   1.227   3.412   1.506
  619SOL    HW1 1870   1.233   3.335   1.570
  619SOL    HW2 1871   1.175   3.386   1.426
  620SOL     OW 1872   0.321   2.805   0.242
  620SOL    HW1 1873   0.403   2.844   0.200
  620SOL    HW2 1874   0.294   2.723   0.193
  621SOL     OW 1875   1.458   2.597   0.728
  621SOL    HW1 1876   1.453   2.532   0.803
  621SOL    HW2 1877   1.538   2.656   0.741
  622SOL     OW 1878   0.461   3.128   1.727
  622SOL    HW1 1879   0.411   3.129   1.641
  622SOL    HW2 1880   0.398   3.110   1.803
  623SOL     OW 1881   1.111   3.638   0.237
  623SOL    HW1 1882   1.051   3.576   0.287
  623SOL    HW2 1883   1.142   3.594   0.152
  624SOL     OW 1884   0.202   2.147   1.498
  624SOL    HW1 1885   0.122   2.207   1.485
  624SOL    HW2 1886   0.192   2.098   1.584
  625SOL     OW 1887   1.632   3.239   0.081
  625SOL    HW1 1888   1.600   3.333   0.071
  625SOL    HW2 1889   1.556   3.176   0.069
  626SOL     OW 1890   0.464   3.605   0.323
  626SOL    HW1 1891   0.497   3.644   0.409
  626SOL    HW2 1892   0.540   3.598   0.258
  627SOL     OW 1893   1.400   1.969   0.426
  627SOL    HW1 1894   1.376   1.932   0.336
  627SOL    HW2 1895   1.499   1.985   0.430
  628SOL     OW 1896   0.249   3.647   1.241
  628SOL    HW1 1897   0.306   3.582   1.291
  628SOL    HW2 1898   0.233   3.614   1.148
  629SOL     OW 1899   0.940   3.560   0.904
  629SOL    HW1 1900   1.020   3.503   0.925
  629SOL    HW2 1901   0.891   3.520   0.827
  630SOL     OW 1902   0.382   2.562   0.480
  630SOL    HW1 1903   0.427   2.472   0.477
  630SOL    HW2 1904   0.288   2.551   0.513
  631SOL     OW 1905   1.547   2.084   1.729
  631SOL    HW1 1906   1.542   2.121   1.821
  631SOL    HW2 1907   1.475   2.015   1.717
  632SOL     OW 1908   0.614   1.984   0.117
  632SOL    HW1 1909   0.712   1.962   0.124
  632SOL    HW2 1910   0.583   1.967   0.024
  633SOL     OW 1911   0.781   2.126   1.749
  633SOL    HW1 1912   0.848   2.065   1.792
  633SOL    HW2 1913   0.708   2.145   1.814
  634SOL     OW 1914   0.888   3.376   1.195
  634SOL    HW1 1915   0.865   3.351   1.101
  634SOL    HW2 1916   0.949   3.307   1.234
  635SOL     OW 1917   1.351   2.452   1.433
  635SOL    HW1 1918   1.379   2.409   1.518
  635SOL    HW2 1919   1.376   2.548   1.434
  636SOL     OW 1920   0.803   3.264   0.924
  636SOL    HW1 1921   0.893   3.278   0.882
  636SOL    HW2 1922   0.732   3.266   0.853
  637SOL     OW 1923   0.922   2.365   0.899
  637SOL    HW1 1924   0.897   2.356   0.803
  637SOL    HW2 1925   0.970   2.283   0.930
  638SOL     OW 1926   0.539   1.926   0.512
  638SOL    HW1 1927   0.458   1.927   0.570
  638SOL    HW2 1928   0.542   2.009   0.457
  639SOL     OW 1929   1.434   3.050   0.041
  639SOL    HW1 1930   1.466   2.974   0.098
  639SOL    HW2 1931   1.342   3.077   0.071
  640SOL     OW 1932   0.297   1.897   0.171
  640SOL    HW1 1933   0.346   1.981   0.150
  640SOL    HW2 1934   0.359   1.832   0.216
  641SOL     OW 1935   0.935   2.098   0.480
  641SOL    HW1 1936   0.887   2.139   0.402
  641SOL    HW2 1937   1.034   2.096   0.461
  642SOL     OW 1938   1.076   2.545   1.464
  642SOL    HW1 1939   0.996   2.484   1.467
  642SOL    HW2 1940   1.157   2.492   1.440
  643SOL     OW 1941   1.227   3.432   0.793
  643SOL    HW1 1942   1.248   3.506   0.728
  643SOL    HW2 1943   1.295   3.432   0.866
  644SOL     OW 1944   0.459   3.014   0.741
  644SOL    HW1 1945   0.388   2.987   0.806
  644SOL    HW2 1946   0.433   2.986   0.648
  645SOL     OW 1947   1.271   3.659   0.591
  645SOL    HW1 1948   1.315   3.723   0.527
  645SOL    HW2 1949   1.221   3.711   0.661
  646SOL     OW 1950   1.032   2.411   0.016
  646SOL    HW1 1951   0.991   2.493  -0.023
  646SOL    HW2 1952   1.096   2.437   0.089
  647SOL     OW 1953   0.078   2.418   1.386
  647SOL    HW1 1954   0.170   2.417   1.345
  647SOL    HW2 1955   0.072   2.492   1.453
  648SOL     OW 1956   0.561   2.084   1.147
  648SOL    HW1 1957   0.599   2.000   1.184
  648SOL    HW2 1958   0.473   2.103   1.191
  649SOL     OW 1959   0.866   2.316   0.642
  649SOL    HW1 1960   0.834   2.388   0.580
  649SOL    HW2 1961   0.890   2.235   0.589
  650SOL     OW 1962   1.017   1.901   0.753
  650SOL    HW1 1963   0.945   1.906   0.684
  650SOL    HW2 1964   0.993   1.832   0.822
  651SOL     OW 1965   1.429   3.035   0.867
  651SOL    HW1 1966   1.374   2.951   0.860
  651SOL    HW2 1967   1.455   3.064   0.775
  652SOL     OW 1968   1.466   2.452   0.992
  652SOL    HW1 1969   1.436   2.357   0.999
  652SOL    HW2 1970   1.539   2.468   1.058
  653SOL     OW 1971   1.857   2.695   0.377
  653SOL    HW1 1972   1.899   2.631   0.441
  653SOL    HW2 1973   1.819   2.644   0.299
  654SOL     OW 1974   0.488   3.247   0.174
  654SOL    HW1 1975   0.401   3.232   0.221
  654SOL    HW2 1976   0.471   3.273   0.079
  655SOL     OW 1977   1.664   3.142   0.657
  655SOL    HW1 1978   1.763   3.150   0.671
  655SOL    HW2 1979   1.619   3.226   0.688
  656SOL     OW 1980   1.390   2.437   0.078
  656SOL    HW1 1981   1.336   2.416   0.159
  656SOL    HW2 1982   1.481   2.396   0.087
  657SOL     OW 1983   0.527   2.118   0.328
  657SOL    HW1 1984   0.554   2.059   0.253
  657SOL    HW2 1985   0.527   2.213   0.297
  658SOL     OW 1986   1.754   3.085   1.588
  658SOL    HW1 1987   1.845   3.046   1.575
  658SOL    HW2 1988   1.762   3.181   1.612
  659SOL     OW 1989   1.064   3.209   1.340
  659SOL    HW1 1990   0.984   3.186   1.395
  659SOL    HW2 1991   1.147   3.183   1.389
  660SOL     OW 1992   1.592   3.491   1.625
  660SOL    HW1 1993   1.619   3.525   1.535
  660SOL    HW2 1994   1.671   3.453   1.671
  661SOL     OW 1995   1.111   3.057   1.100
  661SOL    HW1 1996   1.071   3.101   1.181
  661SOL    HW2 1997   1.070   3.094   1.017
  662SOL     OW 1998   1.638   2.961   1.079
  662SOL    HW1 1999   1.643   3.042   1.138
  662SOL    HW2 2000   1.552   2.963   1.028
  663SOL     OW 2001   0.915   1.951   1.402
  663SOL    HW1 2002   0.940   1.931   1.307
  663SOL    HW2 2003   0.987   2.007   1.444
  664SOL     OW 2004   0.980   2.978   1.719
  664SOL    HW1 2005   0.881   2.984   1.729
  664SOL    HW2 2006   1.003   2.898   1.663
  665SOL     OW 2007   0.705   2.912   0.368
  665SOL    HW1 2008   0.691   2.919   0.467
  665SOL    HW2 2009   0.789   2.861   0.350
  666SOL     OW 2010   0.410   2.675   1.251
  666SOL    HW1 2011   0.496   2.687   1.301
  666SOL    HW2 2012   0.368   2.588   1.278
  667SOL     OW 2013   1.274   2.248   1.262
  667SOL    HW1 2014   1.295   2.322   1.326
  667SOL    HW2 2015   1.185   2.265   1.219
  668SOL     OW 2016   0.064   3.426   1.331
  668SOL    HW1 2017   0.018   3.508   1.297
  668SOL    HW2 2018   0.162   3.445   1.340
  669SOL     OW 2019   0.367   2.962   0.501
  669SOL    HW1 2020   0.360   3.045   0.445
  669SOL    HW2 2021   0.371   2.882   0.441
  670SOL     OW 2022   0.566   2.399   0.865
  670SOL    HW1 2023   0.578   2.465   0.791
  670SOL    HW2 2024   0.612   2.433   0.948
  671SOL     OW 2025   1.252   3.210   0.388
  671SOL    HW1 2026   1.302   3.287   0.428
  671SOL    HW2 2027   1.157   3.212   0.420
  672SOL     OW 2028   1.272   3.307   1.142
  672SOL    HW1 2029   1.319   3.320   1.229
  672SOL    HW2 2030   1.206   3.233   1.151
  673SOL     OW 2031   1.582   2.501   0.472
  673SOL    HW1 2032   1.551   2.562   0.545
  673SOL    HW2 2033   1.632   2.553   0.403
  674SOL     OW 2034   0.354   3.372   1.329
  674SOL    HW1 2035   0.333   3.328   1.242
  674SOL    HW2 2036   0.451   3.398   1.332
  675SOL     OW 2037   0.402   2.613   1.598
  675SOL    HW1 2038   0.470   2.668   1.551
  675SOL    HW2 2039   0.442   2.525   1.625
  676SOL     OW 2040   1.587   2.641   1.670
  676SOL    HW1 2041   1.495   2.679   1.665
  676SOL    HW2 2042   1.647   2.688   1.605
  677SOL     OW 2043   1.013   1.967   1.770
  677SOL    HW1 2044   1.019   2.052   1.718
  677SOL    HW2 2045   1.045   1.891   1.713
  678SOL     OW 2046   0.504   1.912   1.740
  678SOL    HW1 2047   0.462   1.855   1.670
  678SOL    HW2 2048   0.438   1.981   1.772
  679SOL     OW 2049   0.573   2.732   1.029
  679SOL    HW1 2050   0.617   2.821   1.020
  679SOL    HW2 2051   0.510   2.732   1.106
  680SOL     OW 2052   1.360   2.724   1.045
  680SOL    HW1 2053   1.285   2.724   0.979
  680SOL    HW2 2054   1.397   2.632   1.054
  681SOL     OW 2055   1.209   2.387   0.275
  681SOL    HW1 2056   1.222   2.303   0.329
  681SOL    HW2 2057   1.180   2.461   0.335
  682SOL     OW 2058   0.307   2.075   1.231
  682SOL    HW1 2059   0.284   2.112   1.321
  682SOL    HW2 2060   0.277   1.980   1.225
  683SOL     OW 2061   0.037   3.172   1.282
  683SOL    HW1 2062   0.090   3.123   1.350
  683SOL    HW2 2063   0.059   3.270   1.287
  684SOL     OW 2064   0.732   2.496   1.064
  684SOL    HW1 2065   0.791   2.470   0.988
  684SOL    HW2 2066   0.704   2.592   1.053
  685SOL     OW 2067   1.728   2.797   1.854
  685SOL    HW1 2068   1.682   2.790   1.765
  685SOL    HW2 2069   1.666   2.841   1.920
  686SOL     OW 2070   0.307   1.925   0.618
  686SOL    HW1 2071   0.296   2.019   0.651
  686SOL    HW2 2072   0.302   1.862   0.695
  687SOL     OW 2073   1.622   2.229   0.374
  687SOL    HW1 2074   1.624   2.153   0.438
  687SOL    HW2 2075   1.574   2.306   0.414
  688SOL     OW 2076   1.023   2.628   0.966
  688SOL    HW1 2077   1.038   2.649   1.062
  688SOL    HW2 2078   0.993   2.533   0.957
  689SOL     OW 2079   0.980   3.435   1.700
  689SOL    HW1 2080   0.960   3.479   1.612
  689SOL    HW2 2081   1.019   3.344   1.684
  690SOL     OW 2082   1.859   3.380   1.605
  690SOL    HW1 2083   1.873   3.407   1.510
  690SOL    HW2 2084   1.942   3.402   1.658
  691SOL     OW 2085   0.350   2.760   1.804
  691SOL    HW1 2086   0.426   2.804   1.852
  691SOL    HW2 2087   0.385   2.713   1.722
  692SOL     OW 2088   1.540   2.136   0.125
  692SOL    HW1 2089   1.479   2.061   0.148
  692SOL    HW2 2090   1.562   2.188   0.208
  693SOL     OW 2091   1.303   2.700   0.042
  693SOL    HW1 2092   1.337   2.607   0.057
  693SOL    HW2 2093   1.321   2.727  -0.053
  694SOL     OW 2094   1.068   3.195   0.849
  694SOL    HW1 2095   1.075   3.111   0.794
  694SOL    HW2 2096   1.130   3.264   0.813
  695SOL     OW 2097   0.319   2.672   0.949
  695SOL    HW1 2098   0.412   2.708   0.954
  695SOL    HW2 2099   0.313   2.587   1.001
  696SOL     OW 2100   0.339   2.371   1.006
  696SOL    HW1 2101   0.287   2.288   0.989
  696SOL    HW2 2102   0.416   2.376   0.942
  697SOL     OW 2103   1.138   2.242   1.678
  697SOL    HW1 2104   1.093   2.305   1.742
  697SOL    HW2 2105   1.231   2.273   1.661
  698SOL     OW 2106   1.160   2.069   1.477
  698SOL    HW1 2107   1.160   2.133   1.554
  698SOL    HW2 2108   1.188   2.117   1.394
  699SOL     OW 2109   0.008   3.188   0.200
  699SOL    HW1 2110  -0.085   3.209   0.169
  699SOL    HW2 2111   0.018   3.089   0.213
  700SOL     OW 2112   0.088   3.663   0.927
  700SOL    HW1 2113   0.046   3.577   0.900
  700SOL    HW2 2114   0.182   3.666   0.893
  701SOL     OW 2115   0.504   3.430   0.910
  701SOL    HW1 2116   0.570   3.504   0.919
  701SOL    HW2 2117   0.548   3.351   0.868
  702SOL     OW 2118   1.002   2.658   1.238
  702SOL    HW1 2119   1.043   2.626   1.324
  702SOL    HW2 2120   0.906   2.631   1.235
  703SOL     OW 2121   0.040   2.406   1.114
  703SOL    HW1 2122   0.125   2.373   1.073
  703SOL    HW2 2123   0.053   2.421   1.212
  704SOL     OW 2124   0.189   2.382   1.722
  704SOL    HW1 2125   0.248   2.342   1.652
  704SOL    HW2 2126   0.131   2.453   1.681
  705SOL     OW 2127   1.369   2.812   1.660
  705SOL    HW1 2128   1.408   2.901   1.680
  705SOL    HW2 2129   1.379   2.792   1.563
  706SOL     OW 2130   0.815   2.434   0.325
  706SOL    HW1 2131   0.822   2.345   0.279
  706SOL    HW2 2132   0.721   2.468   0.317
  707SOL     OW 2133   1.657   2.466   1.206
  707SOL    HW1 2134   1.619   2.397   1.268
  707SOL    HW2 2135   1.739   2.430   1.162
  708SOL     OW 2136   0.252   3.426   1.744
  708SOL    HW1 2137   0.222   3.483   1.820
  708SOL    HW2 2138   0.245   3.329   1.770
  709SOL     OW 2139   0.671   2.326   1.269
  709SOL    HW1 2140   0.637   2.237   1.239
  709SOL    HW2 2141   0.697   2.380   1.189
  710SOL     OW 2142   0.930   3.540   1.465
  710SOL    HW1 2143   0.906   3.522   1.370
  710SOL    HW2 2144   0.960   3.634   1.475
  711SOL     OW 2145   0.473   2.362   0.191
  711SOL    HW1 2146   0.534   2.442   0.195
  711SOL    HW2 2147   0.378   2.393   0.198
  712SOL     OW 2148   0.159   2.999   1.466
  712SOL    HW1 2149   0.181   2.938   1.542
  712SOL    HW2 2150   0.169   2.950   1.380
  713SOL     OW 2151   1.347   2.921   1.234
  713SOL    HW1 2152   1.371   2.858   1.160
  713SOL    HW2 2153   1.257   2.961   1.216
  714SOL     OW 2154   1.302   2.717   0.309
  714SOL    HW1 2155   1.216   2.686   0.351
  714SOL    HW2 2156   1.298   2.703   0.210
  715SOL     OW 2157   1.759   3.609   1.154
  715SOL    HW1 2158   1.820   3.639   1.081
  715SOL    HW2 2159   1.721   3.520   1.132
  716SOL     OW 2160   1.252   3.593   1.128
  716SOL    HW1 2161   1.336   3.598   1.074
  716SOL    HW2 2162   1.229   3.497   1.146
  717SOL     OW 2163   0.083   3.120   1.022
  717SOL    HW1 2164   0.078   3.119   1.122
  717SOL    HW2 2165   0.000   3.079   0.984
  718SOL     OW 2166   0.688   3.524   1.716
  718SOL    HW1 2167   0.632   3.605   1.725
  718SOL    HW2 2168   0.740   3.528   1.630
  719SOL     OW 2169   0.903   1.948   0.133
  719SOL    HW1 2170   0.954   1.949   0.047
  719SOL    HW2 2171   0.959   1.906   0.204
  720SOL     OW 2172   1.726   1.997   0.523
  720SOL    HW1 2173   1.799   1.980   0.456
  720SOL    HW2 2174   1.695   1.910   0.561
  721SOL     OW 2175   1.388   3.435   0.477
  721SOL    HW1 2176   1.455   3.447   0.403
  721SOL    HW2 2177   1.348   3.524   0.500
  722SOL     OW 2178   0.130   3.656   1.851
  722SOL    HW1 2179   0.089   3.582   1.904
  722SOL    HW2 2180   0.194   3.707   1.909
  723SOL     OW 2181   1.280   2.789   0.672
  723SOL    HW1 2182   1.340   2.708   0.674
  723SOL    HW2 2183   1.320   2.858   0.612
  724SOL     OW 2184   0.830   3.135   1.422
  724SOL    HW1 2185   0.825   3.168   1.517
  724SOL    HW2 2186   0.744   3.154   1.376
  725SOL     OW 2187   0.672   3.478   0.154
  725SOL    HW1 2188   0.681   3.488   0.055
  725SOL    HW2 2189   0.632   3.389   0.175
  726SOL     OW 2190   1.650   3.582   1.394
  726SOL    HW1 2191   1.703   3.592   1.310
  726SOL    HW2 2192   1.623   3.672   1.428
  727SOL     OW 2193   1.841   2.037   0.963
  727SOL    HW1 2194   1.880   1.952   0.927
  727SOL    HW2 2195   1.743   2.039   0.944
  728SOL     OW 2196   0.263   2.188   0.720
  728SOL    HW1 2197   0.184   2.239   0.686
  728SOL    HW2 2198   0.254   2.173   0.818
  729SOL     OW 2199   1.194   3.474   0.031
  729SOL    HW1 2200   1.200   3.381   0.068
  729SOL    HW2 2201   1.135   3.474  -0.049
  730SOL     OW 2202   0.822   2.864   1.372
  730SOL    HW1 2203   0.862   2.863   1.280
  730SOL    HW2 2204   0.832   2.956   1.412
  731SOL     OW 2205   0.916   2.772   0.291
  731SOL    HW1 2206   0.979   2.810   0.223
  731SOL    HW2 2207   0.956   2.689   0.330
  732SOL     OW 2208   1.504   3.469   0.044
  732SOL    HW1 2209   1.412   3.506   0.051
  732SOL    HW2 2210   1.542   3.489  -0.046
  733SOL     OW 2211   0.372   3.150   1.490
  733SOL    HW1 2212   0.359   3.243   1.456
  733SOL    HW2 2213   0.288   3.098   1.477
  734SOL     OW 2214   1.614   3.154   1.289
  734SOL    HW1 2215   1.674   3.157   1.369
  734SOL    HW2 2216   1.539   3.218   1.302
  735SOL     OW 2217   1.039   2.960   0.696
  735SOL    HW1 2218   0.969   2.913   0.750
  735SOL    HW2 2219   1.098   2.892   0.653
  736SOL     OW 2220   1.014   2.098   0.971
  736SOL    HW1 2221   1.006   2.062   0.878
  736SOL    HW2 2222   1.012   2.022   1.036
  737SOL     OW 2223   0.590   3.349   0.491
  737SOL    HW1 2224   0.632   3.291   0.421
  737SOL    HW2 2225   0.546   3.428   0.447
  738SOL     OW 2226   1.709   2.247   1.381
  738SOL    HW1 2227   1.782   2.316   1.385
  738SOL    HW2 2228   1.737   2.172   1.322
  739SOL     OW 2229   0.255   3.210   0.290
  739SOL    HW1 2230   0.159   3.211   0.263
  739SOL    HW2 2231   0.267   3.263   0.374
  740SOL     OW 2232   0.105   2.875   1.726
  740SOL    HW1 2233   0.028   2.842   1.780
  740SOL    HW2 2234   0.190   2.845   1.768
  741SOL     OW 2235   0.672   2.065   1.489
  741SOL    HW1 2236   0.762   2.049   1.449
  741SOL    HW2 2237   0.680   2.070   1.588
  742SOL     OW 2238   0.075   2.207   0.033
  742SOL    HW1 2239  -0.017   2.179   0.004
  742SOL    HW2 2240   0.106   2.284  -0.023
  743SOL     OW 2241   1.440   2.718   1.398
  743SOL    HW1 2242   1.383   2.770   1.335
  743SOL    HW2 2243   1.536   2.730   1.374
  744SOL     OW 2244   0.072   2.028   0.318
  744SOL    HW1 2245   0.055   2.111   0.264
  744SOL    HW2 2246   0.162   1.991   0.296
  745SOL     OW 2247   1.183   3.197   0.119
  745SOL    HW1 2248   1.084   3.186   0.121
  745SOL    HW2 2249   1.217   3.212   0.212
  746SOL     OW 2250   0.613   2.704   1.431
  746SOL    HW1 2251   0.669   2.785   1.414
  746SOL    HW2 2252   0.672   2.624   1.434
  747SOL     OW 2253   1.493   3.629   0.959
  747SOL    HW1 2254   1.526   3.693   0.890
  747SOL    HW2 2255   1.559   3.623   1.034
  748SOL     OW 2256   0.716   2.427   1.708
  748SOL    HW1 2257   0.735   2.492   1.782
  748SOL    HW2 2258   0.776   2.347   1.717
  749SOL     OW 2259   1.450   3.082   1.633
  749SOL    HW1 2260   1.441   3.072   1.732
  749SOL    HW2 2261   1.546   3.075   1.607
  750SOL     OW 2262   0.390   3.603   1.560
  750SOL    HW1 2263   0.299   3.644   1.558
  750SOL    HW2 2264   0.383   3.509   1.592
  751SOL     OW 2265   1.674   2.745   1.254
  751SOL    HW1 2266   1.647   2.656   1.217
  751SOL    HW2 2267   1.675   2.813   1.181
  752SOL     OW 2268   1.225   2.187   0.449
  752SOL    HW1 2269   1.290   2.113   0.438
  752SOL    HW2 2270   1.245   2.237   0.533
  753SOL     OW 2271   0.594   2.607   0.652
  753SOL    HW1 2272   0.644   2.692   0.633
  753SOL    HW2 2273   0.506   2.609   0.604
  754SOL     OW 2274   1.777   2.204   1.642
  754SOL    HW1 2275   1.760   2.235   1.548
  754SOL    HW2 2276   1.693   2.167   1.680
  755SOL     OW 2277   1.730   2.796   1.517
  755SOL    HW1 2278   1.768   2.887   1.532
  755SOL    HW2 2279   1.722   2.779   1.418
  756SOL     OW 2280   0.859   3.236   0.016
  756SOL    HW1 2281   0.813   3.251   0.104
  756SOL    HW2 2282   0.903   3.321  -0.014
  757SOL     OW 2283   0.661   3.652   0.953
  757SOL    HW1 2284   0.615   3.740   0.940
  757SOL    HW2 2285   0.760   3.664   0.946
  758SOL     OW 2286   0.859   2.818   0.861
  758SOL    HW1 2287   0.913   2.749   0.909
  758SOL    HW2 2288   0.827   2.887   0.927
  759SOL     OW 2289   1.083   2.846   0.087
  759SOL    HW1 2290   1.060   2.899   0.005
  759SOL    HW2 2291   1.164   2.790   0.068
  760SOL     OW 2292   1.861   3.431   0.851
  760SOL    HW1 2293   1.790   3.419   0.781
  760SOL    HW2 2294   1.862   3.352   0.911
  761SOL     OW 2295   0.221   3.176   1.844
  761SOL    HW1 2296   0.156   3.103   1.823
  761SOL    HW2 2297   0.225   3.190   1.942
  762SOL     OW 2298   0.079   3.102   0.653
  762SOL    HW1 2299   0.078   3.055   0.741
  762SOL    HW2 2300   0.161   3.074   0.602
  763SOL     OW 2301   0.672   3.253   1.624
  763SOL    HW1 2302   0.594   3.203   1.662
  763SOL    HW2 2303   0.669   3.348   1.655
  764SOL     OW 2304   1.824   2.054   1.227
  764SOL    HW1 2305   1.820   1.964   1.271
  764SOL    HW2 2306   1.827   2.043   1.128
  765SOL     OW 2307   0.428   2.286   0.520
  765SOL    HW1 2308   0.458   2.214   0.458
  765SOL    HW2 2309   0.389   2.246   0.603
  766SOL     OW 2310   1.705   3.349   1.104
  766SOL    HW1 2311   1.612   3.324   1.077
  766SOL    HW2 2312   1.731   3.299   1.186
  767SOL     OW 2313   0.317   2.409   1.280
  767SOL    HW1 2314   0.355   2.350   1.352
  767SOL    HW2 2315   0.357   2.383   1.192
  768SOL     OW 2316   0.812   3.448   0.687
  768SOL    HW1 2317   0.844   3.458   0.593
  768SOL    HW2 2318   0.733   3.386   0.689
  769SOL     OW 2319   1.424   2.076   1.112
  769SOL    HW1 2320   1.476   2.011   1.167
  769SOL    HW2 2321   1.375   2.139   1.173
  770SOL     OW 2322   1.001   1.896   1.154
  770SOL    HW1 2323   0.938   1.824   1.123
  770SOL    HW2 2324   1.094   1.860   1.154
  771SOL     OW 2325   0.770   3.192   0.301
  771SOL    HW1 2326   0.724   3.105   0.318
  771SOL    HW2 2327   0.861   3.189   0.342
  772SOL     OW 2328   0.618   3.429   1.284
  772SOL    HW1 2329   0.613   3.511   1.341
  772SOL    HW2 2330   0.707   3.426   1.239
  773SOL     OW 2331   1.352   1.914   0.168
  773SOL    HW1 2332   1.387   1.873   0.084
  773SOL    HW2 2333   1.262   1.876   0.188
  774SOL     OW 2334   1.300   2.315   0.691
  774SOL    HW1 2335   1.241   2.395   0.695
  774SOL    HW2 2336   1.315   2.280   0.784
  775SOL     OW 2337   1.593   2.083   0.882
  775SOL    HW1 2338   1.509   2.082   0.936
  775SOL    HW2 2339   1.595   2.166   0.826
  776SOL     OW 2340   0.039   2.939   0.300
  776SOL    HW1 2341   0.138   2.928   0.291
  776SOL    HW2 2342  -0.001   2.853   0.332
  777SOL     OW 2343   0.875   3.508   0.337
  777SOL    HW1 2344   0.798   3.473   0.283
  777SOL    HW2 2345   0.843   3.579   0.399
  778SOL     OW 2346   0.230   2.490   1.975
  778SOL    HW1 2347   0.137   2.488   2.012
  778SOL    HW2 2348   0.231   2.451   1.883
  779SOL     OW 2349   0.225   2.137   2.858
  779SOL    HW1 2350   0.260   2.120   2.950
  779SOL    HW2 2351   0.137   2.092   2.846
  780SOL     OW 2352   0.019   2.230   2.509
  780SOL    HW1 2353  -0.063   2.273   2.548
  780SOL    HW2 2354  -0.009   2.157   2.446
  781SOL     OW 2355   0.569   3.137   3.027
  781SOL    HW1 2356   0.476   3.130   2.990
  781SOL    HW2 2357   0.580   3.226   3.071
  782SOL     OW 2358   1.555   3.373   2.565
  782SOL    HW1 2359   1.498   3.357   2.646
  782SOL    HW2 2360   1.496   3.383   2.485
  783SOL     OW 2361   1.135   2.565   2.579
  783SOL    HW1 2362   1.192   2.643   2.554
  783SOL    HW2 2363   1.075   2.591   2.655
  784SOL     OW 2364   1.755   2.469   2.093
  784SOL    HW1 2365   1.743   2.456   1.994
  784SOL    HW2 2366   1.725   2.388   2.142
  785SOL     OW 2367   0.768   3.006   2.885
  785SOL    HW1 2368   0.690   3.023   2.945
  785SOL    HW2 2369   0.802   3.093   2.849
  786SOL     OW 2370   0.850   2.660   3.685
  786SOL    HW1 2371   0.846   2.736   3.750
  786SOL    HW2 2372   0.872   2.696   3.594
  787SOL     OW 2373   0.685   2.874   2.527
  787SOL    HW1 2374   0.754   2.858   2.597
  787SOL    HW2 2375   0.612   2.931   2.565
  788SOL     OW 2376   0.686   3.023   3.665
  788SOL    HW1 2377   0.746   3.102   3.679
  788SOL    HW2 2378   0.600   3.054   3.624
  789SOL     OW 2379   0.335   3.297   2.923
  789SOL    HW1 2380   0.257   3.266   2.870
  789SOL    HW2 2381   0.393   3.355   2.866
  790SOL     OW 2382   1.460   3.367   3.201
  790SOL    HW1 2383   1.484   3.461   3.227
  790SOL    HW2 2384   1.444   3.313   3.283
  791SOL     OW 2385   0.438   2.254   3.361
  791SOL    HW1 2386   0.520   2.198   3.370
  791SOL    HW2 2387   0.357   2.196   3.365
  792SOL     OW 2388   1.603   2.309   2.599
  792SOL    HW1 2389   1.529   2.355   2.549
  792SOL    HW2 2390   1.654   2.377   2.652
  793SOL     OW 2391   0.231   3.575   2.345
  793SOL    HW1 2392   0.265   3.652   2.399
  793SOL    HW2 2393   0.275   3.575   2.255
  794SOL     OW 2394   1.127   3.203   3.552
  794SOL    HW1 2395   1.174   3.203   3.640
  794SOL    HW2 2396   1.079   3.116   3.541
  795SOL     OW 2397   0.230   3.296   2.400
  795SOL    HW1 2398   0.204   3.392   2.400
  795SOL    HW2 2399   0.159   3.242   2.445
  796SOL     OW 2400   0.240   2.953   2.748
  796SOL    HW1 2401   0.254   2.869   2.800
  796SOL    HW2 2402   0.185   3.017   2.803
  797SOL     OW 2403   0.620   3.648   3.301
  797SOL    HW1 2404   0.528   3.631   3.336
  797SOL    HW2 2405   0.648   3.740   3.327
  798SOL     OW 2406   0.606   2.826   1.985
  798SOL    HW1 2407   0.613   2.910   1.931
  798SOL    HW2 2408   0.652   2.839   2.073
  799SOL     OW 2409   1.594   1.976   3.342
  799SOL    HW1 2410   1.576   2.043   3.270
  799SOL    HW2 2411   1.591   2.022   3.431
  800SOL     OW 2412   0.122   2.505   2.425
  800SOL    HW1 2413   0.077   2.417   2.442
  800SOL    HW2 2414   0.121   2.559   2.509
  801SOL     OW 2415   1.842   3.629   2.221
  801SOL    HW1 2416   1.896   3.600   2.301
  801SOL    HW2 2417   1.872   3.719   2.192
  802SOL     OW 2418   0.027   3.458   1.979
  802SOL    HW1 2419   0.008   3.362   2.000
  802SOL    HW2 2420  -0.006   3.516   2.054
  803SOL     OW 2421   1.689   2.784   2.474
  803SOL    HW1 2422   1.784   2.755   2.482
  803SOL    HW2 2423   1.681   2.849   2.399
  804SOL     OW 2424   1.641   2.970   2.294
  804SOL    HW1 2425   1.727   2.972   2.242
  804SOL    HW2 2426   1.655   3.017   2.382
  805SOL     OW 2427   0.113   2.599   3.459
  805SOL    HW1 2428   0.201   2.586   3.504
  805SOL    HW2 2429   0.100   2.696   3.437
  806SOL     OW 2430   0.613   3.227   2.588
  806SOL    HW1 2431   0.564   3.140   2.597
  806SOL    HW2 2432   0.590   3.270   2.501
  807SOL     OW 2433   1.293   3.090   3.285
  807SOL    HW1 2434   1.330   3.017   3.227
  807SOL    HW2 2435   1.345   3.095   3.370
  808SOL     OW 2436   0.809   1.866   2.364
  808SOL    HW1 2437   0.849   1.957   2.355
  808SOL    HW2 2438   0.709   1.874   2.370
  809SOL     OW 2439   0.197   2.838   3.126
  809SOL    HW1 2440   0.286   2.793   3.112
  809SOL    HW2 2441   0.124   2.773   3.107
  810SOL     OW 2442   1.525   2.861   2.052
  810SOL    HW1 2443   1.462   2.785   2.065
  810SOL    HW2 2444   1.573   2.879   2.138
  811SOL     OW 2445   1.187   3.654   3.478
  811SOL    HW1 2446   1.211   3.714   3.402
  811SOL    HW2 2447   1.194   3.559   3.448
  812SOL     OW 2448   0.317   2.113   3.663
  812SOL    HW1 2449   0.388   2.184   3.669
  812SOL    HW2 2450   0.229   2.152   3.691
  813SOL     OW 2451   1.466   3.279   2.815
  813SOL    HW1 2452   1.407   3.285   2.895
  813SOL    HW2 2453   1.451   3.191   2.769
  814SOL     OW 2454   1.667   3.576   2.434
  814SOL    HW1 2455   1.626   3.553   2.346
  814SOL    HW2 2456   1.649   3.502   2.499
  815SOL     OW 2457   0.598   2.591   2.132
  815SOL    HW1 2458   0.622   2.660   2.064
  815SOL    HW2 2459   0.520   2.624   2.186
  816SOL     OW 2460   1.281   2.207   2.806
  816SOL    HW1 2461   1.195   2.157   2.793
  816SOL    HW2 2462   1.343   2.153   2.862
  817SOL     OW 2463   1.576   3.524   2.169
  817SOL    HW1 2464   1.665   3.570   2.172
  817SOL    HW2 2465   1.555   3.500   2.074
  818SOL     OW 2466   0.807   2.467   3.327
  818SOL    HW1 2467   0.760   2.464   3.416
  818SOL    HW2 2468   0.756   2.412   3.261
  819SOL     OW 2469   1.394   2.331   3.536
  819SOL    HW1 2470   1.374   2.374   3.624
  819SOL    HW2 2471   1.472   2.269   3.545
  820SOL     OW 2472   0.973   2.752   3.434
  820SOL    HW1 2473   1.019   2.668   3.405
  820SOL    HW2 2474   0.917   2.786   3.359
  821SOL     OW 2475   0.991   2.272   3.104
  821SOL    HW1 2476   0.914   2.306   3.158
  821SOL    HW2 2477   0.957   2.221   3.025
  822SOL     OW 2478   1.041   2.563   2.291
  822SOL    HW1 2479   1.067   2.559   2.387
  822SOL    HW2 2480   0.956   2.512   2.277
  823SOL     OW 2481   0.076   2.673   2.651
  823SOL    HW1 2482   0.175   2.661   2.660
  823SOL    HW2 2483   0.052   2.768   2.672
  824SOL     OW 2484   0.130   3.683   3.433
  824SOL    HW1 2485   0.120   3.668   3.532
  824SOL    HW2 2486   0.044   3.719   3.397
  825SOL     OW 2487   0.865   2.210   2.057
  825SOL    HW1 2488   0.924   2.273   2.008
  825SOL    HW2 2489   0.884   2.116   2.028
  826SOL     OW 2490   1.719   2.447   3.693
  826SOL    HW1 2491   1.693   2.536   3.657
  826SOL    HW2 2492   1.717   2.379   3.620
  827SOL     OW 2493   1.362   3.006   2.407
  827SOL    HW1 2494   1.445   2.977   2.359
  827SOL    HW2 2495   1.313   3.073   2.351
  828SOL     OW 2496   0.550   2.058   2.747
  828SOL    HW1 2497   0.545   2.053   2.847
  828SOL    HW2 2498   0.552   2.154   2.718
  829SOL     OW 2499   1.008   3.318   2.339
  829SOL    HW1 2500   0.962   3.390   2.287
  829SOL    HW2 2501   1.004   3.338   2.437
  830SOL     OW 2502   0.351   3.663   2.715
  830SOL    HW1 2503   0.401   3.577   2.721
  830SOL    HW2 2504   0.416   3.740   2.712
  831SOL     OW 2505   1.795   2.928   2.735
  831SOL    HW1 2506   1.733   2.913   2.659
  831SOL    HW2 2507   1.743   2.939   2.820
  832SOL     OW 2508   1.227   3.412   3.368
  832SOL    HW1 2509   1.233   3.335   3.432
  832SOL    HW2 2510   1.175   3.386   3.288
  833SOL     OW 2511   0.321   2.805   2.104
  833SOL    HW1 2512   0.403   2.844   2.062
  833SOL    HW2 2513   0.294   2.723   2.055
  834SOL     OW 2514   1.458   2.597   2.590
  834SOL    HW1 2515   1.453   2.532   2.665
  834SOL    HW2 2516   1.538   2.656   2.603
  835SOL     OW 2517   0.461   3.128   3.589
  835SOL    HW1 2518   0.411   3.129   3.503
  835SOL    HW2 2519   0.398   3.110   3.665
  836SOL     OW 2520   1.111   3.638   2.099
  836SOL    HW1 2521   1.051   3.576   2.149
  836SOL    HW2 2522   1.142   3.594   2.014
  837SOL     OW 2523   0.202   2.147   3.360
  837SOL    HW1 2524   0.122   2.207   3.347
  837SOL    HW2 2525   0.192   2.098   3.446
  838SOL     OW 2526   1.632   3.239   1.943
  838SOL    HW1 2527   1.600   3.333   1.933
  838SOL    HW2 2528   1.556   3.176   1.931
  839SOL     OW 2529   0.464   3.605   2.185
  839SOL    HW1 2530   0.497   3.644   2.271
  839SOL    HW2 2531   0.540   3.598   2.120
  840SOL     OW 2532   1.400   1.969   2.288
  840SOL    HW1 2533   1.376   1.932   2.198
  840SOL    HW2 2534   1.499   1.985   2.292
  841SOL     OW 2535   0.249   3.647   3.103
  841SOL    HW1 2536   0.306   3.582   3.153
  841SOL    HW2 2537   0.233   3.614   3.010
  842SOL     OW 2538   0.940   3.560   2.766
  842SOL    HW1 2539   1.020   3.503   2.787
  842SOL    HW2 2540   0.891   3.520   2.689
  843SOL     OW 2541   0.382   2.562   2.342
  843SOL    HW1 2542   0.427   2.472   2.339
  843SOL    HW2 2543   0.288   2.551   2.375
  844SOL     OW 2544   1.547   2.084   3.591
  844SOL    HW1 2545   1.542   2.121   3.683
  844SOL    HW2 2546   1.475   2.015   3.579
  845SOL     OW 2547   0.614   1.984   1.979
  845SOL    HW1 2548   0.712   1.962   1.986
  845SOL    HW2 2549   0.583   1.967   1.886
  846SOL     OW 2550   0.781   2.126   3.611
  846SOL    HW1 2551   0.848   2.065   3.654
  846SOL    HW2 2552   0.708   2.145   3.676
  847SOL     OW 2553   0.888   3.376   3.057
  847SOL    HW1 2554   0.865   3.351   2.963
  847SOL    HW2 2555   0.949   3.307   3.096
  848SOL     OW 2556   1.351   2.452   3.295
  848SOL    HW1 2557   1.379   2.409   3.380
  848SOL    HW2 2558   1.376   2.548   3.296
  849SOL     OW 2559   0.803   3.264   2.786
  849SOL    HW1 2560   0.893   3.278   2.744
  849SOL    HW2 2561   0.732   3.266   2.715
  850SOL     OW 2562   0.922   2.365   2.761
  850SOL    HW1 2563   0.897   2.356   2.665
  850SOL    HW2 2564   0.970   2.283   2.792
  851SOL     OW 2565   0.539   1.926   2.374
  851SOL    HW1 2566   0.458   1.927   2.432
  851SOL    HW2 2567   0.542   2.009   2.319
  852SOL     OW 2568   1.434   3.050   1.903
  852SOL    HW1 2569   1.466   2.974   1.960
  852SOL    HW2 2570   1.342   3.077   1.933
  853SOL     OW 2571   0.297   1.897   2.033
  853SOL    HW1 2572   0.346   1.981   2.012
  853SOL    HW2 2573   0.359   1.832   2.078
  854SOL     OW 2574   0.935   2.098   2.342
  854SOL    HW1 2575   0.887   2.139   2.264
  854SOL    HW2 2576   1.034   2.096   2.323
  855SOL     OW 2577   1.076   2.545   3.326
  855SOL    HW1 2578   0.996   2.484   3.329
  855SOL    HW2 2579   1.157   2.492   3.302
  856SOL     OW 2580   1.227   3.432   2.655
  856SOL    HW1 2581   1.248   3.506   2.590
  856SOL    HW2 2582   1.295   3.432   2.728
  857SOL     OW 2583   0.459   3.014   2.603
  857SOL    HW1 2584   0.388   2.987   2.668
  857SOL    HW2 2585   0.433   2.986   2.510
  858SOL     OW 2586   1.271   3.659   2.453
  858SOL    HW1 2587   1.315   3.723   2.389
  858SOL    HW2 2588   1.221   3.711   2.523
  859SOL     OW 2589   1.032   2.411   1.878
  859SOL    HW1 2590   0.991   2.493   1.839
  859SOL    HW2 2591   1.096   2.437   1.951
  860SOL     OW 2592   0.078   2.418   3.248
  860SOL    HW1 2593   0.170   2.417   3.207
  860SOL    HW2 2594   0.072   2.492   3.315
  861SOL     OW 2595   0.561   2.084   3.009
  861SOL    HW1 2596   0.599   2.000   3.046
  861SOL    HW2 2597   0.473   2.103   3.053
  862SOL     OW 2598   0.866   2.316   2.504
  862SOL    HW1 2599   0.834   2.388   2.442
  862SOL    HW2 2600   0.890   2.235   2.451
  863SOL     OW 2601   1.017   1.901   2.615
  863SOL    HW1 2602   0.945   1.906   2.546
  863SOL    HW2 2603   0.993   1.832   2.684
  864SOL     OW 2604   1.429   3.035   2.729
  864SOL    HW1 2605   1.374   2.951   2.722
  864SOL    HW2 2606   1.455   3.064   2.637
  865SOL     OW 2607   1.466   2.452   2.854
  865SOL    HW1 2608   1.436   2.357   2.861
  865SOL    HW2 2609   1.539   2.468   2.920
  866SOL     OW 2610   1.857   2.695   2.239
  866SOL    HW1 2611   1.899   2.631   2.303
  866SOL    HW2 2612   1.819   2.644   2.161
  867SOL     OW 2613   0.488   3.247   2.036
  867SOL    HW1 2614   0.401   3.232   2.083
  867SOL    HW2 2615   0.471   3.273   1.941
  868SOL     OW 2616   1.664   3.142   2.519
  868SOL    HW1 2617   1.763   3.150   2.533
  868SOL    HW2 2618   1.619   3.226   2.550
  869SOL     OW 2619   1.390   2.437   1.940
  869SOL    HW1 2620   1.336   2.416   2.021
  869SOL    HW2 2621   1.481   2.396   1.949
  870SOL     OW 2622   0.527   2.118   2.190
  870SOL    HW1 2623   0.554   2.059   2.115
  870SOL    HW2 2624   0.527   2.213   2.159
  871SOL     OW 2625   1.754   3.085   3.450
  871SOL    HW1 2626   1.845   3.046   3.437
  871SOL    HW2 2627   1.762   3.181   3.474
  872SOL     OW 2628   1.064   3.209   3.202
  872SOL    HW1 2629   0.984   3.186   3.257
  872SOL    HW2 2630   1.147   3.183   3.251
  873SOL     OW 2631   1.592   3.491   3.487
  873SOL    HW1 2632   1.619   3.525   3.397
  873SOL    HW2 2633   1.671   3.453   3.533
  874SOL     OW 2634   1.111   3.057   2.962
  874SOL    HW1 2635   1.071   3.101   3.043
  874SOL    HW2 2636   1.070   3.094   2.879
  875SOL     OW 2637   1.638   2.961   2.941
  875SOL    HW1 2638   1.643   3.042   3.000
  875SOL    HW2 2639   1.552   2.963   2.890
  876SOL     OW 2640   0.915   1.951   3.264
  876SOL    HW1 2641   0.940   1.931   3.169
  876SOL    HW2 2642   0.987   2.007   3.306
  877SOL     OW 2643   0.980   2.978   3.581
  877SOL    HW1 2644   0.881   2.984   3.591
  877SOL    HW2 2645   1.003   2.898   3.525
  878SOL     OW 2646   0.705   2.912   2.230
  878SOL    HW1 2647   0.691   2.919   2.329
  878SOL    HW2 2648   0.789   2.861   2.212
  879SOL     OW 2649   0.410   2.675   3.113
  879SOL    HW1 2650   0.496   2.687   3.163
  879SOL    HW2 2651   0.368   2.588   3.140
  880SOL     OW 2652   1.274   2.248   3.124
  880SOL    HW1 2653   1.295   2.322   3.188
  880SOL    HW2 2654   1.185   2.265   3.081
  881SOL     OW 2655   0.064   3.426   3.193
  881SOL    HW1 2656   0.018   3.508   3.159
  881SOL    HW2 2657   0.162   3.445   3.202
  882SOL     OW 2658   0.367   2.962   2.363
  882SOL    HW1 2659   0.360   3.045   2.307
  882SOL    HW2 2660   0.371   2.882   2.303
  883SOL     OW 2661   0.566   2.399   2.727
  883SOL    HW1 2662   0.578   2.465   2.653
  883SOL    HW2 2663   0.612   2.433   2.810
  884SOL     OW 2664   1.252   3.210   2.250
  884SOL    HW1 2665   1.302   3.287   2.290
  884SOL    HW2 2666   1.157   3.212   2.282
  885SOL     OW 2667   1.272   3.307   3.004
  885SOL    HW1 2668   1.319   3.320   3.091
  885SOL    HW2 2669   1.206   3.233   3.013
  886SOL     OW 2670   1.582   2.501   2.334
  886SOL    HW1 2671   1.551   2.562   2.407
  886SOL    HW2 2672   1.632   2.553   2.265
  887SOL     OW 2673   0.354   3.372   3.191
  887SOL    HW1 2674   0.333   3.328   3.104
  887SOL    HW2 2675   0.451   3.398   3.194
  888SOL     OW 2676   0.402   2.613   3.460
  888SOL    HW1 2677   0.470   2.668   3.413
  888SOL    HW2 2678   0.442   2.525   3.487
  889SOL     OW 2679   1.587   2.641   3.532
  889SOL    HW1 2680   1.495   2.679   3.527
  889SOL    HW2 2681   1.647   2.688   3.467
  890SOL     OW 2682   1.013   1.967   3.632
  890SOL    HW1 2683   1.019   2.052   3.580
  890SOL    HW2 2684   1.045   1.891   3.575
  891SOL     OW 2685   0.504   1.912   3.602
  891SOL    HW1 2686   0.462   1.855   3.532
  891SOL    HW2 2687   0.438   1.981   3.634
  892SOL     OW 2688   0.573   2.732   2.891
  892SOL    HW1 2689   0.617   2.821   2.882
  892SOL    HW2 2690   0.510   2.732   2.968
  893SOL     OW 2691   1.360   2.724   2.907
  893SOL    HW1 2692   1.285   2.724   2.841
  893SOL    HW2 2693   1.397   2.632   2.916
  894SOL     OW 2694   1.209   2.387   2.137
  894SOL    HW1 2695   1.222   2.303   2.191
  894SOL    HW2 2696   1.180   2.461   2.197
  895SOL     OW 2697   0.307   2.075   3.093
  895SOL    HW1 2698   0.284   2.112   3.183
  895SOL    HW2 2699   0.277   1.980   3.087
  896SOL     OW 2700   0.037   3.172   3.144
  896SOL    HW1 2701   0.090   3.123   3.212
  896SOL    HW2 2702   0.059   3.270   3.149
  897SOL     OW 2703   0.732   2.496   2.926
  897SOL    HW1 2704   0.791   2.470   2.850
  897SOL    HW2 2705   0.704   2.592   2.915
  898SOL     OW 2706   1.728   2.797   3.716
  898SOL    HW1 2707   1.682   2.790   3.627
  898SOL    HW2 2708   1.666   2.841   3.782
  899SOL     OW 2709   0.307   1.925   2.480
  899SOL    HW1 2710   0.296   2.019   2.513
  899SOL    HW2 2711   0.302   1.862   2.557
  900SOL     OW 2712   1.622   2.229   2.236
  900SOL    HW1 2713   1.624   2.153   2.300
  900SOL    HW2 2714   1.574   2.306   2.276
  901SOL     OW 2715   1.023   2.628   2.828
  901SOL    HW1 2716   1.038   2.649   2.924
  901SOL    HW2 2717   0.993   2.533   2.819
  902SOL     OW 2718   0.980   3.435   3.562
  902SOL    HW1 2719   0.960   3.479   3.474
  902SOL    HW2 2720   1.019   3.344   3.546
  903SOL     OW 2721   1.859   3.380   3.467
  903SOL    HW1 2722   1.873   3.407   3.372
  903SOL    HW2 2723   1.942   3.402   3.520
  904SOL     OW 2724   0.350   2.760   3.666
  904SOL    HW1 2725   0.426   2.804   3.714
  904SOL    HW2 2726   0.385   2.713   3.584
  905SOL     OW 2727   1.540   2.136   1.987
  905SOL    HW1 2728   1.479   2.061   2.010
  905SOL    HW2 2729   1.562   2.188   2.070
  906SOL     OW 2730   1.303   2.700   1.904
  906SOL    HW1 2731   1.337   2.607   1.919
  906SOL    HW2 2732   1.321   2.727   1.809
  907SOL     OW 2733   1.068   3.195   2.711
  907SOL    HW1 2734   1.075   3.111   2.656
  907SOL    HW2 2735   1.130   3.264   2.675
  908SOL     OW 2736   0.319   2.672   2.811
  908SOL    HW1 2737   0.412   2.708   2.816
  908SOL    HW2 2738   0.313   2.587   2.863
  909SOL     OW 2739   0.339   2.371   2.868
  909SOL    HW1 2740   0.287   2.288   2.851
  909SOL    HW2 2741   0.416   2.376   2.804
  910SOL     OW 2742   1.138   2.242   3.540
  910SOL    HW1 2743   1.093   2.305   3.604
  910SOL    HW2 2744   1.231   2.273   3.523
  911SOL     OW 2745   1.160   2.069   3.339
  911SOL    HW1 2746   1.160   2.133   3.416
  911SOL    HW2 2747   1.188   2.117   3.256
  912SOL     OW 2748   0.008   3.188   2.062
  912SOL    HW1 2749  -0.085   3.209   2.031
  912SOL    HW2 2750   0.018   3.089   2.075
  913SOL     OW 2751   0.088   3.663   2.789
  913SOL    HW1 2752   0.046   3.577   2.762
  913SOL    HW2 2753   0.182   3.666   2.755
  914SOL     OW 2754   0.504   3.430   2.772
  914SOL    HW1 2755   0.570   3.504   2.781
  914SOL    HW2 2756   0.548   3.351   2.730
  915SOL     OW 2757   1.002   2.658   3.100
  915SOL    HW1 2758   1.043   2.626   3.186
  915SOL    HW2 2759   0.906   2.631   3.097
  916SOL     OW 2760   0.040   2.406   2.976
  916SOL    HW1 2761   0.125   2.373   2.935
  916SOL    HW2 2762   0.053   2.421   3.074
  917SOL     OW 2763   0.189   2.382   3.584
  917SOL    HW1 2764   0.248   2.342   3.514
  917SOL    HW2 2765   0.131   2.453   3.543
  918SOL     OW 2766   1.369   2.812   3.522
  918SOL    HW1 2767   1.408   2.901   3.542
  918SOL    HW2 2768   1.379   2.792   3.425
  919SOL     OW 2769   0.815   2.434   2.187
  919SOL    HW1 2770   0.822   2.345   2.141
  919SOL    HW2 2771   0.721   2.468   2.179
  920SOL     OW 2772   1.657   2.466   3.068
  920SOL    HW1 2773   1.619   2.397   3.130
  920SOL    HW2 2774   1.739   2.430   3.024
  921SOL     OW 2775   0.252   3.426   3.606
  921SOL    HW1 2776   0.222   3.483   3.682
  921SOL    HW2 2777   0.245   3.329   3.632
  922SOL     OW 2778   0.671   2.326   3.131
  922SOL    HW1 2779   0.637   2.237   3.101
  922SOL    HW2 2780   0.697   2.380   3.051
  923SOL     OW 2781   0.930   3.540   3.327
  923SOL    HW1 2782   0.906   3.522   3.232
  923SOL    HW2 2783   0.960   3.634   3.337
  924SOL     OW 2784   0.473   2.362   2.053
  924SOL    HW1 2785   0.534   2.442   2.057
  924SOL    HW2 2786   0.378   2.393   2.060
  925SOL     OW 2787   0.159   2.999   3.328
  925SOL    HW1 2788   0.181   2.938   3.404
  925SOL    HW2 2789   0.169   2.950   3.242
  926SOL     OW 2790   1.347   2.921   3.096
  926SOL    HW1 2791   1.371   2.858   3.022
  926SOL    HW2 2792   1.257   2.961   3.078
  927SOL     OW 2793   1.302   2.717   2.171
  927SOL    HW1 2794   1.216   2.686   2.213
  927SOL    HW2 2795   1.298   2.703   2.072
  928SOL     OW 2796   1.759   3.609   3.016
  928SOL    HW1 2797   1.820   3.639   2.943
  928SOL    HW2 2798   1.721   3.520   2.994
  929SOL     OW 2799   1.252   3.593   2.990
  929SOL    HW1 2800   1.336   3.598   2.936
  929SOL    HW2 2801   1.229   3.497   3.008
  930SOL     OW 2802   0.083   3.120   2.884
  930SOL    HW1 2803   0.078   3.119   2.984
  930SOL    HW2 2804   0.000   3.079   2.846
  931SOL     OW 2805   0.688   3.524   3.578
  931SOL    HW1 2806   0.632   3.605   3.587
  931SOL    HW2 2807   0.740   3.528   3.492
  932SOL     OW 2808   1.726   1.997   2.385
  932SOL    HW1 2809   1.799   1.980   2.318
  932SOL    HW2 2810   1.695   1.910   2.423
  933SOL     OW 2811   1.388   3.435   2.339
  933SOL    HW1 2812   1.455   3.447   2.265
  933SOL    HW2 2813   1.348   3.524   2.362
  934SOL     OW 2814   0.130   3.656   3.713
  934SOL    HW1 2815   0.089   3.582   3.766
  934SOL    HW2 2816   0.194   3.707   3.771
  935SOL     OW 2817   1.280   2.789   2.534
  935SOL    HW1 2818   1.340   2.708   2.536
  935SOL    HW2 2819   1.320   2.858   2.474
  936SOL     OW 2820   0.830   3.135   3.284
  936SOL    HW1 2821   0.825   3.168   3.379
  936SOL    HW2 2822   0.744   3.154   3.238
  937SOL     OW 2823   0.672   3.478   2.016
  937SOL    HW1 2824   0.681   3.488   1.917
  937SOL    HW2 2825   0.632   3.389   2.037
  938SOL     OW 2826   1.650   3.582   3.256
  938SOL    HW1 2827   1.703   3.592   3.172
  938SOL    HW2 2828   1.623   3.672   3.290
  939SOL     OW 2829   1.841   2.037   2.825
  939SOL    HW1 2830   1.880   1.952   2.789
  939SOL    HW2 2831   1.743   2.039   2.806
  940SOL     OW 2832   0.263   2.188   2.582
  940SOL    HW1 2833   0.184   2.239   2.548
  940SOL    HW2 2834   0.254   2.173   2.680
  941SOL     OW 2835   1.194   3.474   1.893
  941SOL    HW1 2836   1.200   3.381   1.930
  941SOL    HW2 2837   1.135   3.474   1.813
  942SOL     OW 2838   0.822   2.864   3.234
  942SOL    HW1 2839   0.862   2.863   3.142
  942SOL    HW2 2840   0.832   2.956   3.274
  943SOL     OW 2841   0.916   2.772   2.153
  943SOL    HW1 2842   0.979   2.810   2.085
  943SOL    HW2 2843   0.956   2.689   2.192
  944SOL     OW 2844   1.504   3.469   1.906
  944SOL    HW1 2845   1.412   3.506   1.913
  944SOL    HW2 2846   1.542   3.489   1.816
  945SOL     OW 2847   0.372   3.150   3.352
  945SOL    HW1 2848   0.359   3.243   3.318
  945SOL    HW2 2849   0.288   3.098   3.339
  946SOL     OW 2850   1.614   3.154   3.151
  946SOL    HW1 2851   1.674   3.157   3.231
  946SOL    HW2 2852   1.539   3.218   3.164
  947SOL     OW 2853   1.039   2.960   2.558
  947SOL    HW1 2854   0.969   2.913   2.612
  947SOL    HW2 2855   1.098   2.892   2.515
  948SOL     OW 2856   1.014   2.098   2.833
  948SOL    HW1 2857   1.006   2.062   2.740
  948SOL    HW2 2858   1.012   2.022   2.898
  949SOL     OW 2859   0.590   3.349   2.353
  949SOL    HW1 2860   0.632   3.291   2.283
  949SOL    HW2 2861   0.546   3.428   2.309
  950SOL     OW 2862   1.709   2.247   3.243
  950SOL    HW1 2863   1.782   2.316   3.247
  950SOL    HW2 2864   1.737   2.172   3.184
  951SOL     OW 2865   0.255   3.210   2.152
  951SOL    HW1 2866   0.159   3.211   2.125
  951SOL    HW2 2867   0.267   3.263   2.236
  952SOL     OW 2868   0.105   2.875   3.588
  952SOL    HW1 2869   0.028   2.842   3.642
  952SOL    HW2 2870   0.190   2.845   3.630
  953SOL     OW 2871   0.672   2.065   3.351
  953SOL    HW1 2872   0.762   2.049   3.311
  953SOL    HW2 2873   0.680   2.070   3.450
  954SOL     OW 2874   0.075   2.207   1.895
  954SOL    HW1 2875  -0.017   2.179   1.866
  954SOL    HW2 2876   0.106   2.284   1.839
  955SOL     OW 2877   1.440   2.718   3.260
  955SOL    HW1 2878   1.383   2.770   3.197
  955SOL    HW2 2879   1.536   2.730   3.236
  956SOL     OW 2880   0.072   2.028   2.180
  956SOL    HW1 2881   0.055   2.111   2.126
  956SOL    HW2 2882   0.162   1.991   2.158
  957SOL     OW 2883   1.183   3.197   1.981
  957SOL    HW1 2884   1.084   3.186   1.983
  957SOL    HW2 2885   1.217   3.212   2.074
  958SOL     OW 2886   0.613   2.704   3.293
  958SOL    HW1 2887   0.669   2.785   3.276
  958SOL    HW2 2888   0.672   2.624   3.296
  959SOL     OW 2889   1.493   3.629   2.821
  959SOL    HW1 2890   1.526   3.693   2.752
  959SOL    HW2 2891   1.559   3.623   2.896
  960SOL     OW 2892   0.716   2.427   3.570
  960SOL    HW1 2893   0.735   2.492   3.644
  960SOL    HW2 2894   0.776   2.347   3.579
  961SOL     OW 2895   1.450   3.082   3.495
  961SOL    HW1 2896   1.441   3.072   3.594
  961SOL    HW2 2897   1.546   3.075   3.469
  962SOL     OW 2898   0.390   3.603   3.422
  962SOL    HW1 2899   0.299   3.644   3.420
  962SOL    HW2 2900   0.383   3.509   3.454
  963SOL     OW 2901   1.674   2.745   3.116
  963SOL    HW1 2902   1.647   2.656   3.079
  963SOL    HW2 2903   1.675   2.813   3.043
  964SOL     OW 2904   1.225   2.187   2.311
  964SOL    HW1 2905   1.290   2.113   2.300
  964SOL    HW2 2906   1.245   2.237   2.395
  965SOL     OW 2907   0.594   2.607   2.514
  965SOL    HW1 2908   0.644   2.692   2.495
  965SOL    HW2 2909   0.506   2.609   2.466
  966SOL     OW 2910   1.777   2.204   3.504
  966SOL    HW1 2911   1.760   2.235   3.410
  966SOL    HW2 2912   1.693   2.167   3.542
  967SOL     OW 2913   1.730   2.796   3.379
  967SOL    HW1 2914   1.768   2.887   3.394
  967SOL    HW2 2915   1.722   2.779   3.280
  968SOL     OW 2916   0.859   3.236   1.878
  968SOL    HW1 2917   0.813   3.251   1.966
  968SOL    HW2 2918   0.903   3.321   1.848
  969SOL     OW 2919   0.661   3.652   2.815
  969SOL    HW1 2920   0.615   3.740   2.802
  969SOL    HW2 2921   0.760   3.664   2.808
  970SOL     OW 2922   0.859   2.818   2.723
  970SOL    HW1 2923   0.913   2.749   2.771
  970SOL    HW2 2924   0.827   2.887   2.789
  971SOL     OW 2925   1.083   2.846   1.949
  971SOL    HW1 2926   1.060   2.899   1.867
  971SOL    HW2 2927   1.164   2.790   1.930
  972SOL     OW 2928   1.861   3.431   2.713
  972SOL    HW1 2929   1.790   3.419   2.643
  972SOL    HW2 2930   1.862   3.352   2.773
  973SOL     OW 2931   0.221   3.176   3.706
  973SOL    HW1 2932   0.156   3.103   3.685
  973SOL    HW2 2933   0.225   3.190   3.804
  974SOL     OW 2934   0.079   3.102   2.515
  974SOL    HW1 2935   0.078   3.055   2.603
  974SOL    HW2 2936   0.161   3.074   2.464
  975SOL     OW 2937   0.672   3.253   3.486
  975SOL    HW1 2938   0.594   3.203   3.524
  975SOL    HW2 2939   0.669   3.348   3.517
  976SOL     OW 2940   1.824   2.054   3.089
  976SOL    HW1 2941   1.820   1.964   3.133
  976SOL    HW2 2942   1.827   2.043   2.990
  977SOL     OW 2943   0.428   2.286   2.382
  977SOL    HW1 2944   0.458   2.214   2.320
  977SOL    HW2 2945   0.389   2.246   2.465
  978SOL     OW 2946   1.705   3.349   2.966
  978SOL    HW1 2947   1.612   3.324   2.939
  978SOL    HW2 2948   1.731   3.299   3.048
  979SOL     OW 2949   0.317   2.409   3.142
  979SOL    HW1 2950   0.355   2.350   3.214
  979SOL    HW2 2951   0.357   2.383   3.054
  980SOL     OW 2952   0.812   3.448   2.549
  980SOL    HW1 2953   0.844   3.458   2.455
  980SOL    HW2 2954   0.733   3.386   2.551
  981SOL     OW 2955   1.424   2.076   2.974
  981SOL    HW1 2956   1.476   2.011   3.029
  981SOL    HW2 2957   1.375   2.139   3.035
  982SOL     OW 2958   1.001   1.896   3.016
  982SOL    HW1 2959   0.938   1.824   2.985
  982SOL    HW2 2960   1.094   1.860   3.016
  983SOL     OW 2961   0.770   3.192   2.163
  983SOL    HW1 2962   0.724   3.105   2.180
  983SOL    HW2 2963   0.861   3.189   2.204
  984SOL     OW 2964   0.618   3.429   3.146
  984SOL    HW1 2965   0.613   3.511   3.203
  984SOL    HW2 2966   0.707   3.426   3.101
  985SOL     OW 2967   1.352   1.914   2.030
  985SOL    HW1 2968   1.387   1.873   1.946
  985SOL    HW2 2969   1.262   1.876   2.050
  986SOL     OW 2970   1.300   2.315   2.553
  986SOL    HW1 2971   1.241   2.395   2.557
  986SOL    HW2 2972   1.315   2.280   2.646
  987SOL     OW 2973   1.593   2.083   2.744
  987SOL    HW1 2974   1.509   2.082   2.798
  987SOL    HW2 2975   1.595   2.166   2.688
  988SOL     OW 2976   0.039   2.939   2.162
  988SOL    HW1 2977   0.138   2.928   2.153
  988SOL    HW2 2978  -0.001   2.853   2.194
  989SOL     OW 2979   0.875   3.508   2.199
  989SOL    HW1 2980   0.798   3.473   2.145
  989SOL    HW2 2981   0.843   3.579   2.261
  990SOL     OW 2982   0.230   2.490   3.837
  990SOL    HW1 2983   0.137   2.488   3.874
  990SOL    HW2 2984   0.231   2.451   3.745
  991SOL     OW 2985   0.225   2.137   4.720
  991SOL    HW1 2986   0.260   2.120   4.812
  991SOL    HW2 2987   0.137   2.092   4.708
  992SOL     OW 2988   0.019   2.230   4.371
  992SOL    HW1 2989  -0.063   2.273   4.410
  992SOL    HW2 2990  -0.009   2.157   4.308
  993SOL     OW 2991   0.569   3.137   4.889
  993SOL    HW1 2992   0.476   3.130   4.852
  993SOL    HW2 2993   0.580   3.226   4.933
  994SOL     OW 2994   1.555   3.373   4.427
  994SOL    HW1 2995   1.498   3.357   4.508
  994SOL    HW2 2996   1.496   3.383   4.347
  995SOL     OW 2997   1.135   2.565   4.441
  995SOL    HW1 2998   1.192   2.643   4.416
  995SOL    HW2 2999   1.075   2.591   4.517
  996SOL     OW 3000   1.755   2.469   3.955
  996SOL    HW1 3001   1.743   2.456   3.856
  996SOL    HW2 3002   1.725   2.388   4.004
  997SOL     OW 3003   0.768   3.006   4.747
  997SOL    HW1 3004   0.690   3.023   4.807
  997SOL    HW2 3005   0.802   3.093   4.711
  998SOL     OW 3006   0.685   2.874   4.389
  998SOL    HW1 3007   0.754   2.858   4.459
  998SOL    HW2 3008   0.612   2.931   4.427
  999SOL     OW 3009   0.335   3.297   4.785
  999SOL    HW1 3010   0.257   3.266   4.732
  999SOL    HW2 3011   0.393   3.355   4.728
 1000SOL     OW 3012   1.603   2.309   4.461
 1000SOL    HW1 3013   1.529   2.355   4.411
 1000SOL    HW2 3014   1.654   2.377   4.514
 1001SOL     OW 3015   0.231   3.575   4.207
 1001SOL    HW1 3016   0.265   3.652   4.261
 1001SOL    HW2 3017   0.275   3.575   4.117
 1002SOL     OW 3018   0.230   3.296   4.262
 1002SOL    HW1 3019   0.204   3.392   4.262
 1002SOL    HW2 3020   0.159   3.242   4.307
 1003SOL     OW 3021   0.240   2.953   4.610
 1003SOL    HW1 3022   0.254   2.869   4.662
 1003SOL    HW2 3023   0.185   3.017   4.665
 1004SOL     OW 3024   0.606   2.826   3.847
 1004SOL    HW1 3025   0.613   2.910   3.793
 1004SOL    HW2 3026   0.652   2.839   3.935
 1005SOL     OW 3027   0.122   2.505   4.287
 1005SOL    HW1 3028   0.077   2.417   4.304
 1005SOL    HW2 3029   0.121   2.559   4.371
 1006SOL     OW 3030   1.842   3.629   4.083
 1006SOL    HW1 3031   1.896   3.600   4.163
 1006SOL    HW2 3032   1.872   3.719   4.054
 1007SOL     OW 3033   0.027   3.458   3.841
 1007SOL    HW1 3034   0.008   3.362   3.862
 1007SOL    HW2 3035  -0.006   3.516   3.916
 1008SOL     OW 3036   1.689   2.784   4.336
 1008SOL    HW1 3037   1.784   2.755   4.344
 1008SOL    HW2 3038   1.681   2.849   4.261
 1009SOL     OW 3039   1.641   2.970   4.156
 1009SOL    HW1 3040   1.727   2.972   4.104
 1009SOL    HW2 3041   1.655   3.017   4.244
 1010SOL     OW 3042   0.613   3.227   4.450
 1010SOL    HW1 3043   0.564   3.140   4.459
 1010SOL    HW2 3044   0.590   3.270   4.363
 1011SOL     OW 3045   0.809   1.866   4.226
 1011SOL    HW1 3046   0.849   1.957   4.217
 1011SOL    HW2 3047   0.709   1.874   4.232
 1012SOL     OW 3048   0.197   2.838   4.988
 1012SOL    HW1 3049   0.286   2.793   4.974
 1012SOL    HW2 3050   0.124   2.773   4.969
 1013SOL     OW 3051   1.525   2.861   3.914
 1013SOL    HW1 3052   1.462   2.785   3.927
 1013SOL    HW2 3053   1.573   2.879   4.000
 1014SOL     OW 3054   1.466   3.279   4.677
 1014SOL    HW1 3055   1.407   3.285   4.757
 1014SOL    HW2 3056   1.451   3.191   4.631
 1015SOL     OW 3057   1.667   3.576   4.296
 1015SOL    HW1 3058   1.626   3.553   4.208
 1015SOL    HW2 3059   1.649   3.502   4.361
 1016SOL     OW 3060   0.598   2.591   3.994
 1016SOL    HW1 3061   0.622   2.660   3.926
 1016SOL    HW2 3062   0.520   2.624   4.048
 1017SOL     OW 3063   1.281   2.207   4.668
 1017SOL    HW1 3064   1.195   2.157   4.655
 1017SOL    HW2 3065   1.343   2.153   4.724
 1018SOL     OW 3066   1.576   3.524   4.031
 1018SOL    HW1 3067   1.665   3.570   4.034
 1018SOL    HW2 3068   1.555   3.500   3.936
 1019SOL     OW 3069   1.041   2.563   4.153
 1019SOL    HW1 3070   1.067   2.559   4.249
 1019SOL    HW2 3071   0.956   2.512   4.139
 1020SOL     OW 3072   0.076   2.673   4.513
 1020SOL    HW1 3073   0.175   2.661   4.522
 1020SOL    HW2 3074   0.052   2.768   4.534
 1021SOL     OW 3075   0.865   2.210   3.919
 1021SOL    HW1 3076   0.924   2.273   3.870
 1021SOL    HW2 3077   0.884   2.116   3.890
 1022SOL     OW 3078   1.362   3.006   4.269
 1022SOL    HW1 3079   1.445   2.977   4.221
 1022SOL    HW2 3080   1.313   3.073   4.213
 1023SOL     OW 3081   0.550   2.058   4.609
 1023SOL    HW1 3082   0.545   2.053   4.709
 1023SOL    HW2 3083   0.552   2.154   4.580
 1024SOL     OW 3084   1.008   3.318   4.201
 1024SOL    HW1 3085   0.962   3.390   4.149
 1024SOL    HW2 3086   1.004   3.338   4.299
 1025SOL     OW 3087   0.351   3.663   4.577
 1025SOL    HW1 3088   0.401   3.577   4.583
 1025SOL    HW2 3089   0.416   3.740   4.574
 1026SOL     OW 3090   1.795   2.928   4.597
 1026SOL    HW1 3091   1.733   2.913   4.521
 1026SOL    HW2 3092   1.743   2.939   4.682
 1027SOL     OW 3093   0.321   2.805   3.966
 1027SOL    HW1 3094   0.403   2.844   3.924
 1027SOL    HW2 3095   0.294   2.723   3.917
 1028SOL     OW 3096   1.458   2.597   4.452
 1028SOL    HW1 3097   1.453   2.532   4.527
 1028SOL    HW2 3098   1.538   2.656   4.465
 1029SOL     OW 3099   1.111   3.638   3.961
 1029SOL    HW1 3100   1.051   3.576   4.011
 1029SOL    HW2 3101   1.142   3.594   3.876
 1030SOL     OW 3102   1.632   3.239   3.805
 1030SOL    HW1 3103   1.600   3.333   3.795
 1030SOL    HW2 3104   1.556   3.176   3.793
 1031SOL     OW 3105   0.464   3.605   4.047
 1031SOL    HW1 3106   0.497   3.644   4.133
 1031SOL    HW2 3107   0.540   3.598   3.982
 1032SOL     OW 3108   1.400   1.969   4.150
 1032SOL    HW1 3109   1.376   1.932   4.060
 1032SOL    HW2 3110   1.499   1.985   4.154
 1033SOL     OW 3111   0.249   3.647   4.965
 1033SOL    HW1 3112   0.306   3.582   5.015
 1033SOL    HW2 3113   0.233   3.614   4.872
 1034SOL     OW 3114   0.940   3.560   4.628
 1034SOL    HW1 3115   1.020   3.503   4.649
 1034SOL    HW2 3116   0.891   3.520   4.551
 1035SOL     OW 3117   0.382   2.562   4.204
 1035SOL    HW1 3118   0.427   2.472   4.201
 1035SOL    HW2 3119   0.288   2.551   4.237
 1036SOL     OW 3120   0.614   1.984   3.841
 1036SOL    HW1 3121   0.712   1.962   3.848
 1036SOL    HW2 3122   0.583   1.967   3.748
 1037SOL     OW 3123   0.803   3.264   4.648
 1037SOL    HW1 3124   0.893   3.278   4.606
 1037SOL    HW2 3125   0.732   3.266   4.577
 1038SOL     OW 3126   0.922   2.365   4.623
 1038SOL    HW1 3127   0.897   2.356   4.527
 1038SOL    HW2 3128   0.970   2.283   4.654
 1039SOL     OW 3129   0.539   1.926   4.236
 1039SOL    HW1 3130   0.458   1.927   4.294
 1039SOL    HW2 3131   0.542   2.009   4.181
 1040SOL     OW 3132   1.434   3.050   3.765
 1040SOL    HW1 3133   1.466   2.974   3.822
 1040SOL    HW2 3134   1.342   3.077   3.795
 1041SOL     OW 3135   0.297   1.897   3.895
 1041SOL    HW1 3136   0.346   1.981   3.874
 1041SOL    HW2 3137   0.359   1.832   3.940
 1042SOL     OW 3138   0.935   2.098   4.204
 1042SOL    HW1 3139   0.887   2.139   4.126
 1042SOL    HW2 3140   1.034   2.096   4.185
 1043SOL     OW 3141   1.227   3.432   4.517
 1043SOL    HW1 3142   1.248   3.506   4.452
 1043SOL    HW2 3143   1.295   3.432   4.590
 1044SOL     OW 3144   0.459   3.014   4.465
 1044SOL    HW1 3145   0.388   2.987   4.530
 1044SOL    HW2 3146   0.433   2.986   4.372
 1045SOL     OW 3147   1.271   3.659   4.315
 1045SOL    HW1 3148   1.315   3.723   4.251
 1045SOL    HW2 3149   1.221   3.711   4.385
 1046SOL     OW 3150   1.032   2.411   3.740
 1046SOL    HW1 3151   0.991   2.493   3.701
 1046SOL    HW2 3152   1.096   2.437   3.813
 1047SOL     OW 3153   0.866   2.316   4.366
 1047SOL    HW1 3154   0.834   2.388   4.304
 1047SOL    HW2 3155   0.890   2.235   4.313
 1048SOL     OW 3156   1.017   1.901   4.477
 1048SOL    HW1 3157   0.945   1.906   4.408
 1048SOL    HW2 3158   0.993   1.832   4.546
 1049SOL     OW 3159   1.429   3.035   4.591
 1049SOL    HW1 3160   1.374   2.951   4.584
 1049SOL    HW2 3161   1.455   3.064   4.499
 1050SOL     OW 3162   1.466   2.452   4.716
 1050SOL    HW1 3163   1.436   2.357   4.723
 1050SOL    HW2 3164   1.539   2.468   4.782
 1051SOL     OW 3165   1.857   2.695   4.101
 1051SOL    HW1 3166   1.899   2.631   4.165
 1051SOL    HW2 3167   1.819   2.644   4.023
 1052SOL     OW 3168   0.488   3.247   3.898
 1052SOL    HW1 3169   0.401   3.232   3.945
 1052SOL    HW2 3170   0.471   3.273   3.803
 1053SOL     OW 3171   1.664   3.142   4.381
 1053SOL    HW1 3172   1.763   3.150   4.395
 1053SOL    HW2 3173   1.619   3.226   4.412
 1054SOL     OW 3174   1.390   2.437   3.802
 1054SOL    HW1 3175   1.336   2.416   3.883
 1054SOL    HW2 3176   1.481   2.396   3.811
 1055SOL     OW 3177   0.527   2.118   4.052
 1055SOL    HW1 3178   0.554   2.059   3.977
 1055SOL    HW2 3179   0.527   2.213   4.021
 1056SOL     OW 3180   1.111   3.057   4.824
 1056SOL    HW1 3181   1.071   3.101   4.905
 1056SOL    HW2 3182   1.070   3.094   4.741
 1057SOL     OW 3183   1.638   2.961   4.803
 1057SOL    HW1 3184   1.643   3.042   4.862
 1057SOL    HW2 3185   1.552   2.963   4.752
 1058SOL     OW 3186   0.705   2.912   4.092
 1058SOL    HW1 3187   0.691   2.919   4.191
 1058SOL    HW2 3188   0.789   2.861   4.074
 1059SOL     OW 3189   0.410   2.675   4.975
 1059SOL    HW1 3190   0.496   2.687   5.025
 1059SOL    HW2 3191   0.368   2.588   5.002
 1060SOL     OW 3192   0.367   2.962   4.225
 1060SOL    HW1 3193   0.360   3.045   4.169
 1060SOL    HW2 3194   0.371   2.882   4.165
 1061SOL     OW 3195   0.566   2.399   4.589
 1061SOL    HW1 3196   0.578   2.465   4.515
 1061SOL    HW2 3197   0.612   2.433   4.672
 1062SOL     OW 3198   1.252   3.210   4.112
 1062SOL    HW1 3199   1.302   3.287   4.152
 1062SOL    HW2 3200   1.157   3.212   4.144
 1063SOL     OW 3201   1.272   3.307   4.866
 1063SOL    HW1 3202   1.319   3.320   4.953
 1063SOL    HW2 3203   1.206   3.233   4.875
 1064SOL     OW 3204   1.582   2.501   4.196
 1064SOL    HW1 3205   1.551   2.562   4.269
 1064SOL    HW2 3206   1.632   2.553   4.127
 1065SOL     OW 3207   0.573   2.732   4.753
 1065SOL    HW1 3208   0.617   2.821   4.744
 1065SOL    HW2 3209   0.510   2.732   4.830
 1066SOL     OW 3210   1.209   2.387   3.999
 1066SOL    HW1 3211   1.222   2.303   4.053
 1066SOL    HW2 3212   1.180   2.461   4.059
 1067SOL     OW 3213   0.307   2.075   4.955
 1067SOL    HW1 3214   0.284   2.112   5.045
 1067SOL    HW2 3215   0.277   1.980   4.949
 1068SOL     OW 3216   0.732   2.496   4.788
 1068SOL    HW1 3217   0.791   2.470   4.712
 1068SOL    HW2 3218   0.704   2.592   4.777
 1069SOL     OW 3219   0.307   1.925   4.342
 1069SOL    HW1 3220   0.296   2.019   4.375
 1069SOL    HW2 3221   0.302   1.862   4.419
 1070SOL     OW 3222   1.622   2.229   4.098
 1070SOL    HW1 3223   1.624   2.153   4.162
 1070SOL    HW2 3224   1.574   2.306   4.138
 1071SOL     OW 3225   1.023   2.628   4.690
 1071SOL    HW1 3226   1.038   2.649   4.786
 1071SOL    HW2 3227   0.993   2.533   4.681
 1072SOL     OW 3228   1.540   2.136   3.849
 1072SOL    HW1 3229   1.479   2.061   3.872
 1072SOL    HW2 3230   1.562   2.188   3.932
 1073SOL     OW 3231   1.303   2.700   3.766
 1073SOL    HW1 3232   1.337   2.607   3.781
 1073SOL    HW2 3233   1.321   2.727   3.671
 1074SOL     OW 3234   1.068   3.195   4.573
 1074SOL    HW1 3235   1.075   3.111   4.518
 1074SOL    HW2 3236   1.130   3.264   4.537
 1075SOL     OW 3237   0.319   2.672   4.673
 1075SOL    HW1 3238   0.412   2.708   4.678
 1075SOL    HW2 3239   0.313   2.587   4.725
 1076SOL     OW 3240   0.339   2.371   4.730
 1076SOL    HW1 3241   0.287   2.288   4.713
 1076SOL    HW2 3242   0.416   2.376   4.666
 1077SOL     OW 3243   0.008   3.188   3.924
 1077SOL    HW1 3244  -0.085   3.209   3.893
 1077SOL    HW2 3245   0.018   3.089   3.937
 1078SOL     OW 3246   0.088   3.663   4.651
 1078SOL    HW1 3247   0.046   3.577   4.624
 1078SOL    HW2 3248   0.182   3.666   4.617
 1079SOL     OW 3249   0.504   3.430   4.634
 1079SOL    HW1 3250   0.570   3.504   4.643
 1079SOL    HW2 3251   0.548   3.351   4.592
 1080SOL     OW 3252   1.002   2.658   4.962
 1080SOL    HW1 3253   1.043   2.626   5.048
 1080SOL    HW2 3254   0.906   2.631   4.959
 1081SOL     OW 3255   0.040   2.406   4.838
 1081SOL    HW1 3256   0.125   2.373   4.797
 1081SOL    HW2 3257   0.053   2.421   4.936
 1082SOL     OW 3258   0.815   2.434   4.049
 1082SOL    HW1 3259   0.822   2.345   4.003
 1082SOL    HW2 3260   0.721   2.468   4.041
 1083SOL     OW 3261   1.657   2.466   4.930
 1083SOL    HW1 3262   1.619   2.397   4.992
 1083SOL    HW2 3263   1.739   2.430   4.886
 1084SOL     OW 3264   0.671   2.326   4.993
 1084SOL    HW1 3265   0.637   2.237   4.963
 1084SOL    HW2 3266   0.697   2.380   4.913
 1085SOL     OW 3267   0.473   2.362   3.915
 1085SOL    HW1 3268   0.534   2.442   3.919
 1085SOL    HW2 3269   0.378   2.393   3.922
 1086SOL     OW 3270   1.302   2.717   4.033
 1086SOL    HW1 3271   1.216   2.686   4.075
 1086SOL    HW2 3272   1.298   2.703   3.934
 1087SOL     OW 3273   1.759   3.609   4.878
 1087SOL    HW1 3274   1.820   3.639   4.805
 1087SOL    HW2 3275   1.721   3.520   4.856
 1088SOL     OW 3276   0.083   3.120   4.746
 1088SOL    HW1 3277   0.078   3.119   4.846
 1088SOL    HW2 3278   0.000   3.079   4.708
 1089SOL     OW 3279   1.726   1.997   4.247
 1089SOL    HW1 3280   1.799   1.980   4.180
 1089SOL    HW2 3281   1.695   1.910   4.285
 1090SOL     OW 3282   1.388   3.435   4.201
 1090SOL    HW1 3283   1.455   3.447   4.127
 1090SOL    HW2 3284   1.348   3.524   4.224
 1091SOL     OW 3285   1.280   2.789   4.396
 1091SOL    HW1 3286   1.340   2.708   4.398
 1091SOL    HW2 3287   1.320   2.858   4.336
 1092SOL     OW 3288   0.672   3.478   3.878
 1092SOL    HW1 3289   0.681   3.488   3.779
 1092SOL    HW2 3290   0.632   3.389   3.899
 1093SOL     OW 3291   1.841   2.037   4.687
 1093SOL    HW1 3292   1.880   1.952   4.651
 1093SOL    HW2 3293   1.743   2.039   4.668
 1094SOL     OW 3294   0.263   2.188   4.444
 1094SOL    HW1 3295   0.184   2.239   4.410
 1094SOL    HW2 3296   0.254   2.173   4.542
 1095SOL     OW 3297   1.194   3.474   3.755
 1095SOL    HW1 3298   1.200   3.381   3.792
 1095SOL    HW2 3299   1.135   3.474   3.675
 1096SOL     OW 3300   0.822   2.864   5.096
 1096SOL    HW1 3301   0.862   2.863   5.004
 1096SOL    HW2 3302   0.832   2.956   5.136
 1097SOL     OW 3303   0.916   2.772   4.015
 1097SOL    HW1 3304   0.979   2.810   3.947
 1097SOL    HW2 3305   0.956   2.689   4.054
 1098SOL     OW 3306   1.504   3.469   3.768
 1098SOL    HW1 3307   1.412   3.506   3.775
 1098SOL    HW2 3308   1.542   3.489   3.678
 1099SOL     OW 3309   1.039   2.960   4.420
 1099SOL    HW1 3310   0.969   2.913   4.474
 1099SOL    HW2 3311   1.098   2.892   4.377
 1100SOL     OW 3312   1.014   2.098   4.695
 1100SOL    HW1 3313   1.006   2.062   4.602
 1100SOL    HW2 3314   1.012   2.022   4.760
 1101SOL     OW 3315   0.590   3.349   4.215
 1101SOL    HW1 3316   0.632   3.291   4.145
 1101SOL    HW2 3317   0.546   3.428   4.171
 1102SOL     OW 3318   1.709   2.247   5.105
 1102SOL    HW1 3319   1.782   2.316   5.109
 1102SOL    HW2 3320   1.737   2.172   5.046
 1103SOL     OW 3321   0.255   3.210   4.014
 1103SOL    HW1 3322   0.159   3.211   3.987
 1103SOL    HW2 3323   0.267   3.263   4.098
 1104SOL     OW 3324   0.075   2.207   3.757
 1104SOL    HW1 3325  -0.017   2.179   3.728
 1104SOL    HW2 3326   0.106   2.284   3.701
 1105SOL     OW 3327   0.072   2.028   4.042
 1105SOL    HW1 3328   0.055   2.111   3.988
 1105SOL    HW2 3329   0.162   1.991   4.020
 1106SOL     OW 3330   1.183   3.197   3.843
 1106SOL    HW1 3331   1.084   3.186   3.845
 1106SOL    HW2 3332   1.217   3.212   3.936
 1107SOL     OW 3333   1.493   3.629   4.683
 1107SOL    HW1 3334   1.526   3.693   4.614
 1107SOL    HW2 3335   1.559   3.623   4.758
 1108SOL     OW 3336   1.674   2.745   4.978
 1108SOL    HW1 3337   1.647   2.656   4.941
 1108SOL    HW2 3338   1.675   2.813   4.905
 1109SOL     OW 3339   1.225   2.187   4.173
 1109SOL    HW1 3340   1.290   2.113   4.162
 1109SOL    HW2 3341   1.245   2.237   4.257
 1110SOL     OW 3342   0.594   2.607   4.376
 1110SOL    HW1 3343   0.644   2.692   4.357
 1110SOL    HW2 3344   0.506   2.609   4.328
 1111SOL     OW 3345   0.859   3.236   3.740
 1111SOL    HW1 3346   0.813   3.251   3.828
 1111SOL    HW2 3347   0.903   3.321   3.710
 1112SOL     OW 3348   0.661   3.652   4.677
 1112SOL    HW1 3349   0.615   3.740   4.664
 1112SOL    HW2 3350   0.760   3.664   4.670
 1113SOL     OW 3351   0.859   2.818   4.585
 1113SOL    HW1 3352   0.913   2.749   4.633
 1113SOL    HW2 3353   0.827   2.887   4.651
 1114SOL     OW 3354   1.083   2.846   3.811
 1114SOL    HW1 3355   1.060   2.899   3.729
 1114SOL    HW2 3356   1.164   2.790   3.792
 1115SOL     OW 3357   1.861   3.431   4.575
 1115SOL    HW1 3358   1.790   3.419   4.505
 1115SOL    HW2 3359   1.862   3.352   4.635
 1116SOL     OW 3360   0.079   3.102   4.377
 1116SOL    HW1 3361   0.078   3.055   4.465
 1116SOL    HW2 3362   0.161   3.074   4.326
 1117SOL     OW 3363   1.824   2.054   4.951
 1117SOL    HW1 3364   1.820   1.964   4.995
 1117SOL    HW2 3365   1.827   2.043   4.852
 1118SOL     OW 3366   0.428   2.286   4.244
 1118SOL    HW1 3367   0.458   2.214   4.182
 1118SOL    HW2 3368   0.389   2.246   4.327
 1119SOL     OW 3369   1.705   3.349   4.828
 1119SOL    HW1 3370   1.612   3.324   4.801
 1119SOL    HW2 3371   1.731   3.299   4.910
 1120SOL     OW 3372   0.812   3.448   4.411
 1120SOL    HW1 3373   0.844   3.458   4.317
 1120SOL    HW2 3374   0.733   3.386   4.413
 1121SOL     OW 3375   1.424   2.076   4.836
 1121SOL    HW1 3376   1.476   2.011   4.891
 1121SOL    HW2 3377   1.375   2.139   4.897
 1122SOL     OW 3378   0.770   3.192   4.025
 1122SOL    HW1 3379   0.724   3.105   4.042
 1122SOL    HW2 3380   0.861   3.189   4.066
 1123SOL     OW 3381   1.352   1.914   3.892
 1123SOL    HW1 3382   1.387   1.873   3.808
 1123SOL    HW2 3383   1.262   1.876   3.912
 1124SOL     OW 3384   1.300   2.315   4.415
 1124SOL    HW1 3385   1.241   2.395   4.419
 1124SOL    HW2 3386   1.315   2.280   4.508
 1125SOL     OW 3387   1.593   2.083   4.606
 1125SOL    HW1 3388   1.509   2.082   4.660
 1125SOL    HW2 3389   1.595   2.166   4.550
 1126SOL     OW 3390   0.039   2.939   4.024
 1126SOL    HW1 3391   0.138   2.928   4.015
 1126SOL    HW2 3392  -0.001   2.853   4.056
 1127SOL     OW 3393   0.875   3.508   4.061
 1127SOL    HW1 3394   0.798   3.473   4.007
 1127SOL    HW2 3395   0.843   3.579   4.123
 1128SOL     OW 3396   0.230   4.352   0.113
 1128SOL    HW1 3397   0.137   4.350   0.150
 1128SOL    HW2 3398   0.231   4.313   0.021
 1129SOL     OW 3399   0.225   3.999   0.996
 1129SOL    HW1 3400   0.260   3.982   1.088
 1129SOL    HW2 3401   0.137   3.954   0.984
 1130SOL     OW 3402   0.019   4.092   0.647
 1130SOL    HW1 3403  -0.063   4.135   0.686
 1130SOL    HW2 3404  -0.009   4.019   0.584
 1131SOL     OW 3405   1.135   4.427   0.717
 1131SOL    HW1 3406   1.192   4.505   0.692
 1131SOL    HW2 3407   1.075   4.453   0.793
 1132SOL     OW 3408   1.755   4.331   0.231
 1132SOL    HW1 3409   1.743   4.318   0.132
 1132SOL    HW2 3410   1.725   4.250   0.280
 1133SOL     OW 3411   0.768   4.868   1.023
 1133SOL    HW1 3412   0.690   4.885   1.083
 1133SOL    HW2 3413   0.802   4.955   0.987
 1134SOL     OW 3414   0.850   4.522   1.823
 1134SOL    HW1 3415   0.846   4.598   1.888
 1134SOL    HW2 3416   0.872   4.558   1.732
 1135SOL     OW 3417   0.685   4.736   0.665
 1135SOL    HW1 3418   0.754   4.720   0.735
 1135SOL    HW2 3419   0.612   4.793   0.703
 1136SOL     OW 3420   1.460   5.229   1.339
 1136SOL    HW1 3421   1.484   5.323   1.365
 1136SOL    HW2 3422   1.444   5.175   1.421
 1137SOL     OW 3423   0.438   4.116   1.499
 1137SOL    HW1 3424   0.520   4.060   1.508
 1137SOL    HW2 3425   0.357   4.058   1.503
 1138SOL     OW 3426   1.603   4.171   0.737
 1138SOL    HW1 3427   1.529   4.217   0.687
 1138SOL    HW2 3428   1.654   4.239   0.790
 1139SOL     OW 3429   0.240   4.815   0.886
 1139SOL    HW1 3430   0.254   4.731   0.938
 1139SOL    HW2 3431   0.185   4.879   0.941
 1140SOL     OW 3432   0.606   4.688   0.123
 1140SOL    HW1 3433   0.613   4.772   0.069
 1140SOL    HW2 3434   0.652   4.701   0.211
 1141SOL     OW 3435   1.594   3.838   1.480
 1141SOL    HW1 3436   1.576   3.905   1.408
 1141SOL    HW2 3437   1.591   3.884   1.569
 1142SOL     OW 3438   0.122   4.367   0.563
 1142SOL    HW1 3439   0.077   4.279   0.580
 1142SOL    HW2 3440   0.121   4.421   0.647
 1143SOL     OW 3441   1.689   4.646   0.612
 1143SOL    HW1 3442   1.784   4.617   0.620
 1143SOL    HW2 3443   1.681   4.711   0.537
 1144SOL     OW 3444   0.113   4.461   1.597
 1144SOL    HW1 3445   0.201   4.448   1.642
 1144SOL    HW2 3446   0.100   4.558   1.575
 1145SOL     OW 3447   0.613   5.089   0.726
 1145SOL    HW1 3448   0.564   5.002   0.735
 1145SOL    HW2 3449   0.590   5.132   0.639
 1146SOL     OW 3450   1.293   4.952   1.423
 1146SOL    HW1 3451   1.330   4.879   1.365
 1146SOL    HW2 3452   1.345   4.957   1.508
 1147SOL     OW 3453   0.809   3.728   0.502
 1147SOL    HW1 3454   0.849   3.819   0.493
 1147SOL    HW2 3455   0.709   3.736   0.508
 1148SOL     OW 3456   0.197   4.700   1.264
 1148SOL    HW1 3457   0.286   4.655   1.250
 1148SOL    HW2 3458   0.124   4.635   1.245
 1149SOL     OW 3459   1.525   4.723   0.190
 1149SOL    HW1 3460   1.462   4.647   0.203
 1149SOL    HW2 3461   1.573   4.741   0.276
 1150SOL     OW 3462   0.317   3.975   1.801
 1150SOL    HW1 3463   0.388   4.046   1.807
 1150SOL    HW2 3464   0.229   4.014   1.829
 1151SOL     OW 3465   0.598   4.453   0.270
 1151SOL    HW1 3466   0.622   4.522   0.202
 1151SOL    HW2 3467   0.520   4.486   0.324
 1152SOL     OW 3468   1.281   4.069   0.944
 1152SOL    HW1 3469   1.195   4.019   0.931
 1152SOL    HW2 3470   1.343   4.015   1.000
 1153SOL     OW 3471   0.807   4.329   1.465
 1153SOL    HW1 3472   0.760   4.326   1.554
 1153SOL    HW2 3473   0.756   4.274   1.399
 1154SOL     OW 3474   1.394   4.193   1.674
 1154SOL    HW1 3475   1.374   4.236   1.762
 1154SOL    HW2 3476   1.472   4.131   1.683
 1155SOL     OW 3477   0.973   4.614   1.572
 1155SOL    HW1 3478   1.019   4.530   1.543
 1155SOL    HW2 3479   0.917   4.648   1.497
 1156SOL     OW 3480   0.991   4.134   1.242
 1156SOL    HW1 3481   0.914   4.168   1.296
 1156SOL    HW2 3482   0.957   4.083   1.163
 1157SOL     OW 3483   1.041   4.425   0.429
 1157SOL    HW1 3484   1.067   4.421   0.525
 1157SOL    HW2 3485   0.956   4.374   0.415
 1158SOL     OW 3486   0.076   4.535   0.789
 1158SOL    HW1 3487   0.175   4.523   0.798
 1158SOL    HW2 3488   0.052   4.630   0.810
 1159SOL     OW 3489   0.865   4.072   0.195
 1159SOL    HW1 3490   0.924   4.135   0.146
 1159SOL    HW2 3491   0.884   3.978   0.166
 1160SOL     OW 3492   1.719   4.309   1.831
 1160SOL    HW1 3493   1.693   4.398   1.795
 1160SOL    HW2 3494   1.717   4.241   1.758
 1161SOL     OW 3495   0.550   3.920   0.885
 1161SOL    HW1 3496   0.545   3.915   0.985
 1161SOL    HW2 3497   0.552   4.016   0.856
 1162SOL     OW 3498   1.795   4.790   0.873
 1162SOL    HW1 3499   1.733   4.775   0.797
 1162SOL    HW2 3500   1.743   4.801   0.958
 1163SOL     OW 3501   0.321   4.667   0.242
 1163SOL    HW1 3502   0.403   4.706   0.200
 1163SOL    HW2 3503   0.294   4.585   0.193
 1164SOL     OW 3504   1.458   4.459   0.728
 1164SOL    HW1 3505   1.453   4.394   0.803
 1164SOL    HW2 3506   1.538   4.518   0.741
 1165SOL     OW 3507   0.202   4.009   1.498
 1165SOL    HW1 3508   0.122   4.069   1.485
 1165SOL    HW2 3509   0.192   3.960   1.584
 1166SOL     OW 3510   1.400   3.831   0.426
 1166SOL    HW1 3511   1.376   3.794   0.336
 1166SOL    HW2 3512   1.499   3.847   0.430
 1167SOL     OW 3513   0.382   4.424   0.480
 1167SOL    HW1 3514   0.427   4.334   0.477
 1167SOL    HW2 3515   0.288   4.413   0.513
 1168SOL     OW 3516   1.547   3.946   1.729
 1168SOL    HW1 3517   1.542   3.983   1.821
 1168SOL    HW2 3518   1.475   3.877   1.717
 1169SOL     OW 3519   0.614   3.846   0.117
 1169SOL    HW1 3520   0.712   3.824   0.124
 1169SOL    HW2 3521   0.583   3.829   0.024
 1170SOL     OW 3522   0.781   3.988   1.749
 1170SOL    HW1 3523   0.848   3.927   1.792
 1170SOL    HW2 3524   0.708   4.007   1.814
 1171SOL     OW 3525   1.351   4.314   1.433
 1171SOL    HW1 3526   1.379   4.271   1.518
 1171SOL    HW2 3527   1.376   4.410   1.434
 1172SOL     OW 3528   0.922   4.227   0.899
 1172SOL    HW1 3529   0.897   4.218   0.803
 1172SOL    HW2 3530   0.970   4.145   0.930
 1173SOL     OW 3531   0.539   3.788   0.512
 1173SOL    HW1 3532   0.458   3.789   0.570
 1173SOL    HW2 3533   0.542   3.871   0.457
 1174SOL     OW 3534   0.297   3.759   0.171
 1174SOL    HW1 3535   0.346   3.843   0.150
 1174SOL    HW2 3536   0.359   3.694   0.216
 1175SOL     OW 3537   0.935   3.960   0.480
 1175SOL    HW1 3538   0.887   4.001   0.402
 1175SOL    HW2 3539   1.034   3.958   0.461
 1176SOL     OW 3540   1.076   4.407   1.464
 1176SOL    HW1 3541   0.996   4.346   1.467
 1176SOL    HW2 3542   1.157   4.354   1.440
 1177SOL     OW 3543   0.459   4.876   0.741
 1177SOL    HW1 3544   0.388   4.849   0.806
 1177SOL    HW2 3545   0.433   4.848   0.648
 1178SOL     OW 3546   1.032   4.273   0.016
 1178SOL    HW1 3547   0.991   4.355  -0.023
 1178SOL    HW2 3548   1.096   4.299   0.089
 1179SOL     OW 3549   0.078   4.280   1.386
 1179SOL    HW1 3550   0.170   4.279   1.345
 1179SOL    HW2 3551   0.072   4.354   1.453
 1180SOL     OW 3552   0.561   3.946   1.147
 1180SOL    HW1 3553   0.599   3.862   1.184
 1180SOL    HW2 3554   0.473   3.965   1.191
 1181SOL     OW 3555   0.866   4.178   0.642
 1181SOL    HW1 3556   0.834   4.250   0.580
 1181SOL    HW2 3557   0.890   4.097   0.589
 1182SOL     OW 3558   1.017   3.763   0.753
 1182SOL    HW1 3559   0.945   3.768   0.684
 1182SOL    HW2 3560   0.993   3.694   0.822
 1183SOL     OW 3561   1.429   4.897   0.867
 1183SOL    HW1 3562   1.374   4.813   0.860
 1183SOL    HW2 3563   1.455   4.926   0.775
 1184SOL     OW 3564   1.466   4.314   0.992
 1184SOL    HW1 3565   1.436   4.219   0.999
 1184SOL    HW2 3566   1.539   4.330   1.058
 1185SOL     OW 3567   1.857   4.557   0.377
 1185SOL    HW1 3568   1.899   4.493   0.441
 1185SOL    HW2 3569   1.819   4.506   0.299
 1186SOL     OW 3570   1.390   4.299   0.078
 1186SOL    HW1 3571   1.336   4.278   0.159
 1186SOL    HW2 3572   1.481   4.258   0.087
 1187SOL     OW 3573   0.527   3.980   0.328
 1187SOL    HW1 3574   0.554   3.921   0.253
 1187SOL    HW2 3575   0.527   4.075   0.297
 1188SOL     OW 3576   1.754   4.947   1.588
 1188SOL    HW1 3577   1.845   4.908   1.575
 1188SOL    HW2 3578   1.762   5.043   1.612
 1189SOL     OW 3579   1.638   4.823   1.079
 1189SOL    HW1 3580   1.643   4.904   1.138
 1189SOL    HW2 3581   1.552   4.825   1.028
 1190SOL     OW 3582   0.915   3.813   1.402
 1190SOL    HW1 3583   0.940   3.793   1.307
 1190SOL    HW2 3584   0.987   3.869   1.444
 1191SOL     OW 3585   0.705   4.774   0.368
 1191SOL    HW1 3586   0.691   4.781   0.467
 1191SOL    HW2 3587   0.789   4.723   0.350
 1192SOL     OW 3588   0.410   4.537   1.251
 1192SOL    HW1 3589   0.496   4.549   1.301
 1192SOL    HW2 3590   0.368   4.450   1.278
 1193SOL     OW 3591   1.274   4.110   1.262
 1193SOL    HW1 3592   1.295   4.184   1.326
 1193SOL    HW2 3593   1.185   4.127   1.219
 1194SOL     OW 3594   0.367   4.824   0.501
 1194SOL    HW1 3595   0.360   4.907   0.445
 1194SOL    HW2 3596   0.371   4.744   0.441
 1195SOL     OW 3597   0.566   4.261   0.865
 1195SOL    HW1 3598   0.578   4.327   0.791
 1195SOL    HW2 3599   0.612   4.295   0.948
 1196SOL     OW 3600   1.582   4.363   0.472
 1196SOL    HW1 3601   1.551   4.424   0.545
 1196SOL    HW2 3602   1.632   4.415   0.403
 1197SOL     OW 3603   0.402   4.475   1.598
 1197SOL    HW1 3604   0.470   4.530   1.551
 1197SOL    HW2 3605   0.442   4.387   1.625
 1198SOL     OW 3606   1.587   4.503   1.670
 1198SOL    HW1 3607   1.495   4.541   1.665
 1198SOL    HW2 3608   1.647   4.550   1.605
 1199SOL     OW 3609   1.013   3.829   1.770
 1199SOL    HW1 3610   1.019   3.914   1.718
 1199SOL    HW2 3611   1.045   3.753   1.713
 1200SOL     OW 3612   0.504   3.774   1.740
 1200SOL    HW1 3613   0.462   3.717   1.670
 1200SOL    HW2 3614   0.438   3.843   1.772
 1201SOL     OW 3615   0.573   4.594   1.029
 1201SOL    HW1 3616   0.617   4.683   1.020
 1201SOL    HW2 3617   0.510   4.594   1.106
 1202SOL     OW 3618   1.360   4.586   1.045
 1202SOL    HW1 3619   1.285   4.586   0.979
 1202SOL    HW2 3620   1.397   4.494   1.054
 1203SOL     OW 3621   1.209   4.249   0.275
 1203SOL    HW1 3622   1.222   4.165   0.329
 1203SOL    HW2 3623   1.180   4.323   0.335
 1204SOL     OW 3624   0.307   3.937   1.231
 1204SOL    HW1 3625   0.284   3.974   1.321
 1204SOL    HW2 3626   0.277   3.842   1.225
 1205SOL     OW 3627   0.037   5.034   1.282
 1205SOL    HW1 3628   0.090   4.985   1.350
 1205SOL    HW2 3629   0.059   5.132   1.287
 1206SOL     OW 3630   0.732   4.358   1.064
 1206SOL    HW1 3631   0.791   4.332   0.988
 1206SOL    HW2 3632   0.704   4.454   1.053
 1207SOL     OW 3633   1.728   4.659   1.854
 1207SOL    HW1 3634   1.682   4.652   1.765
 1207SOL    HW2 3635   1.666   4.703   1.920
 1208SOL     OW 3636   0.307   3.787   0.618
 1208SOL    HW1 3637   0.296   3.881   0.651
 1208SOL    HW2 3638   0.302   3.724   0.695
 1209SOL     OW 3639   1.622   4.091   0.374
 1209SOL    HW1 3640   1.624   4.015   0.438
 1209SOL    HW2 3641   1.574   4.168   0.414
 1210SOL     OW 3642   1.023   4.490   0.966
 1210SOL    HW1 3643   1.038   4.511   1.062
 1210SOL    HW2 3644   0.993   4.395   0.957
 1211SOL     OW 3645   0.350   4.622   1.804
 1211SOL    HW1 3646   0.426   4.666   1.852
 1211SOL    HW2 3647   0.385   4.575   1.722
 1212SOL     OW 3648   1.540   3.998   0.125
 1212SOL    HW1 3649   1.479   3.923   0.148
 1212SOL    HW2 3650   1.562   4.050   0.208
 1213SOL     OW 3651   1.303   4.562   0.042
 1213SOL    HW1 3652   1.337   4.469   0.057
 1213SOL    HW2 3653   1.321   4.589  -0.053
 1214SOL     OW 3654   0.319   4.534   0.949
 1214SOL    HW1 3655   0.412   4.570   0.954
 1214SOL    HW2 3656   0.313   4.449   1.001
 1215SOL     OW 3657   0.339   4.233   1.006
 1215SOL    HW1 3658   0.287   4.150   0.989
 1215SOL    HW2 3659   0.416   4.238   0.942
 1216SOL     OW 3660   1.138   4.104   1.678
 1216SOL    HW1 3661   1.093   4.167   1.742
 1216SOL    HW2 3662   1.231   4.135   1.661
 1217SOL     OW 3663   1.160   3.931   1.477
 1217SOL    HW1 3664   1.160   3.995   1.554
 1217SOL    HW2 3665   1.188   3.979   1.394
 1218SOL     OW 3666   1.002   4.520   1.238
 1218SOL    HW1 3667   1.043   4.488   1.324
 1218SOL    HW2 3668   0.906   4.493   1.235
 1219SOL     OW 3669   0.040   4.268   1.114
 1219SOL    HW1 3670   0.125   4.235   1.073
 1219SOL    HW2 3671   0.053   4.283   1.212
 1220SOL     OW 3672   0.189   4.244   1.722
 1220SOL    HW1 3673   0.248   4.204   1.652
 1220SOL    HW2 3674   0.131   4.315   1.681
 1221SOL     OW 3675   1.369   4.674   1.660
 1221SOL    HW1 3676   1.408   4.763   1.680
 1221SOL    HW2 3677   1.379   4.654   1.563
 1222SOL     OW 3678   0.815   4.296   0.325
 1222SOL    HW1 3679   0.822   4.207   0.279
 1222SOL    HW2 3680   0.721   4.330   0.317
 1223SOL     OW 3681   1.657   4.328   1.206
 1223SOL    HW1 3682   1.619   4.259   1.268
 1223SOL    HW2 3683   1.739   4.292   1.162
 1224SOL     OW 3684   0.671   4.188   1.269
 1224SOL    HW1 3685   0.637   4.099   1.239
 1224SOL    HW2 3686   0.697   4.242   1.189
 1225SOL     OW 3687   0.473   4.224   0.191
 1225SOL    HW1 3688   0.534   4.304   0.195
 1225SOL    HW2 3689   0.378   4.255   0.198
 1226SOL     OW 3690   0.159   4.861   1.466
 1226SOL    HW1 3691   0.181   4.800   1.542
 1226SOL    HW2 3692   0.169   4.812   1.380
 1227SOL     OW 3693   1.347   4.783   1.234
 1227SOL    HW1 3694   1.371   4.720   1.160
 1227SOL    HW2 3695   1.257   4.823   1.216
 1228SOL     OW 3696   1.302   4.579   0.309
 1228SOL    HW1 3697   1.216   4.548   0.351
 1228SOL    HW2 3698   1.298   4.565   0.210
 1229SOL     OW 3699   0.083   4.982   1.022
 1229SOL    HW1 3700   0.078   4.981   1.122
 1229SOL    HW2 3701   0.000   4.941   0.984
 1230SOL     OW 3702   0.903   3.810   0.133
 1230SOL    HW1 3703   0.954   3.811   0.047
 1230SOL    HW2 3704   0.959   3.768   0.204
 1231SOL     OW 3705   1.726   3.859   0.523
 1231SOL    HW1 3706   1.799   3.842   0.456
 1231SOL    HW2 3707   1.695   3.772   0.561
 1232SOL     OW 3708   1.280   4.651   0.672
 1232SOL    HW1 3709   1.340   4.570   0.674
 1232SOL    HW2 3710   1.320   4.720   0.612
 1233SOL     OW 3711   1.841   3.899   0.963
 1233SOL    HW1 3712   1.880   3.814   0.927
 1233SOL    HW2 3713   1.743   3.901   0.944
 1234SOL     OW 3714   0.263   4.050   0.720
 1234SOL    HW1 3715   0.184   4.101   0.686
 1234SOL    HW2 3716   0.254   4.035   0.818
 1235SOL     OW 3717   0.822   4.726   1.372
 1235SOL    HW1 3718   0.862   4.725   1.280
 1235SOL    HW2 3719   0.832   4.818   1.412
 1236SOL     OW 3720   0.916   4.634   0.291
 1236SOL    HW1 3721   0.979   4.672   0.223
 1236SOL    HW2 3722   0.956   4.551   0.330
 1237SOL     OW 3723   0.372   5.012   1.490
 1237SOL    HW1 3724   0.359   5.105   1.456
 1237SOL    HW2 3725   0.288   4.960   1.477
 1238SOL     OW 3726   1.014   3.960   0.971
 1238SOL    HW1 3727   1.006   3.924   0.878
 1238SOL    HW2 3728   1.012   3.884   1.036
 1239SOL     OW 3729   1.709   4.109   1.381
 1239SOL    HW1 3730   1.782   4.178   1.385
 1239SOL    HW2 3731   1.737   4.034   1.322
 1240SOL     OW 3732   0.105   4.737   1.726
 1240SOL    HW1 3733   0.028   4.704   1.780
 1240SOL    HW2 3734   0.190   4.707   1.768
 1241SOL     OW 3735   0.672   3.927   1.489
 1241SOL    HW1 3736   0.762   3.911   1.449
 1241SOL    HW2 3737   0.680   3.932   1.588
 1242SOL     OW 3738   0.075   4.069   0.033
 1242SOL    HW1 3739  -0.017   4.041   0.004
 1242SOL    HW2 3740   0.106   4.146  -0.023
 1243SOL     OW 3741   1.440   4.580   1.398
 1243SOL    HW1 3742   1.383   4.632   1.335
 1243SOL    HW2 3743   1.536   4.592   1.374
 1244SOL     OW 3744   0.072   3.890   0.318
 1244SOL    HW1 3745   0.055   3.973   0.264
 1244SOL    HW2 3746   0.162   3.853   0.296
 1245SOL     OW 3747   0.613   4.566   1.431
 1245SOL    HW1 3748   0.669   4.647   1.414
 1245SOL    HW2 3749   0.672   4.486   1.434
 1246SOL     OW 3750   0.716   4.289   1.708
 1246SOL    HW1 3751   0.735   4.354   1.782
 1246SOL    HW2 3752   0.776   4.209   1.717
 1247SOL     OW 3753   1.450   4.944   1.633
 1247SOL    HW1 3754   1.441   4.934   1.732
 1247SOL    HW2 3755   1.546   4.937   1.607
 1248SOL     OW 3756   1.674   4.607   1.254
 1248SOL    HW1 3757   1.647   4.518   1.217
 1248SOL    HW2 3758   1.675   4.675   1.181
 1249SOL     OW 3759   1.225   4.049   0.449
 1249SOL    HW1 3760   1.290   3.975   0.438
 1249SOL    HW2 3761   1.245   4.099   0.533
 1250SOL     OW 3762   0.594   4.469   0.652
 1250SOL    HW1 3763   0.644   4.554   0.633
 1250SOL    HW2 3764   0.506   4.471   0.604
 1251SOL     OW 3765   1.777   4.066   1.642
 1251SOL    HW1 3766   1.760   4.097   1.548
 1251SOL    HW2 3767   1.693   4.029   1.680
 1252SOL     OW 3768   1.730   4.658   1.517
 1252SOL    HW1 3769   1.768   4.749   1.532
 1252SOL    HW2 3770   1.722   4.641   1.418
 1253SOL     OW 3771   0.859   4.680   0.861
 1253SOL    HW1 3772   0.913   4.611   0.909
 1253SOL    HW2 3773   0.827   4.749   0.927
 1254SOL     OW 3774   1.083   4.708   0.087
 1254SOL    HW1 3775   1.060   4.761   0.005
 1254SOL    HW2 3776   1.164   4.652   0.068
 1255SOL     OW 3777   0.079   4.964   0.653
 1255SOL    HW1 3778   0.078   4.917   0.741
 1255SOL    HW2 3779   0.161   4.936   0.602
 1256SOL     OW 3780   1.824   3.916   1.227
 1256SOL    HW1 3781   1.820   3.826   1.271
 1256SOL    HW2 3782   1.827   3.905   1.128
 1257SOL     OW 3783   0.428   4.148   0.520
 1257SOL    HW1 3784   0.458   4.076   0.458
 1257SOL    HW2 3785   0.389   4.108   0.603
 1258SOL     OW 3786   0.317   4.271   1.280
 1258SOL    HW1 3787   0.355   4.212   1.352
 1258SOL    HW2 3788   0.357   4.245   1.192
 1259SOL     OW 3789   1.424   3.938   1.112
 1259SOL    HW1 3790   1.476   3.873   1.167
 1259SOL    HW2 3791   1.375   4.001   1.173
 1260SOL     OW 3792   1.001   3.758   1.154
 1260SOL    HW1 3793   0.938   3.686   1.123
 1260SOL    HW2 3794   1.094   3.722   1.154
 1261SOL     OW 3795   0.770   5.054   0.301
 1261SOL    HW1 3796   0.724   4.967   0.318
 1261SOL    HW2 3797   0.861   5.051   0.342
 1262SOL     OW 3798   1.352   3.776   0.168
 1262SOL    HW1 3799   1.387   3.735   0.084
 1262SOL    HW2 3800   1.262   3.738   0.188
 1263SOL     OW 3801   1.300   4.177   0.691
 1263SOL    HW1 3802   1.241   4.257   0.695
 1263SOL    HW2 3803   1.315   4.142   0.784
 1264SOL     OW 3804   1.593   3.945   0.882
 1264SOL    HW1 3805   1.509   3.944   0.936
 1264SOL    HW2 3806   1.595   4.028   0.826
 1265SOL     OW 3807   0.039   4.801   0.300
 1265SOL    HW1 3808   0.138   4.790   0.291
 1265SOL    HW2 3809  -0.001   4.715   0.332
 1266SOL     OW 3810   0.230   4.352   1.975
 1266SOL    HW1 3811   0.137   4.350   2.012
 1266SOL    HW2 3812   0.231   4.313   1.883
 1267SOL     OW 3813   0.225   3.999   2.858
 1267SOL    HW1 3814   0.260   3.982   2.950
 1267SOL    HW2 3815   0.137   3.954   2.846
 1268SOL     OW 3816   0.019   4.092   2.509
 1268SOL    HW1 3817  -0.063   4.135   2.548
 1268SOL    HW2 3818  -0.009   4.019   2.446
 1269SOL     OW 3819   1.135   4.427   2.579
 1269SOL    HW1 3820   1.192   4.505   2.554
 1269SOL    HW2 3821   1.075   4.453   2.655
 1270SOL     OW 3822   1.755   4.331   2.093
 1270SOL    HW1 3823   1.743   4.318   1.994
 1270SOL    HW2 3824   1.725   4.250   2.142
 1271SOL     OW 3825   0.768   4.868   2.885
 1271SOL    HW1 3826   0.690   4.885   2.945
 1271SOL    HW2 3827   0.802   4.955   2.849
 1272SOL     OW 3828   0.850   4.522   3.685
 1272SOL    HW1 3829   0.846   4.598   3.750
 1272SOL    HW2 3830   0.872   4.558   3.594
 1273SOL     OW 3831   0.685   4.736   2.527
 1273SOL    HW1 3832   0.754   4.720   2.597
 1273SOL    HW2 3833   0.612   4.793   2.565
 1274SOL     OW 3834   1.460   5.229   3.201
 1274SOL    HW1 3835   1.484   5.323   3.227
 1274SOL    HW2 3836   1.444   5.175   3.283
 1275SOL     OW 3837   0.438   4.116   3.361
 1275SOL    HW1 3838   0.520   4.060   3.370
 1275SOL    HW2 3839   0.357   4.058   3.365
 1276SOL     OW 3840   1.603   4.171   2.599
 1276SOL    HW1 3841   1.529   4.217   2.549
 1276SOL    HW2 3842   1.654   4.239   2.652
 1277SOL     OW 3843   0.240   4.815   2.748
 1277SOL    HW1 3844   0.254   4.731   2.800
 1277SOL    HW2 3845   0.185   4.879   2.803
 1278SOL     OW 3846   0.606   4.688   1.985
 1278SOL    HW1 3847   0.613   4.772   1.931
 1278SOL    HW2 3848   0.652   4.701   2.073
 1279SOL     OW 3849   1.594   3.838   3.342
 1279SOL    HW1 3850   1.576   3.905   3.270
 1279SOL    HW2 3851   1.591   3.884   3.431
 1280SOL     OW 3852   0.122   4.367   2.425
 1280SOL    HW1 3853   0.077   4.279   2.442
 1280SOL    HW2 3854   0.121   4.421   2.509
 1281SOL     OW 3855   1.689   4.646   2.474
 1281SOL    HW1 3856   1.784   4.617   2.482
 1281SOL    HW2 3857   1.681   4.711   2.399
 1282SOL     OW 3858   0.113   4.461   3.459
 1282SOL    HW1 3859   0.201   4.448   3.504
 1282SOL    HW2 3860   0.100   4.558   3.437
 1283SOL     OW 3861   0.613   5.089   2.588
 1283SOL    HW1 3862   0.564   5.002   2.597
 1283SOL    HW2 3863   0.590   5.132   2.501
 1284SOL     OW 3864   1.293   4.952   3.285
 1284SOL    HW1 3865   1.330   4.879   3.227
 1284SOL    HW2 3866   1.345   4.957   3.370
 1285SOL     OW 3867   0.809   3.728   2.364
 1285SOL    HW1 3868   0.849   3.819   2.355
 1285SOL    HW2 3869   0.709   3.736   2.370
 1286SOL     OW 3870   0.197   4.700   3.126
 1286SOL    HW1 3871   0.286   4.655   3.112
 1286SOL    HW2 3872   0.124   4.635   3.107
 1287SOL     OW 3873   1.525   4.723   2.052
 1287SOL    HW1 3874   1.462   4.647   2.065
 1287SOL    HW2 3875   1.573   4.741   2.138
 1288SOL     OW 3876   0.317   3.975   3.663
 1288SOL    HW1 3877   0.388   4.046   3.669
 1288SOL    HW2 3878   0.229   4.014   3.691
 1289SOL     OW 3879   0.598   4.453   2.132
 1289SOL    HW1 3880   0.622   4.522   2.064
 1289SOL    HW2 3881   0.520   4.486   2.186
 1290SOL     OW 3882   1.281   4.069   2.806
 1290SOL    HW1 3883   1.195   4.019   2.793
 1290SOL    HW2 3884   1.343   4.015   2.862
 1291SOL     OW 3885   0.807   4.329   3.327
 1291SOL    HW1 3886   0.760   4.326   3.416
 1291SOL    HW2 3887   0.756   4.274   3.261
 1292SOL     OW 3888   1.394   4.193   3.536
 1292SOL    HW1 3889   1.374   4.236   3.624
 1292SOL    HW2 3890   1.472   4.131   3.545
 1293SOL     OW 3891   0.973   4.614   3.434
 1293SOL    HW1 3892   1.019   4.530   3.405
 1293SOL    HW2 3893   0.917   4.648   3.359
 1294SOL     OW 3894   0.991   4.134   3.104
 1294SOL    HW1 3895   0.914   4.168   3.158
 1294SOL    HW2 3896   0.957   4.083   3.025
 1295SOL     OW 3897   1.041   4.425   2.291
 1295SOL    HW1 3898   1.067   4.421   2.387
 1295SOL    HW2 3899   0.956   4.374   2.277
 1296SOL     OW 3900   0.076   4.535   2.651
 1296SOL    HW1 3901   0.175   4.523   2.660
 1296SOL    HW2 3902   0.052   4.630   2.672
 1297SOL     OW 3903   0.865   4.072   2.057
 1297SOL    HW1 3904   0.924   4.135   2.008
 1297SOL    HW2 3905   0.884   3.978   2.028
 1298SOL     OW 3906   1.719   4.309   3.693
 1298SOL    HW1 3907   1.693   4.398   3.657
 1298SOL    HW2 3908   1.717   4.241   3.620
 1299SOL     OW 3909   0.550   3.920   2.747
 1299SOL    HW1 3910   0.545   3.915   2.847
 1299SOL    HW2 3911   0.552   4.016   2.718
 1300SOL     OW 3912   1.795   4.790   2.735
 1300SOL    HW1 3913   1.733   4.775   2.659
 1300SOL    HW2 3914   1.743   4.801   2.820
 1301SOL     OW 3915   0.321   4.667   2.104
 1301SOL    HW1 3916   0.403   4.706   2.062
 1301SOL    HW2 3917   0.294   4.585   2.055
 1302SOL     OW 3918   1.458   4.459   2.590
 1302SOL    HW1 3919   1.453   4.394   2.665
 1302SOL    HW2 3920   1.538   4.518   2.603
 1303SOL     OW 3921   0.202   4.009   3.360
 1303SOL    HW1 3922   0.122   4.069   3.347
 1303SOL    HW2 3923   0.192   3.960   3.446
 1304SOL     OW 3924   1.400   3.831   2.288
 1304SOL    HW1 3925   1.376   3.794   2.198
 1304SOL    HW2 3926   1.499   3.847   2.292
 1305SOL     OW 3927   0.382   4.424   2.342
 1305SOL    HW1 3928   0.427   4.334   2.339
 1305SOL    HW2 3929   0.288   4.413   2.375
 1306SOL     OW 3930   1.547   3.946   3.591
 1306SOL    HW1 3931   1.542   3.983   3.683
 1306SOL    HW2 3932   1.475   3.877   3.579
 1307SOL     OW 3933   0.614   3.846   1.979
 1307SOL    HW1 3934   0.712   3.824   1.986
 1307SOL    HW2 3935   0.583   3.829   1.886
 1308SOL     OW 3936   0.781   3.988   3.611
 1308SOL    HW1 3937   0.848   3.927   3.654
 1308SOL    HW2 3938   0.708   4.007   3.676
 1309SOL     OW 3939   1.351   4.314   3.295
 1309SOL    HW1 3940   1.379   4.271   3.380
 1309SOL    HW2 3941   1.376   4.410   3.296
 1310SOL     OW 3942   0.922   4.227   2.761
 1310SOL    HW1 3943   0.897   4.218   2.665
 1310SOL    HW2 3944   0.970   4.145   2.792
 1311SOL     OW 3945   0.539   3.788   2.374
 1311SOL    HW1 3946   0.458   3.789   2.432
 1311SOL    HW2 3947   0.542   3.871   2.319
 1312SOL     OW 3948   0.297   3.759   2.033
 1312SOL    HW1 3949   0.346   3.843   2.012
 1312SOL    HW2 3950   0.359   3.694   2.078
 1313SOL     OW 3951   0.935   3.960   2.342
 1313SOL    HW1 3952   0.887   4.001   2.264
 1313SOL    HW2 3953   1.034   3.958   2.323
 1314SOL     OW 3954   1.076   4.407   3.326
 1314SOL    HW1 3955   0.996   4.346   3.329
 1314SOL    HW2 3956   1.157   4.354   3.302
 1315SOL     OW 3957   0.459   4.876   2.603
 1315SOL    HW1 3958   0.388   4.849   2.668
 1315SOL    HW2 3959   0.433   4.848   2.510
 1316SOL     OW 3960   1.032   4.273   1.878
 1316SOL    HW1 3961   0.991   4.355   1.839
 1316SOL    HW2 3962   1.096   4.299   1.951
 1317SOL     OW 3963   0.078   4.280   3.248
 1317SOL    HW1 3964   0.170   4.279   3.207
 1317SOL    HW2 3965   0.072   4.354   3.315
 1318SOL     OW 3966   0.561   3.946   3.009
 1318SOL    HW1 3967   0.599   3.862   3.046
 1318SOL    HW2 3968   0.473   3.965   3.053
 1319SOL     OW 3969   0.866   4.178   2.504
 1319SOL    HW1 3970   0.834   4.250   2.442
 1319SOL    HW2 3971   0.890   4.097   2.451
 1320SOL     OW 3972   1.017   3.763   2.615
 1320SOL    HW1 3973   0.945   3.768   2.546
 1320SOL    HW2 3974   0.993   3.694   2.684
 1321SOL     OW 3975   1.429   4.897   2.729
 1321SOL    HW1 3976   1.374   4.813   2.722
 1321SOL    HW2 3977   1.455   4.926   2.637
 1322SOL     OW 3978   1.466   4.314   2.854
 1322SOL    HW1 3979   1.436   4.219   2.861
 1322SOL    HW2 3980   1.539   4.330   2.920
 1323SOL     OW 3981   1.857   4.557   2.239
 1323SOL    HW1 3982   1.899   4.493   2.303
 1323SOL    HW2 3983   1.819   4.506   2.161
 1324SOL     OW 3984   1.390   4.299   1.940
 1324SOL    HW1 3985   1.336   4.278   2.021
 1324SOL    HW2 3986   1.481   4.258   1.949
 1325SOL     OW 3987   0.527   3.980   2.190
 1325SOL    HW1 3988   0.554   3.921   2.115
 1325SOL    HW2 3989   0.527   4.075   2.159
 1326SOL     OW 3990   1.754   4.947   3.450
 1326SOL    HW1 3991   1.845   4.908   3.437
 1326SOL    HW2 3992   1.762   5.043   3.474
 1327SOL     OW 3993   1.638   4.823   2.941
 1327SOL    HW1 3994   1.643   4.904   3.000
 1327SOL    HW2 3995   1.552   4.825   2.890
 1328SOL     OW 3996   0.915   3.813   3.264
 1328SOL    HW1 3997   0.940   3.793   3.169
 1328SOL    HW2 3998   0.987   3.869   3.306
 1329SOL     OW 3999   0.705   4.774   2.230
 1329SOL    HW1 4000   0.691   4.781   2.329
 1329SOL    HW2 4001   0.789   4.723   2.212
 1330SOL     OW 4002   0.410   4.537   3.113
 1330SOL    HW1 4003   0.496   4.549   3.163
 1330SOL    HW2 4004   0.368   4.450   3.140
 1331SOL     OW 4005   1.274   4.110   3.124
 1331SOL    HW1 4006   1.295   4.184   3.188
 1331SOL    HW2 4007   1.185   4.127   3.081
 1332SOL     OW 4008   0.367   4.824   2.363
 1332SOL    HW1 4009   0.360   4.907   2.307
 1332SOL    HW2 4010   0.371   4.744   2.303
 1333SOL     OW 4011   0.566   4.261   2.727
 1333SOL    HW1 4012   0.578   4.327   2.653
 1333SOL    HW2 4013   0.612   4.295   2.810
 1334SOL     OW 4014   1.582   4.363   2.334
 1334SOL    HW1 4015   1.551   4.424   2.407
 1334SOL    HW2 4016   1.632   4.415   2.265
 1335SOL     OW 4017   0.402   4.475   3.460
 1335SOL    HW1 4018   0.470   4.530   3.413
 1335SOL    HW2 4019   0.442   4.387   3.487
 1336SOL     OW 4020   1.587   4.503   3.532
 1336SOL    HW1 4021   1.495   4.541   3.527
 1336SOL    HW2 4022   1.647   4.550   3.467
 1337SOL     OW 4023   1.013   3.829   3.632
 1337SOL    HW1 4024   1.019   3.914   3.580
 1337SOL    HW2 4025   1.045   3.753   3.575
 1338SOL     OW 4026   0.504   3.774   3.602
 1338SOL    HW1 4027   0.462   3.717   3.532
 1338SOL    HW2 4028   0.438   3.843   3.634
 1339SOL     OW 4029   0.573   4.594   2.891
 1339SOL    HW1 4030   0.617   4.683   2.882
 1339SOL    HW2 4031   0.510   4.594   2.968
 1340SOL     OW 4032   1.360   4.586   2.907
 1340SOL    HW1 4033   1.285   4.586   2.841
 1340SOL    HW2 4034   1.397   4.494   2.916
 1341SOL     OW 4035   1.209   4.249   2.137
 1341SOL    HW1 4036   1.222   4.165   2.191
 1341SOL    HW2 4037   1.180   4.323   2.197
 1342SOL     OW 4038   0.307   3.937   3.093
 1342SOL    HW1 4039   0.284   3.974   3.183
 1342SOL    HW2 4040   0.277   3.842   3.087
 1343SOL     OW 4041   0.037   5.034   3.144
 1343SOL    HW1 4042   0.090   4.985   3.212
 1343SOL    HW2 4043   0.059   5.132   3.149
 1344SOL     OW 4044   0.732   4.358   2.926
 1344SOL    HW1 4045   0.791   4.332   2.850
 1344SOL    HW2 4046   0.704   4.454   2.915
 1345SOL     OW 4047   1.728   4.659   3.716
 1345SOL    HW1 4048   1.682   4.652   3.627
 1345SOL    HW2 4049   1.666   4.703   3.782
 1346SOL     OW 4050   0.307   3.787   2.480
 1346SOL    HW1 4051   0.296   3.881   2.513
 1346SOL    HW2 4052   0.302   3.724   2.557
 1347SOL     OW 4053   1.622   4.091   2.236
 1347SOL    HW1 4054   1.624   4.015   2.300
 1347SOL    HW2 4055   1.574   4.168   2.276
 1348SOL     OW 4056   1.023   4.490   2.828
 1348SOL    HW1 4057   1.038   4.511   2.924
 1348SOL    HW2 4058   0.993   4.395   2.819
 1349SOL     OW 4059   0.350   4.622   3.666
 1349SOL    HW1 4060   0.426   4.666   3.714
 1349SOL    HW2 4061   0.385   4.575   3.584
 1350SOL     OW 4062   1.540   3.998   1.987
 1350SOL    HW1 4063   1.479   3.923   2.010
 1350SOL    HW2 4064   1.562   4.050   2.070
 1351SOL     OW 4065   1.303   4.562   1.904
 1351SOL    HW1 4066   1.337   4.469   1.919
 1351SOL    HW2 4067   1.321   4.589   1.809
 1352SOL     OW 4068   0.319   4.534   2.811
 1352SOL    HW1 4069   0.412   4.570   2.816
 1352SOL    HW2 4070   0.313   4.449   2.863
 1353SOL     OW 4071   0.339   4.233   2.868
 1353SOL    HW1 4072   0.287   4.150   2.851
 1353SOL    HW2 4073   0.416   4.238   2.804
 1354SOL     OW 4074   1.138   4.104   3.540
 1354SOL    HW1 4075   1.093   4.167   3.604
 1354SOL    HW2 4076   1.231   4.135   3.523
 1355SOL     OW 4077   1.160   3.931   3.339
 1355SOL    HW1 4078   1.160   3.995   3.416
 1355SOL    HW2 4079   1.188   3.979   3.256
 1356SOL     OW 4080   1.002   4.520   3.100
 1356SOL    HW1 4081   1.043   4.488   3.186
 1356SOL    HW2 4082   0.906   4.493   3.097
 1357SOL     OW 4083   0.040   4.268   2.976
 1357SOL    HW1 4084   0.125   4.235   2.935
 1357SOL    HW2 4085   0.053   4.283   3.074
 1358SOL     OW 4086   0.189   4.244   3.584
 1358SOL    HW1 4087   0.248   4.204   3.514
 1358SOL    HW2 4088   0.131   4.315   3.543
 1359SOL     OW 4089   1.369   4.674   3.522
 1359SOL    HW1 4090   1.408   4.763   3.542
 1359SOL    HW2 4091   1.379   4.654   3.425
 1360SOL     OW 4092   0.815   4.296   2.187
 1360SOL    HW1 4093   0.822   4.207   2.141
 1360SOL    HW2 4094   0.721   4.330   2.179
 1361SOL     OW 4095   1.657   4.328   3.068
 1361SOL    HW1 4096   1.619   4.259   3.130
 1361SOL    HW2 4097   1.739   4.292   3.024
 1362SOL     OW 4098   0.671   4.188   3.131
 1362SOL    HW1 4099   0.637   4.099   3.101
 1362SOL    HW2 4100   0.697   4.242   3.051
 1363SOL     OW 4101   0.473   4.224   2.053
 1363SOL    HW1 4102   0.534   4.304   2.057
 1363SOL    HW2 4103   0.378   4.255   2.060
 1364SOL     OW 4104   0.159   4.861   3.328
 1364SOL    HW1 4105   0.181   4.800   3.404
 1364SOL    HW2 4106   0.169   4.812   3.242
 1365SOL     OW 4107   1.347   4.783   3.096
 1365SOL    HW1 4108   1.371   4.720   3.022
 1365SOL    HW2 4109   1.257   4.823   3.078
 1366SOL     OW 4110   1.302   4.579   2.171
 1366SOL    HW1 4111   1.216   4.548   2.213
 1366SOL    HW2 4112   1.298   4.565   2.072
 1367SOL     OW 4113   0.083   4.982   2.884
 1367SOL    HW1 4114   0.078   4.981   2.984
 1367SOL    HW2 4115   0.000   4.941   2.846
 1368SOL     OW 4116   1.726   3.859   2.385
 1368SOL    HW1 4117   1.799   3.842   2.318
 1368SOL    HW2 4118   1.695   3.772   2.423
 1369SOL     OW 4119   1.280   4.651   2.534
 1369SOL    HW1 4120   1.340   4.570   2.536
 1369SOL    HW2 4121   1.320   4.720   2.474
 1370SOL     OW 4122   1.841   3.899   2.825
 1370SOL    HW1 4123   1.880   3.814   2.789
 1370SOL    HW2 4124   1.743   3.901   2.806
 1371SOL     OW 4125   0.263   4.050   2.582
 1371SOL    HW1 4126   0.184   4.101   2.548
 1371SOL    HW2 4127   0.254   4.035   2.680
 1372SOL     OW 4128   0.822   4.726   3.234
 1372SOL    HW1 4129   0.862   4.725   3.142
 1372SOL    HW2 4130   0.832   4.818   3.274
 1373SOL     OW 4131   0.916   4.634   2.153
 1373SOL    HW1 4132   0.979   4.672   2.085
 1373SOL    HW2 4133   0.956   4.551   2.192
 1374SOL     OW 4134   0.372   5.012   3.352
 1374SOL    HW1 4135   0.359   5.105   3.318
 1374SOL    HW2 4136   0.288   4.960   3.339
 1375SOL     OW 4137   1.014   3.960   2.833
 1375SOL    HW1 4138   1.006   3.924   2.740
 1375SOL    HW2 4139   1.012   3.884   2.898
 1376SOL     OW 4140   1.709   4.109   3.243
 1376SOL    HW1 4141   1.782   4.178   3.247
 1376SOL    HW2 4142   1.737   4.034   3.184
 1377SOL     OW 4143   0.105   4.737   3.588
 1377SOL    HW1 4144   0.028   4.704   3.642
 1377SOL    HW2 4145   0.190   4.707   3.630
 1378SOL     OW 4146   0.672   3.927   3.351
 1378SOL    HW1 4147   0.762   3.911   3.311
 1378SOL    HW2 4148   0.680   3.932   3.450
 1379SOL     OW 4149   0.075   4.069   1.895
 1379SOL    HW1 4150  -0.017   4.041   1.866
 1379SOL    HW2 4151   0.106   4.146   1.839
 1380SOL     OW 4152   1.440   4.580   3.260
 1380SOL    HW1 4153   1.383   4.632   3.197
 1380SOL    HW2 4154   1.536   4.592   3.236
 1381SOL     OW 4155   0.072   3.890   2.180
 1381SOL    HW1 4156   0.055   3.973   2.126
 1381SOL    HW2 4157   0.162   3.853   2.158
 1382SOL     OW 4158   0.613   4.566   3.293
 1382SOL    HW1 4159   0.669   4.647   3.276
 1382SOL    HW2 4160   0.672   4.486   3.296
 1383SOL     OW 4161   0.716   4.289   3.570
 1383SOL    HW1 4162   0.735   4.354   3.644
 1383SOL    HW2 4163   0.776   4.209   3.579
 1384SOL     OW 4164   1.450   4.944   3.495
 1384SOL    HW1 4165   1.441   4.934   3.594
 1384SOL    HW2 4166   1.546   4.937   3.469
 1385SOL     OW 4167   1.674   4.607   3.116
 1385SOL    HW1 4168   1.647   4.518   3.079
 1385SOL    HW2 4169   1.675   4.675   3.043
 1386SOL     OW 4170   1.225   4.049   2.311
 1386SOL    HW1 4171   1.290   3.975   2.300
 1386SOL    HW2 4172   1.245   4.099   2.395
 1387SOL     OW 4173   0.594   4.469   2.514
 1387SOL    HW1 4174   0.644   4.554   2.495
 1387SOL    HW2 4175   0.506   4.471   2.466
 1388SOL     OW 4176   1.777   4.066   3.504
 1388SOL    HW1 4177   1.760   4.097   3.410
 1388SOL    HW2 4178   1.693   4.029   3.542
 1389SOL     OW 4179   1.730   4.658   3.379
 1389SOL    HW1 4180   1.768   4.749   3.394
 1389SOL    HW2 4181   1.722   4.641   3.280
 1390SOL     OW 4182   0.859   4.680   2.723
 1390SOL    HW1 4183   0.913   4.611   2.771
 1390SOL    HW2 4184   0.827   4.749   2.789
 1391SOL     OW 4185   1.083   4.708   1.949
 1391SOL    HW1 4186   1.060   4.761   1.867
 1391SOL    HW2 4187   1.164   4.652   1.930
 1392SOL     OW 4188   0.079   4.964   2.515
 1392SOL    HW1 4189   0.078   4.917   2.603
 1392SOL    HW2 4190   0.161   4.936   2.464
 1393SOL     OW 4191   1.824   3.916   3.089
 1393SOL    HW1 4192   1.820   3.826   3.133
 1393SOL    HW2 4193   1.827   3.905   2.990
 1394SOL     OW 4194   0.428   4.148   2.382
 1394SOL    HW1 4195   0.458   4.076   2.320
 1394SOL    HW2 4196   0.389   4.108   2.465
 1395SOL     OW 4197   0.317   4.271   3.142
 1395SOL    HW1 4198   0.355   4.212   3.214
 1395SOL    HW2 4199   0.357   4.245   3.054
 1396SOL     OW 4200   1.424   3.938   2.974
 1396SOL    HW1 4201   1.476   3.873   3.029
 1396SOL    HW2 4202   1.375   4.001   3.035
 1397SOL     OW 4203   1.001   3.758   3.016
 1397SOL    HW1 4204   0.938   3.686   2.985
 1397SOL    HW2 4205   1.094   3.722   3.016
 1398SOL     OW 4206   0.770   5.054   2.163
 1398SOL    HW1 4207   0.724   4.967   2.180
 1398SOL    HW2 4208   0.861   5.051   2.204
 1399SOL     OW 4209   1.352   3.776   2.030
 1399SOL    HW1 4210   1.387   3.735   1.946
 1399SOL    HW2 4211   1.262   3.738   2.050
 1400SOL     OW 4212   1.300   4.177   2.553
 1400SOL    HW1 4213   1.241   4.257   2.557
 1400SOL    HW2 4214   1.315   4.142   2.646
 1401SOL     OW 4215   1.593   3.945   2.744
 1401SOL    HW1 4216   1.509   3.944   2.798
 1401SOL    HW2 4217   1.595   4.028   2.688
 1402SOL     OW 4218   0.039   4.801   2.162
 1402SOL    HW1 4219   0.138   4.790   2.153
 1402SOL    HW2 4220  -0.001   4.715   2.194
 1403SOL     OW 4221   0.230   4.352   3.837
 1403SOL    HW1 4222   0.137   4.350   3.874
 1403SOL    HW2 4223   0.231   4.313   3.745
 1404SOL     OW 4224   0.225   3.999   4.720
 1404SOL    HW1 4225   0.260   3.982   4.812
 1404SOL    HW2 4226   0.137   3.954   4.708
 1405SOL     OW 4227   0.019   4.092   4.371
 1405SOL    HW1 4228  -0.063   4.135   4.410
 1405SOL    HW2 4229  -0.009   4.019   4.308
 1406SOL     OW 4230   1.135   4.427   4.441
 1406SOL    HW1 4231   1.192   4.505   4.416
 1406SOL    HW2 4232   1.075   4.453   4.517
 1407SOL     OW 4233   1.755   4.331   3.955
 1407SOL    HW1 4234   1.743   4.318   3.856
 1407SOL    HW2 4235   1.725   4.250   4.004
 1408SOL     OW 4236   0.768   4.868   4.747
 1408SOL    HW1 4237   0.690   4.885   4.807
 1408SOL    HW2 4238   0.802   4.955   4.711
 1409SOL     OW 4239   0.685   4.736   4.389
 1409SOL    HW1 4240   0.754   4.720   4.459
 1409SOL    HW2 4241   0.612   4.793   4.427
 1410SOL     OW 4242   1.603   4.171   4.461
 1410SOL    HW1 4243   1.529   4.217   4.411
 1410SOL    HW2 4244   1.654   4.239   4.514
 1411SOL     OW 4245   0.240   4.815   4.610
 1411SOL    HW1 4246   0.254   4.731   4.662
 1411SOL    HW2 4247   0.185   4.879   4.665
 1412SOL     OW 4248   0.606   4.688   3.847
 1412SOL    HW1 4249   0.613   4.772   3.793
 1412SOL    HW2 4250   0.652   4.701   3.935
 1413SOL     OW 4251   0.122   4.367   4.287
 1413SOL    HW1 4252   0.077   4.279   4.304
 1413SOL    HW2 4253   0.121   4.421   4.371
 1414SOL     OW 4254   1.689   4.646   4.336
 1414SOL    HW1 4255   1.784   4.617   4.344
 1414SOL    HW2 4256   1.681   4.711   4.261
 1415SOL     OW 4257   0.613   5.089   4.450
 1415SOL    HW1 4258   0.564   5.002   4.459
 1415SOL    HW2 4259   0.590   5.132   4.363
 1416SOL     OW 4260   0.809   3.728   4.226
 1416SOL    HW1 4261   0.849   3.819   4.217
 1416SOL    HW2 4262   0.709   3.736   4.232
 1417SOL     OW 4263   0.197   4.700   4.988
 1417SOL    HW1 4264   0.286   4.655   4.974
 1417SOL    HW2 4265   0.124   4.635   4.969
 1418SOL     OW 4266   1.525   4.723   3.914
 1418SOL    HW1 4267   1.462   4.647   3.927
 1418SOL    HW2 4268   1.573   4.741   4.000
 1419SOL     OW 4269   0.598   4.453   3.994
 1419SOL    HW1 4270   0.622   4.522   3.926
 1419SOL    HW2 4271   0.520   4.486   4.048
 1420SOL     OW 4272   1.281   4.069   4.668
 1420SOL    HW1 4273   1.195   4.019   4.655
 1420SOL    HW2 4274   1.343   4.015   4.724
 1421SOL     OW 4275   1.041   4.425   4.153
 1421SOL    HW1 4276   1.067   4.421   4.249
 1421SOL    HW2 4277   0.956   4.374   4.139
 1422SOL     OW 4278   0.076   4.535   4.513
 1422SOL    HW1 4279   0.175   4.523   4.522
 1422SOL    HW2 4280   0.052   4.630   4.534
 1423SOL     OW 4281   0.865   4.072   3.919
 1423SOL    HW1 4282   0.924   4.135   3.870
 1423SOL    HW2 4283   0.884   3.978   3.890
 1424SOL     OW 4284   0.550   3.920   4.609
 1424SOL    HW1 4285   0.545   3.915   4.709
 1424SOL    HW2 4286   0.552   4.016   4.580
 1425SOL     OW 4287   1.795   4.790   4.597
 1425SOL    HW1 4288   1.733   4.775   4.521
 1425SOL    HW2 4289   1.743   4.801   4.682
 1426SOL     OW 4290   0.321   4.667   3.966
 1426SOL    HW1 4291   0.403   4.706   3.924
 1426SOL    HW2 4292   0.294   4.585   3.917
 1427SOL     OW 4293   1.458   4.459   4.452
 1427SOL    HW1 4294   1.453   4.394   4.527
 1427SOL    HW2 4295   1.538   4.518   4.465
 1428SOL     OW 4296   1.400   3.831   4.150
 1428SOL    HW1 4297   1.376   3.794   4.060
 1428SOL    HW2 4298   1.499   3.847   4.154
 1429SOL     OW 4299   0.382   4.424   4.204
 1429SOL    HW1 4300   0.427   4.334   4.201
 1429SOL    HW2 4301   0.288   4.413   4.237
 1430SOL     OW 4302   0.614   3.846   3.841
 1430SOL    HW1 4303   0.712   3.824   3.848
 1430SOL    HW2 4304   0.583   3.829   3.748
 1431SOL     OW 4305   0.888   5.238   4.919
 1431SOL    HW1 4306   0.865   5.213   4.825
 1431SOL    HW2 4307   0.949   5.169   4.958
 1432SOL     OW 4308   0.922   4.227   4.623
 1432SOL    HW1 4309   0.897   4.218   4.527
 1432SOL    HW2 4310   0.970   4.145   4.654
 1433SOL     OW 4311   0.539   3.788   4.236
 1433SOL    HW1 4312   0.458   3.789   4.294
 1433SOL    HW2 4313   0.542   3.871   4.181
 1434SOL     OW 4314   0.297   3.759   3.895
 1434SOL    HW1 4315   0.346   3.843   3.874
 1434SOL    HW2 4316   0.359   3.694   3.940
 1435SOL     OW 4317   0.935   3.960   4.204
 1435SOL    HW1 4318   0.887   4.001   4.126
 1435SOL    HW2 4319   1.034   3.958   4.185
 1436SOL     OW 4320   0.459   4.876   4.465
 1436SOL    HW1 4321   0.388   4.849   4.530
 1436SOL    HW2 4322   0.433   4.848   4.372
 1437SOL     OW 4323   1.032   4.273   3.740
 1437SOL    HW1 4324   0.991   4.355   3.701
 1437SOL    HW2 4325   1.096   4.299   3.813
 1438SOL     OW 4326   0.866   4.178   4.366
 1438SOL    HW1 4327   0.834   4.250   4.304
 1438SOL    HW2 4328   0.890   4.097   4.313
 1439SOL     OW 4329   1.017   3.763   4.477
 1439SOL    HW1 4330   0.945   3.768   4.408
 1439SOL    HW2 4331   0.993   3.694   4.546
 1440SOL     OW 4332   1.429   4.897   4.591
 1440SOL    HW1 4333   1.374   4.813   4.584
 1440SOL    HW2 4334   1.455   4.926   4.499
 1441SOL     OW 4335   1.466   4.314   4.716
 1441SOL    HW1 4336   1.436   4.219   4.723
 1441SOL    HW2 4337   1.539   4.330   4.782
 1442SOL     OW 4338   1.857   4.557   4.101
 1442SOL    HW1 4339   1.899   4.493   4.165
 1442SOL    HW2 4340   1.819   4.506   4.023
 1443SOL     OW 4341   1.390   4.299   3.802
 1443SOL    HW1 4342   1.336   4.278   3.883
 1443SOL    HW2 4343   1.481   4.258   3.811
 1444SOL     OW 4344   0.527   3.980   4.052
 1444SOL    HW1 4345   0.554   3.921   3.977
 1444SOL    HW2 4346   0.527   4.075   4.021
 1445SOL     OW 4347   1.111   4.919   4.824
 1445SOL    HW1 4348   1.071   4.963   4.905
 1445SOL    HW2 4349   1.070   4.956   4.741
 1446SOL     OW 4350   1.638   4.823   4.803
 1446SOL    HW1 4351   1.643   4.904   4.862
 1446SOL    HW2 4352   1.552   4.825   4.752
 1447SOL     OW 4353   0.705   4.774   4.092
 1447SOL    HW1 4354   0.691   4.781   4.191
 1447SOL    HW2 4355   0.789   4.723   4.074
 1448SOL     OW 4356   0.410   4.537   4.975
 1448SOL    HW1 4357   0.496   4.549   5.025
 1448SOL    HW2 4358   0.368   4.450   5.002
 1449SOL     OW 4359   0.367   4.824   4.225
 1449SOL    HW1 4360   0.360   4.907   4.169
 1449SOL    HW2 4361   0.371   4.744   4.165
 1450SOL     OW 4362   0.566   4.261   4.589
 1450SOL    HW1 4363   0.578   4.327   4.515
 1450SOL    HW2 4364   0.612   4.295   4.672
 1451SOL     OW 4365   1.582   4.363   4.196
 1451SOL    HW1 4366   1.551   4.424   4.269
 1451SOL    HW2 4367   1.632   4.415   4.127
 1452SOL     OW 4368   0.573   4.594   4.753
 1452SOL    HW1 4369   0.617   4.683   4.744
 1452SOL    HW2 4370   0.510   4.594   4.830
 1453SOL     OW 4371   1.209   4.249   3.999
 1453SOL    HW1 4372   1.222   4.165   4.053
 1453SOL    HW2 4373   1.180   4.323   4.059
 1454SOL     OW 4374   0.307   3.937   4.955
 1454SOL    HW1 4375   0.284   3.974   5.045
 1454SOL    HW2 4376   0.277   3.842   4.949
 1455SOL     OW 4377   0.732   4.358   4.788
 1455SOL    HW1 4378   0.791   4.332   4.712
 1455SOL    HW2 4379   0.704   4.454   4.777
 1456SOL     OW 4380   0.307   3.787   4.342
 1456SOL    HW1 4381   0.296   3.881   4.375
 1456SOL    HW2 4382   0.302   3.724   4.419
 1457SOL     OW 4383   1.622   4.091   4.098
 1457SOL    HW1 4384   1.624   4.015   4.162
 1457SOL    HW2 4385   1.574   4.168   4.138
 1458SOL     OW 4386   1.023   4.490   4.690
 1458SOL    HW1 4387   1.038   4.511   4.786
 1458SOL    HW2 4388   0.993   4.395   4.681
 1459SOL     OW 4389   1.540   3.998   3.849
 1459SOL    HW1 4390   1.479   3.923   3.872
 1459SOL    HW2 4391   1.562   4.050   3.932
 1460SOL     OW 4392   1.303   4.562   3.766
 1460SOL    HW1 4393   1.337   4.469   3.781
 1460SOL    HW2 4394   1.321   4.589   3.671
 1461SOL     OW 4395   0.319   4.534   4.673
 1461SOL    HW1 4396   0.412   4.570   4.678
 1461SOL    HW2 4397   0.313   4.449   4.725
 1462SOL     OW 4398   0.339   4.233   4.730
 1462SOL    HW1 4399   0.287   4.150   4.713
 1462SOL    HW2 4400   0.416   4.238   4.666
 1463SOL     OW 4401   1.002   4.520   4.962
 1463SOL    HW1 4402   1.043   4.488   5.048
 1463SOL    HW2 4403   0.906   4.493   4.959
 1464SOL     OW 4404   0.040   4.268   4.838
 1464SOL    HW1 4405   0.125   4.235   4.797
 1464SOL    HW2 4406   0.053   4.283   4.936
 1465SOL     OW 4407   0.815   4.296   4.049
 1465SOL    HW1 4408   0.822   4.207   4.003
 1465SOL    HW2 4409   0.721   4.330   4.041
 1466SOL     OW 4410   1.657   4.328   4.930
 1466SOL    HW1 4411   1.619   4.259   4.992
 1466SOL    HW2 4412   1.739   4.292   4.886
 1467SOL     OW 4413   0.671   4.188   4.993
 1467SOL    HW1 4414   0.637   4.099   4.963
 1467SOL    HW2 4415   0.697   4.242   4.913
 1468SOL     OW 4416   0.473   4.224   3.915
 1468SOL    HW1 4417   0.534   4.304   3.919
 1468SOL    HW2 4418   0.378   4.255   3.922
 1469SOL     OW 4419   1.347   4.783   4.958
 1469SOL    HW1 4420   1.371   4.720   4.884
 1469SOL    HW2 4421   1.257   4.823   4.940
 1470SOL     OW 4422   1.302   4.579   4.033
 1470SOL    HW1 4423   1.216   4.548   4.075
 1470SOL    HW2 4424   1.298   4.565   3.934
 1471SOL     OW 4425   0.083   4.982   4.746
 1471SOL    HW1 4426   0.078   4.981   4.846
 1471SOL    HW2 4427   0.000   4.941   4.708
 1472SOL     OW 4428   1.726   3.859   4.247
 1472SOL    HW1 4429   1.799   3.842   4.180
 1472SOL    HW2 4430   1.695   3.772   4.285
 1473SOL     OW 4431   1.280   4.651   4.396
 1473SOL    HW1 4432   1.340   4.570   4.398
 1473SOL    HW2 4433   1.320   4.720   4.336
 1474SOL     OW 4434   1.841   3.899   4.687
 1474SOL    HW1 4435   1.880   3.814   4.651
 1474SOL    HW2 4436   1.743   3.901   4.668
 1475SOL     OW 4437   0.263   4.050   4.444
 1475SOL    HW1 4438   0.184   4.101   4.410
 1475SOL    HW2 4439   0.254   4.035   4.542
 1476SOL     OW 4440   0.822   4.726   5.096
 1476SOL    HW1 4441   0.862   4.725   5.004
 1476SOL    HW2 4442   0.832   4.818   5.136
 1477SOL     OW 4443   0.916   4.634   4.015
 1477SOL    HW1 4444   0.979   4.672   3.947
 1477SOL    HW2 4445   0.956   4.551   4.054
 1478SOL     OW 4446   1.014   3.960   4.695
 1478SOL    HW1 4447   1.006   3.924   4.602
 1478SOL    HW2 4448   1.012   3.884   4.760
 1479SOL     OW 4449   1.709   4.109   5.105
 1479SOL    HW1 4450   1.782   4.178   5.109
 1479SOL    HW2 4451   1.737   4.034   5.046
 1480SOL     OW 4452   0.075   4.069   3.757
 1480SOL    HW1 4453  -0.017   4.041   3.728
 1480SOL    HW2 4454   0.106   4.146   3.701
 1481SOL     OW 4455   0.072   3.890   4.042
 1481SOL    HW1 4456   0.055   3.973   3.988
 1481SOL    HW2 4457   0.162   3.853   4.020
 1482SOL     OW 4458   1.674   4.607   4.978
 1482SOL    HW1 4459   1.647   4.518   4.941
 1482SOL    HW2 4460   1.675   4.675   4.905
 1483SOL     OW 4461   1.225   4.049   4.173
 1483SOL    HW1 4462   1.290   3.975   4.162
 1483SOL    HW2 4463   1.245   4.099   4.257
 1484SOL     OW 4464   0.594   4.469   4.376
 1484SOL    HW1 4465   0.644   4.554   4.357
 1484SOL    HW2 4466   0.506   4.471   4.328
 1485SOL     OW 4467   1.730   4.658   5.241
 1485SOL    HW1 4468   1.768   4.749   5.256
 1485SOL    HW2 4469   1.722   4.641   5.142
 1486SOL     OW 4470   0.859   4.680   4.585
 1486SOL    HW1 4471   0.913   4.611   4.633
 1486SOL    HW2 4472   0.827   4.749   4.651
 1487SOL     OW 4473   1.083   4.708   3.811
 1487SOL    HW1 4474   1.060   4.761   3.729
 1487SOL    HW2 4475   1.164   4.652   3.792
 1488SOL     OW 4476   0.079   4.964   4.377
 1488SOL    HW1 4477   0.078   4.917   4.465
 1488SOL    HW2 4478   0.161   4.936   4.326
 1489SOL     OW 4479   1.824   3.916   4.951
 1489SOL    HW1 4480   1.820   3.826   4.995
 1489SOL    HW2 4481   1.827   3.905   4.852
 1490SOL     OW 4482   0.428   4.148   4.244
 1490SOL    HW1 4483   0.458   4.076   4.182
 1490SOL    HW2 4484   0.389   4.108   4.327
 1491SOL     OW 4485   1.424   3.938   4.836
 1491SOL    HW1 4486   1.476   3.873   4.891
 1491SOL    HW2 4487   1.375   4.001   4.897
 1492SOL     OW 4488   0.770   5.054   4.025
 1492SOL    HW1 4489   0.724   4.967   4.042
 1492SOL    HW2 4490   0.861   5.051   4.066
 1493SOL     OW 4491   1.352   3.776   3.892
 1493SOL    HW1 4492   1.387   3.735   3.808
 1493SOL    HW2 4493   1.262   3.738   3.912
 1494SOL     OW 4494   1.300   4.177   4.415
 1494SOL    HW1 4495   1.241   4.257   4.419
 1494SOL    HW2 4496   1.315   4.142   4.508
 1495SOL     OW 4497   1.593   3.945   4.606
 1495SOL    HW1 4498   1.509   3.944   4.660
 1495SOL    HW2 4499   1.595   4.028   4.550
 1496SOL     OW 4500   0.039   4.801   4.024
 1496SOL    HW1 4501   0.138   4.790   4.015
 1496SOL    HW2 4502  -0.001   4.715   4.056
 1497SOL     OW 4503   2.092   0.628   0.113
 1497SOL    HW1 4504   1.999   0.626   0.150
 1497SOL    HW2 4505   2.093   0.589   0.021
 1498SOL     OW 4506   2.087   0.275   0.996
 1498SOL    HW1 4507   2.122   0.258   1.088
 1498SOL    HW2 4508   1.999   0.230   0.984
 1499SOL     OW 4509   1.881   0.368   0.647
 1499SOL    HW1 4510   1.799   0.411   0.686
 1499SOL    HW2 4511   1.853   0.295   0.584
 1500SOL     OW 4512   2.431   1.275   1.165
 1500SOL    HW1 4513   2.338   1.268   1.128
 1500SOL    HW2 4514   2.442   1.364   1.209
 1501SOL     OW 4515   3.417   1.511   0.703
 1501SOL    HW1 4516   3.360   1.495   0.784
 1501SOL    HW2 4517   3.358   1.521   0.623
 1502SOL     OW 4518   2.997   0.703   0.717
 1502SOL    HW1 4519   3.054   0.781   0.692
 1502SOL    HW2 4520   2.937   0.729   0.793
 1503SOL     OW 4521   3.617   0.607   0.231
 1503SOL    HW1 4522   3.605   0.594   0.132
 1503SOL    HW2 4523   3.587   0.526   0.280
 1504SOL     OW 4524   2.630   1.144   1.023
 1504SOL    HW1 4525   2.552   1.161   1.083
 1504SOL    HW2 4526   2.664   1.231   0.987
 1505SOL     OW 4527   2.712   0.798   1.823
 1505SOL    HW1 4528   2.708   0.874   1.888
 1505SOL    HW2 4529   2.734   0.834   1.732
 1506SOL     OW 4530   2.547   1.012   0.665
 1506SOL    HW1 4531   2.616   0.996   0.735
 1506SOL    HW2 4532   2.474   1.069   0.703
 1507SOL     OW 4533   2.548   1.161   1.803
 1507SOL    HW1 4534   2.608   1.240   1.817
 1507SOL    HW2 4535   2.462   1.192   1.762
 1508SOL     OW 4536   2.197   1.435   1.061
 1508SOL    HW1 4537   2.119   1.404   1.008
 1508SOL    HW2 4538   2.255   1.493   1.004
 1509SOL     OW 4539   3.322   1.505   1.339
 1509SOL    HW1 4540   3.346   1.599   1.365
 1509SOL    HW2 4541   3.306   1.451   1.421
 1510SOL     OW 4542   2.300   0.392   1.499
 1510SOL    HW1 4543   2.382   0.336   1.508
 1510SOL    HW2 4544   2.219   0.334   1.503
 1511SOL     OW 4545   3.465   0.447   0.737
 1511SOL    HW1 4546   3.391   0.493   0.687
 1511SOL    HW2 4547   3.516   0.515   0.790
 1512SOL     OW 4548   2.093   1.713   0.483
 1512SOL    HW1 4549   2.127   1.790   0.537
 1512SOL    HW2 4550   2.137   1.713   0.393
 1513SOL     OW 4551   2.989   1.341   1.690
 1513SOL    HW1 4552   3.036   1.341   1.778
 1513SOL    HW2 4553   2.941   1.254   1.679
 1514SOL     OW 4554   2.092   1.434   0.538
 1514SOL    HW1 4555   2.066   1.530   0.538
 1514SOL    HW2 4556   2.021   1.380   0.583
 1515SOL     OW 4557   2.102   1.091   0.886
 1515SOL    HW1 4558   2.116   1.007   0.938
 1515SOL    HW2 4559   2.047   1.155   0.941
 1516SOL     OW 4560   2.482   1.786   1.439
 1516SOL    HW1 4561   2.390   1.769   1.474
 1516SOL    HW2 4562   2.510   1.878   1.465
 1517SOL     OW 4563   2.468   0.964   0.123
 1517SOL    HW1 4564   2.475   1.048   0.069
 1517SOL    HW2 4565   2.514   0.977   0.211
 1518SOL     OW 4566   3.456   0.114   1.480
 1518SOL    HW1 4567   3.438   0.181   1.408
 1518SOL    HW2 4568   3.453   0.160   1.569
 1519SOL     OW 4569   1.984   0.643   0.563
 1519SOL    HW1 4570   1.939   0.555   0.580
 1519SOL    HW2 4571   1.983   0.697   0.647
 1520SOL     OW 4572   3.704   1.767   0.359
 1520SOL    HW1 4573   3.758   1.738   0.439
 1520SOL    HW2 4574   3.734   1.857   0.330
 1521SOL     OW 4575   1.889   1.596   0.117
 1521SOL    HW1 4576   1.870   1.500   0.138
 1521SOL    HW2 4577   1.856   1.654   0.192
 1522SOL     OW 4578   3.551   0.922   0.612
 1522SOL    HW1 4579   3.646   0.893   0.620
 1522SOL    HW2 4580   3.543   0.987   0.537
 1523SOL     OW 4581   3.503   1.108   0.432
 1523SOL    HW1 4582   3.589   1.110   0.380
 1523SOL    HW2 4583   3.517   1.155   0.520
 1524SOL     OW 4584   1.975   0.737   1.597
 1524SOL    HW1 4585   2.063   0.724   1.642
 1524SOL    HW2 4586   1.962   0.834   1.575
 1525SOL     OW 4587   2.475   1.365   0.726
 1525SOL    HW1 4588   2.426   1.278   0.735
 1525SOL    HW2 4589   2.452   1.408   0.639
 1526SOL     OW 4590   3.155   1.228   1.423
 1526SOL    HW1 4591   3.192   1.155   1.365
 1526SOL    HW2 4592   3.207   1.233   1.508
 1527SOL     OW 4593   2.671   0.004   0.502
 1527SOL    HW1 4594   2.711   0.095   0.493
 1527SOL    HW2 4595   2.571   0.012   0.508
 1528SOL     OW 4596   2.059   0.976   1.264
 1528SOL    HW1 4597   2.148   0.931   1.250
 1528SOL    HW2 4598   1.986   0.911   1.245
 1529SOL     OW 4599   3.387   0.999   0.190
 1529SOL    HW1 4600   3.324   0.923   0.203
 1529SOL    HW2 4601   3.435   1.017   0.276
 1530SOL     OW 4602   3.049   1.792   1.616
 1530SOL    HW1 4603   3.073   1.852   1.540
 1530SOL    HW2 4604   3.056   1.697   1.586
 1531SOL     OW 4605   2.179   0.251   1.801
 1531SOL    HW1 4606   2.250   0.322   1.807
 1531SOL    HW2 4607   2.091   0.290   1.829
 1532SOL     OW 4608   3.328   1.417   0.953
 1532SOL    HW1 4609   3.269   1.423   1.033
 1532SOL    HW2 4610   3.313   1.329   0.907
 1533SOL     OW 4611   3.529   1.714   0.572
 1533SOL    HW1 4612   3.488   1.691   0.484
 1533SOL    HW2 4613   3.511   1.640   0.637
 1534SOL     OW 4614   2.460   0.729   0.270
 1534SOL    HW1 4615   2.484   0.798   0.202
 1534SOL    HW2 4616   2.382   0.762   0.324
 1535SOL     OW 4617   3.143   0.345   0.944
 1535SOL    HW1 4618   3.057   0.295   0.931
 1535SOL    HW2 4619   3.205   0.291   1.000
 1536SOL     OW 4620   3.438   1.662   0.307
 1536SOL    HW1 4621   3.527   1.708   0.310
 1536SOL    HW2 4622   3.417   1.638   0.212
 1537SOL     OW 4623   2.669   0.605   1.465
 1537SOL    HW1 4624   2.622   0.602   1.554
 1537SOL    HW2 4625   2.618   0.550   1.399
 1538SOL     OW 4626   3.256   0.469   1.674
 1538SOL    HW1 4627   3.236   0.512   1.762
 1538SOL    HW2 4628   3.334   0.407   1.683
 1539SOL     OW 4629   2.835   0.890   1.572
 1539SOL    HW1 4630   2.881   0.806   1.543
 1539SOL    HW2 4631   2.779   0.924   1.497
 1540SOL     OW 4632   2.853   0.410   1.242
 1540SOL    HW1 4633   2.776   0.444   1.296
 1540SOL    HW2 4634   2.819   0.359   1.163
 1541SOL     OW 4635   2.903   0.701   0.429
 1541SOL    HW1 4636   2.929   0.697   0.525
 1541SOL    HW2 4637   2.818   0.650   0.415
 1542SOL     OW 4638   1.938   0.811   0.789
 1542SOL    HW1 4639   2.037   0.799   0.798
 1542SOL    HW2 4640   1.914   0.906   0.810
 1543SOL     OW 4641   1.992   1.821   1.571
 1543SOL    HW1 4642   1.982   1.806   1.670
 1543SOL    HW2 4643   1.906   1.857   1.535
 1544SOL     OW 4644   2.727   0.348   0.195
 1544SOL    HW1 4645   2.786   0.411   0.146
 1544SOL    HW2 4646   2.746   0.254   0.166
 1545SOL     OW 4647   3.581   0.585   1.831
 1545SOL    HW1 4648   3.555   0.674   1.795
 1545SOL    HW2 4649   3.579   0.517   1.758
 1546SOL     OW 4650   3.224   1.144   0.545
 1546SOL    HW1 4651   3.307   1.115   0.497
 1546SOL    HW2 4652   3.175   1.211   0.489
 1547SOL     OW 4653   2.412   0.196   0.885
 1547SOL    HW1 4654   2.407   0.191   0.985
 1547SOL    HW2 4655   2.414   0.292   0.856
 1548SOL     OW 4656   2.870   1.456   0.477
 1548SOL    HW1 4657   2.824   1.528   0.425
 1548SOL    HW2 4658   2.866   1.476   0.575
 1549SOL     OW 4659   2.213   1.801   0.853
 1549SOL    HW1 4660   2.263   1.715   0.859
 1549SOL    HW2 4661   2.278   1.878   0.850
 1550SOL     OW 4662   3.657   1.066   0.873
 1550SOL    HW1 4663   3.595   1.051   0.797
 1550SOL    HW2 4664   3.605   1.077   0.958
 1551SOL     OW 4665   3.089   1.550   1.506
 1551SOL    HW1 4666   3.095   1.473   1.570
 1551SOL    HW2 4667   3.037   1.524   1.426
 1552SOL     OW 4668   2.183   0.943   0.242
 1552SOL    HW1 4669   2.265   0.982   0.200
 1552SOL    HW2 4670   2.156   0.861   0.193
 1553SOL     OW 4671   3.320   0.735   0.728
 1553SOL    HW1 4672   3.315   0.670   0.803
 1553SOL    HW2 4673   3.400   0.794   0.741
 1554SOL     OW 4674   2.323   1.266   1.727
 1554SOL    HW1 4675   2.273   1.267   1.641
 1554SOL    HW2 4676   2.260   1.248   1.803
 1555SOL     OW 4677   2.973   1.776   0.237
 1555SOL    HW1 4678   2.913   1.714   0.287
 1555SOL    HW2 4679   3.004   1.732   0.152
 1556SOL     OW 4680   2.064   0.285   1.498
 1556SOL    HW1 4681   1.984   0.345   1.485
 1556SOL    HW2 4682   2.054   0.236   1.584
 1557SOL     OW 4683   3.494   1.377   0.081
 1557SOL    HW1 4684   3.462   1.471   0.071
 1557SOL    HW2 4685   3.418   1.314   0.069
 1558SOL     OW 4686   2.326   1.743   0.323
 1558SOL    HW1 4687   2.359   1.782   0.409
 1558SOL    HW2 4688   2.402   1.736   0.258
 1559SOL     OW 4689   3.262   0.107   0.426
 1559SOL    HW1 4690   3.238   0.070   0.336
 1559SOL    HW2 4691   3.361   0.123   0.430
 1560SOL     OW 4692   2.111   1.785   1.241
 1560SOL    HW1 4693   2.168   1.720   1.291
 1560SOL    HW2 4694   2.095   1.752   1.148
 1561SOL     OW 4695   2.802   1.698   0.904
 1561SOL    HW1 4696   2.882   1.641   0.925
 1561SOL    HW2 4697   2.753   1.658   0.827
 1562SOL     OW 4698   2.244   0.700   0.480
 1562SOL    HW1 4699   2.289   0.610   0.477
 1562SOL    HW2 4700   2.150   0.689   0.513
 1563SOL     OW 4701   3.409   0.222   1.729
 1563SOL    HW1 4702   3.404   0.259   1.821
 1563SOL    HW2 4703   3.337   0.153   1.717
 1564SOL     OW 4704   2.476   0.122   0.117
 1564SOL    HW1 4705   2.574   0.100   0.124
 1564SOL    HW2 4706   2.445   0.105   0.024
 1565SOL     OW 4707   2.643   0.264   1.749
 1565SOL    HW1 4708   2.710   0.203   1.792
 1565SOL    HW2 4709   2.570   0.283   1.814
 1566SOL     OW 4710   2.750   1.514   1.195
 1566SOL    HW1 4711   2.727   1.489   1.101
 1566SOL    HW2 4712   2.811   1.445   1.234
 1567SOL     OW 4713   3.213   0.590   1.433
 1567SOL    HW1 4714   3.241   0.547   1.518
 1567SOL    HW2 4715   3.238   0.686   1.434
 1568SOL     OW 4716   2.665   1.402   0.924
 1568SOL    HW1 4717   2.755   1.416   0.882
 1568SOL    HW2 4718   2.594   1.404   0.853
 1569SOL     OW 4719   2.784   0.503   0.899
 1569SOL    HW1 4720   2.759   0.494   0.803
 1569SOL    HW2 4721   2.832   0.421   0.930
 1570SOL     OW 4722   2.401   0.064   0.512
 1570SOL    HW1 4723   2.320   0.065   0.570
 1570SOL    HW2 4724   2.404   0.147   0.457
 1571SOL     OW 4725   3.296   1.188   0.041
 1571SOL    HW1 4726   3.328   1.112   0.098
 1571SOL    HW2 4727   3.204   1.215   0.071
 1572SOL     OW 4728   2.159   0.035   0.171
 1572SOL    HW1 4729   2.208   0.119   0.150
 1572SOL    HW2 4730   2.221  -0.030   0.216
 1573SOL     OW 4731   2.797   0.236   0.480
 1573SOL    HW1 4732   2.749   0.277   0.402
 1573SOL    HW2 4733   2.896   0.234   0.461
 1574SOL     OW 4734   2.938   0.683   1.464
 1574SOL    HW1 4735   2.858   0.622   1.467
 1574SOL    HW2 4736   3.019   0.630   1.440
 1575SOL     OW 4737   3.089   1.570   0.793
 1575SOL    HW1 4738   3.110   1.644   0.728
 1575SOL    HW2 4739   3.157   1.570   0.866
 1576SOL     OW 4740   2.321   1.152   0.741
 1576SOL    HW1 4741   2.250   1.125   0.806
 1576SOL    HW2 4742   2.295   1.124   0.648
 1577SOL     OW 4743   3.133   1.797   0.591
 1577SOL    HW1 4744   3.177   1.861   0.527
 1577SOL    HW2 4745   3.083   1.849   0.661
 1578SOL     OW 4746   2.894   0.549   0.016
 1578SOL    HW1 4747   2.853   0.631  -0.023
 1578SOL    HW2 4748   2.958   0.575   0.089
 1579SOL     OW 4749   1.940   0.556   1.386
 1579SOL    HW1 4750   2.032   0.555   1.345
 1579SOL    HW2 4751   1.934   0.630   1.453
 1580SOL     OW 4752   2.423   0.222   1.147
 1580SOL    HW1 4753   2.461   0.138   1.184
 1580SOL    HW2 4754   2.335   0.241   1.191
 1581SOL     OW 4755   2.728   0.454   0.642
 1581SOL    HW1 4756   2.696   0.526   0.580
 1581SOL    HW2 4757   2.752   0.373   0.589
 1582SOL     OW 4758   2.879   0.039   0.753
 1582SOL    HW1 4759   2.807   0.044   0.684
 1582SOL    HW2 4760   2.855  -0.030   0.822
 1583SOL     OW 4761   3.291   1.173   0.867
 1583SOL    HW1 4762   3.236   1.089   0.860
 1583SOL    HW2 4763   3.317   1.202   0.775
 1584SOL     OW 4764   3.328   0.590   0.992
 1584SOL    HW1 4765   3.298   0.495   0.999
 1584SOL    HW2 4766   3.401   0.606   1.058
 1585SOL     OW 4767   3.719   0.833   0.377
 1585SOL    HW1 4768   3.761   0.769   0.441
 1585SOL    HW2 4769   3.681   0.782   0.299
 1586SOL     OW 4770   2.350   1.385   0.174
 1586SOL    HW1 4771   2.263   1.370   0.221
 1586SOL    HW2 4772   2.333   1.411   0.079
 1587SOL     OW 4773   3.526   1.280   0.657
 1587SOL    HW1 4774   3.625   1.288   0.671
 1587SOL    HW2 4775   3.481   1.364   0.688
 1588SOL     OW 4776   3.252   0.575   0.078
 1588SOL    HW1 4777   3.198   0.554   0.159
 1588SOL    HW2 4778   3.343   0.534   0.087
 1589SOL     OW 4779   2.389   0.256   0.328
 1589SOL    HW1 4780   2.416   0.197   0.253
 1589SOL    HW2 4781   2.389   0.351   0.297
 1590SOL     OW 4782   3.616   1.223   1.588
 1590SOL    HW1 4783   3.707   1.184   1.575
 1590SOL    HW2 4784   3.624   1.319   1.612
 1591SOL     OW 4785   2.926   1.347   1.340
 1591SOL    HW1 4786   2.846   1.324   1.395
 1591SOL    HW2 4787   3.009   1.321   1.389
 1592SOL     OW 4788   3.454   1.629   1.625
 1592SOL    HW1 4789   3.481   1.663   1.535
 1592SOL    HW2 4790   3.533   1.591   1.671
 1593SOL     OW 4791   2.973   1.195   1.100
 1593SOL    HW1 4792   2.933   1.239   1.181
 1593SOL    HW2 4793   2.932   1.232   1.017
 1594SOL     OW 4794   3.500   1.099   1.079
 1594SOL    HW1 4795   3.505   1.180   1.138
 1594SOL    HW2 4796   3.414   1.101   1.028
 1595SOL     OW 4797   2.777   0.089   1.402
 1595SOL    HW1 4798   2.802   0.069   1.307
 1595SOL    HW2 4799   2.849   0.145   1.444
 1596SOL     OW 4800   2.842   1.116   1.719
 1596SOL    HW1 4801   2.743   1.122   1.729
 1596SOL    HW2 4802   2.865   1.036   1.663
 1597SOL     OW 4803   2.567   1.050   0.368
 1597SOL    HW1 4804   2.553   1.057   0.467
 1597SOL    HW2 4805   2.651   0.999   0.350
 1598SOL     OW 4806   2.272   0.813   1.251
 1598SOL    HW1 4807   2.358   0.825   1.301
 1598SOL    HW2 4808   2.230   0.726   1.278
 1599SOL     OW 4809   3.136   0.386   1.262
 1599SOL    HW1 4810   3.157   0.460   1.326
 1599SOL    HW2 4811   3.047   0.403   1.219
 1600SOL     OW 4812   1.926   1.564   1.331
 1600SOL    HW1 4813   1.880   1.646   1.297
 1600SOL    HW2 4814   2.024   1.583   1.340
 1601SOL     OW 4815   2.229   1.100   0.501
 1601SOL    HW1 4816   2.222   1.183   0.445
 1601SOL    HW2 4817   2.233   1.020   0.441
 1602SOL     OW 4818   2.428   0.537   0.865
 1602SOL    HW1 4819   2.440   0.603   0.791
 1602SOL    HW2 4820   2.474   0.571   0.948
 1603SOL     OW 4821   3.114   1.348   0.388
 1603SOL    HW1 4822   3.164   1.425   0.428
 1603SOL    HW2 4823   3.019   1.350   0.420
 1604SOL     OW 4824   3.134   1.445   1.142
 1604SOL    HW1 4825   3.181   1.458   1.229
 1604SOL    HW2 4826   3.068   1.371   1.151
 1605SOL     OW 4827   3.444   0.639   0.472
 1605SOL    HW1 4828   3.413   0.700   0.545
 1605SOL    HW2 4829   3.494   0.691   0.403
 1606SOL     OW 4830   2.216   1.510   1.329
 1606SOL    HW1 4831   2.195   1.466   1.242
 1606SOL    HW2 4832   2.313   1.536   1.332
 1607SOL     OW 4833   2.264   0.751   1.598
 1607SOL    HW1 4834   2.332   0.806   1.551
 1607SOL    HW2 4835   2.304   0.663   1.625
 1608SOL     OW 4836   3.449   0.779   1.670
 1608SOL    HW1 4837   3.357   0.817   1.665
 1608SOL    HW2 4838   3.509   0.826   1.605
 1609SOL     OW 4839   2.875   0.105   1.770
 1609SOL    HW1 4840   2.881   0.190   1.718
 1609SOL    HW2 4841   2.907   0.029   1.713
 1610SOL     OW 4842   2.366   0.050   1.740
 1610SOL    HW1 4843   2.324  -0.007   1.670
 1610SOL    HW2 4844   2.300   0.119   1.772
 1611SOL     OW 4845   2.435   0.870   1.029
 1611SOL    HW1 4846   2.479   0.959   1.020
 1611SOL    HW2 4847   2.372   0.870   1.106
 1612SOL     OW 4848   3.222   0.862   1.045
 1612SOL    HW1 4849   3.147   0.862   0.979
 1612SOL    HW2 4850   3.259   0.770   1.054
 1613SOL     OW 4851   3.071   0.525   0.275
 1613SOL    HW1 4852   3.084   0.441   0.329
 1613SOL    HW2 4853   3.042   0.599   0.335
 1614SOL     OW 4854   2.169   0.213   1.231
 1614SOL    HW1 4855   2.146   0.250   1.321
 1614SOL    HW2 4856   2.139   0.118   1.225
 1615SOL     OW 4857   1.899   1.310   1.282
 1615SOL    HW1 4858   1.952   1.261   1.350
 1615SOL    HW2 4859   1.921   1.408   1.287
 1616SOL     OW 4860   2.594   0.634   1.064
 1616SOL    HW1 4861   2.653   0.608   0.988
 1616SOL    HW2 4862   2.566   0.730   1.053
 1617SOL     OW 4863   3.590   0.935   1.854
 1617SOL    HW1 4864   3.544   0.928   1.765
 1617SOL    HW2 4865   3.528   0.979   1.920
 1618SOL     OW 4866   2.169   0.063   0.618
 1618SOL    HW1 4867   2.158   0.157   0.651
 1618SOL    HW2 4868   2.164   0.000   0.695
 1619SOL     OW 4869   3.484   0.367   0.374
 1619SOL    HW1 4870   3.486   0.291   0.438
 1619SOL    HW2 4871   3.436   0.444   0.414
 1620SOL     OW 4872   2.885   0.766   0.966
 1620SOL    HW1 4873   2.900   0.787   1.062
 1620SOL    HW2 4874   2.855   0.671   0.957
 1621SOL     OW 4875   2.842   1.573   1.700
 1621SOL    HW1 4876   2.822   1.617   1.612
 1621SOL    HW2 4877   2.881   1.482   1.684
 1622SOL     OW 4878   3.721   1.518   1.605
 1622SOL    HW1 4879   3.735   1.545   1.510
 1622SOL    HW2 4880   3.804   1.540   1.658
 1623SOL     OW 4881   2.212   0.898   1.804
 1623SOL    HW1 4882   2.288   0.942   1.852
 1623SOL    HW2 4883   2.247   0.851   1.722
 1624SOL     OW 4884   3.402   0.274   0.125
 1624SOL    HW1 4885   3.341   0.199   0.148
 1624SOL    HW2 4886   3.424   0.326   0.208
 1625SOL     OW 4887   3.165   0.838   0.042
 1625SOL    HW1 4888   3.199   0.745   0.057
 1625SOL    HW2 4889   3.183   0.865  -0.053
 1626SOL     OW 4890   2.930   1.333   0.849
 1626SOL    HW1 4891   2.937   1.249   0.794
 1626SOL    HW2 4892   2.992   1.402   0.813
 1627SOL     OW 4893   2.181   0.810   0.949
 1627SOL    HW1 4894   2.274   0.846   0.954
 1627SOL    HW2 4895   2.175   0.725   1.001
 1628SOL     OW 4896   2.201   0.509   1.006
 1628SOL    HW1 4897   2.149   0.426   0.989
 1628SOL    HW2 4898   2.278   0.514   0.942
 1629SOL     OW 4899   3.000   0.380   1.678
 1629SOL    HW1 4900   2.955   0.443   1.742
 1629SOL    HW2 4901   3.093   0.411   1.661
 1630SOL     OW 4902   3.022   0.207   1.477
 1630SOL    HW1 4903   3.022   0.271   1.554
 1630SOL    HW2 4904   3.050   0.255   1.394
 1631SOL     OW 4905   1.870   1.326   0.200
 1631SOL    HW1 4906   1.777   1.347   0.169
 1631SOL    HW2 4907   1.880   1.227   0.213
 1632SOL     OW 4908   1.950   1.801   0.927
 1632SOL    HW1 4909   1.908   1.715   0.900
 1632SOL    HW2 4910   2.044   1.804   0.893
 1633SOL     OW 4911   2.366   1.568   0.910
 1633SOL    HW1 4912   2.432   1.642   0.919
 1633SOL    HW2 4913   2.410   1.489   0.868
 1634SOL     OW 4914   2.864   0.796   1.238
 1634SOL    HW1 4915   2.905   0.764   1.324
 1634SOL    HW2 4916   2.768   0.769   1.235
 1635SOL     OW 4917   1.902   0.544   1.114
 1635SOL    HW1 4918   1.987   0.511   1.073
 1635SOL    HW2 4919   1.915   0.559   1.212
 1636SOL     OW 4920   2.051   0.520   1.722
 1636SOL    HW1 4921   2.110   0.480   1.652
 1636SOL    HW2 4922   1.993   0.591   1.681
 1637SOL     OW 4923   3.231   0.950   1.660
 1637SOL    HW1 4924   3.270   1.039   1.680
 1637SOL    HW2 4925   3.241   0.930   1.563
 1638SOL     OW 4926   2.677   0.572   0.325
 1638SOL    HW1 4927   2.684   0.483   0.279
 1638SOL    HW2 4928   2.583   0.606   0.317
 1639SOL     OW 4929   3.519   0.604   1.206
 1639SOL    HW1 4930   3.481   0.535   1.268
 1639SOL    HW2 4931   3.601   0.568   1.162
 1640SOL     OW 4932   2.114   1.564   1.744
 1640SOL    HW1 4933   2.084   1.621   1.820
 1640SOL    HW2 4934   2.107   1.467   1.770
 1641SOL     OW 4935   2.533   0.464   1.269
 1641SOL    HW1 4936   2.499   0.375   1.239
 1641SOL    HW2 4937   2.559   0.518   1.189
 1642SOL     OW 4938   2.792   1.678   1.465
 1642SOL    HW1 4939   2.768   1.660   1.370
 1642SOL    HW2 4940   2.822   1.772   1.475
 1643SOL     OW 4941   2.335   0.500   0.191
 1643SOL    HW1 4942   2.396   0.580   0.195
 1643SOL    HW2 4943   2.240   0.531   0.198
 1644SOL     OW 4944   2.021   1.137   1.466
 1644SOL    HW1 4945   2.043   1.076   1.542
 1644SOL    HW2 4946   2.031   1.088   1.380
 1645SOL     OW 4947   3.209   1.059   1.234
 1645SOL    HW1 4948   3.233   0.996   1.160
 1645SOL    HW2 4949   3.119   1.099   1.216
 1646SOL     OW 4950   3.164   0.855   0.309
 1646SOL    HW1 4951   3.078   0.824   0.351
 1646SOL    HW2 4952   3.160   0.841   0.210
 1647SOL     OW 4953   3.621   1.747   1.154
 1647SOL    HW1 4954   3.682   1.777   1.081
 1647SOL    HW2 4955   3.583   1.658   1.132
 1648SOL     OW 4956   3.114   1.731   1.128
 1648SOL    HW1 4957   3.198   1.736   1.074
 1648SOL    HW2 4958   3.091   1.635   1.146
 1649SOL     OW 4959   1.945   1.258   1.022
 1649SOL    HW1 4960   1.940   1.257   1.122
 1649SOL    HW2 4961   1.862   1.217   0.984
 1650SOL     OW 4962   2.550   1.662   1.716
 1650SOL    HW1 4963   2.494   1.743   1.725
 1650SOL    HW2 4964   2.602   1.666   1.630
 1651SOL     OW 4965   2.765   0.086   0.133
 1651SOL    HW1 4966   2.816   0.087   0.047
 1651SOL    HW2 4967   2.821   0.044   0.204
 1652SOL     OW 4968   3.588   0.135   0.523
 1652SOL    HW1 4969   3.661   0.118   0.456
 1652SOL    HW2 4970   3.557   0.048   0.561
 1653SOL     OW 4971   3.250   1.573   0.477
 1653SOL    HW1 4972   3.317   1.585   0.403
 1653SOL    HW2 4973   3.210   1.662   0.500
 1654SOL     OW 4974   1.992   1.794   1.851
 1654SOL    HW1 4975   1.951   1.720   1.904
 1654SOL    HW2 4976   2.056   1.845   1.909
 1655SOL     OW 4977   3.142   0.927   0.672
 1655SOL    HW1 4978   3.202   0.846   0.674
 1655SOL    HW2 4979   3.182   0.996   0.612
 1656SOL     OW 4980   2.692   1.273   1.422
 1656SOL    HW1 4981   2.687   1.306   1.517
 1656SOL    HW2 4982   2.606   1.292   1.376
 1657SOL     OW 4983   2.534   1.616   0.154
 1657SOL    HW1 4984   2.543   1.626   0.055
 1657SOL    HW2 4985   2.494   1.527   0.175
 1658SOL     OW 4986   3.512   1.720   1.394
 1658SOL    HW1 4987   3.565   1.730   1.310
 1658SOL    HW2 4988   3.485   1.810   1.428
 1659SOL     OW 4989   3.703   0.175   0.963
 1659SOL    HW1 4990   3.742   0.090   0.927
 1659SOL    HW2 4991   3.605   0.177   0.944
 1660SOL     OW 4992   2.125   0.326   0.720
 1660SOL    HW1 4993   2.046   0.377   0.686
 1660SOL    HW2 4994   2.116   0.311   0.818
 1661SOL     OW 4995   3.056   1.612   0.031
 1661SOL    HW1 4996   3.062   1.519   0.068
 1661SOL    HW2 4997   2.997   1.612  -0.049
 1662SOL     OW 4998   2.684   1.002   1.372
 1662SOL    HW1 4999   2.724   1.001   1.280
 1662SOL    HW2 5000   2.694   1.094   1.412
 1663SOL     OW 5001   2.778   0.910   0.291
 1663SOL    HW1 5002   2.841   0.948   0.223
 1663SOL    HW2 5003   2.818   0.827   0.330
 1664SOL     OW 5004   3.366   1.607   0.044
 1664SOL    HW1 5005   3.274   1.644   0.051
 1664SOL    HW2 5006   3.404   1.627  -0.046
 1665SOL     OW 5007   2.234   1.288   1.490
 1665SOL    HW1 5008   2.221   1.381   1.456
 1665SOL    HW2 5009   2.150   1.236   1.477
 1666SOL     OW 5010   3.476   1.292   1.289
 1666SOL    HW1 5011   3.536   1.295   1.369
 1666SOL    HW2 5012   3.401   1.356   1.302
 1667SOL     OW 5013   2.901   1.098   0.696
 1667SOL    HW1 5014   2.831   1.051   0.750
 1667SOL    HW2 5015   2.960   1.030   0.653
 1668SOL     OW 5016   2.876   0.236   0.971
 1668SOL    HW1 5017   2.868   0.200   0.878
 1668SOL    HW2 5018   2.874   0.160   1.036
 1669SOL     OW 5019   2.452   1.487   0.491
 1669SOL    HW1 5020   2.494   1.429   0.421
 1669SOL    HW2 5021   2.408   1.566   0.447
 1670SOL     OW 5022   3.571   0.385   1.381
 1670SOL    HW1 5023   3.644   0.454   1.385
 1670SOL    HW2 5024   3.599   0.310   1.322
 1671SOL     OW 5025   2.117   1.348   0.290
 1671SOL    HW1 5026   2.021   1.349   0.263
 1671SOL    HW2 5027   2.129   1.401   0.374
 1672SOL     OW 5028   1.967   1.013   1.726
 1672SOL    HW1 5029   1.890   0.980   1.780
 1672SOL    HW2 5030   2.052   0.983   1.768
 1673SOL     OW 5031   2.534   0.203   1.489
 1673SOL    HW1 5032   2.624   0.187   1.449
 1673SOL    HW2 5033   2.542   0.208   1.588
 1674SOL     OW 5034   3.302   0.856   1.398
 1674SOL    HW1 5035   3.245   0.908   1.335
 1674SOL    HW2 5036   3.398   0.868   1.374
 1675SOL     OW 5037   1.934   0.166   0.318
 1675SOL    HW1 5038   1.917   0.249   0.264
 1675SOL    HW2 5039   2.024   0.129   0.296
 1676SOL     OW 5040   3.045   1.335   0.119
 1676SOL    HW1 5041   2.946   1.324   0.121
 1676SOL    HW2 5042   3.079   1.350   0.212
 1677SOL     OW 5043   2.475   0.842   1.431
 1677SOL    HW1 5044   2.531   0.923   1.414
 1677SOL    HW2 5045   2.534   0.762   1.434
 1678SOL     OW 5046   3.355   1.767   0.959
 1678SOL    HW1 5047   3.388   1.831   0.890
 1678SOL    HW2 5048   3.421   1.761   1.034
 1679SOL     OW 5049   2.578   0.565   1.708
 1679SOL    HW1 5050   2.597   0.630   1.782
 1679SOL    HW2 5051   2.638   0.485   1.717
 1680SOL     OW 5052   3.312   1.220   1.633
 1680SOL    HW1 5053   3.303   1.210   1.732
 1680SOL    HW2 5054   3.408   1.213   1.607
 1681SOL     OW 5055   2.252   1.741   1.560
 1681SOL    HW1 5056   2.161   1.782   1.558
 1681SOL    HW2 5057   2.245   1.647   1.592
 1682SOL     OW 5058   3.536   0.883   1.254
 1682SOL    HW1 5059   3.509   0.794   1.217
 1682SOL    HW2 5060   3.537   0.951   1.181
 1683SOL     OW 5061   3.087   0.325   0.449
 1683SOL    HW1 5062   3.152   0.251   0.438
 1683SOL    HW2 5063   3.107   0.375   0.533
 1684SOL     OW 5064   2.456   0.745   0.652
 1684SOL    HW1 5065   2.506   0.830   0.633
 1684SOL    HW2 5066   2.368   0.747   0.604
 1685SOL     OW 5067   3.639   0.342   1.642
 1685SOL    HW1 5068   3.622   0.373   1.548
 1685SOL    HW2 5069   3.555   0.305   1.680
 1686SOL     OW 5070   3.592   0.934   1.517
 1686SOL    HW1 5071   3.630   1.025   1.532
 1686SOL    HW2 5072   3.584   0.917   1.418
 1687SOL     OW 5073   2.721   1.374   0.016
 1687SOL    HW1 5074   2.675   1.389   0.104
 1687SOL    HW2 5075   2.765   1.459  -0.014
 1688SOL     OW 5076   2.523   1.790   0.953
 1688SOL    HW1 5077   2.477   1.878   0.940
 1688SOL    HW2 5078   2.622   1.802   0.946
 1689SOL     OW 5079   2.721   0.956   0.861
 1689SOL    HW1 5080   2.775   0.887   0.909
 1689SOL    HW2 5081   2.689   1.025   0.927
 1690SOL     OW 5082   2.945   0.984   0.087
 1690SOL    HW1 5083   2.922   1.037   0.005
 1690SOL    HW2 5084   3.026   0.928   0.068
 1691SOL     OW 5085   3.723   1.569   0.851
 1691SOL    HW1 5086   3.652   1.557   0.781
 1691SOL    HW2 5087   3.724   1.490   0.911
 1692SOL     OW 5088   2.083   1.314   1.844
 1692SOL    HW1 5089   2.018   1.241   1.823
 1692SOL    HW2 5090   2.087   1.328   1.942
 1693SOL     OW 5091   1.941   1.240   0.653
 1693SOL    HW1 5092   1.940   1.193   0.741
 1693SOL    HW2 5093   2.023   1.212   0.602
 1694SOL     OW 5094   2.534   1.391   1.624
 1694SOL    HW1 5095   2.456   1.341   1.662
 1694SOL    HW2 5096   2.531   1.486   1.655
 1695SOL     OW 5097   3.686   0.192   1.227
 1695SOL    HW1 5098   3.682   0.102   1.271
 1695SOL    HW2 5099   3.689   0.181   1.128
 1696SOL     OW 5100   2.290   0.424   0.520
 1696SOL    HW1 5101   2.320   0.352   0.458
 1696SOL    HW2 5102   2.251   0.384   0.603
 1697SOL     OW 5103   3.567   1.487   1.104
 1697SOL    HW1 5104   3.474   1.462   1.077
 1697SOL    HW2 5105   3.593   1.437   1.186
 1698SOL     OW 5106   2.179   0.547   1.280
 1698SOL    HW1 5107   2.217   0.488   1.352
 1698SOL    HW2 5108   2.219   0.521   1.192
 1699SOL     OW 5109   2.674   1.586   0.687
 1699SOL    HW1 5110   2.706   1.596   0.593
 1699SOL    HW2 5111   2.595   1.524   0.689
 1700SOL     OW 5112   3.286   0.214   1.112
 1700SOL    HW1 5113   3.338   0.149   1.167
 1700SOL    HW2 5114   3.237   0.277   1.173
 1701SOL     OW 5115   2.863   0.034   1.154
 1701SOL    HW1 5116   2.800  -0.038   1.123
 1701SOL    HW2 5117   2.956  -0.002   1.154
 1702SOL     OW 5118   2.632   1.330   0.301
 1702SOL    HW1 5119   2.586   1.243   0.318
 1702SOL    HW2 5120   2.723   1.327   0.342
 1703SOL     OW 5121   2.480   1.567   1.284
 1703SOL    HW1 5122   2.475   1.649   1.341
 1703SOL    HW2 5123   2.569   1.564   1.239
 1704SOL     OW 5124   3.214   0.052   0.168
 1704SOL    HW1 5125   3.249   0.011   0.084
 1704SOL    HW2 5126   3.124   0.014   0.188
 1705SOL     OW 5127   3.162   0.453   0.691
 1705SOL    HW1 5128   3.103   0.533   0.695
 1705SOL    HW2 5129   3.177   0.418   0.784
 1706SOL     OW 5130   3.455   0.221   0.882
 1706SOL    HW1 5131   3.371   0.220   0.936
 1706SOL    HW2 5132   3.457   0.304   0.826
 1707SOL     OW 5133   1.901   1.077   0.300
 1707SOL    HW1 5134   2.000   1.066   0.291
 1707SOL    HW2 5135   1.861   0.991   0.332
 1708SOL     OW 5136   2.737   1.646   0.337
 1708SOL    HW1 5137   2.660   1.611   0.283
 1708SOL    HW2 5138   2.705   1.717   0.399
 1709SOL     OW 5139   2.092   0.628   1.975
 1709SOL    HW1 5140   1.999   0.626   2.012
 1709SOL    HW2 5141   2.093   0.589   1.883
 1710SOL     OW 5142   2.087   0.275   2.858
 1710SOL    HW1 5143   2.122   0.258   2.950
 1710SOL    HW2 5144   1.999   0.230   2.846
 1711SOL     OW 5145   1.881   0.368   2.509
 1711SOL    HW1 5146   1.799   0.411   2.548
 1711SOL    HW2 5147   1.853   0.295   2.446
 1712SOL     OW 5148   2.431   1.275   3.027
 1712SOL    HW1 5149   2.338   1.268   2.990
 1712SOL    HW2 5150   2.442   1.364   3.071
 1713SOL     OW 5151   3.417   1.511   2.565
 1713SOL    HW1 5152   3.360   1.495   2.646
 1713SOL    HW2 5153   3.358   1.521   2.485
 1714SOL     OW 5154   2.997   0.703   2.579
 1714SOL    HW1 5155   3.054   0.781   2.554
 1714SOL    HW2 5156   2.937   0.729   2.655
 1715SOL     OW 5157   3.617   0.607   2.093
 1715SOL    HW1 5158   3.605   0.594   1.994
 1715SOL    HW2 5159   3.587   0.526   2.142
 1716SOL     OW 5160   2.630   1.144   2.885
 1716SOL    HW1 5161   2.552   1.161   2.945
 1716SOL    HW2 5162   2.664   1.231   2.849
 1717SOL     OW 5163   2.712   0.798   3.685
 1717SOL    HW1 5164   2.708   0.874   3.750
 1717SOL    HW2 5165   2.734   0.834   3.594
 1718SOL     OW 5166   2.547   1.012   2.527
 1718SOL    HW1 5167   2.616   0.996   2.597
 1718SOL    HW2 5168   2.474   1.069   2.565
 1719SOL     OW 5169   2.548   1.161   3.665
 1719SOL    HW1 5170   2.608   1.240   3.679
 1719SOL    HW2 5171   2.462   1.192   3.624
 1720SOL     OW 5172   2.197   1.435   2.923
 1720SOL    HW1 5173   2.119   1.404   2.870
 1720SOL    HW2 5174   2.255   1.493   2.866
 1721SOL     OW 5175   3.322   1.505   3.201
 1721SOL    HW1 5176   3.346   1.599   3.227
 1721SOL    HW2 5177   3.306   1.451   3.283
 1722SOL     OW 5178   2.300   0.392   3.361
 1722SOL    HW1 5179   2.382   0.336   3.370
 1722SOL    HW2 5180   2.219   0.334   3.365
 1723SOL     OW 5181   3.465   0.447   2.599
 1723SOL    HW1 5182   3.391   0.493   2.549
 1723SOL    HW2 5183   3.516   0.515   2.652
 1724SOL     OW 5184   2.093   1.713   2.345
 1724SOL    HW1 5185   2.127   1.790   2.399
 1724SOL    HW2 5186   2.137   1.713   2.255
 1725SOL     OW 5187   2.989   1.341   3.552
 1725SOL    HW1 5188   3.036   1.341   3.640
 1725SOL    HW2 5189   2.941   1.254   3.541
 1726SOL     OW 5190   2.092   1.434   2.400
 1726SOL    HW1 5191   2.066   1.530   2.400
 1726SOL    HW2 5192   2.021   1.380   2.445
 1727SOL     OW 5193   2.102   1.091   2.748
 1727SOL    HW1 5194   2.116   1.007   2.800
 1727SOL    HW2 5195   2.047   1.155   2.803
 1728SOL     OW 5196   2.482   1.786   3.301
 1728SOL    HW1 5197   2.390   1.769   3.336
 1728SOL    HW2 5198   2.510   1.878   3.327
 1729SOL     OW 5199   2.468   0.964   1.985
 1729SOL    HW1 5200   2.475   1.048   1.931
 1729SOL    HW2 5201   2.514   0.977   2.073
 1730SOL     OW 5202   3.456   0.114   3.342
 1730SOL    HW1 5203   3.438   0.181   3.270
 1730SOL    HW2 5204   3.453   0.160   3.431
 1731SOL     OW 5205   1.984   0.643   2.425
 1731SOL    HW1 5206   1.939   0.555   2.442
 1731SOL    HW2 5207   1.983   0.697   2.509
 1732SOL     OW 5208   3.704   1.767   2.221
 1732SOL    HW1 5209   3.758   1.738   2.301
 1732SOL    HW2 5210   3.734   1.857   2.192
 1733SOL     OW 5211   1.889   1.596   1.979
 1733SOL    HW1 5212   1.870   1.500   2.000
 1733SOL    HW2 5213   1.856   1.654   2.054
 1734SOL     OW 5214   3.551   0.922   2.474
 1734SOL    HW1 5215   3.646   0.893   2.482
 1734SOL    HW2 5216   3.543   0.987   2.399
 1735SOL     OW 5217   3.503   1.108   2.294
 1735SOL    HW1 5218   3.589   1.110   2.242
 1735SOL    HW2 5219   3.517   1.155   2.382
 1736SOL     OW 5220   1.975   0.737   3.459
 1736SOL    HW1 5221   2.063   0.724   3.504
 1736SOL    HW2 5222   1.962   0.834   3.437
 1737SOL     OW 5223   2.475   1.365   2.588
 1737SOL    HW1 5224   2.426   1.278   2.597
 1737SOL    HW2 5225   2.452   1.408   2.501
 1738SOL     OW 5226   3.155   1.228   3.285
 1738SOL    HW1 5227   3.192   1.155   3.227
 1738SOL    HW2 5228   3.207   1.233   3.370
 1739SOL     OW 5229   2.671   0.004   2.364
 1739SOL    HW1 5230   2.711   0.095   2.355
 1739SOL    HW2 5231   2.571   0.012   2.370
 1740SOL     OW 5232   2.059   0.976   3.126
 1740SOL    HW1 5233   2.148   0.931   3.112
 1740SOL    HW2 5234   1.986   0.911   3.107
 1741SOL     OW 5235   3.387   0.999   2.052
 1741SOL    HW1 5236   3.324   0.923   2.065
 1741SOL    HW2 5237   3.435   1.017   2.138
 1742SOL     OW 5238   3.049   1.792   3.478
 1742SOL    HW1 5239   3.073   1.852   3.402
 1742SOL    HW2 5240   3.056   1.697   3.448
 1743SOL     OW 5241   2.179   0.251   3.663
 1743SOL    HW1 5242   2.250   0.322   3.669
 1743SOL    HW2 5243   2.091   0.290   3.691
 1744SOL     OW 5244   3.328   1.417   2.815
 1744SOL    HW1 5245   3.269   1.423   2.895
 1744SOL    HW2 5246   3.313   1.329   2.769
 1745SOL     OW 5247   3.529   1.714   2.434
 1745SOL    HW1 5248   3.488   1.691   2.346
 1745SOL    HW2 5249   3.511   1.640   2.499
 1746SOL     OW 5250   2.460   0.729   2.132
 1746SOL    HW1 5251   2.484   0.798   2.064
 1746SOL    HW2 5252   2.382   0.762   2.186
 1747SOL     OW 5253   3.143   0.345   2.806
 1747SOL    HW1 5254   3.057   0.295   2.793
 1747SOL    HW2 5255   3.205   0.291   2.862
 1748SOL     OW 5256   3.438   1.662   2.169
 1748SOL    HW1 5257   3.527   1.708   2.172
 1748SOL    HW2 5258   3.417   1.638   2.074
 1749SOL     OW 5259   2.669   0.605   3.327
 1749SOL    HW1 5260   2.622   0.602   3.416
 1749SOL    HW2 5261   2.618   0.550   3.261
 1750SOL     OW 5262   3.256   0.469   3.536
 1750SOL    HW1 5263   3.236   0.512   3.624
 1750SOL    HW2 5264   3.334   0.407   3.545
 1751SOL     OW 5265   2.835   0.890   3.434
 1751SOL    HW1 5266   2.881   0.806   3.405
 1751SOL    HW2 5267   2.779   0.924   3.359
 1752SOL     OW 5268   2.853   0.410   3.104
 1752SOL    HW1 5269   2.776   0.444   3.158
 1752SOL    HW2 5270   2.819   0.359   3.025
 1753SOL     OW 5271   2.903   0.701   2.291
 1753SOL    HW1 5272   2.929   0.697   2.387
 1753SOL    HW2 5273   2.818   0.650   2.277
 1754SOL     OW 5274   1.938   0.811   2.651
 1754SOL    HW1 5275   2.037   0.799   2.660
 1754SOL    HW2 5276   1.914   0.906   2.672
 1755SOL     OW 5277   1.992   1.821   3.433
 1755SOL    HW1 5278   1.982   1.806   3.532
 1755SOL    HW2 5279   1.906   1.857   3.397
 1756SOL     OW 5280   2.727   0.348   2.057
 1756SOL    HW1 5281   2.786   0.411   2.008
 1756SOL    HW2 5282   2.746   0.254   2.028
 1757SOL     OW 5283   3.581   0.585   3.693
 1757SOL    HW1 5284   3.555   0.674   3.657
 1757SOL    HW2 5285   3.579   0.517   3.620
 1758SOL     OW 5286   3.224   1.144   2.407
 1758SOL    HW1 5287   3.307   1.115   2.359
 1758SOL    HW2 5288   3.175   1.211   2.351
 1759SOL     OW 5289   2.412   0.196   2.747
 1759SOL    HW1 5290   2.407   0.191   2.847
 1759SOL    HW2 5291   2.414   0.292   2.718
 1760SOL     OW 5292   2.870   1.456   2.339
 1760SOL    HW1 5293   2.824   1.528   2.287
 1760SOL    HW2 5294   2.866   1.476   2.437
 1761SOL     OW 5295   2.213   1.801   2.715
 1761SOL    HW1 5296   2.263   1.715   2.721
 1761SOL    HW2 5297   2.278   1.878   2.712
 1762SOL     OW 5298   3.657   1.066   2.735
 1762SOL    HW1 5299   3.595   1.051   2.659
 1762SOL    HW2 5300   3.605   1.077   2.820
 1763SOL     OW 5301   3.089   1.550   3.368
 1763SOL    HW1 5302   3.095   1.473   3.432
 1763SOL    HW2 5303   3.037   1.524   3.288
 1764SOL     OW 5304   2.183   0.943   2.104
 1764SOL    HW1 5305   2.265   0.982   2.062
 1764SOL    HW2 5306   2.156   0.861   2.055
 1765SOL     OW 5307   3.320   0.735   2.590
 1765SOL    HW1 5308   3.315   0.670   2.665
 1765SOL    HW2 5309   3.400   0.794   2.603
 1766SOL     OW 5310   2.323   1.266   3.589
 1766SOL    HW1 5311   2.273   1.267   3.503
 1766SOL    HW2 5312   2.260   1.248   3.665
 1767SOL     OW 5313   2.973   1.776   2.099
 1767SOL    HW1 5314   2.913   1.714   2.149
 1767SOL    HW2 5315   3.004   1.732   2.014
 1768SOL     OW 5316   2.064   0.285   3.360
 1768SOL    HW1 5317   1.984   0.345   3.347
 1768SOL    HW2 5318   2.054   0.236   3.446
 1769SOL     OW 5319   3.494   1.377   1.943
 1769SOL    HW1 5320   3.462   1.471   1.933
 1769SOL    HW2 5321   3.418   1.314   1.931
 1770SOL     OW 5322   2.326   1.743   2.185
 1770SOL    HW1 5323   2.359   1.782   2.271
 1770SOL    HW2 5324   2.402   1.736   2.120
 1771SOL     OW 5325   3.262   0.107   2.288
 1771SOL    HW1 5326   3.238   0.070   2.198
 1771SOL    HW2 5327   3.361   0.123   2.292
 1772SOL     OW 5328   2.111   1.785   3.103
 1772SOL    HW1 5329   2.168   1.720   3.153
 1772SOL    HW2 5330   2.095   1.752   3.010
 1773SOL     OW 5331   2.802   1.698   2.766
 1773SOL    HW1 5332   2.882   1.641   2.787
 1773SOL    HW2 5333   2.753   1.658   2.689
 1774SOL     OW 5334   2.244   0.700   2.342
 1774SOL    HW1 5335   2.289   0.610   2.339
 1774SOL    HW2 5336   2.150   0.689   2.375
 1775SOL     OW 5337   3.409   0.222   3.591
 1775SOL    HW1 5338   3.404   0.259   3.683
 1775SOL    HW2 5339   3.337   0.153   3.579
 1776SOL     OW 5340   2.476   0.122   1.979
 1776SOL    HW1 5341   2.574   0.100   1.986
 1776SOL    HW2 5342   2.445   0.105   1.886
 1777SOL     OW 5343   2.643   0.264   3.611
 1777SOL    HW1 5344   2.710   0.203   3.654
 1777SOL    HW2 5345   2.570   0.283   3.676
 1778SOL     OW 5346   2.750   1.514   3.057
 1778SOL    HW1 5347   2.727   1.489   2.963
 1778SOL    HW2 5348   2.811   1.445   3.096
 1779SOL     OW 5349   3.213   0.590   3.295
 1779SOL    HW1 5350   3.241   0.547   3.380
 1779SOL    HW2 5351   3.238   0.686   3.296
 1780SOL     OW 5352   2.665   1.402   2.786
 1780SOL    HW1 5353   2.755   1.416   2.744
 1780SOL    HW2 5354   2.594   1.404   2.715
 1781SOL     OW 5355   2.784   0.503   2.761
 1781SOL    HW1 5356   2.759   0.494   2.665
 1781SOL    HW2 5357   2.832   0.421   2.792
 1782SOL     OW 5358   2.401   0.064   2.374
 1782SOL    HW1 5359   2.320   0.065   2.432
 1782SOL    HW2 5360   2.404   0.147   2.319
 1783SOL     OW 5361   3.296   1.188   1.903
 1783SOL    HW1 5362   3.328   1.112   1.960
 1783SOL    HW2 5363   3.204   1.215   1.933
 1784SOL     OW 5364   2.159   0.035   2.033
 1784SOL    HW1 5365   2.208   0.119   2.012
 1784SOL    HW2 5366   2.221  -0.030   2.078
 1785SOL     OW 5367   2.797   0.236   2.342
 1785SOL    HW1 5368   2.749   0.277   2.264
 1785SOL    HW2 5369   2.896   0.234   2.323
 1786SOL     OW 5370   2.938   0.683   3.326
 1786SOL    HW1 5371   2.858   0.622   3.329
 1786SOL    HW2 5372   3.019   0.630   3.302
 1787SOL     OW 5373   3.089   1.570   2.655
 1787SOL    HW1 5374   3.110   1.644   2.590
 1787SOL    HW2 5375   3.157   1.570   2.728
 1788SOL     OW 5376   2.321   1.152   2.603
 1788SOL    HW1 5377   2.250   1.125   2.668
 1788SOL    HW2 5378   2.295   1.124   2.510
 1789SOL     OW 5379   3.133   1.797   2.453
 1789SOL    HW1 5380   3.177   1.861   2.389
 1789SOL    HW2 5381   3.083   1.849   2.523
 1790SOL     OW 5382   2.894   0.549   1.878
 1790SOL    HW1 5383   2.853   0.631   1.839
 1790SOL    HW2 5384   2.958   0.575   1.951
 1791SOL     OW 5385   1.940   0.556   3.248
 1791SOL    HW1 5386   2.032   0.555   3.207
 1791SOL    HW2 5387   1.934   0.630   3.315
 1792SOL     OW 5388   2.423   0.222   3.009
 1792SOL    HW1 5389   2.461   0.138   3.046
 1792SOL    HW2 5390   2.335   0.241   3.053
 1793SOL     OW 5391   2.728   0.454   2.504
 1793SOL    HW1 5392   2.696   0.526   2.442
 1793SOL    HW2 5393   2.752   0.373   2.451
 1794SOL     OW 5394   2.879   0.039   2.615
 1794SOL    HW1 5395   2.807   0.044   2.546
 1794SOL    HW2 5396   2.855  -0.030   2.684
 1795SOL     OW 5397   3.291   1.173   2.729
 1795SOL    HW1 5398   3.236   1.089   2.722
 1795SOL    HW2 5399   3.317   1.202   2.637
 1796SOL     OW 5400   3.328   0.590   2.854
 1796SOL    HW1 5401   3.298   0.495   2.861
 1796SOL    HW2 5402   3.401   0.606   2.920
 1797SOL     OW 5403   3.719   0.833   2.239
 1797SOL    HW1 5404   3.761   0.769   2.303
 1797SOL    HW2 5405   3.681   0.782   2.161
 1798SOL     OW 5406   2.350   1.385   2.036
 1798SOL    HW1 5407   2.263   1.370   2.083
 1798SOL    HW2 5408   2.333   1.411   1.941
 1799SOL     OW 5409   3.526   1.280   2.519
 1799SOL    HW1 5410   3.625   1.288   2.533
 1799SOL    HW2 5411   3.481   1.364   2.550
 1800SOL     OW 5412   3.252   0.575   1.940
 1800SOL    HW1 5413   3.198   0.554   2.021
 1800SOL    HW2 5414   3.343   0.534   1.949
 1801SOL     OW 5415   2.389   0.256   2.190
 1801SOL    HW1 5416   2.416   0.197   2.115
 1801SOL    HW2 5417   2.389   0.351   2.159
 1802SOL     OW 5418   3.616   1.223   3.450
 1802SOL    HW1 5419   3.707   1.184   3.437
 1802SOL    HW2 5420   3.624   1.319   3.474
 1803SOL     OW 5421   2.926   1.347   3.202
 1803SOL    HW1 5422   2.846   1.324   3.257
 1803SOL    HW2 5423   3.009   1.321   3.251
 1804SOL     OW 5424   3.454   1.629   3.487
 1804SOL    HW1 5425   3.481   1.663   3.397
 1804SOL    HW2 5426   3.533   1.591   3.533
 1805SOL     OW 5427   2.973   1.195   2.962
 1805SOL    HW1 5428   2.933   1.239   3.043
 1805SOL    HW2 5429   2.932   1.232   2.879
 1806SOL     OW 5430   3.500   1.099   2.941
 1806SOL    HW1 5431   3.505   1.180   3.000
 1806SOL    HW2 5432   3.414   1.101   2.890
 1807SOL     OW 5433   2.777   0.089   3.264
 1807SOL    HW1 5434   2.802   0.069   3.169
 1807SOL    HW2 5435   2.849   0.145   3.306
 1808SOL     OW 5436   2.842   1.116   3.581
 1808SOL    HW1 5437   2.743   1.122   3.591
 1808SOL    HW2 5438   2.865   1.036   3.525
 1809SOL     OW 5439   2.567   1.050   2.230
 1809SOL    HW1 5440   2.553   1.057   2.329
 1809SOL    HW2 5441   2.651   0.999   2.212
 1810SOL     OW 5442   2.272   0.813   3.113
 1810SOL    HW1 5443   2.358   0.825   3.163
 1810SOL    HW2 5444   2.230   0.726   3.140
 1811SOL     OW 5445   3.136   0.386   3.124
 1811SOL    HW1 5446   3.157   0.460   3.188
 1811SOL    HW2 5447   3.047   0.403   3.081
 1812SOL     OW 5448   1.926   1.564   3.193
 1812SOL    HW1 5449   1.880   1.646   3.159
 1812SOL    HW2 5450   2.024   1.583   3.202
 1813SOL     OW 5451   2.229   1.100   2.363
 1813SOL    HW1 5452   2.222   1.183   2.307
 1813SOL    HW2 5453   2.233   1.020   2.303
 1814SOL     OW 5454   2.428   0.537   2.727
 1814SOL    HW1 5455   2.440   0.603   2.653
 1814SOL    HW2 5456   2.474   0.571   2.810
 1815SOL     OW 5457   3.114   1.348   2.250
 1815SOL    HW1 5458   3.164   1.425   2.290
 1815SOL    HW2 5459   3.019   1.350   2.282
 1816SOL     OW 5460   3.134   1.445   3.004
 1816SOL    HW1 5461   3.181   1.458   3.091
 1816SOL    HW2 5462   3.068   1.371   3.013
 1817SOL     OW 5463   3.444   0.639   2.334
 1817SOL    HW1 5464   3.413   0.700   2.407
 1817SOL    HW2 5465   3.494   0.691   2.265
 1818SOL     OW 5466   2.216   1.510   3.191
 1818SOL    HW1 5467   2.195   1.466   3.104
 1818SOL    HW2 5468   2.313   1.536   3.194
 1819SOL     OW 5469   2.264   0.751   3.460
 1819SOL    HW1 5470   2.332   0.806   3.413
 1819SOL    HW2 5471   2.304   0.663   3.487
 1820SOL     OW 5472   3.449   0.779   3.532
 1820SOL    HW1 5473   3.357   0.817   3.527
 1820SOL    HW2 5474   3.509   0.826   3.467
 1821SOL     OW 5475   2.875   0.105   3.632
 1821SOL    HW1 5476   2.881   0.190   3.580
 1821SOL    HW2 5477   2.907   0.029   3.575
 1822SOL     OW 5478   2.366   0.050   3.602
 1822SOL    HW1 5479   2.324  -0.007   3.532
 1822SOL    HW2 5480   2.300   0.119   3.634
 1823SOL     OW 5481   2.435   0.870   2.891
 1823SOL    HW1 5482   2.479   0.959   2.882
 1823SOL    HW2 5483   2.372   0.870   2.968
 1824SOL     OW 5484   3.222   0.862   2.907
 1824SOL    HW1 5485   3.147   0.862   2.841
 1824SOL    HW2 5486   3.259   0.770   2.916
 1825SOL     OW 5487   3.071   0.525   2.137
 1825SOL    HW1 5488   3.084   0.441   2.191
 1825SOL    HW2 5489   3.042   0.599   2.197
 1826SOL     OW 5490   2.169   0.213   3.093
 1826SOL    HW1 5491   2.146   0.250   3.183
 1826SOL    HW2 5492   2.139   0.118   3.087
 1827SOL     OW 5493   1.899   1.310   3.144
 1827SOL    HW1 5494   1.952   1.261   3.212
 1827SOL    HW2 5495   1.921   1.408   3.149
 1828SOL     OW 5496   2.594   0.634   2.926
 1828SOL    HW1 5497   2.653   0.608   2.850
 1828SOL    HW2 5498   2.566   0.730   2.915
 1829SOL     OW 5499   3.590   0.935   3.716
 1829SOL    HW1 5500   3.544   0.928   3.627
 1829SOL    HW2 5501   3.528   0.979   3.782
 1830SOL     OW 5502   2.169   0.063   2.480
 1830SOL    HW1 5503   2.158   0.157   2.513
 1830SOL    HW2 5504   2.164   0.000   2.557
 1831SOL     OW 5505   3.484   0.367   2.236
 1831SOL    HW1 5506   3.486   0.291   2.300
 1831SOL    HW2 5507   3.436   0.444   2.276
 1832SOL     OW 5508   2.885   0.766   2.828
 1832SOL    HW1 5509   2.900   0.787   2.924
 1832SOL    HW2 5510   2.855   0.671   2.819
 1833SOL     OW 5511   2.842   1.573   3.562
 1833SOL    HW1 5512   2.822   1.617   3.474
 1833SOL    HW2 5513   2.881   1.482   3.546
 1834SOL     OW 5514   3.721   1.518   3.467
 1834SOL    HW1 5515   3.735   1.545   3.372
 1834SOL    HW2 5516   3.804   1.540   3.520
 1835SOL     OW 5517   2.212   0.898   3.666
 1835SOL    HW1 5518   2.288   0.942   3.714
 1835SOL    HW2 5519   2.247   0.851   3.584
 1836SOL     OW 5520   3.402   0.274   1.987
 1836SOL    HW1 5521   3.341   0.199   2.010
 1836SOL    HW2 5522   3.424   0.326   2.070
 1837SOL     OW 5523   3.165   0.838   1.904
 1837SOL    HW1 5524   3.199   0.745   1.919
 1837SOL    HW2 5525   3.183   0.865   1.809
 1838SOL     OW 5526   2.930   1.333   2.711
 1838SOL    HW1 5527   2.937   1.249   2.656
 1838SOL    HW2 5528   2.992   1.402   2.675
 1839SOL     OW 5529   2.181   0.810   2.811
 1839SOL    HW1 5530   2.274   0.846   2.816
 1839SOL    HW2 5531   2.175   0.725   2.863
 1840SOL     OW 5532   2.201   0.509   2.868
 1840SOL    HW1 5533   2.149   0.426   2.851
 1840SOL    HW2 5534   2.278   0.514   2.804
 1841SOL     OW 5535   3.000   0.380   3.540
 1841SOL    HW1 5536   2.955   0.443   3.604
 1841SOL    HW2 5537   3.093   0.411   3.523
 1842SOL     OW 5538   3.022   0.207   3.339
 1842SOL    HW1 5539   3.022   0.271   3.416
 1842SOL    HW2 5540   3.050   0.255   3.256
 1843SOL     OW 5541   1.870   1.326   2.062
 1843SOL    HW1 5542   1.777   1.347   2.031
 1843SOL    HW2 5543   1.880   1.227   2.075
 1844SOL     OW 5544   1.950   1.801   2.789
 1844SOL    HW1 5545   1.908   1.715   2.762
 1844SOL    HW2 5546   2.044   1.804   2.755
 1845SOL     OW 5547   2.366   1.568   2.772
 1845SOL    HW1 5548   2.432   1.642   2.781
 1845SOL    HW2 5549   2.410   1.489   2.730
 1846SOL     OW 5550   2.864   0.796   3.100
 1846SOL    HW1 5551   2.905   0.764   3.186
 1846SOL    HW2 5552   2.768   0.769   3.097
 1847SOL     OW 5553   1.902   0.544   2.976
 1847SOL    HW1 5554   1.987   0.511   2.935
 1847SOL    HW2 5555   1.915   0.559   3.074
 1848SOL     OW 5556   2.051   0.520   3.584
 1848SOL    HW1 5557   2.110   0.480   3.514
 1848SOL    HW2 5558   1.993   0.591   3.543
 1849SOL     OW 5559   3.231   0.950   3.522
 1849SOL    HW1 5560   3.270   1.039   3.542
 1849SOL    HW2 5561   3.241   0.930   3.425
 1850SOL     OW 5562   2.677   0.572   2.187
 1850SOL    HW1 5563   2.684   0.483   2.141
 1850SOL    HW2 5564   2.583   0.606   2.179
 1851SOL     OW 5565   3.519   0.604   3.068
 1851SOL    HW1 5566   3.481   0.535   3.130
 1851SOL    HW2 5567   3.601   0.568   3.024
 1852SOL     OW 5568   2.114   1.564   3.606
 1852SOL    HW1 5569   2.084   1.621   3.682
 1852SOL    HW2 5570   2.107   1.467   3.632
 1853SOL     OW 5571   2.533   0.464   3.131
 1853SOL    HW1 5572   2.499   0.375   3.101
 1853SOL    HW2 5573   2.559   0.518   3.051
 1854SOL     OW 5574   2.792   1.678   3.327
 1854SOL    HW1 5575   2.768   1.660   3.232
 1854SOL    HW2 5576   2.822   1.772   3.337
 1855SOL     OW 5577   2.335   0.500   2.053
 1855SOL    HW1 5578   2.396   0.580   2.057
 1855SOL    HW2 5579   2.240   0.531   2.060
 1856SOL     OW 5580   2.021   1.137   3.328
 1856SOL    HW1 5581   2.043   1.076   3.404
 1856SOL    HW2 5582   2.031   1.088   3.242
 1857SOL     OW 5583   3.209   1.059   3.096
 1857SOL    HW1 5584   3.233   0.996   3.022
 1857SOL    HW2 5585   3.119   1.099   3.078
 1858SOL     OW 5586   3.164   0.855   2.171
 1858SOL    HW1 5587   3.078   0.824   2.213
 1858SOL    HW2 5588   3.160   0.841   2.072
 1859SOL     OW 5589   3.621   1.747   3.016
 1859SOL    HW1 5590   3.682   1.777   2.943
 1859SOL    HW2 5591   3.583   1.658   2.994
 1860SOL     OW 5592   3.114   1.731   2.990
 1860SOL    HW1 5593   3.198   1.736   2.936
 1860SOL    HW2 5594   3.091   1.635   3.008
 1861SOL     OW 5595   1.945   1.258   2.884
 1861SOL    HW1 5596   1.940   1.257   2.984
 1861SOL    HW2 5597   1.862   1.217   2.846
 1862SOL     OW 5598   2.550   1.662   3.578
 1862SOL    HW1 5599   2.494   1.743   3.587
 1862SOL    HW2 5600   2.602   1.666   3.492
 1863SOL     OW 5601   3.588   0.135   2.385
 1863SOL    HW1 5602   3.661   0.118   2.318
 1863SOL    HW2 5603   3.557   0.048   2.423
 1864SOL     OW 5604   3.250   1.573   2.339
 1864SOL    HW1 5605   3.317   1.585   2.265
 1864SOL    HW2 5606   3.210   1.662   2.362
 1865SOL     OW 5607   1.992   1.794   3.713
 1865SOL    HW1 5608   1.951   1.720   3.766
 1865SOL    HW2 5609   2.056   1.845   3.771
 1866SOL     OW 5610   3.142   0.927   2.534
 1866SOL    HW1 5611   3.202   0.846   2.536
 1866SOL    HW2 5612   3.182   0.996   2.474
 1867SOL     OW 5613   2.692   1.273   3.284
 1867SOL    HW1 5614   2.687   1.306   3.379
 1867SOL    HW2 5615   2.606   1.292   3.238
 1868SOL     OW 5616   2.534   1.616   2.016
 1868SOL    HW1 5617   2.543   1.626   1.917
 1868SOL    HW2 5618   2.494   1.527   2.037
 1869SOL     OW 5619   3.512   1.720   3.256
 1869SOL    HW1 5620   3.565   1.730   3.172
 1869SOL    HW2 5621   3.485   1.810   3.290
 1870SOL     OW 5622   3.703   0.175   2.825
 1870SOL    HW1 5623   3.742   0.090   2.789
 1870SOL    HW2 5624   3.605   0.177   2.806
 1871SOL     OW 5625   2.125   0.326   2.582
 1871SOL    HW1 5626   2.046   0.377   2.548
 1871SOL    HW2 5627   2.116   0.311   2.680
 1872SOL     OW 5628   3.056   1.612   1.893
 1872SOL    HW1 5629   3.062   1.519   1.930
 1872SOL    HW2 5630   2.997   1.612   1.813
 1873SOL     OW 5631   2.684   1.002   3.234
 1873SOL    HW1 5632   2.724   1.001   3.142
 1873SOL    HW2 5633   2.694   1.094   3.274
 1874SOL     OW 5634   2.778   0.910   2.153
 1874SOL    HW1 5635   2.841   0.948   2.085
 1874SOL    HW2 5636   2.818   0.827   2.192
 1875SOL     OW 5637   3.366   1.607   1.906
 1875SOL    HW1 5638   3.274   1.644   1.913
 1875SOL    HW2 5639   3.404   1.627   1.816
 1876SOL     OW 5640   2.234   1.288   3.352
 1876SOL    HW1 5641   2.221   1.381   3.318
 1876SOL    HW2 5642   2.150   1.236   3.339
 1877SOL     OW 5643   3.476   1.292   3.151
 1877SOL    HW1 5644   3.536   1.295   3.231
 1877SOL    HW2 5645   3.401   1.356   3.164
 1878SOL     OW 5646   2.901   1.098   2.558
 1878SOL    HW1 5647   2.831   1.051   2.612
 1878SOL    HW2 5648   2.960   1.030   2.515
 1879SOL     OW 5649   2.876   0.236   2.833
 1879SOL    HW1 5650   2.868   0.200   2.740
 1879SOL    HW2 5651   2.874   0.160   2.898
 1880SOL     OW 5652   2.452   1.487   2.353
 1880SOL    HW1 5653   2.494   1.429   2.283
 1880SOL    HW2 5654   2.408   1.566   2.309
 1881SOL     OW 5655   3.571   0.385   3.243
 1881SOL    HW1 5656   3.644   0.454   3.247
 1881SOL    HW2 5657   3.599   0.310   3.184
 1882SOL     OW 5658   2.117   1.348   2.152
 1882SOL    HW1 5659   2.021   1.349   2.125
 1882SOL    HW2 5660   2.129   1.401   2.236
 1883SOL     OW 5661   1.967   1.013   3.588
 1883SOL    HW1 5662   1.890   0.980   3.642
 1883SOL    HW2 5663   2.052   0.983   3.630
 1884SOL     OW 5664   2.534   0.203   3.351
 1884SOL    HW1 5665   2.624   0.187   3.311
 1884SOL    HW2 5666   2.542   0.208   3.450
 1885SOL     OW 5667   1.937   0.345   1.895
 1885SOL    HW1 5668   1.845   0.317   1.866
 1885SOL    HW2 5669   1.968   0.422   1.839
 1886SOL     OW 5670   3.302   0.856   3.260
 1886SOL    HW1 5671   3.245   0.908   3.197
 1886SOL    HW2 5672   3.398   0.868   3.236
 1887SOL     OW 5673   1.934   0.166   2.180
 1887SOL    HW1 5674   1.917   0.249   2.126
 1887SOL    HW2 5675   2.024   0.129   2.158
 1888SOL     OW 5676   3.045   1.335   1.981
 1888SOL    HW1 5677   2.946   1.324   1.983
 1888SOL    HW2 5678   3.079   1.350   2.074
 1889SOL     OW 5679   2.475   0.842   3.293
 1889SOL    HW1 5680   2.531   0.923   3.276
 1889SOL    HW2 5681   2.534   0.762   3.296
 1890SOL     OW 5682   3.355   1.767   2.821
 1890SOL    HW1 5683   3.388   1.831   2.752
 1890SOL    HW2 5684   3.421   1.761   2.896
 1891SOL     OW 5685   2.578   0.565   3.570
 1891SOL    HW1 5686   2.597   0.630   3.644
 1891SOL    HW2 5687   2.638   0.485   3.579
 1892SOL     OW 5688   3.312   1.220   3.495
 1892SOL    HW1 5689   3.303   1.210   3.594
 1892SOL    HW2 5690   3.408   1.213   3.469
 1893SOL     OW 5691   2.252   1.741   3.422
 1893SOL    HW1 5692   2.161   1.782   3.420
 1893SOL    HW2 5693   2.245   1.647   3.454
 1894SOL     OW 5694   3.536   0.883   3.116
 1894SOL    HW1 5695   3.509   0.794   3.079
 1894SOL    HW2 5696   3.537   0.951   3.043
 1895SOL     OW 5697   3.087   0.325   2.311
 1895SOL    HW1 5698   3.152   0.251   2.300
 1895SOL    HW2 5699   3.107   0.375   2.395
 1896SOL     OW 5700   2.456   0.745   2.514
 1896SOL    HW1 5701   2.506   0.830   2.495
 1896SOL    HW2 5702   2.368   0.747   2.466
 1897SOL     OW 5703   3.639   0.342   3.504
 1897SOL    HW1 5704   3.622   0.373   3.410
 1897SOL    HW2 5705   3.555   0.305   3.542
 1898SOL     OW 5706   3.592   0.934   3.379
 1898SOL    HW1 5707   3.630   1.025   3.394
 1898SOL    HW2 5708   3.584   0.917   3.280
 1899SOL     OW 5709   2.721   1.374   1.878
 1899SOL    HW1 5710   2.675   1.389   1.966
 1899SOL    HW2 5711   2.765   1.459   1.848
 1900SOL     OW 5712   2.523   1.790   2.815
 1900SOL    HW1 5713   2.477   1.878   2.802
 1900SOL    HW2 5714   2.622   1.802   2.808
 1901SOL     OW 5715   2.721   0.956   2.723
 1901SOL    HW1 5716   2.775   0.887   2.771
 1901SOL    HW2 5717   2.689   1.025   2.789
 1902SOL     OW 5718   2.945   0.984   1.949
 1902SOL    HW1 5719   2.922   1.037   1.867
 1902SOL    HW2 5720   3.026   0.928   1.930
 1903SOL     OW 5721   3.723   1.569   2.713
 1903SOL    HW1 5722   3.652   1.557   2.643
 1903SOL    HW2 5723   3.724   1.490   2.773
 1904SOL     OW 5724   2.083   1.314   3.706
 1904SOL    HW1 5725   2.018   1.241   3.685
 1904SOL    HW2 5726   2.087   1.328   3.804
 1905SOL     OW 5727   1.941   1.240   2.515
 1905SOL    HW1 5728   1.940   1.193   2.603
 1905SOL    HW2 5729   2.023   1.212   2.464
 1906SOL     OW 5730   2.534   1.391   3.486
 1906SOL    HW1 5731   2.456   1.341   3.524
 1906SOL    HW2 5732   2.531   1.486   3.517
 1907SOL     OW 5733   3.686   0.192   3.089
 1907SOL    HW1 5734   3.682   0.102   3.133
 1907SOL    HW2 5735   3.689   0.181   2.990
 1908SOL     OW 5736   2.290   0.424   2.382
 1908SOL    HW1 5737   2.320   0.352   2.320
 1908SOL    HW2 5738   2.251   0.384   2.465
 1909SOL     OW 5739   3.567   1.487   2.966
 1909SOL    HW1 5740   3.474   1.462   2.939
 1909SOL    HW2 5741   3.593   1.437   3.048
 1910SOL     OW 5742   2.179   0.547   3.142
 1910SOL    HW1 5743   2.217   0.488   3.214
 1910SOL    HW2 5744   2.219   0.521   3.054
 1911SOL     OW 5745   2.674   1.586   2.549
 1911SOL    HW1 5746   2.706   1.596   2.455
 1911SOL    HW2 5747   2.595   1.524   2.551
 1912SOL     OW 5748   3.286   0.214   2.974
 1912SOL    HW1 5749   3.338   0.149   3.029
 1912SOL    HW2 5750   3.237   0.277   3.035
 1913SOL     OW 5751   2.863   0.034   3.016
 1913SOL    HW1 5752   2.800  -0.038   2.985
 1913SOL    HW2 5753   2.956  -0.002   3.016
 1914SOL     OW 5754   2.632   1.330   2.163
 1914SOL    HW1 5755   2.586   1.243   2.180
 1914SOL    HW2 5756   2.723   1.327   2.204
 1915SOL     OW 5757   2.480   1.567   3.146
 1915SOL    HW1 5758   2.475   1.649   3.203
 1915SOL    HW2 5759   2.569   1.564   3.101
 1916SOL     OW 5760   3.214   0.052   2.030
 1916SOL    HW1 5761   3.249   0.011   1.946
 1916SOL    HW2 5762   3.124   0.014   2.050
 1917SOL     OW 5763   3.162   0.453   2.553
 1917SOL    HW1 5764   3.103   0.533   2.557
 1917SOL    HW2 5765   3.177   0.418   2.646
 1918SOL     OW 5766   3.455   0.221   2.744
 1918SOL    HW1 5767   3.371   0.220   2.798
 1918SOL    HW2 5768   3.457   0.304   2.688
 1919SOL     OW 5769   1.901   1.077   2.162
 1919SOL    HW1 5770   2.000   1.066   2.153
 1919SOL    HW2 5771   1.861   0.991   2.194
 1920SOL     OW 5772   2.737   1.646   2.199
 1920SOL    HW1 5773   2.660   1.611   2.145
 1920SOL    HW2 5774   2.705   1.717   2.261
 1921SOL     OW 5775   2.092   0.628   3.837
 1921SOL    HW1 5776   1.999   0.626   3.874
 1921SOL    HW2 5777   2.093   0.589   3.745
 1922SOL     OW 5778   2.087   0.275   4.720
 1922SOL    HW1 5779   2.122   0.258   4.812
 1922SOL    HW2 5780   1.999   0.230   4.708
 1923SOL     OW 5781   1.881   0.368   4.371
 1923SOL    HW1 5782   1.799   0.411   4.410
 1923SOL    HW2 5783   1.853   0.295   4.308
 1924SOL     OW 5784   2.431   1.275   4.889
 1924SOL    HW1 5785   2.338   1.268   4.852
 1924SOL    HW2 5786   2.442   1.364   4.933
 1925SOL     OW 5787   3.417   1.511   4.427
 1925SOL    HW1 5788   3.360   1.495   4.508
 1925SOL    HW2 5789   3.358   1.521   4.347
 1926SOL     OW 5790   2.997   0.703   4.441
 1926SOL    HW1 5791   3.054   0.781   4.416
 1926SOL    HW2 5792   2.937   0.729   4.517
 1927SOL     OW 5793   3.617   0.607   3.955
 1927SOL    HW1 5794   3.605   0.594   3.856
 1927SOL    HW2 5795   3.587   0.526   4.004
 1928SOL     OW 5796   2.630   1.144   4.747
 1928SOL    HW1 5797   2.552   1.161   4.807
 1928SOL    HW2 5798   2.664   1.231   4.711
 1929SOL     OW 5799   2.547   1.012   4.389
 1929SOL    HW1 5800   2.616   0.996   4.459
 1929SOL    HW2 5801   2.474   1.069   4.427
 1930SOL     OW 5802   2.197   1.435   4.785
 1930SOL    HW1 5803   2.119   1.404   4.732
 1930SOL    HW2 5804   2.255   1.493   4.728
 1931SOL     OW 5805   3.465   0.447   4.461
 1931SOL    HW1 5806   3.391   0.493   4.411
 1931SOL    HW2 5807   3.516   0.515   4.514
 1932SOL     OW 5808   2.093   1.713   4.207
 1932SOL    HW1 5809   2.127   1.790   4.261
 1932SOL    HW2 5810   2.137   1.713   4.117
 1933SOL     OW 5811   2.092   1.434   4.262
 1933SOL    HW1 5812   2.066   1.530   4.262
 1933SOL    HW2 5813   2.021   1.380   4.307
 1934SOL     OW 5814   2.102   1.091   4.610
 1934SOL    HW1 5815   2.116   1.007   4.662
 1934SOL    HW2 5816   2.047   1.155   4.665
 1935SOL     OW 5817   2.468   0.964   3.847
 1935SOL    HW1 5818   2.475   1.048   3.793
 1935SOL    HW2 5819   2.514   0.977   3.935
 1936SOL     OW 5820   1.984   0.643   4.287
 1936SOL    HW1 5821   1.939   0.555   4.304
 1936SOL    HW2 5822   1.983   0.697   4.371
 1937SOL     OW 5823   3.704   1.767   4.083
 1937SOL    HW1 5824   3.758   1.738   4.163
 1937SOL    HW2 5825   3.734   1.857   4.054
 1938SOL     OW 5826   1.889   1.596   3.841
 1938SOL    HW1 5827   1.870   1.500   3.862
 1938SOL    HW2 5828   1.856   1.654   3.916
 1939SOL     OW 5829   3.551   0.922   4.336
 1939SOL    HW1 5830   3.646   0.893   4.344
 1939SOL    HW2 5831   3.543   0.987   4.261
 1940SOL     OW 5832   3.503   1.108   4.156
 1940SOL    HW1 5833   3.589   1.110   4.104
 1940SOL    HW2 5834   3.517   1.155   4.244
 1941SOL     OW 5835   2.475   1.365   4.450
 1941SOL    HW1 5836   2.426   1.278   4.459
 1941SOL    HW2 5837   2.452   1.408   4.363
 1942SOL     OW 5838   2.671   0.004   4.226
 1942SOL    HW1 5839   2.711   0.095   4.217
 1942SOL    HW2 5840   2.571   0.012   4.232
 1943SOL     OW 5841   2.059   0.976   4.988
 1943SOL    HW1 5842   2.148   0.931   4.974
 1943SOL    HW2 5843   1.986   0.911   4.969
 1944SOL     OW 5844   3.387   0.999   3.914
 1944SOL    HW1 5845   3.324   0.923   3.927
 1944SOL    HW2 5846   3.435   1.017   4.000
 1945SOL     OW 5847   3.328   1.417   4.677
 1945SOL    HW1 5848   3.269   1.423   4.757
 1945SOL    HW2 5849   3.313   1.329   4.631
 1946SOL     OW 5850   3.529   1.714   4.296
 1946SOL    HW1 5851   3.488   1.691   4.208
 1946SOL    HW2 5852   3.511   1.640   4.361
 1947SOL     OW 5853   2.460   0.729   3.994
 1947SOL    HW1 5854   2.484   0.798   3.926
 1947SOL    HW2 5855   2.382   0.762   4.048
 1948SOL     OW 5856   3.143   0.345   4.668
 1948SOL    HW1 5857   3.057   0.295   4.655
 1948SOL    HW2 5858   3.205   0.291   4.724
 1949SOL     OW 5859   3.438   1.662   4.031
 1949SOL    HW1 5860   3.527   1.708   4.034
 1949SOL    HW2 5861   3.417   1.638   3.936
 1950SOL     OW 5862   2.903   0.701   4.153
 1950SOL    HW1 5863   2.929   0.697   4.249
 1950SOL    HW2 5864   2.818   0.650   4.139
 1951SOL     OW 5865   1.938   0.811   4.513
 1951SOL    HW1 5866   2.037   0.799   4.522
 1951SOL    HW2 5867   1.914   0.906   4.534
 1952SOL     OW 5868   2.727   0.348   3.919
 1952SOL    HW1 5869   2.786   0.411   3.870
 1952SOL    HW2 5870   2.746   0.254   3.890
 1953SOL     OW 5871   3.224   1.144   4.269
 1953SOL    HW1 5872   3.307   1.115   4.221
 1953SOL    HW2 5873   3.175   1.211   4.213
 1954SOL     OW 5874   2.412   0.196   4.609
 1954SOL    HW1 5875   2.407   0.191   4.709
 1954SOL    HW2 5876   2.414   0.292   4.580
 1955SOL     OW 5877   2.870   1.456   4.201
 1955SOL    HW1 5878   2.824   1.528   4.149
 1955SOL    HW2 5879   2.866   1.476   4.299
 1956SOL     OW 5880   2.213   1.801   4.577
 1956SOL    HW1 5881   2.263   1.715   4.583
 1956SOL    HW2 5882   2.278   1.878   4.574
 1957SOL     OW 5883   3.657   1.066   4.597
 1957SOL    HW1 5884   3.595   1.051   4.521
 1957SOL    HW2 5885   3.605   1.077   4.682
 1958SOL     OW 5886   2.183   0.943   3.966
 1958SOL    HW1 5887   2.265   0.982   3.924
 1958SOL    HW2 5888   2.156   0.861   3.917
 1959SOL     OW 5889   3.320   0.735   4.452
 1959SOL    HW1 5890   3.315   0.670   4.527
 1959SOL    HW2 5891   3.400   0.794   4.465
 1960SOL     OW 5892   2.973   1.776   3.961
 1960SOL    HW1 5893   2.913   1.714   4.011
 1960SOL    HW2 5894   3.004   1.732   3.876
 1961SOL     OW 5895   3.494   1.377   3.805
 1961SOL    HW1 5896   3.462   1.471   3.795
 1961SOL    HW2 5897   3.418   1.314   3.793
 1962SOL     OW 5898   2.326   1.743   4.047
 1962SOL    HW1 5899   2.359   1.782   4.133
 1962SOL    HW2 5900   2.402   1.736   3.982
 1963SOL     OW 5901   3.262   0.107   4.150
 1963SOL    HW1 5902   3.238   0.070   4.060
 1963SOL    HW2 5903   3.361   0.123   4.154
 1964SOL     OW 5904   2.111   1.785   4.965
 1964SOL    HW1 5905   2.168   1.720   5.015
 1964SOL    HW2 5906   2.095   1.752   4.872
 1965SOL     OW 5907   2.802   1.698   4.628
 1965SOL    HW1 5908   2.882   1.641   4.649
 1965SOL    HW2 5909   2.753   1.658   4.551
 1966SOL     OW 5910   2.244   0.700   4.204
 1966SOL    HW1 5911   2.289   0.610   4.201
 1966SOL    HW2 5912   2.150   0.689   4.237
 1967SOL     OW 5913   2.476   0.122   3.841
 1967SOL    HW1 5914   2.574   0.100   3.848
 1967SOL    HW2 5915   2.445   0.105   3.748
 1968SOL     OW 5916   2.665   1.402   4.648
 1968SOL    HW1 5917   2.755   1.416   4.606
 1968SOL    HW2 5918   2.594   1.404   4.577
 1969SOL     OW 5919   2.784   0.503   4.623
 1969SOL    HW1 5920   2.759   0.494   4.527
 1969SOL    HW2 5921   2.832   0.421   4.654
 1970SOL     OW 5922   2.401   0.064   4.236
 1970SOL    HW1 5923   2.320   0.065   4.294
 1970SOL    HW2 5924   2.404   0.147   4.181
 1971SOL     OW 5925   3.296   1.188   3.765
 1971SOL    HW1 5926   3.328   1.112   3.822
 1971SOL    HW2 5927   3.204   1.215   3.795
 1972SOL     OW 5928   2.159   0.035   3.895
 1972SOL    HW1 5929   2.208   0.119   3.874
 1972SOL    HW2 5930   2.221  -0.030   3.940
 1973SOL     OW 5931   2.797   0.236   4.204
 1973SOL    HW1 5932   2.749   0.277   4.126
 1973SOL    HW2 5933   2.896   0.234   4.185
 1974SOL     OW 5934   3.089   1.570   4.517
 1974SOL    HW1 5935   3.110   1.644   4.452
 1974SOL    HW2 5936   3.157   1.570   4.590
 1975SOL     OW 5937   2.321   1.152   4.465
 1975SOL    HW1 5938   2.250   1.125   4.530
 1975SOL    HW2 5939   2.295   1.124   4.372
 1976SOL     OW 5940   3.133   1.797   4.315
 1976SOL    HW1 5941   3.177   1.861   4.251
 1976SOL    HW2 5942   3.083   1.849   4.385
 1977SOL     OW 5943   2.894   0.549   3.740
 1977SOL    HW1 5944   2.853   0.631   3.701
 1977SOL    HW2 5945   2.958   0.575   3.813
 1978SOL     OW 5946   2.728   0.454   4.366
 1978SOL    HW1 5947   2.696   0.526   4.304
 1978SOL    HW2 5948   2.752   0.373   4.313
 1979SOL     OW 5949   2.879   0.039   4.477
 1979SOL    HW1 5950   2.807   0.044   4.408
 1979SOL    HW2 5951   2.855  -0.030   4.546
 1980SOL     OW 5952   3.291   1.173   4.591
 1980SOL    HW1 5953   3.236   1.089   4.584
 1980SOL    HW2 5954   3.317   1.202   4.499
 1981SOL     OW 5955   3.328   0.590   4.716
 1981SOL    HW1 5956   3.298   0.495   4.723
 1981SOL    HW2 5957   3.401   0.606   4.782
 1982SOL     OW 5958   3.719   0.833   4.101
 1982SOL    HW1 5959   3.761   0.769   4.165
 1982SOL    HW2 5960   3.681   0.782   4.023
 1983SOL     OW 5961   2.350   1.385   3.898
 1983SOL    HW1 5962   2.263   1.370   3.945
 1983SOL    HW2 5963   2.333   1.411   3.803
 1984SOL     OW 5964   3.526   1.280   4.381
 1984SOL    HW1 5965   3.625   1.288   4.395
 1984SOL    HW2 5966   3.481   1.364   4.412
 1985SOL     OW 5967   3.252   0.575   3.802
 1985SOL    HW1 5968   3.198   0.554   3.883
 1985SOL    HW2 5969   3.343   0.534   3.811
 1986SOL     OW 5970   2.389   0.256   4.052
 1986SOL    HW1 5971   2.416   0.197   3.977
 1986SOL    HW2 5972   2.389   0.351   4.021
 1987SOL     OW 5973   2.973   1.195   4.824
 1987SOL    HW1 5974   2.933   1.239   4.905
 1987SOL    HW2 5975   2.932   1.232   4.741
 1988SOL     OW 5976   3.500   1.099   4.803
 1988SOL    HW1 5977   3.505   1.180   4.862
 1988SOL    HW2 5978   3.414   1.101   4.752
 1989SOL     OW 5979   2.567   1.050   4.092
 1989SOL    HW1 5980   2.553   1.057   4.191
 1989SOL    HW2 5981   2.651   0.999   4.074
 1990SOL     OW 5982   2.272   0.813   4.975
 1990SOL    HW1 5983   2.358   0.825   5.025
 1990SOL    HW2 5984   2.230   0.726   5.002
 1991SOL     OW 5985   2.229   1.100   4.225
 1991SOL    HW1 5986   2.222   1.183   4.169
 1991SOL    HW2 5987   2.233   1.020   4.165
 1992SOL     OW 5988   2.428   0.537   4.589
 1992SOL    HW1 5989   2.440   0.603   4.515
 1992SOL    HW2 5990   2.474   0.571   4.672
 1993SOL     OW 5991   3.114   1.348   4.112
 1993SOL    HW1 5992   3.164   1.425   4.152
 1993SOL    HW2 5993   3.019   1.350   4.144
 1994SOL     OW 5994   3.134   1.445   4.866
 1994SOL    HW1 5995   3.181   1.458   4.953
 1994SOL    HW2 5996   3.068   1.371   4.875
 1995SOL     OW 5997   3.444   0.639   4.196
 1995SOL    HW1 5998   3.413   0.700   4.269
 1995SOL    HW2 5999   3.494   0.691   4.127
 1996SOL     OW 6000   2.435   0.870   4.753
 1996SOL    HW1 6001   2.479   0.959   4.744
 1996SOL    HW2 6002   2.372   0.870   4.830
 1997SOL     OW 6003   3.071   0.525   3.999
 1997SOL    HW1 6004   3.084   0.441   4.053
 1997SOL    HW2 6005   3.042   0.599   4.059
 1998SOL     OW 6006   2.169   0.213   4.955
 1998SOL    HW1 6007   2.146   0.250   5.045
 1998SOL    HW2 6008   2.139   0.118   4.949
 1999SOL     OW 6009   2.594   0.634   4.788
 1999SOL    HW1 6010   2.653   0.608   4.712
 1999SOL    HW2 6011   2.566   0.730   4.777
 2000SOL     OW 6012   2.169   0.063   4.342
 2000SOL    HW1 6013   2.158   0.157   4.375
 2000SOL    HW2 6014   2.164   0.000   4.419
 2001SOL     OW 6015   3.484   0.367   4.098
 2001SOL    HW1 6016   3.486   0.291   4.162
 2001SOL    HW2 6017   3.436   0.444   4.138
 2002SOL     OW 6018   2.885   0.766   4.690
 2002SOL    HW1 6019   2.900   0.787   4.786
 2002SOL    HW2 6020   2.855   0.671   4.681
 2003SOL     OW 6021   3.402   0.274   3.849
 2003SOL    HW1 6022   3.341   0.199   3.872
 2003SOL    HW2 6023   3.424   0.326   3.932
 2004SOL     OW 6024   3.165   0.838   3.766
 2004SOL    HW1 6025   3.199   0.745   3.781
 2004SOL    HW2 6026   3.183   0.865   3.671
 2005SOL     OW 6027   2.930   1.333   4.573
 2005SOL    HW1 6028   2.937   1.249   4.518
 2005SOL    HW2 6029   2.992   1.402   4.537
 2006SOL     OW 6030   2.181   0.810   4.673
 2006SOL    HW1 6031   2.274   0.846   4.678
 2006SOL    HW2 6032   2.175   0.725   4.725
 2007SOL     OW 6033   2.201   0.509   4.730
 2007SOL    HW1 6034   2.149   0.426   4.713
 2007SOL    HW2 6035   2.278   0.514   4.666
 2008SOL     OW 6036   1.870   1.326   3.924
 2008SOL    HW1 6037   1.777   1.347   3.893
 2008SOL    HW2 6038   1.880   1.227   3.937
 2009SOL     OW 6039   1.950   1.801   4.651
 2009SOL    HW1 6040   1.908   1.715   4.624
 2009SOL    HW2 6041   2.044   1.804   4.617
 2010SOL     OW 6042   2.366   1.568   4.634
 2010SOL    HW1 6043   2.432   1.642   4.643
 2010SOL    HW2 6044   2.410   1.489   4.592
 2011SOL     OW 6045   2.864   0.796   4.962
 2011SOL    HW1 6046   2.905   0.764   5.048
 2011SOL    HW2 6047   2.768   0.769   4.959
 2012SOL     OW 6048   1.902   0.544   4.838
 2012SOL    HW1 6049   1.987   0.511   4.797
 2012SOL    HW2 6050   1.915   0.559   4.936
 2013SOL     OW 6051   2.677   0.572   4.049
 2013SOL    HW1 6052   2.684   0.483   4.003
 2013SOL    HW2 6053   2.583   0.606   4.041
 2014SOL     OW 6054   3.519   0.604   4.930
 2014SOL    HW1 6055   3.481   0.535   4.992
 2014SOL    HW2 6056   3.601   0.568   4.886
 2015SOL     OW 6057   2.533   0.464   4.993
 2015SOL    HW1 6058   2.499   0.375   4.963
 2015SOL    HW2 6059   2.559   0.518   4.913
 2016SOL     OW 6060   2.335   0.500   3.915
 2016SOL    HW1 6061   2.396   0.580   3.919
 2016SOL    HW2 6062   2.240   0.531   3.922
 2017SOL     OW 6063   3.164   0.855   4.033
 2017SOL    HW1 6064   3.078   0.824   4.075
 2017SOL    HW2 6065   3.160   0.841   3.934
 2018SOL     OW 6066   3.621   1.747   4.878
 2018SOL    HW1 6067   3.682   1.777   4.805
 2018SOL    HW2 6068   3.583   1.658   4.856
 2019SOL     OW 6069   1.945   1.258   4.746
 2019SOL    HW1 6070   1.940   1.257   4.846
 2019SOL    HW2 6071   1.862   1.217   4.708
 2020SOL     OW 6072   3.588   0.135   4.247
 2020SOL    HW1 6073   3.661   0.118   4.180
 2020SOL    HW2 6074   3.557   0.048   4.285
 2021SOL     OW 6075   3.250   1.573   4.201
 2021SOL    HW1 6076   3.317   1.585   4.127
 2021SOL    HW2 6077   3.210   1.662   4.224
 2022SOL     OW 6078   3.142   0.927   4.396
 2022SOL    HW1 6079   3.202   0.846   4.398
 2022SOL    HW2 6080   3.182   0.996   4.336
 2023SOL     OW 6081   2.534   1.616   3.878
 2023SOL    HW1 6082   2.543   1.626   3.779
 2023SOL    HW2 6083   2.494   1.527   3.899
 2024SOL     OW 6084   3.703   0.175   4.687
 2024SOL    HW1 6085   3.742   0.090   4.651
 2024SOL    HW2 6086   3.605   0.177   4.668
 2025SOL     OW 6087   2.125   0.326   4.444
 2025SOL    HW1 6088   2.046   0.377   4.410
 2025SOL    HW2 6089   2.116   0.311   4.542
 2026SOL     OW 6090   3.056   1.612   3.755
 2026SOL    HW1 6091   3.062   1.519   3.792
 2026SOL    HW2 6092   2.997   1.612   3.675
 2027SOL     OW 6093   2.684   1.002   5.096
 2027SOL    HW1 6094   2.724   1.001   5.004
 2027SOL    HW2 6095   2.694   1.094   5.136
 2028SOL     OW 6096   2.778   0.910   4.015
 2028SOL    HW1 6097   2.841   0.948   3.947
 2028SOL    HW2 6098   2.818   0.827   4.054
 2029SOL     OW 6099   3.366   1.607   3.768
 2029SOL    HW1 6100   3.274   1.644   3.775
 2029SOL    HW2 6101   3.404   1.627   3.678
 2030SOL     OW 6102   2.901   1.098   4.420
 2030SOL    HW1 6103   2.831   1.051   4.474
 2030SOL    HW2 6104   2.960   1.030   4.377
 2031SOL     OW 6105   2.876   0.236   4.695
 2031SOL    HW1 6106   2.868   0.200   4.602
 2031SOL    HW2 6107   2.874   0.160   4.760
 2032SOL     OW 6108   2.452   1.487   4.215
 2032SOL    HW1 6109   2.494   1.429   4.145
 2032SOL    HW2 6110   2.408   1.566   4.171
 2033SOL     OW 6111   3.571   0.385   5.105
 2033SOL    HW1 6112   3.644   0.454   5.109
 2033SOL    HW2 6113   3.599   0.310   5.046
 2034SOL     OW 6114   2.117   1.348   4.014
 2034SOL    HW1 6115   2.021   1.349   3.987
 2034SOL    HW2 6116   2.129   1.401   4.098
 2035SOL     OW 6117   1.937   0.345   3.757
 2035SOL    HW1 6118   1.845   0.317   3.728
 2035SOL    HW2 6119   1.968   0.422   3.701
 2036SOL     OW 6120   1.934   0.166   4.042
 2036SOL    HW1 6121   1.917   0.249   3.988
 2036SOL    HW2 6122   2.024   0.129   4.020
 2037SOL     OW 6123   3.045   1.335   3.843
 2037SOL    HW1 6124   2.946   1.324   3.845
 2037SOL    HW2 6125   3.079   1.350   3.936
 2038SOL     OW 6126   3.355   1.767   4.683
 2038SOL    HW1 6127   3.388   1.831   4.614
 2038SOL    HW2 6128   3.421   1.761   4.758
 2039SOL     OW 6129   3.536   0.883   4.978
 2039SOL    HW1 6130   3.509   0.794   4.941
 2039SOL    HW2 6131   3.537   0.951   4.905
 2040SOL     OW 6132   3.087   0.325   4.173
 2040SOL    HW1 6133   3.152   0.251   4.162
 2040SOL    HW2 6134   3.107   0.375   4.257
 2041SOL     OW 6135   2.456   0.745   4.376
 2041SOL    HW1 6136   2.506   0.830   4.357
 2041SOL    HW2 6137   2.368   0.747   4.328
 2042SOL     OW 6138   2.721   1.374   3.740
 2042SOL    HW1 6139   2.675   1.389   3.828
 2042SOL    HW2 6140   2.765   1.459   3.710
 2043SOL     OW 6141   2.523   1.790   4.677
 2043SOL    HW1 6142   2.477   1.878   4.664
 2043SOL    HW2 6143   2.622   1.802   4.670
 2044SOL     OW 6144   2.721   0.956   4.585
 2044SOL    HW1 6145   2.775   0.887   4.633
 2044SOL    HW2 6146   2.689   1.025   4.651
 2045SOL     OW 6147   2.945   0.984   3.811
 2045SOL    HW1 6148   2.922   1.037   3.729
 2045SOL    HW2 6149   3.026   0.928   3.792
 2046SOL     OW 6150   3.723   1.569   4.575
 2046SOL    HW1 6151   3.652   1.557   4.505
 2046SOL    HW2 6152   3.724   1.490   4.635
 2047SOL     OW 6153   1.941   1.240   4.377
 2047SOL    HW1 6154   1.940   1.193   4.465
 2047SOL    HW2 6155   2.023   1.212   4.326
 2048SOL     OW 6156   3.686   0.192   4.951
 2048SOL    HW1 6157   3.682   0.102   4.995
 2048SOL    HW2 6158   3.689   0.181   4.852
 2049SOL     OW 6159   2.290   0.424   4.244
 2049SOL    HW1 6160   2.320   0.352   4.182
 2049SOL    HW2 6161   2.251   0.384   4.327
 2050SOL     OW 6162   3.567   1.487   4.828
 2050SOL    HW1 6163   3.474   1.462   4.801
 2050SOL    HW2 6164   3.593   1.437   4.910
 2051SOL     OW 6165   2.674   1.586   4.411
 2051SOL    HW1 6166   2.706   1.596   4.317
 2051SOL    HW2 6167   2.595   1.524   4.413
 2052SOL     OW 6168   3.286   0.214   4.836
 2052SOL    HW1 6169   3.338   0.149   4.891
 2052SOL    HW2 6170   3.237   0.277   4.897
 2053SOL     OW 6171   2.632   1.330   4.025
 2053SOL    HW1 6172   2.586   1.243   4.042
 2053SOL    HW2 6173   2.723   1.327   4.066
 2054SOL     OW 6174   3.214   0.052   3.892
 2054SOL    HW1 6175   3.249   0.011   3.808
 2054SOL    HW2 6176   3.124   0.014   3.912
 2055SOL     OW 6177   3.162   0.453   4.415
 2055SOL    HW1 6178   3.103   0.533   4.419
 2055SOL    HW2 6179   3.177   0.418   4.508
 2056SOL     OW 6180   3.455   0.221   4.606
 2056SOL    HW1 6181   3.371   0.220   4.660
 2056SOL    HW2 6182   3.457   0.304   4.550
 2057SOL     OW 6183   1.901   1.077   4.024
 2057SOL    HW1 6184   2.000   1.066   4.015
 2057SOL    HW2 6185   1.861   0.991   4.056
 2058SOL     OW 6186   2.737   1.646   4.061
 2058SOL    HW1 6187   2.660   1.611   4.007
 2058SOL    HW2 6188   2.705   1.717   4.123
 2059SOL     OW 6189   2.092   2.490   0.113
 2059SOL    HW1 6190   1.999   2.488   0.150
 2059SOL    HW2 6191   2.093   2.451   0.021
 2060SOL     OW 6192   2.087   2.137   0.996
 2060SOL    HW1 6193   2.122   2.120   1.088
 2060SOL    HW2 6194   1.999   2.092   0.984
 2061SOL     OW 6195   1.881   2.230   0.647
 2061SOL    HW1 6196   1.799   2.273   0.686
 2061SOL    HW2 6197   1.853   2.157   0.584
 2062SOL     OW 6198   2.431   3.137   1.165
 2062SOL    HW1 6199   2.338   3.130   1.128
 2062SOL    HW2 6200   2.442   3.226   1.209
 2063SOL     OW 6201   3.417   3.373   0.703
 2063SOL    HW1 6202   3.360   3.357   0.784
 2063SOL    HW2 6203   3.358   3.383   0.623
 2064SOL     OW 6204   2.997   2.565   0.717
 2064SOL    HW1 6205   3.054   2.643   0.692
 2064SOL    HW2 6206   2.937   2.591   0.793
 2065SOL     OW 6207   3.617   2.469   0.231
 2065SOL    HW1 6208   3.605   2.456   0.132
 2065SOL    HW2 6209   3.587   2.388   0.280
 2066SOL     OW 6210   2.630   3.006   1.023
 2066SOL    HW1 6211   2.552   3.023   1.083
 2066SOL    HW2 6212   2.664   3.093   0.987
 2067SOL     OW 6213   2.712   2.660   1.823
 2067SOL    HW1 6214   2.708   2.736   1.888
 2067SOL    HW2 6215   2.734   2.696   1.732
 2068SOL     OW 6216   2.547   2.874   0.665
 2068SOL    HW1 6217   2.616   2.858   0.735
 2068SOL    HW2 6218   2.474   2.931   0.703
 2069SOL     OW 6219   2.548   3.023   1.803
 2069SOL    HW1 6220   2.608   3.102   1.817
 2069SOL    HW2 6221   2.462   3.054   1.762
 2070SOL     OW 6222   2.197   3.297   1.061
 2070SOL    HW1 6223   2.119   3.266   1.008
 2070SOL    HW2 6224   2.255   3.355   1.004
 2071SOL     OW 6225   3.322   3.367   1.339
 2071SOL    HW1 6226   3.346   3.461   1.365
 2071SOL    HW2 6227   3.306   3.313   1.421
 2072SOL     OW 6228   2.300   2.254   1.499
 2072SOL    HW1 6229   2.382   2.198   1.508
 2072SOL    HW2 6230   2.219   2.196   1.503
 2073SOL     OW 6231   3.465   2.309   0.737
 2073SOL    HW1 6232   3.391   2.355   0.687
 2073SOL    HW2 6233   3.516   2.377   0.790
 2074SOL     OW 6234   2.093   3.575   0.483
 2074SOL    HW1 6235   2.127   3.652   0.537
 2074SOL    HW2 6236   2.137   3.575   0.393
 2075SOL     OW 6237   2.989   3.203   1.690
 2075SOL    HW1 6238   3.036   3.203   1.778
 2075SOL    HW2 6239   2.941   3.116   1.679
 2076SOL     OW 6240   2.092   3.296   0.538
 2076SOL    HW1 6241   2.066   3.392   0.538
 2076SOL    HW2 6242   2.021   3.242   0.583
 2077SOL     OW 6243   2.102   2.953   0.886
 2077SOL    HW1 6244   2.116   2.869   0.938
 2077SOL    HW2 6245   2.047   3.017   0.941
 2078SOL     OW 6246   2.482   3.648   1.439
 2078SOL    HW1 6247   2.390   3.631   1.474
 2078SOL    HW2 6248   2.510   3.740   1.465
 2079SOL     OW 6249   2.468   2.826   0.123
 2079SOL    HW1 6250   2.475   2.910   0.069
 2079SOL    HW2 6251   2.514   2.839   0.211
 2080SOL     OW 6252   3.456   1.976   1.480
 2080SOL    HW1 6253   3.438   2.043   1.408
 2080SOL    HW2 6254   3.453   2.022   1.569
 2081SOL     OW 6255   1.984   2.505   0.563
 2081SOL    HW1 6256   1.939   2.417   0.580
 2081SOL    HW2 6257   1.983   2.559   0.647
 2082SOL     OW 6258   3.704   3.629   0.359
 2082SOL    HW1 6259   3.758   3.600   0.439
 2082SOL    HW2 6260   3.734   3.719   0.330
 2083SOL     OW 6261   1.889   3.458   0.117
 2083SOL    HW1 6262   1.870   3.362   0.138
 2083SOL    HW2 6263   1.856   3.516   0.192
 2084SOL     OW 6264   3.551   2.784   0.612
 2084SOL    HW1 6265   3.646   2.755   0.620
 2084SOL    HW2 6266   3.543   2.849   0.537
 2085SOL     OW 6267   3.503   2.970   0.432
 2085SOL    HW1 6268   3.589   2.972   0.380
 2085SOL    HW2 6269   3.517   3.017   0.520
 2086SOL     OW 6270   1.975   2.599   1.597
 2086SOL    HW1 6271   2.063   2.586   1.642
 2086SOL    HW2 6272   1.962   2.696   1.575
 2087SOL     OW 6273   2.475   3.227   0.726
 2087SOL    HW1 6274   2.426   3.140   0.735
 2087SOL    HW2 6275   2.452   3.270   0.639
 2088SOL     OW 6276   3.155   3.090   1.423
 2088SOL    HW1 6277   3.192   3.017   1.365
 2088SOL    HW2 6278   3.207   3.095   1.508
 2089SOL     OW 6279   2.671   1.866   0.502
 2089SOL    HW1 6280   2.711   1.957   0.493
 2089SOL    HW2 6281   2.571   1.874   0.508
 2090SOL     OW 6282   2.059   2.838   1.264
 2090SOL    HW1 6283   2.148   2.793   1.250
 2090SOL    HW2 6284   1.986   2.773   1.245
 2091SOL     OW 6285   3.387   2.861   0.190
 2091SOL    HW1 6286   3.324   2.785   0.203
 2091SOL    HW2 6287   3.435   2.879   0.276
 2092SOL     OW 6288   3.049   3.654   1.616
 2092SOL    HW1 6289   3.073   3.714   1.540
 2092SOL    HW2 6290   3.056   3.559   1.586
 2093SOL     OW 6291   2.179   2.113   1.801
 2093SOL    HW1 6292   2.250   2.184   1.807
 2093SOL    HW2 6293   2.091   2.152   1.829
 2094SOL     OW 6294   3.328   3.279   0.953
 2094SOL    HW1 6295   3.269   3.285   1.033
 2094SOL    HW2 6296   3.313   3.191   0.907
 2095SOL     OW 6297   3.529   3.576   0.572
 2095SOL    HW1 6298   3.488   3.553   0.484
 2095SOL    HW2 6299   3.511   3.502   0.637
 2096SOL     OW 6300   2.460   2.591   0.270
 2096SOL    HW1 6301   2.484   2.660   0.202
 2096SOL    HW2 6302   2.382   2.624   0.324
 2097SOL     OW 6303   3.143   2.207   0.944
 2097SOL    HW1 6304   3.057   2.157   0.931
 2097SOL    HW2 6305   3.205   2.153   1.000
 2098SOL     OW 6306   3.438   3.524   0.307
 2098SOL    HW1 6307   3.527   3.570   0.310
 2098SOL    HW2 6308   3.417   3.500   0.212
 2099SOL     OW 6309   2.669   2.467   1.465
 2099SOL    HW1 6310   2.622   2.464   1.554
 2099SOL    HW2 6311   2.618   2.412   1.399
 2100SOL     OW 6312   3.256   2.331   1.674
 2100SOL    HW1 6313   3.236   2.374   1.762
 2100SOL    HW2 6314   3.334   2.269   1.683
 2101SOL     OW 6315   2.835   2.752   1.572
 2101SOL    HW1 6316   2.881   2.668   1.543
 2101SOL    HW2 6317   2.779   2.786   1.497
 2102SOL     OW 6318   2.853   2.272   1.242
 2102SOL    HW1 6319   2.776   2.306   1.296
 2102SOL    HW2 6320   2.819   2.221   1.163
 2103SOL     OW 6321   2.903   2.563   0.429
 2103SOL    HW1 6322   2.929   2.559   0.525
 2103SOL    HW2 6323   2.818   2.512   0.415
 2104SOL     OW 6324   1.938   2.673   0.789
 2104SOL    HW1 6325   2.037   2.661   0.798
 2104SOL    HW2 6326   1.914   2.768   0.810
 2105SOL     OW 6327   1.992   3.683   1.571
 2105SOL    HW1 6328   1.982   3.668   1.670
 2105SOL    HW2 6329   1.906   3.719   1.535
 2106SOL     OW 6330   2.727   2.210   0.195
 2106SOL    HW1 6331   2.786   2.273   0.146
 2106SOL    HW2 6332   2.746   2.116   0.166
 2107SOL     OW 6333   3.581   2.447   1.831
 2107SOL    HW1 6334   3.555   2.536   1.795
 2107SOL    HW2 6335   3.579   2.379   1.758
 2108SOL     OW 6336   3.224   3.006   0.545
 2108SOL    HW1 6337   3.307   2.977   0.497
 2108SOL    HW2 6338   3.175   3.073   0.489
 2109SOL     OW 6339   2.412   2.058   0.885
 2109SOL    HW1 6340   2.407   2.053   0.985
 2109SOL    HW2 6341   2.414   2.154   0.856
 2110SOL     OW 6342   2.870   3.318   0.477
 2110SOL    HW1 6343   2.824   3.390   0.425
 2110SOL    HW2 6344   2.866   3.338   0.575
 2111SOL     OW 6345   2.213   3.663   0.853
 2111SOL    HW1 6346   2.263   3.577   0.859
 2111SOL    HW2 6347   2.278   3.740   0.850
 2112SOL     OW 6348   3.657   2.928   0.873
 2112SOL    HW1 6349   3.595   2.913   0.797
 2112SOL    HW2 6350   3.605   2.939   0.958
 2113SOL     OW 6351   3.089   3.412   1.506
 2113SOL    HW1 6352   3.095   3.335   1.570
 2113SOL    HW2 6353   3.037   3.386   1.426
 2114SOL     OW 6354   2.183   2.805   0.242
 2114SOL    HW1 6355   2.265   2.844   0.200
 2114SOL    HW2 6356   2.156   2.723   0.193
 2115SOL     OW 6357   3.320   2.597   0.728
 2115SOL    HW1 6358   3.315   2.532   0.803
 2115SOL    HW2 6359   3.400   2.656   0.741
 2116SOL     OW 6360   2.323   3.128   1.727
 2116SOL    HW1 6361   2.273   3.129   1.641
 2116SOL    HW2 6362   2.260   3.110   1.803
 2117SOL     OW 6363   2.973   3.638   0.237
 2117SOL    HW1 6364   2.913   3.576   0.287
 2117SOL    HW2 6365   3.004   3.594   0.152
 2118SOL     OW 6366   2.064   2.147   1.498
 2118SOL    HW1 6367   1.984   2.207   1.485
 2118SOL    HW2 6368   2.054   2.098   1.584
 2119SOL     OW 6369   3.494   3.239   0.081
 2119SOL    HW1 6370   3.462   3.333   0.071
 2119SOL    HW2 6371   3.418   3.176   0.069
 2120SOL     OW 6372   2.326   3.605   0.323
 2120SOL    HW1 6373   2.359   3.644   0.409
 2120SOL    HW2 6374   2.402   3.598   0.258
 2121SOL     OW 6375   3.262   1.969   0.426
 2121SOL    HW1 6376   3.238   1.932   0.336
 2121SOL    HW2 6377   3.361   1.985   0.430
 2122SOL     OW 6378   2.111   3.647   1.241
 2122SOL    HW1 6379   2.168   3.582   1.291
 2122SOL    HW2 6380   2.095   3.614   1.148
 2123SOL     OW 6381   2.802   3.560   0.904
 2123SOL    HW1 6382   2.882   3.503   0.925
 2123SOL    HW2 6383   2.753   3.520   0.827
 2124SOL     OW 6384   2.244   2.562   0.480
 2124SOL    HW1 6385   2.289   2.472   0.477
 2124SOL    HW2 6386   2.150   2.551   0.513
 2125SOL     OW 6387   3.409   2.084   1.729
 2125SOL    HW1 6388   3.404   2.121   1.821
 2125SOL    HW2 6389   3.337   2.015   1.717
 2126SOL     OW 6390   2.476   1.984   0.117
 2126SOL    HW1 6391   2.574   1.962   0.124
 2126SOL    HW2 6392   2.445   1.967   0.024
 2127SOL     OW 6393   2.643   2.126   1.749
 2127SOL    HW1 6394   2.710   2.065   1.792
 2127SOL    HW2 6395   2.570   2.145   1.814
 2128SOL     OW 6396   2.750   3.376   1.195
 2128SOL    HW1 6397   2.727   3.351   1.101
 2128SOL    HW2 6398   2.811   3.307   1.234
 2129SOL     OW 6399   3.213   2.452   1.433
 2129SOL    HW1 6400   3.241   2.409   1.518
 2129SOL    HW2 6401   3.238   2.548   1.434
 2130SOL     OW 6402   2.665   3.264   0.924
 2130SOL    HW1 6403   2.755   3.278   0.882
 2130SOL    HW2 6404   2.594   3.266   0.853
 2131SOL     OW 6405   2.784   2.365   0.899
 2131SOL    HW1 6406   2.759   2.356   0.803
 2131SOL    HW2 6407   2.832   2.283   0.930
 2132SOL     OW 6408   2.401   1.926   0.512
 2132SOL    HW1 6409   2.320   1.927   0.570
 2132SOL    HW2 6410   2.404   2.009   0.457
 2133SOL     OW 6411   3.296   3.050   0.041
 2133SOL    HW1 6412   3.328   2.974   0.098
 2133SOL    HW2 6413   3.204   3.077   0.071
 2134SOL     OW 6414   2.159   1.897   0.171
 2134SOL    HW1 6415   2.208   1.981   0.150
 2134SOL    HW2 6416   2.221   1.832   0.216
 2135SOL     OW 6417   2.797   2.098   0.480
 2135SOL    HW1 6418   2.749   2.139   0.402
 2135SOL    HW2 6419   2.896   2.096   0.461
 2136SOL     OW 6420   2.938   2.545   1.464
 2136SOL    HW1 6421   2.858   2.484   1.467
 2136SOL    HW2 6422   3.019   2.492   1.440
 2137SOL     OW 6423   3.089   3.432   0.793
 2137SOL    HW1 6424   3.110   3.506   0.728
 2137SOL    HW2 6425   3.157   3.432   0.866
 2138SOL     OW 6426   2.321   3.014   0.741
 2138SOL    HW1 6427   2.250   2.987   0.806
 2138SOL    HW2 6428   2.295   2.986   0.648
 2139SOL     OW 6429   3.133   3.659   0.591
 2139SOL    HW1 6430   3.177   3.723   0.527
 2139SOL    HW2 6431   3.083   3.711   0.661
 2140SOL     OW 6432   2.894   2.411   0.016
 2140SOL    HW1 6433   2.853   2.493  -0.023
 2140SOL    HW2 6434   2.958   2.437   0.089
 2141SOL     OW 6435   1.940   2.418   1.386
 2141SOL    HW1 6436   2.032   2.417   1.345
 2141SOL    HW2 6437   1.934   2.492   1.453
 2142SOL     OW 6438   2.423   2.084   1.147
 2142SOL    HW1 6439   2.461   2.000   1.184
 2142SOL    HW2 6440   2.335   2.103   1.191
 2143SOL     OW 6441   2.728   2.316   0.642
 2143SOL    HW1 6442   2.696   2.388   0.580
 2143SOL    HW2 6443   2.752   2.235   0.589
 2144SOL     OW 6444   2.879   1.901   0.753
 2144SOL    HW1 6445   2.807   1.906   0.684
 2144SOL    HW2 6446   2.855   1.832   0.822
 2145SOL     OW 6447   3.291   3.035   0.867
 2145SOL    HW1 6448   3.236   2.951   0.860
 2145SOL    HW2 6449   3.317   3.064   0.775
 2146SOL     OW 6450   3.328   2.452   0.992
 2146SOL    HW1 6451   3.298   2.357   0.999
 2146SOL    HW2 6452   3.401   2.468   1.058
 2147SOL     OW 6453   3.719   2.695   0.377
 2147SOL    HW1 6454   3.761   2.631   0.441
 2147SOL    HW2 6455   3.681   2.644   0.299
 2148SOL     OW 6456   2.350   3.247   0.174
 2148SOL    HW1 6457   2.263   3.232   0.221
 2148SOL    HW2 6458   2.333   3.273   0.079
 2149SOL     OW 6459   3.526   3.142   0.657
 2149SOL    HW1 6460   3.625   3.150   0.671
 2149SOL    HW2 6461   3.481   3.226   0.688
 2150SOL     OW 6462   3.252   2.437   0.078
 2150SOL    HW1 6463   3.198   2.416   0.159
 2150SOL    HW2 6464   3.343   2.396   0.087
 2151SOL     OW 6465   2.389   2.118   0.328
 2151SOL    HW1 6466   2.416   2.059   0.253
 2151SOL    HW2 6467   2.389   2.213   0.297
 2152SOL     OW 6468   3.616   3.085   1.588
 2152SOL    HW1 6469   3.707   3.046   1.575
 2152SOL    HW2 6470   3.624   3.181   1.612
 2153SOL     OW 6471   2.926   3.209   1.340
 2153SOL    HW1 6472   2.846   3.186   1.395
 2153SOL    HW2 6473   3.009   3.183   1.389
 2154SOL     OW 6474   3.454   3.491   1.625
 2154SOL    HW1 6475   3.481   3.525   1.535
 2154SOL    HW2 6476   3.533   3.453   1.671
 2155SOL     OW 6477   2.973   3.057   1.100
 2155SOL    HW1 6478   2.933   3.101   1.181
 2155SOL    HW2 6479   2.932   3.094   1.017
 2156SOL     OW 6480   3.500   2.961   1.079
 2156SOL    HW1 6481   3.505   3.042   1.138
 2156SOL    HW2 6482   3.414   2.963   1.028
 2157SOL     OW 6483   2.777   1.951   1.402
 2157SOL    HW1 6484   2.802   1.931   1.307
 2157SOL    HW2 6485   2.849   2.007   1.444
 2158SOL     OW 6486   2.842   2.978   1.719
 2158SOL    HW1 6487   2.743   2.984   1.729
 2158SOL    HW2 6488   2.865   2.898   1.663
 2159SOL     OW 6489   2.567   2.912   0.368
 2159SOL    HW1 6490   2.553   2.919   0.467
 2159SOL    HW2 6491   2.651   2.861   0.350
 2160SOL     OW 6492   2.272   2.675   1.251
 2160SOL    HW1 6493   2.358   2.687   1.301
 2160SOL    HW2 6494   2.230   2.588   1.278
 2161SOL     OW 6495   3.136   2.248   1.262
 2161SOL    HW1 6496   3.157   2.322   1.326
 2161SOL    HW2 6497   3.047   2.265   1.219
 2162SOL     OW 6498   1.926   3.426   1.331
 2162SOL    HW1 6499   1.880   3.508   1.297
 2162SOL    HW2 6500   2.024   3.445   1.340
 2163SOL     OW 6501   2.229   2.962   0.501
 2163SOL    HW1 6502   2.222   3.045   0.445
 2163SOL    HW2 6503   2.233   2.882   0.441
 2164SOL     OW 6504   2.428   2.399   0.865
 2164SOL    HW1 6505   2.440   2.465   0.791
 2164SOL    HW2 6506   2.474   2.433   0.948
 2165SOL     OW 6507   3.114   3.210   0.388
 2165SOL    HW1 6508   3.164   3.287   0.428
 2165SOL    HW2 6509   3.019   3.212   0.420
 2166SOL     OW 6510   3.134   3.307   1.142
 2166SOL    HW1 6511   3.181   3.320   1.229
 2166SOL    HW2 6512   3.068   3.233   1.151
 2167SOL     OW 6513   3.444   2.501   0.472
 2167SOL    HW1 6514   3.413   2.562   0.545
 2167SOL    HW2 6515   3.494   2.553   0.403
 2168SOL     OW 6516   2.216   3.372   1.329
 2168SOL    HW1 6517   2.195   3.328   1.242
 2168SOL    HW2 6518   2.313   3.398   1.332
 2169SOL     OW 6519   2.264   2.613   1.598
 2169SOL    HW1 6520   2.332   2.668   1.551
 2169SOL    HW2 6521   2.304   2.525   1.625
 2170SOL     OW 6522   3.449   2.641   1.670
 2170SOL    HW1 6523   3.357   2.679   1.665
 2170SOL    HW2 6524   3.509   2.688   1.605
 2171SOL     OW 6525   2.875   1.967   1.770
 2171SOL    HW1 6526   2.881   2.052   1.718
 2171SOL    HW2 6527   2.907   1.891   1.713
 2172SOL     OW 6528   2.366   1.912   1.740
 2172SOL    HW1 6529   2.324   1.855   1.670
 2172SOL    HW2 6530   2.300   1.981   1.772
 2173SOL     OW 6531   2.435   2.732   1.029
 2173SOL    HW1 6532   2.479   2.821   1.020
 2173SOL    HW2 6533   2.372   2.732   1.106
 2174SOL     OW 6534   3.222   2.724   1.045
 2174SOL    HW1 6535   3.147   2.724   0.979
 2174SOL    HW2 6536   3.259   2.632   1.054
 2175SOL     OW 6537   3.071   2.387   0.275
 2175SOL    HW1 6538   3.084   2.303   0.329
 2175SOL    HW2 6539   3.042   2.461   0.335
 2176SOL     OW 6540   2.169   2.075   1.231
 2176SOL    HW1 6541   2.146   2.112   1.321
 2176SOL    HW2 6542   2.139   1.980   1.225
 2177SOL     OW 6543   1.899   3.172   1.282
 2177SOL    HW1 6544   1.952   3.123   1.350
 2177SOL    HW2 6545   1.921   3.270   1.287
 2178SOL     OW 6546   2.594   2.496   1.064
 2178SOL    HW1 6547   2.653   2.470   0.988
 2178SOL    HW2 6548   2.566   2.592   1.053
 2179SOL     OW 6549   3.590   2.797   1.854
 2179SOL    HW1 6550   3.544   2.790   1.765
 2179SOL    HW2 6551   3.528   2.841   1.920
 2180SOL     OW 6552   2.169   1.925   0.618
 2180SOL    HW1 6553   2.158   2.019   0.651
 2180SOL    HW2 6554   2.164   1.862   0.695
 2181SOL     OW 6555   3.484   2.229   0.374
 2181SOL    HW1 6556   3.486   2.153   0.438
 2181SOL    HW2 6557   3.436   2.306   0.414
 2182SOL     OW 6558   2.885   2.628   0.966
 2182SOL    HW1 6559   2.900   2.649   1.062
 2182SOL    HW2 6560   2.855   2.533   0.957
 2183SOL     OW 6561   2.842   3.435   1.700
 2183SOL    HW1 6562   2.822   3.479   1.612
 2183SOL    HW2 6563   2.881   3.344   1.684
 2184SOL     OW 6564   3.721   3.380   1.605
 2184SOL    HW1 6565   3.735   3.407   1.510
 2184SOL    HW2 6566   3.804   3.402   1.658
 2185SOL     OW 6567   2.212   2.760   1.804
 2185SOL    HW1 6568   2.288   2.804   1.852
 2185SOL    HW2 6569   2.247   2.713   1.722
 2186SOL     OW 6570   3.402   2.136   0.125
 2186SOL    HW1 6571   3.341   2.061   0.148
 2186SOL    HW2 6572   3.424   2.188   0.208
 2187SOL     OW 6573   3.165   2.700   0.042
 2187SOL    HW1 6574   3.199   2.607   0.057
 2187SOL    HW2 6575   3.183   2.727  -0.053
 2188SOL     OW 6576   2.930   3.195   0.849
 2188SOL    HW1 6577   2.937   3.111   0.794
 2188SOL    HW2 6578   2.992   3.264   0.813
 2189SOL     OW 6579   2.181   2.672   0.949
 2189SOL    HW1 6580   2.274   2.708   0.954
 2189SOL    HW2 6581   2.175   2.587   1.001
 2190SOL     OW 6582   2.201   2.371   1.006
 2190SOL    HW1 6583   2.149   2.288   0.989
 2190SOL    HW2 6584   2.278   2.376   0.942
 2191SOL     OW 6585   3.000   2.242   1.678
 2191SOL    HW1 6586   2.955   2.305   1.742
 2191SOL    HW2 6587   3.093   2.273   1.661
 2192SOL     OW 6588   3.022   2.069   1.477
 2192SOL    HW1 6589   3.022   2.133   1.554
 2192SOL    HW2 6590   3.050   2.117   1.394
 2193SOL     OW 6591   1.870   3.188   0.200
 2193SOL    HW1 6592   1.777   3.209   0.169
 2193SOL    HW2 6593   1.880   3.089   0.213
 2194SOL     OW 6594   1.950   3.663   0.927
 2194SOL    HW1 6595   1.908   3.577   0.900
 2194SOL    HW2 6596   2.044   3.666   0.893
 2195SOL     OW 6597   2.366   3.430   0.910
 2195SOL    HW1 6598   2.432   3.504   0.919
 2195SOL    HW2 6599   2.410   3.351   0.868
 2196SOL     OW 6600   2.864   2.658   1.238
 2196SOL    HW1 6601   2.905   2.626   1.324
 2196SOL    HW2 6602   2.768   2.631   1.235
 2197SOL     OW 6603   1.902   2.406   1.114
 2197SOL    HW1 6604   1.987   2.373   1.073
 2197SOL    HW2 6605   1.915   2.421   1.212
 2198SOL     OW 6606   2.051   2.382   1.722
 2198SOL    HW1 6607   2.110   2.342   1.652
 2198SOL    HW2 6608   1.993   2.453   1.681
 2199SOL     OW 6609   3.231   2.812   1.660
 2199SOL    HW1 6610   3.270   2.901   1.680
 2199SOL    HW2 6611   3.241   2.792   1.563
 2200SOL     OW 6612   2.677   2.434   0.325
 2200SOL    HW1 6613   2.684   2.345   0.279
 2200SOL    HW2 6614   2.583   2.468   0.317
 2201SOL     OW 6615   3.519   2.466   1.206
 2201SOL    HW1 6616   3.481   2.397   1.268
 2201SOL    HW2 6617   3.601   2.430   1.162
 2202SOL     OW 6618   2.114   3.426   1.744
 2202SOL    HW1 6619   2.084   3.483   1.820
 2202SOL    HW2 6620   2.107   3.329   1.770
 2203SOL     OW 6621   2.533   2.326   1.269
 2203SOL    HW1 6622   2.499   2.237   1.239
 2203SOL    HW2 6623   2.559   2.380   1.189
 2204SOL     OW 6624   2.792   3.540   1.465
 2204SOL    HW1 6625   2.768   3.522   1.370
 2204SOL    HW2 6626   2.822   3.634   1.475
 2205SOL     OW 6627   2.335   2.362   0.191
 2205SOL    HW1 6628   2.396   2.442   0.195
 2205SOL    HW2 6629   2.240   2.393   0.198
 2206SOL     OW 6630   2.021   2.999   1.466
 2206SOL    HW1 6631   2.043   2.938   1.542
 2206SOL    HW2 6632   2.031   2.950   1.380
 2207SOL     OW 6633   3.209   2.921   1.234
 2207SOL    HW1 6634   3.233   2.858   1.160
 2207SOL    HW2 6635   3.119   2.961   1.216
 2208SOL     OW 6636   3.164   2.717   0.309
 2208SOL    HW1 6637   3.078   2.686   0.351
 2208SOL    HW2 6638   3.160   2.703   0.210
 2209SOL     OW 6639   3.621   3.609   1.154
 2209SOL    HW1 6640   3.682   3.639   1.081
 2209SOL    HW2 6641   3.583   3.520   1.132
 2210SOL     OW 6642   3.114   3.593   1.128
 2210SOL    HW1 6643   3.198   3.598   1.074
 2210SOL    HW2 6644   3.091   3.497   1.146
 2211SOL     OW 6645   1.945   3.120   1.022
 2211SOL    HW1 6646   1.940   3.119   1.122
 2211SOL    HW2 6647   1.862   3.079   0.984
 2212SOL     OW 6648   2.550   3.524   1.716
 2212SOL    HW1 6649   2.494   3.605   1.725
 2212SOL    HW2 6650   2.602   3.528   1.630
 2213SOL     OW 6651   2.765   1.948   0.133
 2213SOL    HW1 6652   2.816   1.949   0.047
 2213SOL    HW2 6653   2.821   1.906   0.204
 2214SOL     OW 6654   3.588   1.997   0.523
 2214SOL    HW1 6655   3.661   1.980   0.456
 2214SOL    HW2 6656   3.557   1.910   0.561
 2215SOL     OW 6657   3.250   3.435   0.477
 2215SOL    HW1 6658   3.317   3.447   0.403
 2215SOL    HW2 6659   3.210   3.524   0.500
 2216SOL     OW 6660   1.992   3.656   1.851
 2216SOL    HW1 6661   1.951   3.582   1.904
 2216SOL    HW2 6662   2.056   3.707   1.909
 2217SOL     OW 6663   3.142   2.789   0.672
 2217SOL    HW1 6664   3.202   2.708   0.674
 2217SOL    HW2 6665   3.182   2.858   0.612
 2218SOL     OW 6666   2.692   3.135   1.422
 2218SOL    HW1 6667   2.687   3.168   1.517
 2218SOL    HW2 6668   2.606   3.154   1.376
 2219SOL     OW 6669   2.534   3.478   0.154
 2219SOL    HW1 6670   2.543   3.488   0.055
 2219SOL    HW2 6671   2.494   3.389   0.175
 2220SOL     OW 6672   3.512   3.582   1.394
 2220SOL    HW1 6673   3.565   3.592   1.310
 2220SOL    HW2 6674   3.485   3.672   1.428
 2221SOL     OW 6675   3.703   2.037   0.963
 2221SOL    HW1 6676   3.742   1.952   0.927
 2221SOL    HW2 6677   3.605   2.039   0.944
 2222SOL     OW 6678   2.125   2.188   0.720
 2222SOL    HW1 6679   2.046   2.239   0.686
 2222SOL    HW2 6680   2.116   2.173   0.818
 2223SOL     OW 6681   3.056   3.474   0.031
 2223SOL    HW1 6682   3.062   3.381   0.068
 2223SOL    HW2 6683   2.997   3.474  -0.049
 2224SOL     OW 6684   2.684   2.864   1.372
 2224SOL    HW1 6685   2.724   2.863   1.280
 2224SOL    HW2 6686   2.694   2.956   1.412
 2225SOL     OW 6687   2.778   2.772   0.291
 2225SOL    HW1 6688   2.841   2.810   0.223
 2225SOL    HW2 6689   2.818   2.689   0.330
 2226SOL     OW 6690   3.366   3.469   0.044
 2226SOL    HW1 6691   3.274   3.506   0.051
 2226SOL    HW2 6692   3.404   3.489  -0.046
 2227SOL     OW 6693   2.234   3.150   1.490
 2227SOL    HW1 6694   2.221   3.243   1.456
 2227SOL    HW2 6695   2.150   3.098   1.477
 2228SOL     OW 6696   3.476   3.154   1.289
 2228SOL    HW1 6697   3.536   3.157   1.369
 2228SOL    HW2 6698   3.401   3.218   1.302
 2229SOL     OW 6699   2.901   2.960   0.696
 2229SOL    HW1 6700   2.831   2.913   0.750
 2229SOL    HW2 6701   2.960   2.892   0.653
 2230SOL     OW 6702   2.876   2.098   0.971
 2230SOL    HW1 6703   2.868   2.062   0.878
 2230SOL    HW2 6704   2.874   2.022   1.036
 2231SOL     OW 6705   2.452   3.349   0.491
 2231SOL    HW1 6706   2.494   3.291   0.421
 2231SOL    HW2 6707   2.408   3.428   0.447
 2232SOL     OW 6708   3.571   2.247   1.381
 2232SOL    HW1 6709   3.644   2.316   1.385
 2232SOL    HW2 6710   3.599   2.172   1.322
 2233SOL     OW 6711   2.117   3.210   0.290
 2233SOL    HW1 6712   2.021   3.211   0.263
 2233SOL    HW2 6713   2.129   3.263   0.374
 2234SOL     OW 6714   1.967   2.875   1.726
 2234SOL    HW1 6715   1.890   2.842   1.780
 2234SOL    HW2 6716   2.052   2.845   1.768
 2235SOL     OW 6717   2.534   2.065   1.489
 2235SOL    HW1 6718   2.624   2.049   1.449
 2235SOL    HW2 6719   2.542   2.070   1.588
 2236SOL     OW 6720   3.302   2.718   1.398
 2236SOL    HW1 6721   3.245   2.770   1.335
 2236SOL    HW2 6722   3.398   2.730   1.374
 2237SOL     OW 6723   1.934   2.028   0.318
 2237SOL    HW1 6724   1.917   2.111   0.264
 2237SOL    HW2 6725   2.024   1.991   0.296
 2238SOL     OW 6726   3.045   3.197   0.119
 2238SOL    HW1 6727   2.946   3.186   0.121
 2238SOL    HW2 6728   3.079   3.212   0.212
 2239SOL     OW 6729   2.475   2.704   1.431
 2239SOL    HW1 6730   2.531   2.785   1.414
 2239SOL    HW2 6731   2.534   2.624   1.434
 2240SOL     OW 6732   3.355   3.629   0.959
 2240SOL    HW1 6733   3.388   3.693   0.890
 2240SOL    HW2 6734   3.421   3.623   1.034
 2241SOL     OW 6735   2.578   2.427   1.708
 2241SOL    HW1 6736   2.597   2.492   1.782
 2241SOL    HW2 6737   2.638   2.347   1.717
 2242SOL     OW 6738   3.312   3.082   1.633
 2242SOL    HW1 6739   3.303   3.072   1.732
 2242SOL    HW2 6740   3.408   3.075   1.607
 2243SOL     OW 6741   2.252   3.603   1.560
 2243SOL    HW1 6742   2.161   3.644   1.558
 2243SOL    HW2 6743   2.245   3.509   1.592
 2244SOL     OW 6744   3.536   2.745   1.254
 2244SOL    HW1 6745   3.509   2.656   1.217
 2244SOL    HW2 6746   3.537   2.813   1.181
 2245SOL     OW 6747   3.087   2.187   0.449
 2245SOL    HW1 6748   3.152   2.113   0.438
 2245SOL    HW2 6749   3.107   2.237   0.533
 2246SOL     OW 6750   2.456   2.607   0.652
 2246SOL    HW1 6751   2.506   2.692   0.633
 2246SOL    HW2 6752   2.368   2.609   0.604
 2247SOL     OW 6753   3.639   2.204   1.642
 2247SOL    HW1 6754   3.622   2.235   1.548
 2247SOL    HW2 6755   3.555   2.167   1.680
 2248SOL     OW 6756   3.592   2.796   1.517
 2248SOL    HW1 6757   3.630   2.887   1.532
 2248SOL    HW2 6758   3.584   2.779   1.418
 2249SOL     OW 6759   2.721   3.236   0.016
 2249SOL    HW1 6760   2.675   3.251   0.104
 2249SOL    HW2 6761   2.765   3.321  -0.014
 2250SOL     OW 6762   2.523   3.652   0.953
 2250SOL    HW1 6763   2.477   3.740   0.940
 2250SOL    HW2 6764   2.622   3.664   0.946
 2251SOL     OW 6765   2.721   2.818   0.861
 2251SOL    HW1 6766   2.775   2.749   0.909
 2251SOL    HW2 6767   2.689   2.887   0.927
 2252SOL     OW 6768   2.945   2.846   0.087
 2252SOL    HW1 6769   2.922   2.899   0.005
 2252SOL    HW2 6770   3.026   2.790   0.068
 2253SOL     OW 6771   3.723   3.431   0.851
 2253SOL    HW1 6772   3.652   3.419   0.781
 2253SOL    HW2 6773   3.724   3.352   0.911
 2254SOL     OW 6774   2.083   3.176   1.844
 2254SOL    HW1 6775   2.018   3.103   1.823
 2254SOL    HW2 6776   2.087   3.190   1.942
 2255SOL     OW 6777   1.941   3.102   0.653
 2255SOL    HW1 6778   1.940   3.055   0.741
 2255SOL    HW2 6779   2.023   3.074   0.602
 2256SOL     OW 6780   2.534   3.253   1.624
 2256SOL    HW1 6781   2.456   3.203   1.662
 2256SOL    HW2 6782   2.531   3.348   1.655
 2257SOL     OW 6783   3.686   2.054   1.227
 2257SOL    HW1 6784   3.682   1.964   1.271
 2257SOL    HW2 6785   3.689   2.043   1.128
 2258SOL     OW 6786   2.290   2.286   0.520
 2258SOL    HW1 6787   2.320   2.214   0.458
 2258SOL    HW2 6788   2.251   2.246   0.603
 2259SOL     OW 6789   3.567   3.349   1.104
 2259SOL    HW1 6790   3.474   3.324   1.077
 2259SOL    HW2 6791   3.593   3.299   1.186
 2260SOL     OW 6792   2.179   2.409   1.280
 2260SOL    HW1 6793   2.217   2.350   1.352
 2260SOL    HW2 6794   2.219   2.383   1.192
 2261SOL     OW 6795   2.674   3.448   0.687
 2261SOL    HW1 6796   2.706   3.458   0.593
 2261SOL    HW2 6797   2.595   3.386   0.689
 2262SOL     OW 6798   3.286   2.076   1.112
 2262SOL    HW1 6799   3.338   2.011   1.167
 2262SOL    HW2 6800   3.237   2.139   1.173
 2263SOL     OW 6801   2.863   1.896   1.154
 2263SOL    HW1 6802   2.800   1.824   1.123
 2263SOL    HW2 6803   2.956   1.860   1.154
 2264SOL     OW 6804   2.632   3.192   0.301
 2264SOL    HW1 6805   2.586   3.105   0.318
 2264SOL    HW2 6806   2.723   3.189   0.342
 2265SOL     OW 6807   2.480   3.429   1.284
 2265SOL    HW1 6808   2.475   3.511   1.341
 2265SOL    HW2 6809   2.569   3.426   1.239
 2266SOL     OW 6810   3.214   1.914   0.168
 2266SOL    HW1 6811   3.249   1.873   0.084
 2266SOL    HW2 6812   3.124   1.876   0.188
 2267SOL     OW 6813   3.162   2.315   0.691
 2267SOL    HW1 6814   3.103   2.395   0.695
 2267SOL    HW2 6815   3.177   2.280   0.784
 2268SOL     OW 6816   3.455   2.083   0.882
 2268SOL    HW1 6817   3.371   2.082   0.936
 2268SOL    HW2 6818   3.457   2.166   0.826
 2269SOL     OW 6819   1.901   2.939   0.300
 2269SOL    HW1 6820   2.000   2.928   0.291
 2269SOL    HW2 6821   1.861   2.853   0.332
 2270SOL     OW 6822   2.737   3.508   0.337
 2270SOL    HW1 6823   2.660   3.473   0.283
 2270SOL    HW2 6824   2.705   3.579   0.399
 2271SOL     OW 6825   2.092   2.490   1.975
 2271SOL    HW1 6826   1.999   2.488   2.012
 2271SOL    HW2 6827   2.093   2.451   1.883
 2272SOL     OW 6828   2.087   2.137   2.858
 2272SOL    HW1 6829   2.122   2.120   2.950
 2272SOL    HW2 6830   1.999   2.092   2.846
 2273SOL     OW 6831   1.881   2.230   2.509
 2273SOL    HW1 6832   1.799   2.273   2.548
 2273SOL    HW2 6833   1.853   2.157   2.446
 2274SOL     OW 6834   2.431   3.137   3.027
 2274SOL    HW1 6835   2.338   3.130   2.990
 2274SOL    HW2 6836   2.442   3.226   3.071
 2275SOL     OW 6837   3.417   3.373   2.565
 2275SOL    HW1 6838   3.360   3.357   2.646
 2275SOL    HW2 6839   3.358   3.383   2.485
 2276SOL     OW 6840   2.997   2.565   2.579
 2276SOL    HW1 6841   3.054   2.643   2.554
 2276SOL    HW2 6842   2.937   2.591   2.655
 2277SOL     OW 6843   3.617   2.469   2.093
 2277SOL    HW1 6844   3.605   2.456   1.994
 2277SOL    HW2 6845   3.587   2.388   2.142
 2278SOL     OW 6846   2.630   3.006   2.885
 2278SOL    HW1 6847   2.552   3.023   2.945
 2278SOL    HW2 6848   2.664   3.093   2.849
 2279SOL     OW 6849   2.712   2.660   3.685
 2279SOL    HW1 6850   2.708   2.736   3.750
 2279SOL    HW2 6851   2.734   2.696   3.594
 2280SOL     OW 6852   2.547   2.874   2.527
 2280SOL    HW1 6853   2.616   2.858   2.597
 2280SOL    HW2 6854   2.474   2.931   2.565
 2281SOL     OW 6855   2.548   3.023   3.665
 2281SOL    HW1 6856   2.608   3.102   3.679
 2281SOL    HW2 6857   2.462   3.054   3.624
 2282SOL     OW 6858   2.197   3.297   2.923
 2282SOL    HW1 6859   2.119   3.266   2.870
 2282SOL    HW2 6860   2.255   3.355   2.866
 2283SOL     OW 6861   3.322   3.367   3.201
 2283SOL    HW1 6862   3.346   3.461   3.227
 2283SOL    HW2 6863   3.306   3.313   3.283
 2284SOL     OW 6864   2.300   2.254   3.361
 2284SOL    HW1 6865   2.382   2.198   3.370
 2284SOL    HW2 6866   2.219   2.196   3.365
 2285SOL     OW 6867   3.465   2.309   2.599
 2285SOL    HW1 6868   3.391   2.355   2.549
 2285SOL    HW2 6869   3.516   2.377   2.652
 2286SOL     OW 6870   2.093   3.575   2.345
 2286SOL    HW1 6871   2.127   3.652   2.399
 2286SOL    HW2 6872   2.137   3.575   2.255
 2287SOL     OW 6873   2.989   3.203   3.552
 2287SOL    HW1 6874   3.036   3.203   3.640
 2287SOL    HW2 6875   2.941   3.116   3.541
 2288SOL     OW 6876   2.092   3.296   2.400
 2288SOL    HW1 6877   2.066   3.392   2.400
 2288SOL    HW2 6878   2.021   3.242   2.445
 2289SOL     OW 6879   2.102   2.953   2.748
 2289SOL    HW1 6880   2.116   2.869   2.800
 2289SOL    HW2 6881   2.047   3.017   2.803
 2290SOL     OW 6882   2.482   3.648   3.301
 2290SOL    HW1 6883   2.390   3.631   3.336
 2290SOL    HW2 6884   2.510   3.740   3.327
 2291SOL     OW 6885   2.468   2.826   1.985
 2291SOL    HW1 6886   2.475   2.910   1.931
 2291SOL    HW2 6887   2.514   2.839   2.073
 2292SOL     OW 6888   3.456   1.976   3.342
 2292SOL    HW1 6889   3.438   2.043   3.270
 2292SOL    HW2 6890   3.453   2.022   3.431
 2293SOL     OW 6891   1.984   2.505   2.425
 2293SOL    HW1 6892   1.939   2.417   2.442
 2293SOL    HW2 6893   1.983   2.559   2.509
 2294SOL     OW 6894   3.704   3.629   2.221
 2294SOL    HW1 6895   3.758   3.600   2.301
 2294SOL    HW2 6896   3.734   3.719   2.192
 2295SOL     OW 6897   1.889   3.458   1.979
 2295SOL    HW1 6898   1.870   3.362   2.000
 2295SOL    HW2 6899   1.856   3.516   2.054
 2296SOL     OW 6900   3.551   2.784   2.474
 2296SOL    HW1 6901   3.646   2.755   2.482
 2296SOL    HW2 6902   3.543   2.849   2.399
 2297SOL     OW 6903   3.503   2.970   2.294
 2297SOL    HW1 6904   3.589   2.972   2.242
 2297SOL    HW2 6905   3.517   3.017   2.382
 2298SOL     OW 6906   1.975   2.599   3.459
 2298SOL    HW1 6907   2.063   2.586   3.504
 2298SOL    HW2 6908   1.962   2.696   3.437
 2299SOL     OW 6909   2.475   3.227   2.588
 2299SOL    HW1 6910   2.426   3.140   2.597
 2299SOL    HW2 6911   2.452   3.270   2.501
 2300SOL     OW 6912   3.155   3.090   3.285
 2300SOL    HW1 6913   3.192   3.017   3.227
 2300SOL    HW2 6914   3.207   3.095   3.370
 2301SOL     OW 6915   2.671   1.866   2.364
 2301SOL    HW1 6916   2.711   1.957   2.355
 2301SOL    HW2 6917   2.571   1.874   2.370
 2302SOL     OW 6918   2.059   2.838   3.126
 2302SOL    HW1 6919   2.148   2.793   3.112
 2302SOL    HW2 6920   1.986   2.773   3.107
 2303SOL     OW 6921   3.387   2.861   2.052
 2303SOL    HW1 6922   3.324   2.785   2.065
 2303SOL    HW2 6923   3.435   2.879   2.138
 2304SOL     OW 6924   3.049   3.654   3.478
 2304SOL    HW1 6925   3.073   3.714   3.402
 2304SOL    HW2 6926   3.056   3.559   3.448
 2305SOL     OW 6927   2.179   2.113   3.663
 2305SOL    HW1 6928   2.250   2.184   3.669
 2305SOL    HW2 6929   2.091   2.152   3.691
 2306SOL     OW 6930   3.328   3.279   2.815
 2306SOL    HW1 6931   3.269   3.285   2.895
 2306SOL    HW2 6932   3.313   3.191   2.769
 2307SOL     OW 6933   3.529   3.576   2.434
 2307SOL    HW1 6934   3.488   3.553   2.346
 2307SOL    HW2 6935   3.511   3.502   2.499
 2308SOL     OW 6936   3.143   2.207   2.806
 2308SOL    HW1 6937   3.057   2.157   2.793
 2308SOL    HW2 6938   3.205   2.153   2.862
 2309SOL     OW 6939   3.438   3.524   2.169
 2309SOL    HW1 6940   3.527   3.570   2.172
 2309SOL    HW2 6941   3.417   3.500   2.074
 2310SOL     OW 6942   2.669   2.467   3.327
 2310SOL    HW1 6943   2.622   2.464   3.416
 2310SOL    HW2 6944   2.618   2.412   3.261
 2311SOL     OW 6945   3.256   2.331   3.536
 2311SOL    HW1 6946   3.236   2.374   3.624
 2311SOL    HW2 6947   3.334   2.269   3.545
 2312SOL     OW 6948   2.835   2.752   3.434
 2312SOL    HW1 6949   2.881   2.668   3.405
 2312SOL    HW2 6950   2.779   2.786   3.359
 2313SOL     OW 6951   2.853   2.272   3.104
 2313SOL    HW1 6952   2.776   2.306   3.158
 2313SOL    HW2 6953   2.819   2.221   3.025
 2314SOL     OW 6954   2.903   2.563   2.291
 2314SOL    HW1 6955   2.929   2.559   2.387
 2314SOL    HW2 6956   2.818   2.512   2.277
 2315SOL     OW 6957   1.938   2.673   2.651
 2315SOL    HW1 6958   2.037   2.661   2.660
 2315SOL    HW2 6959   1.914   2.768   2.672
 2316SOL     OW 6960   1.992   3.683   3.433
 2316SOL    HW1 6961   1.982   3.668   3.532
 2316SOL    HW2 6962   1.906   3.719   3.397
 2317SOL     OW 6963   2.727   2.210   2.057
 2317SOL    HW1 6964   2.786   2.273   2.008
 2317SOL    HW2 6965   2.746   2.116   2.028
 2318SOL     OW 6966   3.581   2.447   3.693
 2318SOL    HW1 6967   3.555   2.536   3.657
 2318SOL    HW2 6968   3.579   2.379   3.620
 2319SOL     OW 6969   3.224   3.006   2.407
 2319SOL    HW1 6970   3.307   2.977   2.359
 2319SOL    HW2 6971   3.175   3.073   2.351
 2320SOL     OW 6972   2.412   2.058   2.747
 2320SOL    HW1 6973   2.407   2.053   2.847
 2320SOL    HW2 6974   2.414   2.154   2.718
 2321SOL     OW 6975   2.870   3.318   2.339
 2321SOL    HW1 6976   2.824   3.390   2.287
 2321SOL    HW2 6977   2.866   3.338   2.437
 2322SOL     OW 6978   2.213   3.663   2.715
 2322SOL    HW1 6979   2.263   3.577   2.721
 2322SOL    HW2 6980   2.278   3.740   2.712
 2323SOL     OW 6981   3.657   2.928   2.735
 2323SOL    HW1 6982   3.595   2.913   2.659
 2323SOL    HW2 6983   3.605   2.939   2.820
 2324SOL     OW 6984   3.089   3.412   3.368
 2324SOL    HW1 6985   3.095   3.335   3.432
 2324SOL    HW2 6986   3.037   3.386   3.288
 2325SOL     OW 6987   2.183   2.805   2.104
 2325SOL    HW1 6988   2.265   2.844   2.062
 2325SOL    HW2 6989   2.156   2.723   2.055
 2326SOL     OW 6990   3.320   2.597   2.590
 2326SOL    HW1 6991   3.315   2.532   2.665
 2326SOL    HW2 6992   3.400   2.656   2.603
 2327SOL     OW 6993   2.323   3.128   3.589
 2327SOL    HW1 6994   2.273   3.129   3.503
 2327SOL    HW2 6995   2.260   3.110   3.665
 2328SOL     OW 6996   2.973   3.638   2.099
 2328SOL    HW1 6997   2.913   3.576   2.149
 2328SOL    HW2 6998   3.004   3.594   2.014
 2329SOL     OW 6999   2.064   2.147   3.360
 2329SOL    HW1 7000   1.984   2.207   3.347
 2329SOL    HW2 7001   2.054   2.098   3.446
 2330SOL     OW 7002   3.494   3.239   1.943
 2330SOL    HW1 7003   3.462   3.333   1.933
 2330SOL    HW2 7004   3.418   3.176   1.931
 2331SOL     OW 7005   2.326   3.605   2.185
 2331SOL    HW1 7006   2.359   3.644   2.271
 2331SOL    HW2 7007   2.402   3.598   2.120
 2332SOL     OW 7008   3.262   1.969   2.288
 2332SOL    HW1 7009   3.238   1.932   2.198
 2332SOL    HW2 7010   3.361   1.985   2.292
 2333SOL     OW 7011   2.111   3.647   3.103
 2333SOL    HW1 7012   2.168   3.582   3.153
 2333SOL    HW2 7013   2.095   3.614   3.010
 2334SOL     OW 7014   2.802   3.560   2.766
 2334SOL    HW1 7015   2.882   3.503   2.787
 2334SOL    HW2 7016   2.753   3.520   2.689
 2335SOL     OW 7017   3.409   2.084   3.591
 2335SOL    HW1 7018   3.404   2.121   3.683
 2335SOL    HW2 7019   3.337   2.015   3.579
 2336SOL     OW 7020   2.476   1.984   1.979
 2336SOL    HW1 7021   2.574   1.962   1.986
 2336SOL    HW2 7022   2.445   1.967   1.886
 2337SOL     OW 7023   2.643   2.126   3.611
 2337SOL    HW1 7024   2.710   2.065   3.654
 2337SOL    HW2 7025   2.570   2.145   3.676
 2338SOL     OW 7026   2.750   3.376   3.057
 2338SOL    HW1 7027   2.727   3.351   2.963
 2338SOL    HW2 7028   2.811   3.307   3.096
 2339SOL     OW 7029   3.213   2.452   3.295
 2339SOL    HW1 7030   3.241   2.409   3.380
 2339SOL    HW2 7031   3.238   2.548   3.296
 2340SOL     OW 7032   2.665   3.264   2.786
 2340SOL    HW1 7033   2.755   3.278   2.744
 2340SOL    HW2 7034   2.594   3.266   2.715
 2341SOL     OW 7035   2.784   2.365   2.761
 2341SOL    HW1 7036   2.759   2.356   2.665
 2341SOL    HW2 7037   2.832   2.283   2.792
 2342SOL     OW 7038   2.401   1.926   2.374
 2342SOL    HW1 7039   2.320   1.927   2.432
 2342SOL    HW2 7040   2.404   2.009   2.319
 2343SOL     OW 7041   3.296   3.050   1.903
 2343SOL    HW1 7042   3.328   2.974   1.960
 2343SOL    HW2 7043   3.204   3.077   1.933
 2344SOL     OW 7044   2.159   1.897   2.033
 2344SOL    HW1 7045   2.208   1.981   2.012
 2344SOL    HW2 7046   2.221   1.832   2.078
 2345SOL     OW 7047   2.797   2.098   2.342
 2345SOL    HW1 7048   2.749   2.139   2.264
 2345SOL    HW2 7049   2.896   2.096   2.323
 2346SOL     OW 7050   2.938   2.545   3.326
 2346SOL    HW1 7051   2.858   2.484   3.329
 2346SOL    HW2 7052   3.019   2.492   3.302
 2347SOL     OW 7053   3.089   3.432   2.655
 2347SOL    HW1 7054   3.110   3.506   2.590
 2347SOL    HW2 7055   3.157   3.432   2.728
 2348SOL     OW 7056   2.321   3.014   2.603
 2348SOL    HW1 7057   2.250   2.987   2.668
 2348SOL    HW2 7058   2.295   2.986   2.510
 2349SOL     OW 7059   3.133   3.659   2.453
 2349SOL    HW1 7060   3.177   3.723   2.389
 2349SOL    HW2 7061   3.083   3.711   2.523
 2350SOL     OW 7062   2.894   2.411   1.878
 2350SOL    HW1 7063   2.853   2.493   1.839
 2350SOL    HW2 7064   2.958   2.437   1.951
 2351SOL     OW 7065   1.940   2.418   3.248
 2351SOL    HW1 7066   2.032   2.417   3.207
 2351SOL    HW2 7067   1.934   2.492   3.315
 2352SOL     OW 7068   2.423   2.084   3.009
 2352SOL    HW1 7069   2.461   2.000   3.046
 2352SOL    HW2 7070   2.335   2.103   3.053
 2353SOL     OW 7071   2.879   1.901   2.615
 2353SOL    HW1 7072   2.807   1.906   2.546
 2353SOL    HW2 7073   2.855   1.832   2.684
 2354SOL     OW 7074   3.291   3.035   2.729
 2354SOL    HW1 7075   3.236   2.951   2.722
 2354SOL    HW2 7076   3.317   3.064   2.637
 2355SOL     OW 7077   3.328   2.452   2.854
 2355SOL    HW1 7078   3.298   2.357   2.861
 2355SOL    HW2 7079   3.401   2.468   2.920
 2356SOL     OW 7080   3.719   2.695   2.239
 2356SOL    HW1 7081   3.761   2.631   2.303
 2356SOL    HW2 7082   3.681   2.644   2.161
 2357SOL     OW 7083   2.350   3.247   2.036
 2357SOL    HW1 7084   2.263   3.232   2.083
 2357SOL    HW2 7085   2.333   3.273   1.941
 2358SOL     OW 7086   3.526   3.142   2.519
 2358SOL    HW1 7087   3.625   3.150   2.533
 2358SOL    HW2 7088   3.481   3.226   2.550
 2359SOL     OW 7089   3.252   2.437   1.940
 2359SOL    HW1 7090   3.198   2.416   2.021
 2359SOL    HW2 7091   3.343   2.396   1.949
 2360SOL     OW 7092   2.389   2.118   2.190
 2360SOL    HW1 7093   2.416   2.059   2.115
 2360SOL    HW2 7094   2.389   2.213   2.159
 2361SOL     OW 7095   3.616   3.085   3.450
 2361SOL    HW1 7096   3.707   3.046   3.437
 2361SOL    HW2 7097   3.624   3.181   3.474
 2362SOL     OW 7098   2.926   3.209   3.202
 2362SOL    HW1 7099   2.846   3.186   3.257
 2362SOL    HW2 7100   3.009   3.183   3.251
 2363SOL     OW 7101   3.454   3.491   3.487
 2363SOL    HW1 7102   3.481   3.525   3.397
 2363SOL    HW2 7103   3.533   3.453   3.533
 2364SOL     OW 7104   2.973   3.057   2.962
 2364SOL    HW1 7105   2.933   3.101   3.043
 2364SOL    HW2 7106   2.932   3.094   2.879
 2365SOL     OW 7107   3.500   2.961   2.941
 2365SOL    HW1 7108   3.505   3.042   3.000
 2365SOL    HW2 7109   3.414   2.963   2.890
 2366SOL     OW 7110   2.777   1.951   3.264
 2366SOL    HW1 7111   2.802   1.931   3.169
 2366SOL    HW2 7112   2.849   2.007   3.306
 2367SOL     OW 7113   2.842   2.978   3.581
 2367SOL    HW1 7114   2.743   2.984   3.591
 2367SOL    HW2 7115   2.865   2.898   3.525
 2368SOL     OW 7116   2.567   2.912   2.230
 2368SOL    HW1 7117   2.553   2.919   2.329
 2368SOL    HW2 7118   2.651   2.861   2.212
 2369SOL     OW 7119   2.272   2.675   3.113
 2369SOL    HW1 7120   2.358   2.687   3.163
 2369SOL    HW2 7121   2.230   2.588   3.140
 2370SOL     OW 7122   3.136   2.248   3.124
 2370SOL    HW1 7123   3.157   2.322   3.188
 2370SOL    HW2 7124   3.047   2.265   3.081
 2371SOL     OW 7125   1.926   3.426   3.193
 2371SOL    HW1 7126   1.880   3.508   3.159
 2371SOL    HW2 7127   2.024   3.445   3.202
 2372SOL     OW 7128   3.114   3.210   2.250
 2372SOL    HW1 7129   3.164   3.287   2.290
 2372SOL    HW2 7130   3.019   3.212   2.282
 2373SOL     OW 7131   3.134   3.307   3.004
 2373SOL    HW1 7132   3.181   3.320   3.091
 2373SOL    HW2 7133   3.068   3.233   3.013
 2374SOL     OW 7134   3.444   2.501   2.334
 2374SOL    HW1 7135   3.413   2.562   2.407
 2374SOL    HW2 7136   3.494   2.553   2.265
 2375SOL     OW 7137   2.216   3.372   3.191
 2375SOL    HW1 7138   2.195   3.328   3.104
 2375SOL    HW2 7139   2.313   3.398   3.194
 2376SOL     OW 7140   2.264   2.613   3.460
 2376SOL    HW1 7141   2.332   2.668   3.413
 2376SOL    HW2 7142   2.304   2.525   3.487
 2377SOL     OW 7143   3.449   2.641   3.532
 2377SOL    HW1 7144   3.357   2.679   3.527
 2377SOL    HW2 7145   3.509   2.688   3.467
 2378SOL     OW 7146   2.875   1.967   3.632
 2378SOL    HW1 7147   2.881   2.052   3.580
 2378SOL    HW2 7148   2.907   1.891   3.575
 2379SOL     OW 7149   2.366   1.912   3.602
 2379SOL    HW1 7150   2.324   1.855   3.532
 2379SOL    HW2 7151   2.300   1.981   3.634
 2380SOL     OW 7152   2.435   2.732   2.891
 2380SOL    HW1 7153   2.479   2.821   2.882
 2380SOL    HW2 7154   2.372   2.732   2.968
 2381SOL     OW 7155   3.222   2.724   2.907
 2381SOL    HW1 7156   3.147   2.724   2.841
 2381SOL    HW2 7157   3.259   2.632   2.916
 2382SOL     OW 7158   3.071   2.387   2.137
 2382SOL    HW1 7159   3.084   2.303   2.191
 2382SOL    HW2 7160   3.042   2.461   2.197
 2383SOL     OW 7161   2.169   2.075   3.093
 2383SOL    HW1 7162   2.146   2.112   3.183
 2383SOL    HW2 7163   2.139   1.980   3.087
 2384SOL     OW 7164   1.899   3.172   3.144
 2384SOL    HW1 7165   1.952   3.123   3.212
 2384SOL    HW2 7166   1.921   3.270   3.149
 2385SOL     OW 7167   2.594   2.496   2.926
 2385SOL    HW1 7168   2.653   2.470   2.850
 2385SOL    HW2 7169   2.566   2.592   2.915
 2386SOL     OW 7170   3.590   2.797   3.716
 2386SOL    HW1 7171   3.544   2.790   3.627
 2386SOL    HW2 7172   3.528   2.841   3.782
 2387SOL     OW 7173   2.169   1.925   2.480
 2387SOL    HW1 7174   2.158   2.019   2.513
 2387SOL    HW2 7175   2.164   1.862   2.557
 2388SOL     OW 7176   3.484   2.229   2.236
 2388SOL    HW1 7177   3.486   2.153   2.300
 2388SOL    HW2 7178   3.436   2.306   2.276
 2389SOL     OW 7179   2.885   2.628   2.828
 2389SOL    HW1 7180   2.900   2.649   2.924
 2389SOL    HW2 7181   2.855   2.533   2.819
 2390SOL     OW 7182   2.842   3.435   3.562
 2390SOL    HW1 7183   2.822   3.479   3.474
 2390SOL    HW2 7184   2.881   3.344   3.546
 2391SOL     OW 7185   3.721   3.380   3.467
 2391SOL    HW1 7186   3.735   3.407   3.372
 2391SOL    HW2 7187   3.804   3.402   3.520
 2392SOL     OW 7188   2.212   2.760   3.666
 2392SOL    HW1 7189   2.288   2.804   3.714
 2392SOL    HW2 7190   2.247   2.713   3.584
 2393SOL     OW 7191   3.402   2.136   1.987
 2393SOL    HW1 7192   3.341   2.061   2.010
 2393SOL    HW2 7193   3.424   2.188   2.070
 2394SOL     OW 7194   3.165   2.700   1.904
 2394SOL    HW1 7195   3.199   2.607   1.919
 2394SOL    HW2 7196   3.183   2.727   1.809
 2395SOL     OW 7197   2.930   3.195   2.711
 2395SOL    HW1 7198   2.937   3.111   2.656
 2395SOL    HW2 7199   2.992   3.264   2.675
 2396SOL     OW 7200   2.181   2.672   2.811
 2396SOL    HW1 7201   2.274   2.708   2.816
 2396SOL    HW2 7202   2.175   2.587   2.863
 2397SOL     OW 7203   2.201   2.371   2.868
 2397SOL    HW1 7204   2.149   2.288   2.851
 2397SOL    HW2 7205   2.278   2.376   2.804
 2398SOL     OW 7206   3.000   2.242   3.540
 2398SOL    HW1 7207   2.955   2.305   3.604
 2398SOL    HW2 7208   3.093   2.273   3.523
 2399SOL     OW 7209   3.022   2.069   3.339
 2399SOL    HW1 7210   3.022   2.133   3.416
 2399SOL    HW2 7211   3.050   2.117   3.256
 2400SOL     OW 7212   1.870   3.188   2.062
 2400SOL    HW1 7213   1.777   3.209   2.031
 2400SOL    HW2 7214   1.880   3.089   2.075
 2401SOL     OW 7215   1.950   3.663   2.789
 2401SOL    HW1 7216   1.908   3.577   2.762
 2401SOL    HW2 7217   2.044   3.666   2.755
 2402SOL     OW 7218   2.366   3.430   2.772
 2402SOL    HW1 7219   2.432   3.504   2.781
 2402SOL    HW2 7220   2.410   3.351   2.730
 2403SOL     OW 7221   2.864   2.658   3.100
 2403SOL    HW1 7222   2.905   2.626   3.186
 2403SOL    HW2 7223   2.768   2.631   3.097
 2404SOL     OW 7224   1.902   2.406   2.976
 2404SOL    HW1 7225   1.987   2.373   2.935
 2404SOL    HW2 7226   1.915   2.421   3.074
 2405SOL     OW 7227   2.051   2.382   3.584
 2405SOL    HW1 7228   2.110   2.342   3.514
 2405SOL    HW2 7229   1.993   2.453   3.543
 2406SOL     OW 7230   3.231   2.812   3.522
 2406SOL    HW1 7231   3.270   2.901   3.542
 2406SOL    HW2 7232   3.241   2.792   3.425
 2407SOL     OW 7233   2.677   2.434   2.187
 2407SOL    HW1 7234   2.684   2.345   2.141
 2407SOL    HW2 7235   2.583   2.468   2.179
 2408SOL     OW 7236   3.519   2.466   3.068
 2408SOL    HW1 7237   3.481   2.397   3.130
 2408SOL    HW2 7238   3.601   2.430   3.024
 2409SOL     OW 7239   2.114   3.426   3.606
 2409SOL    HW1 7240   2.084   3.483   3.682
 2409SOL    HW2 7241   2.107   3.329   3.632
 2410SOL     OW 7242   2.533   2.326   3.131
 2410SOL    HW1 7243   2.499   2.237   3.101
 2410SOL    HW2 7244   2.559   2.380   3.051
 2411SOL     OW 7245   2.792   3.540   3.327
 2411SOL    HW1 7246   2.768   3.522   3.232
 2411SOL    HW2 7247   2.822   3.634   3.337
 2412SOL     OW 7248   2.335   2.362   2.053
 2412SOL    HW1 7249   2.396   2.442   2.057
 2412SOL    HW2 7250   2.240   2.393   2.060
 2413SOL     OW 7251   2.021   2.999   3.328
 2413SOL    HW1 7252   2.043   2.938   3.404
 2413SOL    HW2 7253   2.031   2.950   3.242
 2414SOL     OW 7254   3.209   2.921   3.096
 2414SOL    HW1 7255   3.233   2.858   3.022
 2414SOL    HW2 7256   3.119   2.961   3.078
 2415SOL     OW 7257   3.164   2.717   2.171
 2415SOL    HW1 7258   3.078   2.686   2.213
 2415SOL    HW2 7259   3.160   2.703   2.072
 2416SOL     OW 7260   3.621   3.609   3.016
 2416SOL    HW1 7261   3.682   3.639   2.943
 2416SOL    HW2 7262   3.583   3.520   2.994
 2417SOL     OW 7263   3.114   3.593   2.990
 2417SOL    HW1 7264   3.198   3.598   2.936
 2417SOL    HW2 7265   3.091   3.497   3.008
 2418SOL     OW 7266   1.945   3.120   2.884
 2418SOL    HW1 7267   1.940   3.119   2.984
 2418SOL    HW2 7268   1.862   3.079   2.846
 2419SOL     OW 7269   2.550   3.524   3.578
 2419SOL    HW1 7270   2.494   3.605   3.587
 2419SOL    HW2 7271   2.602   3.528   3.492
 2420SOL     OW 7272   3.588   1.997   2.385
 2420SOL    HW1 7273   3.661   1.980   2.318
 2420SOL    HW2 7274   3.557   1.910   2.423
 2421SOL     OW 7275   3.250   3.435   2.339
 2421SOL    HW1 7276   3.317   3.447   2.265
 2421SOL    HW2 7277   3.210   3.524   2.362
 2422SOL     OW 7278   1.992   3.656   3.713
 2422SOL    HW1 7279   1.951   3.582   3.766
 2422SOL    HW2 7280   2.056   3.707   3.771
 2423SOL     OW 7281   3.142   2.789   2.534
 2423SOL    HW1 7282   3.202   2.708   2.536
 2423SOL    HW2 7283   3.182   2.858   2.474
 2424SOL     OW 7284   2.692   3.135   3.284
 2424SOL    HW1 7285   2.687   3.168   3.379
 2424SOL    HW2 7286   2.606   3.154   3.238
 2425SOL     OW 7287   2.534   3.478   2.016
 2425SOL    HW1 7288   2.543   3.488   1.917
 2425SOL    HW2 7289   2.494   3.389   2.037
 2426SOL     OW 7290   3.512   3.582   3.256
 2426SOL    HW1 7291   3.565   3.592   3.172
 2426SOL    HW2 7292   3.485   3.672   3.290
 2427SOL     OW 7293   3.703   2.037   2.825
 2427SOL    HW1 7294   3.742   1.952   2.789
 2427SOL    HW2 7295   3.605   2.039   2.806
 2428SOL     OW 7296   2.125   2.188   2.582
 2428SOL    HW1 7297   2.046   2.239   2.548
 2428SOL    HW2 7298   2.116   2.173   2.680
 2429SOL     OW 7299   3.056   3.474   1.893
 2429SOL    HW1 7300   3.062   3.381   1.930
 2429SOL    HW2 7301   2.997   3.474   1.813
 2430SOL     OW 7302   2.684   2.864   3.234
 2430SOL    HW1 7303   2.724   2.863   3.142
 2430SOL    HW2 7304   2.694   2.956   3.274
 2431SOL     OW 7305   2.778   2.772   2.153
 2431SOL    HW1 7306   2.841   2.810   2.085
 2431SOL    HW2 7307   2.818   2.689   2.192
 2432SOL     OW 7308   3.366   3.469   1.906
 2432SOL    HW1 7309   3.274   3.506   1.913
 2432SOL    HW2 7310   3.404   3.489   1.816
 2433SOL     OW 7311   2.234   3.150   3.352
 2433SOL    HW1 7312   2.221   3.243   3.318
 2433SOL    HW2 7313   2.150   3.098   3.339
 2434SOL     OW 7314   3.476   3.154   3.151
 2434SOL    HW1 7315   3.536   3.157   3.231
 2434SOL    HW2 7316   3.401   3.218   3.164
 2435SOL     OW 7317   2.901   2.960   2.558
 2435SOL    HW1 7318   2.831   2.913   2.612
 2435SOL    HW2 7319   2.960   2.892   2.515
 2436SOL     OW 7320   2.876   2.098   2.833
 2436SOL    HW1 7321   2.868   2.062   2.740
 2436SOL    HW2 7322   2.874   2.022   2.898
 2437SOL     OW 7323   2.452   3.349   2.353
 2437SOL    HW1 7324   2.494   3.291   2.283
 2437SOL    HW2 7325   2.408   3.428   2.309
 2438SOL     OW 7326   3.571   2.247   3.243
 2438SOL    HW1 7327   3.644   2.316   3.247
 2438SOL    HW2 7328   3.599   2.172   3.184
 2439SOL     OW 7329   2.117   3.210   2.152
 2439SOL    HW1 7330   2.021   3.211   2.125
 2439SOL    HW2 7331   2.129   3.263   2.236
 2440SOL     OW 7332   1.967   2.875   3.588
 2440SOL    HW1 7333   1.890   2.842   3.642
 2440SOL    HW2 7334   2.052   2.845   3.630
 2441SOL     OW 7335   2.534   2.065   3.351
 2441SOL    HW1 7336   2.624   2.049   3.311
 2441SOL    HW2 7337   2.542   2.070   3.450
 2442SOL     OW 7338   1.937   2.207   1.895
 2442SOL    HW1 7339   1.845   2.179   1.866
 2442SOL    HW2 7340   1.968   2.284   1.839
 2443SOL     OW 7341   3.302   2.718   3.260
 2443SOL    HW1 7342   3.245   2.770   3.197
 2443SOL    HW2 7343   3.398   2.730   3.236
 2444SOL     OW 7344   1.934   2.028   2.180
 2444SOL    HW1 7345   1.917   2.111   2.126
 2444SOL    HW2 7346   2.024   1.991   2.158
 2445SOL     OW 7347   3.045   3.197   1.981
 2445SOL    HW1 7348   2.946   3.186   1.983
 2445SOL    HW2 7349   3.079   3.212   2.074
 2446SOL     OW 7350   2.475   2.704   3.293
 2446SOL    HW1 7351   2.531   2.785   3.276
 2446SOL    HW2 7352   2.534   2.624   3.296
 2447SOL     OW 7353   3.355   3.629   2.821
 2447SOL    HW1 7354   3.388   3.693   2.752
 2447SOL    HW2 7355   3.421   3.623   2.896
 2448SOL     OW 7356   2.578   2.427   3.570
 2448SOL    HW1 7357   2.597   2.492   3.644
 2448SOL    HW2 7358   2.638   2.347   3.579
 2449SOL     OW 7359   3.312   3.082   3.495
 2449SOL    HW1 7360   3.303   3.072   3.594
 2449SOL    HW2 7361   3.408   3.075   3.469
 2450SOL     OW 7362   2.252   3.603   3.422
 2450SOL    HW1 7363   2.161   3.644   3.420
 2450SOL    HW2 7364   2.245   3.509   3.454
 2451SOL     OW 7365   3.536   2.745   3.116
 2451SOL    HW1 7366   3.509   2.656   3.079
 2451SOL    HW2 7367   3.537   2.813   3.043
 2452SOL     OW 7368   3.087   2.187   2.311
 2452SOL    HW1 7369   3.152   2.113   2.300
 2452SOL    HW2 7370   3.107   2.237   2.395
 2453SOL     OW 7371   3.639   2.204   3.504
 2453SOL    HW1 7372   3.622   2.235   3.410
 2453SOL    HW2 7373   3.555   2.167   3.542
 2454SOL     OW 7374   3.592   2.796   3.379
 2454SOL    HW1 7375   3.630   2.887   3.394
 2454SOL    HW2 7376   3.584   2.779   3.280
 2455SOL     OW 7377   2.721   3.236   1.878
 2455SOL    HW1 7378   2.675   3.251   1.966
 2455SOL    HW2 7379   2.765   3.321   1.848
 2456SOL     OW 7380   2.523   3.652   2.815
 2456SOL    HW1 7381   2.477   3.740   2.802
 2456SOL    HW2 7382   2.622   3.664   2.808
 2457SOL     OW 7383   2.721   2.818   2.723
 2457SOL    HW1 7384   2.775   2.749   2.771
 2457SOL    HW2 7385   2.689   2.887   2.789
 2458SOL     OW 7386   2.945   2.846   1.949
 2458SOL    HW1 7387   2.922   2.899   1.867
 2458SOL    HW2 7388   3.026   2.790   1.930
 2459SOL     OW 7389   3.723   3.431   2.713
 2459SOL    HW1 7390   3.652   3.419   2.643
 2459SOL    HW2 7391   3.724   3.352   2.773
 2460SOL     OW 7392   2.083   3.176   3.706
 2460SOL    HW1 7393   2.018   3.103   3.685
 2460SOL    HW2 7394   2.087   3.190   3.804
 2461SOL     OW 7395   1.941   3.102   2.515
 2461SOL    HW1 7396   1.940   3.055   2.603
 2461SOL    HW2 7397   2.023   3.074   2.464
 2462SOL     OW 7398   2.534   3.253   3.486
 2462SOL    HW1 7399   2.456   3.203   3.524
 2462SOL    HW2 7400   2.531   3.348   3.517
 2463SOL     OW 7401   3.686   2.054   3.089
 2463SOL    HW1 7402   3.682   1.964   3.133
 2463SOL    HW2 7403   3.689   2.043   2.990
 2464SOL     OW 7404   2.290   2.286   2.382
 2464SOL    HW1 7405   2.320   2.214   2.320
 2464SOL    HW2 7406   2.251   2.246   2.465
 2465SOL     OW 7407   3.567   3.349   2.966
 2465SOL    HW1 7408   3.474   3.324   2.939
 2465SOL    HW2 7409   3.593   3.299   3.048
 2466SOL     OW 7410   2.179   2.409   3.142
 2466SOL    HW1 7411   2.217   2.350   3.214
 2466SOL    HW2 7412   2.219   2.383   3.054
 2467SOL     OW 7413   2.674   3.448   2.549
 2467SOL    HW1 7414   2.706   3.458   2.455
 2467SOL    HW2 7415   2.595   3.386   2.551
 2468SOL     OW 7416   3.286   2.076   2.974
 2468SOL    HW1 7417   3.338   2.011   3.029
 2468SOL    HW2 7418   3.237   2.139   3.035
 2469SOL     OW 7419   2.863   1.896   3.016
 2469SOL    HW1 7420   2.800   1.824   2.985
 2469SOL    HW2 7421   2.956   1.860   3.016
 2470SOL     OW 7422   2.632   3.192   2.163
 2470SOL    HW1 7423   2.586   3.105   2.180
 2470SOL    HW2 7424   2.723   3.189   2.204
 2471SOL     OW 7425   2.480   3.429   3.146
 2471SOL    HW1 7426   2.475   3.511   3.203
 2471SOL    HW2 7427   2.569   3.426   3.101
 2472SOL     OW 7428   3.214   1.914   2.030
 2472SOL    HW1 7429   3.249   1.873   1.946
 2472SOL    HW2 7430   3.124   1.876   2.050
 2473SOL     OW 7431   3.162   2.315   2.553
 2473SOL    HW1 7432   3.103   2.395   2.557
 2473SOL    HW2 7433   3.177   2.280   2.646
 2474SOL     OW 7434   3.455   2.083   2.744
 2474SOL    HW1 7435   3.371   2.082   2.798
 2474SOL    HW2 7436   3.457   2.166   2.688
 2475SOL     OW 7437   1.901   2.939   2.162
 2475SOL    HW1 7438   2.000   2.928   2.153
 2475SOL    HW2 7439   1.861   2.853   2.194
 2476SOL     OW 7440   2.737   3.508   2.199
 2476SOL    HW1 7441   2.660   3.473   2.145
 2476SOL    HW2 7442   2.705   3.579   2.261
 2477SOL     OW 7443   2.092   2.490   3.837
 2477SOL    HW1 7444   1.999   2.488   3.874
 2477SOL    HW2 7445   2.093   2.451   3.745
 2478SOL     OW 7446   2.087   2.137   4.720
 2478SOL    HW1 7447   2.122   2.120   4.812
 2478SOL    HW2 7448   1.999   2.092   4.708
 2479SOL     OW 7449   1.881   2.230   4.371
 2479SOL    HW1 7450   1.799   2.273   4.410
 2479SOL    HW2 7451   1.853   2.157   4.308
 2480SOL     OW 7452   2.431   3.137   4.889
 2480SOL    HW1 7453   2.338   3.130   4.852
 2480SOL    HW2 7454   2.442   3.226   4.933
 2481SOL     OW 7455   3.417   3.373   4.427
 2481SOL    HW1 7456   3.360   3.357   4.508
 2481SOL    HW2 7457   3.358   3.383   4.347
 2482SOL     OW 7458   2.997   2.565   4.441
 2482SOL    HW1 7459   3.054   2.643   4.416
 2482SOL    HW2 7460   2.937   2.591   4.517
 2483SOL     OW 7461   3.617   2.469   3.955
 2483SOL    HW1 7462   3.605   2.456   3.856
 2483SOL    HW2 7463   3.587   2.388   4.004
 2484SOL     OW 7464   2.630   3.006   4.747
 2484SOL    HW1 7465   2.552   3.023   4.807
 2484SOL    HW2 7466   2.664   3.093   4.711
 2485SOL     OW 7467   2.547   2.874   4.389
 2485SOL    HW1 7468   2.616   2.858   4.459
 2485SOL    HW2 7469   2.474   2.931   4.427
 2486SOL     OW 7470   2.197   3.297   4.785
 2486SOL    HW1 7471   2.119   3.266   4.732
 2486SOL    HW2 7472   2.255   3.355   4.728
 2487SOL     OW 7473   3.465   2.309   4.461
 2487SOL    HW1 7474   3.391   2.355   4.411
 2487SOL    HW2 7475   3.516   2.377   4.514
 2488SOL     OW 7476   2.093   3.575   4.207
 2488SOL    HW1 7477   2.127   3.652   4.261
 2488SOL    HW2 7478   2.137   3.575   4.117
 2489SOL     OW 7479   2.092   3.296   4.262
 2489SOL    HW1 7480   2.066   3.392   4.262
 2489SOL    HW2 7481   2.021   3.242   4.307
 2490SOL     OW 7482   2.102   2.953   4.610
 2490SOL    HW1 7483   2.116   2.869   4.662
 2490SOL    HW2 7484   2.047   3.017   4.665
 2491SOL     OW 7485   2.468   2.826   3.847
 2491SOL    HW1 7486   2.475   2.910   3.793
 2491SOL    HW2 7487   2.514   2.839   3.935
 2492SOL     OW 7488   1.984   2.505   4.287
 2492SOL    HW1 7489   1.939   2.417   4.304
 2492SOL    HW2 7490   1.983   2.559   4.371
 2493SOL     OW 7491   3.704   3.629   4.083
 2493SOL    HW1 7492   3.758   3.600   4.163
 2493SOL    HW2 7493   3.734   3.719   4.054
 2494SOL     OW 7494   1.889   3.458   3.841
 2494SOL    HW1 7495   1.870   3.362   3.862
 2494SOL    HW2 7496   1.856   3.516   3.916
 2495SOL     OW 7497   3.551   2.784   4.336
 2495SOL    HW1 7498   3.646   2.755   4.344
 2495SOL    HW2 7499   3.543   2.849   4.261
 2496SOL     OW 7500   3.503   2.970   4.156
 2496SOL    HW1 7501   3.589   2.972   4.104
 2496SOL    HW2 7502   3.517   3.017   4.244
 2497SOL     OW 7503   2.475   3.227   4.450
 2497SOL    HW1 7504   2.426   3.140   4.459
 2497SOL    HW2 7505   2.452   3.270   4.363
 2498SOL     OW 7506   2.671   1.866   4.226
 2498SOL    HW1 7507   2.711   1.957   4.217
 2498SOL    HW2 7508   2.571   1.874   4.232
 2499SOL     OW 7509   2.059   2.838   4.988
 2499SOL    HW1 7510   2.148   2.793   4.974
 2499SOL    HW2 7511   1.986   2.773   4.969
 2500SOL     OW 7512   3.387   2.861   3.914
 2500SOL    HW1 7513   3.324   2.785   3.927
 2500SOL    HW2 7514   3.435   2.879   4.000
 2501SOL     OW 7515   3.328   3.279   4.677
 2501SOL    HW1 7516   3.269   3.285   4.757
 2501SOL    HW2 7517   3.313   3.191   4.631
 2502SOL     OW 7518   3.529   3.576   4.296
 2502SOL    HW1 7519   3.488   3.553   4.208
 2502SOL    HW2 7520   3.511   3.502   4.361
 2503SOL     OW 7521   2.460   2.591   3.994
 2503SOL    HW1 7522   2.484   2.660   3.926
 2503SOL    HW2 7523   2.382   2.624   4.048
 2504SOL     OW 7524   3.143   2.207   4.668
 2504SOL    HW1 7525   3.057   2.157   4.655
 2504SOL    HW2 7526   3.205   2.153   4.724
 2505SOL     OW 7527   3.438   3.524   4.031
 2505SOL    HW1 7528   3.527   3.570   4.034
 2505SOL    HW2 7529   3.417   3.500   3.936
 2506SOL     OW 7530   2.903   2.563   4.153
 2506SOL    HW1 7531   2.929   2.559   4.249
 2506SOL    HW2 7532   2.818   2.512   4.139
 2507SOL     OW 7533   1.938   2.673   4.513
 2507SOL    HW1 7534   2.037   2.661   4.522
 2507SOL    HW2 7535   1.914   2.768   4.534
 2508SOL     OW 7536   2.727   2.210   3.919
 2508SOL    HW1 7537   2.786   2.273   3.870
 2508SOL    HW2 7538   2.746   2.116   3.890
 2509SOL     OW 7539   3.224   3.006   4.269
 2509SOL    HW1 7540   3.307   2.977   4.221
 2509SOL    HW2 7541   3.175   3.073   4.213
 2510SOL     OW 7542   2.412   2.058   4.609
 2510SOL    HW1 7543   2.407   2.053   4.709
 2510SOL    HW2 7544   2.414   2.154   4.580
 2511SOL     OW 7545   2.870   3.318   4.201
 2511SOL    HW1 7546   2.824   3.390   4.149
 2511SOL    HW2 7547   2.866   3.338   4.299
 2512SOL     OW 7548   2.213   3.663   4.577
 2512SOL    HW1 7549   2.263   3.577   4.583
 2512SOL    HW2 7550   2.278   3.740   4.574
 2513SOL     OW 7551   3.657   2.928   4.597
 2513SOL    HW1 7552   3.595   2.913   4.521
 2513SOL    HW2 7553   3.605   2.939   4.682
 2514SOL     OW 7554   2.183   2.805   3.966
 2514SOL    HW1 7555   2.265   2.844   3.924
 2514SOL    HW2 7556   2.156   2.723   3.917
 2515SOL     OW 7557   3.320   2.597   4.452
 2515SOL    HW1 7558   3.315   2.532   4.527
 2515SOL    HW2 7559   3.400   2.656   4.465
 2516SOL     OW 7560   2.973   3.638   3.961
 2516SOL    HW1 7561   2.913   3.576   4.011
 2516SOL    HW2 7562   3.004   3.594   3.876
 2517SOL     OW 7563   3.494   3.239   3.805
 2517SOL    HW1 7564   3.462   3.333   3.795
 2517SOL    HW2 7565   3.418   3.176   3.793
 2518SOL     OW 7566   2.326   3.605   4.047
 2518SOL    HW1 7567   2.359   3.644   4.133
 2518SOL    HW2 7568   2.402   3.598   3.982
 2519SOL     OW 7569   3.262   1.969   4.150
 2519SOL    HW1 7570   3.238   1.932   4.060
 2519SOL    HW2 7571   3.361   1.985   4.154
 2520SOL     OW 7572   2.111   3.647   4.965
 2520SOL    HW1 7573   2.168   3.582   5.015
 2520SOL    HW2 7574   2.095   3.614   4.872
 2521SOL     OW 7575   2.802   3.560   4.628
 2521SOL    HW1 7576   2.882   3.503   4.649
 2521SOL    HW2 7577   2.753   3.520   4.551
 2522SOL     OW 7578   2.244   2.562   4.204
 2522SOL    HW1 7579   2.289   2.472   4.201
 2522SOL    HW2 7580   2.150   2.551   4.237
 2523SOL     OW 7581   2.476   1.984   3.841
 2523SOL    HW1 7582   2.574   1.962   3.848
 2523SOL    HW2 7583   2.445   1.967   3.748
 2524SOL     OW 7584   2.665   3.264   4.648
 2524SOL    HW1 7585   2.755   3.278   4.606
 2524SOL    HW2 7586   2.594   3.266   4.577
 2525SOL     OW 7587   2.784   2.365   4.623
 2525SOL    HW1 7588   2.759   2.356   4.527
 2525SOL    HW2 7589   2.832   2.283   4.654
 2526SOL     OW 7590   2.401   1.926   4.236
 2526SOL    HW1 7591   2.320   1.927   4.294
 2526SOL    HW2 7592   2.404   2.009   4.181
 2527SOL     OW 7593   3.296   3.050   3.765
 2527SOL    HW1 7594   3.328   2.974   3.822
 2527SOL    HW2 7595   3.204   3.077   3.795
 2528SOL     OW 7596   2.159   1.897   3.895
 2528SOL    HW1 7597   2.208   1.981   3.874
 2528SOL    HW2 7598   2.221   1.832   3.940
 2529SOL     OW 7599   2.797   2.098   4.204
 2529SOL    HW1 7600   2.749   2.139   4.126
 2529SOL    HW2 7601   2.896   2.096   4.185
 2530SOL     OW 7602   3.089   3.432   4.517
 2530SOL    HW1 7603   3.110   3.506   4.452
 2530SOL    HW2 7604   3.157   3.432   4.590
 2531SOL     OW 7605   2.321   3.014   4.465
 2531SOL    HW1 7606   2.250   2.987   4.530
 2531SOL    HW2 7607   2.295   2.986   4.372
 2532SOL     OW 7608   3.133   3.659   4.315
 2532SOL    HW1 7609   3.177   3.723   4.251
 2532SOL    HW2 7610   3.083   3.711   4.385
 2533SOL     OW 7611   2.894   2.411   3.740
 2533SOL    HW1 7612   2.853   2.493   3.701
 2533SOL    HW2 7613   2.958   2.437   3.813
 2534SOL     OW 7614   2.728   2.316   4.366
 2534SOL    HW1 7615   2.696   2.388   4.304
 2534SOL    HW2 7616   2.752   2.235   4.313
 2535SOL     OW 7617   2.879   1.901   4.477
 2535SOL    HW1 7618   2.807   1.906   4.408
 2535SOL    HW2 7619   2.855   1.832   4.546
 2536SOL     OW 7620   3.291   3.035   4.591
 2536SOL    HW1 7621   3.236   2.951   4.584
 2536SOL    HW2 7622   3.317   3.064   4.499
 2537SOL     OW 7623   3.328   2.452   4.716
 2537SOL    HW1 7624   3.298   2.357   4.723
 2537SOL    HW2 7625   3.401   2.468   4.782
 2538SOL     OW 7626   3.719   2.695   4.101
 2538SOL    HW1 7627   3.761   2.631   4.165
 2538SOL    HW2 7628   3.681   2.644   4.023
 2539SOL     OW 7629   2.350   3.247   3.898
 2539SOL    HW1 7630   2.263   3.232   3.945
 2539SOL    HW2 7631   2.333   3.273   3.803
 2540SOL     OW 7632   3.526   3.142   4.381
 2540SOL    HW1 7633   3.625   3.150   4.395
 2540SOL    HW2 7634   3.481   3.226   4.412
 2541SOL     OW 7635   3.252   2.437   3.802
 2541SOL    HW1 7636   3.198   2.416   3.883
 2541SOL    HW2 7637   3.343   2.396   3.811
 2542SOL     OW 7638   2.389   2.118   4.052
 2542SOL    HW1 7639   2.416   2.059   3.977
 2542SOL    HW2 7640   2.389   2.213   4.021
 2543SOL     OW 7641   2.973   3.057   4.824
 2543SOL    HW1 7642   2.933   3.101   4.905
 2543SOL    HW2 7643   2.932   3.094   4.741
 2544SOL     OW 7644   3.500   2.961   4.803
 2544SOL    HW1 7645   3.505   3.042   4.862
 2544SOL    HW2 7646   3.414   2.963   4.752
 2545SOL     OW 7647   2.567   2.912   4.092
 2545SOL    HW1 7648   2.553   2.919   4.191
 2545SOL    HW2 7649   2.651   2.861   4.074
 2546SOL     OW 7650   2.272   2.675   4.975
 2546SOL    HW1 7651   2.358   2.687   5.025
 2546SOL    HW2 7652   2.230   2.588   5.002
 2547SOL     OW 7653   2.229   2.962   4.225
 2547SOL    HW1 7654   2.222   3.045   4.169
 2547SOL    HW2 7655   2.233   2.882   4.165
 2548SOL     OW 7656   2.428   2.399   4.589
 2548SOL    HW1 7657   2.440   2.465   4.515
 2548SOL    HW2 7658   2.474   2.433   4.672
 2549SOL     OW 7659   3.114   3.210   4.112
 2549SOL    HW1 7660   3.164   3.287   4.152
 2549SOL    HW2 7661   3.019   3.212   4.144
 2550SOL     OW 7662   3.134   3.307   4.866
 2550SOL    HW1 7663   3.181   3.320   4.953
 2550SOL    HW2 7664   3.068   3.233   4.875
 2551SOL     OW 7665   3.444   2.501   4.196
 2551SOL    HW1 7666   3.413   2.562   4.269
 2551SOL    HW2 7667   3.494   2.553   4.127
 2552SOL     OW 7668   2.435   2.732   4.753
 2552SOL    HW1 7669   2.479   2.821   4.744
 2552SOL    HW2 7670   2.372   2.732   4.830
 2553SOL     OW 7671   3.071   2.387   3.999
 2553SOL    HW1 7672   3.084   2.303   4.053
 2553SOL    HW2 7673   3.042   2.461   4.059
 2554SOL     OW 7674   2.169   2.075   4.955
 2554SOL    HW1 7675   2.146   2.112   5.045
 2554SOL    HW2 7676   2.139   1.980   4.949
 2555SOL     OW 7677   2.594   2.496   4.788
 2555SOL    HW1 7678   2.653   2.470   4.712
 2555SOL    HW2 7679   2.566   2.592   4.777
 2556SOL     OW 7680   2.169   1.925   4.342
 2556SOL    HW1 7681   2.158   2.019   4.375
 2556SOL    HW2 7682   2.164   1.862   4.419
 2557SOL     OW 7683   3.484   2.229   4.098
 2557SOL    HW1 7684   3.486   2.153   4.162
 2557SOL    HW2 7685   3.436   2.306   4.138
 2558SOL     OW 7686   2.885   2.628   4.690
 2558SOL    HW1 7687   2.900   2.649   4.786
 2558SOL    HW2 7688   2.855   2.533   4.681
 2559SOL     OW 7689   3.402   2.136   3.849
 2559SOL    HW1 7690   3.341   2.061   3.872
 2559SOL    HW2 7691   3.424   2.188   3.932
 2560SOL     OW 7692   3.165   2.700   3.766
 2560SOL    HW1 7693   3.199   2.607   3.781
 2560SOL    HW2 7694   3.183   2.727   3.671
 2561SOL     OW 7695   2.930   3.195   4.573
 2561SOL    HW1 7696   2.937   3.111   4.518
 2561SOL    HW2 7697   2.992   3.264   4.537
 2562SOL     OW 7698   2.181   2.672   4.673
 2562SOL    HW1 7699   2.274   2.708   4.678
 2562SOL    HW2 7700   2.175   2.587   4.725
 2563SOL     OW 7701   2.201   2.371   4.730
 2563SOL    HW1 7702   2.149   2.288   4.713
 2563SOL    HW2 7703   2.278   2.376   4.666
 2564SOL     OW 7704   1.870   3.188   3.924
 2564SOL    HW1 7705   1.777   3.209   3.893
 2564SOL    HW2 7706   1.880   3.089   3.937
 2565SOL     OW 7707   1.950   3.663   4.651
 2565SOL    HW1 7708   1.908   3.577   4.624
 2565SOL    HW2 7709   2.044   3.666   4.617
 2566SOL     OW 7710   2.366   3.430   4.634
 2566SOL    HW1 7711   2.432   3.504   4.643
 2566SOL    HW2 7712   2.410   3.351   4.592
 2567SOL     OW 7713   2.864   2.658   4.962
 2567SOL    HW1 7714   2.905   2.626   5.048
 2567SOL    HW2 7715   2.768   2.631   4.959
 2568SOL     OW 7716   1.902   2.406   4.838
 2568SOL    HW1 7717   1.987   2.373   4.797
 2568SOL    HW2 7718   1.915   2.421   4.936
 2569SOL     OW 7719   2.677   2.434   4.049
 2569SOL    HW1 7720   2.684   2.345   4.003
 2569SOL    HW2 7721   2.583   2.468   4.041
 2570SOL     OW 7722   3.519   2.466   4.930
 2570SOL    HW1 7723   3.481   2.397   4.992
 2570SOL    HW2 7724   3.601   2.430   4.886
 2571SOL     OW 7725   2.533   2.326   4.993
 2571SOL    HW1 7726   2.499   2.237   4.963
 2571SOL    HW2 7727   2.559   2.380   4.913
 2572SOL     OW 7728   2.335   2.362   3.915
 2572SOL    HW1 7729   2.396   2.442   3.919
 2572SOL    HW2 7730   2.240   2.393   3.922
 2573SOL     OW 7731   3.164   2.717   4.033
 2573SOL    HW1 7732   3.078   2.686   4.075
 2573SOL    HW2 7733   3.160   2.703   3.934
 2574SOL     OW 7734   3.621   3.609   4.878
 2574SOL    HW1 7735   3.682   3.639   4.805
 2574SOL    HW2 7736   3.583   3.520   4.856
 2575SOL     OW 7737   1.945   3.120   4.746
 2575SOL    HW1 7738   1.940   3.119   4.846
 2575SOL    HW2 7739   1.862   3.079   4.708
 2576SOL     OW 7740   3.588   1.997   4.247
 2576SOL    HW1 7741   3.661   1.980   4.180
 2576SOL    HW2 7742   3.557   1.910   4.285
 2577SOL     OW 7743   3.250   3.435   4.201
 2577SOL    HW1 7744   3.317   3.447   4.127
 2577SOL    HW2 7745   3.210   3.524   4.224
 2578SOL     OW 7746   3.142   2.789   4.396
 2578SOL    HW1 7747   3.202   2.708   4.398
 2578SOL    HW2 7748   3.182   2.858   4.336
 2579SOL     OW 7749   2.534   3.478   3.878
 2579SOL    HW1 7750   2.543   3.488   3.779
 2579SOL    HW2 7751   2.494   3.389   3.899
 2580SOL     OW 7752   3.703   2.037   4.687
 2580SOL    HW1 7753   3.742   1.952   4.651
 2580SOL    HW2 7754   3.605   2.039   4.668
 2581SOL     OW 7755   2.125   2.188   4.444
 2581SOL    HW1 7756   2.046   2.239   4.410
 2581SOL    HW2 7757   2.116   2.173   4.542
 2582SOL     OW 7758   3.056   3.474   3.755
 2582SOL    HW1 7759   3.062   3.381   3.792
 2582SOL    HW2 7760   2.997   3.474   3.675
 2583SOL     OW 7761   2.684   2.864   5.096
 2583SOL    HW1 7762   2.724   2.863   5.004
 2583SOL    HW2 7763   2.694   2.956   5.136
 2584SOL     OW 7764   2.778   2.772   4.015
 2584SOL    HW1 7765   2.841   2.810   3.947
 2584SOL    HW2 7766   2.818   2.689   4.054
 2585SOL     OW 7767   3.366   3.469   3.768
 2585SOL    HW1 7768   3.274   3.506   3.775
 2585SOL    HW2 7769   3.404   3.489   3.678
 2586SOL     OW 7770   2.901   2.960   4.420
 2586SOL    HW1 7771   2.831   2.913   4.474
 2586SOL    HW2 7772   2.960   2.892   4.377
 2587SOL     OW 7773   2.876   2.098   4.695
 2587SOL    HW1 7774   2.868   2.062   4.602
 2587SOL    HW2 7775   2.874   2.022   4.760
 2588SOL     OW 7776   2.452   3.349   4.215
 2588SOL    HW1 7777   2.494   3.291   4.145
 2588SOL    HW2 7778   2.408   3.428   4.171
 2589SOL     OW 7779   3.571   2.247   5.105
 2589SOL    HW1 7780   3.644   2.316   5.109
 2589SOL    HW2 7781   3.599   2.172   5.046
 2590SOL     OW 7782   2.117   3.210   4.014
 2590SOL    HW1 7783   2.021   3.211   3.987
 2590SOL    HW2 7784   2.129   3.263   4.098
 2591SOL     OW 7785   1.937   2.207   3.757
 2591SOL    HW1 7786   1.845   2.179   3.728
 2591SOL    HW2 7787   1.968   2.284   3.701
 2592SOL     OW 7788   1.934   2.028   4.042
 2592SOL    HW1 7789   1.917   2.111   3.988
 2592SOL    HW2 7790   2.024   1.991   4.020
 2593SOL     OW 7791   3.045   3.197   3.843
 2593SOL    HW1 7792   2.946   3.186   3.845
 2593SOL    HW2 7793   3.079   3.212   3.936
 2594SOL     OW 7794   3.355   3.629   4.683
 2594SOL    HW1 7795   3.388   3.693   4.614
 2594SOL    HW2 7796   3.421   3.623   4.758
 2595SOL     OW 7797   3.536   2.745   4.978
 2595SOL    HW1 7798   3.509   2.656   4.941
 2595SOL    HW2 7799   3.537   2.813   4.905
 2596SOL     OW 7800   3.087   2.187   4.173
 2596SOL    HW1 7801   3.152   2.113   4.162
 2596SOL    HW2 7802   3.107   2.237   4.257
 2597SOL     OW 7803   2.456   2.607   4.376
 2597SOL    HW1 7804   2.506   2.692   4.357
 2597SOL    HW2 7805   2.368   2.609   4.328
 2598SOL     OW 7806   2.721   3.236   3.740
 2598SOL    HW1 7807   2.675   3.251   3.828
 2598SOL    HW2 7808   2.765   3.321   3.710
 2599SOL     OW 7809   2.523   3.652   4.677
 2599SOL    HW1 7810   2.477   3.740   4.664
 2599SOL    HW2 7811   2.622   3.664   4.670
 2600SOL     OW 7812   2.721   2.818   4.585
 2600SOL    HW1 7813   2.775   2.749   4.633
 2600SOL    HW2 7814   2.689   2.887   4.651
 2601SOL     OW 7815   2.945   2.846   3.811
 2601SOL    HW1 7816   2.922   2.899   3.729
 2601SOL    HW2 7817   3.026   2.790   3.792
 2602SOL     OW 7818   3.723   3.431   4.575
 2602SOL    HW1 7819   3.652   3.419   4.505
 2602SOL    HW2 7820   3.724   3.352   4.635
 2603SOL     OW 7821   1.941   3.102   4.377
 2603SOL    HW1 7822   1.940   3.055   4.465
 2603SOL    HW2 7823   2.023   3.074   4.326
 2604SOL     OW 7824   3.686   2.054   4.951
 2604SOL    HW1 7825   3.682   1.964   4.995
 2604SOL    HW2 7826   3.689   2.043   4.852
 2605SOL     OW 7827   2.290   2.286   4.244
 2605SOL    HW1 7828   2.320   2.214   4.182
 2605SOL    HW2 7829   2.251   2.246   4.327
 2606SOL     OW 7830   3.567   3.349   4.828
 2606SOL    HW1 7831   3.474   3.324   4.801
 2606SOL    HW2 7832   3.593   3.299   4.910
 2607SOL     OW 7833   2.674   3.448   4.411
 2607SOL    HW1 7834   2.706   3.458   4.317
 2607SOL    HW2 7835   2.595   3.386   4.413
 2608SOL     OW 7836   3.286   2.076   4.836
 2608SOL    HW1 7837   3.338   2.011   4.891
 2608SOL    HW2 7838   3.237   2.139   4.897
 2609SOL     OW 7839   2.632   3.192   4.025
 2609SOL    HW1 7840   2.586   3.105   4.042
 2609SOL    HW2 7841   2.723   3.189   4.066
 2610SOL     OW 7842   3.214   1.914   3.892
 2610SOL    HW1 7843   3.249   1.873   3.808
 2610SOL    HW2 7844   3.124   1.876   3.912
 2611SOL     OW 7845   3.162   2.315   4.415
 2611SOL    HW1 7846   3.103   2.395   4.419
 2611SOL    HW2 7847   3.177   2.280   4.508
 2612SOL     OW 7848   3.455   2.083   4.606
 2612SOL    HW1 7849   3.371   2.082   4.660
 2612SOL    HW2 7850   3.457   2.166   4.550
 2613SOL     OW 7851   1.901   2.939   4.024
 2613SOL    HW1 7852   2.000   2.928   4.015
 2613SOL    HW2 7853   1.861   2.853   4.056
 2614SOL     OW 7854   2.737   3.508   4.061
 2614SOL    HW1 7855   2.660   3.473   4.007
 2614SOL    HW2 7856   2.705   3.579   4.123
 2615SOL     OW 7857   2.092   4.352   0.113
 2615SOL    HW1 7858   1.999   4.350   0.150
 2615SOL    HW2 7859   2.093   4.313   0.021
 2616SOL     OW 7860   2.087   3.999   0.996
 2616SOL    HW1 7861   2.122   3.982   1.088
 2616SOL    HW2 7862   1.999   3.954   0.984
 2617SOL     OW 7863   1.881   4.092   0.647
 2617SOL    HW1 7864   1.799   4.135   0.686
 2617SOL    HW2 7865   1.853   4.019   0.584
 2618SOL     OW 7866   2.997   4.427   0.717
 2618SOL    HW1 7867   3.054   4.505   0.692
 2618SOL    HW2 7868   2.937   4.453   0.793
 2619SOL     OW 7869   3.617   4.331   0.231
 2619SOL    HW1 7870   3.605   4.318   0.132
 2619SOL    HW2 7871   3.587   4.250   0.280
 2620SOL     OW 7872   2.630   4.868   1.023
 2620SOL    HW1 7873   2.552   4.885   1.083
 2620SOL    HW2 7874   2.664   4.955   0.987
 2621SOL     OW 7875   2.712   4.522   1.823
 2621SOL    HW1 7876   2.708   4.598   1.888
 2621SOL    HW2 7877   2.734   4.558   1.732
 2622SOL     OW 7878   2.547   4.736   0.665
 2622SOL    HW1 7879   2.616   4.720   0.735
 2622SOL    HW2 7880   2.474   4.793   0.703
 2623SOL     OW 7881   3.322   5.229   1.339
 2623SOL    HW1 7882   3.346   5.323   1.365
 2623SOL    HW2 7883   3.306   5.175   1.421
 2624SOL     OW 7884   2.300   4.116   1.499
 2624SOL    HW1 7885   2.382   4.060   1.508
 2624SOL    HW2 7886   2.219   4.058   1.503
 2625SOL     OW 7887   3.465   4.171   0.737
 2625SOL    HW1 7888   3.391   4.217   0.687
 2625SOL    HW2 7889   3.516   4.239   0.790
 2626SOL     OW 7890   2.102   4.815   0.886
 2626SOL    HW1 7891   2.116   4.731   0.938
 2626SOL    HW2 7892   2.047   4.879   0.941
 2627SOL     OW 7893   2.468   4.688   0.123
 2627SOL    HW1 7894   2.475   4.772   0.069
 2627SOL    HW2 7895   2.514   4.701   0.211
 2628SOL     OW 7896   3.456   3.838   1.480
 2628SOL    HW1 7897   3.438   3.905   1.408
 2628SOL    HW2 7898   3.453   3.884   1.569
 2629SOL     OW 7899   1.984   4.367   0.563
 2629SOL    HW1 7900   1.939   4.279   0.580
 2629SOL    HW2 7901   1.983   4.421   0.647
 2630SOL     OW 7902   3.551   4.646   0.612
 2630SOL    HW1 7903   3.646   4.617   0.620
 2630SOL    HW2 7904   3.543   4.711   0.537
 2631SOL     OW 7905   1.975   4.461   1.597
 2631SOL    HW1 7906   2.063   4.448   1.642
 2631SOL    HW2 7907   1.962   4.558   1.575
 2632SOL     OW 7908   2.475   5.089   0.726
 2632SOL    HW1 7909   2.426   5.002   0.735
 2632SOL    HW2 7910   2.452   5.132   0.639
 2633SOL     OW 7911   3.155   4.952   1.423
 2633SOL    HW1 7912   3.192   4.879   1.365
 2633SOL    HW2 7913   3.207   4.957   1.508
 2634SOL     OW 7914   2.671   3.728   0.502
 2634SOL    HW1 7915   2.711   3.819   0.493
 2634SOL    HW2 7916   2.571   3.736   0.508
 2635SOL     OW 7917   2.059   4.700   1.264
 2635SOL    HW1 7918   2.148   4.655   1.250
 2635SOL    HW2 7919   1.986   4.635   1.245
 2636SOL     OW 7920   3.387   4.723   0.190
 2636SOL    HW1 7921   3.324   4.647   0.203
 2636SOL    HW2 7922   3.435   4.741   0.276
 2637SOL     OW 7923   2.179   3.975   1.801
 2637SOL    HW1 7924   2.250   4.046   1.807
 2637SOL    HW2 7925   2.091   4.014   1.829
 2638SOL     OW 7926   2.460   4.453   0.270
 2638SOL    HW1 7927   2.484   4.522   0.202
 2638SOL    HW2 7928   2.382   4.486   0.324
 2639SOL     OW 7929   3.143   4.069   0.944
 2639SOL    HW1 7930   3.057   4.019   0.931
 2639SOL    HW2 7931   3.205   4.015   1.000
 2640SOL     OW 7932   2.669   4.329   1.465
 2640SOL    HW1 7933   2.622   4.326   1.554
 2640SOL    HW2 7934   2.618   4.274   1.399
 2641SOL     OW 7935   3.256   4.193   1.674
 2641SOL    HW1 7936   3.236   4.236   1.762
 2641SOL    HW2 7937   3.334   4.131   1.683
 2642SOL     OW 7938   2.835   4.614   1.572
 2642SOL    HW1 7939   2.881   4.530   1.543
 2642SOL    HW2 7940   2.779   4.648   1.497
 2643SOL     OW 7941   2.853   4.134   1.242
 2643SOL    HW1 7942   2.776   4.168   1.296
 2643SOL    HW2 7943   2.819   4.083   1.163
 2644SOL     OW 7944   2.903   4.425   0.429
 2644SOL    HW1 7945   2.929   4.421   0.525
 2644SOL    HW2 7946   2.818   4.374   0.415
 2645SOL     OW 7947   1.938   4.535   0.789
 2645SOL    HW1 7948   2.037   4.523   0.798
 2645SOL    HW2 7949   1.914   4.630   0.810
 2646SOL     OW 7950   2.727   4.072   0.195
 2646SOL    HW1 7951   2.786   4.135   0.146
 2646SOL    HW2 7952   2.746   3.978   0.166
 2647SOL     OW 7953   3.581   4.309   1.831
 2647SOL    HW1 7954   3.555   4.398   1.795
 2647SOL    HW2 7955   3.579   4.241   1.758
 2648SOL     OW 7956   2.412   3.920   0.885
 2648SOL    HW1 7957   2.407   3.915   0.985
 2648SOL    HW2 7958   2.414   4.016   0.856
 2649SOL     OW 7959   3.657   4.790   0.873
 2649SOL    HW1 7960   3.595   4.775   0.797
 2649SOL    HW2 7961   3.605   4.801   0.958
 2650SOL     OW 7962   2.183   4.667   0.242
 2650SOL    HW1 7963   2.265   4.706   0.200
 2650SOL    HW2 7964   2.156   4.585   0.193
 2651SOL     OW 7965   3.320   4.459   0.728
 2651SOL    HW1 7966   3.315   4.394   0.803
 2651SOL    HW2 7967   3.400   4.518   0.741
 2652SOL     OW 7968   2.064   4.009   1.498
 2652SOL    HW1 7969   1.984   4.069   1.485
 2652SOL    HW2 7970   2.054   3.960   1.584
 2653SOL     OW 7971   3.262   3.831   0.426
 2653SOL    HW1 7972   3.238   3.794   0.336
 2653SOL    HW2 7973   3.361   3.847   0.430
 2654SOL     OW 7974   2.244   4.424   0.480
 2654SOL    HW1 7975   2.289   4.334   0.477
 2654SOL    HW2 7976   2.150   4.413   0.513
 2655SOL     OW 7977   3.409   3.946   1.729
 2655SOL    HW1 7978   3.404   3.983   1.821
 2655SOL    HW2 7979   3.337   3.877   1.717
 2656SOL     OW 7980   2.476   3.846   0.117
 2656SOL    HW1 7981   2.574   3.824   0.124
 2656SOL    HW2 7982   2.445   3.829   0.024
 2657SOL     OW 7983   2.643   3.988   1.749
 2657SOL    HW1 7984   2.710   3.927   1.792
 2657SOL    HW2 7985   2.570   4.007   1.814
 2658SOL     OW 7986   3.213   4.314   1.433
 2658SOL    HW1 7987   3.241   4.271   1.518
 2658SOL    HW2 7988   3.238   4.410   1.434
 2659SOL     OW 7989   2.784   4.227   0.899
 2659SOL    HW1 7990   2.759   4.218   0.803
 2659SOL    HW2 7991   2.832   4.145   0.930
 2660SOL     OW 7992   2.401   3.788   0.512
 2660SOL    HW1 7993   2.320   3.789   0.570
 2660SOL    HW2 7994   2.404   3.871   0.457
 2661SOL     OW 7995   2.159   3.759   0.171
 2661SOL    HW1 7996   2.208   3.843   0.150
 2661SOL    HW2 7997   2.221   3.694   0.216
 2662SOL     OW 7998   2.797   3.960   0.480
 2662SOL    HW1 7999   2.749   4.001   0.402
 2662SOL    HW2 8000   2.896   3.958   0.461
 2663SOL     OW 8001   2.938   4.407   1.464
 2663SOL    HW1 8002   2.858   4.346   1.467
 2663SOL    HW2 8003   3.019   4.354   1.440
 2664SOL     OW 8004   2.321   4.876   0.741
 2664SOL    HW1 8005   2.250   4.849   0.806
 2664SOL    HW2 8006   2.295   4.848   0.648
 2665SOL     OW 8007   2.894   4.273   0.016
 2665SOL    HW1 8008   2.853   4.355  -0.023
 2665SOL    HW2 8009   2.958   4.299   0.089
 2666SOL     OW 8010   1.940   4.280   1.386
 2666SOL    HW1 8011   2.032   4.279   1.345
 2666SOL    HW2 8012   1.934   4.354   1.453
 2667SOL     OW 8013   2.423   3.946   1.147
 2667SOL    HW1 8014   2.461   3.862   1.184
 2667SOL    HW2 8015   2.335   3.965   1.191
 2668SOL     OW 8016   2.728   4.178   0.642
 2668SOL    HW1 8017   2.696   4.250   0.580
 2668SOL    HW2 8018   2.752   4.097   0.589
 2669SOL     OW 8019   2.879   3.763   0.753
 2669SOL    HW1 8020   2.807   3.768   0.684
 2669SOL    HW2 8021   2.855   3.694   0.822
 2670SOL     OW 8022   3.291   4.897   0.867
 2670SOL    HW1 8023   3.236   4.813   0.860
 2670SOL    HW2 8024   3.317   4.926   0.775
 2671SOL     OW 8025   3.328   4.314   0.992
 2671SOL    HW1 8026   3.298   4.219   0.999
 2671SOL    HW2 8027   3.401   4.330   1.058
 2672SOL     OW 8028   3.719   4.557   0.377
 2672SOL    HW1 8029   3.761   4.493   0.441
 2672SOL    HW2 8030   3.681   4.506   0.299
 2673SOL     OW 8031   3.252   4.299   0.078
 2673SOL    HW1 8032   3.198   4.278   0.159
 2673SOL    HW2 8033   3.343   4.258   0.087
 2674SOL     OW 8034   2.389   3.980   0.328
 2674SOL    HW1 8035   2.416   3.921   0.253
 2674SOL    HW2 8036   2.389   4.075   0.297
 2675SOL     OW 8037   3.616   4.947   1.588
 2675SOL    HW1 8038   3.707   4.908   1.575
 2675SOL    HW2 8039   3.624   5.043   1.612
 2676SOL     OW 8040   3.500   4.823   1.079
 2676SOL    HW1 8041   3.505   4.904   1.138
 2676SOL    HW2 8042   3.414   4.825   1.028
 2677SOL     OW 8043   2.777   3.813   1.402
 2677SOL    HW1 8044   2.802   3.793   1.307
 2677SOL    HW2 8045   2.849   3.869   1.444
 2678SOL     OW 8046   2.567   4.774   0.368
 2678SOL    HW1 8047   2.553   4.781   0.467
 2678SOL    HW2 8048   2.651   4.723   0.350
 2679SOL     OW 8049   2.272   4.537   1.251
 2679SOL    HW1 8050   2.358   4.549   1.301
 2679SOL    HW2 8051   2.230   4.450   1.278
 2680SOL     OW 8052   3.136   4.110   1.262
 2680SOL    HW1 8053   3.157   4.184   1.326
 2680SOL    HW2 8054   3.047   4.127   1.219
 2681SOL     OW 8055   2.229   4.824   0.501
 2681SOL    HW1 8056   2.222   4.907   0.445
 2681SOL    HW2 8057   2.233   4.744   0.441
 2682SOL     OW 8058   2.428   4.261   0.865
 2682SOL    HW1 8059   2.440   4.327   0.791
 2682SOL    HW2 8060   2.474   4.295   0.948
 2683SOL     OW 8061   3.444   4.363   0.472
 2683SOL    HW1 8062   3.413   4.424   0.545
 2683SOL    HW2 8063   3.494   4.415   0.403
 2684SOL     OW 8064   2.264   4.475   1.598
 2684SOL    HW1 8065   2.332   4.530   1.551
 2684SOL    HW2 8066   2.304   4.387   1.625
 2685SOL     OW 8067   3.449   4.503   1.670
 2685SOL    HW1 8068   3.357   4.541   1.665
 2685SOL    HW2 8069   3.509   4.550   1.605
 2686SOL     OW 8070   2.875   3.829   1.770
 2686SOL    HW1 8071   2.881   3.914   1.718
 2686SOL    HW2 8072   2.907   3.753   1.713
 2687SOL     OW 8073   2.366   3.774   1.740
 2687SOL    HW1 8074   2.324   3.717   1.670
 2687SOL    HW2 8075   2.300   3.843   1.772
 2688SOL     OW 8076   2.435   4.594   1.029
 2688SOL    HW1 8077   2.479   4.683   1.020
 2688SOL    HW2 8078   2.372   4.594   1.106
 2689SOL     OW 8079   3.222   4.586   1.045
 2689SOL    HW1 8080   3.147   4.586   0.979
 2689SOL    HW2 8081   3.259   4.494   1.054
 2690SOL     OW 8082   3.071   4.249   0.275
 2690SOL    HW1 8083   3.084   4.165   0.329
 2690SOL    HW2 8084   3.042   4.323   0.335
 2691SOL     OW 8085   2.169   3.937   1.231
 2691SOL    HW1 8086   2.146   3.974   1.321
 2691SOL    HW2 8087   2.139   3.842   1.225
 2692SOL     OW 8088   2.594   4.358   1.064
 2692SOL    HW1 8089   2.653   4.332   0.988
 2692SOL    HW2 8090   2.566   4.454   1.053
 2693SOL     OW 8091   3.590   4.659   1.854
 2693SOL    HW1 8092   3.544   4.652   1.765
 2693SOL    HW2 8093   3.528   4.703   1.920
 2694SOL     OW 8094   2.169   3.787   0.618
 2694SOL    HW1 8095   2.158   3.881   0.651
 2694SOL    HW2 8096   2.164   3.724   0.695
 2695SOL     OW 8097   3.484   4.091   0.374
 2695SOL    HW1 8098   3.486   4.015   0.438
 2695SOL    HW2 8099   3.436   4.168   0.414
 2696SOL     OW 8100   2.885   4.490   0.966
 2696SOL    HW1 8101   2.900   4.511   1.062
 2696SOL    HW2 8102   2.855   4.395   0.957
 2697SOL     OW 8103   2.212   4.622   1.804
 2697SOL    HW1 8104   2.288   4.666   1.852
 2697SOL    HW2 8105   2.247   4.575   1.722
 2698SOL     OW 8106   3.402   3.998   0.125
 2698SOL    HW1 8107   3.341   3.923   0.148
 2698SOL    HW2 8108   3.424   4.050   0.208
 2699SOL     OW 8109   3.165   4.562   0.042
 2699SOL    HW1 8110   3.199   4.469   0.057
 2699SOL    HW2 8111   3.183   4.589  -0.053
 2700SOL     OW 8112   2.181   4.534   0.949
 2700SOL    HW1 8113   2.274   4.570   0.954
 2700SOL    HW2 8114   2.175   4.449   1.001
 2701SOL     OW 8115   2.201   4.233   1.006
 2701SOL    HW1 8116   2.149   4.150   0.989
 2701SOL    HW2 8117   2.278   4.238   0.942
 2702SOL     OW 8118   3.000   4.104   1.678
 2702SOL    HW1 8119   2.955   4.167   1.742
 2702SOL    HW2 8120   3.093   4.135   1.661
 2703SOL     OW 8121   3.022   3.931   1.477
 2703SOL    HW1 8122   3.022   3.995   1.554
 2703SOL    HW2 8123   3.050   3.979   1.394
 2704SOL     OW 8124   2.864   4.520   1.238
 2704SOL    HW1 8125   2.905   4.488   1.324
 2704SOL    HW2 8126   2.768   4.493   1.235
 2705SOL     OW 8127   1.902   4.268   1.114
 2705SOL    HW1 8128   1.987   4.235   1.073
 2705SOL    HW2 8129   1.915   4.283   1.212
 2706SOL     OW 8130   2.051   4.244   1.722
 2706SOL    HW1 8131   2.110   4.204   1.652
 2706SOL    HW2 8132   1.993   4.315   1.681
 2707SOL     OW 8133   3.231   4.674   1.660
 2707SOL    HW1 8134   3.270   4.763   1.680
 2707SOL    HW2 8135   3.241   4.654   1.563
 2708SOL     OW 8136   2.677   4.296   0.325
 2708SOL    HW1 8137   2.684   4.207   0.279
 2708SOL    HW2 8138   2.583   4.330   0.317
 2709SOL     OW 8139   3.519   4.328   1.206
 2709SOL    HW1 8140   3.481   4.259   1.268
 2709SOL    HW2 8141   3.601   4.292   1.162
 2710SOL     OW 8142   2.533   4.188   1.269
 2710SOL    HW1 8143   2.499   4.099   1.239
 2710SOL    HW2 8144   2.559   4.242   1.189
 2711SOL     OW 8145   2.335   4.224   0.191
 2711SOL    HW1 8146   2.396   4.304   0.195
 2711SOL    HW2 8147   2.240   4.255   0.198
 2712SOL     OW 8148   2.021   4.861   1.466
 2712SOL    HW1 8149   2.043   4.800   1.542
 2712SOL    HW2 8150   2.031   4.812   1.380
 2713SOL     OW 8151   3.209   4.783   1.234
 2713SOL    HW1 8152   3.233   4.720   1.160
 2713SOL    HW2 8153   3.119   4.823   1.216
 2714SOL     OW 8154   3.164   4.579   0.309
 2714SOL    HW1 8155   3.078   4.548   0.351
 2714SOL    HW2 8156   3.160   4.565   0.210
 2715SOL     OW 8157   2.765   3.810   0.133
 2715SOL    HW1 8158   2.816   3.811   0.047
 2715SOL    HW2 8159   2.821   3.768   0.204
 2716SOL     OW 8160   3.588   3.859   0.523
 2716SOL    HW1 8161   3.661   3.842   0.456
 2716SOL    HW2 8162   3.557   3.772   0.561
 2717SOL     OW 8163   3.142   4.651   0.672
 2717SOL    HW1 8164   3.202   4.570   0.674
 2717SOL    HW2 8165   3.182   4.720   0.612
 2718SOL     OW 8166   3.703   3.899   0.963
 2718SOL    HW1 8167   3.742   3.814   0.927
 2718SOL    HW2 8168   3.605   3.901   0.944
 2719SOL     OW 8169   2.125   4.050   0.720
 2719SOL    HW1 8170   2.046   4.101   0.686
 2719SOL    HW2 8171   2.116   4.035   0.818
 2720SOL     OW 8172   2.684   4.726   1.372
 2720SOL    HW1 8173   2.724   4.725   1.280
 2720SOL    HW2 8174   2.694   4.818   1.412
 2721SOL     OW 8175   2.778   4.634   0.291
 2721SOL    HW1 8176   2.841   4.672   0.223
 2721SOL    HW2 8177   2.818   4.551   0.330
 2722SOL     OW 8178   2.234   5.012   1.490
 2722SOL    HW1 8179   2.221   5.105   1.456
 2722SOL    HW2 8180   2.150   4.960   1.477
 2723SOL     OW 8181   2.876   3.960   0.971
 2723SOL    HW1 8182   2.868   3.924   0.878
 2723SOL    HW2 8183   2.874   3.884   1.036
 2724SOL     OW 8184   3.571   4.109   1.381
 2724SOL    HW1 8185   3.644   4.178   1.385
 2724SOL    HW2 8186   3.599   4.034   1.322
 2725SOL     OW 8187   1.967   4.737   1.726
 2725SOL    HW1 8188   1.890   4.704   1.780
 2725SOL    HW2 8189   2.052   4.707   1.768
 2726SOL     OW 8190   2.534   3.927   1.489
 2726SOL    HW1 8191   2.624   3.911   1.449
 2726SOL    HW2 8192   2.542   3.932   1.588
 2727SOL     OW 8193   3.302   4.580   1.398
 2727SOL    HW1 8194   3.245   4.632   1.335
 2727SOL    HW2 8195   3.398   4.592   1.374
 2728SOL     OW 8196   1.934   3.890   0.318
 2728SOL    HW1 8197   1.917   3.973   0.264
 2728SOL    HW2 8198   2.024   3.853   0.296
 2729SOL     OW 8199   2.475   4.566   1.431
 2729SOL    HW1 8200   2.531   4.647   1.414
 2729SOL    HW2 8201   2.534   4.486   1.434
 2730SOL     OW 8202   2.578   4.289   1.708
 2730SOL    HW1 8203   2.597   4.354   1.782
 2730SOL    HW2 8204   2.638   4.209   1.717
 2731SOL     OW 8205   3.312   4.944   1.633
 2731SOL    HW1 8206   3.303   4.934   1.732
 2731SOL    HW2 8207   3.408   4.937   1.607
 2732SOL     OW 8208   3.536   4.607   1.254
 2732SOL    HW1 8209   3.509   4.518   1.217
 2732SOL    HW2 8210   3.537   4.675   1.181
 2733SOL     OW 8211   3.087   4.049   0.449
 2733SOL    HW1 8212   3.152   3.975   0.438
 2733SOL    HW2 8213   3.107   4.099   0.533
 2734SOL     OW 8214   2.456   4.469   0.652
 2734SOL    HW1 8215   2.506   4.554   0.633
 2734SOL    HW2 8216   2.368   4.471   0.604
 2735SOL     OW 8217   3.639   4.066   1.642
 2735SOL    HW1 8218   3.622   4.097   1.548
 2735SOL    HW2 8219   3.555   4.029   1.680
 2736SOL     OW 8220   3.592   4.658   1.517
 2736SOL    HW1 8221   3.630   4.749   1.532
 2736SOL    HW2 8222   3.584   4.641   1.418
 2737SOL     OW 8223   2.721   4.680   0.861
 2737SOL    HW1 8224   2.775   4.611   0.909
 2737SOL    HW2 8225   2.689   4.749   0.927
 2738SOL     OW 8226   2.945   4.708   0.087
 2738SOL    HW1 8227   2.922   4.761   0.005
 2738SOL    HW2 8228   3.026   4.652   0.068
 2739SOL     OW 8229   1.941   4.964   0.653
 2739SOL    HW1 8230   1.940   4.917   0.741
 2739SOL    HW2 8231   2.023   4.936   0.602
 2740SOL     OW 8232   3.686   3.916   1.227
 2740SOL    HW1 8233   3.682   3.826   1.271
 2740SOL    HW2 8234   3.689   3.905   1.128
 2741SOL     OW 8235   2.290   4.148   0.520
 2741SOL    HW1 8236   2.320   4.076   0.458
 2741SOL    HW2 8237   2.251   4.108   0.603
 2742SOL     OW 8238   2.179   4.271   1.280
 2742SOL    HW1 8239   2.217   4.212   1.352
 2742SOL    HW2 8240   2.219   4.245   1.192
 2743SOL     OW 8241   3.286   3.938   1.112
 2743SOL    HW1 8242   3.338   3.873   1.167
 2743SOL    HW2 8243   3.237   4.001   1.173
 2744SOL     OW 8244   2.863   3.758   1.154
 2744SOL    HW1 8245   2.800   3.686   1.123
 2744SOL    HW2 8246   2.956   3.722   1.154
 2745SOL     OW 8247   2.632   5.054   0.301
 2745SOL    HW1 8248   2.586   4.967   0.318
 2745SOL    HW2 8249   2.723   5.051   0.342
 2746SOL     OW 8250   3.214   3.776   0.168
 2746SOL    HW1 8251   3.249   3.735   0.084
 2746SOL    HW2 8252   3.124   3.738   0.188
 2747SOL     OW 8253   3.162   4.177   0.691
 2747SOL    HW1 8254   3.103   4.257   0.695
 2747SOL    HW2 8255   3.177   4.142   0.784
 2748SOL     OW 8256   3.455   3.945   0.882
 2748SOL    HW1 8257   3.371   3.944   0.936
 2748SOL    HW2 8258   3.457   4.028   0.826
 2749SOL     OW 8259   2.092   4.352   1.975
 2749SOL    HW1 8260   1.999   4.350   2.012
 2749SOL    HW2 8261   2.093   4.313   1.883
 2750SOL     OW 8262   2.087   3.999   2.858
 2750SOL    HW1 8263   2.122   3.982   2.950
 2750SOL    HW2 8264   1.999   3.954   2.846
 2751SOL     OW 8265   1.881   4.092   2.509
 2751SOL    HW1 8266   1.799   4.135   2.548
 2751SOL    HW2 8267   1.853   4.019   2.446
 2752SOL     OW 8268   2.997   4.427   2.579
 2752SOL    HW1 8269   3.054   4.505   2.554
 2752SOL    HW2 8270   2.937   4.453   2.655
 2753SOL     OW 8271   3.617   4.331   2.093
 2753SOL    HW1 8272   3.605   4.318   1.994
 2753SOL    HW2 8273   3.587   4.250   2.142
 2754SOL     OW 8274   2.630   4.868   2.885
 2754SOL    HW1 8275   2.552   4.885   2.945
 2754SOL    HW2 8276   2.664   4.955   2.849
 2755SOL     OW 8277   2.712   4.522   3.685
 2755SOL    HW1 8278   2.708   4.598   3.750
 2755SOL    HW2 8279   2.734   4.558   3.594
 2756SOL     OW 8280   2.547   4.736   2.527
 2756SOL    HW1 8281   2.616   4.720   2.597
 2756SOL    HW2 8282   2.474   4.793   2.565
 2757SOL     OW 8283   3.322   5.229   3.201
 2757SOL    HW1 8284   3.346   5.323   3.227
 2757SOL    HW2 8285   3.306   5.175   3.283
 2758SOL     OW 8286   2.300   4.116   3.361
 2758SOL    HW1 8287   2.382   4.060   3.370
 2758SOL    HW2 8288   2.219   4.058   3.365
 2759SOL     OW 8289   3.465   4.171   2.599
 2759SOL    HW1 8290   3.391   4.217   2.549
 2759SOL    HW2 8291   3.516   4.239   2.652
 2760SOL     OW 8292   2.102   4.815   2.748
 2760SOL    HW1 8293   2.116   4.731   2.800
 2760SOL    HW2 8294   2.047   4.879   2.803
 2761SOL     OW 8295   2.468   4.688   1.985
 2761SOL    HW1 8296   2.475   4.772   1.931
 2761SOL    HW2 8297   2.514   4.701   2.073
 2762SOL     OW 8298   3.456   3.838   3.342
 2762SOL    HW1 8299   3.438   3.905   3.270
 2762SOL    HW2 8300   3.453   3.884   3.431
 2763SOL     OW 8301   1.984   4.367   2.425
 2763SOL    HW1 8302   1.939   4.279   2.442
 2763SOL    HW2 8303   1.983   4.421   2.509
 2764SOL     OW 8304   3.551   4.646   2.474
 2764SOL    HW1 8305   3.646   4.617   2.482
 2764SOL    HW2 8306   3.543   4.711   2.399
 2765SOL     OW 8307   1.975   4.461   3.459
 2765SOL    HW1 8308   2.063   4.448   3.504
 2765SOL    HW2 8309   1.962   4.558   3.437
 2766SOL     OW 8310   2.475   5.089   2.588
 2766SOL    HW1 8311   2.426   5.002   2.597
 2766SOL    HW2 8312   2.452   5.132   2.501
 2767SOL     OW 8313   3.155   4.952   3.285
 2767SOL    HW1 8314   3.192   4.879   3.227
 2767SOL    HW2 8315   3.207   4.957   3.370
 2768SOL     OW 8316   2.671   3.728   2.364
 2768SOL    HW1 8317   2.711   3.819   2.355
 2768SOL    HW2 8318   2.571   3.736   2.370
 2769SOL     OW 8319   2.059   4.700   3.126
 2769SOL    HW1 8320   2.148   4.655   3.112
 2769SOL    HW2 8321   1.986   4.635   3.107
 2770SOL     OW 8322   3.387   4.723   2.052
 2770SOL    HW1 8323   3.324   4.647   2.065
 2770SOL    HW2 8324   3.435   4.741   2.138
 2771SOL     OW 8325   2.179   3.975   3.663
 2771SOL    HW1 8326   2.250   4.046   3.669
 2771SOL    HW2 8327   2.091   4.014   3.691
 2772SOL     OW 8328   2.460   4.453   2.132
 2772SOL    HW1 8329   2.484   4.522   2.064
 2772SOL    HW2 8330   2.382   4.486   2.186
 2773SOL     OW 8331   3.143   4.069   2.806
 2773SOL    HW1 8332   3.057   4.019   2.793
 2773SOL    HW2 8333   3.205   4.015   2.862
 2774SOL     OW 8334   2.669   4.329   3.327
 2774SOL    HW1 8335   2.622   4.326   3.416
 2774SOL    HW2 8336   2.618   4.274   3.261
 2775SOL     OW 8337   3.256   4.193   3.536
 2775SOL    HW1 8338   3.236   4.236   3.624
 2775SOL    HW2 8339   3.334   4.131   3.545
 2776SOL     OW 8340   2.835   4.614   3.434
 2776SOL    HW1 8341   2.881   4.530   3.405
 2776SOL    HW2 8342   2.779   4.648   3.359
 2777SOL     OW 8343   2.853   4.134   3.104
 2777SOL    HW1 8344   2.776   4.168   3.158
 2777SOL    HW2 8345   2.819   4.083   3.025
 2778SOL     OW 8346   2.903   4.425   2.291
 2778SOL    HW1 8347   2.929   4.421   2.387
 2778SOL    HW2 8348   2.818   4.374   2.277
 2779SOL     OW 8349   1.938   4.535   2.651
 2779SOL    HW1 8350   2.037   4.523   2.660
 2779SOL    HW2 8351   1.914   4.630   2.672
 2780SOL     OW 8352   2.727   4.072   2.057
 2780SOL    HW1 8353   2.786   4.135   2.008
 2780SOL    HW2 8354   2.746   3.978   2.028
 2781SOL     OW 8355   3.581   4.309   3.693
 2781SOL    HW1 8356   3.555   4.398   3.657
 2781SOL    HW2 8357   3.579   4.241   3.620
 2782SOL     OW 8358   2.412   3.920   2.747
 2782SOL    HW1 8359   2.407   3.915   2.847
 2782SOL    HW2 8360   2.414   4.016   2.718
 2783SOL     OW 8361   3.657   4.790   2.735
 2783SOL    HW1 8362   3.595   4.775   2.659
 2783SOL    HW2 8363   3.605   4.801   2.820
 2784SOL     OW 8364   2.183   4.667   2.104
 2784SOL    HW1 8365   2.265   4.706   2.062
 2784SOL    HW2 8366   2.156   4.585   2.055
 2785SOL     OW 8367   3.320   4.459   2.590
 2785SOL    HW1 8368   3.315   4.394   2.665
 2785SOL    HW2 8369   3.400   4.518   2.603
 2786SOL     OW 8370   2.064   4.009   3.360
 2786SOL    HW1 8371   1.984   4.069   3.347
 2786SOL    HW2 8372   2.054   3.960   3.446
 2787SOL     OW 8373   3.262   3.831   2.288
 2787SOL    HW1 8374   3.238   3.794   2.198
 2787SOL    HW2 8375   3.361   3.847   2.292
 2788SOL     OW 8376   2.244   4.424   2.342
 2788SOL    HW1 8377   2.289   4.334   2.339
 2788SOL    HW2 8378   2.150   4.413   2.375
 2789SOL     OW 8379   3.409   3.946   3.591
 2789SOL    HW1 8380   3.404   3.983   3.683
 2789SOL    HW2 8381   3.337   3.877   3.579
 2790SOL     OW 8382   2.476   3.846   1.979
 2790SOL    HW1 8383   2.574   3.824   1.986
 2790SOL    HW2 8384   2.445   3.829   1.886
 2791SOL     OW 8385   2.643   3.988   3.611
 2791SOL    HW1 8386   2.710   3.927   3.654
 2791SOL    HW2 8387   2.570   4.007   3.676
 2792SOL     OW 8388   3.213   4.314   3.295
 2792SOL    HW1 8389   3.241   4.271   3.380
 2792SOL    HW2 8390   3.238   4.410   3.296
 2793SOL     OW 8391   2.784   4.227   2.761
 2793SOL    HW1 8392   2.759   4.218   2.665
 2793SOL    HW2 8393   2.832   4.145   2.792
 2794SOL     OW 8394   2.401   3.788   2.374
 2794SOL    HW1 8395   2.320   3.789   2.432
 2794SOL    HW2 8396   2.404   3.871   2.319
 2795SOL     OW 8397   2.159   3.759   2.033
 2795SOL    HW1 8398   2.208   3.843   2.012
 2795SOL    HW2 8399   2.221   3.694   2.078
 2796SOL     OW 8400   2.797   3.960   2.342
 2796SOL    HW1 8401   2.749   4.001   2.264
 2796SOL    HW2 8402   2.896   3.958   2.323
 2797SOL     OW 8403   2.938   4.407   3.326
 2797SOL    HW1 8404   2.858   4.346   3.329
 2797SOL    HW2 8405   3.019   4.354   3.302
 2798SOL     OW 8406   2.321   4.876   2.603
 2798SOL    HW1 8407   2.250   4.849   2.668
 2798SOL    HW2 8408   2.295   4.848   2.510
 2799SOL     OW 8409   2.894   4.273   1.878
 2799SOL    HW1 8410   2.853   4.355   1.839
 2799SOL    HW2 8411   2.958   4.299   1.951
 2800SOL     OW 8412   1.940   4.280   3.248
 2800SOL    HW1 8413   2.032   4.279   3.207
 2800SOL    HW2 8414   1.934   4.354   3.315
 2801SOL     OW 8415   2.423   3.946   3.009
 2801SOL    HW1 8416   2.461   3.862   3.046
 2801SOL    HW2 8417   2.335   3.965   3.053
 2802SOL     OW 8418   2.728   4.178   2.504
 2802SOL    HW1 8419   2.696   4.250   2.442
 2802SOL    HW2 8420   2.752   4.097   2.451
 2803SOL     OW 8421   2.879   3.763   2.615
 2803SOL    HW1 8422   2.807   3.768   2.546
 2803SOL    HW2 8423   2.855   3.694   2.684
 2804SOL     OW 8424   3.291   4.897   2.729
 2804SOL    HW1 8425   3.236   4.813   2.722
 2804SOL    HW2 8426   3.317   4.926   2.637
 2805SOL     OW 8427   3.328   4.314   2.854
 2805SOL    HW1 8428   3.298   4.219   2.861
 2805SOL    HW2 8429   3.401   4.330   2.920
 2806SOL     OW 8430   3.719   4.557   2.239
 2806SOL    HW1 8431   3.761   4.493   2.303
 2806SOL    HW2 8432   3.681   4.506   2.161
 2807SOL     OW 8433   3.252   4.299   1.940
 2807SOL    HW1 8434   3.198   4.278   2.021
 2807SOL    HW2 8435   3.343   4.258   1.949
 2808SOL     OW 8436   2.389   3.980   2.190
 2808SOL    HW1 8437   2.416   3.921   2.115
 2808SOL    HW2 8438   2.389   4.075   2.159
 2809SOL     OW 8439   3.616   4.947   3.450
 2809SOL    HW1 8440   3.707   4.908   3.437
 2809SOL    HW2 8441   3.624   5.043   3.474
 2810SOL     OW 8442   3.500   4.823   2.941
 2810SOL    HW1 8443   3.505   4.904   3.000
 2810SOL    HW2 8444   3.414   4.825   2.890
 2811SOL     OW 8445   2.777   3.813   3.264
 2811SOL    HW1 8446   2.802   3.793   3.169
 2811SOL    HW2 8447   2.849   3.869   3.306
 2812SOL     OW 8448   2.567   4.774   2.230
 2812SOL    HW1 8449   2.553   4.781   2.329
 2812SOL    HW2 8450   2.651   4.723   2.212
 2813SOL     OW 8451   2.272   4.537   3.113
 2813SOL    HW1 8452   2.358   4.549   3.163
 2813SOL    HW2 8453   2.230   4.450   3.140
 2814SOL     OW 8454   3.136   4.110   3.124
 2814SOL    HW1 8455   3.157   4.184   3.188
 2814SOL    HW2 8456   3.047   4.127   3.081
 2815SOL     OW 8457   2.229   4.824   2.363
 2815SOL    HW1 8458   2.222   4.907   2.307
 2815SOL    HW2 8459   2.233   4.744   2.303
 2816SOL     OW 8460   2.428   4.261   2.727
 2816SOL    HW1 8461   2.440   4.327   2.653
 2816SOL    HW2 8462   2.474   4.295   2.810
 2817SOL     OW 8463   3.444   4.363   2.334
 2817SOL    HW1 8464   3.413   4.424   2.407
 2817SOL    HW2 8465   3.494   4.415   2.265
 2818SOL     OW 8466   2.264   4.475   3.460
 2818SOL    HW1 8467   2.332   4.530   3.413
 2818SOL    HW2 8468   2.304   4.387   3.487
 2819SOL     OW 8469   3.449   4.503   3.532
 2819SOL    HW1 8470   3.357   4.541   3.527
 2819SOL    HW2 8471   3.509   4.550   3.467
 2820SOL     OW 8472   2.875   3.829   3.632
 2820SOL    HW1 8473   2.881   3.914   3.580
 2820SOL    HW2 8474   2.907   3.753   3.575
 2821SOL     OW 8475   2.366   3.774   3.602
 2821SOL    HW1 8476   2.324   3.717   3.532
 2821SOL    HW2 8477   2.300   3.843   3.634
 2822SOL     OW 8478   2.435   4.594   2.891
 2822SOL    HW1 8479   2.479   4.683   2.882
 2822SOL    HW2 8480   2.372   4.594   2.968
 2823SOL     OW 8481   3.222   4.586   2.907
 2823SOL    HW1 8482   3.147   4.586   2.841
 2823SOL    HW2 8483   3.259   4.494   2.916
 2824SOL     OW 8484   3.071   4.249   2.137
 2824SOL    HW1 8485   3.084   4.165   2.191
 2824SOL    HW2 8486   3.042   4.323   2.197
 2825SOL     OW 8487   2.169   3.937   3.093
 2825SOL    HW1 8488   2.146   3.974   3.183
 2825SOL    HW2 8489   2.139   3.842   3.087
 2826SOL     OW 8490   2.594   4.358   2.926
 2826SOL    HW1 8491   2.653   4.332   2.850
 2826SOL    HW2 8492   2.566   4.454   2.915
 2827SOL     OW 8493   3.590   4.659   3.716
 2827SOL    HW1 8494   3.544   4.652   3.627
 2827SOL    HW2 8495   3.528   4.703   3.782
 2828SOL     OW 8496   2.169   3.787   2.480
 2828SOL    HW1 8497   2.158   3.881   2.513
 2828SOL    HW2 8498   2.164   3.724   2.557
 2829SOL     OW 8499   3.484   4.091   2.236
 2829SOL    HW1 8500   3.486   4.015   2.300
 2829SOL    HW2 8501   3.436   4.168   2.276
 2830SOL     OW 8502   2.885   4.490   2.828
 2830SOL    HW1 8503   2.900   4.511   2.924
 2830SOL    HW2 8504   2.855   4.395   2.819
 2831SOL     OW 8505   2.212   4.622   3.666
 2831SOL    HW1 8506   2.288   4.666   3.714
 2831SOL    HW2 8507   2.247   4.575   3.584
 2832SOL     OW 8508   3.402   3.998   1.987
 2832SOL    HW1 8509   3.341   3.923   2.010
 2832SOL    HW2 8510   3.424   4.050   2.070
 2833SOL     OW 8511   3.165   4.562   1.904
 2833SOL    HW1 8512   3.199   4.469   1.919
 2833SOL    HW2 8513   3.183   4.589   1.809
 2834SOL     OW 8514   2.181   4.534   2.811
 2834SOL    HW1 8515   2.274   4.570   2.816
 2834SOL    HW2 8516   2.175   4.449   2.863
 2835SOL     OW 8517   2.201   4.233   2.868
 2835SOL    HW1 8518   2.149   4.150   2.851
 2835SOL    HW2 8519   2.278   4.238   2.804
 2836SOL     OW 8520   3.000   4.104   3.540
 2836SOL    HW1 8521   2.955   4.167   3.604
 2836SOL    HW2 8522   3.093   4.135   3.523
 2837SOL     OW 8523   3.022   3.931   3.339
 2837SOL    HW1 8524   3.022   3.995   3.416
 2837SOL    HW2 8525   3.050   3.979   3.256
 2838SOL     OW 8526   2.864   4.520   3.100
 2838SOL    HW1 8527   2.905   4.488   3.186
 2838SOL    HW2 8528   2.768   4.493   3.097
 2839SOL     OW 8529   1.902   4.268   2.976
 2839SOL    HW1 8530   1.987   4.235   2.935
 2839SOL    HW2 8531   1.915   4.283   3.074
 2840SOL     OW 8532   2.051   4.244   3.584
 2840SOL    HW1 8533   2.110   4.204   3.514
 2840SOL    HW2 8534   1.993   4.315   3.543
 2841SOL     OW 8535   3.231   4.674   3.522
 2841SOL    HW1 8536   3.270   4.763   3.542
 2841SOL    HW2 8537   3.241   4.654   3.425
 2842SOL     OW 8538   2.677   4.296   2.187
 2842SOL    HW1 8539   2.684   4.207   2.141
 2842SOL    HW2 8540   2.583   4.330   2.179
 2843SOL     OW 8541   3.519   4.328   3.068
 2843SOL    HW1 8542   3.481   4.259   3.130
 2843SOL    HW2 8543   3.601   4.292   3.024
 2844SOL     OW 8544   2.533   4.188   3.131
 2844SOL    HW1 8545   2.499   4.099   3.101
 2844SOL    HW2 8546   2.559   4.242   3.051
 2845SOL     OW 8547   2.335   4.224   2.053
 2845SOL    HW1 8548   2.396   4.304   2.057
 2845SOL    HW2 8549   2.240   4.255   2.060
 2846SOL     OW 8550   2.021   4.861   3.328
 2846SOL    HW1 8551   2.043   4.800   3.404
 2846SOL    HW2 8552   2.031   4.812   3.242
 2847SOL     OW 8553   3.209   4.783   3.096
 2847SOL    HW1 8554   3.233   4.720   3.022
 2847SOL    HW2 8555   3.119   4.823   3.078
 2848SOL     OW 8556   3.164   4.579   2.171
 2848SOL    HW1 8557   3.078   4.548   2.213
 2848SOL    HW2 8558   3.160   4.565   2.072
 2849SOL     OW 8559   3.588   3.859   2.385
 2849SOL    HW1 8560   3.661   3.842   2.318
 2849SOL    HW2 8561   3.557   3.772   2.423
 2850SOL     OW 8562   3.142   4.651   2.534
 2850SOL    HW1 8563   3.202   4.570   2.536
 2850SOL    HW2 8564   3.182   4.720   2.474
 2851SOL     OW 8565   3.703   3.899   2.825
 2851SOL    HW1 8566   3.742   3.814   2.789
 2851SOL    HW2 8567   3.605   3.901   2.806
 2852SOL     OW 8568   2.125   4.050   2.582
 2852SOL    HW1 8569   2.046   4.101   2.548
 2852SOL    HW2 8570   2.116   4.035   2.680
 2853SOL     OW 8571   2.684   4.726   3.234
 2853SOL    HW1 8572   2.724   4.725   3.142
 2853SOL    HW2 8573   2.694   4.818   3.274
 2854SOL     OW 8574   2.778   4.634   2.153
 2854SOL    HW1 8575   2.841   4.672   2.085
 2854SOL    HW2 8576   2.818   4.551   2.192
 2855SOL     OW 8577   2.234   5.012   3.352
 2855SOL    HW1 8578   2.221   5.105   3.318
 2855SOL    HW2 8579   2.150   4.960   3.339
 2856SOL     OW 8580   2.876   3.960   2.833
 2856SOL    HW1 8581   2.868   3.924   2.740
 2856SOL    HW2 8582   2.874   3.884   2.898
 2857SOL     OW 8583   3.571   4.109   3.243
 2857SOL    HW1 8584   3.644   4.178   3.247
 2857SOL    HW2 8585   3.599   4.034   3.184
 2858SOL     OW 8586   1.967   4.737   3.588
 2858SOL    HW1 8587   1.890   4.704   3.642
 2858SOL    HW2 8588   2.052   4.707   3.630
 2859SOL     OW 8589   2.534   3.927   3.351
 2859SOL    HW1 8590   2.624   3.911   3.311
 2859SOL    HW2 8591   2.542   3.932   3.450
 2860SOL     OW 8592   1.937   4.069   1.895
 2860SOL    HW1 8593   1.845   4.041   1.866
 2860SOL    HW2 8594   1.968   4.146   1.839
 2861SOL     OW 8595   3.302   4.580   3.260
 2861SOL    HW1 8596   3.245   4.632   3.197
 2861SOL    HW2 8597   3.398   4.592   3.236
 2862SOL     OW 8598   1.934   3.890   2.180
 2862SOL    HW1 8599   1.917   3.973   2.126
 2862SOL    HW2 8600   2.024   3.853   2.158
 2863SOL     OW 8601   2.475   4.566   3.293
 2863SOL    HW1 8602   2.531   4.647   3.276
 2863SOL    HW2 8603   2.534   4.486   3.296
 2864SOL     OW 8604   2.578   4.289   3.570
 2864SOL    HW1 8605   2.597   4.354   3.644
 2864SOL    HW2 8606   2.638   4.209   3.579
 2865SOL     OW 8607   3.312   4.944   3.495
 2865SOL    HW1 8608   3.303   4.934   3.594
 2865SOL    HW2 8609   3.408   4.937   3.469
 2866SOL     OW 8610   3.536   4.607   3.116
 2866SOL    HW1 8611   3.509   4.518   3.079
 2866SOL    HW2 8612   3.537   4.675   3.043
 2867SOL     OW 8613   3.087   4.049   2.311
 2867SOL    HW1 8614   3.152   3.975   2.300
 2867SOL    HW2 8615   3.107   4.099   2.395
 2868SOL     OW 8616   2.456   4.469   2.514
 2868SOL    HW1 8617   2.506   4.554   2.495
 2868SOL    HW2 8618   2.368   4.471   2.466
 2869SOL     OW 8619   3.639   4.066   3.504
 2869SOL    HW1 8620   3.622   4.097   3.410
 2869SOL    HW2 8621   3.555   4.029   3.542
 2870SOL     OW 8622   3.592   4.658   3.379
 2870SOL    HW1 8623   3.630   4.749   3.394
 2870SOL    HW2 8624   3.584   4.641   3.280
 2871SOL     OW 8625   2.721   4.680   2.723
 2871SOL    HW1 8626   2.775   4.611   2.771
 2871SOL    HW2 8627   2.689   4.749   2.789
 2872SOL     OW 8628   2.945   4.708   1.949
 2872SOL    HW1 8629   2.922   4.761   1.867
 2872SOL    HW2 8630   3.026   4.652   1.930
 2873SOL     OW 8631   1.941   4.964   2.515
 2873SOL    HW1 8632   1.940   4.917   2.603
 2873SOL    HW2 8633   2.023   4.936   2.464
 2874SOL     OW 8634   3.686   3.916   3.089
 2874SOL    HW1 8635   3.682   3.826   3.133
 2874SOL    HW2 8636   3.689   3.905   2.990
 2875SOL     OW 8637   2.290   4.148   2.382
 2875SOL    HW1 8638   2.320   4.076   2.320
 2875SOL    HW2 8639   2.251   4.108   2.465
 2876SOL     OW 8640   2.179   4.271   3.142
 2876SOL    HW1 8641   2.217   4.212   3.214
 2876SOL    HW2 8642   2.219   4.245   3.054
 2877SOL     OW 8643   3.286   3.938   2.974
 2877SOL    HW1 8644   3.338   3.873   3.029
 2877SOL    HW2 8645   3.237   4.001   3.035
 2878SOL     OW 8646   2.863   3.758   3.016
 2878SOL    HW1 8647   2.800   3.686   2.985
 2878SOL    HW2 8648   2.956   3.722   3.016
 2879SOL     OW 8649   2.632   5.054   2.163
 2879SOL    HW1 8650   2.586   4.967   2.180
 2879SOL    HW2 8651   2.723   5.051   2.204
 2880SOL     OW 8652   3.214   3.776   2.030
 2880SOL    HW1 8653   3.249   3.735   1.946
 2880SOL    HW2 8654   3.124   3.738   2.050
 2881SOL     OW 8655   3.162   4.177   2.553
 2881SOL    HW1 8656   3.103   4.257   2.557
 2881SOL    HW2 8657   3.177   4.142   2.646
 2882SOL     OW 8658   3.455   3.945   2.744
 2882SOL    HW1 8659   3.371   3.944   2.798
 2882SOL    HW2 8660   3.457   4.028   2.688
 2883SOL     OW 8661   1.901   4.801   2.162
 2883SOL    HW1 8662   2.000   4.790   2.153
 2883SOL    HW2 8663   1.861   4.715   2.194
 2884SOL     OW 8664   2.092   4.352   3.837
 2884SOL    HW1 8665   1.999   4.350   3.874
 2884SOL    HW2 8666   2.093   4.313   3.745
 2885SOL     OW 8667   2.087   3.999   4.720
 2885SOL    HW1 8668   2.122   3.982   4.812
 2885SOL    HW2 8669   1.999   3.954   4.708
 2886SOL     OW 8670   1.881   4.092   4.371
 2886SOL    HW1 8671   1.799   4.135   4.410
 2886SOL    HW2 8672   1.853   4.019   4.308
 2887SOL     OW 8673   2.997   4.427   4.441
 2887SOL    HW1 8674   3.054   4.505   4.416
 2887SOL    HW2 8675   2.937   4.453   4.517
 2888SOL     OW 8676   3.617   4.331   3.955
 2888SOL    HW1 8677   3.605   4.318   3.856
 2888SOL    HW2 8678   3.587   4.250   4.004
 2889SOL     OW 8679   2.630   4.868   4.747
 2889SOL    HW1 8680   2.552   4.885   4.807
 2889SOL    HW2 8681   2.664   4.955   4.711
 2890SOL     OW 8682   2.547   4.736   4.389
 2890SOL    HW1 8683   2.616   4.720   4.459
 2890SOL    HW2 8684   2.474   4.793   4.427
 2891SOL     OW 8685   3.465   4.171   4.461
 2891SOL    HW1 8686   3.391   4.217   4.411
 2891SOL    HW2 8687   3.516   4.239   4.514
 2892SOL     OW 8688   2.102   4.815   4.610
 2892SOL    HW1 8689   2.116   4.731   4.662
 2892SOL    HW2 8690   2.047   4.879   4.665
 2893SOL     OW 8691   2.468   4.688   3.847
 2893SOL    HW1 8692   2.475   4.772   3.793
 2893SOL    HW2 8693   2.514   4.701   3.935
 2894SOL     OW 8694   1.984   4.367   4.287
 2894SOL    HW1 8695   1.939   4.279   4.304
 2894SOL    HW2 8696   1.983   4.421   4.371
 2895SOL     OW 8697   3.551   4.646   4.336
 2895SOL    HW1 8698   3.646   4.617   4.344
 2895SOL    HW2 8699   3.543   4.711   4.261
 2896SOL     OW 8700   2.475   5.089   4.450
 2896SOL    HW1 8701   2.426   5.002   4.459
 2896SOL    HW2 8702   2.452   5.132   4.363
 2897SOL     OW 8703   2.671   3.728   4.226
 2897SOL    HW1 8704   2.711   3.819   4.217
 2897SOL    HW2 8705   2.571   3.736   4.232
 2898SOL     OW 8706   2.059   4.700   4.988
 2898SOL    HW1 8707   2.148   4.655   4.974
 2898SOL    HW2 8708   1.986   4.635   4.969
 2899SOL     OW 8709   3.387   4.723   3.914
 2899SOL    HW1 8710   3.324   4.647   3.927
 2899SOL    HW2 8711   3.435   4.741   4.000
 2900SOL     OW 8712   2.460   4.453   3.994
 2900SOL    HW1 8713   2.484   4.522   3.926
 2900SOL    HW2 8714   2.382   4.486   4.048
 2901SOL     OW 8715   3.143   4.069   4.668
 2901SOL    HW1 8716   3.057   4.019   4.655
 2901SOL    HW2 8717   3.205   4.015   4.724
 2902SOL     OW 8718   2.903   4.425   4.153
 2902SOL    HW1 8719   2.929   4.421   4.249
 2902SOL    HW2 8720   2.818   4.374   4.139
 2903SOL     OW 8721   1.938   4.535   4.513
 2903SOL    HW1 8722   2.037   4.523   4.522
 2903SOL    HW2 8723   1.914   4.630   4.534
 2904SOL     OW 8724   2.727   4.072   3.919
 2904SOL    HW1 8725   2.786   4.135   3.870
 2904SOL    HW2 8726   2.746   3.978   3.890
 2905SOL     OW 8727   2.412   3.920   4.609
 2905SOL    HW1 8728   2.407   3.915   4.709
 2905SOL    HW2 8729   2.414   4.016   4.580
 2906SOL     OW 8730   3.657   4.790   4.597
 2906SOL    HW1 8731   3.595   4.775   4.521
 2906SOL    HW2 8732   3.605   4.801   4.682
 2907SOL     OW 8733   2.183   4.667   3.966
 2907SOL    HW1 8734   2.265   4.706   3.924
 2907SOL    HW2 8735   2.156   4.585   3.917
 2908SOL     OW 8736   3.320   4.459   4.452
 2908SOL    HW1 8737   3.315   4.394   4.527
 2908SOL    HW2 8738   3.400   4.518   4.465
 2909SOL     OW 8739   3.262   3.831   4.150
 2909SOL    HW1 8740   3.238   3.794   4.060
 2909SOL    HW2 8741   3.361   3.847   4.154
 2910SOL     OW 8742   2.244   4.424   4.204
 2910SOL    HW1 8743   2.289   4.334   4.201
 2910SOL    HW2 8744   2.150   4.413   4.237
 2911SOL     OW 8745   2.476   3.846   3.841
 2911SOL    HW1 8746   2.574   3.824   3.848
 2911SOL    HW2 8747   2.445   3.829   3.748
 2912SOL     OW 8748   2.750   5.238   4.919
 2912SOL    HW1 8749   2.727   5.213   4.825
 2912SOL    HW2 8750   2.811   5.169   4.958
 2913SOL     OW 8751   2.784   4.227   4.623
 2913SOL    HW1 8752   2.759   4.218   4.527
 2913SOL    HW2 8753   2.832   4.145   4.654
 2914SOL     OW 8754   2.401   3.788   4.236
 2914SOL    HW1 8755   2.320   3.789   4.294
 2914SOL    HW2 8756   2.404   3.871   4.181
 2915SOL     OW 8757   2.159   3.759   3.895
 2915SOL    HW1 8758   2.208   3.843   3.874
 2915SOL    HW2 8759   2.221   3.694   3.940
 2916SOL     OW 8760   2.797   3.960   4.204
 2916SOL    HW1 8761   2.749   4.001   4.126
 2916SOL    HW2 8762   2.896   3.958   4.185
 2917SOL     OW 8763   2.321   4.876   4.465
 2917SOL    HW1 8764   2.250   4.849   4.530
 2917SOL    HW2 8765   2.295   4.848   4.372
 2918SOL     OW 8766   2.894   4.273   3.740
 2918SOL    HW1 8767   2.853   4.355   3.701
 2918SOL    HW2 8768   2.958   4.299   3.813
 2919SOL     OW 8769   2.728   4.178   4.366
 2919SOL    HW1 8770   2.696   4.250   4.304
 2919SOL    HW2 8771   2.752   4.097   4.313
 2920SOL     OW 8772   2.879   3.763   4.477
 2920SOL    HW1 8773   2.807   3.768   4.408
 2920SOL    HW2 8774   2.855   3.694   4.546
 2921SOL     OW 8775   3.291   4.897   4.591
 2921SOL    HW1 8776   3.236   4.813   4.584
 2921SOL    HW2 8777   3.317   4.926   4.499
 2922SOL     OW 8778   3.328   4.314   4.716
 2922SOL    HW1 8779   3.298   4.219   4.723
 2922SOL    HW2 8780   3.401   4.330   4.782
 2923SOL     OW 8781   3.719   4.557   4.101
 2923SOL    HW1 8782   3.761   4.493   4.165
 2923SOL    HW2 8783   3.681   4.506   4.023
 2924SOL     OW 8784   3.252   4.299   3.802
 2924SOL    HW1 8785   3.198   4.278   3.883
 2924SOL    HW2 8786   3.343   4.258   3.811
 2925SOL     OW 8787   2.389   3.980   4.052
 2925SOL    HW1 8788   2.416   3.921   3.977
 2925SOL    HW2 8789   2.389   4.075   4.021
 2926SOL     OW 8790   2.973   4.919   4.824
 2926SOL    HW1 8791   2.933   4.963   4.905
 2926SOL    HW2 8792   2.932   4.956   4.741
 2927SOL     OW 8793   3.500   4.823   4.803
 2927SOL    HW1 8794   3.505   4.904   4.862
 2927SOL    HW2 8795   3.414   4.825   4.752
 2928SOL     OW 8796   2.567   4.774   4.092
 2928SOL    HW1 8797   2.553   4.781   4.191
 2928SOL    HW2 8798   2.651   4.723   4.074
 2929SOL     OW 8799   2.272   4.537   4.975
 2929SOL    HW1 8800   2.358   4.549   5.025
 2929SOL    HW2 8801   2.230   4.450   5.002
 2930SOL     OW 8802   2.229   4.824   4.225
 2930SOL    HW1 8803   2.222   4.907   4.169
 2930SOL    HW2 8804   2.233   4.744   4.165
 2931SOL     OW 8805   2.428   4.261   4.589
 2931SOL    HW1 8806   2.440   4.327   4.515
 2931SOL    HW2 8807   2.474   4.295   4.672
 2932SOL     OW 8808   3.444   4.363   4.196
 2932SOL    HW1 8809   3.413   4.424   4.269
 2932SOL    HW2 8810   3.494   4.415   4.127
 2933SOL     OW 8811   2.435   4.594   4.753
 2933SOL    HW1 8812   2.479   4.683   4.744
 2933SOL    HW2 8813   2.372   4.594   4.830
 2934SOL     OW 8814   3.071   4.249   3.999
 2934SOL    HW1 8815   3.084   4.165   4.053
 2934SOL    HW2 8816   3.042   4.323   4.059
 2935SOL     OW 8817   2.169   3.937   4.955
 2935SOL    HW1 8818   2.146   3.974   5.045
 2935SOL    HW2 8819   2.139   3.842   4.949
 2936SOL     OW 8820   2.594   4.358   4.788
 2936SOL    HW1 8821   2.653   4.332   4.712
 2936SOL    HW2 8822   2.566   4.454   4.777
 2937SOL     OW 8823   2.169   3.787   4.342
 2937SOL    HW1 8824   2.158   3.881   4.375
 2937SOL    HW2 8825   2.164   3.724   4.419
 2938SOL     OW 8826   3.484   4.091   4.098
 2938SOL    HW1 8827   3.486   4.015   4.162
 2938SOL    HW2 8828   3.436   4.168   4.138
 2939SOL     OW 8829   2.885   4.490   4.690
 2939SOL    HW1 8830   2.900   4.511   4.786
 2939SOL    HW2 8831   2.855   4.395   4.681
 2940SOL     OW 8832   3.402   3.998   3.849
 2940SOL    HW1 8833   3.341   3.923   3.872
 2940SOL    HW2 8834   3.424   4.050   3.932
 2941SOL     OW 8835   3.165   4.562   3.766
 2941SOL    HW1 8836   3.199   4.469   3.781
 2941SOL    HW2 8837   3.183   4.589   3.671
 2942SOL     OW 8838   2.181   4.534   4.673
 2942SOL    HW1 8839   2.274   4.570   4.678
 2942SOL    HW2 8840   2.175   4.449   4.725
 2943SOL     OW 8841   2.201   4.233   4.730
 2943SOL    HW1 8842   2.149   4.150   4.713
 2943SOL    HW2 8843   2.278   4.238   4.666
 2944SOL     OW 8844   2.864   4.520   4.962
 2944SOL    HW1 8845   2.905   4.488   5.048
 2944SOL    HW2 8846   2.768   4.493   4.959
 2945SOL     OW 8847   1.902   4.268   4.838
 2945SOL    HW1 8848   1.987   4.235   4.797
 2945SOL    HW2 8849   1.915   4.283   4.936
 2946SOL     OW 8850   2.677   4.296   4.049
 2946SOL    HW1 8851   2.684   4.207   4.003
 2946SOL    HW2 8852   2.583   4.330   4.041
 2947SOL     OW 8853   3.519   4.328   4.930
 2947SOL    HW1 8854   3.481   4.259   4.992
 2947SOL    HW2 8855   3.601   4.292   4.886
 2948SOL     OW 8856   2.533   4.188   4.993
 2948SOL    HW1 8857   2.499   4.099   4.963
 2948SOL    HW2 8858   2.559   4.242   4.913
 2949SOL     OW 8859   2.335   4.224   3.915
 2949SOL    HW1 8860   2.396   4.304   3.919
 2949SOL    HW2 8861   2.240   4.255   3.922
 2950SOL     OW 8862   2.021   4.861   5.190
 2950SOL    HW1 8863   2.043   4.800   5.266
 2950SOL    HW2 8864   2.031   4.812   5.104
 2951SOL     OW 8865   3.209   4.783   4.958
 2951SOL    HW1 8866   3.233   4.720   4.884
 2951SOL    HW2 8867   3.119   4.823   4.940
 2952SOL     OW 8868   3.164   4.579   4.033
 2952SOL    HW1 8869   3.078   4.548   4.075
 2952SOL    HW2 8870   3.160   4.565   3.934
 2953SOL     OW 8871   3.588   3.859   4.247
 2953SOL    HW1 8872   3.661   3.842   4.180
 2953SOL    HW2 8873   3.557   3.772   4.285
 2954SOL     OW 8874   3.142   4.651   4.396
 2954SOL    HW1 8875   3.202   4.570   4.398
 2954SOL    HW2 8876   3.182   4.720   4.336
 2955SOL     OW 8877   3.703   3.899   4.687
 2955SOL    HW1 8878   3.742   3.814   4.651
 2955SOL    HW2 8879   3.605   3.901   4.668
 2956SOL     OW 8880   2.125   4.050   4.444
 2956SOL    HW1 8881   2.046   4.101   4.410
 2956SOL    HW2 8882   2.116   4.035   4.542
 2957SOL     OW 8883   2.684   4.726   5.096
 2957SOL    HW1 8884   2.724   4.725   5.004
 2957SOL    HW2 8885   2.694   4.818   5.136
 2958SOL     OW 8886   2.778   4.634   4.015
 2958SOL    HW1 8887   2.841   4.672   3.947
 2958SOL    HW2 8888   2.818   4.551   4.054
 2959SOL     OW 8889   2.876   3.960   4.695
 2959SOL    HW1 8890   2.868   3.924   4.602
 2959SOL    HW2 8891   2.874   3.884   4.760
 2960SOL     OW 8892   3.571   4.109   5.105
 2960SOL    HW1 8893   3.644   4.178   5.109
 2960SOL    HW2 8894   3.599   4.034   5.046
 2961SOL     OW 8895   1.937   4.069   3.757
 2961SOL    HW1 8896   1.845   4.041   3.728
 2961SOL    HW2 8897   1.968   4.146   3.701
 2962SOL     OW 8898   1.934   3.890   4.042
 2962SOL    HW1 8899   1.917   3.973   3.988
 2962SOL    HW2 8900   2.024   3.853   4.020
 2963SOL     OW 8901   3.536   4.607   4.978
 2963SOL    HW1 8902   3.509   4.518   4.941
 2963SOL    HW2 8903   3.537   4.675   4.905
 2964SOL     OW 8904   3.087   4.049   4.173
 2964SOL    HW1 8905   3.152   3.975   4.162
 2964SOL    HW2 8906   3.107   4.099   4.257
 2965SOL     OW 8907   2.456   4.469   4.376
 2965SOL    HW1 8908   2.506   4.554   4.357
 2965SOL    HW2 8909   2.368   4.471   4.328
 2966SOL     OW 8910   3.592   4.658   5.241
 2966SOL    HW1 8911   3.630   4.749   5.256
 2966SOL    HW2 8912   3.584   4.641   5.142
 2967SOL     OW 8913   2.721   4.680   4.585
 2967SOL    HW1 8914   2.775   4.611   4.633
 2967SOL    HW2 8915   2.689   4.749   4.651
 2968SOL     OW 8916   2.945   4.708   3.811
 2968SOL    HW1 8917   2.922   4.761   3.729
 2968SOL    HW2 8918   3.026   4.652   3.792
 2969SOL     OW 8919   1.941   4.964   4.377
 2969SOL    HW1 8920   1.940   4.917   4.465
 2969SOL    HW2 8921   2.023   4.936   4.326
 2970SOL     OW 8922   3.686   3.916   4.951
 2970SOL    HW1 8923   3.682   3.826   4.995
 2970SOL    HW2 8924   3.689   3.905   4.852
 2971SOL     OW 8925   2.290   4.148   4.244
 2971SOL    HW1 8926   2.320   4.076   4.182
 2971SOL    HW2 8927   2.251   4.108   4.327
 2972SOL     OW 8928   3.286   3.938   4.836
 2972SOL    HW1 8929   3.338   3.873   4.891
 2972SOL    HW2 8930   3.237   4.001   4.897
 2973SOL     OW 8931   2.632   5.054   4.025
 2973SOL    HW1 8932   2.586   4.967   4.042
 2973SOL    HW2 8933   2.723   5.051   4.066
 2974SOL     OW 8934   3.214   3.776   3.892
 2974SOL    HW1 8935   3.249   3.735   3.808
 2974SOL    HW2 8936   3.124   3.738   3.912
 2975SOL     OW 8937   3.162   4.177   4.415
 2975SOL    HW1 8938   3.103   4.257   4.419
 2975SOL    HW2 8939   3.177   4.142   4.508
 2976SOL     OW 8940   3.455   3.945   4.606
 2976SOL    HW1 8941   3.371   3.944   4.660
 2976SOL    HW2 8942   3.457   4.028   4.550
 2977SOL     OW 8943   1.901   4.801   4.024
 2977SOL    HW1 8944   2.000   4.790   4.015
 2977SOL    HW2 8945   1.861   4.715   4.056
 2978SOL     OW 8946   3.954   0.628   0.113
 2978SOL    HW1 8947   3.861   0.626   0.150
 2978SOL    HW2 8948   3.955   0.589   0.021
 2979SOL     OW 8949   3.949   0.275   0.996
 2979SOL    HW1 8950   3.984   0.258   1.088
 2979SOL    HW2 8951   3.861   0.230   0.984
 2980SOL     OW 8952   3.743   0.368   0.647
 2980SOL    HW1 8953   3.661   0.411   0.686
 2980SOL    HW2 8954   3.715   0.295   0.584
 2981SOL     OW 8955   4.293   1.275   1.165
 2981SOL    HW1 8956   4.200   1.268   1.128
 2981SOL    HW2 8957   4.304   1.364   1.209
 2982SOL     OW 8958   4.492   1.144   1.023
 2982SOL    HW1 8959   4.414   1.161   1.083
 2982SOL    HW2 8960   4.526   1.231   0.987
 2983SOL     OW 8961   4.574   0.798   1.823
 2983SOL    HW1 8962   4.570   0.874   1.888
 2983SOL    HW2 8963   4.596   0.834   1.732
 2984SOL     OW 8964   4.409   1.012   0.665
 2984SOL    HW1 8965   4.478   0.996   0.735
 2984SOL    HW2 8966   4.336   1.069   0.703
 2985SOL     OW 8967   4.410   1.161   1.803
 2985SOL    HW1 8968   4.470   1.240   1.817
 2985SOL    HW2 8969   4.324   1.192   1.762
 2986SOL     OW 8970   4.059   1.435   1.061
 2986SOL    HW1 8971   3.981   1.404   1.008
 2986SOL    HW2 8972   4.117   1.493   1.004
 2987SOL     OW 8973   4.162   0.392   1.499
 2987SOL    HW1 8974   4.244   0.336   1.508
 2987SOL    HW2 8975   4.081   0.334   1.503
 2988SOL     OW 8976   3.955   1.713   0.483
 2988SOL    HW1 8977   3.989   1.790   0.537
 2988SOL    HW2 8978   3.999   1.713   0.393
 2989SOL     OW 8979   4.851   1.341   1.690
 2989SOL    HW1 8980   4.898   1.341   1.778
 2989SOL    HW2 8981   4.803   1.254   1.679
 2990SOL     OW 8982   3.954   1.434   0.538
 2990SOL    HW1 8983   3.928   1.530   0.538
 2990SOL    HW2 8984   3.883   1.380   0.583
 2991SOL     OW 8985   3.964   1.091   0.886
 2991SOL    HW1 8986   3.978   1.007   0.938
 2991SOL    HW2 8987   3.909   1.155   0.941
 2992SOL     OW 8988   4.344   1.786   1.439
 2992SOL    HW1 8989   4.252   1.769   1.474
 2992SOL    HW2 8990   4.372   1.878   1.465
 2993SOL     OW 8991   4.330   0.964   0.123
 2993SOL    HW1 8992   4.337   1.048   0.069
 2993SOL    HW2 8993   4.376   0.977   0.211
 2994SOL     OW 8994   3.846   0.643   0.563
 2994SOL    HW1 8995   3.801   0.555   0.580
 2994SOL    HW2 8996   3.845   0.697   0.647
 2995SOL     OW 8997   3.751   1.596   0.117
 2995SOL    HW1 8998   3.732   1.500   0.138
 2995SOL    HW2 8999   3.718   1.654   0.192
 2996SOL     OW 9000   3.837   0.737   1.597
 2996SOL    HW1 9001   3.925   0.724   1.642
 2996SOL    HW2 9002   3.824   0.834   1.575
 2997SOL     OW 9003   4.337   1.365   0.726
 2997SOL    HW1 9004   4.288   1.278   0.735
 2997SOL    HW2 9005   4.314   1.408   0.639
 2998SOL     OW 9006   4.533   0.004   0.502
 2998SOL    HW1 9007   4.573   0.095   0.493
 2998SOL    HW2 9008   4.433   0.012   0.508
 2999SOL     OW 9009   3.921   0.976   1.264
 2999SOL    HW1 9010   4.010   0.931   1.250
 2999SOL    HW2 9011   3.848   0.911   1.245
 3000SOL     OW 9012   4.041   0.251   1.801
 3000SOL    HW1 9013   4.112   0.322   1.807
 3000SOL    HW2 9014   3.953   0.290   1.829
 3001SOL     OW 9015   4.322   0.729   0.270
 3001SOL    HW1 9016   4.346   0.798   0.202
 3001SOL    HW2 9017   4.244   0.762   0.324
 3002SOL     OW 9018   4.531   0.605   1.465
 3002SOL    HW1 9019   4.484   0.602   1.554
 3002SOL    HW2 9020   4.480   0.550   1.399
 3003SOL     OW 9021   4.697   0.890   1.572
 3003SOL    HW1 9022   4.743   0.806   1.543
 3003SOL    HW2 9023   4.641   0.924   1.497
 3004SOL     OW 9024   4.715   0.410   1.242
 3004SOL    HW1 9025   4.638   0.444   1.296
 3004SOL    HW2 9026   4.681   0.359   1.163
 3005SOL     OW 9027   4.765   0.701   0.429
 3005SOL    HW1 9028   4.791   0.697   0.525
 3005SOL    HW2 9029   4.680   0.650   0.415
 3006SOL     OW 9030   3.800   0.811   0.789
 3006SOL    HW1 9031   3.899   0.799   0.798
 3006SOL    HW2 9032   3.776   0.906   0.810
 3007SOL     OW 9033   3.854   1.821   1.571
 3007SOL    HW1 9034   3.844   1.806   1.670
 3007SOL    HW2 9035   3.768   1.857   1.535
 3008SOL     OW 9036   4.589   0.348   0.195
 3008SOL    HW1 9037   4.648   0.411   0.146
 3008SOL    HW2 9038   4.608   0.254   0.166
 3009SOL     OW 9039   4.274   0.196   0.885
 3009SOL    HW1 9040   4.269   0.191   0.985
 3009SOL    HW2 9041   4.276   0.292   0.856
 3010SOL     OW 9042   4.732   1.456   0.477
 3010SOL    HW1 9043   4.686   1.528   0.425
 3010SOL    HW2 9044   4.728   1.476   0.575
 3011SOL     OW 9045   4.075   1.801   0.853
 3011SOL    HW1 9046   4.125   1.715   0.859
 3011SOL    HW2 9047   4.140   1.878   0.850
 3012SOL     OW 9048   4.045   0.943   0.242
 3012SOL    HW1 9049   4.127   0.982   0.200
 3012SOL    HW2 9050   4.018   0.861   0.193
 3013SOL     OW 9051   4.185   1.266   1.727
 3013SOL    HW1 9052   4.135   1.267   1.641
 3013SOL    HW2 9053   4.122   1.248   1.803
 3014SOL     OW 9054   3.926   0.285   1.498
 3014SOL    HW1 9055   3.846   0.345   1.485
 3014SOL    HW2 9056   3.916   0.236   1.584
 3015SOL     OW 9057   4.188   1.743   0.323
 3015SOL    HW1 9058   4.221   1.782   0.409
 3015SOL    HW2 9059   4.264   1.736   0.258
 3016SOL     OW 9060   3.973   1.785   1.241
 3016SOL    HW1 9061   4.030   1.720   1.291
 3016SOL    HW2 9062   3.957   1.752   1.148
 3017SOL     OW 9063   4.664   1.698   0.904
 3017SOL    HW1 9064   4.744   1.641   0.925
 3017SOL    HW2 9065   4.615   1.658   0.827
 3018SOL     OW 9066   4.106   0.700   0.480
 3018SOL    HW1 9067   4.151   0.610   0.477
 3018SOL    HW2 9068   4.012   0.689   0.513
 3019SOL     OW 9069   4.338   0.122   0.117
 3019SOL    HW1 9070   4.436   0.100   0.124
 3019SOL    HW2 9071   4.307   0.105   0.024
 3020SOL     OW 9072   4.505   0.264   1.749
 3020SOL    HW1 9073   4.572   0.203   1.792
 3020SOL    HW2 9074   4.432   0.283   1.814
 3021SOL     OW 9075   4.612   1.514   1.195
 3021SOL    HW1 9076   4.589   1.489   1.101
 3021SOL    HW2 9077   4.673   1.445   1.234
 3022SOL     OW 9078   4.527   1.402   0.924
 3022SOL    HW1 9079   4.617   1.416   0.882
 3022SOL    HW2 9080   4.456   1.404   0.853
 3023SOL     OW 9081   4.646   0.503   0.899
 3023SOL    HW1 9082   4.621   0.494   0.803
 3023SOL    HW2 9083   4.694   0.421   0.930
 3024SOL     OW 9084   4.263   0.064   0.512
 3024SOL    HW1 9085   4.182   0.065   0.570
 3024SOL    HW2 9086   4.266   0.147   0.457
 3025SOL     OW 9087   4.021   0.035   0.171
 3025SOL    HW1 9088   4.070   0.119   0.150
 3025SOL    HW2 9089   4.083  -0.030   0.216
 3026SOL     OW 9090   4.659   0.236   0.480
 3026SOL    HW1 9091   4.611   0.277   0.402
 3026SOL    HW2 9092   4.758   0.234   0.461
 3027SOL     OW 9093   4.951   1.570   0.793
 3027SOL    HW1 9094   4.972   1.644   0.728
 3027SOL    HW2 9095   5.019   1.570   0.866
 3028SOL     OW 9096   4.183   1.152   0.741
 3028SOL    HW1 9097   4.112   1.125   0.806
 3028SOL    HW2 9098   4.157   1.124   0.648
 3029SOL     OW 9099   4.995   1.797   0.591
 3029SOL    HW1 9100   5.039   1.861   0.527
 3029SOL    HW2 9101   4.945   1.849   0.661
 3030SOL     OW 9102   4.756   0.549   0.016
 3030SOL    HW1 9103   4.715   0.631  -0.023
 3030SOL    HW2 9104   4.820   0.575   0.089
 3031SOL     OW 9105   3.802   0.556   1.386
 3031SOL    HW1 9106   3.894   0.555   1.345
 3031SOL    HW2 9107   3.796   0.630   1.453
 3032SOL     OW 9108   4.285   0.222   1.147
 3032SOL    HW1 9109   4.323   0.138   1.184
 3032SOL    HW2 9110   4.197   0.241   1.191
 3033SOL     OW 9111   4.590   0.454   0.642
 3033SOL    HW1 9112   4.558   0.526   0.580
 3033SOL    HW2 9113   4.614   0.373   0.589
 3034SOL     OW 9114   4.741   0.039   0.753
 3034SOL    HW1 9115   4.669   0.044   0.684
 3034SOL    HW2 9116   4.717  -0.030   0.822
 3035SOL     OW 9117   4.212   1.385   0.174
 3035SOL    HW1 9118   4.125   1.370   0.221
 3035SOL    HW2 9119   4.195   1.411   0.079
 3036SOL     OW 9120   4.251   0.256   0.328
 3036SOL    HW1 9121   4.278   0.197   0.253
 3036SOL    HW2 9122   4.251   0.351   0.297
 3037SOL     OW 9123   4.639   0.089   1.402
 3037SOL    HW1 9124   4.664   0.069   1.307
 3037SOL    HW2 9125   4.711   0.145   1.444
 3038SOL     OW 9126   4.704   1.116   1.719
 3038SOL    HW1 9127   4.605   1.122   1.729
 3038SOL    HW2 9128   4.727   1.036   1.663
 3039SOL     OW 9129   4.429   1.050   0.368
 3039SOL    HW1 9130   4.415   1.057   0.467
 3039SOL    HW2 9131   4.513   0.999   0.350
 3040SOL     OW 9132   4.134   0.813   1.251
 3040SOL    HW1 9133   4.220   0.825   1.301
 3040SOL    HW2 9134   4.092   0.726   1.278
 3041SOL     OW 9135   3.788   1.564   1.331
 3041SOL    HW1 9136   3.742   1.646   1.297
 3041SOL    HW2 9137   3.886   1.583   1.340
 3042SOL     OW 9138   4.091   1.100   0.501
 3042SOL    HW1 9139   4.084   1.183   0.445
 3042SOL    HW2 9140   4.095   1.020   0.441
 3043SOL     OW 9141   4.290   0.537   0.865
 3043SOL    HW1 9142   4.302   0.603   0.791
 3043SOL    HW2 9143   4.336   0.571   0.948
 3044SOL     OW 9144   4.976   1.348   0.388
 3044SOL    HW1 9145   5.026   1.425   0.428
 3044SOL    HW2 9146   4.881   1.350   0.420
 3045SOL     OW 9147   4.078   1.510   1.329
 3045SOL    HW1 9148   4.057   1.466   1.242
 3045SOL    HW2 9149   4.175   1.536   1.332
 3046SOL     OW 9150   4.126   0.751   1.598
 3046SOL    HW1 9151   4.194   0.806   1.551
 3046SOL    HW2 9152   4.166   0.663   1.625
 3047SOL     OW 9153   4.737   0.105   1.770
 3047SOL    HW1 9154   4.743   0.190   1.718
 3047SOL    HW2 9155   4.769   0.029   1.713
 3048SOL     OW 9156   4.228   0.050   1.740
 3048SOL    HW1 9157   4.186  -0.007   1.670
 3048SOL    HW2 9158   4.162   0.119   1.772
 3049SOL     OW 9159   4.297   0.870   1.029
 3049SOL    HW1 9160   4.341   0.959   1.020
 3049SOL    HW2 9161   4.234   0.870   1.106
 3050SOL     OW 9162   5.084   0.862   1.045
 3050SOL    HW1 9163   5.009   0.862   0.979
 3050SOL    HW2 9164   5.121   0.770   1.054
 3051SOL     OW 9165   4.933   0.525   0.275
 3051SOL    HW1 9166   4.946   0.441   0.329
 3051SOL    HW2 9167   4.904   0.599   0.335
 3052SOL     OW 9168   4.031   0.213   1.231
 3052SOL    HW1 9169   4.008   0.250   1.321
 3052SOL    HW2 9170   4.001   0.118   1.225
 3053SOL     OW 9171   3.761   1.310   1.282
 3053SOL    HW1 9172   3.814   1.261   1.350
 3053SOL    HW2 9173   3.783   1.408   1.287
 3054SOL     OW 9174   4.456   0.634   1.064
 3054SOL    HW1 9175   4.515   0.608   0.988
 3054SOL    HW2 9176   4.428   0.730   1.053
 3055SOL     OW 9177   4.031   0.063   0.618
 3055SOL    HW1 9178   4.020   0.157   0.651
 3055SOL    HW2 9179   4.026   0.000   0.695
 3056SOL     OW 9180   4.747   0.766   0.966
 3056SOL    HW1 9181   4.762   0.787   1.062
 3056SOL    HW2 9182   4.717   0.671   0.957
 3057SOL     OW 9183   4.704   1.573   1.700
 3057SOL    HW1 9184   4.684   1.617   1.612
 3057SOL    HW2 9185   4.743   1.482   1.684
 3058SOL     OW 9186   4.074   0.898   1.804
 3058SOL    HW1 9187   4.150   0.942   1.852
 3058SOL    HW2 9188   4.109   0.851   1.722
 3059SOL     OW 9189   4.792   1.333   0.849
 3059SOL    HW1 9190   4.799   1.249   0.794
 3059SOL    HW2 9191   4.854   1.402   0.813
 3060SOL     OW 9192   4.043   0.810   0.949
 3060SOL    HW1 9193   4.136   0.846   0.954
 3060SOL    HW2 9194   4.037   0.725   1.001
 3061SOL     OW 9195   4.063   0.509   1.006
 3061SOL    HW1 9196   4.011   0.426   0.989
 3061SOL    HW2 9197   4.140   0.514   0.942
 3062SOL     OW 9198   4.862   0.380   1.678
 3062SOL    HW1 9199   4.817   0.443   1.742
 3062SOL    HW2 9200   4.955   0.411   1.661
 3063SOL     OW 9201   4.884   0.207   1.477
 3063SOL    HW1 9202   4.884   0.271   1.554
 3063SOL    HW2 9203   4.912   0.255   1.394
 3064SOL     OW 9204   3.732   1.326   0.200
 3064SOL    HW1 9205   3.639   1.347   0.169
 3064SOL    HW2 9206   3.742   1.227   0.213
 3065SOL     OW 9207   3.812   1.801   0.927
 3065SOL    HW1 9208   3.770   1.715   0.900
 3065SOL    HW2 9209   3.906   1.804   0.893
 3066SOL     OW 9210   4.228   1.568   0.910
 3066SOL    HW1 9211   4.294   1.642   0.919
 3066SOL    HW2 9212   4.272   1.489   0.868
 3067SOL     OW 9213   4.726   0.796   1.238
 3067SOL    HW1 9214   4.767   0.764   1.324
 3067SOL    HW2 9215   4.630   0.769   1.235
 3068SOL     OW 9216   3.764   0.544   1.114
 3068SOL    HW1 9217   3.849   0.511   1.073
 3068SOL    HW2 9218   3.777   0.559   1.212
 3069SOL     OW 9219   3.913   0.520   1.722
 3069SOL    HW1 9220   3.972   0.480   1.652
 3069SOL    HW2 9221   3.855   0.591   1.681
 3070SOL     OW 9222   4.539   0.572   0.325
 3070SOL    HW1 9223   4.546   0.483   0.279
 3070SOL    HW2 9224   4.445   0.606   0.317
 3071SOL     OW 9225   3.976   1.564   1.744
 3071SOL    HW1 9226   3.946   1.621   1.820
 3071SOL    HW2 9227   3.969   1.467   1.770
 3072SOL     OW 9228   4.395   0.464   1.269
 3072SOL    HW1 9229   4.361   0.375   1.239
 3072SOL    HW2 9230   4.421   0.518   1.189
 3073SOL     OW 9231   4.654   1.678   1.465
 3073SOL    HW1 9232   4.630   1.660   1.370
 3073SOL    HW2 9233   4.684   1.772   1.475
 3074SOL     OW 9234   4.197   0.500   0.191
 3074SOL    HW1 9235   4.258   0.580   0.195
 3074SOL    HW2 9236   4.102   0.531   0.198
 3075SOL     OW 9237   3.883   1.137   1.466
 3075SOL    HW1 9238   3.905   1.076   1.542
 3075SOL    HW2 9239   3.893   1.088   1.380
 3076SOL     OW 9240   5.026   0.855   0.309
 3076SOL    HW1 9241   4.940   0.824   0.351
 3076SOL    HW2 9242   5.022   0.841   0.210
 3077SOL     OW 9243   3.807   1.258   1.022
 3077SOL    HW1 9244   3.802   1.257   1.122
 3077SOL    HW2 9245   3.724   1.217   0.984
 3078SOL     OW 9246   4.412   1.662   1.716
 3078SOL    HW1 9247   4.356   1.743   1.725
 3078SOL    HW2 9248   4.464   1.666   1.630
 3079SOL     OW 9249   4.627   0.086   0.133
 3079SOL    HW1 9250   4.678   0.087   0.047
 3079SOL    HW2 9251   4.683   0.044   0.204
 3080SOL     OW 9252   3.854   1.794   1.851
 3080SOL    HW1 9253   3.813   1.720   1.904
 3080SOL    HW2 9254   3.918   1.845   1.909
 3081SOL     OW 9255   4.554   1.273   1.422
 3081SOL    HW1 9256   4.549   1.306   1.517
 3081SOL    HW2 9257   4.468   1.292   1.376
 3082SOL     OW 9258   4.396   1.616   0.154
 3082SOL    HW1 9259   4.405   1.626   0.055
 3082SOL    HW2 9260   4.356   1.527   0.175
 3083SOL     OW 9261   3.987   0.326   0.720
 3083SOL    HW1 9262   3.908   0.377   0.686
 3083SOL    HW2 9263   3.978   0.311   0.818
 3084SOL     OW 9264   4.546   1.002   1.372
 3084SOL    HW1 9265   4.586   1.001   1.280
 3084SOL    HW2 9266   4.556   1.094   1.412
 3085SOL     OW 9267   4.640   0.910   0.291
 3085SOL    HW1 9268   4.703   0.948   0.223
 3085SOL    HW2 9269   4.680   0.827   0.330
 3086SOL     OW 9270   4.096   1.288   1.490
 3086SOL    HW1 9271   4.083   1.381   1.456
 3086SOL    HW2 9272   4.012   1.236   1.477
 3087SOL     OW 9273   4.763   1.098   0.696
 3087SOL    HW1 9274   4.693   1.051   0.750
 3087SOL    HW2 9275   4.822   1.030   0.653
 3088SOL     OW 9276   4.738   0.236   0.971
 3088SOL    HW1 9277   4.730   0.200   0.878
 3088SOL    HW2 9278   4.736   0.160   1.036
 3089SOL     OW 9279   4.314   1.487   0.491
 3089SOL    HW1 9280   4.356   1.429   0.421
 3089SOL    HW2 9281   4.270   1.566   0.447
 3090SOL     OW 9282   3.979   1.348   0.290
 3090SOL    HW1 9283   3.883   1.349   0.263
 3090SOL    HW2 9284   3.991   1.401   0.374
 3091SOL     OW 9285   3.829   1.013   1.726
 3091SOL    HW1 9286   3.752   0.980   1.780
 3091SOL    HW2 9287   3.914   0.983   1.768
 3092SOL     OW 9288   4.396   0.203   1.489
 3092SOL    HW1 9289   4.486   0.187   1.449
 3092SOL    HW2 9290   4.404   0.208   1.588
 3093SOL     OW 9291   3.796   0.166   0.318
 3093SOL    HW1 9292   3.779   0.249   0.264
 3093SOL    HW2 9293   3.886   0.129   0.296
 3094SOL     OW 9294   4.337   0.842   1.431
 3094SOL    HW1 9295   4.393   0.923   1.414
 3094SOL    HW2 9296   4.396   0.762   1.434
 3095SOL     OW 9297   4.440   0.565   1.708
 3095SOL    HW1 9298   4.459   0.630   1.782
 3095SOL    HW2 9299   4.500   0.485   1.717
 3096SOL     OW 9300   4.114   1.741   1.560
 3096SOL    HW1 9301   4.023   1.782   1.558
 3096SOL    HW2 9302   4.107   1.647   1.592
 3097SOL     OW 9303   4.318   0.745   0.652
 3097SOL    HW1 9304   4.368   0.830   0.633
 3097SOL    HW2 9305   4.230   0.747   0.604
 3098SOL     OW 9306   4.583   1.374   0.016
 3098SOL    HW1 9307   4.537   1.389   0.104
 3098SOL    HW2 9308   4.627   1.459  -0.014
 3099SOL     OW 9309   4.385   1.790   0.953
 3099SOL    HW1 9310   4.339   1.878   0.940
 3099SOL    HW2 9311   4.484   1.802   0.946
 3100SOL     OW 9312   4.583   0.956   0.861
 3100SOL    HW1 9313   4.637   0.887   0.909
 3100SOL    HW2 9314   4.551   1.025   0.927
 3101SOL     OW 9315   4.807   0.984   0.087
 3101SOL    HW1 9316   4.784   1.037   0.005
 3101SOL    HW2 9317   4.888   0.928   0.068
 3102SOL     OW 9318   3.945   1.314   1.844
 3102SOL    HW1 9319   3.880   1.241   1.823
 3102SOL    HW2 9320   3.949   1.328   1.942
 3103SOL     OW 9321   3.803   1.240   0.653
 3103SOL    HW1 9322   3.802   1.193   0.741
 3103SOL    HW2 9323   3.885   1.212   0.602
 3104SOL     OW 9324   4.396   1.391   1.624
 3104SOL    HW1 9325   4.318   1.341   1.662
 3104SOL    HW2 9326   4.393   1.486   1.655
 3105SOL     OW 9327   4.152   0.424   0.520
 3105SOL    HW1 9328   4.182   0.352   0.458
 3105SOL    HW2 9329   4.113   0.384   0.603
 3106SOL     OW 9330   4.041   0.547   1.280
 3106SOL    HW1 9331   4.079   0.488   1.352
 3106SOL    HW2 9332   4.081   0.521   1.192
 3107SOL     OW 9333   4.536   1.586   0.687
 3107SOL    HW1 9334   4.568   1.596   0.593
 3107SOL    HW2 9335   4.457   1.524   0.689
 3108SOL     OW 9336   4.725   0.034   1.154
 3108SOL    HW1 9337   4.662  -0.038   1.123
 3108SOL    HW2 9338   4.818  -0.002   1.154
 3109SOL     OW 9339   4.494   1.330   0.301
 3109SOL    HW1 9340   4.448   1.243   0.318
 3109SOL    HW2 9341   4.585   1.327   0.342
 3110SOL     OW 9342   4.342   1.567   1.284
 3110SOL    HW1 9343   4.337   1.649   1.341
 3110SOL    HW2 9344   4.431   1.564   1.239
 3111SOL     OW 9345   3.763   1.077   0.300
 3111SOL    HW1 9346   3.862   1.066   0.291
 3111SOL    HW2 9347   3.723   0.991   0.332
 3112SOL     OW 9348   4.599   1.646   0.337
 3112SOL    HW1 9349   4.522   1.611   0.283
 3112SOL    HW2 9350   4.567   1.717   0.399
 3113SOL     OW 9351   3.954   0.628   1.975
 3113SOL    HW1 9352   3.861   0.626   2.012
 3113SOL    HW2 9353   3.955   0.589   1.883
 3114SOL     OW 9354   3.949   0.275   2.858
 3114SOL    HW1 9355   3.984   0.258   2.950
 3114SOL    HW2 9356   3.861   0.230   2.846
 3115SOL     OW 9357   3.743   0.368   2.509
 3115SOL    HW1 9358   3.661   0.411   2.548
 3115SOL    HW2 9359   3.715   0.295   2.446
 3116SOL     OW 9360   4.293   1.275   3.027
 3116SOL    HW1 9361   4.200   1.268   2.990
 3116SOL    HW2 9362   4.304   1.364   3.071
 3117SOL     OW 9363   4.492   1.144   2.885
 3117SOL    HW1 9364   4.414   1.161   2.945
 3117SOL    HW2 9365   4.526   1.231   2.849
 3118SOL     OW 9366   4.574   0.798   3.685
 3118SOL    HW1 9367   4.570   0.874   3.750
 3118SOL    HW2 9368   4.596   0.834   3.594
 3119SOL     OW 9369   4.409   1.012   2.527
 3119SOL    HW1 9370   4.478   0.996   2.597
 3119SOL    HW2 9371   4.336   1.069   2.565
 3120SOL     OW 9372   4.410   1.161   3.665
 3120SOL    HW1 9373   4.470   1.240   3.679
 3120SOL    HW2 9374   4.324   1.192   3.624
 3121SOL     OW 9375   4.059   1.435   2.923
 3121SOL    HW1 9376   3.981   1.404   2.870
 3121SOL    HW2 9377   4.117   1.493   2.866
 3122SOL     OW 9378   4.162   0.392   3.361
 3122SOL    HW1 9379   4.244   0.336   3.370
 3122SOL    HW2 9380   4.081   0.334   3.365
 3123SOL     OW 9381   3.955   1.713   2.345
 3123SOL    HW1 9382   3.989   1.790   2.399
 3123SOL    HW2 9383   3.999   1.713   2.255
 3124SOL     OW 9384   4.851   1.341   3.552
 3124SOL    HW1 9385   4.898   1.341   3.640
 3124SOL    HW2 9386   4.803   1.254   3.541
 3125SOL     OW 9387   3.954   1.434   2.400
 3125SOL    HW1 9388   3.928   1.530   2.400
 3125SOL    HW2 9389   3.883   1.380   2.445
 3126SOL     OW 9390   3.964   1.091   2.748
 3126SOL    HW1 9391   3.978   1.007   2.800
 3126SOL    HW2 9392   3.909   1.155   2.803
 3127SOL     OW 9393   4.344   1.786   3.301
 3127SOL    HW1 9394   4.252   1.769   3.336
 3127SOL    HW2 9395   4.372   1.878   3.327
 3128SOL     OW 9396   4.330   0.964   1.985
 3128SOL    HW1 9397   4.337   1.048   1.931
 3128SOL    HW2 9398   4.376   0.977   2.073
 3129SOL     OW 9399   3.846   0.643   2.425
 3129SOL    HW1 9400   3.801   0.555   2.442
 3129SOL    HW2 9401   3.845   0.697   2.509
 3130SOL     OW 9402   3.751   1.596   1.979
 3130SOL    HW1 9403   3.732   1.500   2.000
 3130SOL    HW2 9404   3.718   1.654   2.054
 3131SOL     OW 9405   3.837   0.737   3.459
 3131SOL    HW1 9406   3.925   0.724   3.504
 3131SOL    HW2 9407   3.824   0.834   3.437
 3132SOL     OW 9408   4.337   1.365   2.588
 3132SOL    HW1 9409   4.288   1.278   2.597
 3132SOL    HW2 9410   4.314   1.408   2.501
 3133SOL     OW 9411   4.533   0.004   2.364
 3133SOL    HW1 9412   4.573   0.095   2.355
 3133SOL    HW2 9413   4.433   0.012   2.370
 3134SOL     OW 9414   3.921   0.976   3.126
 3134SOL    HW1 9415   4.010   0.931   3.112
 3134SOL    HW2 9416   3.848   0.911   3.107
 3135SOL     OW 9417   4.041   0.251   3.663
 3135SOL    HW1 9418   4.112   0.322   3.669
 3135SOL    HW2 9419   3.953   0.290   3.691
 3136SOL     OW 9420   4.322   0.729   2.132
 3136SOL    HW1 9421   4.346   0.798   2.064
 3136SOL    HW2 9422   4.244   0.762   2.186
 3137SOL     OW 9423   4.531   0.605   3.327
 3137SOL    HW1 9424   4.484   0.602   3.416
 3137SOL    HW2 9425   4.480   0.550   3.261
 3138SOL     OW 9426   4.697   0.890   3.434
 3138SOL    HW1 9427   4.743   0.806   3.405
 3138SOL    HW2 9428   4.641   0.924   3.359
 3139SOL     OW 9429   4.715   0.410   3.104
 3139SOL    HW1 9430   4.638   0.444   3.158
 3139SOL    HW2 9431   4.681   0.359   3.025
 3140SOL     OW 9432   4.765   0.701   2.291
 3140SOL    HW1 9433   4.791   0.697   2.387
 3140SOL    HW2 9434   4.680   0.650   2.277
 3141SOL     OW 9435   3.800   0.811   2.651
 3141SOL    HW1 9436   3.899   0.799   2.660
 3141SOL    HW2 9437   3.776   0.906   2.672
 3142SOL     OW 9438   3.854   1.821   3.433
 3142SOL    HW1 9439   3.844   1.806   3.532
 3142SOL    HW2 9440   3.768   1.857   3.397
 3143SOL     OW 9441   4.589   0.348   2.057
 3143SOL    HW1 9442   4.648   0.411   2.008
 3143SOL    HW2 9443   4.608   0.254   2.028
 3144SOL     OW 9444   4.274   0.196   2.747
 3144SOL    HW1 9445   4.269   0.191   2.847
 3144SOL    HW2 9446   4.276   0.292   2.718
 3145SOL     OW 9447   4.732   1.456   2.339
 3145SOL    HW1 9448   4.686   1.528   2.287
 3145SOL    HW2 9449   4.728   1.476   2.437
 3146SOL     OW 9450   4.075   1.801   2.715
 3146SOL    HW1 9451   4.125   1.715   2.721
 3146SOL    HW2 9452   4.140   1.878   2.712
 3147SOL     OW 9453   4.045   0.943   2.104
 3147SOL    HW1 9454   4.127   0.982   2.062
 3147SOL    HW2 9455   4.018   0.861   2.055
 3148SOL     OW 9456   4.185   1.266   3.589
 3148SOL    HW1 9457   4.135   1.267   3.503
 3148SOL    HW2 9458   4.122   1.248   3.665
 3149SOL     OW 9459   3.926   0.285   3.360
 3149SOL    HW1 9460   3.846   0.345   3.347
 3149SOL    HW2 9461   3.916   0.236   3.446
 3150SOL     OW 9462   4.188   1.743   2.185
 3150SOL    HW1 9463   4.221   1.782   2.271
 3150SOL    HW2 9464   4.264   1.736   2.120
 3151SOL     OW 9465   3.973   1.785   3.103
 3151SOL    HW1 9466   4.030   1.720   3.153
 3151SOL    HW2 9467   3.957   1.752   3.010
 3152SOL     OW 9468   4.664   1.698   2.766
 3152SOL    HW1 9469   4.744   1.641   2.787
 3152SOL    HW2 9470   4.615   1.658   2.689
 3153SOL     OW 9471   4.106   0.700   2.342
 3153SOL    HW1 9472   4.151   0.610   2.339
 3153SOL    HW2 9473   4.012   0.689   2.375
 3154SOL     OW 9474   4.338   0.122   1.979
 3154SOL    HW1 9475   4.436   0.100   1.986
 3154SOL    HW2 9476   4.307   0.105   1.886
 3155SOL     OW 9477   4.505   0.264   3.611
 3155SOL    HW1 9478   4.572   0.203   3.654
 3155SOL    HW2 9479   4.432   0.283   3.676
 3156SOL     OW 9480   4.612   1.514   3.057
 3156SOL    HW1 9481   4.589   1.489   2.963
 3156SOL    HW2 9482   4.673   1.445   3.096
 3157SOL     OW 9483   4.527   1.402   2.786
 3157SOL    HW1 9484   4.617   1.416   2.744
 3157SOL    HW2 9485   4.456   1.404   2.715
 3158SOL     OW 9486   4.646   0.503   2.761
 3158SOL    HW1 9487   4.621   0.494   2.665
 3158SOL    HW2 9488   4.694   0.421   2.792
 3159SOL     OW 9489   4.263   0.064   2.374
 3159SOL    HW1 9490   4.182   0.065   2.432
 3159SOL    HW2 9491   4.266   0.147   2.319
 3160SOL     OW 9492   4.021   0.035   2.033
 3160SOL    HW1 9493   4.070   0.119   2.012
 3160SOL    HW2 9494   4.083  -0.030   2.078
 3161SOL     OW 9495   4.659   0.236   2.342
 3161SOL    HW1 9496   4.611   0.277   2.264
 3161SOL    HW2 9497   4.758   0.234   2.323
 3162SOL     OW 9498   4.951   1.570   2.655
 3162SOL    HW1 9499   4.972   1.644   2.590
 3162SOL    HW2 9500   5.019   1.570   2.728
 3163SOL     OW 9501   4.183   1.152   2.603
 3163SOL    HW1 9502   4.112   1.125   2.668
 3163SOL    HW2 9503   4.157   1.124   2.510
 3164SOL     OW 9504   4.995   1.797   2.453
 3164SOL    HW1 9505   5.039   1.861   2.389
 3164SOL    HW2 9506   4.945   1.849   2.523
 3165SOL     OW 9507   4.756   0.549   1.878
 3165SOL    HW1 9508   4.715   0.631   1.839
 3165SOL    HW2 9509   4.820   0.575   1.951
 3166SOL     OW 9510   3.802   0.556   3.248
 3166SOL    HW1 9511   3.894   0.555   3.207
 3166SOL    HW2 9512   3.796   0.630   3.315
 3167SOL     OW 9513   4.285   0.222   3.009
 3167SOL    HW1 9514   4.323   0.138   3.046
 3167SOL    HW2 9515   4.197   0.241   3.053
 3168SOL     OW 9516   4.590   0.454   2.504
 3168SOL    HW1 9517   4.558   0.526   2.442
 3168SOL    HW2 9518   4.614   0.373   2.451
 3169SOL     OW 9519   4.741   0.039   2.615
 3169SOL    HW1 9520   4.669   0.044   2.546
 3169SOL    HW2 9521   4.717  -0.030   2.684
 3170SOL     OW 9522   4.212   1.385   2.036
 3170SOL    HW1 9523   4.125   1.370   2.083
 3170SOL    HW2 9524   4.195   1.411   1.941
 3171SOL     OW 9525   4.251   0.256   2.190
 3171SOL    HW1 9526   4.278   0.197   2.115
 3171SOL    HW2 9527   4.251   0.351   2.159
 3172SOL     OW 9528   4.639   0.089   3.264
 3172SOL    HW1 9529   4.664   0.069   3.169
 3172SOL    HW2 9530   4.711   0.145   3.306
 3173SOL     OW 9531   4.704   1.116   3.581
 3173SOL    HW1 9532   4.605   1.122   3.591
 3173SOL    HW2 9533   4.727   1.036   3.525
 3174SOL     OW 9534   4.429   1.050   2.230
 3174SOL    HW1 9535   4.415   1.057   2.329
 3174SOL    HW2 9536   4.513   0.999   2.212
 3175SOL     OW 9537   4.134   0.813   3.113
 3175SOL    HW1 9538   4.220   0.825   3.163
 3175SOL    HW2 9539   4.092   0.726   3.140
 3176SOL     OW 9540   3.788   1.564   3.193
 3176SOL    HW1 9541   3.742   1.646   3.159
 3176SOL    HW2 9542   3.886   1.583   3.202
 3177SOL     OW 9543   4.091   1.100   2.363
 3177SOL    HW1 9544   4.084   1.183   2.307
 3177SOL    HW2 9545   4.095   1.020   2.303
 3178SOL     OW 9546   4.290   0.537   2.727
 3178SOL    HW1 9547   4.302   0.603   2.653
 3178SOL    HW2 9548   4.336   0.571   2.810
 3179SOL     OW 9549   4.976   1.348   2.250
 3179SOL    HW1 9550   5.026   1.425   2.290
 3179SOL    HW2 9551   4.881   1.350   2.282
 3180SOL     OW 9552   4.078   1.510   3.191
 3180SOL    HW1 9553   4.057   1.466   3.104
 3180SOL    HW2 9554   4.175   1.536   3.194
 3181SOL     OW 9555   4.126   0.751   3.460
 3181SOL    HW1 9556   4.194   0.806   3.413
 3181SOL    HW2 9557   4.166   0.663   3.487
 3182SOL     OW 9558   4.737   0.105   3.632
 3182SOL    HW1 9559   4.743   0.190   3.580
 3182SOL    HW2 9560   4.769   0.029   3.575
 3183SOL     OW 9561   4.228   0.050   3.602
 3183SOL    HW1 9562   4.186  -0.007   3.532
 3183SOL    HW2 9563   4.162   0.119   3.634
 3184SOL     OW 9564   4.297   0.870   2.891
 3184SOL    HW1 9565   4.341   0.959   2.882
 3184SOL    HW2 9566   4.234   0.870   2.968
 3185SOL     OW 9567   5.084   0.862   2.907
 3185SOL    HW1 9568   5.009   0.862   2.841
 3185SOL    HW2 9569   5.121   0.770   2.916
 3186SOL     OW 9570   4.933   0.525   2.137
 3186SOL    HW1 9571   4.946   0.441   2.191
 3186SOL    HW2 9572   4.904   0.599   2.197
 3187SOL     OW 9573   4.031   0.213   3.093
 3187SOL    HW1 9574   4.008   0.250   3.183
 3187SOL    HW2 9575   4.001   0.118   3.087
 3188SOL     OW 9576   3.761   1.310   3.144
 3188SOL    HW1 9577   3.814   1.261   3.212
 3188SOL    HW2 9578   3.783   1.408   3.149
 3189SOL     OW 9579   4.456   0.634   2.926
 3189SOL    HW1 9580   4.515   0.608   2.850
 3189SOL    HW2 9581   4.428   0.730   2.915
 3190SOL     OW 9582   4.031   0.063   2.480
 3190SOL    HW1 9583   4.020   0.157   2.513
 3190SOL    HW2 9584   4.026   0.000   2.557
 3191SOL     OW 9585   4.747   0.766   2.828
 3191SOL    HW1 9586   4.762   0.787   2.924
 3191SOL    HW2 9587   4.717   0.671   2.819
 3192SOL     OW 9588   4.704   1.573   3.562
 3192SOL    HW1 9589   4.684   1.617   3.474
 3192SOL    HW2 9590   4.743   1.482   3.546
 3193SOL     OW 9591   4.074   0.898   3.666
 3193SOL    HW1 9592   4.150   0.942   3.714
 3193SOL    HW2 9593   4.109   0.851   3.584
 3194SOL     OW 9594   5.027   0.838   1.904
 3194SOL    HW1 9595   5.061   0.745   1.919
 3194SOL    HW2 9596   5.045   0.865   1.809
 3195SOL     OW 9597   4.792   1.333   2.711
 3195SOL    HW1 9598   4.799   1.249   2.656
 3195SOL    HW2 9599   4.854   1.402   2.675
 3196SOL     OW 9600   4.043   0.810   2.811
 3196SOL    HW1 9601   4.136   0.846   2.816
 3196SOL    HW2 9602   4.037   0.725   2.863
 3197SOL     OW 9603   4.063   0.509   2.868
 3197SOL    HW1 9604   4.011   0.426   2.851
 3197SOL    HW2 9605   4.140   0.514   2.804
 3198SOL     OW 9606   4.862   0.380   3.540
 3198SOL    HW1 9607   4.817   0.443   3.604
 3198SOL    HW2 9608   4.955   0.411   3.523
 3199SOL     OW 9609   4.884   0.207   3.339
 3199SOL    HW1 9610   4.884   0.271   3.416
 3199SOL    HW2 9611   4.912   0.255   3.256
 3200SOL     OW 9612   3.732   1.326   2.062
 3200SOL    HW1 9613   3.639   1.347   2.031
 3200SOL    HW2 9614   3.742   1.227   2.075
 3201SOL     OW 9615   3.812   1.801   2.789
 3201SOL    HW1 9616   3.770   1.715   2.762
 3201SOL    HW2 9617   3.906   1.804   2.755
 3202SOL     OW 9618   4.228   1.568   2.772
 3202SOL    HW1 9619   4.294   1.642   2.781
 3202SOL    HW2 9620   4.272   1.489   2.730
 3203SOL     OW 9621   4.726   0.796   3.100
 3203SOL    HW1 9622   4.767   0.764   3.186
 3203SOL    HW2 9623   4.630   0.769   3.097
 3204SOL     OW 9624   3.764   0.544   2.976
 3204SOL    HW1 9625   3.849   0.511   2.935
 3204SOL    HW2 9626   3.777   0.559   3.074
 3205SOL     OW 9627   3.913   0.520   3.584
 3205SOL    HW1 9628   3.972   0.480   3.514
 3205SOL    HW2 9629   3.855   0.591   3.543
 3206SOL     OW 9630   4.539   0.572   2.187
 3206SOL    HW1 9631   4.546   0.483   2.141
 3206SOL    HW2 9632   4.445   0.606   2.179
 3207SOL     OW 9633   3.976   1.564   3.606
 3207SOL    HW1 9634   3.946   1.621   3.682
 3207SOL    HW2 9635   3.969   1.467   3.632
 3208SOL     OW 9636   4.395   0.464   3.131
 3208SOL    HW1 9637   4.361   0.375   3.101
 3208SOL    HW2 9638   4.421   0.518   3.051
 3209SOL     OW 9639   4.654   1.678   3.327
 3209SOL    HW1 9640   4.630   1.660   3.232
 3209SOL    HW2 9641   4.684   1.772   3.337
 3210SOL     OW 9642   4.197   0.500   2.053
 3210SOL    HW1 9643   4.258   0.580   2.057
 3210SOL    HW2 9644   4.102   0.531   2.060
 3211SOL     OW 9645   3.883   1.137   3.328
 3211SOL    HW1 9646   3.905   1.076   3.404
 3211SOL    HW2 9647   3.893   1.088   3.242
 3212SOL     OW 9648   5.026   0.855   2.171
 3212SOL    HW1 9649   4.940   0.824   2.213
 3212SOL    HW2 9650   5.022   0.841   2.072
 3213SOL     OW 9651   3.807   1.258   2.884
 3213SOL    HW1 9652   3.802   1.257   2.984
 3213SOL    HW2 9653   3.724   1.217   2.846
 3214SOL     OW 9654   4.412   1.662   3.578
 3214SOL    HW1 9655   4.356   1.743   3.587
 3214SOL    HW2 9656   4.464   1.666   3.492
 3215SOL     OW 9657   3.854   1.794   3.713
 3215SOL    HW1 9658   3.813   1.720   3.766
 3215SOL    HW2 9659   3.918   1.845   3.771
 3216SOL     OW 9660   4.554   1.273   3.284
 3216SOL    HW1 9661   4.549   1.306   3.379
 3216SOL    HW2 9662   4.468   1.292   3.238
 3217SOL     OW 9663   4.396   1.616   2.016
 3217SOL    HW1 9664   4.405   1.626   1.917
 3217SOL    HW2 9665   4.356   1.527   2.037
 3218SOL     OW 9666   3.987   0.326   2.582
 3218SOL    HW1 9667   3.908   0.377   2.548
 3218SOL    HW2 9668   3.978   0.311   2.680
 3219SOL     OW 9669   4.546   1.002   3.234
 3219SOL    HW1 9670   4.586   1.001   3.142
 3219SOL    HW2 9671   4.556   1.094   3.274
 3220SOL     OW 9672   4.640   0.910   2.153
 3220SOL    HW1 9673   4.703   0.948   2.085
 3220SOL    HW2 9674   4.680   0.827   2.192
 3221SOL     OW 9675   4.096   1.288   3.352
 3221SOL    HW1 9676   4.083   1.381   3.318
 3221SOL    HW2 9677   4.012   1.236   3.339
 3222SOL     OW 9678   4.763   1.098   2.558
 3222SOL    HW1 9679   4.693   1.051   2.612
 3222SOL    HW2 9680   4.822   1.030   2.515
 3223SOL     OW 9681   4.738   0.236   2.833
 3223SOL    HW1 9682   4.730   0.200   2.740
 3223SOL    HW2 9683   4.736   0.160   2.898
 3224SOL     OW 9684   4.314   1.487   2.353
 3224SOL    HW1 9685   4.356   1.429   2.283
 3224SOL    HW2 9686   4.270   1.566   2.309
 3225SOL     OW 9687   3.979   1.348   2.152
 3225SOL    HW1 9688   3.883   1.349   2.125
 3225SOL    HW2 9689   3.991   1.401   2.236
 3226SOL     OW 9690   3.829   1.013   3.588
 3226SOL    HW1 9691   3.752   0.980   3.642
 3226SOL    HW2 9692   3.914   0.983   3.630
 3227SOL     OW 9693   4.396   0.203   3.351
 3227SOL    HW1 9694   4.486   0.187   3.311
 3227SOL    HW2 9695   4.404   0.208   3.450
 3228SOL     OW 9696   3.799   0.345   1.895
 3228SOL    HW1 9697   3.707   0.317   1.866
 3228SOL    HW2 9698   3.830   0.422   1.839
 3229SOL     OW 9699   3.796   0.166   2.180
 3229SOL    HW1 9700   3.779   0.249   2.126
 3229SOL    HW2 9701   3.886   0.129   2.158
 3230SOL     OW 9702   4.337   0.842   3.293
 3230SOL    HW1 9703   4.393   0.923   3.276
 3230SOL    HW2 9704   4.396   0.762   3.296
 3231SOL     OW 9705   4.440   0.565   3.570
 3231SOL    HW1 9706   4.459   0.630   3.644
 3231SOL    HW2 9707   4.500   0.485   3.579
 3232SOL     OW 9708   4.114   1.741   3.422
 3232SOL    HW1 9709   4.023   1.782   3.420
 3232SOL    HW2 9710   4.107   1.647   3.454
 3233SOL     OW 9711   4.318   0.745   2.514
 3233SOL    HW1 9712   4.368   0.830   2.495
 3233SOL    HW2 9713   4.230   0.747   2.466
 3234SOL     OW 9714   4.583   1.374   1.878
 3234SOL    HW1 9715   4.537   1.389   1.966
 3234SOL    HW2 9716   4.627   1.459   1.848
 3235SOL     OW 9717   4.385   1.790   2.815
 3235SOL    HW1 9718   4.339   1.878   2.802
 3235SOL    HW2 9719   4.484   1.802   2.808
 3236SOL     OW 9720   4.583   0.956   2.723
 3236SOL    HW1 9721   4.637   0.887   2.771
 3236SOL    HW2 9722   4.551   1.025   2.789
 3237SOL     OW 9723   4.807   0.984   1.949
 3237SOL    HW1 9724   4.784   1.037   1.867
 3237SOL    HW2 9725   4.888   0.928   1.930
 3238SOL     OW 9726   3.945   1.314   3.706
 3238SOL    HW1 9727   3.880   1.241   3.685
 3238SOL    HW2 9728   3.949   1.328   3.804
 3239SOL     OW 9729   3.803   1.240   2.515
 3239SOL    HW1 9730   3.802   1.193   2.603
 3239SOL    HW2 9731   3.885   1.212   2.464
 3240SOL     OW 9732   4.396   1.391   3.486
 3240SOL    HW1 9733   4.318   1.341   3.524
 3240SOL    HW2 9734   4.393   1.486   3.517
 3241SOL     OW 9735   4.152   0.424   2.382
 3241SOL    HW1 9736   4.182   0.352   2.320
 3241SOL    HW2 9737   4.113   0.384   2.465
 3242SOL     OW 9738   4.041   0.547   3.142
 3242SOL    HW1 9739   4.079   0.488   3.214
 3242SOL    HW2 9740   4.081   0.521   3.054
 3243SOL     OW 9741   4.536   1.586   2.549
 3243SOL    HW1 9742   4.568   1.596   2.455
 3243SOL    HW2 9743   4.457   1.524   2.551
 3244SOL     OW 9744   4.725   0.034   3.016
 3244SOL    HW1 9745   4.662  -0.038   2.985
 3244SOL    HW2 9746   4.818  -0.002   3.016
 3245SOL     OW 9747   4.494   1.330   2.163
 3245SOL    HW1 9748   4.448   1.243   2.180
 3245SOL    HW2 9749   4.585   1.327   2.204
 3246SOL     OW 9750   4.342   1.567   3.146
 3246SOL    HW1 9751   4.337   1.649   3.203
 3246SOL    HW2 9752   4.431   1.564   3.101
 3247SOL     OW 9753   3.763   1.077   2.162
 3247SOL    HW1 9754   3.862   1.066   2.153
 3247SOL    HW2 9755   3.723   0.991   2.194
 3248SOL     OW 9756   4.599   1.646   2.199
 3248SOL    HW1 9757   4.522   1.611   2.145
 3248SOL    HW2 9758   4.567   1.717   2.261
 3249SOL     OW 9759   3.954   0.628   3.837
 3249SOL    HW1 9760   3.861   0.626   3.874
 3249SOL    HW2 9761   3.955   0.589   3.745
 3250SOL     OW 9762   3.949   0.275   4.720
 3250SOL    HW1 9763   3.984   0.258   4.812
 3250SOL    HW2 9764   3.861   0.230   4.708
 3251SOL     OW 9765   3.743   0.368   4.371
 3251SOL    HW1 9766   3.661   0.411   4.410
 3251SOL    HW2 9767   3.715   0.295   4.308
 3252SOL     OW 9768   4.293   1.275   4.889
 3252SOL    HW1 9769   4.200   1.268   4.852
 3252SOL    HW2 9770   4.304   1.364   4.933
 3253SOL     OW 9771   4.492   1.144   4.747
 3253SOL    HW1 9772   4.414   1.161   4.807
 3253SOL    HW2 9773   4.526   1.231   4.711
 3254SOL     OW 9774   4.409   1.012   4.389
 3254SOL    HW1 9775   4.478   0.996   4.459
 3254SOL    HW2 9776   4.336   1.069   4.427
 3255SOL     OW 9777   4.059   1.435   4.785
 3255SOL    HW1 9778   3.981   1.404   4.732
 3255SOL    HW2 9779   4.117   1.493   4.728
 3256SOL     OW 9780   3.955   1.713   4.207
 3256SOL    HW1 9781   3.989   1.790   4.261
 3256SOL    HW2 9782   3.999   1.713   4.117
 3257SOL     OW 9783   3.954   1.434   4.262
 3257SOL    HW1 9784   3.928   1.530   4.262
 3257SOL    HW2 9785   3.883   1.380   4.307
 3258SOL     OW 9786   3.964   1.091   4.610
 3258SOL    HW1 9787   3.978   1.007   4.662
 3258SOL    HW2 9788   3.909   1.155   4.665
 3259SOL     OW 9789   4.330   0.964   3.847
 3259SOL    HW1 9790   4.337   1.048   3.793
 3259SOL    HW2 9791   4.376   0.977   3.935
 3260SOL     OW 9792   3.846   0.643   4.287
 3260SOL    HW1 9793   3.801   0.555   4.304
 3260SOL    HW2 9794   3.845   0.697   4.371
 3261SOL     OW 9795   3.751   1.596   3.841
 3261SOL    HW1 9796   3.732   1.500   3.862
 3261SOL    HW2 9797   3.718   1.654   3.916
 3262SOL     OW 9798   4.337   1.365   4.450
 3262SOL    HW1 9799   4.288   1.278   4.459
 3262SOL    HW2 9800   4.314   1.408   4.363
 3263SOL     OW 9801   4.533   0.004   4.226
 3263SOL    HW1 9802   4.573   0.095   4.217
 3263SOL    HW2 9803   4.433   0.012   4.232
 3264SOL     OW 9804   3.921   0.976   4.988
 3264SOL    HW1 9805   4.010   0.931   4.974
 3264SOL    HW2 9806   3.848   0.911   4.969
 3265SOL     OW 9807   4.322   0.729   3.994
 3265SOL    HW1 9808   4.346   0.798   3.926
 3265SOL    HW2 9809   4.244   0.762   4.048
 3266SOL     OW 9810   4.765   0.701   4.153
 3266SOL    HW1 9811   4.791   0.697   4.249
 3266SOL    HW2 9812   4.680   0.650   4.139
 3267SOL     OW 9813   3.800   0.811   4.513
 3267SOL    HW1 9814   3.899   0.799   4.522
 3267SOL    HW2 9815   3.776   0.906   4.534
 3268SOL     OW 9816   4.589   0.348   3.919
 3268SOL    HW1 9817   4.648   0.411   3.870
 3268SOL    HW2 9818   4.608   0.254   3.890
 3269SOL     OW 9819   4.274   0.196   4.609
 3269SOL    HW1 9820   4.269   0.191   4.709
 3269SOL    HW2 9821   4.276   0.292   4.580
 3270SOL     OW 9822   4.732   1.456   4.201
 3270SOL    HW1 9823   4.686   1.528   4.149
 3270SOL    HW2 9824   4.728   1.476   4.299
 3271SOL     OW 9825   4.075   1.801   4.577
 3271SOL    HW1 9826   4.125   1.715   4.583
 3271SOL    HW2 9827   4.140   1.878   4.574
 3272SOL     OW 9828   4.045   0.943   3.966
 3272SOL    HW1 9829   4.127   0.982   3.924
 3272SOL    HW2 9830   4.018   0.861   3.917
 3273SOL     OW 9831   4.188   1.743   4.047
 3273SOL    HW1 9832   4.221   1.782   4.133
 3273SOL    HW2 9833   4.264   1.736   3.982
 3274SOL     OW 9834   3.973   1.785   4.965
 3274SOL    HW1 9835   4.030   1.720   5.015
 3274SOL    HW2 9836   3.957   1.752   4.872
 3275SOL     OW 9837   4.664   1.698   4.628
 3275SOL    HW1 9838   4.744   1.641   4.649
 3275SOL    HW2 9839   4.615   1.658   4.551
 3276SOL     OW 9840   4.106   0.700   4.204
 3276SOL    HW1 9841   4.151   0.610   4.201
 3276SOL    HW2 9842   4.012   0.689   4.237
 3277SOL     OW 9843   4.338   0.122   3.841
 3277SOL    HW1 9844   4.436   0.100   3.848
 3277SOL    HW2 9845   4.307   0.105   3.748
 3278SOL     OW 9846   4.527   1.402   4.648
 3278SOL    HW1 9847   4.617   1.416   4.606
 3278SOL    HW2 9848   4.456   1.404   4.577
 3279SOL     OW 9849   4.646   0.503   4.623
 3279SOL    HW1 9850   4.621   0.494   4.527
 3279SOL    HW2 9851   4.694   0.421   4.654
 3280SOL     OW 9852   4.263   0.064   4.236
 3280SOL    HW1 9853   4.182   0.065   4.294
 3280SOL    HW2 9854   4.266   0.147   4.181
 3281SOL     OW 9855   4.021   0.035   3.895
 3281SOL    HW1 9856   4.070   0.119   3.874
 3281SOL    HW2 9857   4.083  -0.030   3.940
 3282SOL     OW 9858   4.659   0.236   4.204
 3282SOL    HW1 9859   4.611   0.277   4.126
 3282SOL    HW2 9860   4.758   0.234   4.185
 3283SOL     OW 9861   4.951   1.570   4.517
 3283SOL    HW1 9862   4.972   1.644   4.452
 3283SOL    HW2 9863   5.019   1.570   4.590
 3284SOL     OW 9864   4.183   1.152   4.465
 3284SOL    HW1 9865   4.112   1.125   4.530
 3284SOL    HW2 9866   4.157   1.124   4.372
 3285SOL     OW 9867   4.995   1.797   4.315
 3285SOL    HW1 9868   5.039   1.861   4.251
 3285SOL    HW2 9869   4.945   1.849   4.385
 3286SOL     OW 9870   4.756   0.549   3.740
 3286SOL    HW1 9871   4.715   0.631   3.701
 3286SOL    HW2 9872   4.820   0.575   3.813
 3287SOL     OW 9873   4.590   0.454   4.366
 3287SOL    HW1 9874   4.558   0.526   4.304
 3287SOL    HW2 9875   4.614   0.373   4.313
 3288SOL     OW 9876   4.741   0.039   4.477
 3288SOL    HW1 9877   4.669   0.044   4.408
 3288SOL    HW2 9878   4.717  -0.030   4.546
 3289SOL     OW 9879   4.212   1.385   3.898
 3289SOL    HW1 9880   4.125   1.370   3.945
 3289SOL    HW2 9881   4.195   1.411   3.803
 3290SOL     OW 9882   4.251   0.256   4.052
 3290SOL    HW1 9883   4.278   0.197   3.977
 3290SOL    HW2 9884   4.251   0.351   4.021
 3291SOL     OW 9885   4.429   1.050   4.092
 3291SOL    HW1 9886   4.415   1.057   4.191
 3291SOL    HW2 9887   4.513   0.999   4.074
 3292SOL     OW 9888   4.134   0.813   4.975
 3292SOL    HW1 9889   4.220   0.825   5.025
 3292SOL    HW2 9890   4.092   0.726   5.002
 3293SOL     OW 9891   4.091   1.100   4.225
 3293SOL    HW1 9892   4.084   1.183   4.169
 3293SOL    HW2 9893   4.095   1.020   4.165
 3294SOL     OW 9894   4.290   0.537   4.589
 3294SOL    HW1 9895   4.302   0.603   4.515
 3294SOL    HW2 9896   4.336   0.571   4.672
 3295SOL     OW 9897   4.976   1.348   4.112
 3295SOL    HW1 9898   5.026   1.425   4.152
 3295SOL    HW2 9899   4.881   1.350   4.144
 3296SOL     OW 9900   4.996   1.445   4.866
 3296SOL    HW1 9901   5.043   1.458   4.953
 3296SOL    HW2 9902   4.930   1.371   4.875
 3297SOL     OW 9903   4.297   0.870   4.753
 3297SOL    HW1 9904   4.341   0.959   4.744
 3297SOL    HW2 9905   4.234   0.870   4.830
 3298SOL     OW 9906   5.084   0.862   4.769
 3298SOL    HW1 9907   5.009   0.862   4.703
 3298SOL    HW2 9908   5.121   0.770   4.778
 3299SOL     OW 9909   4.933   0.525   3.999
 3299SOL    HW1 9910   4.946   0.441   4.053
 3299SOL    HW2 9911   4.904   0.599   4.059
 3300SOL     OW 9912   4.031   0.213   4.955
 3300SOL    HW1 9913   4.008   0.250   5.045
 3300SOL    HW2 9914   4.001   0.118   4.949
 3301SOL     OW 9915   4.456   0.634   4.788
 3301SOL    HW1 9916   4.515   0.608   4.712
 3301SOL    HW2 9917   4.428   0.730   4.777
 3302SOL     OW 9918   4.031   0.063   4.342
 3302SOL    HW1 9919   4.020   0.157   4.375
 3302SOL    HW2 9920   4.026   0.000   4.419
 3303SOL     OW 9921   4.747   0.766   4.690
 3303SOL    HW1 9922   4.762   0.787   4.786
 3303SOL    HW2 9923   4.717   0.671   4.681
 3304SOL     OW 9924   5.027   0.838   3.766
 3304SOL    HW1 9925   5.061   0.745   3.781
 3304SOL    HW2 9926   5.045   0.865   3.671
 3305SOL     OW 9927   4.792   1.333   4.573
 3305SOL    HW1 9928   4.799   1.249   4.518
 3305SOL    HW2 9929   4.854   1.402   4.537
 3306SOL     OW 9930   4.043   0.810   4.673
 3306SOL    HW1 9931   4.136   0.846   4.678
 3306SOL    HW2 9932   4.037   0.725   4.725
 3307SOL     OW 9933   4.063   0.509   4.730
 3307SOL    HW1 9934   4.011   0.426   4.713
 3307SOL    HW2 9935   4.140   0.514   4.666
 3308SOL     OW 9936   3.732   1.326   3.924
 3308SOL    HW1 9937   3.639   1.347   3.893
 3308SOL    HW2 9938   3.742   1.227   3.937
 3309SOL     OW 9939   3.812   1.801   4.651
 3309SOL    HW1 9940   3.770   1.715   4.624
 3309SOL    HW2 9941   3.906   1.804   4.617
 3310SOL     OW 9942   4.228   1.568   4.634
 3310SOL    HW1 9943   4.294   1.642   4.643
 3310SOL    HW2 9944   4.272   1.489   4.592
 3311SOL     OW 9945   4.726   0.796   4.962
 3311SOL    HW1 9946   4.767   0.764   5.048
 3311SOL    HW2 9947   4.630   0.769   4.959
 3312SOL     OW 9948   3.764   0.544   4.838
 3312SOL    HW1 9949   3.849   0.511   4.797
 3312SOL    HW2 9950   3.777   0.559   4.936
 3313SOL     OW 9951   4.539   0.572   4.049
 3313SOL    HW1 9952   4.546   0.483   4.003
 3313SOL    HW2 9953   4.445   0.606   4.041
 3314SOL     OW 9954   4.395   0.464   4.993
 3314SOL    HW1 9955   4.361   0.375   4.963
 3314SOL    HW2 9956   4.421   0.518   4.913
 3315SOL     OW 9957   4.197   0.500   3.915
 3315SOL    HW1 9958   4.258   0.580   3.919
 3315SOL    HW2 9959   4.102   0.531   3.922
 3316SOL     OW 9960   5.026   0.855   4.033
 3316SOL    HW1 9961   4.940   0.824   4.075
 3316SOL    HW2 9962   5.022   0.841   3.934
 3317SOL     OW 9963   3.807   1.258   4.746
 3317SOL    HW1 9964   3.802   1.257   4.846
 3317SOL    HW2 9965   3.724   1.217   4.708
 3318SOL     OW 9966   4.396   1.616   3.878
 3318SOL    HW1 9967   4.405   1.626   3.779
 3318SOL    HW2 9968   4.356   1.527   3.899
 3319SOL     OW 9969   3.987   0.326   4.444
 3319SOL    HW1 9970   3.908   0.377   4.410
 3319SOL    HW2 9971   3.978   0.311   4.542
 3320SOL     OW 9972   4.546   1.002   5.096
 3320SOL    HW1 9973   4.586   1.001   5.004
 3320SOL    HW2 9974   4.556   1.094   5.136
 3321SOL     OW 9975   4.640   0.910   4.015
 3321SOL    HW1 9976   4.703   0.948   3.947
 3321SOL    HW2 9977   4.680   0.827   4.054
 3322SOL     OW 9978   4.763   1.098   4.420
 3322SOL    HW1 9979   4.693   1.051   4.474
 3322SOL    HW2 9980   4.822   1.030   4.377
 3323SOL     OW 9981   4.738   0.236   4.695
 3323SOL    HW1 9982   4.730   0.200   4.602
 3323SOL    HW2 9983   4.736   0.160   4.760
 3324SOL     OW 9984   4.314   1.487   4.215
 3324SOL    HW1 9985   4.356   1.429   4.145
 3324SOL    HW2 9986   4.270   1.566   4.171
 3325SOL     OW 9987   3.979   1.348   4.014
 3325SOL    HW1 9988   3.883   1.349   3.987
 3325SOL    HW2 9989   3.991   1.401   4.098
 3326SOL     OW 9990   3.799   0.345   3.757
 3326SOL    HW1 9991   3.707   0.317   3.728
 3326SOL    HW2 9992   3.830   0.422   3.701
 3327SOL     OW 9993   3.796   0.166   4.042
 3327SOL    HW1 9994   3.779   0.249   3.988
 3327SOL    HW2 9995   3.886   0.129   4.020
 3328SOL     OW 9996   4.318   0.745   4.376
 3328SOL    HW1 9997   4.368   0.830   4.357
 3328SOL    HW2 9998   4.230   0.747   4.328
 3329SOL     OW 9999   4.583   1.374   3.740
 3329SOL    HW110000   4.537   1.389   3.828
 3329SOL    HW210001   4.627   1.459   3.710
 3330SOL     OW10002   4.385   1.790   4.677
 3330SOL    HW110003   4.339   1.878   4.664
 3330SOL    HW210004   4.484   1.802   4.670
 3331SOL     OW10005   4.583   0.956   4.585
 3331SOL    HW110006   4.637   0.887   4.633
 3331SOL    HW210007   4.551   1.025   4.651
 3332SOL     OW10008   4.807   0.984   3.811
 3332SOL    HW110009   4.784   1.037   3.729
 3332SOL    HW210010   4.888   0.928   3.792
 3333SOL     OW10011   3.803   1.240   4.377
 3333SOL    HW110012   3.802   1.193   4.465
 3333SOL    HW210013   3.885   1.212   4.326
 3334SOL     OW10014   4.152   0.424   4.244
 3334SOL    HW110015   4.182   0.352   4.182
 3334SOL    HW210016   4.113   0.384   4.327
 3335SOL     OW10017   4.536   1.586   4.411
 3335SOL    HW110018   4.568   1.596   4.317
 3335SOL    HW210019   4.457   1.524   4.413
 3336SOL     OW10020   4.494   1.330   4.025
 3336SOL    HW110021   4.448   1.243   4.042
 3336SOL    HW210022   4.585   1.327   4.066
 3337SOL     OW10023   3.763   1.077   4.024
 3337SOL    HW110024   3.862   1.066   4.015
 3337SOL    HW210025   3.723   0.991   4.056
 3338SOL     OW10026   4.599   1.646   4.061
 3338SOL    HW110027   4.522   1.611   4.007
 3338SOL    HW210028   4.567   1.717   4.123
 3339SOL     OW10029   3.954   2.490   0.113
 3339SOL    HW110030   3.861   2.488   0.150
 3339SOL    HW210031   3.955   2.451   0.021
 3340SOL     OW10032   3.949   2.137   0.996
 3340SOL    HW110033   3.984   2.120   1.088
 3340SOL    HW210034   3.861   2.092   0.984
 3341SOL     OW10035   3.743   2.230   0.647
 3341SOL    HW110036   3.661   2.273   0.686
 3341SOL    HW210037   3.715   2.157   0.584
 3342SOL     OW10038   4.293   3.137   1.165
 3342SOL    HW110039   4.200   3.130   1.128
 3342SOL    HW210040   4.304   3.226   1.209
 3343SOL     OW10041   4.492   3.006   1.023
 3343SOL    HW110042   4.414   3.023   1.083
 3343SOL    HW210043   4.526   3.093   0.987
 3344SOL     OW10044   4.574   2.660   1.823
 3344SOL    HW110045   4.570   2.736   1.888
 3344SOL    HW210046   4.596   2.696   1.732
 3345SOL     OW10047   4.409   2.874   0.665
 3345SOL    HW110048   4.478   2.858   0.735
 3345SOL    HW210049   4.336   2.931   0.703
 3346SOL     OW10050   4.410   3.023   1.803
 3346SOL    HW110051   4.470   3.102   1.817
 3346SOL    HW210052   4.324   3.054   1.762
 3347SOL     OW10053   4.059   3.297   1.061
 3347SOL    HW110054   3.981   3.266   1.008
 3347SOL    HW210055   4.117   3.355   1.004
 3348SOL     OW10056   4.162   2.254   1.499
 3348SOL    HW110057   4.244   2.198   1.508
 3348SOL    HW210058   4.081   2.196   1.503
 3349SOL     OW10059   3.955   3.575   0.483
 3349SOL    HW110060   3.989   3.652   0.537
 3349SOL    HW210061   3.999   3.575   0.393
 3350SOL     OW10062   4.851   3.203   1.690
 3350SOL    HW110063   4.898   3.203   1.778
 3350SOL    HW210064   4.803   3.116   1.679
 3351SOL     OW10065   3.954   3.296   0.538
 3351SOL    HW110066   3.928   3.392   0.538
 3351SOL    HW210067   3.883   3.242   0.583
 3352SOL     OW10068   3.964   2.953   0.886
 3352SOL    HW110069   3.978   2.869   0.938
 3352SOL    HW210070   3.909   3.017   0.941
 3353SOL     OW10071   4.344   3.648   1.439
 3353SOL    HW110072   4.252   3.631   1.474
 3353SOL    HW210073   4.372   3.740   1.465
 3354SOL     OW10074   4.330   2.826   0.123
 3354SOL    HW110075   4.337   2.910   0.069
 3354SOL    HW210076   4.376   2.839   0.211
 3355SOL     OW10077   3.846   2.505   0.563
 3355SOL    HW110078   3.801   2.417   0.580
 3355SOL    HW210079   3.845   2.559   0.647
 3356SOL     OW10080   3.751   3.458   0.117
 3356SOL    HW110081   3.732   3.362   0.138
 3356SOL    HW210082   3.718   3.516   0.192
 3357SOL     OW10083   3.837   2.599   1.597
 3357SOL    HW110084   3.925   2.586   1.642
 3357SOL    HW210085   3.824   2.696   1.575
 3358SOL     OW10086   4.337   3.227   0.726
 3358SOL    HW110087   4.288   3.140   0.735
 3358SOL    HW210088   4.314   3.270   0.639
 3359SOL     OW10089   4.533   1.866   0.502
 3359SOL    HW110090   4.573   1.957   0.493
 3359SOL    HW210091   4.433   1.874   0.508
 3360SOL     OW10092   3.921   2.838   1.264
 3360SOL    HW110093   4.010   2.793   1.250
 3360SOL    HW210094   3.848   2.773   1.245
 3361SOL     OW10095   4.041   2.113   1.801
 3361SOL    HW110096   4.112   2.184   1.807
 3361SOL    HW210097   3.953   2.152   1.829
 3362SOL     OW10098   4.322   2.591   0.270
 3362SOL    HW110099   4.346   2.660   0.202
 3362SOL    HW210100   4.244   2.624   0.324
 3363SOL     OW10101   4.531   2.467   1.465
 3363SOL    HW110102   4.484   2.464   1.554
 3363SOL    HW210103   4.480   2.412   1.399
 3364SOL     OW10104   4.697   2.752   1.572
 3364SOL    HW110105   4.743   2.668   1.543
 3364SOL    HW210106   4.641   2.786   1.497
 3365SOL     OW10107   4.715   2.272   1.242
 3365SOL    HW110108   4.638   2.306   1.296
 3365SOL    HW210109   4.681   2.221   1.163
 3366SOL     OW10110   4.765   2.563   0.429
 3366SOL    HW110111   4.791   2.559   0.525
 3366SOL    HW210112   4.680   2.512   0.415
 3367SOL     OW10113   3.800   2.673   0.789
 3367SOL    HW110114   3.899   2.661   0.798
 3367SOL    HW210115   3.776   2.768   0.810
 3368SOL     OW10116   3.854   3.683   1.571
 3368SOL    HW110117   3.844   3.668   1.670
 3368SOL    HW210118   3.768   3.719   1.535
 3369SOL     OW10119   4.589   2.210   0.195
 3369SOL    HW110120   4.648   2.273   0.146
 3369SOL    HW210121   4.608   2.116   0.166
 3370SOL     OW10122   4.274   2.058   0.885
 3370SOL    HW110123   4.269   2.053   0.985
 3370SOL    HW210124   4.276   2.154   0.856
 3371SOL     OW10125   4.732   3.318   0.477
 3371SOL    HW110126   4.686   3.390   0.425
 3371SOL    HW210127   4.728   3.338   0.575
 3372SOL     OW10128   4.075   3.663   0.853
 3372SOL    HW110129   4.125   3.577   0.859
 3372SOL    HW210130   4.140   3.740   0.850
 3373SOL     OW10131   4.045   2.805   0.242
 3373SOL    HW110132   4.127   2.844   0.200
 3373SOL    HW210133   4.018   2.723   0.193
 3374SOL     OW10134   4.185   3.128   1.727
 3374SOL    HW110135   4.135   3.129   1.641
 3374SOL    HW210136   4.122   3.110   1.803
 3375SOL     OW10137   3.926   2.147   1.498
 3375SOL    HW110138   3.846   2.207   1.485
 3375SOL    HW210139   3.916   2.098   1.584
 3376SOL     OW10140   4.188   3.605   0.323
 3376SOL    HW110141   4.221   3.644   0.409
 3376SOL    HW210142   4.264   3.598   0.258
 3377SOL     OW10143   3.973   3.647   1.241
 3377SOL    HW110144   4.030   3.582   1.291
 3377SOL    HW210145   3.957   3.614   1.148
 3378SOL     OW10146   4.664   3.560   0.904
 3378SOL    HW110147   4.744   3.503   0.925
 3378SOL    HW210148   4.615   3.520   0.827
 3379SOL     OW10149   4.106   2.562   0.480
 3379SOL    HW110150   4.151   2.472   0.477
 3379SOL    HW210151   4.012   2.551   0.513
 3380SOL     OW10152   4.338   1.984   0.117
 3380SOL    HW110153   4.436   1.962   0.124
 3380SOL    HW210154   4.307   1.967   0.024
 3381SOL     OW10155   4.505   2.126   1.749
 3381SOL    HW110156   4.572   2.065   1.792
 3381SOL    HW210157   4.432   2.145   1.814
 3382SOL     OW10158   4.612   3.376   1.195
 3382SOL    HW110159   4.589   3.351   1.101
 3382SOL    HW210160   4.673   3.307   1.234
 3383SOL     OW10161   4.527   3.264   0.924
 3383SOL    HW110162   4.617   3.278   0.882
 3383SOL    HW210163   4.456   3.266   0.853
 3384SOL     OW10164   4.646   2.365   0.899
 3384SOL    HW110165   4.621   2.356   0.803
 3384SOL    HW210166   4.694   2.283   0.930
 3385SOL     OW10167   4.263   1.926   0.512
 3385SOL    HW110168   4.182   1.927   0.570
 3385SOL    HW210169   4.266   2.009   0.457
 3386SOL     OW10170   4.021   1.897   0.171
 3386SOL    HW110171   4.070   1.981   0.150
 3386SOL    HW210172   4.083   1.832   0.216
 3387SOL     OW10173   4.659   2.098   0.480
 3387SOL    HW110174   4.611   2.139   0.402
 3387SOL    HW210175   4.758   2.096   0.461
 3388SOL     OW10176   4.951   3.432   0.793
 3388SOL    HW110177   4.972   3.506   0.728
 3388SOL    HW210178   5.019   3.432   0.866
 3389SOL     OW10179   4.183   3.014   0.741
 3389SOL    HW110180   4.112   2.987   0.806
 3389SOL    HW210181   4.157   2.986   0.648
 3390SOL     OW10182   4.995   3.659   0.591
 3390SOL    HW110183   5.039   3.723   0.527
 3390SOL    HW210184   4.945   3.711   0.661
 3391SOL     OW10185   4.756   2.411   0.016
 3391SOL    HW110186   4.715   2.493  -0.023
 3391SOL    HW210187   4.820   2.437   0.089
 3392SOL     OW10188   3.802   2.418   1.386
 3392SOL    HW110189   3.894   2.417   1.345
 3392SOL    HW210190   3.796   2.492   1.453
 3393SOL     OW10191   4.285   2.084   1.147
 3393SOL    HW110192   4.323   2.000   1.184
 3393SOL    HW210193   4.197   2.103   1.191
 3394SOL     OW10194   4.590   2.316   0.642
 3394SOL    HW110195   4.558   2.388   0.580
 3394SOL    HW210196   4.614   2.235   0.589
 3395SOL     OW10197   4.741   1.901   0.753
 3395SOL    HW110198   4.669   1.906   0.684
 3395SOL    HW210199   4.717   1.832   0.822
 3396SOL     OW10200   4.212   3.247   0.174
 3396SOL    HW110201   4.125   3.232   0.221
 3396SOL    HW210202   4.195   3.273   0.079
 3397SOL     OW10203   4.251   2.118   0.328
 3397SOL    HW110204   4.278   2.059   0.253
 3397SOL    HW210205   4.251   2.213   0.297
 3398SOL     OW10206   4.639   1.951   1.402
 3398SOL    HW110207   4.664   1.931   1.307
 3398SOL    HW210208   4.711   2.007   1.444
 3399SOL     OW10209   4.704   2.978   1.719
 3399SOL    HW110210   4.605   2.984   1.729
 3399SOL    HW210211   4.727   2.898   1.663
 3400SOL     OW10212   4.429   2.912   0.368
 3400SOL    HW110213   4.415   2.919   0.467
 3400SOL    HW210214   4.513   2.861   0.350
 3401SOL     OW10215   4.134   2.675   1.251
 3401SOL    HW110216   4.220   2.687   1.301
 3401SOL    HW210217   4.092   2.588   1.278
 3402SOL     OW10218   3.788   3.426   1.331
 3402SOL    HW110219   3.742   3.508   1.297
 3402SOL    HW210220   3.886   3.445   1.340
 3403SOL     OW10221   4.091   2.962   0.501
 3403SOL    HW110222   4.084   3.045   0.445
 3403SOL    HW210223   4.095   2.882   0.441
 3404SOL     OW10224   4.290   2.399   0.865
 3404SOL    HW110225   4.302   2.465   0.791
 3404SOL    HW210226   4.336   2.433   0.948
 3405SOL     OW10227   4.976   3.210   0.388
 3405SOL    HW110228   5.026   3.287   0.428
 3405SOL    HW210229   4.881   3.212   0.420
 3406SOL     OW10230   4.078   3.372   1.329
 3406SOL    HW110231   4.057   3.328   1.242
 3406SOL    HW210232   4.175   3.398   1.332
 3407SOL     OW10233   4.126   2.613   1.598
 3407SOL    HW110234   4.194   2.668   1.551
 3407SOL    HW210235   4.166   2.525   1.625
 3408SOL     OW10236   4.737   1.967   1.770
 3408SOL    HW110237   4.743   2.052   1.718
 3408SOL    HW210238   4.769   1.891   1.713
 3409SOL     OW10239   4.228   1.912   1.740
 3409SOL    HW110240   4.186   1.855   1.670
 3409SOL    HW210241   4.162   1.981   1.772
 3410SOL     OW10242   4.297   2.732   1.029
 3410SOL    HW110243   4.341   2.821   1.020
 3410SOL    HW210244   4.234   2.732   1.106
 3411SOL     OW10245   5.084   2.724   1.045
 3411SOL    HW110246   5.009   2.724   0.979
 3411SOL    HW210247   5.121   2.632   1.054
 3412SOL     OW10248   4.933   2.387   0.275
 3412SOL    HW110249   4.946   2.303   0.329
 3412SOL    HW210250   4.904   2.461   0.335
 3413SOL     OW10251   4.031   2.075   1.231
 3413SOL    HW110252   4.008   2.112   1.321
 3413SOL    HW210253   4.001   1.980   1.225
 3414SOL     OW10254   3.761   3.172   1.282
 3414SOL    HW110255   3.814   3.123   1.350
 3414SOL    HW210256   3.783   3.270   1.287
 3415SOL     OW10257   4.456   2.496   1.064
 3415SOL    HW110258   4.515   2.470   0.988
 3415SOL    HW210259   4.428   2.592   1.053
 3416SOL     OW10260   4.031   1.925   0.618
 3416SOL    HW110261   4.020   2.019   0.651
 3416SOL    HW210262   4.026   1.862   0.695
 3417SOL     OW10263   4.747   2.628   0.966
 3417SOL    HW110264   4.762   2.649   1.062
 3417SOL    HW210265   4.717   2.533   0.957
 3418SOL     OW10266   4.704   3.435   1.700
 3418SOL    HW110267   4.684   3.479   1.612
 3418SOL    HW210268   4.743   3.344   1.684
 3419SOL     OW10269   4.074   2.760   1.804
 3419SOL    HW110270   4.150   2.804   1.852
 3419SOL    HW210271   4.109   2.713   1.722
 3420SOL     OW10272   4.792   3.195   0.849
 3420SOL    HW110273   4.799   3.111   0.794
 3420SOL    HW210274   4.854   3.264   0.813
 3421SOL     OW10275   4.043   2.672   0.949
 3421SOL    HW110276   4.136   2.708   0.954
 3421SOL    HW210277   4.037   2.587   1.001
 3422SOL     OW10278   4.063   2.371   1.006
 3422SOL    HW110279   4.011   2.288   0.989
 3422SOL    HW210280   4.140   2.376   0.942
 3423SOL     OW10281   4.862   2.242   1.678
 3423SOL    HW110282   4.817   2.305   1.742
 3423SOL    HW210283   4.955   2.273   1.661
 3424SOL     OW10284   4.884   2.069   1.477
 3424SOL    HW110285   4.884   2.133   1.554
 3424SOL    HW210286   4.912   2.117   1.394
 3425SOL     OW10287   3.732   3.188   0.200
 3425SOL    HW110288   3.639   3.209   0.169
 3425SOL    HW210289   3.742   3.089   0.213
 3426SOL     OW10290   3.812   3.663   0.927
 3426SOL    HW110291   3.770   3.577   0.900
 3426SOL    HW210292   3.906   3.666   0.893
 3427SOL     OW10293   4.228   3.430   0.910
 3427SOL    HW110294   4.294   3.504   0.919
 3427SOL    HW210295   4.272   3.351   0.868
 3428SOL     OW10296   4.726   2.658   1.238
 3428SOL    HW110297   4.767   2.626   1.324
 3428SOL    HW210298   4.630   2.631   1.235
 3429SOL     OW10299   3.764   2.406   1.114
 3429SOL    HW110300   3.849   2.373   1.073
 3429SOL    HW210301   3.777   2.421   1.212
 3430SOL     OW10302   3.913   2.382   1.722
 3430SOL    HW110303   3.972   2.342   1.652
 3430SOL    HW210304   3.855   2.453   1.681
 3431SOL     OW10305   4.539   2.434   0.325
 3431SOL    HW110306   4.546   2.345   0.279
 3431SOL    HW210307   4.445   2.468   0.317
 3432SOL     OW10308   3.976   3.426   1.744
 3432SOL    HW110309   3.946   3.483   1.820
 3432SOL    HW210310   3.969   3.329   1.770
 3433SOL     OW10311   4.395   2.326   1.269
 3433SOL    HW110312   4.361   2.237   1.239
 3433SOL    HW210313   4.421   2.380   1.189
 3434SOL     OW10314   4.654   3.540   1.465
 3434SOL    HW110315   4.630   3.522   1.370
 3434SOL    HW210316   4.684   3.634   1.475
 3435SOL     OW10317   4.197   2.362   0.191
 3435SOL    HW110318   4.258   2.442   0.195
 3435SOL    HW210319   4.102   2.393   0.198
 3436SOL     OW10320   3.883   2.999   1.466
 3436SOL    HW110321   3.905   2.938   1.542
 3436SOL    HW210322   3.893   2.950   1.380
 3437SOL     OW10323   5.026   2.717   0.309
 3437SOL    HW110324   4.940   2.686   0.351
 3437SOL    HW210325   5.022   2.703   0.210
 3438SOL     OW10326   3.807   3.120   1.022
 3438SOL    HW110327   3.802   3.119   1.122
 3438SOL    HW210328   3.724   3.079   0.984
 3439SOL     OW10329   4.412   3.524   1.716
 3439SOL    HW110330   4.356   3.605   1.725
 3439SOL    HW210331   4.464   3.528   1.630
 3440SOL     OW10332   4.627   1.948   0.133
 3440SOL    HW110333   4.678   1.949   0.047
 3440SOL    HW210334   4.683   1.906   0.204
 3441SOL     OW10335   3.854   3.656   1.851
 3441SOL    HW110336   3.813   3.582   1.904
 3441SOL    HW210337   3.918   3.707   1.909
 3442SOL     OW10338   4.554   3.135   1.422
 3442SOL    HW110339   4.549   3.168   1.517
 3442SOL    HW210340   4.468   3.154   1.376
 3443SOL     OW10341   4.396   3.478   0.154
 3443SOL    HW110342   4.405   3.488   0.055
 3443SOL    HW210343   4.356   3.389   0.175
 3444SOL     OW10344   3.987   2.188   0.720
 3444SOL    HW110345   3.908   2.239   0.686
 3444SOL    HW210346   3.978   2.173   0.818
 3445SOL     OW10347   4.546   2.864   1.372
 3445SOL    HW110348   4.586   2.863   1.280
 3445SOL    HW210349   4.556   2.956   1.412
 3446SOL     OW10350   4.640   2.772   0.291
 3446SOL    HW110351   4.703   2.810   0.223
 3446SOL    HW210352   4.680   2.689   0.330
 3447SOL     OW10353   4.096   3.150   1.490
 3447SOL    HW110354   4.083   3.243   1.456
 3447SOL    HW210355   4.012   3.098   1.477
 3448SOL     OW10356   4.763   2.960   0.696
 3448SOL    HW110357   4.693   2.913   0.750
 3448SOL    HW210358   4.822   2.892   0.653
 3449SOL     OW10359   4.738   2.098   0.971
 3449SOL    HW110360   4.730   2.062   0.878
 3449SOL    HW210361   4.736   2.022   1.036
 3450SOL     OW10362   4.314   3.349   0.491
 3450SOL    HW110363   4.356   3.291   0.421
 3450SOL    HW210364   4.270   3.428   0.447
 3451SOL     OW10365   3.979   3.210   0.290
 3451SOL    HW110366   3.883   3.211   0.263
 3451SOL    HW210367   3.991   3.263   0.374
 3452SOL     OW10368   3.829   2.875   1.726
 3452SOL    HW110369   3.752   2.842   1.780
 3452SOL    HW210370   3.914   2.845   1.768
 3453SOL     OW10371   4.396   2.065   1.489
 3453SOL    HW110372   4.486   2.049   1.449
 3453SOL    HW210373   4.404   2.070   1.588
 3454SOL     OW10374   3.796   2.028   0.318
 3454SOL    HW110375   3.779   2.111   0.264
 3454SOL    HW210376   3.886   1.991   0.296
 3455SOL     OW10377   4.337   2.704   1.431
 3455SOL    HW110378   4.393   2.785   1.414
 3455SOL    HW210379   4.396   2.624   1.434
 3456SOL     OW10380   4.440   2.427   1.708
 3456SOL    HW110381   4.459   2.492   1.782
 3456SOL    HW210382   4.500   2.347   1.717
 3457SOL     OW10383   4.114   3.603   1.560
 3457SOL    HW110384   4.023   3.644   1.558
 3457SOL    HW210385   4.107   3.509   1.592
 3458SOL     OW10386   4.318   2.607   0.652
 3458SOL    HW110387   4.368   2.692   0.633
 3458SOL    HW210388   4.230   2.609   0.604
 3459SOL     OW10389   4.583   3.236   0.016
 3459SOL    HW110390   4.537   3.251   0.104
 3459SOL    HW210391   4.627   3.321  -0.014
 3460SOL     OW10392   4.385   3.652   0.953
 3460SOL    HW110393   4.339   3.740   0.940
 3460SOL    HW210394   4.484   3.664   0.946
 3461SOL     OW10395   4.583   2.818   0.861
 3461SOL    HW110396   4.637   2.749   0.909
 3461SOL    HW210397   4.551   2.887   0.927
 3462SOL     OW10398   4.807   2.846   0.087
 3462SOL    HW110399   4.784   2.899   0.005
 3462SOL    HW210400   4.888   2.790   0.068
 3463SOL     OW10401   3.945   3.176   1.844
 3463SOL    HW110402   3.880   3.103   1.823
 3463SOL    HW210403   3.949   3.190   1.942
 3464SOL     OW10404   3.803   3.102   0.653
 3464SOL    HW110405   3.802   3.055   0.741
 3464SOL    HW210406   3.885   3.074   0.602
 3465SOL     OW10407   4.396   3.253   1.624
 3465SOL    HW110408   4.318   3.203   1.662
 3465SOL    HW210409   4.393   3.348   1.655
 3466SOL     OW10410   4.152   2.286   0.520
 3466SOL    HW110411   4.182   2.214   0.458
 3466SOL    HW210412   4.113   2.246   0.603
 3467SOL     OW10413   4.041   2.409   1.280
 3467SOL    HW110414   4.079   2.350   1.352
 3467SOL    HW210415   4.081   2.383   1.192
 3468SOL     OW10416   4.536   3.448   0.687
 3468SOL    HW110417   4.568   3.458   0.593
 3468SOL    HW210418   4.457   3.386   0.689
 3469SOL     OW10419   4.725   1.896   1.154
 3469SOL    HW110420   4.662   1.824   1.123
 3469SOL    HW210421   4.818   1.860   1.154
 3470SOL     OW10422   4.494   3.192   0.301
 3470SOL    HW110423   4.448   3.105   0.318
 3470SOL    HW210424   4.585   3.189   0.342
 3471SOL     OW10425   4.342   3.429   1.284
 3471SOL    HW110426   4.337   3.511   1.341
 3471SOL    HW210427   4.431   3.426   1.239
 3472SOL     OW10428   3.763   2.939   0.300
 3472SOL    HW110429   3.862   2.928   0.291
 3472SOL    HW210430   3.723   2.853   0.332
 3473SOL     OW10431   4.599   3.508   0.337
 3473SOL    HW110432   4.522   3.473   0.283
 3473SOL    HW210433   4.567   3.579   0.399
 3474SOL     OW10434   3.954   2.490   1.975
 3474SOL    HW110435   3.861   2.488   2.012
 3474SOL    HW210436   3.955   2.451   1.883
 3475SOL     OW10437   3.949   2.137   2.858
 3475SOL    HW110438   3.984   2.120   2.950
 3475SOL    HW210439   3.861   2.092   2.846
 3476SOL     OW10440   3.743   2.230   2.509
 3476SOL    HW110441   3.661   2.273   2.548
 3476SOL    HW210442   3.715   2.157   2.446
 3477SOL     OW10443   4.293   3.137   3.027
 3477SOL    HW110444   4.200   3.130   2.990
 3477SOL    HW210445   4.304   3.226   3.071
 3478SOL     OW10446   4.492   3.006   2.885
 3478SOL    HW110447   4.414   3.023   2.945
 3478SOL    HW210448   4.526   3.093   2.849
 3479SOL     OW10449   4.574   2.660   3.685
 3479SOL    HW110450   4.570   2.736   3.750
 3479SOL    HW210451   4.596   2.696   3.594
 3480SOL     OW10452   4.409   2.874   2.527
 3480SOL    HW110453   4.478   2.858   2.597
 3480SOL    HW210454   4.336   2.931   2.565
 3481SOL     OW10455   4.410   3.023   3.665
 3481SOL    HW110456   4.470   3.102   3.679
 3481SOL    HW210457   4.324   3.054   3.624
 3482SOL     OW10458   4.059   3.297   2.923
 3482SOL    HW110459   3.981   3.266   2.870
 3482SOL    HW210460   4.117   3.355   2.866
 3483SOL     OW10461   4.162   2.254   3.361
 3483SOL    HW110462   4.244   2.198   3.370
 3483SOL    HW210463   4.081   2.196   3.365
 3484SOL     OW10464   3.955   3.575   2.345
 3484SOL    HW110465   3.989   3.652   2.399
 3484SOL    HW210466   3.999   3.575   2.255
 3485SOL     OW10467   4.851   3.203   3.552
 3485SOL    HW110468   4.898   3.203   3.640
 3485SOL    HW210469   4.803   3.116   3.541
 3486SOL     OW10470   3.954   3.296   2.400
 3486SOL    HW110471   3.928   3.392   2.400
 3486SOL    HW210472   3.883   3.242   2.445
 3487SOL     OW10473   3.964   2.953   2.748
 3487SOL    HW110474   3.978   2.869   2.800
 3487SOL    HW210475   3.909   3.017   2.803
 3488SOL     OW10476   4.344   3.648   3.301
 3488SOL    HW110477   4.252   3.631   3.336
 3488SOL    HW210478   4.372   3.740   3.327
 3489SOL     OW10479   4.330   2.826   1.985
 3489SOL    HW110480   4.337   2.910   1.931
 3489SOL    HW210481   4.376   2.839   2.073
 3490SOL     OW10482   3.846   2.505   2.425
 3490SOL    HW110483   3.801   2.417   2.442
 3490SOL    HW210484   3.845   2.559   2.509
 3491SOL     OW10485   3.751   3.458   1.979
 3491SOL    HW110486   3.732   3.362   2.000
 3491SOL    HW210487   3.718   3.516   2.054
 3492SOL     OW10488   3.837   2.599   3.459
 3492SOL    HW110489   3.925   2.586   3.504
 3492SOL    HW210490   3.824   2.696   3.437
 3493SOL     OW10491   4.337   3.227   2.588
 3493SOL    HW110492   4.288   3.140   2.597
 3493SOL    HW210493   4.314   3.270   2.501
 3494SOL     OW10494   4.533   1.866   2.364
 3494SOL    HW110495   4.573   1.957   2.355
 3494SOL    HW210496   4.433   1.874   2.370
 3495SOL     OW10497   3.921   2.838   3.126
 3495SOL    HW110498   4.010   2.793   3.112
 3495SOL    HW210499   3.848   2.773   3.107
 3496SOL     OW10500   4.041   2.113   3.663
 3496SOL    HW110501   4.112   2.184   3.669
 3496SOL    HW210502   3.953   2.152   3.691
 3497SOL     OW10503   4.322   2.591   2.132
 3497SOL    HW110504   4.346   2.660   2.064
 3497SOL    HW210505   4.244   2.624   2.186
 3498SOL     OW10506   4.531   2.467   3.327
 3498SOL    HW110507   4.484   2.464   3.416
 3498SOL    HW210508   4.480   2.412   3.261
 3499SOL     OW10509   4.697   2.752   3.434
 3499SOL    HW110510   4.743   2.668   3.405
 3499SOL    HW210511   4.641   2.786   3.359
 3500SOL     OW10512   4.715   2.272   3.104
 3500SOL    HW110513   4.638   2.306   3.158
 3500SOL    HW210514   4.681   2.221   3.025
 3501SOL     OW10515   4.765   2.563   2.291
 3501SOL    HW110516   4.791   2.559   2.387
 3501SOL    HW210517   4.680   2.512   2.277
 3502SOL     OW10518   3.800   2.673   2.651
 3502SOL    HW110519   3.899   2.661   2.660
 3502SOL    HW210520   3.776   2.768   2.672
 3503SOL     OW10521   3.854   3.683   3.433
 3503SOL    HW110522   3.844   3.668   3.532
 3503SOL    HW210523   3.768   3.719   3.397
 3504SOL     OW10524   4.589   2.210   2.057
 3504SOL    HW110525   4.648   2.273   2.008
 3504SOL    HW210526   4.608   2.116   2.028
 3505SOL     OW10527   4.274   2.058   2.747
 3505SOL    HW110528   4.269   2.053   2.847
 3505SOL    HW210529   4.276   2.154   2.718
 3506SOL     OW10530   4.732   3.318   2.339
 3506SOL    HW110531   4.686   3.390   2.287
 3506SOL    HW210532   4.728   3.338   2.437
 3507SOL     OW10533   4.075   3.663   2.715
 3507SOL    HW110534   4.125   3.577   2.721
 3507SOL    HW210535   4.140   3.740   2.712
 3508SOL     OW10536   4.045   2.805   2.104
 3508SOL    HW110537   4.127   2.844   2.062
 3508SOL    HW210538   4.018   2.723   2.055
 3509SOL     OW10539   4.185   3.128   3.589
 3509SOL    HW110540   4.135   3.129   3.503
 3509SOL    HW210541   4.122   3.110   3.665
 3510SOL     OW10542   3.926   2.147   3.360
 3510SOL    HW110543   3.846   2.207   3.347
 3510SOL    HW210544   3.916   2.098   3.446
 3511SOL     OW10545   4.188   3.605   2.185
 3511SOL    HW110546   4.221   3.644   2.271
 3511SOL    HW210547   4.264   3.598   2.120
 3512SOL     OW10548   3.973   3.647   3.103
 3512SOL    HW110549   4.030   3.582   3.153
 3512SOL    HW210550   3.957   3.614   3.010
 3513SOL     OW10551   4.664   3.560   2.766
 3513SOL    HW110552   4.744   3.503   2.787
 3513SOL    HW210553   4.615   3.520   2.689
 3514SOL     OW10554   4.106   2.562   2.342
 3514SOL    HW110555   4.151   2.472   2.339
 3514SOL    HW210556   4.012   2.551   2.375
 3515SOL     OW10557   4.338   1.984   1.979
 3515SOL    HW110558   4.436   1.962   1.986
 3515SOL    HW210559   4.307   1.967   1.886
 3516SOL     OW10560   4.505   2.126   3.611
 3516SOL    HW110561   4.572   2.065   3.654
 3516SOL    HW210562   4.432   2.145   3.676
 3517SOL     OW10563   4.612   3.376   3.057
 3517SOL    HW110564   4.589   3.351   2.963
 3517SOL    HW210565   4.673   3.307   3.096
 3518SOL     OW10566   4.527   3.264   2.786
 3518SOL    HW110567   4.617   3.278   2.744
 3518SOL    HW210568   4.456   3.266   2.715
 3519SOL     OW10569   4.646   2.365   2.761
 3519SOL    HW110570   4.621   2.356   2.665
 3519SOL    HW210571   4.694   2.283   2.792
 3520SOL     OW10572   4.263   1.926   2.374
 3520SOL    HW110573   4.182   1.927   2.432
 3520SOL    HW210574   4.266   2.009   2.319
 3521SOL     OW10575   4.021   1.897   2.033
 3521SOL    HW110576   4.070   1.981   2.012
 3521SOL    HW210577   4.083   1.832   2.078
 3522SOL     OW10578   4.659   2.098   2.342
 3522SOL    HW110579   4.611   2.139   2.264
 3522SOL    HW210580   4.758   2.096   2.323
 3523SOL     OW10581   4.951   3.432   2.655
 3523SOL    HW110582   4.972   3.506   2.590
 3523SOL    HW210583   5.019   3.432   2.728
 3524SOL     OW10584   4.183   3.014   2.603
 3524SOL    HW110585   4.112   2.987   2.668
 3524SOL    HW210586   4.157   2.986   2.510
 3525SOL     OW10587   4.995   3.659   2.453
 3525SOL    HW110588   5.039   3.723   2.389
 3525SOL    HW210589   4.945   3.711   2.523
 3526SOL     OW10590   4.756   2.411   1.878
 3526SOL    HW110591   4.715   2.493   1.839
 3526SOL    HW210592   4.820   2.437   1.951
 3527SOL     OW10593   3.802   2.418   3.248
 3527SOL    HW110594   3.894   2.417   3.207
 3527SOL    HW210595   3.796   2.492   3.315
 3528SOL     OW10596   4.285   2.084   3.009
 3528SOL    HW110597   4.323   2.000   3.046
 3528SOL    HW210598   4.197   2.103   3.053
 3529SOL     OW10599   4.590   2.316   2.504
 3529SOL    HW110600   4.558   2.388   2.442
 3529SOL    HW210601   4.614   2.235   2.451
 3530SOL     OW10602   4.741   1.901   2.615
 3530SOL    HW110603   4.669   1.906   2.546
 3530SOL    HW210604   4.717   1.832   2.684
 3531SOL     OW10605   4.212   3.247   2.036
 3531SOL    HW110606   4.125   3.232   2.083
 3531SOL    HW210607   4.195   3.273   1.941
 3532SOL     OW10608   4.251   2.118   2.190
 3532SOL    HW110609   4.278   2.059   2.115
 3532SOL    HW210610   4.251   2.213   2.159
 3533SOL     OW10611   4.639   1.951   3.264
 3533SOL    HW110612   4.664   1.931   3.169
 3533SOL    HW210613   4.711   2.007   3.306
 3534SOL     OW10614   4.704   2.978   3.581
 3534SOL    HW110615   4.605   2.984   3.591
 3534SOL    HW210616   4.727   2.898   3.525
 3535SOL     OW10617   4.429   2.912   2.230
 3535SOL    HW110618   4.415   2.919   2.329
 3535SOL    HW210619   4.513   2.861   2.212
 3536SOL     OW10620   4.134   2.675   3.113
 3536SOL    HW110621   4.220   2.687   3.163
 3536SOL    HW210622   4.092   2.588   3.140
 3537SOL     OW10623   3.788   3.426   3.193
 3537SOL    HW110624   3.742   3.508   3.159
 3537SOL    HW210625   3.886   3.445   3.202
 3538SOL     OW10626   4.091   2.962   2.363
 3538SOL    HW110627   4.084   3.045   2.307
 3538SOL    HW210628   4.095   2.882   2.303
 3539SOL     OW10629   4.290   2.399   2.727
 3539SOL    HW110630   4.302   2.465   2.653
 3539SOL    HW210631   4.336   2.433   2.810
 3540SOL     OW10632   4.976   3.210   2.250
 3540SOL    HW110633   5.026   3.287   2.290
 3540SOL    HW210634   4.881   3.212   2.282
 3541SOL     OW10635   4.078   3.372   3.191
 3541SOL    HW110636   4.057   3.328   3.104
 3541SOL    HW210637   4.175   3.398   3.194
 3542SOL     OW10638   4.126   2.613   3.460
 3542SOL    HW110639   4.194   2.668   3.413
 3542SOL    HW210640   4.166   2.525   3.487
 3543SOL     OW10641   4.737   1.967   3.632
 3543SOL    HW110642   4.743   2.052   3.580
 3543SOL    HW210643   4.769   1.891   3.575
 3544SOL     OW10644   4.228   1.912   3.602
 3544SOL    HW110645   4.186   1.855   3.532
 3544SOL    HW210646   4.162   1.981   3.634
 3545SOL     OW10647   4.297   2.732   2.891
 3545SOL    HW110648   4.341   2.821   2.882
 3545SOL    HW210649   4.234   2.732   2.968
 3546SOL     OW10650   5.084   2.724   2.907
 3546SOL    HW110651   5.009   2.724   2.841
 3546SOL    HW210652   5.121   2.632   2.916
 3547SOL     OW10653   4.933   2.387   2.137
 3547SOL    HW110654   4.946   2.303   2.191
 3547SOL    HW210655   4.904   2.461   2.197
 3548SOL     OW10656   4.031   2.075   3.093
 3548SOL    HW110657   4.008   2.112   3.183
 3548SOL    HW210658   4.001   1.980   3.087
 3549SOL     OW10659   3.761   3.172   3.144
 3549SOL    HW110660   3.814   3.123   3.212
 3549SOL    HW210661   3.783   3.270   3.149
 3550SOL     OW10662   4.456   2.496   2.926
 3550SOL    HW110663   4.515   2.470   2.850
 3550SOL    HW210664   4.428   2.592   2.915
 3551SOL     OW10665   4.031   1.925   2.480
 3551SOL    HW110666   4.020   2.019   2.513
 3551SOL    HW210667   4.026   1.862   2.557
 3552SOL     OW10668   4.747   2.628   2.828
 3552SOL    HW110669   4.762   2.649   2.924
 3552SOL    HW210670   4.717   2.533   2.819
 3553SOL     OW10671   4.704   3.435   3.562
 3553SOL    HW110672   4.684   3.479   3.474
 3553SOL    HW210673   4.743   3.344   3.546
 3554SOL     OW10674   4.074   2.760   3.666
 3554SOL    HW110675   4.150   2.804   3.714
 3554SOL    HW210676   4.109   2.713   3.584
 3555SOL     OW10677   5.027   2.700   1.904
 3555SOL    HW110678   5.061   2.607   1.919
 3555SOL    HW210679   5.045   2.727   1.809
 3556SOL     OW10680   4.792   3.195   2.711
 3556SOL    HW110681   4.799   3.111   2.656
 3556SOL    HW210682   4.854   3.264   2.675
 3557SOL     OW10683   4.043   2.672   2.811
 3557SOL    HW110684   4.136   2.708   2.816
 3557SOL    HW210685   4.037   2.587   2.863
 3558SOL     OW10686   4.063   2.371   2.868
 3558SOL    HW110687   4.011   2.288   2.851
 3558SOL    HW210688   4.140   2.376   2.804
 3559SOL     OW10689   4.862   2.242   3.540
 3559SOL    HW110690   4.817   2.305   3.604
 3559SOL    HW210691   4.955   2.273   3.523
 3560SOL     OW10692   4.884   2.069   3.339
 3560SOL    HW110693   4.884   2.133   3.416
 3560SOL    HW210694   4.912   2.117   3.256
 3561SOL     OW10695   3.732   3.188   2.062
 3561SOL    HW110696   3.639   3.209   2.031
 3561SOL    HW210697   3.742   3.089   2.075
 3562SOL     OW10698   3.812   3.663   2.789
 3562SOL    HW110699   3.770   3.577   2.762
 3562SOL    HW210700   3.906   3.666   2.755
 3563SOL     OW10701   4.228   3.430   2.772
 3563SOL    HW110702   4.294   3.504   2.781
 3563SOL    HW210703   4.272   3.351   2.730
 3564SOL     OW10704   4.726   2.658   3.100
 3564SOL    HW110705   4.767   2.626   3.186
 3564SOL    HW210706   4.630   2.631   3.097
 3565SOL     OW10707   3.764   2.406   2.976
 3565SOL    HW110708   3.849   2.373   2.935
 3565SOL    HW210709   3.777   2.421   3.074
 3566SOL     OW10710   3.913   2.382   3.584
 3566SOL    HW110711   3.972   2.342   3.514
 3566SOL    HW210712   3.855   2.453   3.543
 3567SOL     OW10713   4.539   2.434   2.187
 3567SOL    HW110714   4.546   2.345   2.141
 3567SOL    HW210715   4.445   2.468   2.179
 3568SOL     OW10716   3.976   3.426   3.606
 3568SOL    HW110717   3.946   3.483   3.682
 3568SOL    HW210718   3.969   3.329   3.632
 3569SOL     OW10719   4.395   2.326   3.131
 3569SOL    HW110720   4.361   2.237   3.101
 3569SOL    HW210721   4.421   2.380   3.051
 3570SOL     OW10722   4.654   3.540   3.327
 3570SOL    HW110723   4.630   3.522   3.232
 3570SOL    HW210724   4.684   3.634   3.337
 3571SOL     OW10725   4.197   2.362   2.053
 3571SOL    HW110726   4.258   2.442   2.057
 3571SOL    HW210727   4.102   2.393   2.060
 3572SOL     OW10728   3.883   2.999   3.328
 3572SOL    HW110729   3.905   2.938   3.404
 3572SOL    HW210730   3.893   2.950   3.242
 3573SOL     OW10731   5.026   2.717   2.171
 3573SOL    HW110732   4.940   2.686   2.213
 3573SOL    HW210733   5.022   2.703   2.072
 3574SOL     OW10734   3.807   3.120   2.884
 3574SOL    HW110735   3.802   3.119   2.984
 3574SOL    HW210736   3.724   3.079   2.846
 3575SOL     OW10737   4.412   3.524   3.578
 3575SOL    HW110738   4.356   3.605   3.587
 3575SOL    HW210739   4.464   3.528   3.492
 3576SOL     OW10740   3.854   3.656   3.713
 3576SOL    HW110741   3.813   3.582   3.766
 3576SOL    HW210742   3.918   3.707   3.771
 3577SOL     OW10743   4.554   3.135   3.284
 3577SOL    HW110744   4.549   3.168   3.379
 3577SOL    HW210745   4.468   3.154   3.238
 3578SOL     OW10746   4.396   3.478   2.016
 3578SOL    HW110747   4.405   3.488   1.917
 3578SOL    HW210748   4.356   3.389   2.037
 3579SOL     OW10749   3.987   2.188   2.582
 3579SOL    HW110750   3.908   2.239   2.548
 3579SOL    HW210751   3.978   2.173   2.680
 3580SOL     OW10752   4.546   2.864   3.234
 3580SOL    HW110753   4.586   2.863   3.142
 3580SOL    HW210754   4.556   2.956   3.274
 3581SOL     OW10755   4.640   2.772   2.153
 3581SOL    HW110756   4.703   2.810   2.085
 3581SOL    HW210757   4.680   2.689   2.192
 3582SOL     OW10758   4.096   3.150   3.352
 3582SOL    HW110759   4.083   3.243   3.318
 3582SOL    HW210760   4.012   3.098   3.339
 3583SOL     OW10761   4.763   2.960   2.558
 3583SOL    HW110762   4.693   2.913   2.612
 3583SOL    HW210763   4.822   2.892   2.515
 3584SOL     OW10764   4.738   2.098   2.833
 3584SOL    HW110765   4.730   2.062   2.740
 3584SOL    HW210766   4.736   2.022   2.898
 3585SOL     OW10767   4.314   3.349   2.353
 3585SOL    HW110768   4.356   3.291   2.283
 3585SOL    HW210769   4.270   3.428   2.309
 3586SOL     OW10770   3.979   3.210   2.152
 3586SOL    HW110771   3.883   3.211   2.125
 3586SOL    HW210772   3.991   3.263   2.236
 3587SOL     OW10773   3.829   2.875   3.588
 3587SOL    HW110774   3.752   2.842   3.642
 3587SOL    HW210775   3.914   2.845   3.630
 3588SOL     OW10776   4.396   2.065   3.351
 3588SOL    HW110777   4.486   2.049   3.311
 3588SOL    HW210778   4.404   2.070   3.450
 3589SOL     OW10779   3.799   2.207   1.895
 3589SOL    HW110780   3.707   2.179   1.866
 3589SOL    HW210781   3.830   2.284   1.839
 3590SOL     OW10782   3.796   2.028   2.180
 3590SOL    HW110783   3.779   2.111   2.126
 3590SOL    HW210784   3.886   1.991   2.158
 3591SOL     OW10785   4.337   2.704   3.293
 3591SOL    HW110786   4.393   2.785   3.276
 3591SOL    HW210787   4.396   2.624   3.296
 3592SOL     OW10788   4.440   2.427   3.570
 3592SOL    HW110789   4.459   2.492   3.644
 3592SOL    HW210790   4.500   2.347   3.579
 3593SOL     OW10791   4.114   3.603   3.422
 3593SOL    HW110792   4.023   3.644   3.420
 3593SOL    HW210793   4.107   3.509   3.454
 3594SOL     OW10794   4.318   2.607   2.514
 3594SOL    HW110795   4.368   2.692   2.495
 3594SOL    HW210796   4.230   2.609   2.466
 3595SOL     OW10797   4.583   3.236   1.878
 3595SOL    HW110798   4.537   3.251   1.966
 3595SOL    HW210799   4.627   3.321   1.848
 3596SOL     OW10800   4.385   3.652   2.815
 3596SOL    HW110801   4.339   3.740   2.802
 3596SOL    HW210802   4.484   3.664   2.808
 3597SOL     OW10803   4.583   2.818   2.723
 3597SOL    HW110804   4.637   2.749   2.771
 3597SOL    HW210805   4.551   2.887   2.789
 3598SOL     OW10806   4.807   2.846   1.949
 3598SOL    HW110807   4.784   2.899   1.867
 3598SOL    HW210808   4.888   2.790   1.930
 3599SOL     OW10809   3.945   3.176   3.706
 3599SOL    HW110810   3.880   3.103   3.685
 3599SOL    HW210811   3.949   3.190   3.804
 3600SOL     OW10812   3.803   3.102   2.515
 3600SOL    HW110813   3.802   3.055   2.603
 3600SOL    HW210814   3.885   3.074   2.464
 3601SOL     OW10815   4.396   3.253   3.486
 3601SOL    HW110816   4.318   3.203   3.524
 3601SOL    HW210817   4.393   3.348   3.517
 3602SOL     OW10818   4.152   2.286   2.382
 3602SOL    HW110819   4.182   2.214   2.320
 3602SOL    HW210820   4.113   2.246   2.465
 3603SOL     OW10821   4.041   2.409   3.142
 3603SOL    HW110822   4.079   2.350   3.214
 3603SOL    HW210823   4.081   2.383   3.054
 3604SOL     OW10824   4.536   3.448   2.549
 3604SOL    HW110825   4.568   3.458   2.455
 3604SOL    HW210826   4.457   3.386   2.551
 3605SOL     OW10827   4.725   1.896   3.016
 3605SOL    HW110828   4.662   1.824   2.985
 3605SOL    HW210829   4.818   1.860   3.016
 3606SOL     OW10830   4.494   3.192   2.163
 3606SOL    HW110831   4.448   3.105   2.180
 3606SOL    HW210832   4.585   3.189   2.204
 3607SOL     OW10833   4.342   3.429   3.146
 3607SOL    HW110834   4.337   3.511   3.203
 3607SOL    HW210835   4.431   3.426   3.101
 3608SOL     OW10836   3.763   2.939   2.162
 3608SOL    HW110837   3.862   2.928   2.153
 3608SOL    HW210838   3.723   2.853   2.194
 3609SOL     OW10839   4.599   3.508   2.199
 3609SOL    HW110840   4.522   3.473   2.145
 3609SOL    HW210841   4.567   3.579   2.261
 3610SOL     OW10842   3.954   2.490   3.837
 3610SOL    HW110843   3.861   2.488   3.874
 3610SOL    HW210844   3.955   2.451   3.745
 3611SOL     OW10845   3.949   2.137   4.720
 3611SOL    HW110846   3.984   2.120   4.812
 3611SOL    HW210847   3.861   2.092   4.708
 3612SOL     OW10848   3.743   2.230   4.371
 3612SOL    HW110849   3.661   2.273   4.410
 3612SOL    HW210850   3.715   2.157   4.308
 3613SOL     OW10851   4.293   3.137   4.889
 3613SOL    HW110852   4.200   3.130   4.852
 3613SOL    HW210853   4.304   3.226   4.933
 3614SOL     OW10854   4.492   3.006   4.747
 3614SOL    HW110855   4.414   3.023   4.807
 3614SOL    HW210856   4.526   3.093   4.711
 3615SOL     OW10857   4.409   2.874   4.389
 3615SOL    HW110858   4.478   2.858   4.459
 3615SOL    HW210859   4.336   2.931   4.427
 3616SOL     OW10860   4.059   3.297   4.785
 3616SOL    HW110861   3.981   3.266   4.732
 3616SOL    HW210862   4.117   3.355   4.728
 3617SOL     OW10863   3.955   3.575   4.207
 3617SOL    HW110864   3.989   3.652   4.261
 3617SOL    HW210865   3.999   3.575   4.117
 3618SOL     OW10866   3.954   3.296   4.262
 3618SOL    HW110867   3.928   3.392   4.262
 3618SOL    HW210868   3.883   3.242   4.307
 3619SOL     OW10869   3.964   2.953   4.610
 3619SOL    HW110870   3.978   2.869   4.662
 3619SOL    HW210871   3.909   3.017   4.665
 3620SOL     OW10872   4.330   2.826   3.847
 3620SOL    HW110873   4.337   2.910   3.793
 3620SOL    HW210874   4.376   2.839   3.935
 3621SOL     OW10875   3.846   2.505   4.287
 3621SOL    HW110876   3.801   2.417   4.304
 3621SOL    HW210877   3.845   2.559   4.371
 3622SOL     OW10878   3.751   3.458   3.841
 3622SOL    HW110879   3.732   3.362   3.862
 3622SOL    HW210880   3.718   3.516   3.916
 3623SOL     OW10881   4.337   3.227   4.450
 3623SOL    HW110882   4.288   3.140   4.459
 3623SOL    HW210883   4.314   3.270   4.363
 3624SOL     OW10884   4.533   1.866   4.226
 3624SOL    HW110885   4.573   1.957   4.217
 3624SOL    HW210886   4.433   1.874   4.232
 3625SOL     OW10887   3.921   2.838   4.988
 3625SOL    HW110888   4.010   2.793   4.974
 3625SOL    HW210889   3.848   2.773   4.969
 3626SOL     OW10890   4.322   2.591   3.994
 3626SOL    HW110891   4.346   2.660   3.926
 3626SOL    HW210892   4.244   2.624   4.048
 3627SOL     OW10893   4.765   2.563   4.153
 3627SOL    HW110894   4.791   2.559   4.249
 3627SOL    HW210895   4.680   2.512   4.139
 3628SOL     OW10896   3.800   2.673   4.513
 3628SOL    HW110897   3.899   2.661   4.522
 3628SOL    HW210898   3.776   2.768   4.534
 3629SOL     OW10899   4.589   2.210   3.919
 3629SOL    HW110900   4.648   2.273   3.870
 3629SOL    HW210901   4.608   2.116   3.890
 3630SOL     OW10902   4.274   2.058   4.609
 3630SOL    HW110903   4.269   2.053   4.709
 3630SOL    HW210904   4.276   2.154   4.580
 3631SOL     OW10905   4.732   3.318   4.201
 3631SOL    HW110906   4.686   3.390   4.149
 3631SOL    HW210907   4.728   3.338   4.299
 3632SOL     OW10908   4.075   3.663   4.577
 3632SOL    HW110909   4.125   3.577   4.583
 3632SOL    HW210910   4.140   3.740   4.574
 3633SOL     OW10911   4.045   2.805   3.966
 3633SOL    HW110912   4.127   2.844   3.924
 3633SOL    HW210913   4.018   2.723   3.917
 3634SOL     OW10914   4.188   3.605   4.047
 3634SOL    HW110915   4.221   3.644   4.133
 3634SOL    HW210916   4.264   3.598   3.982
 3635SOL     OW10917   3.973   3.647   4.965
 3635SOL    HW110918   4.030   3.582   5.015
 3635SOL    HW210919   3.957   3.614   4.872
 3636SOL     OW10920   4.664   3.560   4.628
 3636SOL    HW110921   4.744   3.503   4.649
 3636SOL    HW210922   4.615   3.520   4.551
 3637SOL     OW10923   4.106   2.562   4.204
 3637SOL    HW110924   4.151   2.472   4.201
 3637SOL    HW210925   4.012   2.551   4.237
 3638SOL     OW10926   4.338   1.984   3.841
 3638SOL    HW110927   4.436   1.962   3.848
 3638SOL    HW210928   4.307   1.967   3.748
 3639SOL     OW10929   4.527   3.264   4.648
 3639SOL    HW110930   4.617   3.278   4.606
 3639SOL    HW210931   4.456   3.266   4.577
 3640SOL     OW10932   4.646   2.365   4.623
 3640SOL    HW110933   4.621   2.356   4.527
 3640SOL    HW210934   4.694   2.283   4.654
 3641SOL     OW10935   4.263   1.926   4.236
 3641SOL    HW110936   4.182   1.927   4.294
 3641SOL    HW210937   4.266   2.009   4.181
 3642SOL     OW10938   4.021   1.897   3.895
 3642SOL    HW110939   4.070   1.981   3.874
 3642SOL    HW210940   4.083   1.832   3.940
 3643SOL     OW10941   4.659   2.098   4.204
 3643SOL    HW110942   4.611   2.139   4.126
 3643SOL    HW210943   4.758   2.096   4.185
 3644SOL     OW10944   4.951   3.432   4.517
 3644SOL    HW110945   4.972   3.506   4.452
 3644SOL    HW210946   5.019   3.432   4.590
 3645SOL     OW10947   4.183   3.014   4.465
 3645SOL    HW110948   4.112   2.987   4.530
 3645SOL    HW210949   4.157   2.986   4.372
 3646SOL     OW10950   4.995   3.659   4.315
 3646SOL    HW110951   5.039   3.723   4.251
 3646SOL    HW210952   4.945   3.711   4.385
 3647SOL     OW10953   4.756   2.411   3.740
 3647SOL    HW110954   4.715   2.493   3.701
 3647SOL    HW210955   4.820   2.437   3.813
 3648SOL     OW10956   4.590   2.316   4.366
 3648SOL    HW110957   4.558   2.388   4.304
 3648SOL    HW210958   4.614   2.235   4.313
 3649SOL     OW10959   4.741   1.901   4.477
 3649SOL    HW110960   4.669   1.906   4.408
 3649SOL    HW210961   4.717   1.832   4.546
 3650SOL     OW10962   4.212   3.247   3.898
 3650SOL    HW110963   4.125   3.232   3.945
 3650SOL    HW210964   4.195   3.273   3.803
 3651SOL     OW10965   4.251   2.118   4.052
 3651SOL    HW110966   4.278   2.059   3.977
 3651SOL    HW210967   4.251   2.213   4.021
 3652SOL     OW10968   4.429   2.912   4.092
 3652SOL    HW110969   4.415   2.919   4.191
 3652SOL    HW210970   4.513   2.861   4.074
 3653SOL     OW10971   4.134   2.675   4.975
 3653SOL    HW110972   4.220   2.687   5.025
 3653SOL    HW210973   4.092   2.588   5.002
 3654SOL     OW10974   4.091   2.962   4.225
 3654SOL    HW110975   4.084   3.045   4.169
 3654SOL    HW210976   4.095   2.882   4.165
 3655SOL     OW10977   4.290   2.399   4.589
 3655SOL    HW110978   4.302   2.465   4.515
 3655SOL    HW210979   4.336   2.433   4.672
 3656SOL     OW10980   4.976   3.210   4.112
 3656SOL    HW110981   5.026   3.287   4.152
 3656SOL    HW210982   4.881   3.212   4.144
 3657SOL     OW10983   4.996   3.307   4.866
 3657SOL    HW110984   5.043   3.320   4.953
 3657SOL    HW210985   4.930   3.233   4.875
 3658SOL     OW10986   4.297   2.732   4.753
 3658SOL    HW110987   4.341   2.821   4.744
 3658SOL    HW210988   4.234   2.732   4.830
 3659SOL     OW10989   5.084   2.724   4.769
 3659SOL    HW110990   5.009   2.724   4.703
 3659SOL    HW210991   5.121   2.632   4.778
 3660SOL     OW10992   4.933   2.387   3.999
 3660SOL    HW110993   4.946   2.303   4.053
 3660SOL    HW210994   4.904   2.461   4.059
 3661SOL     OW10995   4.031   2.075   4.955
 3661SOL    HW110996   4.008   2.112   5.045
 3661SOL    HW210997   4.001   1.980   4.949
 3662SOL     OW10998   4.456   2.496   4.788
 3662SOL    HW110999   4.515   2.470   4.712
 3662SOL    HW211000   4.428   2.592   4.777
 3663SOL     OW11001   4.031   1.925   4.342
 3663SOL    HW111002   4.020   2.019   4.375
 3663SOL    HW211003   4.026   1.862   4.419
 3664SOL     OW11004   4.747   2.628   4.690
 3664SOL    HW111005   4.762   2.649   4.786
 3664SOL    HW211006   4.717   2.533   4.681
 3665SOL     OW11007   5.027   2.700   3.766
 3665SOL    HW111008   5.061   2.607   3.781
 3665SOL    HW211009   5.045   2.727   3.671
 3666SOL     OW11010   4.792   3.195   4.573
 3666SOL    HW111011   4.799   3.111   4.518
 3666SOL    HW211012   4.854   3.264   4.537
 3667SOL     OW11013   4.043   2.672   4.673
 3667SOL    HW111014   4.136   2.708   4.678
 3667SOL    HW211015   4.037   2.587   4.725
 3668SOL     OW11016   4.063   2.371   4.730
 3668SOL    HW111017   4.011   2.288   4.713
 3668SOL    HW211018   4.140   2.376   4.666
 3669SOL     OW11019   3.732   3.188   3.924
 3669SOL    HW111020   3.639   3.209   3.893
 3669SOL    HW211021   3.742   3.089   3.937
 3670SOL     OW11022   3.812   3.663   4.651
 3670SOL    HW111023   3.770   3.577   4.624
 3670SOL    HW211024   3.906   3.666   4.617
 3671SOL     OW11025   4.228   3.430   4.634
 3671SOL    HW111026   4.294   3.504   4.643
 3671SOL    HW211027   4.272   3.351   4.592
 3672SOL     OW11028   4.726   2.658   4.962
 3672SOL    HW111029   4.767   2.626   5.048
 3672SOL    HW211030   4.630   2.631   4.959
 3673SOL     OW11031   3.764   2.406   4.838
 3673SOL    HW111032   3.849   2.373   4.797
 3673SOL    HW211033   3.777   2.421   4.936
 3674SOL     OW11034   4.539   2.434   4.049
 3674SOL    HW111035   4.546   2.345   4.003
 3674SOL    HW211036   4.445   2.468   4.041
 3675SOL     OW11037   4.395   2.326   4.993
 3675SOL    HW111038   4.361   2.237   4.963
 3675SOL    HW211039   4.421   2.380   4.913
 3676SOL     OW11040   4.197   2.362   3.915
 3676SOL    HW111041   4.258   2.442   3.919
 3676SOL    HW211042   4.102   2.393   3.922
 3677SOL     OW11043   5.026   2.717   4.033
 3677SOL    HW111044   4.940   2.686   4.075
 3677SOL    HW211045   5.022   2.703   3.934
 3678SOL     OW11046   3.807   3.120   4.746
 3678SOL    HW111047   3.802   3.119   4.846
 3678SOL    HW211048   3.724   3.079   4.708
 3679SOL     OW11049   4.396   3.478   3.878
 3679SOL    HW111050   4.405   3.488   3.779
 3679SOL    HW211051   4.356   3.389   3.899
 3680SOL     OW11052   3.987   2.188   4.444
 3680SOL    HW111053   3.908   2.239   4.410
 3680SOL    HW211054   3.978   2.173   4.542
 3681SOL     OW11055   4.546   2.864   5.096
 3681SOL    HW111056   4.586   2.863   5.004
 3681SOL    HW211057   4.556   2.956   5.136
 3682SOL     OW11058   4.640   2.772   4.015
 3682SOL    HW111059   4.703   2.810   3.947
 3682SOL    HW211060   4.680   2.689   4.054
 3683SOL     OW11061   4.763   2.960   4.420
 3683SOL    HW111062   4.693   2.913   4.474
 3683SOL    HW211063   4.822   2.892   4.377
 3684SOL     OW11064   4.738   2.098   4.695
 3684SOL    HW111065   4.730   2.062   4.602
 3684SOL    HW211066   4.736   2.022   4.760
 3685SOL     OW11067   4.314   3.349   4.215
 3685SOL    HW111068   4.356   3.291   4.145
 3685SOL    HW211069   4.270   3.428   4.171
 3686SOL     OW11070   3.979   3.210   4.014
 3686SOL    HW111071   3.883   3.211   3.987
 3686SOL    HW211072   3.991   3.263   4.098
 3687SOL     OW11073   3.799   2.207   3.757
 3687SOL    HW111074   3.707   2.179   3.728
 3687SOL    HW211075   3.830   2.284   3.701
 3688SOL     OW11076   3.796   2.028   4.042
 3688SOL    HW111077   3.779   2.111   3.988
 3688SOL    HW211078   3.886   1.991   4.020
 3689SOL     OW11079   4.318   2.607   4.376
 3689SOL    HW111080   4.368   2.692   4.357
 3689SOL    HW211081   4.230   2.609   4.328
 3690SOL     OW11082   4.583   3.236   3.740
 3690SOL    HW111083   4.537   3.251   3.828
 3690SOL    HW211084   4.627   3.321   3.710
 3691SOL     OW11085   4.385   3.652   4.677
 3691SOL    HW111086   4.339   3.740   4.664
 3691SOL    HW211087   4.484   3.664   4.670
 3692SOL     OW11088   4.583   2.818   4.585
 3692SOL    HW111089   4.637   2.749   4.633
 3692SOL    HW211090   4.551   2.887   4.651
 3693SOL     OW11091   4.807   2.846   3.811
 3693SOL    HW111092   4.784   2.899   3.729
 3693SOL    HW211093   4.888   2.790   3.792
 3694SOL     OW11094   3.803   3.102   4.377
 3694SOL    HW111095   3.802   3.055   4.465
 3694SOL    HW211096   3.885   3.074   4.326
 3695SOL     OW11097   4.152   2.286   4.244
 3695SOL    HW111098   4.182   2.214   4.182
 3695SOL    HW211099   4.113   2.246   4.327
 3696SOL     OW11100   4.536   3.448   4.411
 3696SOL    HW111101   4.568   3.458   4.317
 3696SOL    HW211102   4.457   3.386   4.413
 3697SOL     OW11103   4.494   3.192   4.025
 3697SOL    HW111104   4.448   3.105   4.042
 3697SOL    HW211105   4.585   3.189   4.066
 3698SOL     OW11106   3.763   2.939   4.024
 3698SOL    HW111107   3.862   2.928   4.015
 3698SOL    HW211108   3.723   2.853   4.056
 3699SOL     OW11109   4.599   3.508   4.061
 3699SOL    HW111110   4.522   3.473   4.007
 3699SOL    HW211111   4.567   3.579   4.123
 3700SOL     OW11112   3.954   4.352   0.113
 3700SOL    HW111113   3.861   4.350   0.150
 3700SOL    HW211114   3.955   4.313   0.021
 3701SOL     OW11115   3.949   3.999   0.996
 3701SOL    HW111116   3.984   3.982   1.088
 3701SOL    HW211117   3.861   3.954   0.984
 3702SOL     OW11118   3.743   4.092   0.647
 3702SOL    HW111119   3.661   4.135   0.686
 3702SOL    HW211120   3.715   4.019   0.584
 3703SOL     OW11121   4.492   4.868   1.023
 3703SOL    HW111122   4.414   4.885   1.083
 3703SOL    HW211123   4.526   4.955   0.987
 3704SOL     OW11124   4.574   4.522   1.823
 3704SOL    HW111125   4.570   4.598   1.888
 3704SOL    HW211126   4.596   4.558   1.732
 3705SOL     OW11127   4.409   4.736   0.665
 3705SOL    HW111128   4.478   4.720   0.735
 3705SOL    HW211129   4.336   4.793   0.703
 3706SOL     OW11130   4.162   4.116   1.499
 3706SOL    HW111131   4.244   4.060   1.508
 3706SOL    HW211132   4.081   4.058   1.503
 3707SOL     OW11133   3.964   4.815   0.886
 3707SOL    HW111134   3.978   4.731   0.938
 3707SOL    HW211135   3.909   4.879   0.941
 3708SOL     OW11136   4.330   4.688   0.123
 3708SOL    HW111137   4.337   4.772   0.069
 3708SOL    HW211138   4.376   4.701   0.211
 3709SOL     OW11139   3.846   4.367   0.563
 3709SOL    HW111140   3.801   4.279   0.580
 3709SOL    HW211141   3.845   4.421   0.647
 3710SOL     OW11142   3.837   4.461   1.597
 3710SOL    HW111143   3.925   4.448   1.642
 3710SOL    HW211144   3.824   4.558   1.575
 3711SOL     OW11145   4.337   5.089   0.726
 3711SOL    HW111146   4.288   5.002   0.735
 3711SOL    HW211147   4.314   5.132   0.639
 3712SOL     OW11148   4.533   3.728   0.502
 3712SOL    HW111149   4.573   3.819   0.493
 3712SOL    HW211150   4.433   3.736   0.508
 3713SOL     OW11151   3.921   4.700   1.264
 3713SOL    HW111152   4.010   4.655   1.250
 3713SOL    HW211153   3.848   4.635   1.245
 3714SOL     OW11154   4.041   3.975   1.801
 3714SOL    HW111155   4.112   4.046   1.807
 3714SOL    HW211156   3.953   4.014   1.829
 3715SOL     OW11157   4.322   4.453   0.270
 3715SOL    HW111158   4.346   4.522   0.202
 3715SOL    HW211159   4.244   4.486   0.324
 3716SOL     OW11160   4.531   4.329   1.465
 3716SOL    HW111161   4.484   4.326   1.554
 3716SOL    HW211162   4.480   4.274   1.399
 3717SOL     OW11163   4.697   4.614   1.572
 3717SOL    HW111164   4.743   4.530   1.543
 3717SOL    HW211165   4.641   4.648   1.497
 3718SOL     OW11166   4.715   4.134   1.242
 3718SOL    HW111167   4.638   4.168   1.296
 3718SOL    HW211168   4.681   4.083   1.163
 3719SOL     OW11169   4.765   4.425   0.429
 3719SOL    HW111170   4.791   4.421   0.525
 3719SOL    HW211171   4.680   4.374   0.415
 3720SOL     OW11172   3.800   4.535   0.789
 3720SOL    HW111173   3.899   4.523   0.798
 3720SOL    HW211174   3.776   4.630   0.810
 3721SOL     OW11175   4.589   4.072   0.195
 3721SOL    HW111176   4.648   4.135   0.146
 3721SOL    HW211177   4.608   3.978   0.166
 3722SOL     OW11178   4.274   3.920   0.885
 3722SOL    HW111179   4.269   3.915   0.985
 3722SOL    HW211180   4.276   4.016   0.856
 3723SOL     OW11181   4.045   4.667   0.242
 3723SOL    HW111182   4.127   4.706   0.200
 3723SOL    HW211183   4.018   4.585   0.193
 3724SOL     OW11184   3.926   4.009   1.498
 3724SOL    HW111185   3.846   4.069   1.485
 3724SOL    HW211186   3.916   3.960   1.584
 3725SOL     OW11187   4.106   4.424   0.480
 3725SOL    HW111188   4.151   4.334   0.477
 3725SOL    HW211189   4.012   4.413   0.513
 3726SOL     OW11190   4.338   3.846   0.117
 3726SOL    HW111191   4.436   3.824   0.124
 3726SOL    HW211192   4.307   3.829   0.024
 3727SOL     OW11193   4.505   3.988   1.749
 3727SOL    HW111194   4.572   3.927   1.792
 3727SOL    HW211195   4.432   4.007   1.814
 3728SOL     OW11196   4.646   4.227   0.899
 3728SOL    HW111197   4.621   4.218   0.803
 3728SOL    HW211198   4.694   4.145   0.930
 3729SOL     OW11199   4.263   3.788   0.512
 3729SOL    HW111200   4.182   3.789   0.570
 3729SOL    HW211201   4.266   3.871   0.457
 3730SOL     OW11202   4.021   3.759   0.171
 3730SOL    HW111203   4.070   3.843   0.150
 3730SOL    HW211204   4.083   3.694   0.216
 3731SOL     OW11205   4.659   3.960   0.480
 3731SOL    HW111206   4.611   4.001   0.402
 3731SOL    HW211207   4.758   3.958   0.461
 3732SOL     OW11208   4.183   4.876   0.741
 3732SOL    HW111209   4.112   4.849   0.806
 3732SOL    HW211210   4.157   4.848   0.648
 3733SOL     OW11211   4.756   4.273   0.016
 3733SOL    HW111212   4.715   4.355  -0.023
 3733SOL    HW211213   4.820   4.299   0.089
 3734SOL     OW11214   3.802   4.280   1.386
 3734SOL    HW111215   3.894   4.279   1.345
 3734SOL    HW211216   3.796   4.354   1.453
 3735SOL     OW11217   4.285   3.946   1.147
 3735SOL    HW111218   4.323   3.862   1.184
 3735SOL    HW211219   4.197   3.965   1.191
 3736SOL     OW11220   4.590   4.178   0.642
 3736SOL    HW111221   4.558   4.250   0.580
 3736SOL    HW211222   4.614   4.097   0.589
 3737SOL     OW11223   4.741   3.763   0.753
 3737SOL    HW111224   4.669   3.768   0.684
 3737SOL    HW211225   4.717   3.694   0.822
 3738SOL     OW11226   4.251   3.980   0.328
 3738SOL    HW111227   4.278   3.921   0.253
 3738SOL    HW211228   4.251   4.075   0.297
 3739SOL     OW11229   4.639   3.813   1.402
 3739SOL    HW111230   4.664   3.793   1.307
 3739SOL    HW211231   4.711   3.869   1.444
 3740SOL     OW11232   4.429   4.774   0.368
 3740SOL    HW111233   4.415   4.781   0.467
 3740SOL    HW211234   4.513   4.723   0.350
 3741SOL     OW11235   4.134   4.537   1.251
 3741SOL    HW111236   4.220   4.549   1.301
 3741SOL    HW211237   4.092   4.450   1.278
 3742SOL     OW11238   4.091   4.824   0.501
 3742SOL    HW111239   4.084   4.907   0.445
 3742SOL    HW211240   4.095   4.744   0.441
 3743SOL     OW11241   4.290   4.261   0.865
 3743SOL    HW111242   4.302   4.327   0.791
 3743SOL    HW211243   4.336   4.295   0.948
 3744SOL     OW11244   4.126   4.475   1.598
 3744SOL    HW111245   4.194   4.530   1.551
 3744SOL    HW211246   4.166   4.387   1.625
 3745SOL     OW11247   4.737   3.829   1.770
 3745SOL    HW111248   4.743   3.914   1.718
 3745SOL    HW211249   4.769   3.753   1.713
 3746SOL     OW11250   4.228   3.774   1.740
 3746SOL    HW111251   4.186   3.717   1.670
 3746SOL    HW211252   4.162   3.843   1.772
 3747SOL     OW11253   4.297   4.594   1.029
 3747SOL    HW111254   4.341   4.683   1.020
 3747SOL    HW211255   4.234   4.594   1.106
 3748SOL     OW11256   5.084   4.586   1.045
 3748SOL    HW111257   5.009   4.586   0.979
 3748SOL    HW211258   5.121   4.494   1.054
 3749SOL     OW11259   4.933   4.249   0.275
 3749SOL    HW111260   4.946   4.165   0.329
 3749SOL    HW211261   4.904   4.323   0.335
 3750SOL     OW11262   4.031   3.937   1.231
 3750SOL    HW111263   4.008   3.974   1.321
 3750SOL    HW211264   4.001   3.842   1.225
 3751SOL     OW11265   4.456   4.358   1.064
 3751SOL    HW111266   4.515   4.332   0.988
 3751SOL    HW211267   4.428   4.454   1.053
 3752SOL     OW11268   4.031   3.787   0.618
 3752SOL    HW111269   4.020   3.881   0.651
 3752SOL    HW211270   4.026   3.724   0.695
 3753SOL     OW11271   4.747   4.490   0.966
 3753SOL    HW111272   4.762   4.511   1.062
 3753SOL    HW211273   4.717   4.395   0.957
 3754SOL     OW11274   4.074   4.622   1.804
 3754SOL    HW111275   4.150   4.666   1.852
 3754SOL    HW211276   4.109   4.575   1.722
 3755SOL     OW11277   4.043   4.534   0.949
 3755SOL    HW111278   4.136   4.570   0.954
 3755SOL    HW211279   4.037   4.449   1.001
 3756SOL     OW11280   4.063   4.233   1.006
 3756SOL    HW111281   4.011   4.150   0.989
 3756SOL    HW211282   4.140   4.238   0.942
 3757SOL     OW11283   4.862   4.104   1.678
 3757SOL    HW111284   4.817   4.167   1.742
 3757SOL    HW211285   4.955   4.135   1.661
 3758SOL     OW11286   4.884   3.931   1.477
 3758SOL    HW111287   4.884   3.995   1.554
 3758SOL    HW211288   4.912   3.979   1.394
 3759SOL     OW11289   4.726   4.520   1.238
 3759SOL    HW111290   4.767   4.488   1.324
 3759SOL    HW211291   4.630   4.493   1.235
 3760SOL     OW11292   3.764   4.268   1.114
 3760SOL    HW111293   3.849   4.235   1.073
 3760SOL    HW211294   3.777   4.283   1.212
 3761SOL     OW11295   3.913   4.244   1.722
 3761SOL    HW111296   3.972   4.204   1.652
 3761SOL    HW211297   3.855   4.315   1.681
 3762SOL     OW11298   4.539   4.296   0.325
 3762SOL    HW111299   4.546   4.207   0.279
 3762SOL    HW211300   4.445   4.330   0.317
 3763SOL     OW11301   4.395   4.188   1.269
 3763SOL    HW111302   4.361   4.099   1.239
 3763SOL    HW211303   4.421   4.242   1.189
 3764SOL     OW11304   4.197   4.224   0.191
 3764SOL    HW111305   4.258   4.304   0.195
 3764SOL    HW211306   4.102   4.255   0.198
 3765SOL     OW11307   3.883   4.861   1.466
 3765SOL    HW111308   3.905   4.800   1.542
 3765SOL    HW211309   3.893   4.812   1.380
 3766SOL     OW11310   5.026   4.579   0.309
 3766SOL    HW111311   4.940   4.548   0.351
 3766SOL    HW211312   5.022   4.565   0.210
 3767SOL     OW11313   4.627   3.810   0.133
 3767SOL    HW111314   4.678   3.811   0.047
 3767SOL    HW211315   4.683   3.768   0.204
 3768SOL     OW11316   3.987   4.050   0.720
 3768SOL    HW111317   3.908   4.101   0.686
 3768SOL    HW211318   3.978   4.035   0.818
 3769SOL     OW11319   4.546   4.726   1.372
 3769SOL    HW111320   4.586   4.725   1.280
 3769SOL    HW211321   4.556   4.818   1.412
 3770SOL     OW11322   4.640   4.634   0.291
 3770SOL    HW111323   4.703   4.672   0.223
 3770SOL    HW211324   4.680   4.551   0.330
 3771SOL     OW11325   4.096   5.012   1.490
 3771SOL    HW111326   4.083   5.105   1.456
 3771SOL    HW211327   4.012   4.960   1.477
 3772SOL     OW11328   4.738   3.960   0.971
 3772SOL    HW111329   4.730   3.924   0.878
 3772SOL    HW211330   4.736   3.884   1.036
 3773SOL     OW11331   3.829   4.737   1.726
 3773SOL    HW111332   3.752   4.704   1.780
 3773SOL    HW211333   3.914   4.707   1.768
 3774SOL     OW11334   4.396   3.927   1.489
 3774SOL    HW111335   4.486   3.911   1.449
 3774SOL    HW211336   4.404   3.932   1.588
 3775SOL     OW11337   3.796   3.890   0.318
 3775SOL    HW111338   3.779   3.973   0.264
 3775SOL    HW211339   3.886   3.853   0.296
 3776SOL     OW11340   4.337   4.566   1.431
 3776SOL    HW111341   4.393   4.647   1.414
 3776SOL    HW211342   4.396   4.486   1.434
 3777SOL     OW11343   4.440   4.289   1.708
 3777SOL    HW111344   4.459   4.354   1.782
 3777SOL    HW211345   4.500   4.209   1.717
 3778SOL     OW11346   4.318   4.469   0.652
 3778SOL    HW111347   4.368   4.554   0.633
 3778SOL    HW211348   4.230   4.471   0.604
 3779SOL     OW11349   4.583   4.680   0.861
 3779SOL    HW111350   4.637   4.611   0.909
 3779SOL    HW211351   4.551   4.749   0.927
 3780SOL     OW11352   4.807   4.708   0.087
 3780SOL    HW111353   4.784   4.761   0.005
 3780SOL    HW211354   4.888   4.652   0.068
 3781SOL     OW11355   3.803   4.964   0.653
 3781SOL    HW111356   3.802   4.917   0.741
 3781SOL    HW211357   3.885   4.936   0.602
 3782SOL     OW11358   4.152   4.148   0.520
 3782SOL    HW111359   4.182   4.076   0.458
 3782SOL    HW211360   4.113   4.108   0.603
 3783SOL     OW11361   4.041   4.271   1.280
 3783SOL    HW111362   4.079   4.212   1.352
 3783SOL    HW211363   4.081   4.245   1.192
 3784SOL     OW11364   4.725   3.758   1.154
 3784SOL    HW111365   4.662   3.686   1.123
 3784SOL    HW211366   4.818   3.722   1.154
 3785SOL     OW11367   4.494   5.054   0.301
 3785SOL    HW111368   4.448   4.967   0.318
 3785SOL    HW211369   4.585   5.051   0.342
 3786SOL     OW11370   3.954   4.352   1.975
 3786SOL    HW111371   3.861   4.350   2.012
 3786SOL    HW211372   3.955   4.313   1.883
 3787SOL     OW11373   3.949   3.999   2.858
 3787SOL    HW111374   3.984   3.982   2.950
 3787SOL    HW211375   3.861   3.954   2.846
 3788SOL     OW11376   3.743   4.092   2.509
 3788SOL    HW111377   3.661   4.135   2.548
 3788SOL    HW211378   3.715   4.019   2.446
 3789SOL     OW11379   4.492   4.868   2.885
 3789SOL    HW111380   4.414   4.885   2.945
 3789SOL    HW211381   4.526   4.955   2.849
 3790SOL     OW11382   4.574   4.522   3.685
 3790SOL    HW111383   4.570   4.598   3.750
 3790SOL    HW211384   4.596   4.558   3.594
 3791SOL     OW11385   4.409   4.736   2.527
 3791SOL    HW111386   4.478   4.720   2.597
 3791SOL    HW211387   4.336   4.793   2.565
 3792SOL     OW11388   4.162   4.116   3.361
 3792SOL    HW111389   4.244   4.060   3.370
 3792SOL    HW211390   4.081   4.058   3.365
 3793SOL     OW11391   3.964   4.815   2.748
 3793SOL    HW111392   3.978   4.731   2.800
 3793SOL    HW211393   3.909   4.879   2.803
 3794SOL     OW11394   4.330   4.688   1.985
 3794SOL    HW111395   4.337   4.772   1.931
 3794SOL    HW211396   4.376   4.701   2.073
 3795SOL     OW11397   3.846   4.367   2.425
 3795SOL    HW111398   3.801   4.279   2.442
 3795SOL    HW211399   3.845   4.421   2.509
 3796SOL     OW11400   3.837   4.461   3.459
 3796SOL    HW111401   3.925   4.448   3.504
 3796SOL    HW211402   3.824   4.558   3.437
 3797SOL     OW11403   4.337   5.089   2.588
 3797SOL    HW111404   4.288   5.002   2.597
 3797SOL    HW211405   4.314   5.132   2.501
 3798SOL     OW11406   4.533   3.728   2.364
 3798SOL    HW111407   4.573   3.819   2.355
 3798SOL    HW211408   4.433   3.736   2.370
 3799SOL     OW11409   3.921   4.700   3.126
 3799SOL    HW111410   4.010   4.655   3.112
 3799SOL    HW211411   3.848   4.635   3.107
 3800SOL     OW11412   4.041   3.975   3.663
 3800SOL    HW111413   4.112   4.046   3.669
 3800SOL    HW211414   3.953   4.014   3.691
 3801SOL     OW11415   4.322   4.453   2.132
 3801SOL    HW111416   4.346   4.522   2.064
 3801SOL    HW211417   4.244   4.486   2.186
 3802SOL     OW11418   4.531   4.329   3.327
 3802SOL    HW111419   4.484   4.326   3.416
 3802SOL    HW211420   4.480   4.274   3.261
 3803SOL     OW11421   4.697   4.614   3.434
 3803SOL    HW111422   4.743   4.530   3.405
 3803SOL    HW211423   4.641   4.648   3.359
 3804SOL     OW11424   4.715   4.134   3.104
 3804SOL    HW111425   4.638   4.168   3.158
 3804SOL    HW211426   4.681   4.083   3.025
 3805SOL     OW11427   4.765   4.425   2.291
 3805SOL    HW111428   4.791   4.421   2.387
 3805SOL    HW211429   4.680   4.374   2.277
 3806SOL     OW11430   3.800   4.535   2.651
 3806SOL    HW111431   3.899   4.523   2.660
 3806SOL    HW211432   3.776   4.630   2.672
 3807SOL     OW11433   4.589   4.072   2.057
 3807SOL    HW111434   4.648   4.135   2.008
 3807SOL    HW211435   4.608   3.978   2.028
 3808SOL     OW11436   4.274   3.920   2.747
 3808SOL    HW111437   4.269   3.915   2.847
 3808SOL    HW211438   4.276   4.016   2.718
 3809SOL     OW11439   4.045   4.667   2.104
 3809SOL    HW111440   4.127   4.706   2.062
 3809SOL    HW211441   4.018   4.585   2.055
 3810SOL     OW11442   3.926   4.009   3.360
 3810SOL    HW111443   3.846   4.069   3.347
 3810SOL    HW211444   3.916   3.960   3.446
 3811SOL     OW11445   4.106   4.424   2.342
 3811SOL    HW111446   4.151   4.334   2.339
 3811SOL    HW211447   4.012   4.413   2.375
 3812SOL     OW11448   4.338   3.846   1.979
 3812SOL    HW111449   4.436   3.824   1.986
 3812SOL    HW211450   4.307   3.829   1.886
 3813SOL     OW11451   4.505   3.988   3.611
 3813SOL    HW111452   4.572   3.927   3.654
 3813SOL    HW211453   4.432   4.007   3.676
 3814SOL     OW11454   4.646   4.227   2.761
 3814SOL    HW111455   4.621   4.218   2.665
 3814SOL    HW211456   4.694   4.145   2.792
 3815SOL     OW11457   4.263   3.788   2.374
 3815SOL    HW111458   4.182   3.789   2.432
 3815SOL    HW211459   4.266   3.871   2.319
 3816SOL     OW11460   4.021   3.759   2.033
 3816SOL    HW111461   4.070   3.843   2.012
 3816SOL    HW211462   4.083   3.694   2.078
 3817SOL     OW11463   4.659   3.960   2.342
 3817SOL    HW111464   4.611   4.001   2.264
 3817SOL    HW211465   4.758   3.958   2.323
 3818SOL     OW11466   4.183   4.876   2.603
 3818SOL    HW111467   4.112   4.849   2.668
 3818SOL    HW211468   4.157   4.848   2.510
 3819SOL     OW11469   4.756   4.273   1.878
 3819SOL    HW111470   4.715   4.355   1.839
 3819SOL    HW211471   4.820   4.299   1.951
 3820SOL     OW11472   3.802   4.280   3.248
 3820SOL    HW111473   3.894   4.279   3.207
 3820SOL    HW211474   3.796   4.354   3.315
 3821SOL     OW11475   4.285   3.946   3.009
 3821SOL    HW111476   4.323   3.862   3.046
 3821SOL    HW211477   4.197   3.965   3.053
 3822SOL     OW11478   4.590   4.178   2.504
 3822SOL    HW111479   4.558   4.250   2.442
 3822SOL    HW211480   4.614   4.097   2.451
 3823SOL     OW11481   4.741   3.763   2.615
 3823SOL    HW111482   4.669   3.768   2.546
 3823SOL    HW211483   4.717   3.694   2.684
 3824SOL     OW11484   4.251   3.980   2.190
 3824SOL    HW111485   4.278   3.921   2.115
 3824SOL    HW211486   4.251   4.075   2.159
 3825SOL     OW11487   4.639   3.813   3.264
 3825SOL    HW111488   4.664   3.793   3.169
 3825SOL    HW211489   4.711   3.869   3.306
 3826SOL     OW11490   4.429   4.774   2.230
 3826SOL    HW111491   4.415   4.781   2.329
 3826SOL    HW211492   4.513   4.723   2.212
 3827SOL     OW11493   4.134   4.537   3.113
 3827SOL    HW111494   4.220   4.549   3.163
 3827SOL    HW211495   4.092   4.450   3.140
 3828SOL     OW11496   4.091   4.824   2.363
 3828SOL    HW111497   4.084   4.907   2.307
 3828SOL    HW211498   4.095   4.744   2.303
 3829SOL     OW11499   4.290   4.261   2.727
 3829SOL    HW111500   4.302   4.327   2.653
 3829SOL    HW211501   4.336   4.295   2.810
 3830SOL     OW11502   4.126   4.475   3.460
 3830SOL    HW111503   4.194   4.530   3.413
 3830SOL    HW211504   4.166   4.387   3.487
 3831SOL     OW11505   4.737   3.829   3.632
 3831SOL    HW111506   4.743   3.914   3.580
 3831SOL    HW211507   4.769   3.753   3.575
 3832SOL     OW11508   4.228   3.774   3.602
 3832SOL    HW111509   4.186   3.717   3.532
 3832SOL    HW211510   4.162   3.843   3.634
 3833SOL     OW11511   4.297   4.594   2.891
 3833SOL    HW111512   4.341   4.683   2.882
 3833SOL    HW211513   4.234   4.594   2.968
 3834SOL     OW11514   5.084   4.586   2.907
 3834SOL    HW111515   5.009   4.586   2.841
 3834SOL    HW211516   5.121   4.494   2.916
 3835SOL     OW11517   4.933   4.249   2.137
 3835SOL    HW111518   4.946   4.165   2.191
 3835SOL    HW211519   4.904   4.323   2.197
 3836SOL     OW11520   4.031   3.937   3.093
 3836SOL    HW111521   4.008   3.974   3.183
 3836SOL    HW211522   4.001   3.842   3.087
 3837SOL     OW11523   4.456   4.358   2.926
 3837SOL    HW111524   4.515   4.332   2.850
 3837SOL    HW211525   4.428   4.454   2.915
 3838SOL     OW11526   4.031   3.787   2.480
 3838SOL    HW111527   4.020   3.881   2.513
 3838SOL    HW211528   4.026   3.724   2.557
 3839SOL     OW11529   4.747   4.490   2.828
 3839SOL    HW111530   4.762   4.511   2.924
 3839SOL    HW211531   4.717   4.395   2.819
 3840SOL     OW11532   4.074   4.622   3.666
 3840SOL    HW111533   4.150   4.666   3.714
 3840SOL    HW211534   4.109   4.575   3.584
 3841SOL     OW11535   5.027   4.562   1.904
 3841SOL    HW111536   5.061   4.469   1.919
 3841SOL    HW211537   5.045   4.589   1.809
 3842SOL     OW11538   4.043   4.534   2.811
 3842SOL    HW111539   4.136   4.570   2.816
 3842SOL    HW211540   4.037   4.449   2.863
 3843SOL     OW11541   4.063   4.233   2.868
 3843SOL    HW111542   4.011   4.150   2.851
 3843SOL    HW211543   4.140   4.238   2.804
 3844SOL     OW11544   4.862   4.104   3.540
 3844SOL    HW111545   4.817   4.167   3.604
 3844SOL    HW211546   4.955   4.135   3.523
 3845SOL     OW11547   4.884   3.931   3.339
 3845SOL    HW111548   4.884   3.995   3.416
 3845SOL    HW211549   4.912   3.979   3.256
 3846SOL     OW11550   4.726   4.520   3.100
 3846SOL    HW111551   4.767   4.488   3.186
 3846SOL    HW211552   4.630   4.493   3.097
 3847SOL     OW11553   3.764   4.268   2.976
 3847SOL    HW111554   3.849   4.235   2.935
 3847SOL    HW211555   3.777   4.283   3.074
 3848SOL     OW11556   3.913   4.244   3.584
 3848SOL    HW111557   3.972   4.204   3.514
 3848SOL    HW211558   3.855   4.315   3.543
 3849SOL     OW11559   4.539   4.296   2.187
 3849SOL    HW111560   4.546   4.207   2.141
 3849SOL    HW211561   4.445   4.330   2.179
 3850SOL     OW11562   4.395   4.188   3.131
 3850SOL    HW111563   4.361   4.099   3.101
 3850SOL    HW211564   4.421   4.242   3.051
 3851SOL     OW11565   4.197   4.224   2.053
 3851SOL    HW111566   4.258   4.304   2.057
 3851SOL    HW211567   4.102   4.255   2.060
 3852SOL     OW11568   3.883   4.861   3.328
 3852SOL    HW111569   3.905   4.800   3.404
 3852SOL    HW211570   3.893   4.812   3.242
 3853SOL     OW11571   5.026   4.579   2.171
 3853SOL    HW111572   4.940   4.548   2.213
 3853SOL    HW211573   5.022   4.565   2.072
 3854SOL     OW11574   3.987   4.050   2.582
 3854SOL    HW111575   3.908   4.101   2.548
 3854SOL    HW211576   3.978   4.035   2.680
 3855SOL     OW11577   4.546   4.726   3.234
 3855SOL    HW111578   4.586   4.725   3.142
 3855SOL    HW211579   4.556   4.818   3.274
 3856SOL     OW11580   4.640   4.634   2.153
 3856SOL    HW111581   4.703   4.672   2.085
 3856SOL    HW211582   4.680   4.551   2.192
 3857SOL     OW11583   4.096   5.012   3.352
 3857SOL    HW111584   4.083   5.105   3.318
 3857SOL    HW211585   4.012   4.960   3.339
 3858SOL     OW11586   4.738   3.960   2.833
 3858SOL    HW111587   4.730   3.924   2.740
 3858SOL    HW211588   4.736   3.884   2.898
 3859SOL     OW11589   3.829   4.737   3.588
 3859SOL    HW111590   3.752   4.704   3.642
 3859SOL    HW211591   3.914   4.707   3.630
 3860SOL     OW11592   4.396   3.927   3.351
 3860SOL    HW111593   4.486   3.911   3.311
 3860SOL    HW211594   4.404   3.932   3.450
 3861SOL     OW11595   3.799   4.069   1.895
 3861SOL    HW111596   3.707   4.041   1.866
 3861SOL    HW211597   3.830   4.146   1.839
 3862SOL     OW11598   3.796   3.890   2.180
 3862SOL    HW111599   3.779   3.973   2.126
 3862SOL    HW211600   3.886   3.853   2.158
 3863SOL     OW11601   4.337   4.566   3.293
 3863SOL    HW111602   4.393   4.647   3.276
 3863SOL    HW211603   4.396   4.486   3.296
 3864SOL     OW11604   4.440   4.289   3.570
 3864SOL    HW111605   4.459   4.354   3.644
 3864SOL    HW211606   4.500   4.209   3.579
 3865SOL     OW11607   4.318   4.469   2.514
 3865SOL    HW111608   4.368   4.554   2.495
 3865SOL    HW211609   4.230   4.471   2.466
 3866SOL     OW11610   4.583   4.680   2.723
 3866SOL    HW111611   4.637   4.611   2.771
 3866SOL    HW211612   4.551   4.749   2.789
 3867SOL     OW11613   4.807   4.708   1.949
 3867SOL    HW111614   4.784   4.761   1.867
 3867SOL    HW211615   4.888   4.652   1.930
 3868SOL     OW11616   3.803   4.964   2.515
 3868SOL    HW111617   3.802   4.917   2.603
 3868SOL    HW211618   3.885   4.936   2.464
 3869SOL     OW11619   4.152   4.148   2.382
 3869SOL    HW111620   4.182   4.076   2.320
 3869SOL    HW211621   4.113   4.108   2.465
 3870SOL     OW11622   4.041   4.271   3.142
 3870SOL    HW111623   4.079   4.212   3.214
 3870SOL    HW211624   4.081   4.245   3.054
 3871SOL     OW11625   4.725   3.758   3.016
 3871SOL    HW111626   4.662   3.686   2.985
 3871SOL    HW211627   4.818   3.722   3.016
 3872SOL     OW11628   4.494   5.054   2.163
 3872SOL    HW111629   4.448   4.967   2.180
 3872SOL    HW211630   4.585   5.051   2.204
 3873SOL     OW11631   3.763   4.801   2.162
 3873SOL    HW111632   3.862   4.790   2.153
 3873SOL    HW211633   3.723   4.715   2.194
 3874SOL     OW11634   3.954   4.352   3.837
 3874SOL    HW111635   3.861   4.350   3.874
 3874SOL    HW211636   3.955   4.313   3.745
 3875SOL     OW11637   3.949   3.999   4.720
 3875SOL    HW111638   3.984   3.982   4.812
 3875SOL    HW211639   3.861   3.954   4.708
 3876SOL     OW11640   3.743   4.092   4.371
 3876SOL    HW111641   3.661   4.135   4.410
 3876SOL    HW211642   3.715   4.019   4.308
 3877SOL     OW11643   4.492   4.868   4.747
 3877SOL    HW111644   4.414   4.885   4.807
 3877SOL    HW211645   4.526   4.955   4.711
 3878SOL     OW11646   4.409   4.736   4.389
 3878SOL    HW111647   4.478   4.720   4.459
 3878SOL    HW211648   4.336   4.793   4.427
 3879SOL     OW11649   3.964   4.815   4.610
 3879SOL    HW111650   3.978   4.731   4.662
 3879SOL    HW211651   3.909   4.879   4.665
 3880SOL     OW11652   4.330   4.688   3.847
 3880SOL    HW111653   4.337   4.772   3.793
 3880SOL    HW211654   4.376   4.701   3.935
 3881SOL     OW11655   3.846   4.367   4.287
 3881SOL    HW111656   3.801   4.279   4.304
 3881SOL    HW211657   3.845   4.421   4.371
 3882SOL     OW11658   4.337   5.089   4.450
 3882SOL    HW111659   4.288   5.002   4.459
 3882SOL    HW211660   4.314   5.132   4.363
 3883SOL     OW11661   4.533   3.728   4.226
 3883SOL    HW111662   4.573   3.819   4.217
 3883SOL    HW211663   4.433   3.736   4.232
 3884SOL     OW11664   3.921   4.700   4.988
 3884SOL    HW111665   4.010   4.655   4.974
 3884SOL    HW211666   3.848   4.635   4.969
 3885SOL     OW11667   4.322   4.453   3.994
 3885SOL    HW111668   4.346   4.522   3.926
 3885SOL    HW211669   4.244   4.486   4.048
 3886SOL     OW11670   4.765   4.425   4.153
 3886SOL    HW111671   4.791   4.421   4.249
 3886SOL    HW211672   4.680   4.374   4.139
 3887SOL     OW11673   3.800   4.535   4.513
 3887SOL    HW111674   3.899   4.523   4.522
 3887SOL    HW211675   3.776   4.630   4.534
 3888SOL     OW11676   4.589   4.072   3.919
 3888SOL    HW111677   4.648   4.135   3.870
 3888SOL    HW211678   4.608   3.978   3.890
 3889SOL     OW11679   4.274   3.920   4.609
 3889SOL    HW111680   4.269   3.915   4.709
 3889SOL    HW211681   4.276   4.016   4.580
 3890SOL     OW11682   4.045   4.667   3.966
 3890SOL    HW111683   4.127   4.706   3.924
 3890SOL    HW211684   4.018   4.585   3.917
 3891SOL     OW11685   4.106   4.424   4.204
 3891SOL    HW111686   4.151   4.334   4.201
 3891SOL    HW211687   4.012   4.413   4.237
 3892SOL     OW11688   4.338   3.846   3.841
 3892SOL    HW111689   4.436   3.824   3.848
 3892SOL    HW211690   4.307   3.829   3.748
 3893SOL     OW11691   4.612   5.238   4.919
 3893SOL    HW111692   4.589   5.213   4.825
 3893SOL    HW211693   4.673   5.169   4.958
 3894SOL     OW11694   4.646   4.227   4.623
 3894SOL    HW111695   4.621   4.218   4.527
 3894SOL    HW211696   4.694   4.145   4.654
 3895SOL     OW11697   4.263   3.788   4.236
 3895SOL    HW111698   4.182   3.789   4.294
 3895SOL    HW211699   4.266   3.871   4.181
 3896SOL     OW11700   4.021   3.759   3.895
 3896SOL    HW111701   4.070   3.843   3.874
 3896SOL    HW211702   4.083   3.694   3.940
 3897SOL     OW11703   4.659   3.960   4.204
 3897SOL    HW111704   4.611   4.001   4.126
 3897SOL    HW211705   4.758   3.958   4.185
 3898SOL     OW11706   4.183   4.876   4.465
 3898SOL    HW111707   4.112   4.849   4.530
 3898SOL    HW211708   4.157   4.848   4.372
 3899SOL     OW11709   4.756   4.273   3.740
 3899SOL    HW111710   4.715   4.355   3.701
 3899SOL    HW211711   4.820   4.299   3.813
 3900SOL     OW11712   4.590   4.178   4.366
 3900SOL    HW111713   4.558   4.250   4.304
 3900SOL    HW211714   4.614   4.097   4.313
 3901SOL     OW11715   4.741   3.763   4.477
 3901SOL    HW111716   4.669   3.768   4.408
 3901SOL    HW211717   4.717   3.694   4.546
 3902SOL     OW11718   4.251   3.980   4.052
 3902SOL    HW111719   4.278   3.921   3.977
 3902SOL    HW211720   4.251   4.075   4.021
 3903SOL     OW11721   4.429   4.774   4.092
 3903SOL    HW111722   4.415   4.781   4.191
 3903SOL    HW211723   4.513   4.723   4.074
 3904SOL     OW11724   4.134   4.537   4.975
 3904SOL    HW111725   4.220   4.549   5.025
 3904SOL    HW211726   4.092   4.450   5.002
 3905SOL     OW11727   4.091   4.824   4.225
 3905SOL    HW111728   4.084   4.907   4.169
 3905SOL    HW211729   4.095   4.744   4.165
 3906SOL     OW11730   4.290   4.261   4.589
 3906SOL    HW111731   4.302   4.327   4.515
 3906SOL    HW211732   4.336   4.295   4.672
 3907SOL     OW11733   4.297   4.594   4.753
 3907SOL    HW111734   4.341   4.683   4.744
 3907SOL    HW211735   4.234   4.594   4.830
 3908SOL     OW11736   5.084   4.586   4.769
 3908SOL    HW111737   5.009   4.586   4.703
 3908SOL    HW211738   5.121   4.494   4.778
 3909SOL     OW11739   4.933   4.249   3.999
 3909SOL    HW111740   4.946   4.165   4.053
 3909SOL    HW211741   4.904   4.323   4.059
 3910SOL     OW11742   4.031   3.937   4.955
 3910SOL    HW111743   4.008   3.974   5.045
 3910SOL    HW211744   4.001   3.842   4.949
 3911SOL     OW11745   4.456   4.358   4.788
 3911SOL    HW111746   4.515   4.332   4.712
 3911SOL    HW211747   4.428   4.454   4.777
 3912SOL     OW11748   4.031   3.787   4.342
 3912SOL    HW111749   4.020   3.881   4.375
 3912SOL    HW211750   4.026   3.724   4.419
 3913SOL     OW11751   4.747   4.490   4.690
 3913SOL    HW111752   4.762   4.511   4.786
 3913SOL    HW211753   4.717   4.395   4.681
 3914SOL     OW11754   5.027   4.562   3.766
 3914SOL    HW111755   5.061   4.469   3.781
 3914SOL    HW211756   5.045   4.589   3.671
 3915SOL     OW11757   4.043   4.534   4.673
 3915SOL    HW111758   4.136   4.570   4.678
 3915SOL    HW211759   4.037   4.449   4.725
 3916SOL     OW11760   4.063   4.233   4.730
 3916SOL    HW111761   4.011   4.150   4.713
 3916SOL    HW211762   4.140   4.238   4.666
 3917SOL     OW11763   4.726   4.520   4.962
 3917SOL    HW111764   4.767   4.488   5.048
 3917SOL    HW211765   4.630   4.493   4.959
 3918SOL     OW11766   3.764   4.268   4.838
 3918SOL    HW111767   3.849   4.235   4.797
 3918SOL    HW211768   3.777   4.283   4.936
 3919SOL     OW11769   4.539   4.296   4.049
 3919SOL    HW111770   4.546   4.207   4.003
 3919SOL    HW211771   4.445   4.330   4.041
 3920SOL     OW11772   4.395   4.188   4.993
 3920SOL    HW111773   4.361   4.099   4.963
 3920SOL    HW211774   4.421   4.242   4.913
 3921SOL     OW11775   4.197   4.224   3.915
 3921SOL    HW111776   4.258   4.304   3.919
 3921SOL    HW211777   4.102   4.255   3.922
 3922SOL     OW11778   3.883   4.861   5.190
 3922SOL    HW111779   3.905   4.800   5.266
 3922SOL    HW211780   3.893   4.812   5.104
 3923SOL     OW11781   5.026   4.579   4.033
 3923SOL    HW111782   4.940   4.548   4.075
 3923SOL    HW211783   5.022   4.565   3.934
 3924SOL     OW11784   3.987   4.050   4.444
 3924SOL    HW111785   3.908   4.101   4.410
 3924SOL    HW211786   3.978   4.035   4.542
 3925SOL     OW11787   4.546   4.726   5.096
 3925SOL    HW111788   4.586   4.725   5.004
 3925SOL    HW211789   4.556   4.818   5.136
 3926SOL     OW11790   4.640   4.634   4.015
 3926SOL    HW111791   4.703   4.672   3.947
 3926SOL    HW211792   4.680   4.551   4.054
 3927SOL     OW11793   4.738   3.960   4.695
 3927SOL    HW111794   4.730   3.924   4.602
 3927SOL    HW211795   4.736   3.884   4.760
 3928SOL     OW11796   3.799   4.069   3.757
 3928SOL    HW111797   3.707   4.041   3.728
 3928SOL    HW211798   3.830   4.146   3.701
 3929SOL     OW11799   3.796   3.890   4.042
 3929SOL    HW111800   3.779   3.973   3.988
 3929SOL    HW211801   3.886   3.853   4.020
 3930SOL     OW11802   4.318   4.469   4.376
 3930SOL    HW111803   4.368   4.554   4.357
 3930SOL    HW211804   4.230   4.471   4.328
 3931SOL     OW11805   4.583   4.680   4.585
 3931SOL    HW111806   4.637   4.611   4.633
 3931SOL    HW211807   4.551   4.749   4.651
 3932SOL     OW11808   4.807   4.708   3.811
 3932SOL    HW111809   4.784   4.761   3.729
 3932SOL    HW211810   4.888   4.652   3.792
 3933SOL     OW11811   3.803   4.964   4.377
 3933SOL    HW111812   3.802   4.917   4.465
 3933SOL    HW211813   3.885   4.936   4.326
 3934SOL     OW11814   4.152   4.148   4.244
 3934SOL    HW111815   4.182   4.076   4.182
 3934SOL    HW211816   4.113   4.108   4.327
 3935SOL     OW11817   4.494   5.054   4.025
 3935SOL    HW111818   4.448   4.967   4.042
 3935SOL    HW211819   4.585   5.051   4.066
 3936SOL     OW11820   3.763   4.801   4.024
 3936SOL    HW111821   3.862   4.790   4.015
 3936SOL    HW211822   3.723   4.715   4.056
   4.93478   4.93478   4.93478
