CUP08028_AM1BCC_v1_0
    29
  -1.4830000  -1.1840000   0.9200000  -2.8980000  -3.0880000   1.4600000
  -1.6390000  -0.6630000   2.2200000  -2.1060000  -2.3840000   0.5480000
  -3.0620000  -2.5770000   2.7570000  -2.4380000  -1.3720000   3.1400000
   1.2100000  -0.4460000   3.4410000  -1.4900000   1.8070000   1.7630000
   0.5900000   0.5700000   2.4890000  -0.9480000   0.6440000   2.6050000
  -1.9230000  -2.9050000  -0.8140000  -3.8980000  -3.3310000   3.7010000
  -1.2140000  -2.2520000  -1.5910000  -2.4910000  -3.9680000  -1.1010000
  -4.4200000  -4.3810000   3.3040000  -4.0320000  -2.8680000   4.8440000
  -2.5580000  -0.8230000   4.3910000  -0.8680000  -0.6450000   0.1990000
  -3.3780000  -4.0200000   1.1650000   0.9020000  -1.4670000   3.1970000
   2.3020000  -0.4030000   3.3740000   0.9270000  -0.2360000   4.4770000
  -1.2400000   1.6980000   0.7020000  -2.5800000   1.8750000   1.8450000
  -1.0690000   2.7590000   2.1060000   1.0130000   1.5550000   2.7210000
   0.8980000   0.3340000   1.4630000  -1.1750000   0.8920000   3.6480000
  -3.1270000  -1.3790000   4.9650000
