mobley_3274817_GMX.gro created by acpype (v: 2023.10.27) on Wed May 20 23:46:17 2026
 29
    1  MOL   C1    1  -0.148  -0.118   0.092
    1  MOL   C2    2  -0.290  -0.309   0.146
    1  MOL   C3    3  -0.164  -0.066   0.222
    1  MOL   C4    4  -0.211  -0.238   0.055
    1  MOL   C5    5  -0.306  -0.258   0.276
    1  MOL   C6    6  -0.244  -0.137   0.314
    1  MOL   C7    7   0.121  -0.045   0.344
    1  MOL   C8    8  -0.149   0.181   0.176
    1  MOL   C9    9   0.059   0.057   0.249
    1  MOL  C10   10  -0.095   0.064   0.261
    1  MOL   N1   11  -0.192  -0.290  -0.081
    1  MOL   N2   12  -0.390  -0.333   0.370
    1  MOL   O1   13  -0.121  -0.225  -0.159
    1  MOL   O2   14  -0.249  -0.397  -0.110
    1  MOL   O3   15  -0.442  -0.438   0.330
    1  MOL   O4   16  -0.403  -0.287   0.484
    1  MOL   O5   17  -0.256  -0.082   0.439
    1  MOL   H1   18  -0.087  -0.065   0.020
    1  MOL   H2   19  -0.338  -0.402   0.117
    1  MOL   H3   20   0.090  -0.147   0.320
    1  MOL   H4   21   0.230  -0.040   0.337
    1  MOL   H5   22   0.093  -0.024   0.448
    1  MOL   H6   23  -0.124   0.170   0.070
    1  MOL   H7   24  -0.258   0.188   0.184
    1  MOL   H8   25  -0.107   0.276   0.211
    1  MOL   H9   26   0.101   0.155   0.272
    1  MOL  H10   27   0.090   0.033   0.146
    1  MOL  H11   28  -0.118   0.089   0.365
    1  MOL  H12   29  -0.313  -0.138   0.496
   13.44400    14.28000    13.11200
