; mobley_3274817_GMX_OPLS.top created by acpype (v: 2023.10.27) on Wed May 20 23:46:17 2026

; Include forcefield parameters
#include "ffoplsaa.itp"

; Include mobley_3274817_GMX.itp topology
#include "mobley_3274817_GMX.itp"

; Ligand position restraints
#ifdef POSRES_LIG
#include "posre_mobley_3274817.itp"
#endif

[ system ]
 mobley_3274817

[ molecules ]
; Compound        nmols
 mobley_3274817   1     
