; mobley_3274817_GMX_OPLS.itp created by acpype (v: 2023.10.27) on Wed May 20 23:46:17 2026

; For OPLS atomtypes manual fine tuning
; AC_at:OPLS_at:OPLScode: Possible_Alternatives (see ffoplsaa.atp and ffoplsaanb.itp)
; ca:CA:opls_145: ['166', '501', '502']
; c3:CT:opls_135: ['136', '137', '149', '157', '158', '206', '209', '210', '223B', '224B', '245', '246', '274', '283', '284', '285', '292', '292B', '293B', '296', '307', '308', '505']
; no:x:opls_x: []
; o:O:opls_236: ['272']
; oh:OH:opls_154: ['167']
; ha:HA:opls_146: []
; hc:HC:opls_140: []
; ho:HO:opls_155: ['168']

[ moleculetype ]
;name            nrexcl
 mobley_3274817   3

[ atoms ]
;   nr  type  resi  res  atom  cgnr     charge      mass       ; qtot   bond_type
     1 opls_145     1   MOL    C1    1    -0.007000     12.01100 ; qtot -0.007  CA  
     2 opls_145     1   MOL    C2    2     0.021000     12.01100 ; qtot  0.014  CA  
     3 opls_145     1   MOL    C3    3    -0.115300     12.01100 ; qtot -0.101  CA  
     4 opls_145     1   MOL    C4    4    -0.226200     12.01100 ; qtot -0.328  CA  
     5 opls_145     1   MOL    C5    5    -0.288200     12.01100 ; qtot -0.616  CA  
     6 opls_145     1   MOL    C6    6     0.259100     12.01100 ; qtot -0.357  CA  
     7 opls_135     1   MOL    C7    7    -0.095100     12.01100 ; qtot -0.452  CT  
     8 opls_135     1   MOL    C8    8    -0.093100     12.01100 ; qtot -0.545  CT  
     9 opls_135     1   MOL    C9    9    -0.076400     12.01100 ; qtot -0.621  CT  
    10 opls_135     1   MOL   C10   10    -0.022400     12.01100 ; qtot -0.644  CT  
    11 opls_x     1   MOL    N1   11     0.323200      0.00000 ; qtot -0.320  x   
    12 opls_x     1   MOL    N2   12     0.328200      0.00000 ; qtot  0.008  x   
    13 opls_236     1   MOL    O1   13    -0.199500     15.99940 ; qtot -0.192  O   
    14 opls_236     1   MOL    O2   14    -0.199500     15.99940 ; qtot -0.391  O   
    15 opls_236     1   MOL    O3   15    -0.206500     15.99940 ; qtot -0.598  O   
    16 opls_236     1   MOL    O4   16    -0.206500     15.99940 ; qtot -0.804  O   
    17 opls_154     1   MOL    O5   17    -0.481099     15.99940 ; qtot -1.285  OH  
    18 opls_146     1   MOL    H1   18     0.185000      1.00800 ; qtot -1.100  HA  
    19 opls_146     1   MOL    H2   19     0.207000      1.00800 ; qtot -0.893  HA  
    20 opls_140     1   MOL    H3   20     0.037700      1.00800 ; qtot -0.856  HC  
    21 opls_140     1   MOL    H4   21     0.037700      1.00800 ; qtot -0.818  HC  
    22 opls_140     1   MOL    H5   22     0.037700      1.00800 ; qtot -0.780  HC  
    23 opls_140     1   MOL    H6   23     0.042033      1.00800 ; qtot -0.738  HC  
    24 opls_140     1   MOL    H7   24     0.042033      1.00800 ; qtot -0.696  HC  
    25 opls_140     1   MOL    H8   25     0.042033      1.00800 ; qtot -0.654  HC  
    26 opls_140     1   MOL    H9   26     0.046200      1.00800 ; qtot -0.608  HC  
    27 opls_140     1   MOL   H10   27     0.046200      1.00800 ; qtot -0.562  HC  
    28 opls_140     1   MOL   H11   28     0.083700      1.00800 ; qtot -0.478  HC  
    29 opls_155     1   MOL   H12   29     0.478000      1.00800 ; qtot -0.000  HO  

[ bonds ]
;   ai     aj funct   r             k
     1      3   1 ;    1.3986e-01    2.9644e+05 ;     C1 - C3         CA - CA    
     1      4   1 ;    1.3986e-01    2.9644e+05 ;     C1 - C4         CA - CA    
     1     18   1 ;    1.0860e-01    3.0183e+05 ;     C1 - H1         CA - HA    
     2      4   1 ;    1.3986e-01    2.9644e+05 ;     C2 - C4         CA - CA    
     2      5   1 ;    1.3986e-01    2.9644e+05 ;     C2 - C5         CA - CA    
     2     19   1 ;    1.0860e-01    3.0183e+05 ;     C2 - H2         CA - HA    
     3      6   1 ;    1.3986e-01    2.9644e+05 ;     C3 - C6         CA - CA    
     3     10   1 ;    1.5147e-01    2.0410e+05 ;     C3 - C10        CA - CT    
     4     11   1 ;    1.4696e-01    2.0937e+05 ;     C4 - N1         CA - x     
     5      6   1 ;    1.3986e-01    2.9644e+05 ;     C5 - C6         CA - CA    
     5     12   1 ;    1.4696e-01    2.0937e+05 ;     C5 - N2         CA - x     
     6     17   1 ;    1.3644e-01    2.9167e+05 ;     C6 - O5         CA - OH    
     7      9   1 ;    1.5354e-01    1.9154e+05 ;     C7 - C9         CT - CT    
     7     20   1 ;    1.0962e-01    2.8891e+05 ;     C7 - H3         CT - HC    
     7     21   1 ;    1.0962e-01    2.8891e+05 ;     C7 - H4         CT - HC    
     7     22   1 ;    1.0962e-01    2.8891e+05 ;     C7 - H5         CT - HC    
     8     10   1 ;    1.5354e-01    1.9154e+05 ;     C8 - C10        CT - CT    
     8     23   1 ;    1.0962e-01    2.8891e+05 ;     C8 - H6         CT - HC    
     8     24   1 ;    1.0962e-01    2.8891e+05 ;     C8 - H7         CT - HC    
     8     25   1 ;    1.0962e-01    2.8891e+05 ;     C8 - H8         CT - HC    
     9     10   1 ;    1.5354e-01    1.9154e+05 ;     C9 - C10        CT - CT    
     9     26   1 ;    1.0962e-01    2.8891e+05 ;     C9 - H9         CT - HC    
     9     27   1 ;    1.0962e-01    2.8891e+05 ;     C9 - H10        CT - HC    
    10     28   1 ;    1.0962e-01    2.8891e+05 ;    C10 - H11        CT - HC    
    11     13   1 ;    1.2311e-01    3.0270e+05 ;     N1 - O1          x - O     
    11     14   1 ;    1.2311e-01    3.0270e+05 ;     N1 - O2          x - O     
    12     15   1 ;    1.2311e-01    3.0270e+05 ;     N2 - O3          x - O     
    12     16   1 ;    1.2311e-01    3.0270e+05 ;     N2 - O4          x - O     
    17     29   1 ;    9.7250e-02    4.4811e+05 ;     O5 - H12        OH - HO    

[ pairs ]
;   ai     aj    funct
     1      5      1 ;     C1 - C5    
     1      8      1 ;     C1 - C8    
     1      9      1 ;     C1 - C9    
     1     13      1 ;     C1 - O1    
     1     14      1 ;     C1 - O2    
     1     17      1 ;     C1 - O5    
     1     19      1 ;     C1 - H2    
     1     28      1 ;     C1 - H11   
     2     13      1 ;     C2 - O1    
     2     14      1 ;     C2 - O2    
     2     15      1 ;     C2 - O3    
     2     16      1 ;     C2 - O4    
     2     17      1 ;     C2 - O5    
     3      2      1 ;     C3 - C2    
     3      7      1 ;     C3 - C7    
     3     11      1 ;     C3 - N1    
     3     12      1 ;     C3 - N2    
     3     23      1 ;     C3 - H6    
     3     24      1 ;     C3 - H7    
     3     25      1 ;     C3 - H8    
     3     26      1 ;     C3 - H9    
     3     27      1 ;     C3 - H10   
     3     29      1 ;     C3 - H12   
     4      6      1 ;     C4 - C6    
     4     10      1 ;     C4 - C10   
     4     12      1 ;     C4 - N2    
     5     10      1 ;     C5 - C10   
     5     11      1 ;     C5 - N1    
     5     29      1 ;     C5 - H12   
     6      8      1 ;     C6 - C8    
     6      9      1 ;     C6 - C9    
     6     15      1 ;     C6 - O3    
     6     16      1 ;     C6 - O4    
     6     19      1 ;     C6 - H2    
     6     28      1 ;     C6 - H11   
     7      8      1 ;     C7 - C8    
     7     28      1 ;     C7 - H11   
     8     26      1 ;     C8 - H9    
     8     27      1 ;     C8 - H10   
     9     23      1 ;     C9 - H6    
     9     24      1 ;     C9 - H7    
     9     25      1 ;     C9 - H8    
    10     17      1 ;    C10 - O5    
    10     20      1 ;    C10 - H3    
    10     21      1 ;    C10 - H4    
    10     22      1 ;    C10 - H5    
    11     19      1 ;     N1 - H2    
    12     17      1 ;     N2 - O5    
    12     19      1 ;     N2 - H2    
    18      2      1 ;     H1 - C2    
    18      6      1 ;     H1 - C6    
    18     10      1 ;     H1 - C10   
    18     11      1 ;     H1 - N1    
    20     26      1 ;     H3 - H9    
    20     27      1 ;     H3 - H10   
    21     26      1 ;     H4 - H9    
    21     27      1 ;     H4 - H10   
    22     26      1 ;     H5 - H9    
    22     27      1 ;     H5 - H10   
    23     28      1 ;     H6 - H11   
    24     28      1 ;     H7 - H11   
    25     28      1 ;     H8 - H11   
    26     28      1 ;     H9 - H11   
    27     28      1 ;    H10 - H11   

[ angles ]
;   ai     aj     ak    funct   theta         cth
     1      3      6      1 ;    1.2002e+02    5.3279e+02 ;     C1 - C3   - C6       CA -   CA - CA  
     1      3     10      1 ;    1.2083e+02    5.0827e+02 ;     C1 - C3   - C10      CA -   CA - CT  
     1      4      2      1 ;    1.2002e+02    5.3279e+02 ;     C1 - C4   - C2       CA -   CA - CA  
     1      4     11      1 ;    1.1900e+02    5.5329e+02 ;     C1 - C4   - N1       CA -   CA - x   
     2      4     11      1 ;    1.1900e+02    5.5329e+02 ;     C2 - C4   - N1       CA -   CA - x   
     2      5      6      1 ;    1.2002e+02    5.3279e+02 ;     C2 - C5   - C6       CA -   CA - CA  
     2      5     12      1 ;    1.1900e+02    5.5329e+02 ;     C2 - C5   - N2       CA -   CA - x   
     3      1      4      1 ;    1.2002e+02    5.3279e+02 ;     C3 - C1   - C4       CA -   CA - CA  
     3      1     18      1 ;    1.1988e+02    3.7572e+02 ;     C3 - C1   - H1       CA -   CA - HA  
     3      6      5      1 ;    1.2002e+02    5.3279e+02 ;     C3 - C6   - C5       CA -   CA - CA  
     3      6     17      1 ;    1.1990e+02    6.5990e+02 ;     C3 - C6   - O5       CA -   CA - OH  
     3     10      8      1 ;    1.1242e+02    5.0484e+02 ;     C3 - C10  - C8       CA -   CT - CT  
     3     10      9      1 ;    1.1242e+02    5.0484e+02 ;     C3 - C10  - C9       CA -   CT - CT  
     3     10     28      1 ;    1.1063e+02    3.6493e+02 ;     C3 - C10  - H11      CA -   CT - HC  
     4      1     18      1 ;    1.1988e+02    3.7572e+02 ;     C4 - C1   - H1       CA -   CA - HA  
     4      2      5      1 ;    1.2002e+02    5.3279e+02 ;     C4 - C2   - C5       CA -   CA - CA  
     4      2     19      1 ;    1.1988e+02    3.7572e+02 ;     C4 - C2   - H2       CA -   CA - HA  
     4     11     13      1 ;    1.1776e+02    8.2910e+02 ;     C4 - N1   - O1       CA -    x - O   
     4     11     14      1 ;    1.1776e+02    8.2910e+02 ;     C4 - N1   - O2       CA -    x - O   
     5      2     19      1 ;    1.1988e+02    3.7572e+02 ;     C5 - C2   - H2       CA -   CA - HA  
     5      6     17      1 ;    1.1990e+02    6.5990e+02 ;     C5 - C6   - O5       CA -   CA - OH  
     5     12     15      1 ;    1.1776e+02    8.2910e+02 ;     C5 - N2   - O3       CA -    x - O   
     5     12     16      1 ;    1.1776e+02    8.2910e+02 ;     C5 - N2   - O4       CA -    x - O   
     6      3     10      1 ;    1.2083e+02    5.0827e+02 ;     C6 - C3   - C10      CA -   CA - CT  
     6      5     12      1 ;    1.1900e+02    5.5329e+02 ;     C6 - C5   - N2       CA -   CA - x   
     6     17     29      1 ;    1.0858e+02    5.6409e+02 ;     C6 - O5   - H12      CA -   OH - HO  
     7      9     10      1 ;    1.1263e+02    5.0099e+02 ;     C7 - C9   - C10      CT -   CT - CT  
     7      9     26      1 ;    1.0968e+02    3.6208e+02 ;     C7 - C9   - H9       CT -   CT - HC  
     7      9     27      1 ;    1.0968e+02    3.6208e+02 ;     C7 - C9   - H10      CT -   CT - HC  
     8     10      9      1 ;    1.1263e+02    5.0099e+02 ;     C8 - C10  - C9       CT -   CT - CT  
     8     10     28      1 ;    1.0968e+02    3.6208e+02 ;     C8 - C10  - H11      CT -   CT - HC  
     9      7     20      1 ;    1.0968e+02    3.6208e+02 ;     C9 - C7   - H3       CT -   CT - HC  
     9      7     21      1 ;    1.0968e+02    3.6208e+02 ;     C9 - C7   - H4       CT -   CT - HC  
     9      7     22      1 ;    1.0968e+02    3.6208e+02 ;     C9 - C7   - H5       CT -   CT - HC  
     9     10     28      1 ;    1.0968e+02    3.6208e+02 ;     C9 - C10  - H11      CT -   CT - HC  
    10      8     23      1 ;    1.0968e+02    3.6208e+02 ;    C10 - C8   - H6       CT -   CT - HC  
    10      8     24      1 ;    1.0968e+02    3.6208e+02 ;    C10 - C8   - H7       CT -   CT - HC  
    10      8     25      1 ;    1.0968e+02    3.6208e+02 ;    C10 - C8   - H8       CT -   CT - HC  
    10      9     26      1 ;    1.0968e+02    3.6208e+02 ;    C10 - C9   - H9       CT -   CT - HC  
    10      9     27      1 ;    1.0968e+02    3.6208e+02 ;    C10 - C9   - H10      CT -   CT - HC  
    13     11     14      1 ;    1.2505e+02    1.0964e+03 ;     O1 - N1   - O2        O -    x - O   
    15     12     16      1 ;    1.2505e+02    1.0964e+03 ;     O3 - N2   - O4        O -    x - O   
    20      7     21      1 ;    1.0773e+02    2.9957e+02 ;     H3 - C7   - H4       HC -   CT - HC  
    20      7     22      1 ;    1.0773e+02    2.9957e+02 ;     H3 - C7   - H5       HC -   CT - HC  
    21      7     22      1 ;    1.0773e+02    2.9957e+02 ;     H4 - C7   - H5       HC -   CT - HC  
    23      8     24      1 ;    1.0773e+02    2.9957e+02 ;     H6 - C8   - H7       HC -   CT - HC  
    23      8     25      1 ;    1.0773e+02    2.9957e+02 ;     H6 - C8   - H8       HC -   CT - HC  
    24      8     25      1 ;    1.0773e+02    2.9957e+02 ;     H7 - C8   - H8       HC -   CT - HC  
    26      9     27      1 ;    1.0773e+02    2.9957e+02 ;     H9 - C9   - H10      HC -   CT - HC  

[ dihedrals ] ; propers
; for gromacs 4.5 or higher, using funct 9
;    i      j      k      l   func   phase     kd      pn
     1      3      6      5      9 ;   180.00  15.16700   2 ;     C1-    C3-    C6-    C5
     1      3      6     17      9 ;   180.00  15.16700   2 ;     C1-    C3-    C6-    O5
     1      3     10      8      9 ;   180.00   1.00416   2 ;     C1-    C3-   C10-    C8
     1      3     10      9      9 ;   180.00   1.00416   2 ;     C1-    C3-   C10-    C9
     1      3     10     28      9 ;     0.00   0.00000   0 ;     C1-    C3-   C10-   H11
     1      4      2      5      9 ;   180.00  15.16700   2 ;     C1-    C4-    C2-    C5
     1      4      2     19      9 ;   180.00  15.16700   2 ;     C1-    C4-    C2-    H2
     1      4     11     13      9 ;   180.00   3.01248   2 ;     C1-    C4-    N1-    O1
     1      4     11     14      9 ;   180.00   3.01248   2 ;     C1-    C4-    N1-    O2
     2      4     11     13      9 ;   180.00   3.01248   2 ;     C2-    C4-    N1-    O1
     2      4     11     14      9 ;   180.00   3.01248   2 ;     C2-    C4-    N1-    O2
     2      5      6      3      9 ;   180.00  15.16700   2 ;     C2-    C5-    C6-    C3
     2      5      6     17      9 ;   180.00  15.16700   2 ;     C2-    C5-    C6-    O5
     2      5     12     15      9 ;   180.00   3.01248   2 ;     C2-    C5-    N2-    O3
     2      5     12     16      9 ;   180.00   3.01248   2 ;     C2-    C5-    N2-    O4
     3      1      4      2      9 ;   180.00  15.16700   2 ;     C3-    C1-    C4-    C2
     3      1      4     11      9 ;   180.00  15.16700   2 ;     C3-    C1-    C4-    N1
     3      6      5     12      9 ;   180.00  15.16700   2 ;     C3-    C6-    C5-    N2
     3      6     17     29      9 ;   180.00   3.57732   2 ;     C3-    C6-    O5-   H12
     3     10      8     23      9 ;     0.00   0.65084   3 ;     C3-   C10-    C8-    H6
     3     10      8     24      9 ;     0.00   0.65084   3 ;     C3-   C10-    C8-    H7
     3     10      8     25      9 ;     0.00   0.65084   3 ;     C3-   C10-    C8-    H8
     3     10      9      7      9 ;     0.00   0.65084   3 ;     C3-   C10-    C9-    C7
     3     10      9     26      9 ;     0.00   0.65084   3 ;     C3-   C10-    C9-    H9
     3     10      9     27      9 ;     0.00   0.65084   3 ;     C3-   C10-    C9-   H10
     4      1      3      6      9 ;   180.00  15.16700   2 ;     C4-    C1-    C3-    C6
     4      1      3     10      9 ;   180.00  15.16700   2 ;     C4-    C1-    C3-   C10
     4      2      5      6      9 ;   180.00  15.16700   2 ;     C4-    C2-    C5-    C6
     4      2      5     12      9 ;   180.00  15.16700   2 ;     C4-    C2-    C5-    N2
     5      2      4     11      9 ;   180.00  15.16700   2 ;     C5-    C2-    C4-    N1
     5      6      3     10      9 ;   180.00  15.16700   2 ;     C5-    C6-    C3-   C10
     5      6     17     29      9 ;   180.00   3.57732   2 ;     C5-    C6-    O5-   H12
     6      3     10      8      9 ;   180.00   1.00416   2 ;     C6-    C3-   C10-    C8
     6      3     10      9      9 ;   180.00   1.00416   2 ;     C6-    C3-   C10-    C9
     6      3     10     28      9 ;     0.00   0.00000   0 ;     C6-    C3-   C10-   H11
     6      5      2     19      9 ;   180.00  15.16700   2 ;     C6-    C5-    C2-    H2
     6      5     12     15      9 ;   180.00   3.01248   2 ;     C6-    C5-    N2-    O3
     6      5     12     16      9 ;   180.00   3.01248   2 ;     C6-    C5-    N2-    O4
     7      9     10      8      9 ;     0.00   2.17568   3 ;     C7-    C9-   C10-    C8
     7      9     10     28      9 ;     0.00   0.54392   3 ;     C7-    C9-   C10-   H11
     8     10      9     26      9 ;     0.00   0.54392   3 ;     C8-   C10-    C9-    H9
     8     10      9     27      9 ;     0.00   0.54392   3 ;     C8-   C10-    C9-   H10
     9     10      8     23      9 ;     0.00   0.54392   3 ;     C9-   C10-    C8-    H6
     9     10      8     24      9 ;     0.00   0.54392   3 ;     C9-   C10-    C8-    H7
     9     10      8     25      9 ;     0.00   0.54392   3 ;     C9-   C10-    C8-    H8
    10      3      6     17      9 ;   180.00  15.16700   2 ;    C10-    C3-    C6-    O5
    10      9      7     20      9 ;     0.00   0.54392   3 ;    C10-    C9-    C7-    H3
    10      9      7     21      9 ;     0.00   0.54392   3 ;    C10-    C9-    C7-    H4
    10      9      7     22      9 ;     0.00   0.54392   3 ;    C10-    C9-    C7-    H5
    11      4      2     19      9 ;   180.00  15.16700   2 ;     N1-    C4-    C2-    H2
    12      5      2     19      9 ;   180.00  15.16700   2 ;     N2-    C5-    C2-    H2
    12      5      6     17      9 ;   180.00  15.16700   2 ;     N2-    C5-    C6-    O5
    18      1      3      6      9 ;   180.00  15.16700   2 ;     H1-    C1-    C3-    C6
    18      1      3     10      9 ;   180.00  15.16700   2 ;     H1-    C1-    C3-   C10
    18      1      4      2      9 ;   180.00  15.16700   2 ;     H1-    C1-    C4-    C2
    18      1      4     11      9 ;   180.00  15.16700   2 ;     H1-    C1-    C4-    N1
    20      7      9     26      9 ;     0.00   0.50208   3 ;     H3-    C7-    C9-    H9
    20      7      9     27      9 ;     0.00   0.50208   3 ;     H3-    C7-    C9-   H10
    21      7      9     26      9 ;     0.00   0.50208   3 ;     H4-    C7-    C9-    H9
    21      7      9     27      9 ;     0.00   0.50208   3 ;     H4-    C7-    C9-   H10
    22      7      9     26      9 ;     0.00   0.50208   3 ;     H5-    C7-    C9-    H9
    22      7      9     27      9 ;     0.00   0.50208   3 ;     H5-    C7-    C9-   H10
    23      8     10     28      9 ;     0.00   0.50208   3 ;     H6-    C8-   C10-   H11
    24      8     10     28      9 ;     0.00   0.50208   3 ;     H7-    C8-   C10-   H11
    25      8     10     28      9 ;     0.00   0.50208   3 ;     H8-    C8-   C10-   H11
    26      9     10     28      9 ;     0.00   0.50208   3 ;     H9-    C9-   C10-   H11
    27      9     10     28      9 ;     0.00   0.50208   3 ;    H10-    C9-   C10-   H11

[ dihedrals ] ; impropers
; treated as propers in GROMACS to use correct AMBER analytical function
;    i      j      k      l   func   phase     kd      pn
     1      2      4     11      4 ;   180.00   4.60240   2 ;     C1-    C2-    C4-    N1
     1      6      3     10      4 ;   180.00   4.60240   2 ;     C1-    C6-    C3-   C10
     2      6      5     12      4 ;   180.00   4.60240   2 ;     C2-    C6-    C5-    N2
     3      5      6     17      4 ;   180.00   4.60240   2 ;     C3-    C5-    C6-    O5
     4      5      2     19      4 ;   180.00   4.60240   2 ;     C4-    C5-    C2-    H2
     4     13     11     14      4 ;   180.00   4.60240   2 ;     C4-    O1-    N1-    O2
     5     15     12     16      4 ;   180.00   4.60240   2 ;     C5-    O3-    N2-    O4
    18      1      4      3      4 ;   180.00   4.60240   2 ;     H1-    C1-    C4-    C3
