%VERSION  VERSION_STAMP = V0001.000  DATE = 05/20/26  23:46:25                  
%FLAG TITLE                                                                     
%FORMAT(20a4)                                                                   
CUP08028_AM1BCC_v1_0                                                            
%FLAG POINTERS                                                                  
%FORMAT(10I8)                                                                   
      29       8      12      17      25      24      39      36       0       0
     148       1      17      24      36       9      13      10       8       0
       0       0       0       0       0       0       0       0      29       0
       0
%FLAG ATOM_NAME                                                                 
%FORMAT(20a4)                                                                   
C1  C2  C3  C4  C5  C6  C7  C8  C9  C10 N1  N2  O1  O2  O3  O4  O5  H1  H2  H3  
H4  H5  H6  H7  H8  H9  H10 H11 H12 
%FLAG CHARGE                                                                    
%FORMAT(5E16.8)                                                                 
 -1.27556100E-01  3.82668300E-01 -2.10103119E+00 -4.12188426E+00 -5.25166686E+00
  4.72139793E+00 -1.73294073E+00 -1.69649613E+00 -1.39218372E+00 -4.08179520E-01
  5.88944736E+00  5.98055886E+00 -3.63534885E+00 -3.63534885E+00 -3.76290495E+00
 -3.76290495E+00 -8.73030393E+00  3.37112550E+00  3.77201610E+00  6.86980710E-01
  6.86980710E-01  6.86980710E-01  7.65937936E-01  7.65937936E-01  7.65937936E-01
  8.41870260E-01  8.41870260E-01  1.52520651E+00  8.71025940E+00
%FLAG ATOMIC_NUMBER                                                             
%FORMAT(10I8)                                                                   
       6       6       6       6       6       6       6       6       6       6
       7       7       8       8       8       8       8       1       1       1
       1       1       1       1       1       1       1       1       1
%FLAG MASS                                                                      
%FORMAT(5E16.8)                                                                 
  1.20100000E+01  1.20100000E+01  1.20100000E+01  1.20100000E+01  1.20100000E+01
  1.20100000E+01  1.20100000E+01  1.20100000E+01  1.20100000E+01  1.20100000E+01
  1.40100000E+01  1.40100000E+01  1.60000000E+01  1.60000000E+01  1.60000000E+01
  1.60000000E+01  1.60000000E+01  1.00800000E+00  1.00800000E+00  1.00800000E+00
  1.00800000E+00  1.00800000E+00  1.00800000E+00  1.00800000E+00  1.00800000E+00
  1.00800000E+00  1.00800000E+00  1.00800000E+00  1.00800000E+00
%FLAG ATOM_TYPE_INDEX                                                           
%FORMAT(10I8)                                                                   
       1       1       1       1       1       1       2       2       2       2
       3       3       4       4       4       4       5       6       6       7
       7       7       7       7       7       7       7       7       8
%FLAG NUMBER_EXCLUDED_ATOMS                                                     
%FORMAT(10I8)                                                                   
      15      13      18       9       9      11       9       8      10      11
       4       4       1       1       1       1       1       1       1       4
       3       2       3       2       1       2       1       1       1
%FLAG NONBONDED_PARM_INDEX                                                      
%FORMAT(10I8)                                                                   
       1       2       4       7      11      16      22      29       2       3
       5       8      12      17      23      30       4       5       6       9
      13      18      24      31       7       8       9      10      14      19
      25      32      11      12      13      14      15      20      26      33
      16      17      18      19      20      21      27      34      22      23
      24      25      26      27      28      35      29      30      31      32
      33      34      35      36
%FLAG RESIDUE_LABEL                                                             
%FORMAT(20a4)                                                                   
MOL 
%FLAG RESIDUE_POINTER                                                           
%FORMAT(10I8)                                                                   
       1
%FLAG BOND_FORCE_CONSTANT                                                       
%FORMAT(5E16.8)                                                                 
  3.54250000E+02  3.60690000E+02  2.43910000E+02  2.50200000E+02  3.48550000E+02
  2.28890000E+02  3.45250000E+02  3.61740000E+02  5.35510000E+02
%FLAG BOND_EQUIL_VALUE                                                          
%FORMAT(5E16.8)                                                                 
  1.39860000E+00  1.08600000E+00  1.51470000E+00  1.46960000E+00  1.36440000E+00
  1.53540000E+00  1.09620000E+00  1.23110000E+00  9.72500000E-01
%FLAG ANGLE_FORCE_CONSTANT                                                      
%FORMAT(5E16.8)                                                                 
  6.36700000E+01  6.07400000E+01  6.61200000E+01  4.49000000E+01  7.88600000E+01
  6.03300000E+01  4.36100000E+01  9.90800000E+01  6.74100000E+01  5.98700000E+01
  4.32700000E+01  1.31020000E+02  3.58000000E+01
%FLAG ANGLE_EQUIL_VALUE                                                         
%FORMAT(5E16.8)                                                                 
  2.09474507E+00  2.10888224E+00  2.07694270E+00  2.09230160E+00  2.09265067E+00
  1.96209999E+00  1.93085858E+00  2.05530061E+00  1.89507931E+00  1.96576518E+00
  1.91427794E+00  2.18253516E+00  1.88024401E+00
%FLAG DIHEDRAL_FORCE_CONSTANT                                                   
%FORMAT(5E16.8)                                                                 
  3.62500000E+00  2.40000000E-01  0.00000000E+00  7.20000000E-01  8.55000000E-01
  1.55555556E-01  5.20000000E-01  1.30000000E-01  1.20000000E-01  1.10000000E+00
%FLAG DIHEDRAL_PERIODICITY                                                      
%FORMAT(5E16.8)                                                                 
  2.00000000E+00  2.00000000E+00  1.00000000E+00  2.00000000E+00  2.00000000E+00
  3.00000000E+00  3.00000000E+00  3.00000000E+00  3.00000000E+00  2.00000000E+00
%FLAG DIHEDRAL_PHASE                                                            
%FORMAT(5E16.8)                                                                 
  3.14159400E+00  3.14159400E+00  0.00000000E+00  3.14159400E+00  3.14159400E+00
  0.00000000E+00  0.00000000E+00  0.00000000E+00  0.00000000E+00  3.14159400E+00
%FLAG SCEE_SCALE_FACTOR                                                         
%FORMAT(5E16.8)                                                                 
  1.20000000E+00  1.20000000E+00  1.20000000E+00  1.20000000E+00  1.20000000E+00
  1.20000000E+00  1.20000000E+00  1.20000000E+00  1.20000000E+00  0.00000000E+00
%FLAG SCNB_SCALE_FACTOR                                                         
%FORMAT(5E16.8)                                                                 
  2.00000000E+00  2.00000000E+00  2.00000000E+00  2.00000000E+00  2.00000000E+00
  2.00000000E+00  2.00000000E+00  2.00000000E+00  2.00000000E+00  0.00000000E+00
%FLAG SOLTY                                                                     
%FORMAT(5E16.8)                                                                 
  0.00000000E+00  0.00000000E+00  0.00000000E+00  0.00000000E+00  0.00000000E+00
  0.00000000E+00  0.00000000E+00  0.00000000E+00
%FLAG LENNARD_JONES_ACOEF                                                       
%FORMAT(5E16.8)                                                                 
  6.96551276E+05  8.43969952E+05  1.02073671E+06  7.10207765E+05  8.59569453E+05
  7.23647490E+05  5.17507491E+05  6.30925504E+05  5.29641935E+05  3.76435470E+05
  5.92438683E+05  7.18991463E+05  6.04651377E+05  4.37717034E+05  5.03152404E+05
  7.52549148E+04  9.27554496E+04  7.75325560E+04  5.27277400E+04  6.30298721E+04
  6.90855956E+03  8.12662403E+04  1.00235148E+05  8.37616145E+04  5.68021765E+04
  6.80216136E+04  7.41026906E+03  7.94617769E+03  2.25372434E+02  3.03553352E+02
  2.45082140E+02  1.15813907E+02  1.74176419E+02  8.53132435E+00  8.80612241E+00
  1.10360882E-05
%FLAG LENNARD_JONES_BCOEF                                                       
%FORMAT(5E16.8)                                                                 
  5.24668528E+02  5.90251928E+02  6.63431737E+02  5.11427129E+02  5.75038595E+02
  4.98353106E+02  4.98871431E+02  5.62969425E+02  4.87196412E+02  4.69350655E+02
  4.76608379E+02  5.36620538E+02  4.64809588E+02  4.51916854E+02  4.32634597E+02
  1.09570372E+02  1.24325688E+02  1.07361937E+02  1.01173582E+02  9.87712192E+01
  2.10929191E+01  1.21392023E+02  1.37787728E+02  1.18970742E+02  1.11953944E+02
  1.09393126E+02  2.32899892E+01  2.57122925E+01  4.40751799E+00  5.22789272E+00
  4.43692527E+00  3.48534600E+00  3.81654050E+00  5.44840215E-01  5.90150328E-01
  4.55498033E-04
%FLAG BONDS_INC_HYDROGEN                                                        
%FORMAT(10I8)                                                                   
       0      51       2       3      54       2      18      57       7      18
      60       7      18      63       7      21      66       7      21      69
       7      21      72       7      24      75       7      24      78       7
      27      81       7      48      84       9
%FLAG BONDS_WITHOUT_HYDROGEN                                                    
%FORMAT(10I8)                                                                   
       0       6       1       0       9       1       3       9       1       3
      12       1       6      15       1       6      27       3       9      30
       4      12      15       1      12      33       4      15      48       5
      18      24       6      21      27       6      24      27       6      30
      36       8      30      39       8      33      42       8      33      45
       8
%FLAG ANGLES_INC_HYDROGEN                                                       
%FORMAT(10I8)                                                                   
       6       0      51       4       6      27      81       7       9       0
      51       4       9       3      54       4      12       3      54       4
      15      48      84       9      18      24      75      11      18      24
      78      11      21      27      81      11      24      18      57      11
      24      18      60      11      24      18      63      11      24      27
      81      11      27      21      66      11      27      21      69      11
      27      21      72      11      27      24      75      11      27      24
      78      11      57      18      60      13      57      18      63      13
      60      18      63      13      66      21      69      13      66      21
      72      13      69      21      72      13      75      24      78      13
%FLAG ANGLES_WITHOUT_HYDROGEN                                                   
%FORMAT(10I8)                                                                   
       0       6      15       1       0       6      27       2       0       9
       3       1       0       9      30       3       3       9      30       3
       3      12      15       1       3      12      33       3       6       0
       9       1       6      15      12       1       6      15      48       5
       6      27      21       6       6      27      24       6       9       3
      12       1       9      30      36       8       9      30      39       8
      12      15      48       5      12      33      42       8      12      33
      45       8      15       6      27       2      15      12      33       3
      18      24      27      10      21      27      24      10      36      30
      39      12      42      33      45      12
%FLAG DIHEDRALS_INC_HYDROGEN                                                    
%FORMAT(10I8)                                                                   
       0       6      27      81       3       0       9       3      54       1
      51       0       9       3       1       6      15      48      84       5
       6      27      21      66       6       6      27      21      69       6
       6      27      21      72       6       6      27      24      75       6
       6      27      24      78       6      12      15      48      84       5
      51       0       6      15       1      15       6      27      81       3
      15      12       3      54       1      18      24      27      81       8
      21      27      24      75       8      21      27      24      78       8
      24      27      21      66       8      24      27      21      69       8
      24      27      21      72       8      51       0       6      27       1
      27      24      18      57       8      27      24      18      60       8
      27      24      18      63       8      51       0       9      30       1
      30       9       3      54       1      33      12       3      54       1
      57      18      24      75       9      57      18      24      78       9
      60      18      24      75       9      60      18      24      78       9
      63      18      24      75       9      63      18      24      78       9
      66      21      27      81       9      69      21      27      81       9
      72      21      27      81       9      75      24      27      81       9
      78      24      27      81       9      51       0      -9      -6      10
       9      12      -3     -54      10
%FLAG DIHEDRALS_WITHOUT_HYDROGEN                                                
%FORMAT(10I8)                                                                   
       0       6      15      12       1       0       6      15      48       1
       0       6      27      21       2       0       6      27      24       2
       0       9      -3      12       1       0       9      30      36       4
       0       9      30      39       4       6       0       9       3       1
       3       9      30      36       4       3       9      30      39       4
       3      12     -15       6       1       3      12      15      48       1
       3      12      33      42       4       3      12      33      45       4
       6       0       9      30       1       6      15      12      33       1
       6      27      24      18       6       9       0       6      15       1
       9       0       6      27       1       9       3     -12      15       1
       9       3      12      33       1      12       3       9      30       1
      12      15       6      27       1      15       6      27      21       2
      15       6      27      24       2      15      12      33      42       4
      15      12      33      45       4      18      24      27      21       7
      27       6      15      48       1      33      12      15      48       1
       0      15      -6     -27      10       0       3      -9     -30      10
       3      15     -12     -33      10       6      12     -15     -48      10
       9      36     -30     -39      10      12      42     -33     -45      10
%FLAG EXCLUDED_ATOMS_LIST                                                       
%FORMAT(10I8)                                                                   
       2       3       4       5       6       8       9      10      11      13
      14      17      18      19      28       3       4       5       6      11
      12      13      14      15      16      17      18      19       4       5
       6       7       8       9      10      11      12      17      18      23
      24      25      26      27      28      29       5       6      10      11
      12      13      14      18      19       6      10      11      12      15
      16      17      19      29       8       9      10      12      15      16
      17      18      19      28      29       8       9      10      20      21
      22      26      27      28       9      10      23      24      25      26
      27      28      10      20      21      22      23      24      25      26
      27      28      17      18      20      21      22      23      24      25
      26      27      28      13      14      18      19      15      16      17
      19      14       0      16       0      29       0       0      21      22
      26      27      22      26      27      26      27      24      25      28
      25      28      28      27      28      28       0       0
%FLAG HBOND_ACOEF                                                               
%FORMAT(5E16.8)                                                                 

%FLAG HBOND_BCOEF                                                               
%FORMAT(5E16.8)                                                                 

%FLAG HBCUT                                                                     
%FORMAT(5E16.8)                                                                 

%FLAG AMBER_ATOM_TYPE                                                           
%FORMAT(20a4)                                                                   
ca  ca  ca  ca  ca  ca  c3  c3  c3  c3  no  no  o   o   o   o   oh  ha  ha  hc  
hc  hc  hc  hc  hc  hc  hc  hc  ho  
%FLAG TREE_CHAIN_CLASSIFICATION                                                 
%FORMAT(20a4)                                                                   
BLA BLA BLA BLA BLA BLA BLA BLA BLA BLA BLA BLA BLA BLA BLA BLA BLA BLA BLA BLA 
BLA BLA BLA BLA BLA BLA BLA BLA BLA 
%FLAG JOIN_ARRAY                                                                
%FORMAT(10I8)                                                                   
       0       0       0       0       0       0       0       0       0       0
       0       0       0       0       0       0       0       0       0       0
       0       0       0       0       0       0       0       0       0
%FLAG IROTAT                                                                    
%FORMAT(10I8)                                                                   
       0       0       0       0       0       0       0       0       0       0
       0       0       0       0       0       0       0       0       0       0
       0       0       0       0       0       0       0       0       0
%FLAG RADIUS_SET                                                                
%FORMAT(1a80)                                                                   
modified Bondi radii (mbondi)                                                   
%FLAG RADII                                                                     
%FORMAT(5E16.8)                                                                 
  1.70000000E+00  1.70000000E+00  1.70000000E+00  1.70000000E+00  1.70000000E+00
  1.70000000E+00  1.70000000E+00  1.70000000E+00  1.70000000E+00  1.70000000E+00
  1.55000000E+00  1.55000000E+00  1.50000000E+00  1.50000000E+00  1.50000000E+00
  1.50000000E+00  1.50000000E+00  1.30000000E+00  1.30000000E+00  1.30000000E+00
  1.30000000E+00  1.30000000E+00  1.30000000E+00  1.30000000E+00  1.30000000E+00
  1.30000000E+00  1.30000000E+00  1.30000000E+00  8.00000000E-01
%FLAG SCREEN                                                                    
%FORMAT(5E16.8)                                                                 
  7.20000000E-01  7.20000000E-01  7.20000000E-01  7.20000000E-01  7.20000000E-01
  7.20000000E-01  7.20000000E-01  7.20000000E-01  7.20000000E-01  7.20000000E-01
  7.90000000E-01  7.90000000E-01  8.50000000E-01  8.50000000E-01  8.50000000E-01
  8.50000000E-01  8.50000000E-01  8.50000000E-01  8.50000000E-01  8.50000000E-01
  8.50000000E-01  8.50000000E-01  8.50000000E-01  8.50000000E-01  8.50000000E-01
  8.50000000E-01  8.50000000E-01  8.50000000E-01  8.50000000E-01
%FLAG IPOL                                                                      
%FORMAT(1I8)                                                                    
       0
