mobley_2845466_GMX.gro created by acpype (v: 2023.10.27) on Wed May 20 23:44:54 2026
   22
    1MOL     C1    1   2.612   2.791   2.541
    1MOL     C2    2   2.783   2.591   2.446
    1MOL     C3    3   2.274   2.467   2.612
    1MOL     C4    4   2.445   2.267   2.517
    1MOL     C5    5   2.569   2.658   2.535
    1MOL     C6    6   2.654   2.558   2.488
    1MOL     C7    7   2.403   2.499   2.570
    1MOL     C8    8   2.488   2.400   2.523
    1MOL     C9    9   2.741   2.823   2.499
    1MOL    C10   10   2.827   2.723   2.452
    1MOL    C11   11   2.231   2.334   2.607
    1MOL    C12   12   2.316   2.235   2.559
    1MOL     O1   13   2.441   2.631   2.578
    1MOL     O2   14   2.616   2.427   2.481
    1MOL    CL1   15   2.789   2.989   2.508
    1MOL    CL2   16   2.987   2.758   2.398
    1MOL    CL3   17   2.070   2.300   2.660
    1MOL    CL4   18   2.268   2.069   2.550
    1MOL     H1   19   2.545   2.867   2.578
    1MOL     H2   20   2.849   2.512   2.409
    1MOL     H3   21   2.208   2.545   2.649
    1MOL     H4   22   2.513   2.190   2.480
   5.05811   5.05811   5.05811
