; mobley_3969312_GMX.top created by acpype (v: 2023.10.27) on Wed May 20 23:42:48 2026

[ defaults ]
; nbfunc        comb-rule       gen-pairs       fudgeLJ fudgeQQ
1               2               yes             0.5     0.8333333333

; Include mobley_3969312_GMX.itp topology
#include "mobley_3969312_GMX.itp"

; Ligand position restraints
#ifdef POSRES_LIG
#include "posre_mobley_3969312.itp"
#endif

[ system ]
mobley_3969312 in water

[ molecules ]
; Compound        nmols
 mobley_3969312   1     
SOL              3190
