1,3,5-trichloro-2-(2,6-dichloro
    22
   1.8850000  -1.0360000  -0.1120000   0.8070000  -0.4630000   0.5610000
   2.9210000  -1.6310000   0.6080000   1.1070000  -2.1900000   6.1870000
   2.2720000  -0.0750000   6.2550000   1.8000000  -1.0790000   2.6760000
   1.7550000  -1.1010000   4.1300000   0.7640000  -0.4840000   1.9550000
   2.8780000  -1.6520000   2.0020000   1.6670000  -1.1430000   6.9180000
   1.1500000  -2.1690000   4.7930000   2.3160000  -0.0540000   4.8610000
  -0.6020000   0.2450000   2.7290000   4.1950000  -2.4050000   2.8370000
   1.6120000  -1.1680000   8.6380000   0.4360000  -3.4980000   3.9440000
   3.0780000   1.3010000   4.0990000   1.9180000  -1.0200000  -1.1980000
   0.0080000  -0.0040000  -0.0170000   3.7540000  -2.0730000   0.0670000
   0.6360000  -3.0220000   6.7070000   2.7070000   0.7420000   6.8290000
