; mobley_5561855_GMX_OPLS.itp created by acpype (v: 2023.10.27) on Wed May 20 23:51:27 2026

; For OPLS atomtypes manual fine tuning
; AC_at:OPLS_at:OPLScode: Possible_Alternatives (see ffoplsaa.atp and ffoplsaanb.itp)
; ca:CA:opls_145: ['166', '501', '502']
; cp:x:opls_x: []
; cl:x:opls_x: []
; ha:HA:opls_146: []

[ moleculetype ]
;name            nrexcl
 mobley_5561855   3

[ atoms ]
;   nr  type  resi  res  atom  cgnr     charge      mass       ; qtot   bond_type
     1 opls_145     1   MOL    C1    1    -0.104000     12.01100 ; qtot -0.104  CA  
     2 opls_145     1   MOL    C2    2    -0.129000     12.01100 ; qtot -0.233  CA  
     3 opls_145     1   MOL    C3    3    -0.129000     12.01100 ; qtot -0.362  CA  
     4 opls_145     1   MOL    C4    4    -0.127000     12.01100 ; qtot -0.489  CA  
     5 opls_145     1   MOL    C5    5    -0.127000     12.01100 ; qtot -0.616  CA  
     6 opls_x     1   MOL    C6    6    -0.037000      0.00000 ; qtot -0.653  x   
     7 opls_x     1   MOL    C7    7    -0.032000      0.00000 ; qtot -0.685  x   
     8 opls_145     1   MOL    C8    8     0.049400     12.01100 ; qtot -0.636  CA  
     9 opls_145     1   MOL    C9    9     0.049400     12.01100 ; qtot -0.586  CA  
    10 opls_145     1   MOL   C10   10     0.038400     12.01100 ; qtot -0.548  CA  
    11 opls_145     1   MOL   C11   11     0.055400     12.01100 ; qtot -0.492  CA  
    12 opls_145     1   MOL   C12   12     0.055400     12.01100 ; qtot -0.437  CA  
    13 opls_x     1   MOL   CL1   13    -0.072400      0.00000 ; qtot -0.509  x   
    14 opls_x     1   MOL   CL2   14    -0.072400      0.00000 ; qtot -0.582  x   
    15 opls_x     1   MOL   CL3   15    -0.073400      0.00000 ; qtot -0.655  x   
    16 opls_x     1   MOL   CL4   16    -0.064400      0.00000 ; qtot -0.720  x   
    17 opls_x     1   MOL   CL5   17    -0.064400      0.00000 ; qtot -0.784  x   
    18 opls_146     1   MOL    H1   18     0.144000      1.00800 ; qtot -0.640  HA  
    19 opls_146     1   MOL    H2   19     0.153000      1.00800 ; qtot -0.487  HA  
    20 opls_146     1   MOL    H3   20     0.153000      1.00800 ; qtot -0.334  HA  
    21 opls_146     1   MOL    H4   21     0.167000      1.00800 ; qtot -0.167  HA  
    22 opls_146     1   MOL    H5   22     0.167000      1.00800 ; qtot -0.000  HA  

[ bonds ]
;   ai     aj funct   r             k
     1      2   1 ;    1.3986e-01    2.9644e+05 ;     C1 - C2         CA - CA    
     1      3   1 ;    1.3986e-01    2.9644e+05 ;     C1 - C3         CA - CA    
     1     18   1 ;    1.0860e-01    3.0183e+05 ;     C1 - H1         CA - HA    
     2      8   1 ;    1.3986e-01    2.9644e+05 ;     C2 - C8         CA - CA    
     2     19   1 ;    1.0860e-01    3.0183e+05 ;     C2 - H2         CA - HA    
     3      9   1 ;    1.3986e-01    2.9644e+05 ;     C3 - C9         CA - CA    
     3     20   1 ;    1.0860e-01    3.0183e+05 ;     C3 - H3         CA - HA    
     4     10   1 ;    1.3986e-01    2.9644e+05 ;     C4 - C10        CA - CA    
     4     11   1 ;    1.3986e-01    2.9644e+05 ;     C4 - C11        CA - CA    
     4     21   1 ;    1.0860e-01    3.0183e+05 ;     C4 - H4         CA - HA    
     5     10   1 ;    1.3986e-01    2.9644e+05 ;     C5 - C10        CA - CA    
     5     12   1 ;    1.3986e-01    2.9644e+05 ;     C5 - C12        CA - CA    
     5     22   1 ;    1.0860e-01    3.0183e+05 ;     C5 - H5         CA - HA    
     6      7   1 ;    1.4829e-01    2.2541e+05 ;     C6 - C7          x - x     
     6      8   1 ;    1.4056e-01    2.8959e+05 ;     C6 - C8          x - CA    
     6      9   1 ;    1.4056e-01    2.8959e+05 ;     C6 - C9          x - CA    
     7     11   1 ;    1.4056e-01    2.8959e+05 ;     C7 - C11         x - CA    
     7     12   1 ;    1.4056e-01    2.8959e+05 ;     C7 - C12         x - CA    
     8     13   1 ;    1.7572e-01    1.5730e+05 ;     C8 - CL1        CA - x     
     9     14   1 ;    1.7572e-01    1.5730e+05 ;     C9 - CL2        CA - x     
    10     15   1 ;    1.7572e-01    1.5730e+05 ;    C10 - CL3        CA - x     
    11     16   1 ;    1.7572e-01    1.5730e+05 ;    C11 - CL4        CA - x     
    12     17   1 ;    1.7572e-01    1.5730e+05 ;    C12 - CL5        CA - x     

[ pairs ]
;   ai     aj    funct
     1      6      1 ;     C1 - C6    
     1     13      1 ;     C1 - CL1   
     1     14      1 ;     C1 - CL2   
     2      7      1 ;     C2 - C7    
     2      9      1 ;     C2 - C9    
     2     20      1 ;     C2 - H3    
     3      7      1 ;     C3 - C7    
     3      8      1 ;     C3 - C8    
     3     19      1 ;     C3 - H2    
     4      6      1 ;     C4 - C6    
     4     12      1 ;     C4 - C12   
     4     22      1 ;     C4 - H5    
     5      6      1 ;     C5 - C6    
     5     11      1 ;     C5 - C11   
     5     21      1 ;     C5 - H4    
     6     16      1 ;     C6 - CL4   
     6     17      1 ;     C6 - CL5   
     6     19      1 ;     C6 - H2    
     6     20      1 ;     C6 - H3    
     7     10      1 ;     C7 - C10   
     7     13      1 ;     C7 - CL1   
     7     14      1 ;     C7 - CL2   
     7     21      1 ;     C7 - H4    
     7     22      1 ;     C7 - H5    
     8     11      1 ;     C8 - C11   
     8     12      1 ;     C8 - C12   
     8     14      1 ;     C8 - CL2   
     9     11      1 ;     C9 - C11   
     9     12      1 ;     C9 - C12   
     9     13      1 ;     C9 - CL1   
    10     16      1 ;    C10 - CL4   
    10     17      1 ;    C10 - CL5   
    11     15      1 ;    C11 - CL3   
    11     17      1 ;    C11 - CL5   
    12     15      1 ;    C12 - CL3   
    12     16      1 ;    C12 - CL4   
    13     19      1 ;    CL1 - H2    
    14     20      1 ;    CL2 - H3    
    15     21      1 ;    CL3 - H4    
    15     22      1 ;    CL3 - H5    
    16     21      1 ;    CL4 - H4    
    17     22      1 ;    CL5 - H5    
    18      8      1 ;     H1 - C8    
    18      9      1 ;     H1 - C9    
    18     19      1 ;     H1 - H2    
    18     20      1 ;     H1 - H3    

[ angles ]
;   ai     aj     ak    funct   theta         cth
     1      2      8      1 ;    1.2002e+02    5.3279e+02 ;     C1 - C2   - C8       CA -   CA - CA  
     1      2     19      1 ;    1.1988e+02    3.7572e+02 ;     C1 - C2   - H2       CA -   CA - HA  
     1      3      9      1 ;    1.2002e+02    5.3279e+02 ;     C1 - C3   - C9       CA -   CA - CA  
     1      3     20      1 ;    1.1988e+02    3.7572e+02 ;     C1 - C3   - H3       CA -   CA - HA  
     2      1      3      1 ;    1.2002e+02    5.3279e+02 ;     C2 - C1   - C3       CA -   CA - CA  
     2      1     18      1 ;    1.1988e+02    3.7572e+02 ;     C2 - C1   - H1       CA -   CA - HA  
     2      8      6      1 ;    1.2073e+02    5.2995e+02 ;     C2 - C8   - C6       CA -   CA - x   
     2      8     13      1 ;    1.1938e+02    5.3605e+02 ;     C2 - C8   - CL1      CA -   CA - x   
     3      1     18      1 ;    1.1988e+02    3.7572e+02 ;     C3 - C1   - H1       CA -   CA - HA  
     3      9      6      1 ;    1.2073e+02    5.2995e+02 ;     C3 - C9   - C6       CA -   CA - x   
     3      9     14      1 ;    1.1938e+02    5.3605e+02 ;     C3 - C9   - CL2      CA -   CA - x   
     4     10      5      1 ;    1.2002e+02    5.3279e+02 ;     C4 - C10  - C5       CA -   CA - CA  
     4     10     15      1 ;    1.1938e+02    5.3605e+02 ;     C4 - C10  - CL3      CA -   CA - x   
     4     11      7      1 ;    1.2073e+02    5.2995e+02 ;     C4 - C11  - C7       CA -   CA - x   
     4     11     16      1 ;    1.1938e+02    5.3605e+02 ;     C4 - C11  - CL4      CA -   CA - x   
     5     10     15      1 ;    1.1938e+02    5.3605e+02 ;     C5 - C10  - CL3      CA -   CA - x   
     5     12      7      1 ;    1.2073e+02    5.2995e+02 ;     C5 - C12  - C7       CA -   CA - x   
     5     12     17      1 ;    1.1938e+02    5.3605e+02 ;     C5 - C12  - CL5      CA -   CA - x   
     6      7     11      1 ;    1.2110e+02    5.1296e+02 ;     C6 - C7   - C11       x -    x - CA  
     6      7     12      1 ;    1.2110e+02    5.1296e+02 ;     C6 - C7   - C12       x -    x - CA  
     6      8     13      1 ;    1.2044e+02    5.3304e+02 ;     C6 - C8   - CL1       x -   CA - x   
     6      9     14      1 ;    1.2044e+02    5.3304e+02 ;     C6 - C9   - CL2       x -   CA - x   
     7      6      8      1 ;    1.2110e+02    5.1296e+02 ;     C7 - C6   - C8        x -    x - CA  
     7      6      9      1 ;    1.2110e+02    5.1296e+02 ;     C7 - C6   - C9        x -    x - CA  
     7     11     16      1 ;    1.2044e+02    5.3304e+02 ;     C7 - C11  - CL4       x -   CA - x   
     7     12     17      1 ;    1.2044e+02    5.3304e+02 ;     C7 - C12  - CL5       x -   CA - x   
     8      2     19      1 ;    1.1988e+02    3.7572e+02 ;     C8 - C2   - H2       CA -   CA - HA  
     8      6      9      1 ;    1.1841e+02    5.3379e+02 ;     C8 - C6   - C9       CA -    x - CA  
     9      3     20      1 ;    1.1988e+02    3.7572e+02 ;     C9 - C3   - H3       CA -   CA - HA  
    10      4     11      1 ;    1.2002e+02    5.3279e+02 ;    C10 - C4   - C11      CA -   CA - CA  
    10      4     21      1 ;    1.1988e+02    3.7572e+02 ;    C10 - C4   - H4       CA -   CA - HA  
    10      5     12      1 ;    1.2002e+02    5.3279e+02 ;    C10 - C5   - C12      CA -   CA - CA  
    10      5     22      1 ;    1.1988e+02    3.7572e+02 ;    C10 - C5   - H5       CA -   CA - HA  
    11      4     21      1 ;    1.1988e+02    3.7572e+02 ;    C11 - C4   - H4       CA -   CA - HA  
    11      7     12      1 ;    1.1841e+02    5.3379e+02 ;    C11 - C7   - C12      CA -    x - CA  
    12      5     22      1 ;    1.1988e+02    3.7572e+02 ;    C12 - C5   - H5       CA -   CA - HA  

[ dihedrals ] ; propers
; for gromacs 4.5 or higher, using funct 9
;    i      j      k      l   func   phase     kd      pn
     1      2      8      6      9 ;   180.00  15.16700   2 ;     C1-    C2-    C8-    C6
     1      2      8     13      9 ;   180.00  15.16700   2 ;     C1-    C2-    C8-   CL1
     1      3      9      6      9 ;   180.00  15.16700   2 ;     C1-    C3-    C9-    C6
     1      3      9     14      9 ;   180.00  15.16700   2 ;     C1-    C3-    C9-   CL2
     2      1      3      9      9 ;   180.00  15.16700   2 ;     C2-    C1-    C3-    C9
     2      1      3     20      9 ;   180.00  15.16700   2 ;     C2-    C1-    C3-    H3
     2      8      6      7      9 ;   180.00  15.16700   2 ;     C2-    C8-    C6-    C7
     2      8      6      9      9 ;   180.00  15.16700   2 ;     C2-    C8-    C6-    C9
     3      1      2      8      9 ;   180.00  15.16700   2 ;     C3-    C1-    C2-    C8
     3      1      2     19      9 ;   180.00  15.16700   2 ;     C3-    C1-    C2-    H2
     3      9      6      7      9 ;   180.00  15.16700   2 ;     C3-    C9-    C6-    C7
     3      9      6      8      9 ;   180.00  15.16700   2 ;     C3-    C9-    C6-    C8
     4     10      5     12      9 ;   180.00  15.16700   2 ;     C4-   C10-    C5-   C12
     4     10      5     22      9 ;   180.00  15.16700   2 ;     C4-   C10-    C5-    H5
     4     11      7      6      9 ;   180.00  15.16700   2 ;     C4-   C11-    C7-    C6
     4     11      7     12      9 ;   180.00  15.16700   2 ;     C4-   C11-    C7-   C12
     5     10      4     11      9 ;   180.00  15.16700   2 ;     C5-   C10-    C4-   C11
     5     10      4     21      9 ;   180.00  15.16700   2 ;     C5-   C10-    C4-    H4
     5     12      7      6      9 ;   180.00  15.16700   2 ;     C5-   C12-    C7-    C6
     5     12      7     11      9 ;   180.00  15.16700   2 ;     C5-   C12-    C7-   C11
     6      7     11     16      9 ;   180.00  15.16700   2 ;     C6-    C7-   C11-   CL4
     6      7     12     17      9 ;   180.00  15.16700   2 ;     C6-    C7-   C12-   CL5
     6      8      2     19      9 ;   180.00  15.16700   2 ;     C6-    C8-    C2-    H2
     6      9      3     20      9 ;   180.00  15.16700   2 ;     C6-    C9-    C3-    H3
     7      6      8     13      9 ;   180.00  15.16700   2 ;     C7-    C6-    C8-   CL1
     7      6      9     14      9 ;   180.00  15.16700   2 ;     C7-    C6-    C9-   CL2
     7     11      4     10      9 ;   180.00  15.16700   2 ;     C7-   C11-    C4-   C10
     7     11      4     21      9 ;   180.00  15.16700   2 ;     C7-   C11-    C4-    H4
     7     12      5     10      9 ;   180.00  15.16700   2 ;     C7-   C12-    C5-   C10
     7     12      5     22      9 ;   180.00  15.16700   2 ;     C7-   C12-    C5-    H5
     8      6      7     11      9 ;   180.00   3.20076   2 ;     C8-    C6-    C7-   C11
     8      6      7     12      9 ;   180.00   3.20076   2 ;     C8-    C6-    C7-   C12
     8      6      9     14      9 ;   180.00  15.16700   2 ;     C8-    C6-    C9-   CL2
     9      6      7     11      9 ;   180.00   3.20076   2 ;     C9-    C6-    C7-   C11
     9      6      7     12      9 ;   180.00   3.20076   2 ;     C9-    C6-    C7-   C12
     9      6      8     13      9 ;   180.00  15.16700   2 ;     C9-    C6-    C8-   CL1
    10      4     11     16      9 ;   180.00  15.16700   2 ;    C10-    C4-   C11-   CL4
    10      5     12     17      9 ;   180.00  15.16700   2 ;    C10-    C5-   C12-   CL5
    11      4     10     15      9 ;   180.00  15.16700   2 ;    C11-    C4-   C10-   CL3
    11      7     12     17      9 ;   180.00  15.16700   2 ;    C11-    C7-   C12-   CL5
    12      5     10     15      9 ;   180.00  15.16700   2 ;    C12-    C5-   C10-   CL3
    12      7     11     16      9 ;   180.00  15.16700   2 ;    C12-    C7-   C11-   CL4
    13      8      2     19      9 ;   180.00  15.16700   2 ;    CL1-    C8-    C2-    H2
    14      9      3     20      9 ;   180.00  15.16700   2 ;    CL2-    C9-    C3-    H3
    15     10      4     21      9 ;   180.00  15.16700   2 ;    CL3-   C10-    C4-    H4
    15     10      5     22      9 ;   180.00  15.16700   2 ;    CL3-   C10-    C5-    H5
    16     11      4     21      9 ;   180.00  15.16700   2 ;    CL4-   C11-    C4-    H4
    17     12      5     22      9 ;   180.00  15.16700   2 ;    CL5-   C12-    C5-    H5
    18      1      2      8      9 ;   180.00  15.16700   2 ;     H1-    C1-    C2-    C8
    18      1      2     19      9 ;   180.00  15.16700   2 ;     H1-    C1-    C2-    H2
    18      1      3      9      9 ;   180.00  15.16700   2 ;     H1-    C1-    C3-    C9
    18      1      3     20      9 ;   180.00  15.16700   2 ;     H1-    C1-    C3-    H3

[ dihedrals ] ; impropers
; treated as propers in GROMACS to use correct AMBER analytical function
;    i      j      k      l   func   phase     kd      pn
     1      8      2     19      4 ;   180.00   4.60240   2 ;     C1-    C8-    C2-    H2
     1      9      3     20      4 ;   180.00   4.60240   2 ;     C1-    C9-    C3-    H3
     2     13      8      6      4 ;   180.00   4.60240   2 ;     C2-   CL1-    C8-    C6
     3     14      9      6      4 ;   180.00   4.60240   2 ;     C3-   CL2-    C9-    C6
     4      5     10     15      4 ;   180.00   4.60240   2 ;     C4-    C5-   C10-   CL3
     4     16     11      7      4 ;   180.00   4.60240   2 ;     C4-   CL4-   C11-    C7
     5     17     12      7      4 ;   180.00   4.60240   2 ;     C5-   CL5-   C12-    C7
     8      9      6      7      4 ;   180.00   4.60240   2 ;     C8-    C9-    C6-    C7
    10     11      4     21      4 ;   180.00   4.60240   2 ;    C10-   C11-    C4-    H4
    10     12      5     22      4 ;   180.00   4.60240   2 ;    C10-   C12-    C5-    H5
    11     12      7      6      4 ;   180.00   4.60240   2 ;    C11-   C12-    C7-    C6
    18      1      3      2      4 ;   180.00   4.60240   2 ;     H1-    C1-    C3-    C2
