; mobley_5561855_GMX.top created by acpype (v: 2023.10.27) on Wed May 20 23:51:27 2026

[ defaults ]
; nbfunc        comb-rule       gen-pairs       fudgeLJ fudgeQQ
1               2               yes             0.5     0.8333333333

; Include mobley_5561855_GMX.itp topology
#include "mobley_5561855_GMX.itp"

; Ligand position restraints
#ifdef POSRES_LIG
#include "posre_mobley_5561855.itp"
#endif

[ system ]
mobley_5561855 in water

[ molecules ]
; Compound        nmols
 mobley_5561855   1     
SOL              4022
