; mobley_5561855_GMX_OPLS.top created by acpype (v: 2023.10.27) on Wed May 20 23:51:27 2026

; Include forcefield parameters
#include "ffoplsaa.itp"

; Include mobley_5561855_GMX.itp topology
#include "mobley_5561855_GMX.itp"

; Ligand position restraints
#ifdef POSRES_LIG
#include "posre_mobley_5561855.itp"
#endif

[ system ]
 mobley_5561855

[ molecules ]
; Compound        nmols
 mobley_5561855   1     
