%VERSION  VERSION_STAMP = V0001.000  DATE = 05/20/26  23:51:29                  
%FLAG TITLE                                                                     
%FORMAT(20a4)                                                                   
1,3,5-trichloro-2-(2,6-dichloro                                                 
%FLAG POINTERS                                                                  
%FORMAT(10I8)                                                                   
      22       3       5      18      10      26      23      41       0       0
     109       1      18      26      41       5       7       3       4       0
       0       0       0       0       0       0       0       0      22       0
       0
%FLAG ATOM_NAME                                                                 
%FORMAT(20a4)                                                                   
C1  C2  C3  C4  C5  C6  C7  C8  C9  C10 C11 C12 Cl1 Cl2 Cl3 Cl4 Cl5 H1  H2  H3  
H4  H5  
%FLAG CHARGE                                                                    
%FORMAT(5E16.8)                                                                 
 -1.89511920E+00 -2.35067670E+00 -2.35067670E+00 -2.31423210E+00 -2.31423210E+00
 -6.74225100E-01 -5.83113600E-01  9.00181620E-01  9.00181620E-01  6.99736320E-01
  1.00951542E+00  1.00951542E+00 -1.31929452E+00 -1.31929452E+00 -1.33751682E+00
 -1.17351612E+00 -1.17351612E+00  2.62401120E+00  2.78801190E+00  2.78801190E+00
  3.04312410E+00  3.04312410E+00
%FLAG ATOMIC_NUMBER                                                             
%FORMAT(10I8)                                                                   
       6       6       6       6       6       6       6       6       6       6
       6       6      17      17      17      17      17       1       1       1
       1       1
%FLAG MASS                                                                      
%FORMAT(5E16.8)                                                                 
  1.20100000E+01  1.20100000E+01  1.20100000E+01  1.20100000E+01  1.20100000E+01
  1.20100000E+01  1.20100000E+01  1.20100000E+01  1.20100000E+01  1.20100000E+01
  1.20100000E+01  1.20100000E+01  3.54500000E+01  3.54500000E+01  3.54500000E+01
  3.54500000E+01  3.54500000E+01  1.00800000E+00  1.00800000E+00  1.00800000E+00
  1.00800000E+00  1.00800000E+00
%FLAG ATOM_TYPE_INDEX                                                           
%FORMAT(10I8)                                                                   
       1       1       1       1       1       1       1       1       1       1
       1       1       2       2       2       2       2       3       3       3
       3       3
%FLAG NUMBER_EXCLUDED_ATOMS                                                     
%FORMAT(10I8)                                                                   
      10       9       8      10       9      11      11       7       6       7
       5       4       1       1       2       1       1       2       1       1
       1       1
%FLAG NONBONDED_PARM_INDEX                                                      
%FORMAT(10I8)                                                                   
       1       2       4       2       3       5       4       5       6
%FLAG RESIDUE_LABEL                                                             
%FORMAT(20a4)                                                                   
MOL 
%FLAG RESIDUE_POINTER                                                           
%FORMAT(10I8)                                                                   
       1
%FLAG BOND_FORCE_CONSTANT                                                       
%FORMAT(5E16.8)                                                                 
  3.54250000E+02  3.60690000E+02  2.69370000E+02  3.46070000E+02  1.87980000E+02
%FLAG BOND_EQUIL_VALUE                                                          
%FORMAT(5E16.8)                                                                 
  1.39860000E+00  1.08600000E+00  1.48290000E+00  1.40560000E+00  1.75720000E+00
%FLAG ANGLE_FORCE_CONSTANT                                                      
%FORMAT(5E16.8)                                                                 
  6.36700000E+01  4.49000000E+01  6.33300000E+01  6.40600000E+01  6.13000000E+01
  6.37000000E+01  6.37900000E+01
%FLAG ANGLE_EQUIL_VALUE                                                         
%FORMAT(5E16.8)                                                                 
  2.09474507E+00  2.09230160E+00  2.10713691E+00  2.08357495E+00  2.11359463E+00
  2.10207545E+00  2.06664525E+00
%FLAG DIHEDRAL_FORCE_CONSTANT                                                   
%FORMAT(5E16.8)                                                                 
  3.62500000E+00  7.65000000E-01  1.10000000E+00
%FLAG DIHEDRAL_PERIODICITY                                                      
%FORMAT(5E16.8)                                                                 
  2.00000000E+00  2.00000000E+00  2.00000000E+00
%FLAG DIHEDRAL_PHASE                                                            
%FORMAT(5E16.8)                                                                 
  3.14159400E+00  3.14159400E+00  3.14159400E+00
%FLAG SCEE_SCALE_FACTOR                                                         
%FORMAT(5E16.8)                                                                 
  1.20000000E+00  1.20000000E+00  0.00000000E+00
%FLAG SCNB_SCALE_FACTOR                                                         
%FORMAT(5E16.8)                                                                 
  2.00000000E+00  2.00000000E+00  0.00000000E+00
%FLAG SOLTY                                                                     
%FORMAT(5E16.8)                                                                 
  0.00000000E+00  0.00000000E+00  0.00000000E+00  0.00000000E+00
%FLAG LENNARD_JONES_ACOEF                                                       
%FORMAT(5E16.8)                                                                 
  6.96551276E+05  1.49062160E+06  3.17107030E+06  7.52549148E+04  1.66104821E+05
  6.90855956E+03
%FLAG LENNARD_JONES_BCOEF                                                       
%FORMAT(5E16.8)                                                                 
  5.24668528E+02  9.81118883E+02  1.82923847E+03  1.09570372E+02  2.08087638E+02
  2.10929191E+01
%FLAG BONDS_INC_HYDROGEN                                                        
%FORMAT(10I8)                                                                   
       0      51       2       3      54       2       6      57       2       9
      60       2      12      63       2
%FLAG BONDS_WITHOUT_HYDROGEN                                                    
%FORMAT(10I8)                                                                   
       0       3       1       0       6       1       3      21       1       6
      24       1       9      27       1       9      30       1      12      27
       1      12      33       1      15      18       3      15      21       4
      15      24       4      18      30       4      18      33       4      21
      36       5      24      39       5      27      42       5      30      45
       5      33      48       5
%FLAG ANGLES_INC_HYDROGEN                                                       
%FORMAT(10I8)                                                                   
       0       3      54       2       0       6      57       2       3       0
      51       2       6       0      51       2      21       3      54       2
      24       6      57       2      27       9      60       2      27      12
      63       2      30       9      60       2      33      12      63       2
%FLAG ANGLES_WITHOUT_HYDROGEN                                                   
%FORMAT(10I8)                                                                   
       0       3      21       1       0       6      24       1       3       0
       6       1       3      21      15       3       3      21      36       4
       6      24      15       3       6      24      39       4       9      27
      12       1       9      27      42       4       9      30      18       3
       9      30      45       4      12      27      42       4      12      33
      18       3      12      33      48       4      15      18      30       5
      15      18      33       5      15      21      36       6      15      24
      39       6      18      15      21       5      18      15      24       5
      18      30      45       6      18      33      48       6      21      15
      24       7      27       9      30       1      27      12      33       1
      30      18      33       7
%FLAG DIHEDRALS_INC_HYDROGEN                                                    
%FORMAT(10I8)                                                                   
       3       0       6      57       1       6       0       3      54       1
       9      27      12      63       1      12      27       9      60       1
      15      21       3      54       1      15      24       6      57       1
      18      30       9      60       1      18      33      12      63       1
      51       0       3      21       1      51       0       6      24       1
      36      21       3      54       1      39      24       6      57       1
      42      27       9      60       1      42      27      12      63       1
      45      30       9      60       1      48      33      12      63       1
      51       0       3      54       1      51       0       6      57       1
      51       0      -6      -3       3       0      21      -3     -54       3
       0      24      -6     -57       3      27      30      -9     -60       3
      27      33     -12     -63       3
%FLAG DIHEDRALS_WITHOUT_HYDROGEN                                                
%FORMAT(10I8)                                                                   
       0       3      21      15       1       0       3      21      36       1
       0       6     -24      15       1       0       6      24      39       1
       3       0       6      24       1       3      21      15      18       1
       3      21     -15      24       1       6       0       3      21       1
       6      24      15      18       1       6      24     -15      21       1
       9      27      12      33       1       9      30      18      15       1
       9      30     -18      33       1      12      27       9      30       1
      12      33      18      15       1      12      33     -18      30       1
      15      18      30      45       1      15      18      33      48       1
      18      15      21      36       1      18      15      24      39       1
      18      30       9      27       1      18      33     -12      27       1
      21      15      18      30       2      21      15      18      33       2
      21      15      24      39       1      24      15      18      30       2
      24      15      18      33       2      24      15      21      36       1
      27       9      30      45       1      27      12      33      48       1
      30       9      27      42       1      30      18      33      48       1
      33      12      27      42       1      33      18      30      45       1
      21      24     -15     -18       3      30      33     -18     -15       3
       3      36     -21     -15       3       6      39     -24     -15       3
       9      12     -27     -42       3       9      45     -30     -18       3
      12      48     -33     -18       3
%FLAG EXCLUDED_ATOMS_LIST                                                       
%FORMAT(10I8)                                                                   
       2       3       6       8       9      13      14      18      19      20
       3       6       7       8       9      13      18      19      20       6
       7       8       9      14      18      19      20       5       6       7
      10      11      12      15      16      21      22       6       7      10
      11      12      15      17      21      22       7       8       9      11
      12      13      14      16      17      19      20       8       9      10
      11      12      13      14      16      17      21      22       9      11
      12      13      14      18      19      11      12      13      14      18
      20      11      12      15      16      17      21      22      12      15
      16      17      21      15      16      17      22      19      20      21
      22      21      22      19      20       0       0       0       0
%FLAG HBOND_ACOEF                                                               
%FORMAT(5E16.8)                                                                 

%FLAG HBOND_BCOEF                                                               
%FORMAT(5E16.8)                                                                 

%FLAG HBCUT                                                                     
%FORMAT(5E16.8)                                                                 

%FLAG AMBER_ATOM_TYPE                                                           
%FORMAT(20a4)                                                                   
ca  ca  ca  ca  ca  cp  cp  ca  ca  ca  ca  ca  cl  cl  cl  cl  cl  ha  ha  ha  
ha  ha  
%FLAG TREE_CHAIN_CLASSIFICATION                                                 
%FORMAT(20a4)                                                                   
BLA BLA BLA BLA BLA BLA BLA BLA BLA BLA BLA BLA BLA BLA BLA BLA BLA BLA BLA BLA 
BLA BLA 
%FLAG JOIN_ARRAY                                                                
%FORMAT(10I8)                                                                   
       0       0       0       0       0       0       0       0       0       0
       0       0       0       0       0       0       0       0       0       0
       0       0
%FLAG IROTAT                                                                    
%FORMAT(10I8)                                                                   
       0       0       0       0       0       0       0       0       0       0
       0       0       0       0       0       0       0       0       0       0
       0       0
%FLAG RADIUS_SET                                                                
%FORMAT(1a80)                                                                   
modified Bondi radii (mbondi)                                                   
%FLAG RADII                                                                     
%FORMAT(5E16.8)                                                                 
  1.70000000E+00  1.70000000E+00  1.70000000E+00  1.70000000E+00  1.70000000E+00
  1.70000000E+00  1.70000000E+00  1.70000000E+00  1.70000000E+00  1.70000000E+00
  1.70000000E+00  1.70000000E+00  1.70000000E+00  1.70000000E+00  1.70000000E+00
  1.70000000E+00  1.70000000E+00  1.30000000E+00  1.30000000E+00  1.30000000E+00
  1.30000000E+00  1.30000000E+00
%FLAG SCREEN                                                                    
%FORMAT(5E16.8)                                                                 
  7.20000000E-01  7.20000000E-01  7.20000000E-01  7.20000000E-01  7.20000000E-01
  7.20000000E-01  7.20000000E-01  7.20000000E-01  7.20000000E-01  7.20000000E-01
  7.20000000E-01  7.20000000E-01  8.00000000E-01  8.00000000E-01  8.00000000E-01
  8.00000000E-01  8.00000000E-01  8.50000000E-01  8.50000000E-01  8.50000000E-01
  8.50000000E-01  8.50000000E-01
%FLAG IPOL                                                                      
%FORMAT(1I8)                                                                    
       0
