mobley_5561855_GMX.gro created by acpype (v: 2023.10.27) on Wed May 20 23:51:27 2026
 22
    1  MOL   C1    1   0.189  -0.104  -0.011
    1  MOL   C2    2   0.081  -0.046   0.056
    1  MOL   C3    3   0.292  -0.163   0.061
    1  MOL   C4    4   0.111  -0.219   0.619
    1  MOL   C5    5   0.227  -0.007   0.626
    1  MOL   C6    6   0.180  -0.108   0.268
    1  MOL   C7    7   0.175  -0.110   0.413
    1  MOL   C8    8   0.076  -0.048   0.196
    1  MOL   C9    9   0.288  -0.165   0.200
    1  MOL  C10   10   0.167  -0.114   0.692
    1  MOL  C11   11   0.115  -0.217   0.479
    1  MOL  C12   12   0.232  -0.005   0.486
    1  MOL  CL1   13  -0.060   0.025   0.273
    1  MOL  CL2   14   0.420  -0.240   0.284
    1  MOL  CL3   15   0.161  -0.117   0.864
    1  MOL  CL4   16   0.044  -0.350   0.394
    1  MOL  CL5   17   0.308   0.130   0.410
    1  MOL   H1   18   0.192  -0.102  -0.120
    1  MOL   H2   19   0.001  -0.000  -0.002
    1  MOL   H3   20   0.375  -0.207   0.007
    1  MOL   H4   21   0.064  -0.302   0.671
    1  MOL   H5   22   0.271   0.074   0.683
    9.59400     9.59800    19.67200
