mobley_1235151_GMX.gro created by acpype (v: 2023.10.27) on Wed May 20 23:45:08 2026
10573
    1MOL     C1    1   2.110   2.263   2.348
    1MOL     C2    2   2.224   2.320   2.430
    1MOL     C3    3   2.342   2.361   2.342
    1MOL     C4    4   2.458   2.416   2.425
    1MOL     C5    5   2.573   2.460   2.336
    1MOL     N1    6   2.678   2.517   2.422
    1MOL     O1    7   2.675   2.639   2.445
    1MOL     O2    8   2.763   2.438   2.469
    1MOL     H1    9   2.027   2.235   2.413
    1MOL     H2   10   2.073   2.337   2.276
    1MOL     H3   11   2.142   2.174   2.292
    1MOL     H4   12   2.257   2.245   2.503
    1MOL     H5   13   2.188   2.407   2.486
    1MOL     H6   14   2.309   2.438   2.270
    1MOL     H7   15   2.376   2.275   2.283
    1MOL     H8   16   2.492   2.338   2.495
    1MOL     H9   17   2.423   2.500   2.486
    1MOL    H10   18   2.544   2.539   2.266
    1MOL    H11   19   2.619   2.377   2.282
    2SOL     OW   20   0.230   0.628   0.113
    2SOL    HW1   21   0.137   0.626   0.150
    2SOL    HW2   22   0.231   0.589   0.021
    3SOL     OW   23   0.225   0.275   0.996
    3SOL    HW1   24   0.260   0.258   1.088
    3SOL    HW2   25   0.137   0.230   0.984
    4SOL     OW   26   0.019   0.368   0.647
    4SOL    HW1   27  -0.063   0.411   0.686
    4SOL    HW2   28  -0.009   0.295   0.584
    5SOL     OW   29   0.569   1.275   1.165
    5SOL    HW1   30   0.476   1.268   1.128
    5SOL    HW2   31   0.580   1.364   1.209
    6SOL     OW   32   1.555   1.511   0.703
    6SOL    HW1   33   1.498   1.495   0.784
    6SOL    HW2   34   1.496   1.521   0.623
    7SOL     OW   35   1.135   0.703   0.717
    7SOL    HW1   36   1.192   0.781   0.692
    7SOL    HW2   37   1.075   0.729   0.793
    8SOL     OW   38   1.755   0.607   0.231
    8SOL    HW1   39   1.743   0.594   0.132
    8SOL    HW2   40   1.725   0.526   0.280
    9SOL     OW   41   0.768   1.144   1.023
    9SOL    HW1   42   0.690   1.161   1.083
    9SOL    HW2   43   0.802   1.231   0.987
   10SOL     OW   44   0.850   0.798   1.823
   10SOL    HW1   45   0.846   0.874   1.888
   10SOL    HW2   46   0.872   0.834   1.732
   11SOL     OW   47   0.685   1.012   0.665
   11SOL    HW1   48   0.754   0.996   0.735
   11SOL    HW2   49   0.612   1.069   0.703
   12SOL     OW   50   0.686   1.161   1.803
   12SOL    HW1   51   0.746   1.240   1.817
   12SOL    HW2   52   0.600   1.192   1.762
   13SOL     OW   53   0.335   1.435   1.061
   13SOL    HW1   54   0.257   1.404   1.008
   13SOL    HW2   55   0.393   1.493   1.004
   14SOL     OW   56   1.460   1.505   1.339
   14SOL    HW1   57   1.484   1.599   1.365
   14SOL    HW2   58   1.444   1.451   1.421
   15SOL     OW   59   0.438   0.392   1.499
   15SOL    HW1   60   0.520   0.336   1.508
   15SOL    HW2   61   0.357   0.334   1.503
   16SOL     OW   62   1.603   0.447   0.737
   16SOL    HW1   63   1.529   0.493   0.687
   16SOL    HW2   64   1.654   0.515   0.790
   17SOL     OW   65   0.231   1.713   0.483
   17SOL    HW1   66   0.265   1.790   0.537
   17SOL    HW2   67   0.275   1.713   0.393
   18SOL     OW   68   1.127   1.341   1.690
   18SOL    HW1   69   1.174   1.341   1.778
   18SOL    HW2   70   1.079   1.254   1.679
   19SOL     OW   71   0.230   1.434   0.538
   19SOL    HW1   72   0.204   1.530   0.538
   19SOL    HW2   73   0.159   1.380   0.583
   20SOL     OW   74   0.240   1.091   0.886
   20SOL    HW1   75   0.254   1.007   0.938
   20SOL    HW2   76   0.185   1.155   0.941
   21SOL     OW   77   0.620   1.786   1.439
   21SOL    HW1   78   0.528   1.769   1.474
   21SOL    HW2   79   0.648   1.878   1.465
   22SOL     OW   80   0.606   0.964   0.123
   22SOL    HW1   81   0.613   1.048   0.069
   22SOL    HW2   82   0.652   0.977   0.211
   23SOL     OW   83   1.594   0.114   1.480
   23SOL    HW1   84   1.576   0.181   1.408
   23SOL    HW2   85   1.591   0.160   1.569
   24SOL     OW   86   0.122   0.643   0.563
   24SOL    HW1   87   0.077   0.555   0.580
   24SOL    HW2   88   0.121   0.697   0.647
   25SOL     OW   89   1.842   1.767   0.359
   25SOL    HW1   90   1.896   1.738   0.439
   25SOL    HW2   91   1.872   1.857   0.330
   26SOL     OW   92   0.027   1.596   0.117
   26SOL    HW1   93   0.008   1.500   0.138
   26SOL    HW2   94  -0.006   1.654   0.192
   27SOL     OW   95   1.689   0.922   0.612
   27SOL    HW1   96   1.784   0.893   0.620
   27SOL    HW2   97   1.681   0.987   0.537
   28SOL     OW   98   1.641   1.108   0.432
   28SOL    HW1   99   1.727   1.110   0.380
   28SOL    HW2  100   1.655   1.155   0.520
   29SOL     OW  101   0.113   0.737   1.597
   29SOL    HW1  102   0.201   0.724   1.642
   29SOL    HW2  103   0.100   0.834   1.575
   30SOL     OW  104   0.613   1.365   0.726
   30SOL    HW1  105   0.564   1.278   0.735
   30SOL    HW2  106   0.590   1.408   0.639
   31SOL     OW  107   1.293   1.228   1.423
   31SOL    HW1  108   1.330   1.155   1.365
   31SOL    HW2  109   1.345   1.233   1.508
   32SOL     OW  110   0.809   0.004   0.502
   32SOL    HW1  111   0.849   0.095   0.493
   32SOL    HW2  112   0.709   0.012   0.508
   33SOL     OW  113   0.197   0.976   1.264
   33SOL    HW1  114   0.286   0.931   1.250
   33SOL    HW2  115   0.124   0.911   1.245
   34SOL     OW  116   1.525   0.999   0.190
   34SOL    HW1  117   1.462   0.923   0.203
   34SOL    HW2  118   1.573   1.017   0.276
   35SOL     OW  119   1.187   1.792   1.616
   35SOL    HW1  120   1.211   1.852   1.540
   35SOL    HW2  121   1.194   1.697   1.586
   36SOL     OW  122   0.317   0.251   1.801
   36SOL    HW1  123   0.388   0.322   1.807
   36SOL    HW2  124   0.229   0.290   1.829
   37SOL     OW  125   1.466   1.417   0.953
   37SOL    HW1  126   1.407   1.423   1.033
   37SOL    HW2  127   1.451   1.329   0.907
   38SOL     OW  128   1.667   1.714   0.572
   38SOL    HW1  129   1.626   1.691   0.484
   38SOL    HW2  130   1.649   1.640   0.637
   39SOL     OW  131   0.598   0.729   0.270
   39SOL    HW1  132   0.622   0.798   0.202
   39SOL    HW2  133   0.520   0.762   0.324
   40SOL     OW  134   1.281   0.345   0.944
   40SOL    HW1  135   1.195   0.295   0.931
   40SOL    HW2  136   1.343   0.291   1.000
   41SOL     OW  137   1.576   1.662   0.307
   41SOL    HW1  138   1.665   1.708   0.310
   41SOL    HW2  139   1.555   1.638   0.212
   42SOL     OW  140   0.807   0.605   1.465
   42SOL    HW1  141   0.760   0.602   1.554
   42SOL    HW2  142   0.756   0.550   1.399
   43SOL     OW  143   1.394   0.469   1.674
   43SOL    HW1  144   1.374   0.512   1.762
   43SOL    HW2  145   1.472   0.407   1.683
   44SOL     OW  146   0.973   0.890   1.572
   44SOL    HW1  147   1.019   0.806   1.543
   44SOL    HW2  148   0.917   0.924   1.497
   45SOL     OW  149   0.991   0.410   1.242
   45SOL    HW1  150   0.914   0.444   1.296
   45SOL    HW2  151   0.957   0.359   1.163
   46SOL     OW  152   1.041   0.701   0.429
   46SOL    HW1  153   1.067   0.697   0.525
   46SOL    HW2  154   0.956   0.650   0.415
   47SOL     OW  155   0.076   0.811   0.789
   47SOL    HW1  156   0.175   0.799   0.798
   47SOL    HW2  157   0.052   0.906   0.810
   48SOL     OW  158   0.130   1.821   1.571
   48SOL    HW1  159   0.120   1.806   1.670
   48SOL    HW2  160   0.044   1.857   1.535
   49SOL     OW  161   0.865   0.348   0.195
   49SOL    HW1  162   0.924   0.411   0.146
   49SOL    HW2  163   0.884   0.254   0.166
   50SOL     OW  164   1.719   0.585   1.831
   50SOL    HW1  165   1.693   0.674   1.795
   50SOL    HW2  166   1.717   0.517   1.758
   51SOL     OW  167   1.362   1.144   0.545
   51SOL    HW1  168   1.445   1.115   0.497
   51SOL    HW2  169   1.313   1.211   0.489
   52SOL     OW  170   0.550   0.196   0.885
   52SOL    HW1  171   0.545   0.191   0.985
   52SOL    HW2  172   0.552   0.292   0.856
   53SOL     OW  173   1.008   1.456   0.477
   53SOL    HW1  174   0.962   1.528   0.425
   53SOL    HW2  175   1.004   1.476   0.575
   54SOL     OW  176   0.351   1.801   0.853
   54SOL    HW1  177   0.401   1.715   0.859
   54SOL    HW2  178   0.416   1.878   0.850
   55SOL     OW  179   1.795   1.066   0.873
   55SOL    HW1  180   1.733   1.051   0.797
   55SOL    HW2  181   1.743   1.077   0.958
   56SOL     OW  182   1.227   1.550   1.506
   56SOL    HW1  183   1.233   1.473   1.570
   56SOL    HW2  184   1.175   1.524   1.426
   57SOL     OW  185   0.321   0.943   0.242
   57SOL    HW1  186   0.403   0.982   0.200
   57SOL    HW2  187   0.294   0.861   0.193
   58SOL     OW  188   1.458   0.735   0.728
   58SOL    HW1  189   1.453   0.670   0.803
   58SOL    HW2  190   1.538   0.794   0.741
   59SOL     OW  191   0.461   1.266   1.727
   59SOL    HW1  192   0.411   1.267   1.641
   59SOL    HW2  193   0.398   1.248   1.803
   60SOL     OW  194   1.111   1.776   0.237
   60SOL    HW1  195   1.051   1.714   0.287
   60SOL    HW2  196   1.142   1.732   0.152
   61SOL     OW  197   0.202   0.285   1.498
   61SOL    HW1  198   0.122   0.345   1.485
   61SOL    HW2  199   0.192   0.236   1.584
   62SOL     OW  200   1.632   1.377   0.081
   62SOL    HW1  201   1.600   1.471   0.071
   62SOL    HW2  202   1.556   1.314   0.069
   63SOL     OW  203   0.464   1.743   0.323
   63SOL    HW1  204   0.497   1.782   0.409
   63SOL    HW2  205   0.540   1.736   0.258
   64SOL     OW  206   1.400   0.107   0.426
   64SOL    HW1  207   1.376   0.070   0.336
   64SOL    HW2  208   1.499   0.123   0.430
   65SOL     OW  209   0.249   1.785   1.241
   65SOL    HW1  210   0.306   1.720   1.291
   65SOL    HW2  211   0.233   1.752   1.148
   66SOL     OW  212   0.940   1.698   0.904
   66SOL    HW1  213   1.020   1.641   0.925
   66SOL    HW2  214   0.891   1.658   0.827
   67SOL     OW  215   0.382   0.700   0.480
   67SOL    HW1  216   0.427   0.610   0.477
   67SOL    HW2  217   0.288   0.689   0.513
   68SOL     OW  218   1.547   0.222   1.729
   68SOL    HW1  219   1.542   0.259   1.821
   68SOL    HW2  220   1.475   0.153   1.717
   69SOL     OW  221   0.614   0.122   0.117
   69SOL    HW1  222   0.712   0.100   0.124
   69SOL    HW2  223   0.583   0.105   0.024
   70SOL     OW  224   0.781   0.264   1.749
   70SOL    HW1  225   0.848   0.203   1.792
   70SOL    HW2  226   0.708   0.283   1.814
   71SOL     OW  227   0.888   1.514   1.195
   71SOL    HW1  228   0.865   1.489   1.101
   71SOL    HW2  229   0.949   1.445   1.234
   72SOL     OW  230   1.351   0.590   1.433
   72SOL    HW1  231   1.379   0.547   1.518
   72SOL    HW2  232   1.376   0.686   1.434
   73SOL     OW  233   0.803   1.402   0.924
   73SOL    HW1  234   0.893   1.416   0.882
   73SOL    HW2  235   0.732   1.404   0.853
   74SOL     OW  236   0.922   0.503   0.899
   74SOL    HW1  237   0.897   0.494   0.803
   74SOL    HW2  238   0.970   0.421   0.930
   75SOL     OW  239   0.539   0.064   0.512
   75SOL    HW1  240   0.458   0.065   0.570
   75SOL    HW2  241   0.542   0.147   0.457
   76SOL     OW  242   1.434   1.188   0.041
   76SOL    HW1  243   1.466   1.112   0.098
   76SOL    HW2  244   1.342   1.215   0.071
   77SOL     OW  245   0.297   0.035   0.171
   77SOL    HW1  246   0.346   0.119   0.150
   77SOL    HW2  247   0.359  -0.030   0.216
   78SOL     OW  248   0.935   0.236   0.480
   78SOL    HW1  249   0.887   0.277   0.402
   78SOL    HW2  250   1.034   0.234   0.461
   79SOL     OW  251   1.076   0.683   1.464
   79SOL    HW1  252   0.996   0.622   1.467
   79SOL    HW2  253   1.157   0.630   1.440
   80SOL     OW  254   1.227   1.570   0.793
   80SOL    HW1  255   1.248   1.644   0.728
   80SOL    HW2  256   1.295   1.570   0.866
   81SOL     OW  257   0.459   1.152   0.741
   81SOL    HW1  258   0.388   1.125   0.806
   81SOL    HW2  259   0.433   1.124   0.648
   82SOL     OW  260   1.271   1.797   0.591
   82SOL    HW1  261   1.315   1.861   0.527
   82SOL    HW2  262   1.221   1.849   0.661
   83SOL     OW  263   1.032   0.549   0.016
   83SOL    HW1  264   0.991   0.631  -0.023
   83SOL    HW2  265   1.096   0.575   0.089
   84SOL     OW  266   0.078   0.556   1.386
   84SOL    HW1  267   0.170   0.555   1.345
   84SOL    HW2  268   0.072   0.630   1.453
   85SOL     OW  269   0.561   0.222   1.147
   85SOL    HW1  270   0.599   0.138   1.184
   85SOL    HW2  271   0.473   0.241   1.191
   86SOL     OW  272   0.866   0.454   0.642
   86SOL    HW1  273   0.834   0.526   0.580
   86SOL    HW2  274   0.890   0.373   0.589
   87SOL     OW  275   1.017   0.039   0.753
   87SOL    HW1  276   0.945   0.044   0.684
   87SOL    HW2  277   0.993  -0.030   0.822
   88SOL     OW  278   1.429   1.173   0.867
   88SOL    HW1  279   1.374   1.089   0.860
   88SOL    HW2  280   1.455   1.202   0.775
   89SOL     OW  281   1.466   0.590   0.992
   89SOL    HW1  282   1.436   0.495   0.999
   89SOL    HW2  283   1.539   0.606   1.058
   90SOL     OW  284   1.857   0.833   0.377
   90SOL    HW1  285   1.899   0.769   0.441
   90SOL    HW2  286   1.819   0.782   0.299
   91SOL     OW  287   0.488   1.385   0.174
   91SOL    HW1  288   0.401   1.370   0.221
   91SOL    HW2  289   0.471   1.411   0.079
   92SOL     OW  290   1.664   1.280   0.657
   92SOL    HW1  291   1.763   1.288   0.671
   92SOL    HW2  292   1.619   1.364   0.688
   93SOL     OW  293   1.390   0.575   0.078
   93SOL    HW1  294   1.336   0.554   0.159
   93SOL    HW2  295   1.481   0.534   0.087
   94SOL     OW  296   0.527   0.256   0.328
   94SOL    HW1  297   0.554   0.197   0.253
   94SOL    HW2  298   0.527   0.351   0.297
   95SOL     OW  299   1.754   1.223   1.588
   95SOL    HW1  300   1.845   1.184   1.575
   95SOL    HW2  301   1.762   1.319   1.612
   96SOL     OW  302   1.064   1.347   1.340
   96SOL    HW1  303   0.984   1.324   1.395
   96SOL    HW2  304   1.147   1.321   1.389
   97SOL     OW  305   1.592   1.629   1.625
   97SOL    HW1  306   1.619   1.663   1.535
   97SOL    HW2  307   1.671   1.591   1.671
   98SOL     OW  308   1.111   1.195   1.100
   98SOL    HW1  309   1.071   1.239   1.181
   98SOL    HW2  310   1.070   1.232   1.017
   99SOL     OW  311   1.638   1.099   1.079
   99SOL    HW1  312   1.643   1.180   1.138
   99SOL    HW2  313   1.552   1.101   1.028
  100SOL     OW  314   0.915   0.089   1.402
  100SOL    HW1  315   0.940   0.069   1.307
  100SOL    HW2  316   0.987   0.145   1.444
  101SOL     OW  317   0.980   1.116   1.719
  101SOL    HW1  318   0.881   1.122   1.729
  101SOL    HW2  319   1.003   1.036   1.663
  102SOL     OW  320   0.705   1.050   0.368
  102SOL    HW1  321   0.691   1.057   0.467
  102SOL    HW2  322   0.789   0.999   0.350
  103SOL     OW  323   0.410   0.813   1.251
  103SOL    HW1  324   0.496   0.825   1.301
  103SOL    HW2  325   0.368   0.726   1.278
  104SOL     OW  326   1.274   0.386   1.262
  104SOL    HW1  327   1.295   0.460   1.326
  104SOL    HW2  328   1.185   0.403   1.219
  105SOL     OW  329   0.064   1.564   1.331
  105SOL    HW1  330   0.018   1.646   1.297
  105SOL    HW2  331   0.162   1.583   1.340
  106SOL     OW  332   0.367   1.100   0.501
  106SOL    HW1  333   0.360   1.183   0.445
  106SOL    HW2  334   0.371   1.020   0.441
  107SOL     OW  335   0.566   0.537   0.865
  107SOL    HW1  336   0.578   0.603   0.791
  107SOL    HW2  337   0.612   0.571   0.948
  108SOL     OW  338   1.252   1.348   0.388
  108SOL    HW1  339   1.302   1.425   0.428
  108SOL    HW2  340   1.157   1.350   0.420
  109SOL     OW  341   1.272   1.445   1.142
  109SOL    HW1  342   1.319   1.458   1.229
  109SOL    HW2  343   1.206   1.371   1.151
  110SOL     OW  344   1.582   0.639   0.472
  110SOL    HW1  345   1.551   0.700   0.545
  110SOL    HW2  346   1.632   0.691   0.403
  111SOL     OW  347   0.354   1.510   1.329
  111SOL    HW1  348   0.333   1.466   1.242
  111SOL    HW2  349   0.451   1.536   1.332
  112SOL     OW  350   0.402   0.751   1.598
  112SOL    HW1  351   0.470   0.806   1.551
  112SOL    HW2  352   0.442   0.663   1.625
  113SOL     OW  353   1.587   0.779   1.670
  113SOL    HW1  354   1.495   0.817   1.665
  113SOL    HW2  355   1.647   0.826   1.605
  114SOL     OW  356   1.013   0.105   1.770
  114SOL    HW1  357   1.019   0.190   1.718
  114SOL    HW2  358   1.045   0.029   1.713
  115SOL     OW  359   0.504   0.050   1.740
  115SOL    HW1  360   0.462  -0.007   1.670
  115SOL    HW2  361   0.438   0.119   1.772
  116SOL     OW  362   0.573   0.870   1.029
  116SOL    HW1  363   0.617   0.959   1.020
  116SOL    HW2  364   0.510   0.870   1.106
  117SOL     OW  365   1.360   0.862   1.045
  117SOL    HW1  366   1.285   0.862   0.979
  117SOL    HW2  367   1.397   0.770   1.054
  118SOL     OW  368   1.209   0.525   0.275
  118SOL    HW1  369   1.222   0.441   0.329
  118SOL    HW2  370   1.180   0.599   0.335
  119SOL     OW  371   0.307   0.213   1.231
  119SOL    HW1  372   0.284   0.250   1.321
  119SOL    HW2  373   0.277   0.118   1.225
  120SOL     OW  374   0.037   1.310   1.282
  120SOL    HW1  375   0.090   1.261   1.350
  120SOL    HW2  376   0.059   1.408   1.287
  121SOL     OW  377   0.732   0.634   1.064
  121SOL    HW1  378   0.791   0.608   0.988
  121SOL    HW2  379   0.704   0.730   1.053
  122SOL     OW  380   1.728   0.935   1.854
  122SOL    HW1  381   1.682   0.928   1.765
  122SOL    HW2  382   1.666   0.979   1.920
  123SOL     OW  383   0.307   0.063   0.618
  123SOL    HW1  384   0.296   0.157   0.651
  123SOL    HW2  385   0.302   0.000   0.695
  124SOL     OW  386   1.622   0.367   0.374
  124SOL    HW1  387   1.624   0.291   0.438
  124SOL    HW2  388   1.574   0.444   0.414
  125SOL     OW  389   1.023   0.766   0.966
  125SOL    HW1  390   1.038   0.787   1.062
  125SOL    HW2  391   0.993   0.671   0.957
  126SOL     OW  392   0.980   1.573   1.700
  126SOL    HW1  393   0.960   1.617   1.612
  126SOL    HW2  394   1.019   1.482   1.684
  127SOL     OW  395   1.859   1.518   1.605
  127SOL    HW1  396   1.873   1.545   1.510
  127SOL    HW2  397   1.942   1.540   1.658
  128SOL     OW  398   0.350   0.898   1.804
  128SOL    HW1  399   0.426   0.942   1.852
  128SOL    HW2  400   0.385   0.851   1.722
  129SOL     OW  401   1.540   0.274   0.125
  129SOL    HW1  402   1.479   0.199   0.148
  129SOL    HW2  403   1.562   0.326   0.208
  130SOL     OW  404   1.303   0.838   0.042
  130SOL    HW1  405   1.337   0.745   0.057
  130SOL    HW2  406   1.321   0.865  -0.053
  131SOL     OW  407   1.068   1.333   0.849
  131SOL    HW1  408   1.075   1.249   0.794
  131SOL    HW2  409   1.130   1.402   0.813
  132SOL     OW  410   0.319   0.810   0.949
  132SOL    HW1  411   0.412   0.846   0.954
  132SOL    HW2  412   0.313   0.725   1.001
  133SOL     OW  413   0.339   0.509   1.006
  133SOL    HW1  414   0.287   0.426   0.989
  133SOL    HW2  415   0.416   0.514   0.942
  134SOL     OW  416   1.138   0.380   1.678
  134SOL    HW1  417   1.093   0.443   1.742
  134SOL    HW2  418   1.231   0.411   1.661
  135SOL     OW  419   1.160   0.207   1.477
  135SOL    HW1  420   1.160   0.271   1.554
  135SOL    HW2  421   1.188   0.255   1.394
  136SOL     OW  422   0.008   1.326   0.200
  136SOL    HW1  423  -0.085   1.347   0.169
  136SOL    HW2  424   0.018   1.227   0.213
  137SOL     OW  425   0.088   1.801   0.927
  137SOL    HW1  426   0.046   1.715   0.900
  137SOL    HW2  427   0.182   1.804   0.893
  138SOL     OW  428   0.504   1.568   0.910
  138SOL    HW1  429   0.570   1.642   0.919
  138SOL    HW2  430   0.548   1.489   0.868
  139SOL     OW  431   1.002   0.796   1.238
  139SOL    HW1  432   1.043   0.764   1.324
  139SOL    HW2  433   0.906   0.769   1.235
  140SOL     OW  434   0.040   0.544   1.114
  140SOL    HW1  435   0.125   0.511   1.073
  140SOL    HW2  436   0.053   0.559   1.212
  141SOL     OW  437   0.189   0.520   1.722
  141SOL    HW1  438   0.248   0.480   1.652
  141SOL    HW2  439   0.131   0.591   1.681
  142SOL     OW  440   1.369   0.950   1.660
  142SOL    HW1  441   1.408   1.039   1.680
  142SOL    HW2  442   1.379   0.930   1.563
  143SOL     OW  443   0.815   0.572   0.325
  143SOL    HW1  444   0.822   0.483   0.279
  143SOL    HW2  445   0.721   0.606   0.317
  144SOL     OW  446   1.657   0.604   1.206
  144SOL    HW1  447   1.619   0.535   1.268
  144SOL    HW2  448   1.739   0.568   1.162
  145SOL     OW  449   0.252   1.564   1.744
  145SOL    HW1  450   0.222   1.621   1.820
  145SOL    HW2  451   0.245   1.467   1.770
  146SOL     OW  452   0.671   0.464   1.269
  146SOL    HW1  453   0.637   0.375   1.239
  146SOL    HW2  454   0.697   0.518   1.189
  147SOL     OW  455   0.930   1.678   1.465
  147SOL    HW1  456   0.906   1.660   1.370
  147SOL    HW2  457   0.960   1.772   1.475
  148SOL     OW  458   0.473   0.500   0.191
  148SOL    HW1  459   0.534   0.580   0.195
  148SOL    HW2  460   0.378   0.531   0.198
  149SOL     OW  461   0.159   1.137   1.466
  149SOL    HW1  462   0.181   1.076   1.542
  149SOL    HW2  463   0.169   1.088   1.380
  150SOL     OW  464   1.347   1.059   1.234
  150SOL    HW1  465   1.371   0.996   1.160
  150SOL    HW2  466   1.257   1.099   1.216
  151SOL     OW  467   1.302   0.855   0.309
  151SOL    HW1  468   1.216   0.824   0.351
  151SOL    HW2  469   1.298   0.841   0.210
  152SOL     OW  470   1.759   1.747   1.154
  152SOL    HW1  471   1.820   1.777   1.081
  152SOL    HW2  472   1.721   1.658   1.132
  153SOL     OW  473   1.252   1.731   1.128
  153SOL    HW1  474   1.336   1.736   1.074
  153SOL    HW2  475   1.229   1.635   1.146
  154SOL     OW  476   0.083   1.258   1.022
  154SOL    HW1  477   0.078   1.257   1.122
  154SOL    HW2  478   0.000   1.217   0.984
  155SOL     OW  479   0.688   1.662   1.716
  155SOL    HW1  480   0.632   1.743   1.725
  155SOL    HW2  481   0.740   1.666   1.630
  156SOL     OW  482   0.903   0.086   0.133
  156SOL    HW1  483   0.954   0.087   0.047
  156SOL    HW2  484   0.959   0.044   0.204
  157SOL     OW  485   1.726   0.135   0.523
  157SOL    HW1  486   1.799   0.118   0.456
  157SOL    HW2  487   1.695   0.048   0.561
  158SOL     OW  488   1.388   1.573   0.477
  158SOL    HW1  489   1.455   1.585   0.403
  158SOL    HW2  490   1.348   1.662   0.500
  159SOL     OW  491   0.130   1.794   1.851
  159SOL    HW1  492   0.089   1.720   1.904
  159SOL    HW2  493   0.194   1.845   1.909
  160SOL     OW  494   1.280   0.927   0.672
  160SOL    HW1  495   1.340   0.846   0.674
  160SOL    HW2  496   1.320   0.996   0.612
  161SOL     OW  497   0.830   1.273   1.422
  161SOL    HW1  498   0.825   1.306   1.517
  161SOL    HW2  499   0.744   1.292   1.376
  162SOL     OW  500   0.672   1.616   0.154
  162SOL    HW1  501   0.681   1.626   0.055
  162SOL    HW2  502   0.632   1.527   0.175
  163SOL     OW  503   1.650   1.720   1.394
  163SOL    HW1  504   1.703   1.730   1.310
  163SOL    HW2  505   1.623   1.810   1.428
  164SOL     OW  506   1.841   0.175   0.963
  164SOL    HW1  507   1.880   0.090   0.927
  164SOL    HW2  508   1.743   0.177   0.944
  165SOL     OW  509   0.263   0.326   0.720
  165SOL    HW1  510   0.184   0.377   0.686
  165SOL    HW2  511   0.254   0.311   0.818
  166SOL     OW  512   1.194   1.612   0.031
  166SOL    HW1  513   1.200   1.519   0.068
  166SOL    HW2  514   1.135   1.612  -0.049
  167SOL     OW  515   0.822   1.002   1.372
  167SOL    HW1  516   0.862   1.001   1.280
  167SOL    HW2  517   0.832   1.094   1.412
  168SOL     OW  518   0.916   0.910   0.291
  168SOL    HW1  519   0.979   0.948   0.223
  168SOL    HW2  520   0.956   0.827   0.330
  169SOL     OW  521   1.504   1.607   0.044
  169SOL    HW1  522   1.412   1.644   0.051
  169SOL    HW2  523   1.542   1.627  -0.046
  170SOL     OW  524   0.372   1.288   1.490
  170SOL    HW1  525   0.359   1.381   1.456
  170SOL    HW2  526   0.288   1.236   1.477
  171SOL     OW  527   1.614   1.292   1.289
  171SOL    HW1  528   1.674   1.295   1.369
  171SOL    HW2  529   1.539   1.356   1.302
  172SOL     OW  530   1.039   1.098   0.696
  172SOL    HW1  531   0.969   1.051   0.750
  172SOL    HW2  532   1.098   1.030   0.653
  173SOL     OW  533   1.014   0.236   0.971
  173SOL    HW1  534   1.006   0.200   0.878
  173SOL    HW2  535   1.012   0.160   1.036
  174SOL     OW  536   0.590   1.487   0.491
  174SOL    HW1  537   0.632   1.429   0.421
  174SOL    HW2  538   0.546   1.566   0.447
  175SOL     OW  539   1.709   0.385   1.381
  175SOL    HW1  540   1.782   0.454   1.385
  175SOL    HW2  541   1.737   0.310   1.322
  176SOL     OW  542   0.255   1.348   0.290
  176SOL    HW1  543   0.159   1.349   0.263
  176SOL    HW2  544   0.267   1.401   0.374
  177SOL     OW  545   0.105   1.013   1.726
  177SOL    HW1  546   0.028   0.980   1.780
  177SOL    HW2  547   0.190   0.983   1.768
  178SOL     OW  548   0.672   0.203   1.489
  178SOL    HW1  549   0.762   0.187   1.449
  178SOL    HW2  550   0.680   0.208   1.588
  179SOL     OW  551   0.075   0.345   0.033
  179SOL    HW1  552  -0.017   0.317   0.004
  179SOL    HW2  553   0.106   0.422  -0.023
  180SOL     OW  554   1.440   0.856   1.398
  180SOL    HW1  555   1.383   0.908   1.335
  180SOL    HW2  556   1.536   0.868   1.374
  181SOL     OW  557   0.072   0.166   0.318
  181SOL    HW1  558   0.055   0.249   0.264
  181SOL    HW2  559   0.162   0.129   0.296
  182SOL     OW  560   1.183   1.335   0.119
  182SOL    HW1  561   1.084   1.324   0.121
  182SOL    HW2  562   1.217   1.350   0.212
  183SOL     OW  563   0.613   0.842   1.431
  183SOL    HW1  564   0.669   0.923   1.414
  183SOL    HW2  565   0.672   0.762   1.434
  184SOL     OW  566   1.493   1.767   0.959
  184SOL    HW1  567   1.526   1.831   0.890
  184SOL    HW2  568   1.559   1.761   1.034
  185SOL     OW  569   0.716   0.565   1.708
  185SOL    HW1  570   0.735   0.630   1.782
  185SOL    HW2  571   0.776   0.485   1.717
  186SOL     OW  572   1.450   1.220   1.633
  186SOL    HW1  573   1.441   1.210   1.732
  186SOL    HW2  574   1.546   1.213   1.607
  187SOL     OW  575   0.390   1.741   1.560
  187SOL    HW1  576   0.299   1.782   1.558
  187SOL    HW2  577   0.383   1.647   1.592
  188SOL     OW  578   1.674   0.883   1.254
  188SOL    HW1  579   1.647   0.794   1.217
  188SOL    HW2  580   1.675   0.951   1.181
  189SOL     OW  581   1.225   0.325   0.449
  189SOL    HW1  582   1.290   0.251   0.438
  189SOL    HW2  583   1.245   0.375   0.533
  190SOL     OW  584   0.594   0.745   0.652
  190SOL    HW1  585   0.644   0.830   0.633
  190SOL    HW2  586   0.506   0.747   0.604
  191SOL     OW  587   1.777   0.342   1.642
  191SOL    HW1  588   1.760   0.373   1.548
  191SOL    HW2  589   1.693   0.305   1.680
  192SOL     OW  590   1.730   0.934   1.517
  192SOL    HW1  591   1.768   1.025   1.532
  192SOL    HW2  592   1.722   0.917   1.418
  193SOL     OW  593   0.859   1.374   0.016
  193SOL    HW1  594   0.813   1.389   0.104
  193SOL    HW2  595   0.903   1.459  -0.014
  194SOL     OW  596   0.661   1.790   0.953
  194SOL    HW1  597   0.615   1.878   0.940
  194SOL    HW2  598   0.760   1.802   0.946
  195SOL     OW  599   0.859   0.956   0.861
  195SOL    HW1  600   0.913   0.887   0.909
  195SOL    HW2  601   0.827   1.025   0.927
  196SOL     OW  602   1.083   0.984   0.087
  196SOL    HW1  603   1.060   1.037   0.005
  196SOL    HW2  604   1.164   0.928   0.068
  197SOL     OW  605   1.861   1.569   0.851
  197SOL    HW1  606   1.790   1.557   0.781
  197SOL    HW2  607   1.862   1.490   0.911
  198SOL     OW  608   0.221   1.314   1.844
  198SOL    HW1  609   0.156   1.241   1.823
  198SOL    HW2  610   0.225   1.328   1.942
  199SOL     OW  611   0.079   1.240   0.653
  199SOL    HW1  612   0.078   1.193   0.741
  199SOL    HW2  613   0.161   1.212   0.602
  200SOL     OW  614   0.672   1.391   1.624
  200SOL    HW1  615   0.594   1.341   1.662
  200SOL    HW2  616   0.669   1.486   1.655
  201SOL     OW  617   1.824   0.192   1.227
  201SOL    HW1  618   1.820   0.102   1.271
  201SOL    HW2  619   1.827   0.181   1.128
  202SOL     OW  620   0.428   0.424   0.520
  202SOL    HW1  621   0.458   0.352   0.458
  202SOL    HW2  622   0.389   0.384   0.603
  203SOL     OW  623   1.705   1.487   1.104
  203SOL    HW1  624   1.612   1.462   1.077
  203SOL    HW2  625   1.731   1.437   1.186
  204SOL     OW  626   0.317   0.547   1.280
  204SOL    HW1  627   0.355   0.488   1.352
  204SOL    HW2  628   0.357   0.521   1.192
  205SOL     OW  629   0.812   1.586   0.687
  205SOL    HW1  630   0.844   1.596   0.593
  205SOL    HW2  631   0.733   1.524   0.689
  206SOL     OW  632   1.424   0.214   1.112
  206SOL    HW1  633   1.476   0.149   1.167
  206SOL    HW2  634   1.375   0.277   1.173
  207SOL     OW  635   1.001   0.034   1.154
  207SOL    HW1  636   0.938  -0.038   1.123
  207SOL    HW2  637   1.094  -0.002   1.154
  208SOL     OW  638   0.770   1.330   0.301
  208SOL    HW1  639   0.724   1.243   0.318
  208SOL    HW2  640   0.861   1.327   0.342
  209SOL     OW  641   0.618   1.567   1.284
  209SOL    HW1  642   0.613   1.649   1.341
  209SOL    HW2  643   0.707   1.564   1.239
  210SOL     OW  644   1.352   0.052   0.168
  210SOL    HW1  645   1.387   0.011   0.084
  210SOL    HW2  646   1.262   0.014   0.188
  211SOL     OW  647   1.300   0.453   0.691
  211SOL    HW1  648   1.241   0.533   0.695
  211SOL    HW2  649   1.315   0.418   0.784
  212SOL     OW  650   1.593   0.221   0.882
  212SOL    HW1  651   1.509   0.220   0.936
  212SOL    HW2  652   1.595   0.304   0.826
  213SOL     OW  653   0.039   1.077   0.300
  213SOL    HW1  654   0.138   1.066   0.291
  213SOL    HW2  655  -0.001   0.991   0.332
  214SOL     OW  656   0.875   1.646   0.337
  214SOL    HW1  657   0.798   1.611   0.283
  214SOL    HW2  658   0.843   1.717   0.399
  215SOL     OW  659   0.230   0.628   1.975
  215SOL    HW1  660   0.137   0.626   2.012
  215SOL    HW2  661   0.231   0.589   1.883
  216SOL     OW  662   0.225   0.275   2.858
  216SOL    HW1  663   0.260   0.258   2.950
  216SOL    HW2  664   0.137   0.230   2.846
  217SOL     OW  665   0.019   0.368   2.509
  217SOL    HW1  666  -0.063   0.411   2.548
  217SOL    HW2  667  -0.009   0.295   2.446
  218SOL     OW  668   0.569   1.275   3.027
  218SOL    HW1  669   0.476   1.268   2.990
  218SOL    HW2  670   0.580   1.364   3.071
  219SOL     OW  671   1.555   1.511   2.565
  219SOL    HW1  672   1.498   1.495   2.646
  219SOL    HW2  673   1.496   1.521   2.485
  220SOL     OW  674   1.135   0.703   2.579
  220SOL    HW1  675   1.192   0.781   2.554
  220SOL    HW2  676   1.075   0.729   2.655
  221SOL     OW  677   1.755   0.607   2.093
  221SOL    HW1  678   1.743   0.594   1.994
  221SOL    HW2  679   1.725   0.526   2.142
  222SOL     OW  680   0.768   1.144   2.885
  222SOL    HW1  681   0.690   1.161   2.945
  222SOL    HW2  682   0.802   1.231   2.849
  223SOL     OW  683   0.850   0.798   3.685
  223SOL    HW1  684   0.846   0.874   3.750
  223SOL    HW2  685   0.872   0.834   3.594
  224SOL     OW  686   0.685   1.012   2.527
  224SOL    HW1  687   0.754   0.996   2.597
  224SOL    HW2  688   0.612   1.069   2.565
  225SOL     OW  689   0.686   1.161   3.665
  225SOL    HW1  690   0.746   1.240   3.679
  225SOL    HW2  691   0.600   1.192   3.624
  226SOL     OW  692   0.335   1.435   2.923
  226SOL    HW1  693   0.257   1.404   2.870
  226SOL    HW2  694   0.393   1.493   2.866
  227SOL     OW  695   1.460   1.505   3.201
  227SOL    HW1  696   1.484   1.599   3.227
  227SOL    HW2  697   1.444   1.451   3.283
  228SOL     OW  698   0.438   0.392   3.361
  228SOL    HW1  699   0.520   0.336   3.370
  228SOL    HW2  700   0.357   0.334   3.365
  229SOL     OW  701   1.603   0.447   2.599
  229SOL    HW1  702   1.529   0.493   2.549
  229SOL    HW2  703   1.654   0.515   2.652
  230SOL     OW  704   0.231   1.713   2.345
  230SOL    HW1  705   0.265   1.790   2.399
  230SOL    HW2  706   0.275   1.713   2.255
  231SOL     OW  707   1.127   1.341   3.552
  231SOL    HW1  708   1.174   1.341   3.640
  231SOL    HW2  709   1.079   1.254   3.541
  232SOL     OW  710   0.230   1.434   2.400
  232SOL    HW1  711   0.204   1.530   2.400
  232SOL    HW2  712   0.159   1.380   2.445
  233SOL     OW  713   0.240   1.091   2.748
  233SOL    HW1  714   0.254   1.007   2.800
  233SOL    HW2  715   0.185   1.155   2.803
  234SOL     OW  716   0.620   1.786   3.301
  234SOL    HW1  717   0.528   1.769   3.336
  234SOL    HW2  718   0.648   1.878   3.327
  235SOL     OW  719   0.606   0.964   1.985
  235SOL    HW1  720   0.613   1.048   1.931
  235SOL    HW2  721   0.652   0.977   2.073
  236SOL     OW  722   1.594   0.114   3.342
  236SOL    HW1  723   1.576   0.181   3.270
  236SOL    HW2  724   1.591   0.160   3.431
  237SOL     OW  725   0.122   0.643   2.425
  237SOL    HW1  726   0.077   0.555   2.442
  237SOL    HW2  727   0.121   0.697   2.509
  238SOL     OW  728   1.842   1.767   2.221
  238SOL    HW1  729   1.896   1.738   2.301
  238SOL    HW2  730   1.872   1.857   2.192
  239SOL     OW  731   0.027   1.596   1.979
  239SOL    HW1  732   0.008   1.500   2.000
  239SOL    HW2  733  -0.006   1.654   2.054
  240SOL     OW  734   1.689   0.922   2.474
  240SOL    HW1  735   1.784   0.893   2.482
  240SOL    HW2  736   1.681   0.987   2.399
  241SOL     OW  737   1.641   1.108   2.294
  241SOL    HW1  738   1.727   1.110   2.242
  241SOL    HW2  739   1.655   1.155   2.382
  242SOL     OW  740   0.113   0.737   3.459
  242SOL    HW1  741   0.201   0.724   3.504
  242SOL    HW2  742   0.100   0.834   3.437
  243SOL     OW  743   0.613   1.365   2.588
  243SOL    HW1  744   0.564   1.278   2.597
  243SOL    HW2  745   0.590   1.408   2.501
  244SOL     OW  746   1.293   1.228   3.285
  244SOL    HW1  747   1.330   1.155   3.227
  244SOL    HW2  748   1.345   1.233   3.370
  245SOL     OW  749   0.809   0.004   2.364
  245SOL    HW1  750   0.849   0.095   2.355
  245SOL    HW2  751   0.709   0.012   2.370
  246SOL     OW  752   0.197   0.976   3.126
  246SOL    HW1  753   0.286   0.931   3.112
  246SOL    HW2  754   0.124   0.911   3.107
  247SOL     OW  755   1.525   0.999   2.052
  247SOL    HW1  756   1.462   0.923   2.065
  247SOL    HW2  757   1.573   1.017   2.138
  248SOL     OW  758   1.187   1.792   3.478
  248SOL    HW1  759   1.211   1.852   3.402
  248SOL    HW2  760   1.194   1.697   3.448
  249SOL     OW  761   0.317   0.251   3.663
  249SOL    HW1  762   0.388   0.322   3.669
  249SOL    HW2  763   0.229   0.290   3.691
  250SOL     OW  764   1.466   1.417   2.815
  250SOL    HW1  765   1.407   1.423   2.895
  250SOL    HW2  766   1.451   1.329   2.769
  251SOL     OW  767   1.667   1.714   2.434
  251SOL    HW1  768   1.626   1.691   2.346
  251SOL    HW2  769   1.649   1.640   2.499
  252SOL     OW  770   0.598   0.729   2.132
  252SOL    HW1  771   0.622   0.798   2.064
  252SOL    HW2  772   0.520   0.762   2.186
  253SOL     OW  773   1.281   0.345   2.806
  253SOL    HW1  774   1.195   0.295   2.793
  253SOL    HW2  775   1.343   0.291   2.862
  254SOL     OW  776   1.576   1.662   2.169
  254SOL    HW1  777   1.665   1.708   2.172
  254SOL    HW2  778   1.555   1.638   2.074
  255SOL     OW  779   0.807   0.605   3.327
  255SOL    HW1  780   0.760   0.602   3.416
  255SOL    HW2  781   0.756   0.550   3.261
  256SOL     OW  782   1.394   0.469   3.536
  256SOL    HW1  783   1.374   0.512   3.624
  256SOL    HW2  784   1.472   0.407   3.545
  257SOL     OW  785   0.973   0.890   3.434
  257SOL    HW1  786   1.019   0.806   3.405
  257SOL    HW2  787   0.917   0.924   3.359
  258SOL     OW  788   0.991   0.410   3.104
  258SOL    HW1  789   0.914   0.444   3.158
  258SOL    HW2  790   0.957   0.359   3.025
  259SOL     OW  791   1.041   0.701   2.291
  259SOL    HW1  792   1.067   0.697   2.387
  259SOL    HW2  793   0.956   0.650   2.277
  260SOL     OW  794   0.076   0.811   2.651
  260SOL    HW1  795   0.175   0.799   2.660
  260SOL    HW2  796   0.052   0.906   2.672
  261SOL     OW  797   0.130   1.821   3.433
  261SOL    HW1  798   0.120   1.806   3.532
  261SOL    HW2  799   0.044   1.857   3.397
  262SOL     OW  800   0.865   0.348   2.057
  262SOL    HW1  801   0.924   0.411   2.008
  262SOL    HW2  802   0.884   0.254   2.028
  263SOL     OW  803   1.719   0.585   3.693
  263SOL    HW1  804   1.693   0.674   3.657
  263SOL    HW2  805   1.717   0.517   3.620
  264SOL     OW  806   1.362   1.144   2.407
  264SOL    HW1  807   1.445   1.115   2.359
  264SOL    HW2  808   1.313   1.211   2.351
  265SOL     OW  809   0.550   0.196   2.747
  265SOL    HW1  810   0.545   0.191   2.847
  265SOL    HW2  811   0.552   0.292   2.718
  266SOL     OW  812   1.008   1.456   2.339
  266SOL    HW1  813   0.962   1.528   2.287
  266SOL    HW2  814   1.004   1.476   2.437
  267SOL     OW  815   0.351   1.801   2.715
  267SOL    HW1  816   0.401   1.715   2.721
  267SOL    HW2  817   0.416   1.878   2.712
  268SOL     OW  818   1.795   1.066   2.735
  268SOL    HW1  819   1.733   1.051   2.659
  268SOL    HW2  820   1.743   1.077   2.820
  269SOL     OW  821   1.227   1.550   3.368
  269SOL    HW1  822   1.233   1.473   3.432
  269SOL    HW2  823   1.175   1.524   3.288
  270SOL     OW  824   0.321   0.943   2.104
  270SOL    HW1  825   0.403   0.982   2.062
  270SOL    HW2  826   0.294   0.861   2.055
  271SOL     OW  827   1.458   0.735   2.590
  271SOL    HW1  828   1.453   0.670   2.665
  271SOL    HW2  829   1.538   0.794   2.603
  272SOL     OW  830   0.461   1.266   3.589
  272SOL    HW1  831   0.411   1.267   3.503
  272SOL    HW2  832   0.398   1.248   3.665
  273SOL     OW  833   1.111   1.776   2.099
  273SOL    HW1  834   1.051   1.714   2.149
  273SOL    HW2  835   1.142   1.732   2.014
  274SOL     OW  836   0.202   0.285   3.360
  274SOL    HW1  837   0.122   0.345   3.347
  274SOL    HW2  838   0.192   0.236   3.446
  275SOL     OW  839   1.632   1.377   1.943
  275SOL    HW1  840   1.600   1.471   1.933
  275SOL    HW2  841   1.556   1.314   1.931
  276SOL     OW  842   0.464   1.743   2.185
  276SOL    HW1  843   0.497   1.782   2.271
  276SOL    HW2  844   0.540   1.736   2.120
  277SOL     OW  845   1.400   0.107   2.288
  277SOL    HW1  846   1.376   0.070   2.198
  277SOL    HW2  847   1.499   0.123   2.292
  278SOL     OW  848   0.249   1.785   3.103
  278SOL    HW1  849   0.306   1.720   3.153
  278SOL    HW2  850   0.233   1.752   3.010
  279SOL     OW  851   0.940   1.698   2.766
  279SOL    HW1  852   1.020   1.641   2.787
  279SOL    HW2  853   0.891   1.658   2.689
  280SOL     OW  854   0.382   0.700   2.342
  280SOL    HW1  855   0.427   0.610   2.339
  280SOL    HW2  856   0.288   0.689   2.375
  281SOL     OW  857   1.547   0.222   3.591
  281SOL    HW1  858   1.542   0.259   3.683
  281SOL    HW2  859   1.475   0.153   3.579
  282SOL     OW  860   0.614   0.122   1.979
  282SOL    HW1  861   0.712   0.100   1.986
  282SOL    HW2  862   0.583   0.105   1.886
  283SOL     OW  863   0.781   0.264   3.611
  283SOL    HW1  864   0.848   0.203   3.654
  283SOL    HW2  865   0.708   0.283   3.676
  284SOL     OW  866   0.888   1.514   3.057
  284SOL    HW1  867   0.865   1.489   2.963
  284SOL    HW2  868   0.949   1.445   3.096
  285SOL     OW  869   1.351   0.590   3.295
  285SOL    HW1  870   1.379   0.547   3.380
  285SOL    HW2  871   1.376   0.686   3.296
  286SOL     OW  872   0.803   1.402   2.786
  286SOL    HW1  873   0.893   1.416   2.744
  286SOL    HW2  874   0.732   1.404   2.715
  287SOL     OW  875   0.922   0.503   2.761
  287SOL    HW1  876   0.897   0.494   2.665
  287SOL    HW2  877   0.970   0.421   2.792
  288SOL     OW  878   0.539   0.064   2.374
  288SOL    HW1  879   0.458   0.065   2.432
  288SOL    HW2  880   0.542   0.147   2.319
  289SOL     OW  881   1.434   1.188   1.903
  289SOL    HW1  882   1.466   1.112   1.960
  289SOL    HW2  883   1.342   1.215   1.933
  290SOL     OW  884   0.297   0.035   2.033
  290SOL    HW1  885   0.346   0.119   2.012
  290SOL    HW2  886   0.359  -0.030   2.078
  291SOL     OW  887   0.935   0.236   2.342
  291SOL    HW1  888   0.887   0.277   2.264
  291SOL    HW2  889   1.034   0.234   2.323
  292SOL     OW  890   1.076   0.683   3.326
  292SOL    HW1  891   0.996   0.622   3.329
  292SOL    HW2  892   1.157   0.630   3.302
  293SOL     OW  893   1.227   1.570   2.655
  293SOL    HW1  894   1.248   1.644   2.590
  293SOL    HW2  895   1.295   1.570   2.728
  294SOL     OW  896   0.459   1.152   2.603
  294SOL    HW1  897   0.388   1.125   2.668
  294SOL    HW2  898   0.433   1.124   2.510
  295SOL     OW  899   1.271   1.797   2.453
  295SOL    HW1  900   1.315   1.861   2.389
  295SOL    HW2  901   1.221   1.849   2.523
  296SOL     OW  902   1.032   0.549   1.878
  296SOL    HW1  903   0.991   0.631   1.839
  296SOL    HW2  904   1.096   0.575   1.951
  297SOL     OW  905   0.078   0.556   3.248
  297SOL    HW1  906   0.170   0.555   3.207
  297SOL    HW2  907   0.072   0.630   3.315
  298SOL     OW  908   0.561   0.222   3.009
  298SOL    HW1  909   0.599   0.138   3.046
  298SOL    HW2  910   0.473   0.241   3.053
  299SOL     OW  911   0.866   0.454   2.504
  299SOL    HW1  912   0.834   0.526   2.442
  299SOL    HW2  913   0.890   0.373   2.451
  300SOL     OW  914   1.017   0.039   2.615
  300SOL    HW1  915   0.945   0.044   2.546
  300SOL    HW2  916   0.993  -0.030   2.684
  301SOL     OW  917   1.429   1.173   2.729
  301SOL    HW1  918   1.374   1.089   2.722
  301SOL    HW2  919   1.455   1.202   2.637
  302SOL     OW  920   1.466   0.590   2.854
  302SOL    HW1  921   1.436   0.495   2.861
  302SOL    HW2  922   1.539   0.606   2.920
  303SOL     OW  923   1.857   0.833   2.239
  303SOL    HW1  924   1.899   0.769   2.303
  303SOL    HW2  925   1.819   0.782   2.161
  304SOL     OW  926   0.488   1.385   2.036
  304SOL    HW1  927   0.401   1.370   2.083
  304SOL    HW2  928   0.471   1.411   1.941
  305SOL     OW  929   1.664   1.280   2.519
  305SOL    HW1  930   1.763   1.288   2.533
  305SOL    HW2  931   1.619   1.364   2.550
  306SOL     OW  932   1.390   0.575   1.940
  306SOL    HW1  933   1.336   0.554   2.021
  306SOL    HW2  934   1.481   0.534   1.949
  307SOL     OW  935   0.527   0.256   2.190
  307SOL    HW1  936   0.554   0.197   2.115
  307SOL    HW2  937   0.527   0.351   2.159
  308SOL     OW  938   1.754   1.223   3.450
  308SOL    HW1  939   1.845   1.184   3.437
  308SOL    HW2  940   1.762   1.319   3.474
  309SOL     OW  941   1.064   1.347   3.202
  309SOL    HW1  942   0.984   1.324   3.257
  309SOL    HW2  943   1.147   1.321   3.251
  310SOL     OW  944   1.592   1.629   3.487
  310SOL    HW1  945   1.619   1.663   3.397
  310SOL    HW2  946   1.671   1.591   3.533
  311SOL     OW  947   1.111   1.195   2.962
  311SOL    HW1  948   1.071   1.239   3.043
  311SOL    HW2  949   1.070   1.232   2.879
  312SOL     OW  950   1.638   1.099   2.941
  312SOL    HW1  951   1.643   1.180   3.000
  312SOL    HW2  952   1.552   1.101   2.890
  313SOL     OW  953   0.915   0.089   3.264
  313SOL    HW1  954   0.940   0.069   3.169
  313SOL    HW2  955   0.987   0.145   3.306
  314SOL     OW  956   0.980   1.116   3.581
  314SOL    HW1  957   0.881   1.122   3.591
  314SOL    HW2  958   1.003   1.036   3.525
  315SOL     OW  959   0.705   1.050   2.230
  315SOL    HW1  960   0.691   1.057   2.329
  315SOL    HW2  961   0.789   0.999   2.212
  316SOL     OW  962   0.410   0.813   3.113
  316SOL    HW1  963   0.496   0.825   3.163
  316SOL    HW2  964   0.368   0.726   3.140
  317SOL     OW  965   1.274   0.386   3.124
  317SOL    HW1  966   1.295   0.460   3.188
  317SOL    HW2  967   1.185   0.403   3.081
  318SOL     OW  968   0.064   1.564   3.193
  318SOL    HW1  969   0.018   1.646   3.159
  318SOL    HW2  970   0.162   1.583   3.202
  319SOL     OW  971   0.367   1.100   2.363
  319SOL    HW1  972   0.360   1.183   2.307
  319SOL    HW2  973   0.371   1.020   2.303
  320SOL     OW  974   0.566   0.537   2.727
  320SOL    HW1  975   0.578   0.603   2.653
  320SOL    HW2  976   0.612   0.571   2.810
  321SOL     OW  977   1.252   1.348   2.250
  321SOL    HW1  978   1.302   1.425   2.290
  321SOL    HW2  979   1.157   1.350   2.282
  322SOL     OW  980   1.272   1.445   3.004
  322SOL    HW1  981   1.319   1.458   3.091
  322SOL    HW2  982   1.206   1.371   3.013
  323SOL     OW  983   1.582   0.639   2.334
  323SOL    HW1  984   1.551   0.700   2.407
  323SOL    HW2  985   1.632   0.691   2.265
  324SOL     OW  986   0.354   1.510   3.191
  324SOL    HW1  987   0.333   1.466   3.104
  324SOL    HW2  988   0.451   1.536   3.194
  325SOL     OW  989   0.402   0.751   3.460
  325SOL    HW1  990   0.470   0.806   3.413
  325SOL    HW2  991   0.442   0.663   3.487
  326SOL     OW  992   1.587   0.779   3.532
  326SOL    HW1  993   1.495   0.817   3.527
  326SOL    HW2  994   1.647   0.826   3.467
  327SOL     OW  995   1.013   0.105   3.632
  327SOL    HW1  996   1.019   0.190   3.580
  327SOL    HW2  997   1.045   0.029   3.575
  328SOL     OW  998   0.504   0.050   3.602
  328SOL    HW1  999   0.462  -0.007   3.532
  328SOL    HW2 1000   0.438   0.119   3.634
  329SOL     OW 1001   0.573   0.870   2.891
  329SOL    HW1 1002   0.617   0.959   2.882
  329SOL    HW2 1003   0.510   0.870   2.968
  330SOL     OW 1004   1.360   0.862   2.907
  330SOL    HW1 1005   1.285   0.862   2.841
  330SOL    HW2 1006   1.397   0.770   2.916
  331SOL     OW 1007   1.209   0.525   2.137
  331SOL    HW1 1008   1.222   0.441   2.191
  331SOL    HW2 1009   1.180   0.599   2.197
  332SOL     OW 1010   0.307   0.213   3.093
  332SOL    HW1 1011   0.284   0.250   3.183
  332SOL    HW2 1012   0.277   0.118   3.087
  333SOL     OW 1013   0.037   1.310   3.144
  333SOL    HW1 1014   0.090   1.261   3.212
  333SOL    HW2 1015   0.059   1.408   3.149
  334SOL     OW 1016   0.732   0.634   2.926
  334SOL    HW1 1017   0.791   0.608   2.850
  334SOL    HW2 1018   0.704   0.730   2.915
  335SOL     OW 1019   1.728   0.935   3.716
  335SOL    HW1 1020   1.682   0.928   3.627
  335SOL    HW2 1021   1.666   0.979   3.782
  336SOL     OW 1022   0.307   0.063   2.480
  336SOL    HW1 1023   0.296   0.157   2.513
  336SOL    HW2 1024   0.302   0.000   2.557
  337SOL     OW 1025   1.622   0.367   2.236
  337SOL    HW1 1026   1.624   0.291   2.300
  337SOL    HW2 1027   1.574   0.444   2.276
  338SOL     OW 1028   1.023   0.766   2.828
  338SOL    HW1 1029   1.038   0.787   2.924
  338SOL    HW2 1030   0.993   0.671   2.819
  339SOL     OW 1031   0.980   1.573   3.562
  339SOL    HW1 1032   0.960   1.617   3.474
  339SOL    HW2 1033   1.019   1.482   3.546
  340SOL     OW 1034   1.859   1.518   3.467
  340SOL    HW1 1035   1.873   1.545   3.372
  340SOL    HW2 1036   1.942   1.540   3.520
  341SOL     OW 1037   0.350   0.898   3.666
  341SOL    HW1 1038   0.426   0.942   3.714
  341SOL    HW2 1039   0.385   0.851   3.584
  342SOL     OW 1040   1.540   0.274   1.987
  342SOL    HW1 1041   1.479   0.199   2.010
  342SOL    HW2 1042   1.562   0.326   2.070
  343SOL     OW 1043   1.303   0.838   1.904
  343SOL    HW1 1044   1.337   0.745   1.919
  343SOL    HW2 1045   1.321   0.865   1.809
  344SOL     OW 1046   1.068   1.333   2.711
  344SOL    HW1 1047   1.075   1.249   2.656
  344SOL    HW2 1048   1.130   1.402   2.675
  345SOL     OW 1049   0.319   0.810   2.811
  345SOL    HW1 1050   0.412   0.846   2.816
  345SOL    HW2 1051   0.313   0.725   2.863
  346SOL     OW 1052   0.339   0.509   2.868
  346SOL    HW1 1053   0.287   0.426   2.851
  346SOL    HW2 1054   0.416   0.514   2.804
  347SOL     OW 1055   1.138   0.380   3.540
  347SOL    HW1 1056   1.093   0.443   3.604
  347SOL    HW2 1057   1.231   0.411   3.523
  348SOL     OW 1058   1.160   0.207   3.339
  348SOL    HW1 1059   1.160   0.271   3.416
  348SOL    HW2 1060   1.188   0.255   3.256
  349SOL     OW 1061   0.008   1.326   2.062
  349SOL    HW1 1062  -0.085   1.347   2.031
  349SOL    HW2 1063   0.018   1.227   2.075
  350SOL     OW 1064   0.088   1.801   2.789
  350SOL    HW1 1065   0.046   1.715   2.762
  350SOL    HW2 1066   0.182   1.804   2.755
  351SOL     OW 1067   0.504   1.568   2.772
  351SOL    HW1 1068   0.570   1.642   2.781
  351SOL    HW2 1069   0.548   1.489   2.730
  352SOL     OW 1070   1.002   0.796   3.100
  352SOL    HW1 1071   1.043   0.764   3.186
  352SOL    HW2 1072   0.906   0.769   3.097
  353SOL     OW 1073   0.040   0.544   2.976
  353SOL    HW1 1074   0.125   0.511   2.935
  353SOL    HW2 1075   0.053   0.559   3.074
  354SOL     OW 1076   0.189   0.520   3.584
  354SOL    HW1 1077   0.248   0.480   3.514
  354SOL    HW2 1078   0.131   0.591   3.543
  355SOL     OW 1079   1.369   0.950   3.522
  355SOL    HW1 1080   1.408   1.039   3.542
  355SOL    HW2 1081   1.379   0.930   3.425
  356SOL     OW 1082   0.815   0.572   2.187
  356SOL    HW1 1083   0.822   0.483   2.141
  356SOL    HW2 1084   0.721   0.606   2.179
  357SOL     OW 1085   1.657   0.604   3.068
  357SOL    HW1 1086   1.619   0.535   3.130
  357SOL    HW2 1087   1.739   0.568   3.024
  358SOL     OW 1088   0.252   1.564   3.606
  358SOL    HW1 1089   0.222   1.621   3.682
  358SOL    HW2 1090   0.245   1.467   3.632
  359SOL     OW 1091   0.671   0.464   3.131
  359SOL    HW1 1092   0.637   0.375   3.101
  359SOL    HW2 1093   0.697   0.518   3.051
  360SOL     OW 1094   0.930   1.678   3.327
  360SOL    HW1 1095   0.906   1.660   3.232
  360SOL    HW2 1096   0.960   1.772   3.337
  361SOL     OW 1097   0.473   0.500   2.053
  361SOL    HW1 1098   0.534   0.580   2.057
  361SOL    HW2 1099   0.378   0.531   2.060
  362SOL     OW 1100   0.159   1.137   3.328
  362SOL    HW1 1101   0.181   1.076   3.404
  362SOL    HW2 1102   0.169   1.088   3.242
  363SOL     OW 1103   1.347   1.059   3.096
  363SOL    HW1 1104   1.371   0.996   3.022
  363SOL    HW2 1105   1.257   1.099   3.078
  364SOL     OW 1106   1.302   0.855   2.171
  364SOL    HW1 1107   1.216   0.824   2.213
  364SOL    HW2 1108   1.298   0.841   2.072
  365SOL     OW 1109   1.759   1.747   3.016
  365SOL    HW1 1110   1.820   1.777   2.943
  365SOL    HW2 1111   1.721   1.658   2.994
  366SOL     OW 1112   1.252   1.731   2.990
  366SOL    HW1 1113   1.336   1.736   2.936
  366SOL    HW2 1114   1.229   1.635   3.008
  367SOL     OW 1115   0.083   1.258   2.884
  367SOL    HW1 1116   0.078   1.257   2.984
  367SOL    HW2 1117   0.000   1.217   2.846
  368SOL     OW 1118   0.688   1.662   3.578
  368SOL    HW1 1119   0.632   1.743   3.587
  368SOL    HW2 1120   0.740   1.666   3.492
  369SOL     OW 1121   1.726   0.135   2.385
  369SOL    HW1 1122   1.799   0.118   2.318
  369SOL    HW2 1123   1.695   0.048   2.423
  370SOL     OW 1124   1.388   1.573   2.339
  370SOL    HW1 1125   1.455   1.585   2.265
  370SOL    HW2 1126   1.348   1.662   2.362
  371SOL     OW 1127   0.130   1.794   3.713
  371SOL    HW1 1128   0.089   1.720   3.766
  371SOL    HW2 1129   0.194   1.845   3.771
  372SOL     OW 1130   1.280   0.927   2.534
  372SOL    HW1 1131   1.340   0.846   2.536
  372SOL    HW2 1132   1.320   0.996   2.474
  373SOL     OW 1133   0.830   1.273   3.284
  373SOL    HW1 1134   0.825   1.306   3.379
  373SOL    HW2 1135   0.744   1.292   3.238
  374SOL     OW 1136   0.672   1.616   2.016
  374SOL    HW1 1137   0.681   1.626   1.917
  374SOL    HW2 1138   0.632   1.527   2.037
  375SOL     OW 1139   1.650   1.720   3.256
  375SOL    HW1 1140   1.703   1.730   3.172
  375SOL    HW2 1141   1.623   1.810   3.290
  376SOL     OW 1142   1.841   0.175   2.825
  376SOL    HW1 1143   1.880   0.090   2.789
  376SOL    HW2 1144   1.743   0.177   2.806
  377SOL     OW 1145   0.263   0.326   2.582
  377SOL    HW1 1146   0.184   0.377   2.548
  377SOL    HW2 1147   0.254   0.311   2.680
  378SOL     OW 1148   1.194   1.612   1.893
  378SOL    HW1 1149   1.200   1.519   1.930
  378SOL    HW2 1150   1.135   1.612   1.813
  379SOL     OW 1151   0.822   1.002   3.234
  379SOL    HW1 1152   0.862   1.001   3.142
  379SOL    HW2 1153   0.832   1.094   3.274
  380SOL     OW 1154   0.916   0.910   2.153
  380SOL    HW1 1155   0.979   0.948   2.085
  380SOL    HW2 1156   0.956   0.827   2.192
  381SOL     OW 1157   1.504   1.607   1.906
  381SOL    HW1 1158   1.412   1.644   1.913
  381SOL    HW2 1159   1.542   1.627   1.816
  382SOL     OW 1160   0.372   1.288   3.352
  382SOL    HW1 1161   0.359   1.381   3.318
  382SOL    HW2 1162   0.288   1.236   3.339
  383SOL     OW 1163   1.614   1.292   3.151
  383SOL    HW1 1164   1.674   1.295   3.231
  383SOL    HW2 1165   1.539   1.356   3.164
  384SOL     OW 1166   1.039   1.098   2.558
  384SOL    HW1 1167   0.969   1.051   2.612
  384SOL    HW2 1168   1.098   1.030   2.515
  385SOL     OW 1169   1.014   0.236   2.833
  385SOL    HW1 1170   1.006   0.200   2.740
  385SOL    HW2 1171   1.012   0.160   2.898
  386SOL     OW 1172   0.590   1.487   2.353
  386SOL    HW1 1173   0.632   1.429   2.283
  386SOL    HW2 1174   0.546   1.566   2.309
  387SOL     OW 1175   1.709   0.385   3.243
  387SOL    HW1 1176   1.782   0.454   3.247
  387SOL    HW2 1177   1.737   0.310   3.184
  388SOL     OW 1178   0.255   1.348   2.152
  388SOL    HW1 1179   0.159   1.349   2.125
  388SOL    HW2 1180   0.267   1.401   2.236
  389SOL     OW 1181   0.105   1.013   3.588
  389SOL    HW1 1182   0.028   0.980   3.642
  389SOL    HW2 1183   0.190   0.983   3.630
  390SOL     OW 1184   0.672   0.203   3.351
  390SOL    HW1 1185   0.762   0.187   3.311
  390SOL    HW2 1186   0.680   0.208   3.450
  391SOL     OW 1187   0.075   0.345   1.895
  391SOL    HW1 1188  -0.017   0.317   1.866
  391SOL    HW2 1189   0.106   0.422   1.839
  392SOL     OW 1190   1.440   0.856   3.260
  392SOL    HW1 1191   1.383   0.908   3.197
  392SOL    HW2 1192   1.536   0.868   3.236
  393SOL     OW 1193   0.072   0.166   2.180
  393SOL    HW1 1194   0.055   0.249   2.126
  393SOL    HW2 1195   0.162   0.129   2.158
  394SOL     OW 1196   1.183   1.335   1.981
  394SOL    HW1 1197   1.084   1.324   1.983
  394SOL    HW2 1198   1.217   1.350   2.074
  395SOL     OW 1199   0.613   0.842   3.293
  395SOL    HW1 1200   0.669   0.923   3.276
  395SOL    HW2 1201   0.672   0.762   3.296
  396SOL     OW 1202   1.493   1.767   2.821
  396SOL    HW1 1203   1.526   1.831   2.752
  396SOL    HW2 1204   1.559   1.761   2.896
  397SOL     OW 1205   0.716   0.565   3.570
  397SOL    HW1 1206   0.735   0.630   3.644
  397SOL    HW2 1207   0.776   0.485   3.579
  398SOL     OW 1208   1.450   1.220   3.495
  398SOL    HW1 1209   1.441   1.210   3.594
  398SOL    HW2 1210   1.546   1.213   3.469
  399SOL     OW 1211   0.390   1.741   3.422
  399SOL    HW1 1212   0.299   1.782   3.420
  399SOL    HW2 1213   0.383   1.647   3.454
  400SOL     OW 1214   1.674   0.883   3.116
  400SOL    HW1 1215   1.647   0.794   3.079
  400SOL    HW2 1216   1.675   0.951   3.043
  401SOL     OW 1217   1.225   0.325   2.311
  401SOL    HW1 1218   1.290   0.251   2.300
  401SOL    HW2 1219   1.245   0.375   2.395
  402SOL     OW 1220   0.594   0.745   2.514
  402SOL    HW1 1221   0.644   0.830   2.495
  402SOL    HW2 1222   0.506   0.747   2.466
  403SOL     OW 1223   1.777   0.342   3.504
  403SOL    HW1 1224   1.760   0.373   3.410
  403SOL    HW2 1225   1.693   0.305   3.542
  404SOL     OW 1226   1.730   0.934   3.379
  404SOL    HW1 1227   1.768   1.025   3.394
  404SOL    HW2 1228   1.722   0.917   3.280
  405SOL     OW 1229   0.859   1.374   1.878
  405SOL    HW1 1230   0.813   1.389   1.966
  405SOL    HW2 1231   0.903   1.459   1.848
  406SOL     OW 1232   0.661   1.790   2.815
  406SOL    HW1 1233   0.615   1.878   2.802
  406SOL    HW2 1234   0.760   1.802   2.808
  407SOL     OW 1235   0.859   0.956   2.723
  407SOL    HW1 1236   0.913   0.887   2.771
  407SOL    HW2 1237   0.827   1.025   2.789
  408SOL     OW 1238   1.083   0.984   1.949
  408SOL    HW1 1239   1.060   1.037   1.867
  408SOL    HW2 1240   1.164   0.928   1.930
  409SOL     OW 1241   1.861   1.569   2.713
  409SOL    HW1 1242   1.790   1.557   2.643
  409SOL    HW2 1243   1.862   1.490   2.773
  410SOL     OW 1244   0.221   1.314   3.706
  410SOL    HW1 1245   0.156   1.241   3.685
  410SOL    HW2 1246   0.225   1.328   3.804
  411SOL     OW 1247   0.079   1.240   2.515
  411SOL    HW1 1248   0.078   1.193   2.603
  411SOL    HW2 1249   0.161   1.212   2.464
  412SOL     OW 1250   0.672   1.391   3.486
  412SOL    HW1 1251   0.594   1.341   3.524
  412SOL    HW2 1252   0.669   1.486   3.517
  413SOL     OW 1253   1.824   0.192   3.089
  413SOL    HW1 1254   1.820   0.102   3.133
  413SOL    HW2 1255   1.827   0.181   2.990
  414SOL     OW 1256   0.428   0.424   2.382
  414SOL    HW1 1257   0.458   0.352   2.320
  414SOL    HW2 1258   0.389   0.384   2.465
  415SOL     OW 1259   1.705   1.487   2.966
  415SOL    HW1 1260   1.612   1.462   2.939
  415SOL    HW2 1261   1.731   1.437   3.048
  416SOL     OW 1262   0.317   0.547   3.142
  416SOL    HW1 1263   0.355   0.488   3.214
  416SOL    HW2 1264   0.357   0.521   3.054
  417SOL     OW 1265   0.812   1.586   2.549
  417SOL    HW1 1266   0.844   1.596   2.455
  417SOL    HW2 1267   0.733   1.524   2.551
  418SOL     OW 1268   1.424   0.214   2.974
  418SOL    HW1 1269   1.476   0.149   3.029
  418SOL    HW2 1270   1.375   0.277   3.035
  419SOL     OW 1271   1.001   0.034   3.016
  419SOL    HW1 1272   0.938  -0.038   2.985
  419SOL    HW2 1273   1.094  -0.002   3.016
  420SOL     OW 1274   0.770   1.330   2.163
  420SOL    HW1 1275   0.724   1.243   2.180
  420SOL    HW2 1276   0.861   1.327   2.204
  421SOL     OW 1277   0.618   1.567   3.146
  421SOL    HW1 1278   0.613   1.649   3.203
  421SOL    HW2 1279   0.707   1.564   3.101
  422SOL     OW 1280   1.352   0.052   2.030
  422SOL    HW1 1281   1.387   0.011   1.946
  422SOL    HW2 1282   1.262   0.014   2.050
  423SOL     OW 1283   1.300   0.453   2.553
  423SOL    HW1 1284   1.241   0.533   2.557
  423SOL    HW2 1285   1.315   0.418   2.646
  424SOL     OW 1286   1.593   0.221   2.744
  424SOL    HW1 1287   1.509   0.220   2.798
  424SOL    HW2 1288   1.595   0.304   2.688
  425SOL     OW 1289   0.039   1.077   2.162
  425SOL    HW1 1290   0.138   1.066   2.153
  425SOL    HW2 1291  -0.001   0.991   2.194
  426SOL     OW 1292   0.875   1.646   2.199
  426SOL    HW1 1293   0.798   1.611   2.145
  426SOL    HW2 1294   0.843   1.717   2.261
  427SOL     OW 1295   0.230   0.628   3.837
  427SOL    HW1 1296   0.137   0.626   3.874
  427SOL    HW2 1297   0.231   0.589   3.745
  428SOL     OW 1298   0.225   0.275   4.720
  428SOL    HW1 1299   0.260   0.258   4.812
  428SOL    HW2 1300   0.137   0.230   4.708
  429SOL     OW 1301   0.019   0.368   4.371
  429SOL    HW1 1302  -0.063   0.411   4.410
  429SOL    HW2 1303  -0.009   0.295   4.308
  430SOL     OW 1304   1.555   1.511   4.427
  430SOL    HW1 1305   1.498   1.495   4.508
  430SOL    HW2 1306   1.496   1.521   4.347
  431SOL     OW 1307   1.135   0.703   4.441
  431SOL    HW1 1308   1.192   0.781   4.416
  431SOL    HW2 1309   1.075   0.729   4.517
  432SOL     OW 1310   1.755   0.607   3.955
  432SOL    HW1 1311   1.743   0.594   3.856
  432SOL    HW2 1312   1.725   0.526   4.004
  433SOL     OW 1313   0.768   1.144   4.747
  433SOL    HW1 1314   0.690   1.161   4.807
  433SOL    HW2 1315   0.802   1.231   4.711
  434SOL     OW 1316   0.685   1.012   4.389
  434SOL    HW1 1317   0.754   0.996   4.459
  434SOL    HW2 1318   0.612   1.069   4.427
  435SOL     OW 1319   1.603   0.447   4.461
  435SOL    HW1 1320   1.529   0.493   4.411
  435SOL    HW2 1321   1.654   0.515   4.514
  436SOL     OW 1322   0.231   1.713   4.207
  436SOL    HW1 1323   0.265   1.790   4.261
  436SOL    HW2 1324   0.275   1.713   4.117
  437SOL     OW 1325   0.230   1.434   4.262
  437SOL    HW1 1326   0.204   1.530   4.262
  437SOL    HW2 1327   0.159   1.380   4.307
  438SOL     OW 1328   0.240   1.091   4.610
  438SOL    HW1 1329   0.254   1.007   4.662
  438SOL    HW2 1330   0.185   1.155   4.665
  439SOL     OW 1331   0.606   0.964   3.847
  439SOL    HW1 1332   0.613   1.048   3.793
  439SOL    HW2 1333   0.652   0.977   3.935
  440SOL     OW 1334   0.122   0.643   4.287
  440SOL    HW1 1335   0.077   0.555   4.304
  440SOL    HW2 1336   0.121   0.697   4.371
  441SOL     OW 1337   1.842   1.767   4.083
  441SOL    HW1 1338   1.896   1.738   4.163
  441SOL    HW2 1339   1.872   1.857   4.054
  442SOL     OW 1340   0.027   1.596   3.841
  442SOL    HW1 1341   0.008   1.500   3.862
  442SOL    HW2 1342  -0.006   1.654   3.916
  443SOL     OW 1343   1.689   0.922   4.336
  443SOL    HW1 1344   1.784   0.893   4.344
  443SOL    HW2 1345   1.681   0.987   4.261
  444SOL     OW 1346   1.641   1.108   4.156
  444SOL    HW1 1347   1.727   1.110   4.104
  444SOL    HW2 1348   1.655   1.155   4.244
  445SOL     OW 1349   0.613   1.365   4.450
  445SOL    HW1 1350   0.564   1.278   4.459
  445SOL    HW2 1351   0.590   1.408   4.363
  446SOL     OW 1352   0.809   0.004   4.226
  446SOL    HW1 1353   0.849   0.095   4.217
  446SOL    HW2 1354   0.709   0.012   4.232
  447SOL     OW 1355   1.525   0.999   3.914
  447SOL    HW1 1356   1.462   0.923   3.927
  447SOL    HW2 1357   1.573   1.017   4.000
  448SOL     OW 1358   1.466   1.417   4.677
  448SOL    HW1 1359   1.407   1.423   4.757
  448SOL    HW2 1360   1.451   1.329   4.631
  449SOL     OW 1361   1.667   1.714   4.296
  449SOL    HW1 1362   1.626   1.691   4.208
  449SOL    HW2 1363   1.649   1.640   4.361
  450SOL     OW 1364   0.598   0.729   3.994
  450SOL    HW1 1365   0.622   0.798   3.926
  450SOL    HW2 1366   0.520   0.762   4.048
  451SOL     OW 1367   1.281   0.345   4.668
  451SOL    HW1 1368   1.195   0.295   4.655
  451SOL    HW2 1369   1.343   0.291   4.724
  452SOL     OW 1370   1.576   1.662   4.031
  452SOL    HW1 1371   1.665   1.708   4.034
  452SOL    HW2 1372   1.555   1.638   3.936
  453SOL     OW 1373   1.041   0.701   4.153
  453SOL    HW1 1374   1.067   0.697   4.249
  453SOL    HW2 1375   0.956   0.650   4.139
  454SOL     OW 1376   0.076   0.811   4.513
  454SOL    HW1 1377   0.175   0.799   4.522
  454SOL    HW2 1378   0.052   0.906   4.534
  455SOL     OW 1379   0.865   0.348   3.919
  455SOL    HW1 1380   0.924   0.411   3.870
  455SOL    HW2 1381   0.884   0.254   3.890
  456SOL     OW 1382   1.362   1.144   4.269
  456SOL    HW1 1383   1.445   1.115   4.221
  456SOL    HW2 1384   1.313   1.211   4.213
  457SOL     OW 1385   1.008   1.456   4.201
  457SOL    HW1 1386   0.962   1.528   4.149
  457SOL    HW2 1387   1.004   1.476   4.299
  458SOL     OW 1388   0.351   1.801   4.577
  458SOL    HW1 1389   0.401   1.715   4.583
  458SOL    HW2 1390   0.416   1.878   4.574
  459SOL     OW 1391   1.795   1.066   4.597
  459SOL    HW1 1392   1.733   1.051   4.521
  459SOL    HW2 1393   1.743   1.077   4.682
  460SOL     OW 1394   0.321   0.943   3.966
  460SOL    HW1 1395   0.403   0.982   3.924
  460SOL    HW2 1396   0.294   0.861   3.917
  461SOL     OW 1397   1.458   0.735   4.452
  461SOL    HW1 1398   1.453   0.670   4.527
  461SOL    HW2 1399   1.538   0.794   4.465
  462SOL     OW 1400   1.111   1.776   3.961
  462SOL    HW1 1401   1.051   1.714   4.011
  462SOL    HW2 1402   1.142   1.732   3.876
  463SOL     OW 1403   1.632   1.377   3.805
  463SOL    HW1 1404   1.600   1.471   3.795
  463SOL    HW2 1405   1.556   1.314   3.793
  464SOL     OW 1406   0.464   1.743   4.047
  464SOL    HW1 1407   0.497   1.782   4.133
  464SOL    HW2 1408   0.540   1.736   3.982
  465SOL     OW 1409   1.400   0.107   4.150
  465SOL    HW1 1410   1.376   0.070   4.060
  465SOL    HW2 1411   1.499   0.123   4.154
  466SOL     OW 1412   0.249   1.785   4.965
  466SOL    HW1 1413   0.306   1.720   5.015
  466SOL    HW2 1414   0.233   1.752   4.872
  467SOL     OW 1415   0.382   0.700   4.204
  467SOL    HW1 1416   0.427   0.610   4.201
  467SOL    HW2 1417   0.288   0.689   4.237
  468SOL     OW 1418   0.614   0.122   3.841
  468SOL    HW1 1419   0.712   0.100   3.848
  468SOL    HW2 1420   0.583   0.105   3.748
  469SOL     OW 1421   0.922   0.503   4.623
  469SOL    HW1 1422   0.897   0.494   4.527
  469SOL    HW2 1423   0.970   0.421   4.654
  470SOL     OW 1424   0.539   0.064   4.236
  470SOL    HW1 1425   0.458   0.065   4.294
  470SOL    HW2 1426   0.542   0.147   4.181
  471SOL     OW 1427   1.434   1.188   3.765
  471SOL    HW1 1428   1.466   1.112   3.822
  471SOL    HW2 1429   1.342   1.215   3.795
  472SOL     OW 1430   0.297   0.035   3.895
  472SOL    HW1 1431   0.346   0.119   3.874
  472SOL    HW2 1432   0.359  -0.030   3.940
  473SOL     OW 1433   0.935   0.236   4.204
  473SOL    HW1 1434   0.887   0.277   4.126
  473SOL    HW2 1435   1.034   0.234   4.185
  474SOL     OW 1436   1.227   1.570   4.517
  474SOL    HW1 1437   1.248   1.644   4.452
  474SOL    HW2 1438   1.295   1.570   4.590
  475SOL     OW 1439   0.459   1.152   4.465
  475SOL    HW1 1440   0.388   1.125   4.530
  475SOL    HW2 1441   0.433   1.124   4.372
  476SOL     OW 1442   1.271   1.797   4.315
  476SOL    HW1 1443   1.315   1.861   4.251
  476SOL    HW2 1444   1.221   1.849   4.385
  477SOL     OW 1445   1.032   0.549   3.740
  477SOL    HW1 1446   0.991   0.631   3.701
  477SOL    HW2 1447   1.096   0.575   3.813
  478SOL     OW 1448   0.866   0.454   4.366
  478SOL    HW1 1449   0.834   0.526   4.304
  478SOL    HW2 1450   0.890   0.373   4.313
  479SOL     OW 1451   1.017   0.039   4.477
  479SOL    HW1 1452   0.945   0.044   4.408
  479SOL    HW2 1453   0.993  -0.030   4.546
  480SOL     OW 1454   1.429   1.173   4.591
  480SOL    HW1 1455   1.374   1.089   4.584
  480SOL    HW2 1456   1.455   1.202   4.499
  481SOL     OW 1457   1.857   0.833   4.101
  481SOL    HW1 1458   1.899   0.769   4.165
  481SOL    HW2 1459   1.819   0.782   4.023
  482SOL     OW 1460   0.488   1.385   3.898
  482SOL    HW1 1461   0.401   1.370   3.945
  482SOL    HW2 1462   0.471   1.411   3.803
  483SOL     OW 1463   1.664   1.280   4.381
  483SOL    HW1 1464   1.763   1.288   4.395
  483SOL    HW2 1465   1.619   1.364   4.412
  484SOL     OW 1466   1.390   0.575   3.802
  484SOL    HW1 1467   1.336   0.554   3.883
  484SOL    HW2 1468   1.481   0.534   3.811
  485SOL     OW 1469   0.527   0.256   4.052
  485SOL    HW1 1470   0.554   0.197   3.977
  485SOL    HW2 1471   0.527   0.351   4.021
  486SOL     OW 1472   1.638   1.099   4.803
  486SOL    HW1 1473   1.643   1.180   4.862
  486SOL    HW2 1474   1.552   1.101   4.752
  487SOL     OW 1475   0.705   1.050   4.092
  487SOL    HW1 1476   0.691   1.057   4.191
  487SOL    HW2 1477   0.789   0.999   4.074
  488SOL     OW 1478   0.367   1.100   4.225
  488SOL    HW1 1479   0.360   1.183   4.169
  488SOL    HW2 1480   0.371   1.020   4.165
  489SOL     OW 1481   0.566   0.537   4.589
  489SOL    HW1 1482   0.578   0.603   4.515
  489SOL    HW2 1483   0.612   0.571   4.672
  490SOL     OW 1484   1.252   1.348   4.112
  490SOL    HW1 1485   1.302   1.425   4.152
  490SOL    HW2 1486   1.157   1.350   4.144
  491SOL     OW 1487   1.582   0.639   4.196
  491SOL    HW1 1488   1.551   0.700   4.269
  491SOL    HW2 1489   1.632   0.691   4.127
  492SOL     OW 1490   1.209   0.525   3.999
  492SOL    HW1 1491   1.222   0.441   4.053
  492SOL    HW2 1492   1.180   0.599   4.059
  493SOL     OW 1493   0.732   0.634   4.788
  493SOL    HW1 1494   0.791   0.608   4.712
  493SOL    HW2 1495   0.704   0.730   4.777
  494SOL     OW 1496   0.307   0.063   4.342
  494SOL    HW1 1497   0.296   0.157   4.375
  494SOL    HW2 1498   0.302   0.000   4.419
  495SOL     OW 1499   1.622   0.367   4.098
  495SOL    HW1 1500   1.624   0.291   4.162
  495SOL    HW2 1501   1.574   0.444   4.138
  496SOL     OW 1502   1.540   0.274   3.849
  496SOL    HW1 1503   1.479   0.199   3.872
  496SOL    HW2 1504   1.562   0.326   3.932
  497SOL     OW 1505   1.303   0.838   3.766
  497SOL    HW1 1506   1.337   0.745   3.781
  497SOL    HW2 1507   1.321   0.865   3.671
  498SOL     OW 1508   1.068   1.333   4.573
  498SOL    HW1 1509   1.075   1.249   4.518
  498SOL    HW2 1510   1.130   1.402   4.537
  499SOL     OW 1511   0.319   0.810   4.673
  499SOL    HW1 1512   0.412   0.846   4.678
  499SOL    HW2 1513   0.313   0.725   4.725
  500SOL     OW 1514   0.008   1.326   3.924
  500SOL    HW1 1515  -0.085   1.347   3.893
  500SOL    HW2 1516   0.018   1.227   3.937
  501SOL     OW 1517   0.088   1.801   4.651
  501SOL    HW1 1518   0.046   1.715   4.624
  501SOL    HW2 1519   0.182   1.804   4.617
  502SOL     OW 1520   0.504   1.568   4.634
  502SOL    HW1 1521   0.570   1.642   4.643
  502SOL    HW2 1522   0.548   1.489   4.592
  503SOL     OW 1523   0.815   0.572   4.049
  503SOL    HW1 1524   0.822   0.483   4.003
  503SOL    HW2 1525   0.721   0.606   4.041
  504SOL     OW 1526   0.671   0.464   4.993
  504SOL    HW1 1527   0.637   0.375   4.963
  504SOL    HW2 1528   0.697   0.518   4.913
  505SOL     OW 1529   0.473   0.500   3.915
  505SOL    HW1 1530   0.534   0.580   3.919
  505SOL    HW2 1531   0.378   0.531   3.922
  506SOL     OW 1532   1.347   1.059   4.958
  506SOL    HW1 1533   1.371   0.996   4.884
  506SOL    HW2 1534   1.257   1.099   4.940
  507SOL     OW 1535   1.302   0.855   4.033
  507SOL    HW1 1536   1.216   0.824   4.075
  507SOL    HW2 1537   1.298   0.841   3.934
  508SOL     OW 1538   1.759   1.747   4.878
  508SOL    HW1 1539   1.820   1.777   4.805
  508SOL    HW2 1540   1.721   1.658   4.856
  509SOL     OW 1541   1.726   0.135   4.247
  509SOL    HW1 1542   1.799   0.118   4.180
  509SOL    HW2 1543   1.695   0.048   4.285
  510SOL     OW 1544   1.388   1.573   4.201
  510SOL    HW1 1545   1.455   1.585   4.127
  510SOL    HW2 1546   1.348   1.662   4.224
  511SOL     OW 1547   1.280   0.927   4.396
  511SOL    HW1 1548   1.340   0.846   4.398
  511SOL    HW2 1549   1.320   0.996   4.336
  512SOL     OW 1550   0.672   1.616   3.878
  512SOL    HW1 1551   0.681   1.626   3.779
  512SOL    HW2 1552   0.632   1.527   3.899
  513SOL     OW 1553   1.841   0.175   4.687
  513SOL    HW1 1554   1.880   0.090   4.651
  513SOL    HW2 1555   1.743   0.177   4.668
  514SOL     OW 1556   0.263   0.326   4.444
  514SOL    HW1 1557   0.184   0.377   4.410
  514SOL    HW2 1558   0.254   0.311   4.542
  515SOL     OW 1559   1.194   1.612   3.755
  515SOL    HW1 1560   1.200   1.519   3.792
  515SOL    HW2 1561   1.135   1.612   3.675
  516SOL     OW 1562   0.916   0.910   4.015
  516SOL    HW1 1563   0.979   0.948   3.947
  516SOL    HW2 1564   0.956   0.827   4.054
  517SOL     OW 1565   1.504   1.607   3.768
  517SOL    HW1 1566   1.412   1.644   3.775
  517SOL    HW2 1567   1.542   1.627   3.678
  518SOL     OW 1568   1.614   1.292   5.013
  518SOL    HW1 1569   1.674   1.295   5.093
  518SOL    HW2 1570   1.539   1.356   5.026
  519SOL     OW 1571   1.039   1.098   4.420
  519SOL    HW1 1572   0.969   1.051   4.474
  519SOL    HW2 1573   1.098   1.030   4.377
  520SOL     OW 1574   0.590   1.487   4.215
  520SOL    HW1 1575   0.632   1.429   4.145
  520SOL    HW2 1576   0.546   1.566   4.171
  521SOL     OW 1577   0.255   1.348   4.014
  521SOL    HW1 1578   0.159   1.349   3.987
  521SOL    HW2 1579   0.267   1.401   4.098
  522SOL     OW 1580   0.075   0.345   3.757
  522SOL    HW1 1581  -0.017   0.317   3.728
  522SOL    HW2 1582   0.106   0.422   3.701
  523SOL     OW 1583   0.072   0.166   4.042
  523SOL    HW1 1584   0.055   0.249   3.988
  523SOL    HW2 1585   0.162   0.129   4.020
  524SOL     OW 1586   1.183   1.335   3.843
  524SOL    HW1 1587   1.084   1.324   3.845
  524SOL    HW2 1588   1.217   1.350   3.936
  525SOL     OW 1589   1.674   0.883   4.978
  525SOL    HW1 1590   1.647   0.794   4.941
  525SOL    HW2 1591   1.675   0.951   4.905
  526SOL     OW 1592   1.225   0.325   4.173
  526SOL    HW1 1593   1.290   0.251   4.162
  526SOL    HW2 1594   1.245   0.375   4.257
  527SOL     OW 1595   0.594   0.745   4.376
  527SOL    HW1 1596   0.644   0.830   4.357
  527SOL    HW2 1597   0.506   0.747   4.328
  528SOL     OW 1598   0.859   1.374   3.740
  528SOL    HW1 1599   0.813   1.389   3.828
  528SOL    HW2 1600   0.903   1.459   3.710
  529SOL     OW 1601   0.661   1.790   4.677
  529SOL    HW1 1602   0.615   1.878   4.664
  529SOL    HW2 1603   0.760   1.802   4.670
  530SOL     OW 1604   0.859   0.956   4.585
  530SOL    HW1 1605   0.913   0.887   4.633
  530SOL    HW2 1606   0.827   1.025   4.651
  531SOL     OW 1607   1.083   0.984   3.811
  531SOL    HW1 1608   1.060   1.037   3.729
  531SOL    HW2 1609   1.164   0.928   3.792
  532SOL     OW 1610   1.861   1.569   4.575
  532SOL    HW1 1611   1.790   1.557   4.505
  532SOL    HW2 1612   1.862   1.490   4.635
  533SOL     OW 1613   0.079   1.240   4.377
  533SOL    HW1 1614   0.078   1.193   4.465
  533SOL    HW2 1615   0.161   1.212   4.326
  534SOL     OW 1616   1.824   0.192   4.951
  534SOL    HW1 1617   1.820   0.102   4.995
  534SOL    HW2 1618   1.827   0.181   4.852
  535SOL     OW 1619   0.428   0.424   4.244
  535SOL    HW1 1620   0.458   0.352   4.182
  535SOL    HW2 1621   0.389   0.384   4.327
  536SOL     OW 1622   0.812   1.586   4.411
  536SOL    HW1 1623   0.844   1.596   4.317
  536SOL    HW2 1624   0.733   1.524   4.413
  537SOL     OW 1625   0.770   1.330   4.025
  537SOL    HW1 1626   0.724   1.243   4.042
  537SOL    HW2 1627   0.861   1.327   4.066
  538SOL     OW 1628   1.352   0.052   3.892
  538SOL    HW1 1629   1.387   0.011   3.808
  538SOL    HW2 1630   1.262   0.014   3.912
  539SOL     OW 1631   1.300   0.453   4.415
  539SOL    HW1 1632   1.241   0.533   4.419
  539SOL    HW2 1633   1.315   0.418   4.508
  540SOL     OW 1634   1.593   0.221   4.606
  540SOL    HW1 1635   1.509   0.220   4.660
  540SOL    HW2 1636   1.595   0.304   4.550
  541SOL     OW 1637   0.039   1.077   4.024
  541SOL    HW1 1638   0.138   1.066   4.015
  541SOL    HW2 1639  -0.001   0.991   4.056
  542SOL     OW 1640   0.875   1.646   4.061
  542SOL    HW1 1641   0.798   1.611   4.007
  542SOL    HW2 1642   0.843   1.717   4.123
  543SOL     OW 1643   0.230   2.490   0.113
  543SOL    HW1 1644   0.137   2.488   0.150
  543SOL    HW2 1645   0.231   2.451   0.021
  544SOL     OW 1646   0.225   2.137   0.996
  544SOL    HW1 1647   0.260   2.120   1.088
  544SOL    HW2 1648   0.137   2.092   0.984
  545SOL     OW 1649   0.019   2.230   0.647
  545SOL    HW1 1650  -0.063   2.273   0.686
  545SOL    HW2 1651  -0.009   2.157   0.584
  546SOL     OW 1652   0.569   3.137   1.165
  546SOL    HW1 1653   0.476   3.130   1.128
  546SOL    HW2 1654   0.580   3.226   1.209
  547SOL     OW 1655   1.555   3.373   0.703
  547SOL    HW1 1656   1.498   3.357   0.784
  547SOL    HW2 1657   1.496   3.383   0.623
  548SOL     OW 1658   1.135   2.565   0.717
  548SOL    HW1 1659   1.192   2.643   0.692
  548SOL    HW2 1660   1.075   2.591   0.793
  549SOL     OW 1661   1.755   2.469   0.231
  549SOL    HW1 1662   1.743   2.456   0.132
  549SOL    HW2 1663   1.725   2.388   0.280
  550SOL     OW 1664   0.768   3.006   1.023
  550SOL    HW1 1665   0.690   3.023   1.083
  550SOL    HW2 1666   0.802   3.093   0.987
  551SOL     OW 1667   0.850   2.660   1.823
  551SOL    HW1 1668   0.846   2.736   1.888
  551SOL    HW2 1669   0.872   2.696   1.732
  552SOL     OW 1670   0.685   2.874   0.665
  552SOL    HW1 1671   0.754   2.858   0.735
  552SOL    HW2 1672   0.612   2.931   0.703
  553SOL     OW 1673   0.686   3.023   1.803
  553SOL    HW1 1674   0.746   3.102   1.817
  553SOL    HW2 1675   0.600   3.054   1.762
  554SOL     OW 1676   0.335   3.297   1.061
  554SOL    HW1 1677   0.257   3.266   1.008
  554SOL    HW2 1678   0.393   3.355   1.004
  555SOL     OW 1679   1.460   3.367   1.339
  555SOL    HW1 1680   1.484   3.461   1.365
  555SOL    HW2 1681   1.444   3.313   1.421
  556SOL     OW 1682   0.438   2.254   1.499
  556SOL    HW1 1683   0.520   2.198   1.508
  556SOL    HW2 1684   0.357   2.196   1.503
  557SOL     OW 1685   1.603   2.309   0.737
  557SOL    HW1 1686   1.529   2.355   0.687
  557SOL    HW2 1687   1.654   2.377   0.790
  558SOL     OW 1688   0.231   3.575   0.483
  558SOL    HW1 1689   0.265   3.652   0.537
  558SOL    HW2 1690   0.275   3.575   0.393
  559SOL     OW 1691   1.127   3.203   1.690
  559SOL    HW1 1692   1.174   3.203   1.778
  559SOL    HW2 1693   1.079   3.116   1.679
  560SOL     OW 1694   0.230   3.296   0.538
  560SOL    HW1 1695   0.204   3.392   0.538
  560SOL    HW2 1696   0.159   3.242   0.583
  561SOL     OW 1697   0.240   2.953   0.886
  561SOL    HW1 1698   0.254   2.869   0.938
  561SOL    HW2 1699   0.185   3.017   0.941
  562SOL     OW 1700   0.620   3.648   1.439
  562SOL    HW1 1701   0.528   3.631   1.474
  562SOL    HW2 1702   0.648   3.740   1.465
  563SOL     OW 1703   0.606   2.826   0.123
  563SOL    HW1 1704   0.613   2.910   0.069
  563SOL    HW2 1705   0.652   2.839   0.211
  564SOL     OW 1706   1.594   1.976   1.480
  564SOL    HW1 1707   1.576   2.043   1.408
  564SOL    HW2 1708   1.591   2.022   1.569
  565SOL     OW 1709   0.122   2.505   0.563
  565SOL    HW1 1710   0.077   2.417   0.580
  565SOL    HW2 1711   0.121   2.559   0.647
  566SOL     OW 1712   1.842   3.629   0.359
  566SOL    HW1 1713   1.896   3.600   0.439
  566SOL    HW2 1714   1.872   3.719   0.330
  567SOL     OW 1715   0.027   3.458   0.117
  567SOL    HW1 1716   0.008   3.362   0.138
  567SOL    HW2 1717  -0.006   3.516   0.192
  568SOL     OW 1718   1.689   2.784   0.612
  568SOL    HW1 1719   1.784   2.755   0.620
  568SOL    HW2 1720   1.681   2.849   0.537
  569SOL     OW 1721   1.641   2.970   0.432
  569SOL    HW1 1722   1.727   2.972   0.380
  569SOL    HW2 1723   1.655   3.017   0.520
  570SOL     OW 1724   0.113   2.599   1.597
  570SOL    HW1 1725   0.201   2.586   1.642
  570SOL    HW2 1726   0.100   2.696   1.575
  571SOL     OW 1727   0.613   3.227   0.726
  571SOL    HW1 1728   0.564   3.140   0.735
  571SOL    HW2 1729   0.590   3.270   0.639
  572SOL     OW 1730   1.293   3.090   1.423
  572SOL    HW1 1731   1.330   3.017   1.365
  572SOL    HW2 1732   1.345   3.095   1.508
  573SOL     OW 1733   0.809   1.866   0.502
  573SOL    HW1 1734   0.849   1.957   0.493
  573SOL    HW2 1735   0.709   1.874   0.508
  574SOL     OW 1736   0.197   2.838   1.264
  574SOL    HW1 1737   0.286   2.793   1.250
  574SOL    HW2 1738   0.124   2.773   1.245
  575SOL     OW 1739   1.525   2.861   0.190
  575SOL    HW1 1740   1.462   2.785   0.203
  575SOL    HW2 1741   1.573   2.879   0.276
  576SOL     OW 1742   1.187   3.654   1.616
  576SOL    HW1 1743   1.211   3.714   1.540
  576SOL    HW2 1744   1.194   3.559   1.586
  577SOL     OW 1745   0.317   2.113   1.801
  577SOL    HW1 1746   0.388   2.184   1.807
  577SOL    HW2 1747   0.229   2.152   1.829
  578SOL     OW 1748   1.466   3.279   0.953
  578SOL    HW1 1749   1.407   3.285   1.033
  578SOL    HW2 1750   1.451   3.191   0.907
  579SOL     OW 1751   1.667   3.576   0.572
  579SOL    HW1 1752   1.626   3.553   0.484
  579SOL    HW2 1753   1.649   3.502   0.637
  580SOL     OW 1754   0.598   2.591   0.270
  580SOL    HW1 1755   0.622   2.660   0.202
  580SOL    HW2 1756   0.520   2.624   0.324
  581SOL     OW 1757   1.281   2.207   0.944
  581SOL    HW1 1758   1.195   2.157   0.931
  581SOL    HW2 1759   1.343   2.153   1.000
  582SOL     OW 1760   1.576   3.524   0.307
  582SOL    HW1 1761   1.665   3.570   0.310
  582SOL    HW2 1762   1.555   3.500   0.212
  583SOL     OW 1763   0.807   2.467   1.465
  583SOL    HW1 1764   0.760   2.464   1.554
  583SOL    HW2 1765   0.756   2.412   1.399
  584SOL     OW 1766   1.394   2.331   1.674
  584SOL    HW1 1767   1.374   2.374   1.762
  584SOL    HW2 1768   1.472   2.269   1.683
  585SOL     OW 1769   0.973   2.752   1.572
  585SOL    HW1 1770   1.019   2.668   1.543
  585SOL    HW2 1771   0.917   2.786   1.497
  586SOL     OW 1772   0.991   2.272   1.242
  586SOL    HW1 1773   0.914   2.306   1.296
  586SOL    HW2 1774   0.957   2.221   1.163
  587SOL     OW 1775   1.041   2.563   0.429
  587SOL    HW1 1776   1.067   2.559   0.525
  587SOL    HW2 1777   0.956   2.512   0.415
  588SOL     OW 1778   0.076   2.673   0.789
  588SOL    HW1 1779   0.175   2.661   0.798
  588SOL    HW2 1780   0.052   2.768   0.810
  589SOL     OW 1781   0.130   3.683   1.571
  589SOL    HW1 1782   0.120   3.668   1.670
  589SOL    HW2 1783   0.044   3.719   1.535
  590SOL     OW 1784   0.865   2.210   0.195
  590SOL    HW1 1785   0.924   2.273   0.146
  590SOL    HW2 1786   0.884   2.116   0.166
  591SOL     OW 1787   1.719   2.447   1.831
  591SOL    HW1 1788   1.693   2.536   1.795
  591SOL    HW2 1789   1.717   2.379   1.758
  592SOL     OW 1790   1.362   3.006   0.545
  592SOL    HW1 1791   1.445   2.977   0.497
  592SOL    HW2 1792   1.313   3.073   0.489
  593SOL     OW 1793   0.550   2.058   0.885
  593SOL    HW1 1794   0.545   2.053   0.985
  593SOL    HW2 1795   0.552   2.154   0.856
  594SOL     OW 1796   1.008   3.318   0.477
  594SOL    HW1 1797   0.962   3.390   0.425
  594SOL    HW2 1798   1.004   3.338   0.575
  595SOL     OW 1799   0.351   3.663   0.853
  595SOL    HW1 1800   0.401   3.577   0.859
  595SOL    HW2 1801   0.416   3.740   0.850
  596SOL     OW 1802   1.795   2.928   0.873
  596SOL    HW1 1803   1.733   2.913   0.797
  596SOL    HW2 1804   1.743   2.939   0.958
  597SOL     OW 1805   1.227   3.412   1.506
  597SOL    HW1 1806   1.233   3.335   1.570
  597SOL    HW2 1807   1.175   3.386   1.426
  598SOL     OW 1808   0.321   2.805   0.242
  598SOL    HW1 1809   0.403   2.844   0.200
  598SOL    HW2 1810   0.294   2.723   0.193
  599SOL     OW 1811   1.458   2.597   0.728
  599SOL    HW1 1812   1.453   2.532   0.803
  599SOL    HW2 1813   1.538   2.656   0.741
  600SOL     OW 1814   0.461   3.128   1.727
  600SOL    HW1 1815   0.411   3.129   1.641
  600SOL    HW2 1816   0.398   3.110   1.803
  601SOL     OW 1817   1.111   3.638   0.237
  601SOL    HW1 1818   1.051   3.576   0.287
  601SOL    HW2 1819   1.142   3.594   0.152
  602SOL     OW 1820   0.202   2.147   1.498
  602SOL    HW1 1821   0.122   2.207   1.485
  602SOL    HW2 1822   0.192   2.098   1.584
  603SOL     OW 1823   1.632   3.239   0.081
  603SOL    HW1 1824   1.600   3.333   0.071
  603SOL    HW2 1825   1.556   3.176   0.069
  604SOL     OW 1826   0.464   3.605   0.323
  604SOL    HW1 1827   0.497   3.644   0.409
  604SOL    HW2 1828   0.540   3.598   0.258
  605SOL     OW 1829   1.400   1.969   0.426
  605SOL    HW1 1830   1.376   1.932   0.336
  605SOL    HW2 1831   1.499   1.985   0.430
  606SOL     OW 1832   0.249   3.647   1.241
  606SOL    HW1 1833   0.306   3.582   1.291
  606SOL    HW2 1834   0.233   3.614   1.148
  607SOL     OW 1835   0.940   3.560   0.904
  607SOL    HW1 1836   1.020   3.503   0.925
  607SOL    HW2 1837   0.891   3.520   0.827
  608SOL     OW 1838   0.382   2.562   0.480
  608SOL    HW1 1839   0.427   2.472   0.477
  608SOL    HW2 1840   0.288   2.551   0.513
  609SOL     OW 1841   1.547   2.084   1.729
  609SOL    HW1 1842   1.542   2.121   1.821
  609SOL    HW2 1843   1.475   2.015   1.717
  610SOL     OW 1844   0.614   1.984   0.117
  610SOL    HW1 1845   0.712   1.962   0.124
  610SOL    HW2 1846   0.583   1.967   0.024
  611SOL     OW 1847   0.781   2.126   1.749
  611SOL    HW1 1848   0.848   2.065   1.792
  611SOL    HW2 1849   0.708   2.145   1.814
  612SOL     OW 1850   0.888   3.376   1.195
  612SOL    HW1 1851   0.865   3.351   1.101
  612SOL    HW2 1852   0.949   3.307   1.234
  613SOL     OW 1853   1.351   2.452   1.433
  613SOL    HW1 1854   1.379   2.409   1.518
  613SOL    HW2 1855   1.376   2.548   1.434
  614SOL     OW 1856   0.803   3.264   0.924
  614SOL    HW1 1857   0.893   3.278   0.882
  614SOL    HW2 1858   0.732   3.266   0.853
  615SOL     OW 1859   0.922   2.365   0.899
  615SOL    HW1 1860   0.897   2.356   0.803
  615SOL    HW2 1861   0.970   2.283   0.930
  616SOL     OW 1862   0.539   1.926   0.512
  616SOL    HW1 1863   0.458   1.927   0.570
  616SOL    HW2 1864   0.542   2.009   0.457
  617SOL     OW 1865   1.434   3.050   0.041
  617SOL    HW1 1866   1.466   2.974   0.098
  617SOL    HW2 1867   1.342   3.077   0.071
  618SOL     OW 1868   0.935   2.098   0.480
  618SOL    HW1 1869   0.887   2.139   0.402
  618SOL    HW2 1870   1.034   2.096   0.461
  619SOL     OW 1871   1.076   2.545   1.464
  619SOL    HW1 1872   0.996   2.484   1.467
  619SOL    HW2 1873   1.157   2.492   1.440
  620SOL     OW 1874   1.227   3.432   0.793
  620SOL    HW1 1875   1.248   3.506   0.728
  620SOL    HW2 1876   1.295   3.432   0.866
  621SOL     OW 1877   0.459   3.014   0.741
  621SOL    HW1 1878   0.388   2.987   0.806
  621SOL    HW2 1879   0.433   2.986   0.648
  622SOL     OW 1880   1.271   3.659   0.591
  622SOL    HW1 1881   1.315   3.723   0.527
  622SOL    HW2 1882   1.221   3.711   0.661
  623SOL     OW 1883   1.032   2.411   0.016
  623SOL    HW1 1884   0.991   2.493  -0.023
  623SOL    HW2 1885   1.096   2.437   0.089
  624SOL     OW 1886   0.078   2.418   1.386
  624SOL    HW1 1887   0.170   2.417   1.345
  624SOL    HW2 1888   0.072   2.492   1.453
  625SOL     OW 1889   0.561   2.084   1.147
  625SOL    HW1 1890   0.599   2.000   1.184
  625SOL    HW2 1891   0.473   2.103   1.191
  626SOL     OW 1892   0.866   2.316   0.642
  626SOL    HW1 1893   0.834   2.388   0.580
  626SOL    HW2 1894   0.890   2.235   0.589
  627SOL     OW 1895   1.017   1.901   0.753
  627SOL    HW1 1896   0.945   1.906   0.684
  627SOL    HW2 1897   0.993   1.832   0.822
  628SOL     OW 1898   1.429   3.035   0.867
  628SOL    HW1 1899   1.374   2.951   0.860
  628SOL    HW2 1900   1.455   3.064   0.775
  629SOL     OW 1901   1.466   2.452   0.992
  629SOL    HW1 1902   1.436   2.357   0.999
  629SOL    HW2 1903   1.539   2.468   1.058
  630SOL     OW 1904   1.857   2.695   0.377
  630SOL    HW1 1905   1.899   2.631   0.441
  630SOL    HW2 1906   1.819   2.644   0.299
  631SOL     OW 1907   0.488   3.247   0.174
  631SOL    HW1 1908   0.401   3.232   0.221
  631SOL    HW2 1909   0.471   3.273   0.079
  632SOL     OW 1910   1.664   3.142   0.657
  632SOL    HW1 1911   1.763   3.150   0.671
  632SOL    HW2 1912   1.619   3.226   0.688
  633SOL     OW 1913   1.390   2.437   0.078
  633SOL    HW1 1914   1.336   2.416   0.159
  633SOL    HW2 1915   1.481   2.396   0.087
  634SOL     OW 1916   0.527   2.118   0.328
  634SOL    HW1 1917   0.554   2.059   0.253
  634SOL    HW2 1918   0.527   2.213   0.297
  635SOL     OW 1919   1.754   3.085   1.588
  635SOL    HW1 1920   1.845   3.046   1.575
  635SOL    HW2 1921   1.762   3.181   1.612
  636SOL     OW 1922   1.064   3.209   1.340
  636SOL    HW1 1923   0.984   3.186   1.395
  636SOL    HW2 1924   1.147   3.183   1.389
  637SOL     OW 1925   1.592   3.491   1.625
  637SOL    HW1 1926   1.619   3.525   1.535
  637SOL    HW2 1927   1.671   3.453   1.671
  638SOL     OW 1928   1.111   3.057   1.100
  638SOL    HW1 1929   1.071   3.101   1.181
  638SOL    HW2 1930   1.070   3.094   1.017
  639SOL     OW 1931   1.638   2.961   1.079
  639SOL    HW1 1932   1.643   3.042   1.138
  639SOL    HW2 1933   1.552   2.963   1.028
  640SOL     OW 1934   0.915   1.951   1.402
  640SOL    HW1 1935   0.940   1.931   1.307
  640SOL    HW2 1936   0.987   2.007   1.444
  641SOL     OW 1937   0.980   2.978   1.719
  641SOL    HW1 1938   0.881   2.984   1.729
  641SOL    HW2 1939   1.003   2.898   1.663
  642SOL     OW 1940   0.705   2.912   0.368
  642SOL    HW1 1941   0.691   2.919   0.467
  642SOL    HW2 1942   0.789   2.861   0.350
  643SOL     OW 1943   0.410   2.675   1.251
  643SOL    HW1 1944   0.496   2.687   1.301
  643SOL    HW2 1945   0.368   2.588   1.278
  644SOL     OW 1946   1.274   2.248   1.262
  644SOL    HW1 1947   1.295   2.322   1.326
  644SOL    HW2 1948   1.185   2.265   1.219
  645SOL     OW 1949   0.064   3.426   1.331
  645SOL    HW1 1950   0.018   3.508   1.297
  645SOL    HW2 1951   0.162   3.445   1.340
  646SOL     OW 1952   0.367   2.962   0.501
  646SOL    HW1 1953   0.360   3.045   0.445
  646SOL    HW2 1954   0.371   2.882   0.441
  647SOL     OW 1955   0.566   2.399   0.865
  647SOL    HW1 1956   0.578   2.465   0.791
  647SOL    HW2 1957   0.612   2.433   0.948
  648SOL     OW 1958   1.252   3.210   0.388
  648SOL    HW1 1959   1.302   3.287   0.428
  648SOL    HW2 1960   1.157   3.212   0.420
  649SOL     OW 1961   1.272   3.307   1.142
  649SOL    HW1 1962   1.319   3.320   1.229
  649SOL    HW2 1963   1.206   3.233   1.151
  650SOL     OW 1964   1.582   2.501   0.472
  650SOL    HW1 1965   1.551   2.562   0.545
  650SOL    HW2 1966   1.632   2.553   0.403
  651SOL     OW 1967   0.354   3.372   1.329
  651SOL    HW1 1968   0.333   3.328   1.242
  651SOL    HW2 1969   0.451   3.398   1.332
  652SOL     OW 1970   0.402   2.613   1.598
  652SOL    HW1 1971   0.470   2.668   1.551
  652SOL    HW2 1972   0.442   2.525   1.625
  653SOL     OW 1973   1.587   2.641   1.670
  653SOL    HW1 1974   1.495   2.679   1.665
  653SOL    HW2 1975   1.647   2.688   1.605
  654SOL     OW 1976   1.013   1.967   1.770
  654SOL    HW1 1977   1.019   2.052   1.718
  654SOL    HW2 1978   1.045   1.891   1.713
  655SOL     OW 1979   0.504   1.912   1.740
  655SOL    HW1 1980   0.462   1.855   1.670
  655SOL    HW2 1981   0.438   1.981   1.772
  656SOL     OW 1982   0.573   2.732   1.029
  656SOL    HW1 1983   0.617   2.821   1.020
  656SOL    HW2 1984   0.510   2.732   1.106
  657SOL     OW 1985   1.360   2.724   1.045
  657SOL    HW1 1986   1.285   2.724   0.979
  657SOL    HW2 1987   1.397   2.632   1.054
  658SOL     OW 1988   1.209   2.387   0.275
  658SOL    HW1 1989   1.222   2.303   0.329
  658SOL    HW2 1990   1.180   2.461   0.335
  659SOL     OW 1991   0.307   2.075   1.231
  659SOL    HW1 1992   0.284   2.112   1.321
  659SOL    HW2 1993   0.277   1.980   1.225
  660SOL     OW 1994   0.037   3.172   1.282
  660SOL    HW1 1995   0.090   3.123   1.350
  660SOL    HW2 1996   0.059   3.270   1.287
  661SOL     OW 1997   0.732   2.496   1.064
  661SOL    HW1 1998   0.791   2.470   0.988
  661SOL    HW2 1999   0.704   2.592   1.053
  662SOL     OW 2000   1.728   2.797   1.854
  662SOL    HW1 2001   1.682   2.790   1.765
  662SOL    HW2 2002   1.666   2.841   1.920
  663SOL     OW 2003   0.307   1.925   0.618
  663SOL    HW1 2004   0.296   2.019   0.651
  663SOL    HW2 2005   0.302   1.862   0.695
  664SOL     OW 2006   1.622   2.229   0.374
  664SOL    HW1 2007   1.624   2.153   0.438
  664SOL    HW2 2008   1.574   2.306   0.414
  665SOL     OW 2009   1.023   2.628   0.966
  665SOL    HW1 2010   1.038   2.649   1.062
  665SOL    HW2 2011   0.993   2.533   0.957
  666SOL     OW 2012   0.980   3.435   1.700
  666SOL    HW1 2013   0.960   3.479   1.612
  666SOL    HW2 2014   1.019   3.344   1.684
  667SOL     OW 2015   1.859   3.380   1.605
  667SOL    HW1 2016   1.873   3.407   1.510
  667SOL    HW2 2017   1.942   3.402   1.658
  668SOL     OW 2018   0.350   2.760   1.804
  668SOL    HW1 2019   0.426   2.804   1.852
  668SOL    HW2 2020   0.385   2.713   1.722
  669SOL     OW 2021   1.540   2.136   0.125
  669SOL    HW1 2022   1.479   2.061   0.148
  669SOL    HW2 2023   1.562   2.188   0.208
  670SOL     OW 2024   1.303   2.700   0.042
  670SOL    HW1 2025   1.337   2.607   0.057
  670SOL    HW2 2026   1.321   2.727  -0.053
  671SOL     OW 2027   1.068   3.195   0.849
  671SOL    HW1 2028   1.075   3.111   0.794
  671SOL    HW2 2029   1.130   3.264   0.813
  672SOL     OW 2030   0.319   2.672   0.949
  672SOL    HW1 2031   0.412   2.708   0.954
  672SOL    HW2 2032   0.313   2.587   1.001
  673SOL     OW 2033   0.339   2.371   1.006
  673SOL    HW1 2034   0.287   2.288   0.989
  673SOL    HW2 2035   0.416   2.376   0.942
  674SOL     OW 2036   1.138   2.242   1.678
  674SOL    HW1 2037   1.093   2.305   1.742
  674SOL    HW2 2038   1.231   2.273   1.661
  675SOL     OW 2039   1.160   2.069   1.477
  675SOL    HW1 2040   1.160   2.133   1.554
  675SOL    HW2 2041   1.188   2.117   1.394
  676SOL     OW 2042   0.008   3.188   0.200
  676SOL    HW1 2043  -0.085   3.209   0.169
  676SOL    HW2 2044   0.018   3.089   0.213
  677SOL     OW 2045   0.088   3.663   0.927
  677SOL    HW1 2046   0.046   3.577   0.900
  677SOL    HW2 2047   0.182   3.666   0.893
  678SOL     OW 2048   0.504   3.430   0.910
  678SOL    HW1 2049   0.570   3.504   0.919
  678SOL    HW2 2050   0.548   3.351   0.868
  679SOL     OW 2051   1.002   2.658   1.238
  679SOL    HW1 2052   1.043   2.626   1.324
  679SOL    HW2 2053   0.906   2.631   1.235
  680SOL     OW 2054   0.040   2.406   1.114
  680SOL    HW1 2055   0.125   2.373   1.073
  680SOL    HW2 2056   0.053   2.421   1.212
  681SOL     OW 2057   0.189   2.382   1.722
  681SOL    HW1 2058   0.248   2.342   1.652
  681SOL    HW2 2059   0.131   2.453   1.681
  682SOL     OW 2060   1.369   2.812   1.660
  682SOL    HW1 2061   1.408   2.901   1.680
  682SOL    HW2 2062   1.379   2.792   1.563
  683SOL     OW 2063   0.815   2.434   0.325
  683SOL    HW1 2064   0.822   2.345   0.279
  683SOL    HW2 2065   0.721   2.468   0.317
  684SOL     OW 2066   1.657   2.466   1.206
  684SOL    HW1 2067   1.619   2.397   1.268
  684SOL    HW2 2068   1.739   2.430   1.162
  685SOL     OW 2069   0.252   3.426   1.744
  685SOL    HW1 2070   0.222   3.483   1.820
  685SOL    HW2 2071   0.245   3.329   1.770
  686SOL     OW 2072   0.671   2.326   1.269
  686SOL    HW1 2073   0.637   2.237   1.239
  686SOL    HW2 2074   0.697   2.380   1.189
  687SOL     OW 2075   0.930   3.540   1.465
  687SOL    HW1 2076   0.906   3.522   1.370
  687SOL    HW2 2077   0.960   3.634   1.475
  688SOL     OW 2078   0.473   2.362   0.191
  688SOL    HW1 2079   0.534   2.442   0.195
  688SOL    HW2 2080   0.378   2.393   0.198
  689SOL     OW 2081   0.159   2.999   1.466
  689SOL    HW1 2082   0.181   2.938   1.542
  689SOL    HW2 2083   0.169   2.950   1.380
  690SOL     OW 2084   1.347   2.921   1.234
  690SOL    HW1 2085   1.371   2.858   1.160
  690SOL    HW2 2086   1.257   2.961   1.216
  691SOL     OW 2087   1.302   2.717   0.309
  691SOL    HW1 2088   1.216   2.686   0.351
  691SOL    HW2 2089   1.298   2.703   0.210
  692SOL     OW 2090   1.759   3.609   1.154
  692SOL    HW1 2091   1.820   3.639   1.081
  692SOL    HW2 2092   1.721   3.520   1.132
  693SOL     OW 2093   1.252   3.593   1.128
  693SOL    HW1 2094   1.336   3.598   1.074
  693SOL    HW2 2095   1.229   3.497   1.146
  694SOL     OW 2096   0.083   3.120   1.022
  694SOL    HW1 2097   0.078   3.119   1.122
  694SOL    HW2 2098   0.000   3.079   0.984
  695SOL     OW 2099   0.688   3.524   1.716
  695SOL    HW1 2100   0.632   3.605   1.725
  695SOL    HW2 2101   0.740   3.528   1.630
  696SOL     OW 2102   0.903   1.948   0.133
  696SOL    HW1 2103   0.954   1.949   0.047
  696SOL    HW2 2104   0.959   1.906   0.204
  697SOL     OW 2105   1.726   1.997   0.523
  697SOL    HW1 2106   1.799   1.980   0.456
  697SOL    HW2 2107   1.695   1.910   0.561
  698SOL     OW 2108   1.388   3.435   0.477
  698SOL    HW1 2109   1.455   3.447   0.403
  698SOL    HW2 2110   1.348   3.524   0.500
  699SOL     OW 2111   0.130   3.656   1.851
  699SOL    HW1 2112   0.089   3.582   1.904
  699SOL    HW2 2113   0.194   3.707   1.909
  700SOL     OW 2114   1.280   2.789   0.672
  700SOL    HW1 2115   1.340   2.708   0.674
  700SOL    HW2 2116   1.320   2.858   0.612
  701SOL     OW 2117   0.830   3.135   1.422
  701SOL    HW1 2118   0.825   3.168   1.517
  701SOL    HW2 2119   0.744   3.154   1.376
  702SOL     OW 2120   0.672   3.478   0.154
  702SOL    HW1 2121   0.681   3.488   0.055
  702SOL    HW2 2122   0.632   3.389   0.175
  703SOL     OW 2123   1.650   3.582   1.394
  703SOL    HW1 2124   1.703   3.592   1.310
  703SOL    HW2 2125   1.623   3.672   1.428
  704SOL     OW 2126   1.841   2.037   0.963
  704SOL    HW1 2127   1.880   1.952   0.927
  704SOL    HW2 2128   1.743   2.039   0.944
  705SOL     OW 2129   0.263   2.188   0.720
  705SOL    HW1 2130   0.184   2.239   0.686
  705SOL    HW2 2131   0.254   2.173   0.818
  706SOL     OW 2132   1.194   3.474   0.031
  706SOL    HW1 2133   1.200   3.381   0.068
  706SOL    HW2 2134   1.135   3.474  -0.049
  707SOL     OW 2135   0.822   2.864   1.372
  707SOL    HW1 2136   0.862   2.863   1.280
  707SOL    HW2 2137   0.832   2.956   1.412
  708SOL     OW 2138   0.916   2.772   0.291
  708SOL    HW1 2139   0.979   2.810   0.223
  708SOL    HW2 2140   0.956   2.689   0.330
  709SOL     OW 2141   1.504   3.469   0.044
  709SOL    HW1 2142   1.412   3.506   0.051
  709SOL    HW2 2143   1.542   3.489  -0.046
  710SOL     OW 2144   0.372   3.150   1.490
  710SOL    HW1 2145   0.359   3.243   1.456
  710SOL    HW2 2146   0.288   3.098   1.477
  711SOL     OW 2147   1.614   3.154   1.289
  711SOL    HW1 2148   1.674   3.157   1.369
  711SOL    HW2 2149   1.539   3.218   1.302
  712SOL     OW 2150   1.039   2.960   0.696
  712SOL    HW1 2151   0.969   2.913   0.750
  712SOL    HW2 2152   1.098   2.892   0.653
  713SOL     OW 2153   1.014   2.098   0.971
  713SOL    HW1 2154   1.006   2.062   0.878
  713SOL    HW2 2155   1.012   2.022   1.036
  714SOL     OW 2156   0.590   3.349   0.491
  714SOL    HW1 2157   0.632   3.291   0.421
  714SOL    HW2 2158   0.546   3.428   0.447
  715SOL     OW 2159   1.709   2.247   1.381
  715SOL    HW1 2160   1.782   2.316   1.385
  715SOL    HW2 2161   1.737   2.172   1.322
  716SOL     OW 2162   0.255   3.210   0.290
  716SOL    HW1 2163   0.159   3.211   0.263
  716SOL    HW2 2164   0.267   3.263   0.374
  717SOL     OW 2165   0.105   2.875   1.726
  717SOL    HW1 2166   0.028   2.842   1.780
  717SOL    HW2 2167   0.190   2.845   1.768
  718SOL     OW 2168   0.672   2.065   1.489
  718SOL    HW1 2169   0.762   2.049   1.449
  718SOL    HW2 2170   0.680   2.070   1.588
  719SOL     OW 2171   0.075   2.207   0.033
  719SOL    HW1 2172  -0.017   2.179   0.004
  719SOL    HW2 2173   0.106   2.284  -0.023
  720SOL     OW 2174   1.440   2.718   1.398
  720SOL    HW1 2175   1.383   2.770   1.335
  720SOL    HW2 2176   1.536   2.730   1.374
  721SOL     OW 2177   0.072   2.028   0.318
  721SOL    HW1 2178   0.055   2.111   0.264
  721SOL    HW2 2179   0.162   1.991   0.296
  722SOL     OW 2180   1.183   3.197   0.119
  722SOL    HW1 2181   1.084   3.186   0.121
  722SOL    HW2 2182   1.217   3.212   0.212
  723SOL     OW 2183   0.613   2.704   1.431
  723SOL    HW1 2184   0.669   2.785   1.414
  723SOL    HW2 2185   0.672   2.624   1.434
  724SOL     OW 2186   1.493   3.629   0.959
  724SOL    HW1 2187   1.526   3.693   0.890
  724SOL    HW2 2188   1.559   3.623   1.034
  725SOL     OW 2189   0.716   2.427   1.708
  725SOL    HW1 2190   0.735   2.492   1.782
  725SOL    HW2 2191   0.776   2.347   1.717
  726SOL     OW 2192   1.450   3.082   1.633
  726SOL    HW1 2193   1.441   3.072   1.732
  726SOL    HW2 2194   1.546   3.075   1.607
  727SOL     OW 2195   0.390   3.603   1.560
  727SOL    HW1 2196   0.299   3.644   1.558
  727SOL    HW2 2197   0.383   3.509   1.592
  728SOL     OW 2198   1.674   2.745   1.254
  728SOL    HW1 2199   1.647   2.656   1.217
  728SOL    HW2 2200   1.675   2.813   1.181
  729SOL     OW 2201   1.225   2.187   0.449
  729SOL    HW1 2202   1.290   2.113   0.438
  729SOL    HW2 2203   1.245   2.237   0.533
  730SOL     OW 2204   0.594   2.607   0.652
  730SOL    HW1 2205   0.644   2.692   0.633
  730SOL    HW2 2206   0.506   2.609   0.604
  731SOL     OW 2207   1.777   2.204   1.642
  731SOL    HW1 2208   1.760   2.235   1.548
  731SOL    HW2 2209   1.693   2.167   1.680
  732SOL     OW 2210   1.730   2.796   1.517
  732SOL    HW1 2211   1.768   2.887   1.532
  732SOL    HW2 2212   1.722   2.779   1.418
  733SOL     OW 2213   0.859   3.236   0.016
  733SOL    HW1 2214   0.813   3.251   0.104
  733SOL    HW2 2215   0.903   3.321  -0.014
  734SOL     OW 2216   0.661   3.652   0.953
  734SOL    HW1 2217   0.615   3.740   0.940
  734SOL    HW2 2218   0.760   3.664   0.946
  735SOL     OW 2219   0.859   2.818   0.861
  735SOL    HW1 2220   0.913   2.749   0.909
  735SOL    HW2 2221   0.827   2.887   0.927
  736SOL     OW 2222   1.083   2.846   0.087
  736SOL    HW1 2223   1.060   2.899   0.005
  736SOL    HW2 2224   1.164   2.790   0.068
  737SOL     OW 2225   1.861   3.431   0.851
  737SOL    HW1 2226   1.790   3.419   0.781
  737SOL    HW2 2227   1.862   3.352   0.911
  738SOL     OW 2228   0.221   3.176   1.844
  738SOL    HW1 2229   0.156   3.103   1.823
  738SOL    HW2 2230   0.225   3.190   1.942
  739SOL     OW 2231   0.079   3.102   0.653
  739SOL    HW1 2232   0.078   3.055   0.741
  739SOL    HW2 2233   0.161   3.074   0.602
  740SOL     OW 2234   0.672   3.253   1.624
  740SOL    HW1 2235   0.594   3.203   1.662
  740SOL    HW2 2236   0.669   3.348   1.655
  741SOL     OW 2237   1.824   2.054   1.227
  741SOL    HW1 2238   1.820   1.964   1.271
  741SOL    HW2 2239   1.827   2.043   1.128
  742SOL     OW 2240   0.428   2.286   0.520
  742SOL    HW1 2241   0.458   2.214   0.458
  742SOL    HW2 2242   0.389   2.246   0.603
  743SOL     OW 2243   1.705   3.349   1.104
  743SOL    HW1 2244   1.612   3.324   1.077
  743SOL    HW2 2245   1.731   3.299   1.186
  744SOL     OW 2246   0.317   2.409   1.280
  744SOL    HW1 2247   0.355   2.350   1.352
  744SOL    HW2 2248   0.357   2.383   1.192
  745SOL     OW 2249   0.812   3.448   0.687
  745SOL    HW1 2250   0.844   3.458   0.593
  745SOL    HW2 2251   0.733   3.386   0.689
  746SOL     OW 2252   1.424   2.076   1.112
  746SOL    HW1 2253   1.476   2.011   1.167
  746SOL    HW2 2254   1.375   2.139   1.173
  747SOL     OW 2255   1.001   1.896   1.154
  747SOL    HW1 2256   0.938   1.824   1.123
  747SOL    HW2 2257   1.094   1.860   1.154
  748SOL     OW 2258   0.770   3.192   0.301
  748SOL    HW1 2259   0.724   3.105   0.318
  748SOL    HW2 2260   0.861   3.189   0.342
  749SOL     OW 2261   0.618   3.429   1.284
  749SOL    HW1 2262   0.613   3.511   1.341
  749SOL    HW2 2263   0.707   3.426   1.239
  750SOL     OW 2264   1.352   1.914   0.168
  750SOL    HW1 2265   1.387   1.873   0.084
  750SOL    HW2 2266   1.262   1.876   0.188
  751SOL     OW 2267   1.300   2.315   0.691
  751SOL    HW1 2268   1.241   2.395   0.695
  751SOL    HW2 2269   1.315   2.280   0.784
  752SOL     OW 2270   1.593   2.083   0.882
  752SOL    HW1 2271   1.509   2.082   0.936
  752SOL    HW2 2272   1.595   2.166   0.826
  753SOL     OW 2273   0.039   2.939   0.300
  753SOL    HW1 2274   0.138   2.928   0.291
  753SOL    HW2 2275  -0.001   2.853   0.332
  754SOL     OW 2276   0.875   3.508   0.337
  754SOL    HW1 2277   0.798   3.473   0.283
  754SOL    HW2 2278   0.843   3.579   0.399
  755SOL     OW 2279   0.230   2.490   1.975
  755SOL    HW1 2280   0.137   2.488   2.012
  755SOL    HW2 2281   0.231   2.451   1.883
  756SOL     OW 2282   0.225   2.137   2.858
  756SOL    HW1 2283   0.260   2.120   2.950
  756SOL    HW2 2284   0.137   2.092   2.846
  757SOL     OW 2285   0.019   2.230   2.509
  757SOL    HW1 2286  -0.063   2.273   2.548
  757SOL    HW2 2287  -0.009   2.157   2.446
  758SOL     OW 2288   0.569   3.137   3.027
  758SOL    HW1 2289   0.476   3.130   2.990
  758SOL    HW2 2290   0.580   3.226   3.071
  759SOL     OW 2291   1.555   3.373   2.565
  759SOL    HW1 2292   1.498   3.357   2.646
  759SOL    HW2 2293   1.496   3.383   2.485
  760SOL     OW 2294   1.135   2.565   2.579
  760SOL    HW1 2295   1.192   2.643   2.554
  760SOL    HW2 2296   1.075   2.591   2.655
  761SOL     OW 2297   1.755   2.469   2.093
  761SOL    HW1 2298   1.743   2.456   1.994
  761SOL    HW2 2299   1.725   2.388   2.142
  762SOL     OW 2300   0.768   3.006   2.885
  762SOL    HW1 2301   0.690   3.023   2.945
  762SOL    HW2 2302   0.802   3.093   2.849
  763SOL     OW 2303   0.850   2.660   3.685
  763SOL    HW1 2304   0.846   2.736   3.750
  763SOL    HW2 2305   0.872   2.696   3.594
  764SOL     OW 2306   0.685   2.874   2.527
  764SOL    HW1 2307   0.754   2.858   2.597
  764SOL    HW2 2308   0.612   2.931   2.565
  765SOL     OW 2309   0.686   3.023   3.665
  765SOL    HW1 2310   0.746   3.102   3.679
  765SOL    HW2 2311   0.600   3.054   3.624
  766SOL     OW 2312   0.335   3.297   2.923
  766SOL    HW1 2313   0.257   3.266   2.870
  766SOL    HW2 2314   0.393   3.355   2.866
  767SOL     OW 2315   1.460   3.367   3.201
  767SOL    HW1 2316   1.484   3.461   3.227
  767SOL    HW2 2317   1.444   3.313   3.283
  768SOL     OW 2318   0.438   2.254   3.361
  768SOL    HW1 2319   0.520   2.198   3.370
  768SOL    HW2 2320   0.357   2.196   3.365
  769SOL     OW 2321   1.603   2.309   2.599
  769SOL    HW1 2322   1.529   2.355   2.549
  769SOL    HW2 2323   1.654   2.377   2.652
  770SOL     OW 2324   0.231   3.575   2.345
  770SOL    HW1 2325   0.265   3.652   2.399
  770SOL    HW2 2326   0.275   3.575   2.255
  771SOL     OW 2327   1.127   3.203   3.552
  771SOL    HW1 2328   1.174   3.203   3.640
  771SOL    HW2 2329   1.079   3.116   3.541
  772SOL     OW 2330   0.230   3.296   2.400
  772SOL    HW1 2331   0.204   3.392   2.400
  772SOL    HW2 2332   0.159   3.242   2.445
  773SOL     OW 2333   0.240   2.953   2.748
  773SOL    HW1 2334   0.254   2.869   2.800
  773SOL    HW2 2335   0.185   3.017   2.803
  774SOL     OW 2336   0.620   3.648   3.301
  774SOL    HW1 2337   0.528   3.631   3.336
  774SOL    HW2 2338   0.648   3.740   3.327
  775SOL     OW 2339   0.606   2.826   1.985
  775SOL    HW1 2340   0.613   2.910   1.931
  775SOL    HW2 2341   0.652   2.839   2.073
  776SOL     OW 2342   1.594   1.976   3.342
  776SOL    HW1 2343   1.576   2.043   3.270
  776SOL    HW2 2344   1.591   2.022   3.431
  777SOL     OW 2345   0.122   2.505   2.425
  777SOL    HW1 2346   0.077   2.417   2.442
  777SOL    HW2 2347   0.121   2.559   2.509
  778SOL     OW 2348   1.842   3.629   2.221
  778SOL    HW1 2349   1.896   3.600   2.301
  778SOL    HW2 2350   1.872   3.719   2.192
  779SOL     OW 2351   0.027   3.458   1.979
  779SOL    HW1 2352   0.008   3.362   2.000
  779SOL    HW2 2353  -0.006   3.516   2.054
  780SOL     OW 2354   1.689   2.784   2.474
  780SOL    HW1 2355   1.784   2.755   2.482
  780SOL    HW2 2356   1.681   2.849   2.399
  781SOL     OW 2357   1.641   2.970   2.294
  781SOL    HW1 2358   1.727   2.972   2.242
  781SOL    HW2 2359   1.655   3.017   2.382
  782SOL     OW 2360   0.113   2.599   3.459
  782SOL    HW1 2361   0.201   2.586   3.504
  782SOL    HW2 2362   0.100   2.696   3.437
  783SOL     OW 2363   0.613   3.227   2.588
  783SOL    HW1 2364   0.564   3.140   2.597
  783SOL    HW2 2365   0.590   3.270   2.501
  784SOL     OW 2366   1.293   3.090   3.285
  784SOL    HW1 2367   1.330   3.017   3.227
  784SOL    HW2 2368   1.345   3.095   3.370
  785SOL     OW 2369   0.809   1.866   2.364
  785SOL    HW1 2370   0.849   1.957   2.355
  785SOL    HW2 2371   0.709   1.874   2.370
  786SOL     OW 2372   0.197   2.838   3.126
  786SOL    HW1 2373   0.286   2.793   3.112
  786SOL    HW2 2374   0.124   2.773   3.107
  787SOL     OW 2375   1.525   2.861   2.052
  787SOL    HW1 2376   1.462   2.785   2.065
  787SOL    HW2 2377   1.573   2.879   2.138
  788SOL     OW 2378   1.187   3.654   3.478
  788SOL    HW1 2379   1.211   3.714   3.402
  788SOL    HW2 2380   1.194   3.559   3.448
  789SOL     OW 2381   0.317   2.113   3.663
  789SOL    HW1 2382   0.388   2.184   3.669
  789SOL    HW2 2383   0.229   2.152   3.691
  790SOL     OW 2384   1.466   3.279   2.815
  790SOL    HW1 2385   1.407   3.285   2.895
  790SOL    HW2 2386   1.451   3.191   2.769
  791SOL     OW 2387   1.667   3.576   2.434
  791SOL    HW1 2388   1.626   3.553   2.346
  791SOL    HW2 2389   1.649   3.502   2.499
  792SOL     OW 2390   0.598   2.591   2.132
  792SOL    HW1 2391   0.622   2.660   2.064
  792SOL    HW2 2392   0.520   2.624   2.186
  793SOL     OW 2393   1.281   2.207   2.806
  793SOL    HW1 2394   1.195   2.157   2.793
  793SOL    HW2 2395   1.343   2.153   2.862
  794SOL     OW 2396   1.576   3.524   2.169
  794SOL    HW1 2397   1.665   3.570   2.172
  794SOL    HW2 2398   1.555   3.500   2.074
  795SOL     OW 2399   0.807   2.467   3.327
  795SOL    HW1 2400   0.760   2.464   3.416
  795SOL    HW2 2401   0.756   2.412   3.261
  796SOL     OW 2402   1.394   2.331   3.536
  796SOL    HW1 2403   1.374   2.374   3.624
  796SOL    HW2 2404   1.472   2.269   3.545
  797SOL     OW 2405   0.973   2.752   3.434
  797SOL    HW1 2406   1.019   2.668   3.405
  797SOL    HW2 2407   0.917   2.786   3.359
  798SOL     OW 2408   0.991   2.272   3.104
  798SOL    HW1 2409   0.914   2.306   3.158
  798SOL    HW2 2410   0.957   2.221   3.025
  799SOL     OW 2411   1.041   2.563   2.291
  799SOL    HW1 2412   1.067   2.559   2.387
  799SOL    HW2 2413   0.956   2.512   2.277
  800SOL     OW 2414   0.076   2.673   2.651
  800SOL    HW1 2415   0.175   2.661   2.660
  800SOL    HW2 2416   0.052   2.768   2.672
  801SOL     OW 2417   0.130   3.683   3.433
  801SOL    HW1 2418   0.120   3.668   3.532
  801SOL    HW2 2419   0.044   3.719   3.397
  802SOL     OW 2420   0.865   2.210   2.057
  802SOL    HW1 2421   0.924   2.273   2.008
  802SOL    HW2 2422   0.884   2.116   2.028
  803SOL     OW 2423   1.719   2.447   3.693
  803SOL    HW1 2424   1.693   2.536   3.657
  803SOL    HW2 2425   1.717   2.379   3.620
  804SOL     OW 2426   1.362   3.006   2.407
  804SOL    HW1 2427   1.445   2.977   2.359
  804SOL    HW2 2428   1.313   3.073   2.351
  805SOL     OW 2429   0.550   2.058   2.747
  805SOL    HW1 2430   0.545   2.053   2.847
  805SOL    HW2 2431   0.552   2.154   2.718
  806SOL     OW 2432   1.008   3.318   2.339
  806SOL    HW1 2433   0.962   3.390   2.287
  806SOL    HW2 2434   1.004   3.338   2.437
  807SOL     OW 2435   0.351   3.663   2.715
  807SOL    HW1 2436   0.401   3.577   2.721
  807SOL    HW2 2437   0.416   3.740   2.712
  808SOL     OW 2438   1.795   2.928   2.735
  808SOL    HW1 2439   1.733   2.913   2.659
  808SOL    HW2 2440   1.743   2.939   2.820
  809SOL     OW 2441   1.227   3.412   3.368
  809SOL    HW1 2442   1.233   3.335   3.432
  809SOL    HW2 2443   1.175   3.386   3.288
  810SOL     OW 2444   0.321   2.805   2.104
  810SOL    HW1 2445   0.403   2.844   2.062
  810SOL    HW2 2446   0.294   2.723   2.055
  811SOL     OW 2447   1.458   2.597   2.590
  811SOL    HW1 2448   1.453   2.532   2.665
  811SOL    HW2 2449   1.538   2.656   2.603
  812SOL     OW 2450   0.461   3.128   3.589
  812SOL    HW1 2451   0.411   3.129   3.503
  812SOL    HW2 2452   0.398   3.110   3.665
  813SOL     OW 2453   1.111   3.638   2.099
  813SOL    HW1 2454   1.051   3.576   2.149
  813SOL    HW2 2455   1.142   3.594   2.014
  814SOL     OW 2456   0.202   2.147   3.360
  814SOL    HW1 2457   0.122   2.207   3.347
  814SOL    HW2 2458   0.192   2.098   3.446
  815SOL     OW 2459   1.632   3.239   1.943
  815SOL    HW1 2460   1.600   3.333   1.933
  815SOL    HW2 2461   1.556   3.176   1.931
  816SOL     OW 2462   0.464   3.605   2.185
  816SOL    HW1 2463   0.497   3.644   2.271
  816SOL    HW2 2464   0.540   3.598   2.120
  817SOL     OW 2465   1.400   1.969   2.288
  817SOL    HW1 2466   1.376   1.932   2.198
  817SOL    HW2 2467   1.499   1.985   2.292
  818SOL     OW 2468   0.249   3.647   3.103
  818SOL    HW1 2469   0.306   3.582   3.153
  818SOL    HW2 2470   0.233   3.614   3.010
  819SOL     OW 2471   0.940   3.560   2.766
  819SOL    HW1 2472   1.020   3.503   2.787
  819SOL    HW2 2473   0.891   3.520   2.689
  820SOL     OW 2474   0.382   2.562   2.342
  820SOL    HW1 2475   0.427   2.472   2.339
  820SOL    HW2 2476   0.288   2.551   2.375
  821SOL     OW 2477   1.547   2.084   3.591
  821SOL    HW1 2478   1.542   2.121   3.683
  821SOL    HW2 2479   1.475   2.015   3.579
  822SOL     OW 2480   0.614   1.984   1.979
  822SOL    HW1 2481   0.712   1.962   1.986
  822SOL    HW2 2482   0.583   1.967   1.886
  823SOL     OW 2483   0.781   2.126   3.611
  823SOL    HW1 2484   0.848   2.065   3.654
  823SOL    HW2 2485   0.708   2.145   3.676
  824SOL     OW 2486   0.888   3.376   3.057
  824SOL    HW1 2487   0.865   3.351   2.963
  824SOL    HW2 2488   0.949   3.307   3.096
  825SOL     OW 2489   1.351   2.452   3.295
  825SOL    HW1 2490   1.379   2.409   3.380
  825SOL    HW2 2491   1.376   2.548   3.296
  826SOL     OW 2492   0.803   3.264   2.786
  826SOL    HW1 2493   0.893   3.278   2.744
  826SOL    HW2 2494   0.732   3.266   2.715
  827SOL     OW 2495   0.922   2.365   2.761
  827SOL    HW1 2496   0.897   2.356   2.665
  827SOL    HW2 2497   0.970   2.283   2.792
  828SOL     OW 2498   0.539   1.926   2.374
  828SOL    HW1 2499   0.458   1.927   2.432
  828SOL    HW2 2500   0.542   2.009   2.319
  829SOL     OW 2501   1.434   3.050   1.903
  829SOL    HW1 2502   1.466   2.974   1.960
  829SOL    HW2 2503   1.342   3.077   1.933
  830SOL     OW 2504   0.297   1.897   2.033
  830SOL    HW1 2505   0.346   1.981   2.012
  830SOL    HW2 2506   0.359   1.832   2.078
  831SOL     OW 2507   0.935   2.098   2.342
  831SOL    HW1 2508   0.887   2.139   2.264
  831SOL    HW2 2509   1.034   2.096   2.323
  832SOL     OW 2510   1.076   2.545   3.326
  832SOL    HW1 2511   0.996   2.484   3.329
  832SOL    HW2 2512   1.157   2.492   3.302
  833SOL     OW 2513   1.227   3.432   2.655
  833SOL    HW1 2514   1.248   3.506   2.590
  833SOL    HW2 2515   1.295   3.432   2.728
  834SOL     OW 2516   0.459   3.014   2.603
  834SOL    HW1 2517   0.388   2.987   2.668
  834SOL    HW2 2518   0.433   2.986   2.510
  835SOL     OW 2519   1.271   3.659   2.453
  835SOL    HW1 2520   1.315   3.723   2.389
  835SOL    HW2 2521   1.221   3.711   2.523
  836SOL     OW 2522   1.032   2.411   1.878
  836SOL    HW1 2523   0.991   2.493   1.839
  836SOL    HW2 2524   1.096   2.437   1.951
  837SOL     OW 2525   0.078   2.418   3.248
  837SOL    HW1 2526   0.170   2.417   3.207
  837SOL    HW2 2527   0.072   2.492   3.315
  838SOL     OW 2528   0.561   2.084   3.009
  838SOL    HW1 2529   0.599   2.000   3.046
  838SOL    HW2 2530   0.473   2.103   3.053
  839SOL     OW 2531   0.866   2.316   2.504
  839SOL    HW1 2532   0.834   2.388   2.442
  839SOL    HW2 2533   0.890   2.235   2.451
  840SOL     OW 2534   1.017   1.901   2.615
  840SOL    HW1 2535   0.945   1.906   2.546
  840SOL    HW2 2536   0.993   1.832   2.684
  841SOL     OW 2537   1.429   3.035   2.729
  841SOL    HW1 2538   1.374   2.951   2.722
  841SOL    HW2 2539   1.455   3.064   2.637
  842SOL     OW 2540   1.466   2.452   2.854
  842SOL    HW1 2541   1.436   2.357   2.861
  842SOL    HW2 2542   1.539   2.468   2.920
  843SOL     OW 2543   1.857   2.695   2.239
  843SOL    HW1 2544   1.899   2.631   2.303
  843SOL    HW2 2545   1.819   2.644   2.161
  844SOL     OW 2546   0.488   3.247   2.036
  844SOL    HW1 2547   0.401   3.232   2.083
  844SOL    HW2 2548   0.471   3.273   1.941
  845SOL     OW 2549   1.664   3.142   2.519
  845SOL    HW1 2550   1.763   3.150   2.533
  845SOL    HW2 2551   1.619   3.226   2.550
  846SOL     OW 2552   1.390   2.437   1.940
  846SOL    HW1 2553   1.336   2.416   2.021
  846SOL    HW2 2554   1.481   2.396   1.949
  847SOL     OW 2555   0.527   2.118   2.190
  847SOL    HW1 2556   0.554   2.059   2.115
  847SOL    HW2 2557   0.527   2.213   2.159
  848SOL     OW 2558   1.754   3.085   3.450
  848SOL    HW1 2559   1.845   3.046   3.437
  848SOL    HW2 2560   1.762   3.181   3.474
  849SOL     OW 2561   1.064   3.209   3.202
  849SOL    HW1 2562   0.984   3.186   3.257
  849SOL    HW2 2563   1.147   3.183   3.251
  850SOL     OW 2564   1.592   3.491   3.487
  850SOL    HW1 2565   1.619   3.525   3.397
  850SOL    HW2 2566   1.671   3.453   3.533
  851SOL     OW 2567   1.111   3.057   2.962
  851SOL    HW1 2568   1.071   3.101   3.043
  851SOL    HW2 2569   1.070   3.094   2.879
  852SOL     OW 2570   1.638   2.961   2.941
  852SOL    HW1 2571   1.643   3.042   3.000
  852SOL    HW2 2572   1.552   2.963   2.890
  853SOL     OW 2573   0.915   1.951   3.264
  853SOL    HW1 2574   0.940   1.931   3.169
  853SOL    HW2 2575   0.987   2.007   3.306
  854SOL     OW 2576   0.980   2.978   3.581
  854SOL    HW1 2577   0.881   2.984   3.591
  854SOL    HW2 2578   1.003   2.898   3.525
  855SOL     OW 2579   0.705   2.912   2.230
  855SOL    HW1 2580   0.691   2.919   2.329
  855SOL    HW2 2581   0.789   2.861   2.212
  856SOL     OW 2582   0.410   2.675   3.113
  856SOL    HW1 2583   0.496   2.687   3.163
  856SOL    HW2 2584   0.368   2.588   3.140
  857SOL     OW 2585   1.274   2.248   3.124
  857SOL    HW1 2586   1.295   2.322   3.188
  857SOL    HW2 2587   1.185   2.265   3.081
  858SOL     OW 2588   0.064   3.426   3.193
  858SOL    HW1 2589   0.018   3.508   3.159
  858SOL    HW2 2590   0.162   3.445   3.202
  859SOL     OW 2591   0.367   2.962   2.363
  859SOL    HW1 2592   0.360   3.045   2.307
  859SOL    HW2 2593   0.371   2.882   2.303
  860SOL     OW 2594   0.566   2.399   2.727
  860SOL    HW1 2595   0.578   2.465   2.653
  860SOL    HW2 2596   0.612   2.433   2.810
  861SOL     OW 2597   1.252   3.210   2.250
  861SOL    HW1 2598   1.302   3.287   2.290
  861SOL    HW2 2599   1.157   3.212   2.282
  862SOL     OW 2600   1.272   3.307   3.004
  862SOL    HW1 2601   1.319   3.320   3.091
  862SOL    HW2 2602   1.206   3.233   3.013
  863SOL     OW 2603   1.582   2.501   2.334
  863SOL    HW1 2604   1.551   2.562   2.407
  863SOL    HW2 2605   1.632   2.553   2.265
  864SOL     OW 2606   0.354   3.372   3.191
  864SOL    HW1 2607   0.333   3.328   3.104
  864SOL    HW2 2608   0.451   3.398   3.194
  865SOL     OW 2609   0.402   2.613   3.460
  865SOL    HW1 2610   0.470   2.668   3.413
  865SOL    HW2 2611   0.442   2.525   3.487
  866SOL     OW 2612   1.587   2.641   3.532
  866SOL    HW1 2613   1.495   2.679   3.527
  866SOL    HW2 2614   1.647   2.688   3.467
  867SOL     OW 2615   1.013   1.967   3.632
  867SOL    HW1 2616   1.019   2.052   3.580
  867SOL    HW2 2617   1.045   1.891   3.575
  868SOL     OW 2618   0.504   1.912   3.602
  868SOL    HW1 2619   0.462   1.855   3.532
  868SOL    HW2 2620   0.438   1.981   3.634
  869SOL     OW 2621   0.573   2.732   2.891
  869SOL    HW1 2622   0.617   2.821   2.882
  869SOL    HW2 2623   0.510   2.732   2.968
  870SOL     OW 2624   1.360   2.724   2.907
  870SOL    HW1 2625   1.285   2.724   2.841
  870SOL    HW2 2626   1.397   2.632   2.916
  871SOL     OW 2627   1.209   2.387   2.137
  871SOL    HW1 2628   1.222   2.303   2.191
  871SOL    HW2 2629   1.180   2.461   2.197
  872SOL     OW 2630   0.307   2.075   3.093
  872SOL    HW1 2631   0.284   2.112   3.183
  872SOL    HW2 2632   0.277   1.980   3.087
  873SOL     OW 2633   0.037   3.172   3.144
  873SOL    HW1 2634   0.090   3.123   3.212
  873SOL    HW2 2635   0.059   3.270   3.149
  874SOL     OW 2636   0.732   2.496   2.926
  874SOL    HW1 2637   0.791   2.470   2.850
  874SOL    HW2 2638   0.704   2.592   2.915
  875SOL     OW 2639   1.728   2.797   3.716
  875SOL    HW1 2640   1.682   2.790   3.627
  875SOL    HW2 2641   1.666   2.841   3.782
  876SOL     OW 2642   0.307   1.925   2.480
  876SOL    HW1 2643   0.296   2.019   2.513
  876SOL    HW2 2644   0.302   1.862   2.557
  877SOL     OW 2645   1.622   2.229   2.236
  877SOL    HW1 2646   1.624   2.153   2.300
  877SOL    HW2 2647   1.574   2.306   2.276
  878SOL     OW 2648   1.023   2.628   2.828
  878SOL    HW1 2649   1.038   2.649   2.924
  878SOL    HW2 2650   0.993   2.533   2.819
  879SOL     OW 2651   0.980   3.435   3.562
  879SOL    HW1 2652   0.960   3.479   3.474
  879SOL    HW2 2653   1.019   3.344   3.546
  880SOL     OW 2654   1.859   3.380   3.467
  880SOL    HW1 2655   1.873   3.407   3.372
  880SOL    HW2 2656   1.942   3.402   3.520
  881SOL     OW 2657   0.350   2.760   3.666
  881SOL    HW1 2658   0.426   2.804   3.714
  881SOL    HW2 2659   0.385   2.713   3.584
  882SOL     OW 2660   1.540   2.136   1.987
  882SOL    HW1 2661   1.479   2.061   2.010
  882SOL    HW2 2662   1.562   2.188   2.070
  883SOL     OW 2663   1.303   2.700   1.904
  883SOL    HW1 2664   1.337   2.607   1.919
  883SOL    HW2 2665   1.321   2.727   1.809
  884SOL     OW 2666   1.068   3.195   2.711
  884SOL    HW1 2667   1.075   3.111   2.656
  884SOL    HW2 2668   1.130   3.264   2.675
  885SOL     OW 2669   0.319   2.672   2.811
  885SOL    HW1 2670   0.412   2.708   2.816
  885SOL    HW2 2671   0.313   2.587   2.863
  886SOL     OW 2672   0.339   2.371   2.868
  886SOL    HW1 2673   0.287   2.288   2.851
  886SOL    HW2 2674   0.416   2.376   2.804
  887SOL     OW 2675   1.138   2.242   3.540
  887SOL    HW1 2676   1.093   2.305   3.604
  887SOL    HW2 2677   1.231   2.273   3.523
  888SOL     OW 2678   1.160   2.069   3.339
  888SOL    HW1 2679   1.160   2.133   3.416
  888SOL    HW2 2680   1.188   2.117   3.256
  889SOL     OW 2681   0.008   3.188   2.062
  889SOL    HW1 2682  -0.085   3.209   2.031
  889SOL    HW2 2683   0.018   3.089   2.075
  890SOL     OW 2684   0.088   3.663   2.789
  890SOL    HW1 2685   0.046   3.577   2.762
  890SOL    HW2 2686   0.182   3.666   2.755
  891SOL     OW 2687   0.504   3.430   2.772
  891SOL    HW1 2688   0.570   3.504   2.781
  891SOL    HW2 2689   0.548   3.351   2.730
  892SOL     OW 2690   1.002   2.658   3.100
  892SOL    HW1 2691   1.043   2.626   3.186
  892SOL    HW2 2692   0.906   2.631   3.097
  893SOL     OW 2693   0.040   2.406   2.976
  893SOL    HW1 2694   0.125   2.373   2.935
  893SOL    HW2 2695   0.053   2.421   3.074
  894SOL     OW 2696   0.189   2.382   3.584
  894SOL    HW1 2697   0.248   2.342   3.514
  894SOL    HW2 2698   0.131   2.453   3.543
  895SOL     OW 2699   1.369   2.812   3.522
  895SOL    HW1 2700   1.408   2.901   3.542
  895SOL    HW2 2701   1.379   2.792   3.425
  896SOL     OW 2702   0.815   2.434   2.187
  896SOL    HW1 2703   0.822   2.345   2.141
  896SOL    HW2 2704   0.721   2.468   2.179
  897SOL     OW 2705   1.657   2.466   3.068
  897SOL    HW1 2706   1.619   2.397   3.130
  897SOL    HW2 2707   1.739   2.430   3.024
  898SOL     OW 2708   0.252   3.426   3.606
  898SOL    HW1 2709   0.222   3.483   3.682
  898SOL    HW2 2710   0.245   3.329   3.632
  899SOL     OW 2711   0.671   2.326   3.131
  899SOL    HW1 2712   0.637   2.237   3.101
  899SOL    HW2 2713   0.697   2.380   3.051
  900SOL     OW 2714   0.930   3.540   3.327
  900SOL    HW1 2715   0.906   3.522   3.232
  900SOL    HW2 2716   0.960   3.634   3.337
  901SOL     OW 2717   0.473   2.362   2.053
  901SOL    HW1 2718   0.534   2.442   2.057
  901SOL    HW2 2719   0.378   2.393   2.060
  902SOL     OW 2720   0.159   2.999   3.328
  902SOL    HW1 2721   0.181   2.938   3.404
  902SOL    HW2 2722   0.169   2.950   3.242
  903SOL     OW 2723   1.347   2.921   3.096
  903SOL    HW1 2724   1.371   2.858   3.022
  903SOL    HW2 2725   1.257   2.961   3.078
  904SOL     OW 2726   1.302   2.717   2.171
  904SOL    HW1 2727   1.216   2.686   2.213
  904SOL    HW2 2728   1.298   2.703   2.072
  905SOL     OW 2729   1.759   3.609   3.016
  905SOL    HW1 2730   1.820   3.639   2.943
  905SOL    HW2 2731   1.721   3.520   2.994
  906SOL     OW 2732   1.252   3.593   2.990
  906SOL    HW1 2733   1.336   3.598   2.936
  906SOL    HW2 2734   1.229   3.497   3.008
  907SOL     OW 2735   0.083   3.120   2.884
  907SOL    HW1 2736   0.078   3.119   2.984
  907SOL    HW2 2737   0.000   3.079   2.846
  908SOL     OW 2738   0.688   3.524   3.578
  908SOL    HW1 2739   0.632   3.605   3.587
  908SOL    HW2 2740   0.740   3.528   3.492
  909SOL     OW 2741   1.726   1.997   2.385
  909SOL    HW1 2742   1.799   1.980   2.318
  909SOL    HW2 2743   1.695   1.910   2.423
  910SOL     OW 2744   1.388   3.435   2.339
  910SOL    HW1 2745   1.455   3.447   2.265
  910SOL    HW2 2746   1.348   3.524   2.362
  911SOL     OW 2747   0.130   3.656   3.713
  911SOL    HW1 2748   0.089   3.582   3.766
  911SOL    HW2 2749   0.194   3.707   3.771
  912SOL     OW 2750   1.280   2.789   2.534
  912SOL    HW1 2751   1.340   2.708   2.536
  912SOL    HW2 2752   1.320   2.858   2.474
  913SOL     OW 2753   0.830   3.135   3.284
  913SOL    HW1 2754   0.825   3.168   3.379
  913SOL    HW2 2755   0.744   3.154   3.238
  914SOL     OW 2756   0.672   3.478   2.016
  914SOL    HW1 2757   0.681   3.488   1.917
  914SOL    HW2 2758   0.632   3.389   2.037
  915SOL     OW 2759   1.650   3.582   3.256
  915SOL    HW1 2760   1.703   3.592   3.172
  915SOL    HW2 2761   1.623   3.672   3.290
  916SOL     OW 2762   1.841   2.037   2.825
  916SOL    HW1 2763   1.880   1.952   2.789
  916SOL    HW2 2764   1.743   2.039   2.806
  917SOL     OW 2765   0.263   2.188   2.582
  917SOL    HW1 2766   0.184   2.239   2.548
  917SOL    HW2 2767   0.254   2.173   2.680
  918SOL     OW 2768   1.194   3.474   1.893
  918SOL    HW1 2769   1.200   3.381   1.930
  918SOL    HW2 2770   1.135   3.474   1.813
  919SOL     OW 2771   0.822   2.864   3.234
  919SOL    HW1 2772   0.862   2.863   3.142
  919SOL    HW2 2773   0.832   2.956   3.274
  920SOL     OW 2774   0.916   2.772   2.153
  920SOL    HW1 2775   0.979   2.810   2.085
  920SOL    HW2 2776   0.956   2.689   2.192
  921SOL     OW 2777   1.504   3.469   1.906
  921SOL    HW1 2778   1.412   3.506   1.913
  921SOL    HW2 2779   1.542   3.489   1.816
  922SOL     OW 2780   0.372   3.150   3.352
  922SOL    HW1 2781   0.359   3.243   3.318
  922SOL    HW2 2782   0.288   3.098   3.339
  923SOL     OW 2783   1.614   3.154   3.151
  923SOL    HW1 2784   1.674   3.157   3.231
  923SOL    HW2 2785   1.539   3.218   3.164
  924SOL     OW 2786   1.039   2.960   2.558
  924SOL    HW1 2787   0.969   2.913   2.612
  924SOL    HW2 2788   1.098   2.892   2.515
  925SOL     OW 2789   1.014   2.098   2.833
  925SOL    HW1 2790   1.006   2.062   2.740
  925SOL    HW2 2791   1.012   2.022   2.898
  926SOL     OW 2792   0.590   3.349   2.353
  926SOL    HW1 2793   0.632   3.291   2.283
  926SOL    HW2 2794   0.546   3.428   2.309
  927SOL     OW 2795   1.709   2.247   3.243
  927SOL    HW1 2796   1.782   2.316   3.247
  927SOL    HW2 2797   1.737   2.172   3.184
  928SOL     OW 2798   0.255   3.210   2.152
  928SOL    HW1 2799   0.159   3.211   2.125
  928SOL    HW2 2800   0.267   3.263   2.236
  929SOL     OW 2801   0.105   2.875   3.588
  929SOL    HW1 2802   0.028   2.842   3.642
  929SOL    HW2 2803   0.190   2.845   3.630
  930SOL     OW 2804   0.672   2.065   3.351
  930SOL    HW1 2805   0.762   2.049   3.311
  930SOL    HW2 2806   0.680   2.070   3.450
  931SOL     OW 2807   0.075   2.207   1.895
  931SOL    HW1 2808  -0.017   2.179   1.866
  931SOL    HW2 2809   0.106   2.284   1.839
  932SOL     OW 2810   1.440   2.718   3.260
  932SOL    HW1 2811   1.383   2.770   3.197
  932SOL    HW2 2812   1.536   2.730   3.236
  933SOL     OW 2813   0.072   2.028   2.180
  933SOL    HW1 2814   0.055   2.111   2.126
  933SOL    HW2 2815   0.162   1.991   2.158
  934SOL     OW 2816   1.183   3.197   1.981
  934SOL    HW1 2817   1.084   3.186   1.983
  934SOL    HW2 2818   1.217   3.212   2.074
  935SOL     OW 2819   0.613   2.704   3.293
  935SOL    HW1 2820   0.669   2.785   3.276
  935SOL    HW2 2821   0.672   2.624   3.296
  936SOL     OW 2822   1.493   3.629   2.821
  936SOL    HW1 2823   1.526   3.693   2.752
  936SOL    HW2 2824   1.559   3.623   2.896
  937SOL     OW 2825   0.716   2.427   3.570
  937SOL    HW1 2826   0.735   2.492   3.644
  937SOL    HW2 2827   0.776   2.347   3.579
  938SOL     OW 2828   1.450   3.082   3.495
  938SOL    HW1 2829   1.441   3.072   3.594
  938SOL    HW2 2830   1.546   3.075   3.469
  939SOL     OW 2831   0.390   3.603   3.422
  939SOL    HW1 2832   0.299   3.644   3.420
  939SOL    HW2 2833   0.383   3.509   3.454
  940SOL     OW 2834   1.674   2.745   3.116
  940SOL    HW1 2835   1.647   2.656   3.079
  940SOL    HW2 2836   1.675   2.813   3.043
  941SOL     OW 2837   1.225   2.187   2.311
  941SOL    HW1 2838   1.290   2.113   2.300
  941SOL    HW2 2839   1.245   2.237   2.395
  942SOL     OW 2840   0.594   2.607   2.514
  942SOL    HW1 2841   0.644   2.692   2.495
  942SOL    HW2 2842   0.506   2.609   2.466
  943SOL     OW 2843   1.777   2.204   3.504
  943SOL    HW1 2844   1.760   2.235   3.410
  943SOL    HW2 2845   1.693   2.167   3.542
  944SOL     OW 2846   1.730   2.796   3.379
  944SOL    HW1 2847   1.768   2.887   3.394
  944SOL    HW2 2848   1.722   2.779   3.280
  945SOL     OW 2849   0.859   3.236   1.878
  945SOL    HW1 2850   0.813   3.251   1.966
  945SOL    HW2 2851   0.903   3.321   1.848
  946SOL     OW 2852   0.661   3.652   2.815
  946SOL    HW1 2853   0.615   3.740   2.802
  946SOL    HW2 2854   0.760   3.664   2.808
  947SOL     OW 2855   0.859   2.818   2.723
  947SOL    HW1 2856   0.913   2.749   2.771
  947SOL    HW2 2857   0.827   2.887   2.789
  948SOL     OW 2858   1.083   2.846   1.949
  948SOL    HW1 2859   1.060   2.899   1.867
  948SOL    HW2 2860   1.164   2.790   1.930
  949SOL     OW 2861   1.861   3.431   2.713
  949SOL    HW1 2862   1.790   3.419   2.643
  949SOL    HW2 2863   1.862   3.352   2.773
  950SOL     OW 2864   0.221   3.176   3.706
  950SOL    HW1 2865   0.156   3.103   3.685
  950SOL    HW2 2866   0.225   3.190   3.804
  951SOL     OW 2867   0.079   3.102   2.515
  951SOL    HW1 2868   0.078   3.055   2.603
  951SOL    HW2 2869   0.161   3.074   2.464
  952SOL     OW 2870   0.672   3.253   3.486
  952SOL    HW1 2871   0.594   3.203   3.524
  952SOL    HW2 2872   0.669   3.348   3.517
  953SOL     OW 2873   1.824   2.054   3.089
  953SOL    HW1 2874   1.820   1.964   3.133
  953SOL    HW2 2875   1.827   2.043   2.990
  954SOL     OW 2876   0.428   2.286   2.382
  954SOL    HW1 2877   0.458   2.214   2.320
  954SOL    HW2 2878   0.389   2.246   2.465
  955SOL     OW 2879   1.705   3.349   2.966
  955SOL    HW1 2880   1.612   3.324   2.939
  955SOL    HW2 2881   1.731   3.299   3.048
  956SOL     OW 2882   0.317   2.409   3.142
  956SOL    HW1 2883   0.355   2.350   3.214
  956SOL    HW2 2884   0.357   2.383   3.054
  957SOL     OW 2885   0.812   3.448   2.549
  957SOL    HW1 2886   0.844   3.458   2.455
  957SOL    HW2 2887   0.733   3.386   2.551
  958SOL     OW 2888   1.424   2.076   2.974
  958SOL    HW1 2889   1.476   2.011   3.029
  958SOL    HW2 2890   1.375   2.139   3.035
  959SOL     OW 2891   1.001   1.896   3.016
  959SOL    HW1 2892   0.938   1.824   2.985
  959SOL    HW2 2893   1.094   1.860   3.016
  960SOL     OW 2894   0.770   3.192   2.163
  960SOL    HW1 2895   0.724   3.105   2.180
  960SOL    HW2 2896   0.861   3.189   2.204
  961SOL     OW 2897   0.618   3.429   3.146
  961SOL    HW1 2898   0.613   3.511   3.203
  961SOL    HW2 2899   0.707   3.426   3.101
  962SOL     OW 2900   1.352   1.914   2.030
  962SOL    HW1 2901   1.387   1.873   1.946
  962SOL    HW2 2902   1.262   1.876   2.050
  963SOL     OW 2903   1.300   2.315   2.553
  963SOL    HW1 2904   1.241   2.395   2.557
  963SOL    HW2 2905   1.315   2.280   2.646
  964SOL     OW 2906   1.593   2.083   2.744
  964SOL    HW1 2907   1.509   2.082   2.798
  964SOL    HW2 2908   1.595   2.166   2.688
  965SOL     OW 2909   0.039   2.939   2.162
  965SOL    HW1 2910   0.138   2.928   2.153
  965SOL    HW2 2911  -0.001   2.853   2.194
  966SOL     OW 2912   0.875   3.508   2.199
  966SOL    HW1 2913   0.798   3.473   2.145
  966SOL    HW2 2914   0.843   3.579   2.261
  967SOL     OW 2915   0.230   2.490   3.837
  967SOL    HW1 2916   0.137   2.488   3.874
  967SOL    HW2 2917   0.231   2.451   3.745
  968SOL     OW 2918   0.225   2.137   4.720
  968SOL    HW1 2919   0.260   2.120   4.812
  968SOL    HW2 2920   0.137   2.092   4.708
  969SOL     OW 2921   0.019   2.230   4.371
  969SOL    HW1 2922  -0.063   2.273   4.410
  969SOL    HW2 2923  -0.009   2.157   4.308
  970SOL     OW 2924   1.555   3.373   4.427
  970SOL    HW1 2925   1.498   3.357   4.508
  970SOL    HW2 2926   1.496   3.383   4.347
  971SOL     OW 2927   1.135   2.565   4.441
  971SOL    HW1 2928   1.192   2.643   4.416
  971SOL    HW2 2929   1.075   2.591   4.517
  972SOL     OW 2930   1.755   2.469   3.955
  972SOL    HW1 2931   1.743   2.456   3.856
  972SOL    HW2 2932   1.725   2.388   4.004
  973SOL     OW 2933   0.768   3.006   4.747
  973SOL    HW1 2934   0.690   3.023   4.807
  973SOL    HW2 2935   0.802   3.093   4.711
  974SOL     OW 2936   0.685   2.874   4.389
  974SOL    HW1 2937   0.754   2.858   4.459
  974SOL    HW2 2938   0.612   2.931   4.427
  975SOL     OW 2939   1.603   2.309   4.461
  975SOL    HW1 2940   1.529   2.355   4.411
  975SOL    HW2 2941   1.654   2.377   4.514
  976SOL     OW 2942   0.231   3.575   4.207
  976SOL    HW1 2943   0.265   3.652   4.261
  976SOL    HW2 2944   0.275   3.575   4.117
  977SOL     OW 2945   0.230   3.296   4.262
  977SOL    HW1 2946   0.204   3.392   4.262
  977SOL    HW2 2947   0.159   3.242   4.307
  978SOL     OW 2948   0.240   2.953   4.610
  978SOL    HW1 2949   0.254   2.869   4.662
  978SOL    HW2 2950   0.185   3.017   4.665
  979SOL     OW 2951   0.606   2.826   3.847
  979SOL    HW1 2952   0.613   2.910   3.793
  979SOL    HW2 2953   0.652   2.839   3.935
  980SOL     OW 2954   0.122   2.505   4.287
  980SOL    HW1 2955   0.077   2.417   4.304
  980SOL    HW2 2956   0.121   2.559   4.371
  981SOL     OW 2957   1.842   3.629   4.083
  981SOL    HW1 2958   1.896   3.600   4.163
  981SOL    HW2 2959   1.872   3.719   4.054
  982SOL     OW 2960   0.027   3.458   3.841
  982SOL    HW1 2961   0.008   3.362   3.862
  982SOL    HW2 2962  -0.006   3.516   3.916
  983SOL     OW 2963   1.689   2.784   4.336
  983SOL    HW1 2964   1.784   2.755   4.344
  983SOL    HW2 2965   1.681   2.849   4.261
  984SOL     OW 2966   1.641   2.970   4.156
  984SOL    HW1 2967   1.727   2.972   4.104
  984SOL    HW2 2968   1.655   3.017   4.244
  985SOL     OW 2969   0.613   3.227   4.450
  985SOL    HW1 2970   0.564   3.140   4.459
  985SOL    HW2 2971   0.590   3.270   4.363
  986SOL     OW 2972   0.809   1.866   4.226
  986SOL    HW1 2973   0.849   1.957   4.217
  986SOL    HW2 2974   0.709   1.874   4.232
  987SOL     OW 2975   1.525   2.861   3.914
  987SOL    HW1 2976   1.462   2.785   3.927
  987SOL    HW2 2977   1.573   2.879   4.000
  988SOL     OW 2978   1.466   3.279   4.677
  988SOL    HW1 2979   1.407   3.285   4.757
  988SOL    HW2 2980   1.451   3.191   4.631
  989SOL     OW 2981   1.667   3.576   4.296
  989SOL    HW1 2982   1.626   3.553   4.208
  989SOL    HW2 2983   1.649   3.502   4.361
  990SOL     OW 2984   0.598   2.591   3.994
  990SOL    HW1 2985   0.622   2.660   3.926
  990SOL    HW2 2986   0.520   2.624   4.048
  991SOL     OW 2987   1.281   2.207   4.668
  991SOL    HW1 2988   1.195   2.157   4.655
  991SOL    HW2 2989   1.343   2.153   4.724
  992SOL     OW 2990   1.576   3.524   4.031
  992SOL    HW1 2991   1.665   3.570   4.034
  992SOL    HW2 2992   1.555   3.500   3.936
  993SOL     OW 2993   1.041   2.563   4.153
  993SOL    HW1 2994   1.067   2.559   4.249
  993SOL    HW2 2995   0.956   2.512   4.139
  994SOL     OW 2996   0.076   2.673   4.513
  994SOL    HW1 2997   0.175   2.661   4.522
  994SOL    HW2 2998   0.052   2.768   4.534
  995SOL     OW 2999   0.865   2.210   3.919
  995SOL    HW1 3000   0.924   2.273   3.870
  995SOL    HW2 3001   0.884   2.116   3.890
  996SOL     OW 3002   1.362   3.006   4.269
  996SOL    HW1 3003   1.445   2.977   4.221
  996SOL    HW2 3004   1.313   3.073   4.213
  997SOL     OW 3005   1.008   3.318   4.201
  997SOL    HW1 3006   0.962   3.390   4.149
  997SOL    HW2 3007   1.004   3.338   4.299
  998SOL     OW 3008   0.351   3.663   4.577
  998SOL    HW1 3009   0.401   3.577   4.583
  998SOL    HW2 3010   0.416   3.740   4.574
  999SOL     OW 3011   1.795   2.928   4.597
  999SOL    HW1 3012   1.733   2.913   4.521
  999SOL    HW2 3013   1.743   2.939   4.682
 1000SOL     OW 3014   0.321   2.805   3.966
 1000SOL    HW1 3015   0.403   2.844   3.924
 1000SOL    HW2 3016   0.294   2.723   3.917
 1001SOL     OW 3017   1.458   2.597   4.452
 1001SOL    HW1 3018   1.453   2.532   4.527
 1001SOL    HW2 3019   1.538   2.656   4.465
 1002SOL     OW 3020   1.111   3.638   3.961
 1002SOL    HW1 3021   1.051   3.576   4.011
 1002SOL    HW2 3022   1.142   3.594   3.876
 1003SOL     OW 3023   1.632   3.239   3.805
 1003SOL    HW1 3024   1.600   3.333   3.795
 1003SOL    HW2 3025   1.556   3.176   3.793
 1004SOL     OW 3026   0.464   3.605   4.047
 1004SOL    HW1 3027   0.497   3.644   4.133
 1004SOL    HW2 3028   0.540   3.598   3.982
 1005SOL     OW 3029   1.400   1.969   4.150
 1005SOL    HW1 3030   1.376   1.932   4.060
 1005SOL    HW2 3031   1.499   1.985   4.154
 1006SOL     OW 3032   0.249   3.647   4.965
 1006SOL    HW1 3033   0.306   3.582   5.015
 1006SOL    HW2 3034   0.233   3.614   4.872
 1007SOL     OW 3035   0.382   2.562   4.204
 1007SOL    HW1 3036   0.427   2.472   4.201
 1007SOL    HW2 3037   0.288   2.551   4.237
 1008SOL     OW 3038   0.614   1.984   3.841
 1008SOL    HW1 3039   0.712   1.962   3.848
 1008SOL    HW2 3040   0.583   1.967   3.748
 1009SOL     OW 3041   0.922   2.365   4.623
 1009SOL    HW1 3042   0.897   2.356   4.527
 1009SOL    HW2 3043   0.970   2.283   4.654
 1010SOL     OW 3044   0.539   1.926   4.236
 1010SOL    HW1 3045   0.458   1.927   4.294
 1010SOL    HW2 3046   0.542   2.009   4.181
 1011SOL     OW 3047   1.434   3.050   3.765
 1011SOL    HW1 3048   1.466   2.974   3.822
 1011SOL    HW2 3049   1.342   3.077   3.795
 1012SOL     OW 3050   0.297   1.897   3.895
 1012SOL    HW1 3051   0.346   1.981   3.874
 1012SOL    HW2 3052   0.359   1.832   3.940
 1013SOL     OW 3053   0.935   2.098   4.204
 1013SOL    HW1 3054   0.887   2.139   4.126
 1013SOL    HW2 3055   1.034   2.096   4.185
 1014SOL     OW 3056   1.227   3.432   4.517
 1014SOL    HW1 3057   1.248   3.506   4.452
 1014SOL    HW2 3058   1.295   3.432   4.590
 1015SOL     OW 3059   0.459   3.014   4.465
 1015SOL    HW1 3060   0.388   2.987   4.530
 1015SOL    HW2 3061   0.433   2.986   4.372
 1016SOL     OW 3062   1.271   3.659   4.315
 1016SOL    HW1 3063   1.315   3.723   4.251
 1016SOL    HW2 3064   1.221   3.711   4.385
 1017SOL     OW 3065   1.032   2.411   3.740
 1017SOL    HW1 3066   0.991   2.493   3.701
 1017SOL    HW2 3067   1.096   2.437   3.813
 1018SOL     OW 3068   0.866   2.316   4.366
 1018SOL    HW1 3069   0.834   2.388   4.304
 1018SOL    HW2 3070   0.890   2.235   4.313
 1019SOL     OW 3071   1.017   1.901   4.477
 1019SOL    HW1 3072   0.945   1.906   4.408
 1019SOL    HW2 3073   0.993   1.832   4.546
 1020SOL     OW 3074   1.429   3.035   4.591
 1020SOL    HW1 3075   1.374   2.951   4.584
 1020SOL    HW2 3076   1.455   3.064   4.499
 1021SOL     OW 3077   1.857   2.695   4.101
 1021SOL    HW1 3078   1.899   2.631   4.165
 1021SOL    HW2 3079   1.819   2.644   4.023
 1022SOL     OW 3080   0.488   3.247   3.898
 1022SOL    HW1 3081   0.401   3.232   3.945
 1022SOL    HW2 3082   0.471   3.273   3.803
 1023SOL     OW 3083   1.664   3.142   4.381
 1023SOL    HW1 3084   1.763   3.150   4.395
 1023SOL    HW2 3085   1.619   3.226   4.412
 1024SOL     OW 3086   1.390   2.437   3.802
 1024SOL    HW1 3087   1.336   2.416   3.883
 1024SOL    HW2 3088   1.481   2.396   3.811
 1025SOL     OW 3089   0.527   2.118   4.052
 1025SOL    HW1 3090   0.554   2.059   3.977
 1025SOL    HW2 3091   0.527   2.213   4.021
 1026SOL     OW 3092   1.638   2.961   4.803
 1026SOL    HW1 3093   1.643   3.042   4.862
 1026SOL    HW2 3094   1.552   2.963   4.752
 1027SOL     OW 3095   0.705   2.912   4.092
 1027SOL    HW1 3096   0.691   2.919   4.191
 1027SOL    HW2 3097   0.789   2.861   4.074
 1028SOL     OW 3098   0.367   2.962   4.225
 1028SOL    HW1 3099   0.360   3.045   4.169
 1028SOL    HW2 3100   0.371   2.882   4.165
 1029SOL     OW 3101   0.566   2.399   4.589
 1029SOL    HW1 3102   0.578   2.465   4.515
 1029SOL    HW2 3103   0.612   2.433   4.672
 1030SOL     OW 3104   1.252   3.210   4.112
 1030SOL    HW1 3105   1.302   3.287   4.152
 1030SOL    HW2 3106   1.157   3.212   4.144
 1031SOL     OW 3107   1.582   2.501   4.196
 1031SOL    HW1 3108   1.551   2.562   4.269
 1031SOL    HW2 3109   1.632   2.553   4.127
 1032SOL     OW 3110   1.209   2.387   3.999
 1032SOL    HW1 3111   1.222   2.303   4.053
 1032SOL    HW2 3112   1.180   2.461   4.059
 1033SOL     OW 3113   0.307   2.075   4.955
 1033SOL    HW1 3114   0.284   2.112   5.045
 1033SOL    HW2 3115   0.277   1.980   4.949
 1034SOL     OW 3116   0.732   2.496   4.788
 1034SOL    HW1 3117   0.791   2.470   4.712
 1034SOL    HW2 3118   0.704   2.592   4.777
 1035SOL     OW 3119   0.307   1.925   4.342
 1035SOL    HW1 3120   0.296   2.019   4.375
 1035SOL    HW2 3121   0.302   1.862   4.419
 1036SOL     OW 3122   1.622   2.229   4.098
 1036SOL    HW1 3123   1.624   2.153   4.162
 1036SOL    HW2 3124   1.574   2.306   4.138
 1037SOL     OW 3125   1.540   2.136   3.849
 1037SOL    HW1 3126   1.479   2.061   3.872
 1037SOL    HW2 3127   1.562   2.188   3.932
 1038SOL     OW 3128   1.303   2.700   3.766
 1038SOL    HW1 3129   1.337   2.607   3.781
 1038SOL    HW2 3130   1.321   2.727   3.671
 1039SOL     OW 3131   1.068   3.195   4.573
 1039SOL    HW1 3132   1.075   3.111   4.518
 1039SOL    HW2 3133   1.130   3.264   4.537
 1040SOL     OW 3134   0.319   2.672   4.673
 1040SOL    HW1 3135   0.412   2.708   4.678
 1040SOL    HW2 3136   0.313   2.587   4.725
 1041SOL     OW 3137   0.008   3.188   3.924
 1041SOL    HW1 3138  -0.085   3.209   3.893
 1041SOL    HW2 3139   0.018   3.089   3.937
 1042SOL     OW 3140   0.088   3.663   4.651
 1042SOL    HW1 3141   0.046   3.577   4.624
 1042SOL    HW2 3142   0.182   3.666   4.617
 1043SOL     OW 3143   0.504   3.430   4.634
 1043SOL    HW1 3144   0.570   3.504   4.643
 1043SOL    HW2 3145   0.548   3.351   4.592
 1044SOL     OW 3146   0.815   2.434   4.049
 1044SOL    HW1 3147   0.822   2.345   4.003
 1044SOL    HW2 3148   0.721   2.468   4.041
 1045SOL     OW 3149   0.671   2.326   4.993
 1045SOL    HW1 3150   0.637   2.237   4.963
 1045SOL    HW2 3151   0.697   2.380   4.913
 1046SOL     OW 3152   0.473   2.362   3.915
 1046SOL    HW1 3153   0.534   2.442   3.919
 1046SOL    HW2 3154   0.378   2.393   3.922
 1047SOL     OW 3155   1.347   2.921   4.958
 1047SOL    HW1 3156   1.371   2.858   4.884
 1047SOL    HW2 3157   1.257   2.961   4.940
 1048SOL     OW 3158   1.302   2.717   4.033
 1048SOL    HW1 3159   1.216   2.686   4.075
 1048SOL    HW2 3160   1.298   2.703   3.934
 1049SOL     OW 3161   1.759   3.609   4.878
 1049SOL    HW1 3162   1.820   3.639   4.805
 1049SOL    HW2 3163   1.721   3.520   4.856
 1050SOL     OW 3164   1.726   1.997   4.247
 1050SOL    HW1 3165   1.799   1.980   4.180
 1050SOL    HW2 3166   1.695   1.910   4.285
 1051SOL     OW 3167   1.388   3.435   4.201
 1051SOL    HW1 3168   1.455   3.447   4.127
 1051SOL    HW2 3169   1.348   3.524   4.224
 1052SOL     OW 3170   1.280   2.789   4.396
 1052SOL    HW1 3171   1.340   2.708   4.398
 1052SOL    HW2 3172   1.320   2.858   4.336
 1053SOL     OW 3173   0.672   3.478   3.878
 1053SOL    HW1 3174   0.681   3.488   3.779
 1053SOL    HW2 3175   0.632   3.389   3.899
 1054SOL     OW 3176   1.841   2.037   4.687
 1054SOL    HW1 3177   1.880   1.952   4.651
 1054SOL    HW2 3178   1.743   2.039   4.668
 1055SOL     OW 3179   0.263   2.188   4.444
 1055SOL    HW1 3180   0.184   2.239   4.410
 1055SOL    HW2 3181   0.254   2.173   4.542
 1056SOL     OW 3182   1.194   3.474   3.755
 1056SOL    HW1 3183   1.200   3.381   3.792
 1056SOL    HW2 3184   1.135   3.474   3.675
 1057SOL     OW 3185   0.916   2.772   4.015
 1057SOL    HW1 3186   0.979   2.810   3.947
 1057SOL    HW2 3187   0.956   2.689   4.054
 1058SOL     OW 3188   1.504   3.469   3.768
 1058SOL    HW1 3189   1.412   3.506   3.775
 1058SOL    HW2 3190   1.542   3.489   3.678
 1059SOL     OW 3191   1.614   3.154   5.013
 1059SOL    HW1 3192   1.674   3.157   5.093
 1059SOL    HW2 3193   1.539   3.218   5.026
 1060SOL     OW 3194   1.039   2.960   4.420
 1060SOL    HW1 3195   0.969   2.913   4.474
 1060SOL    HW2 3196   1.098   2.892   4.377
 1061SOL     OW 3197   0.590   3.349   4.215
 1061SOL    HW1 3198   0.632   3.291   4.145
 1061SOL    HW2 3199   0.546   3.428   4.171
 1062SOL     OW 3200   0.255   3.210   4.014
 1062SOL    HW1 3201   0.159   3.211   3.987
 1062SOL    HW2 3202   0.267   3.263   4.098
 1063SOL     OW 3203   0.075   2.207   3.757
 1063SOL    HW1 3204  -0.017   2.179   3.728
 1063SOL    HW2 3205   0.106   2.284   3.701
 1064SOL     OW 3206   0.072   2.028   4.042
 1064SOL    HW1 3207   0.055   2.111   3.988
 1064SOL    HW2 3208   0.162   1.991   4.020
 1065SOL     OW 3209   1.183   3.197   3.843
 1065SOL    HW1 3210   1.084   3.186   3.845
 1065SOL    HW2 3211   1.217   3.212   3.936
 1066SOL     OW 3212   1.674   2.745   4.978
 1066SOL    HW1 3213   1.647   2.656   4.941
 1066SOL    HW2 3214   1.675   2.813   4.905
 1067SOL     OW 3215   1.225   2.187   4.173
 1067SOL    HW1 3216   1.290   2.113   4.162
 1067SOL    HW2 3217   1.245   2.237   4.257
 1068SOL     OW 3218   0.594   2.607   4.376
 1068SOL    HW1 3219   0.644   2.692   4.357
 1068SOL    HW2 3220   0.506   2.609   4.328
 1069SOL     OW 3221   0.859   3.236   3.740
 1069SOL    HW1 3222   0.813   3.251   3.828
 1069SOL    HW2 3223   0.903   3.321   3.710
 1070SOL     OW 3224   0.661   3.652   4.677
 1070SOL    HW1 3225   0.615   3.740   4.664
 1070SOL    HW2 3226   0.760   3.664   4.670
 1071SOL     OW 3227   0.859   2.818   4.585
 1071SOL    HW1 3228   0.913   2.749   4.633
 1071SOL    HW2 3229   0.827   2.887   4.651
 1072SOL     OW 3230   1.083   2.846   3.811
 1072SOL    HW1 3231   1.060   2.899   3.729
 1072SOL    HW2 3232   1.164   2.790   3.792
 1073SOL     OW 3233   1.861   3.431   4.575
 1073SOL    HW1 3234   1.790   3.419   4.505
 1073SOL    HW2 3235   1.862   3.352   4.635
 1074SOL     OW 3236   0.079   3.102   4.377
 1074SOL    HW1 3237   0.078   3.055   4.465
 1074SOL    HW2 3238   0.161   3.074   4.326
 1075SOL     OW 3239   1.824   2.054   4.951
 1075SOL    HW1 3240   1.820   1.964   4.995
 1075SOL    HW2 3241   1.827   2.043   4.852
 1076SOL     OW 3242   0.428   2.286   4.244
 1076SOL    HW1 3243   0.458   2.214   4.182
 1076SOL    HW2 3244   0.389   2.246   4.327
 1077SOL     OW 3245   0.812   3.448   4.411
 1077SOL    HW1 3246   0.844   3.458   4.317
 1077SOL    HW2 3247   0.733   3.386   4.413
 1078SOL     OW 3248   0.770   3.192   4.025
 1078SOL    HW1 3249   0.724   3.105   4.042
 1078SOL    HW2 3250   0.861   3.189   4.066
 1079SOL     OW 3251   1.352   1.914   3.892
 1079SOL    HW1 3252   1.387   1.873   3.808
 1079SOL    HW2 3253   1.262   1.876   3.912
 1080SOL     OW 3254   1.300   2.315   4.415
 1080SOL    HW1 3255   1.241   2.395   4.419
 1080SOL    HW2 3256   1.315   2.280   4.508
 1081SOL     OW 3257   1.593   2.083   4.606
 1081SOL    HW1 3258   1.509   2.082   4.660
 1081SOL    HW2 3259   1.595   2.166   4.550
 1082SOL     OW 3260   0.039   2.939   4.024
 1082SOL    HW1 3261   0.138   2.928   4.015
 1082SOL    HW2 3262  -0.001   2.853   4.056
 1083SOL     OW 3263   0.875   3.508   4.061
 1083SOL    HW1 3264   0.798   3.473   4.007
 1083SOL    HW2 3265   0.843   3.579   4.123
 1084SOL     OW 3266   0.230   4.352   0.113
 1084SOL    HW1 3267   0.137   4.350   0.150
 1084SOL    HW2 3268   0.231   4.313   0.021
 1085SOL     OW 3269   0.225   3.999   0.996
 1085SOL    HW1 3270   0.260   3.982   1.088
 1085SOL    HW2 3271   0.137   3.954   0.984
 1086SOL     OW 3272   0.019   4.092   0.647
 1086SOL    HW1 3273  -0.063   4.135   0.686
 1086SOL    HW2 3274  -0.009   4.019   0.584
 1087SOL     OW 3275   1.135   4.427   0.717
 1087SOL    HW1 3276   1.192   4.505   0.692
 1087SOL    HW2 3277   1.075   4.453   0.793
 1088SOL     OW 3278   1.755   4.331   0.231
 1088SOL    HW1 3279   1.743   4.318   0.132
 1088SOL    HW2 3280   1.725   4.250   0.280
 1089SOL     OW 3281   0.768   4.868   1.023
 1089SOL    HW1 3282   0.690   4.885   1.083
 1089SOL    HW2 3283   0.802   4.955   0.987
 1090SOL     OW 3284   0.850   4.522   1.823
 1090SOL    HW1 3285   0.846   4.598   1.888
 1090SOL    HW2 3286   0.872   4.558   1.732
 1091SOL     OW 3287   0.685   4.736   0.665
 1091SOL    HW1 3288   0.754   4.720   0.735
 1091SOL    HW2 3289   0.612   4.793   0.703
 1092SOL     OW 3290   0.438   4.116   1.499
 1092SOL    HW1 3291   0.520   4.060   1.508
 1092SOL    HW2 3292   0.357   4.058   1.503
 1093SOL     OW 3293   1.603   4.171   0.737
 1093SOL    HW1 3294   1.529   4.217   0.687
 1093SOL    HW2 3295   1.654   4.239   0.790
 1094SOL     OW 3296   1.594   3.838   1.480
 1094SOL    HW1 3297   1.576   3.905   1.408
 1094SOL    HW2 3298   1.591   3.884   1.569
 1095SOL     OW 3299   0.122   4.367   0.563
 1095SOL    HW1 3300   0.077   4.279   0.580
 1095SOL    HW2 3301   0.121   4.421   0.647
 1096SOL     OW 3302   0.113   4.461   1.597
 1096SOL    HW1 3303   0.201   4.448   1.642
 1096SOL    HW2 3304   0.100   4.558   1.575
 1097SOL     OW 3305   0.809   3.728   0.502
 1097SOL    HW1 3306   0.849   3.819   0.493
 1097SOL    HW2 3307   0.709   3.736   0.508
 1098SOL     OW 3308   0.197   4.700   1.264
 1098SOL    HW1 3309   0.286   4.655   1.250
 1098SOL    HW2 3310   0.124   4.635   1.245
 1099SOL     OW 3311   1.525   4.723   0.190
 1099SOL    HW1 3312   1.462   4.647   0.203
 1099SOL    HW2 3313   1.573   4.741   0.276
 1100SOL     OW 3314   0.317   3.975   1.801
 1100SOL    HW1 3315   0.388   4.046   1.807
 1100SOL    HW2 3316   0.229   4.014   1.829
 1101SOL     OW 3317   0.598   4.453   0.270
 1101SOL    HW1 3318   0.622   4.522   0.202
 1101SOL    HW2 3319   0.520   4.486   0.324
 1102SOL     OW 3320   1.281   4.069   0.944
 1102SOL    HW1 3321   1.195   4.019   0.931
 1102SOL    HW2 3322   1.343   4.015   1.000
 1103SOL     OW 3323   0.807   4.329   1.465
 1103SOL    HW1 3324   0.760   4.326   1.554
 1103SOL    HW2 3325   0.756   4.274   1.399
 1104SOL     OW 3326   1.394   4.193   1.674
 1104SOL    HW1 3327   1.374   4.236   1.762
 1104SOL    HW2 3328   1.472   4.131   1.683
 1105SOL     OW 3329   0.973   4.614   1.572
 1105SOL    HW1 3330   1.019   4.530   1.543
 1105SOL    HW2 3331   0.917   4.648   1.497
 1106SOL     OW 3332   0.991   4.134   1.242
 1106SOL    HW1 3333   0.914   4.168   1.296
 1106SOL    HW2 3334   0.957   4.083   1.163
 1107SOL     OW 3335   1.041   4.425   0.429
 1107SOL    HW1 3336   1.067   4.421   0.525
 1107SOL    HW2 3337   0.956   4.374   0.415
 1108SOL     OW 3338   0.076   4.535   0.789
 1108SOL    HW1 3339   0.175   4.523   0.798
 1108SOL    HW2 3340   0.052   4.630   0.810
 1109SOL     OW 3341   0.865   4.072   0.195
 1109SOL    HW1 3342   0.924   4.135   0.146
 1109SOL    HW2 3343   0.884   3.978   0.166
 1110SOL     OW 3344   1.719   4.309   1.831
 1110SOL    HW1 3345   1.693   4.398   1.795
 1110SOL    HW2 3346   1.717   4.241   1.758
 1111SOL     OW 3347   0.550   3.920   0.885
 1111SOL    HW1 3348   0.545   3.915   0.985
 1111SOL    HW2 3349   0.552   4.016   0.856
 1112SOL     OW 3350   1.458   4.459   0.728
 1112SOL    HW1 3351   1.453   4.394   0.803
 1112SOL    HW2 3352   1.538   4.518   0.741
 1113SOL     OW 3353   0.202   4.009   1.498
 1113SOL    HW1 3354   0.122   4.069   1.485
 1113SOL    HW2 3355   0.192   3.960   1.584
 1114SOL     OW 3356   1.400   3.831   0.426
 1114SOL    HW1 3357   1.376   3.794   0.336
 1114SOL    HW2 3358   1.499   3.847   0.430
 1115SOL     OW 3359   0.382   4.424   0.480
 1115SOL    HW1 3360   0.427   4.334   0.477
 1115SOL    HW2 3361   0.288   4.413   0.513
 1116SOL     OW 3362   1.547   3.946   1.729
 1116SOL    HW1 3363   1.542   3.983   1.821
 1116SOL    HW2 3364   1.475   3.877   1.717
 1117SOL     OW 3365   0.614   3.846   0.117
 1117SOL    HW1 3366   0.712   3.824   0.124
 1117SOL    HW2 3367   0.583   3.829   0.024
 1118SOL     OW 3368   0.781   3.988   1.749
 1118SOL    HW1 3369   0.848   3.927   1.792
 1118SOL    HW2 3370   0.708   4.007   1.814
 1119SOL     OW 3371   1.351   4.314   1.433
 1119SOL    HW1 3372   1.379   4.271   1.518
 1119SOL    HW2 3373   1.376   4.410   1.434
 1120SOL     OW 3374   0.922   4.227   0.899
 1120SOL    HW1 3375   0.897   4.218   0.803
 1120SOL    HW2 3376   0.970   4.145   0.930
 1121SOL     OW 3377   0.539   3.788   0.512
 1121SOL    HW1 3378   0.458   3.789   0.570
 1121SOL    HW2 3379   0.542   3.871   0.457
 1122SOL     OW 3380   0.935   3.960   0.480
 1122SOL    HW1 3381   0.887   4.001   0.402
 1122SOL    HW2 3382   1.034   3.958   0.461
 1123SOL     OW 3383   1.076   4.407   1.464
 1123SOL    HW1 3384   0.996   4.346   1.467
 1123SOL    HW2 3385   1.157   4.354   1.440
 1124SOL     OW 3386   1.032   4.273   0.016
 1124SOL    HW1 3387   0.991   4.355  -0.023
 1124SOL    HW2 3388   1.096   4.299   0.089
 1125SOL     OW 3389   0.078   4.280   1.386
 1125SOL    HW1 3390   0.170   4.279   1.345
 1125SOL    HW2 3391   0.072   4.354   1.453
 1126SOL     OW 3392   0.561   3.946   1.147
 1126SOL    HW1 3393   0.599   3.862   1.184
 1126SOL    HW2 3394   0.473   3.965   1.191
 1127SOL     OW 3395   0.866   4.178   0.642
 1127SOL    HW1 3396   0.834   4.250   0.580
 1127SOL    HW2 3397   0.890   4.097   0.589
 1128SOL     OW 3398   1.017   3.763   0.753
 1128SOL    HW1 3399   0.945   3.768   0.684
 1128SOL    HW2 3400   0.993   3.694   0.822
 1129SOL     OW 3401   1.466   4.314   0.992
 1129SOL    HW1 3402   1.436   4.219   0.999
 1129SOL    HW2 3403   1.539   4.330   1.058
 1130SOL     OW 3404   1.857   4.557   0.377
 1130SOL    HW1 3405   1.899   4.493   0.441
 1130SOL    HW2 3406   1.819   4.506   0.299
 1131SOL     OW 3407   1.390   4.299   0.078
 1131SOL    HW1 3408   1.336   4.278   0.159
 1131SOL    HW2 3409   1.481   4.258   0.087
 1132SOL     OW 3410   0.527   3.980   0.328
 1132SOL    HW1 3411   0.554   3.921   0.253
 1132SOL    HW2 3412   0.527   4.075   0.297
 1133SOL     OW 3413   1.638   4.823   1.079
 1133SOL    HW1 3414   1.643   4.904   1.138
 1133SOL    HW2 3415   1.552   4.825   1.028
 1134SOL     OW 3416   0.915   3.813   1.402
 1134SOL    HW1 3417   0.940   3.793   1.307
 1134SOL    HW2 3418   0.987   3.869   1.444
 1135SOL     OW 3419   0.410   4.537   1.251
 1135SOL    HW1 3420   0.496   4.549   1.301
 1135SOL    HW2 3421   0.368   4.450   1.278
 1136SOL     OW 3422   1.274   4.110   1.262
 1136SOL    HW1 3423   1.295   4.184   1.326
 1136SOL    HW2 3424   1.185   4.127   1.219
 1137SOL     OW 3425   0.566   4.261   0.865
 1137SOL    HW1 3426   0.578   4.327   0.791
 1137SOL    HW2 3427   0.612   4.295   0.948
 1138SOL     OW 3428   1.582   4.363   0.472
 1138SOL    HW1 3429   1.551   4.424   0.545
 1138SOL    HW2 3430   1.632   4.415   0.403
 1139SOL     OW 3431   0.402   4.475   1.598
 1139SOL    HW1 3432   0.470   4.530   1.551
 1139SOL    HW2 3433   0.442   4.387   1.625
 1140SOL     OW 3434   1.587   4.503   1.670
 1140SOL    HW1 3435   1.495   4.541   1.665
 1140SOL    HW2 3436   1.647   4.550   1.605
 1141SOL     OW 3437   1.013   3.829   1.770
 1141SOL    HW1 3438   1.019   3.914   1.718
 1141SOL    HW2 3439   1.045   3.753   1.713
 1142SOL     OW 3440   0.504   3.774   1.740
 1142SOL    HW1 3441   0.462   3.717   1.670
 1142SOL    HW2 3442   0.438   3.843   1.772
 1143SOL     OW 3443   0.573   4.594   1.029
 1143SOL    HW1 3444   0.617   4.683   1.020
 1143SOL    HW2 3445   0.510   4.594   1.106
 1144SOL     OW 3446   1.360   4.586   1.045
 1144SOL    HW1 3447   1.285   4.586   0.979
 1144SOL    HW2 3448   1.397   4.494   1.054
 1145SOL     OW 3449   1.209   4.249   0.275
 1145SOL    HW1 3450   1.222   4.165   0.329
 1145SOL    HW2 3451   1.180   4.323   0.335
 1146SOL     OW 3452   0.307   3.937   1.231
 1146SOL    HW1 3453   0.284   3.974   1.321
 1146SOL    HW2 3454   0.277   3.842   1.225
 1147SOL     OW 3455   0.037   5.034   1.282
 1147SOL    HW1 3456   0.090   4.985   1.350
 1147SOL    HW2 3457   0.059   5.132   1.287
 1148SOL     OW 3458   0.732   4.358   1.064
 1148SOL    HW1 3459   0.791   4.332   0.988
 1148SOL    HW2 3460   0.704   4.454   1.053
 1149SOL     OW 3461   1.728   4.659   1.854
 1149SOL    HW1 3462   1.682   4.652   1.765
 1149SOL    HW2 3463   1.666   4.703   1.920
 1150SOL     OW 3464   0.307   3.787   0.618
 1150SOL    HW1 3465   0.296   3.881   0.651
 1150SOL    HW2 3466   0.302   3.724   0.695
 1151SOL     OW 3467   1.622   4.091   0.374
 1151SOL    HW1 3468   1.624   4.015   0.438
 1151SOL    HW2 3469   1.574   4.168   0.414
 1152SOL     OW 3470   1.023   4.490   0.966
 1152SOL    HW1 3471   1.038   4.511   1.062
 1152SOL    HW2 3472   0.993   4.395   0.957
 1153SOL     OW 3473   0.350   4.622   1.804
 1153SOL    HW1 3474   0.426   4.666   1.852
 1153SOL    HW2 3475   0.385   4.575   1.722
 1154SOL     OW 3476   1.540   3.998   0.125
 1154SOL    HW1 3477   1.479   3.923   0.148
 1154SOL    HW2 3478   1.562   4.050   0.208
 1155SOL     OW 3479   1.303   4.562   0.042
 1155SOL    HW1 3480   1.337   4.469   0.057
 1155SOL    HW2 3481   1.321   4.589  -0.053
 1156SOL     OW 3482   0.319   4.534   0.949
 1156SOL    HW1 3483   0.412   4.570   0.954
 1156SOL    HW2 3484   0.313   4.449   1.001
 1157SOL     OW 3485   0.339   4.233   1.006
 1157SOL    HW1 3486   0.287   4.150   0.989
 1157SOL    HW2 3487   0.416   4.238   0.942
 1158SOL     OW 3488   1.138   4.104   1.678
 1158SOL    HW1 3489   1.093   4.167   1.742
 1158SOL    HW2 3490   1.231   4.135   1.661
 1159SOL     OW 3491   1.160   3.931   1.477
 1159SOL    HW1 3492   1.160   3.995   1.554
 1159SOL    HW2 3493   1.188   3.979   1.394
 1160SOL     OW 3494   1.002   4.520   1.238
 1160SOL    HW1 3495   1.043   4.488   1.324
 1160SOL    HW2 3496   0.906   4.493   1.235
 1161SOL     OW 3497   0.040   4.268   1.114
 1161SOL    HW1 3498   0.125   4.235   1.073
 1161SOL    HW2 3499   0.053   4.283   1.212
 1162SOL     OW 3500   0.189   4.244   1.722
 1162SOL    HW1 3501   0.248   4.204   1.652
 1162SOL    HW2 3502   0.131   4.315   1.681
 1163SOL     OW 3503   1.369   4.674   1.660
 1163SOL    HW1 3504   1.408   4.763   1.680
 1163SOL    HW2 3505   1.379   4.654   1.563
 1164SOL     OW 3506   0.815   4.296   0.325
 1164SOL    HW1 3507   0.822   4.207   0.279
 1164SOL    HW2 3508   0.721   4.330   0.317
 1165SOL     OW 3509   1.657   4.328   1.206
 1165SOL    HW1 3510   1.619   4.259   1.268
 1165SOL    HW2 3511   1.739   4.292   1.162
 1166SOL     OW 3512   0.671   4.188   1.269
 1166SOL    HW1 3513   0.637   4.099   1.239
 1166SOL    HW2 3514   0.697   4.242   1.189
 1167SOL     OW 3515   0.473   4.224   0.191
 1167SOL    HW1 3516   0.534   4.304   0.195
 1167SOL    HW2 3517   0.378   4.255   0.198
 1168SOL     OW 3518   0.159   4.861   1.466
 1168SOL    HW1 3519   0.181   4.800   1.542
 1168SOL    HW2 3520   0.169   4.812   1.380
 1169SOL     OW 3521   1.347   4.783   1.234
 1169SOL    HW1 3522   1.371   4.720   1.160
 1169SOL    HW2 3523   1.257   4.823   1.216
 1170SOL     OW 3524   1.302   4.579   0.309
 1170SOL    HW1 3525   1.216   4.548   0.351
 1170SOL    HW2 3526   1.298   4.565   0.210
 1171SOL     OW 3527   0.903   3.810   0.133
 1171SOL    HW1 3528   0.954   3.811   0.047
 1171SOL    HW2 3529   0.959   3.768   0.204
 1172SOL     OW 3530   1.726   3.859   0.523
 1172SOL    HW1 3531   1.799   3.842   0.456
 1172SOL    HW2 3532   1.695   3.772   0.561
 1173SOL     OW 3533   1.280   4.651   0.672
 1173SOL    HW1 3534   1.340   4.570   0.674
 1173SOL    HW2 3535   1.320   4.720   0.612
 1174SOL     OW 3536   1.841   3.899   0.963
 1174SOL    HW1 3537   1.880   3.814   0.927
 1174SOL    HW2 3538   1.743   3.901   0.944
 1175SOL     OW 3539   0.263   4.050   0.720
 1175SOL    HW1 3540   0.184   4.101   0.686
 1175SOL    HW2 3541   0.254   4.035   0.818
 1176SOL     OW 3542   0.916   4.634   0.291
 1176SOL    HW1 3543   0.979   4.672   0.223
 1176SOL    HW2 3544   0.956   4.551   0.330
 1177SOL     OW 3545   1.014   3.960   0.971
 1177SOL    HW1 3546   1.006   3.924   0.878
 1177SOL    HW2 3547   1.012   3.884   1.036
 1178SOL     OW 3548   1.709   4.109   1.381
 1178SOL    HW1 3549   1.782   4.178   1.385
 1178SOL    HW2 3550   1.737   4.034   1.322
 1179SOL     OW 3551   0.105   4.737   1.726
 1179SOL    HW1 3552   0.028   4.704   1.780
 1179SOL    HW2 3553   0.190   4.707   1.768
 1180SOL     OW 3554   0.672   3.927   1.489
 1180SOL    HW1 3555   0.762   3.911   1.449
 1180SOL    HW2 3556   0.680   3.932   1.588
 1181SOL     OW 3557   0.075   4.069   0.033
 1181SOL    HW1 3558  -0.017   4.041   0.004
 1181SOL    HW2 3559   0.106   4.146  -0.023
 1182SOL     OW 3560   1.440   4.580   1.398
 1182SOL    HW1 3561   1.383   4.632   1.335
 1182SOL    HW2 3562   1.536   4.592   1.374
 1183SOL     OW 3563   0.072   3.890   0.318
 1183SOL    HW1 3564   0.055   3.973   0.264
 1183SOL    HW2 3565   0.162   3.853   0.296
 1184SOL     OW 3566   0.613   4.566   1.431
 1184SOL    HW1 3567   0.669   4.647   1.414
 1184SOL    HW2 3568   0.672   4.486   1.434
 1185SOL     OW 3569   0.716   4.289   1.708
 1185SOL    HW1 3570   0.735   4.354   1.782
 1185SOL    HW2 3571   0.776   4.209   1.717
 1186SOL     OW 3572   1.674   4.607   1.254
 1186SOL    HW1 3573   1.647   4.518   1.217
 1186SOL    HW2 3574   1.675   4.675   1.181
 1187SOL     OW 3575   1.225   4.049   0.449
 1187SOL    HW1 3576   1.290   3.975   0.438
 1187SOL    HW2 3577   1.245   4.099   0.533
 1188SOL     OW 3578   0.594   4.469   0.652
 1188SOL    HW1 3579   0.644   4.554   0.633
 1188SOL    HW2 3580   0.506   4.471   0.604
 1189SOL     OW 3581   1.777   4.066   1.642
 1189SOL    HW1 3582   1.760   4.097   1.548
 1189SOL    HW2 3583   1.693   4.029   1.680
 1190SOL     OW 3584   1.730   4.658   1.517
 1190SOL    HW1 3585   1.768   4.749   1.532
 1190SOL    HW2 3586   1.722   4.641   1.418
 1191SOL     OW 3587   1.083   4.708   0.087
 1191SOL    HW1 3588   1.060   4.761   0.005
 1191SOL    HW2 3589   1.164   4.652   0.068
 1192SOL     OW 3590   1.824   3.916   1.227
 1192SOL    HW1 3591   1.820   3.826   1.271
 1192SOL    HW2 3592   1.827   3.905   1.128
 1193SOL     OW 3593   0.428   4.148   0.520
 1193SOL    HW1 3594   0.458   4.076   0.458
 1193SOL    HW2 3595   0.389   4.108   0.603
 1194SOL     OW 3596   0.317   4.271   1.280
 1194SOL    HW1 3597   0.355   4.212   1.352
 1194SOL    HW2 3598   0.357   4.245   1.192
 1195SOL     OW 3599   1.424   3.938   1.112
 1195SOL    HW1 3600   1.476   3.873   1.167
 1195SOL    HW2 3601   1.375   4.001   1.173
 1196SOL     OW 3602   1.001   3.758   1.154
 1196SOL    HW1 3603   0.938   3.686   1.123
 1196SOL    HW2 3604   1.094   3.722   1.154
 1197SOL     OW 3605   1.352   3.776   0.168
 1197SOL    HW1 3606   1.387   3.735   0.084
 1197SOL    HW2 3607   1.262   3.738   0.188
 1198SOL     OW 3608   1.300   4.177   0.691
 1198SOL    HW1 3609   1.241   4.257   0.695
 1198SOL    HW2 3610   1.315   4.142   0.784
 1199SOL     OW 3611   1.593   3.945   0.882
 1199SOL    HW1 3612   1.509   3.944   0.936
 1199SOL    HW2 3613   1.595   4.028   0.826
 1200SOL     OW 3614   0.230   4.352   1.975
 1200SOL    HW1 3615   0.137   4.350   2.012
 1200SOL    HW2 3616   0.231   4.313   1.883
 1201SOL     OW 3617   0.225   3.999   2.858
 1201SOL    HW1 3618   0.260   3.982   2.950
 1201SOL    HW2 3619   0.137   3.954   2.846
 1202SOL     OW 3620   0.019   4.092   2.509
 1202SOL    HW1 3621  -0.063   4.135   2.548
 1202SOL    HW2 3622  -0.009   4.019   2.446
 1203SOL     OW 3623   1.135   4.427   2.579
 1203SOL    HW1 3624   1.192   4.505   2.554
 1203SOL    HW2 3625   1.075   4.453   2.655
 1204SOL     OW 3626   1.755   4.331   2.093
 1204SOL    HW1 3627   1.743   4.318   1.994
 1204SOL    HW2 3628   1.725   4.250   2.142
 1205SOL     OW 3629   0.768   4.868   2.885
 1205SOL    HW1 3630   0.690   4.885   2.945
 1205SOL    HW2 3631   0.802   4.955   2.849
 1206SOL     OW 3632   0.850   4.522   3.685
 1206SOL    HW1 3633   0.846   4.598   3.750
 1206SOL    HW2 3634   0.872   4.558   3.594
 1207SOL     OW 3635   0.685   4.736   2.527
 1207SOL    HW1 3636   0.754   4.720   2.597
 1207SOL    HW2 3637   0.612   4.793   2.565
 1208SOL     OW 3638   0.438   4.116   3.361
 1208SOL    HW1 3639   0.520   4.060   3.370
 1208SOL    HW2 3640   0.357   4.058   3.365
 1209SOL     OW 3641   1.603   4.171   2.599
 1209SOL    HW1 3642   1.529   4.217   2.549
 1209SOL    HW2 3643   1.654   4.239   2.652
 1210SOL     OW 3644   1.594   3.838   3.342
 1210SOL    HW1 3645   1.576   3.905   3.270
 1210SOL    HW2 3646   1.591   3.884   3.431
 1211SOL     OW 3647   0.122   4.367   2.425
 1211SOL    HW1 3648   0.077   4.279   2.442
 1211SOL    HW2 3649   0.121   4.421   2.509
 1212SOL     OW 3650   0.113   4.461   3.459
 1212SOL    HW1 3651   0.201   4.448   3.504
 1212SOL    HW2 3652   0.100   4.558   3.437
 1213SOL     OW 3653   0.809   3.728   2.364
 1213SOL    HW1 3654   0.849   3.819   2.355
 1213SOL    HW2 3655   0.709   3.736   2.370
 1214SOL     OW 3656   0.197   4.700   3.126
 1214SOL    HW1 3657   0.286   4.655   3.112
 1214SOL    HW2 3658   0.124   4.635   3.107
 1215SOL     OW 3659   1.525   4.723   2.052
 1215SOL    HW1 3660   1.462   4.647   2.065
 1215SOL    HW2 3661   1.573   4.741   2.138
 1216SOL     OW 3662   0.317   3.975   3.663
 1216SOL    HW1 3663   0.388   4.046   3.669
 1216SOL    HW2 3664   0.229   4.014   3.691
 1217SOL     OW 3665   0.598   4.453   2.132
 1217SOL    HW1 3666   0.622   4.522   2.064
 1217SOL    HW2 3667   0.520   4.486   2.186
 1218SOL     OW 3668   1.281   4.069   2.806
 1218SOL    HW1 3669   1.195   4.019   2.793
 1218SOL    HW2 3670   1.343   4.015   2.862
 1219SOL     OW 3671   0.807   4.329   3.327
 1219SOL    HW1 3672   0.760   4.326   3.416
 1219SOL    HW2 3673   0.756   4.274   3.261
 1220SOL     OW 3674   1.394   4.193   3.536
 1220SOL    HW1 3675   1.374   4.236   3.624
 1220SOL    HW2 3676   1.472   4.131   3.545
 1221SOL     OW 3677   0.973   4.614   3.434
 1221SOL    HW1 3678   1.019   4.530   3.405
 1221SOL    HW2 3679   0.917   4.648   3.359
 1222SOL     OW 3680   0.991   4.134   3.104
 1222SOL    HW1 3681   0.914   4.168   3.158
 1222SOL    HW2 3682   0.957   4.083   3.025
 1223SOL     OW 3683   1.041   4.425   2.291
 1223SOL    HW1 3684   1.067   4.421   2.387
 1223SOL    HW2 3685   0.956   4.374   2.277
 1224SOL     OW 3686   0.076   4.535   2.651
 1224SOL    HW1 3687   0.175   4.523   2.660
 1224SOL    HW2 3688   0.052   4.630   2.672
 1225SOL     OW 3689   0.865   4.072   2.057
 1225SOL    HW1 3690   0.924   4.135   2.008
 1225SOL    HW2 3691   0.884   3.978   2.028
 1226SOL     OW 3692   1.719   4.309   3.693
 1226SOL    HW1 3693   1.693   4.398   3.657
 1226SOL    HW2 3694   1.717   4.241   3.620
 1227SOL     OW 3695   0.550   3.920   2.747
 1227SOL    HW1 3696   0.545   3.915   2.847
 1227SOL    HW2 3697   0.552   4.016   2.718
 1228SOL     OW 3698   1.458   4.459   2.590
 1228SOL    HW1 3699   1.453   4.394   2.665
 1228SOL    HW2 3700   1.538   4.518   2.603
 1229SOL     OW 3701   0.202   4.009   3.360
 1229SOL    HW1 3702   0.122   4.069   3.347
 1229SOL    HW2 3703   0.192   3.960   3.446
 1230SOL     OW 3704   1.400   3.831   2.288
 1230SOL    HW1 3705   1.376   3.794   2.198
 1230SOL    HW2 3706   1.499   3.847   2.292
 1231SOL     OW 3707   0.382   4.424   2.342
 1231SOL    HW1 3708   0.427   4.334   2.339
 1231SOL    HW2 3709   0.288   4.413   2.375
 1232SOL     OW 3710   1.547   3.946   3.591
 1232SOL    HW1 3711   1.542   3.983   3.683
 1232SOL    HW2 3712   1.475   3.877   3.579
 1233SOL     OW 3713   0.614   3.846   1.979
 1233SOL    HW1 3714   0.712   3.824   1.986
 1233SOL    HW2 3715   0.583   3.829   1.886
 1234SOL     OW 3716   0.781   3.988   3.611
 1234SOL    HW1 3717   0.848   3.927   3.654
 1234SOL    HW2 3718   0.708   4.007   3.676
 1235SOL     OW 3719   1.351   4.314   3.295
 1235SOL    HW1 3720   1.379   4.271   3.380
 1235SOL    HW2 3721   1.376   4.410   3.296
 1236SOL     OW 3722   0.922   4.227   2.761
 1236SOL    HW1 3723   0.897   4.218   2.665
 1236SOL    HW2 3724   0.970   4.145   2.792
 1237SOL     OW 3725   0.539   3.788   2.374
 1237SOL    HW1 3726   0.458   3.789   2.432
 1237SOL    HW2 3727   0.542   3.871   2.319
 1238SOL     OW 3728   0.297   3.759   2.033
 1238SOL    HW1 3729   0.346   3.843   2.012
 1238SOL    HW2 3730   0.359   3.694   2.078
 1239SOL     OW 3731   0.935   3.960   2.342
 1239SOL    HW1 3732   0.887   4.001   2.264
 1239SOL    HW2 3733   1.034   3.958   2.323
 1240SOL     OW 3734   1.076   4.407   3.326
 1240SOL    HW1 3735   0.996   4.346   3.329
 1240SOL    HW2 3736   1.157   4.354   3.302
 1241SOL     OW 3737   1.032   4.273   1.878
 1241SOL    HW1 3738   0.991   4.355   1.839
 1241SOL    HW2 3739   1.096   4.299   1.951
 1242SOL     OW 3740   0.078   4.280   3.248
 1242SOL    HW1 3741   0.170   4.279   3.207
 1242SOL    HW2 3742   0.072   4.354   3.315
 1243SOL     OW 3743   0.561   3.946   3.009
 1243SOL    HW1 3744   0.599   3.862   3.046
 1243SOL    HW2 3745   0.473   3.965   3.053
 1244SOL     OW 3746   0.866   4.178   2.504
 1244SOL    HW1 3747   0.834   4.250   2.442
 1244SOL    HW2 3748   0.890   4.097   2.451
 1245SOL     OW 3749   1.017   3.763   2.615
 1245SOL    HW1 3750   0.945   3.768   2.546
 1245SOL    HW2 3751   0.993   3.694   2.684
 1246SOL     OW 3752   1.466   4.314   2.854
 1246SOL    HW1 3753   1.436   4.219   2.861
 1246SOL    HW2 3754   1.539   4.330   2.920
 1247SOL     OW 3755   1.857   4.557   2.239
 1247SOL    HW1 3756   1.899   4.493   2.303
 1247SOL    HW2 3757   1.819   4.506   2.161
 1248SOL     OW 3758   1.390   4.299   1.940
 1248SOL    HW1 3759   1.336   4.278   2.021
 1248SOL    HW2 3760   1.481   4.258   1.949
 1249SOL     OW 3761   0.527   3.980   2.190
 1249SOL    HW1 3762   0.554   3.921   2.115
 1249SOL    HW2 3763   0.527   4.075   2.159
 1250SOL     OW 3764   1.638   4.823   2.941
 1250SOL    HW1 3765   1.643   4.904   3.000
 1250SOL    HW2 3766   1.552   4.825   2.890
 1251SOL     OW 3767   0.915   3.813   3.264
 1251SOL    HW1 3768   0.940   3.793   3.169
 1251SOL    HW2 3769   0.987   3.869   3.306
 1252SOL     OW 3770   0.410   4.537   3.113
 1252SOL    HW1 3771   0.496   4.549   3.163
 1252SOL    HW2 3772   0.368   4.450   3.140
 1253SOL     OW 3773   1.274   4.110   3.124
 1253SOL    HW1 3774   1.295   4.184   3.188
 1253SOL    HW2 3775   1.185   4.127   3.081
 1254SOL     OW 3776   0.566   4.261   2.727
 1254SOL    HW1 3777   0.578   4.327   2.653
 1254SOL    HW2 3778   0.612   4.295   2.810
 1255SOL     OW 3779   1.582   4.363   2.334
 1255SOL    HW1 3780   1.551   4.424   2.407
 1255SOL    HW2 3781   1.632   4.415   2.265
 1256SOL     OW 3782   0.402   4.475   3.460
 1256SOL    HW1 3783   0.470   4.530   3.413
 1256SOL    HW2 3784   0.442   4.387   3.487
 1257SOL     OW 3785   1.587   4.503   3.532
 1257SOL    HW1 3786   1.495   4.541   3.527
 1257SOL    HW2 3787   1.647   4.550   3.467
 1258SOL     OW 3788   1.013   3.829   3.632
 1258SOL    HW1 3789   1.019   3.914   3.580
 1258SOL    HW2 3790   1.045   3.753   3.575
 1259SOL     OW 3791   0.504   3.774   3.602
 1259SOL    HW1 3792   0.462   3.717   3.532
 1259SOL    HW2 3793   0.438   3.843   3.634
 1260SOL     OW 3794   0.573   4.594   2.891
 1260SOL    HW1 3795   0.617   4.683   2.882
 1260SOL    HW2 3796   0.510   4.594   2.968
 1261SOL     OW 3797   1.360   4.586   2.907
 1261SOL    HW1 3798   1.285   4.586   2.841
 1261SOL    HW2 3799   1.397   4.494   2.916
 1262SOL     OW 3800   1.209   4.249   2.137
 1262SOL    HW1 3801   1.222   4.165   2.191
 1262SOL    HW2 3802   1.180   4.323   2.197
 1263SOL     OW 3803   0.307   3.937   3.093
 1263SOL    HW1 3804   0.284   3.974   3.183
 1263SOL    HW2 3805   0.277   3.842   3.087
 1264SOL     OW 3806   0.037   5.034   3.144
 1264SOL    HW1 3807   0.090   4.985   3.212
 1264SOL    HW2 3808   0.059   5.132   3.149
 1265SOL     OW 3809   0.732   4.358   2.926
 1265SOL    HW1 3810   0.791   4.332   2.850
 1265SOL    HW2 3811   0.704   4.454   2.915
 1266SOL     OW 3812   1.728   4.659   3.716
 1266SOL    HW1 3813   1.682   4.652   3.627
 1266SOL    HW2 3814   1.666   4.703   3.782
 1267SOL     OW 3815   0.307   3.787   2.480
 1267SOL    HW1 3816   0.296   3.881   2.513
 1267SOL    HW2 3817   0.302   3.724   2.557
 1268SOL     OW 3818   1.622   4.091   2.236
 1268SOL    HW1 3819   1.624   4.015   2.300
 1268SOL    HW2 3820   1.574   4.168   2.276
 1269SOL     OW 3821   1.023   4.490   2.828
 1269SOL    HW1 3822   1.038   4.511   2.924
 1269SOL    HW2 3823   0.993   4.395   2.819
 1270SOL     OW 3824   0.350   4.622   3.666
 1270SOL    HW1 3825   0.426   4.666   3.714
 1270SOL    HW2 3826   0.385   4.575   3.584
 1271SOL     OW 3827   1.540   3.998   1.987
 1271SOL    HW1 3828   1.479   3.923   2.010
 1271SOL    HW2 3829   1.562   4.050   2.070
 1272SOL     OW 3830   1.303   4.562   1.904
 1272SOL    HW1 3831   1.337   4.469   1.919
 1272SOL    HW2 3832   1.321   4.589   1.809
 1273SOL     OW 3833   0.319   4.534   2.811
 1273SOL    HW1 3834   0.412   4.570   2.816
 1273SOL    HW2 3835   0.313   4.449   2.863
 1274SOL     OW 3836   0.339   4.233   2.868
 1274SOL    HW1 3837   0.287   4.150   2.851
 1274SOL    HW2 3838   0.416   4.238   2.804
 1275SOL     OW 3839   1.138   4.104   3.540
 1275SOL    HW1 3840   1.093   4.167   3.604
 1275SOL    HW2 3841   1.231   4.135   3.523
 1276SOL     OW 3842   1.160   3.931   3.339
 1276SOL    HW1 3843   1.160   3.995   3.416
 1276SOL    HW2 3844   1.188   3.979   3.256
 1277SOL     OW 3845   1.002   4.520   3.100
 1277SOL    HW1 3846   1.043   4.488   3.186
 1277SOL    HW2 3847   0.906   4.493   3.097
 1278SOL     OW 3848   0.040   4.268   2.976
 1278SOL    HW1 3849   0.125   4.235   2.935
 1278SOL    HW2 3850   0.053   4.283   3.074
 1279SOL     OW 3851   0.189   4.244   3.584
 1279SOL    HW1 3852   0.248   4.204   3.514
 1279SOL    HW2 3853   0.131   4.315   3.543
 1280SOL     OW 3854   1.369   4.674   3.522
 1280SOL    HW1 3855   1.408   4.763   3.542
 1280SOL    HW2 3856   1.379   4.654   3.425
 1281SOL     OW 3857   0.815   4.296   2.187
 1281SOL    HW1 3858   0.822   4.207   2.141
 1281SOL    HW2 3859   0.721   4.330   2.179
 1282SOL     OW 3860   1.657   4.328   3.068
 1282SOL    HW1 3861   1.619   4.259   3.130
 1282SOL    HW2 3862   1.739   4.292   3.024
 1283SOL     OW 3863   0.671   4.188   3.131
 1283SOL    HW1 3864   0.637   4.099   3.101
 1283SOL    HW2 3865   0.697   4.242   3.051
 1284SOL     OW 3866   0.473   4.224   2.053
 1284SOL    HW1 3867   0.534   4.304   2.057
 1284SOL    HW2 3868   0.378   4.255   2.060
 1285SOL     OW 3869   0.159   4.861   3.328
 1285SOL    HW1 3870   0.181   4.800   3.404
 1285SOL    HW2 3871   0.169   4.812   3.242
 1286SOL     OW 3872   1.347   4.783   3.096
 1286SOL    HW1 3873   1.371   4.720   3.022
 1286SOL    HW2 3874   1.257   4.823   3.078
 1287SOL     OW 3875   1.302   4.579   2.171
 1287SOL    HW1 3876   1.216   4.548   2.213
 1287SOL    HW2 3877   1.298   4.565   2.072
 1288SOL     OW 3878   1.726   3.859   2.385
 1288SOL    HW1 3879   1.799   3.842   2.318
 1288SOL    HW2 3880   1.695   3.772   2.423
 1289SOL     OW 3881   1.280   4.651   2.534
 1289SOL    HW1 3882   1.340   4.570   2.536
 1289SOL    HW2 3883   1.320   4.720   2.474
 1290SOL     OW 3884   1.841   3.899   2.825
 1290SOL    HW1 3885   1.880   3.814   2.789
 1290SOL    HW2 3886   1.743   3.901   2.806
 1291SOL     OW 3887   0.263   4.050   2.582
 1291SOL    HW1 3888   0.184   4.101   2.548
 1291SOL    HW2 3889   0.254   4.035   2.680
 1292SOL     OW 3890   0.916   4.634   2.153
 1292SOL    HW1 3891   0.979   4.672   2.085
 1292SOL    HW2 3892   0.956   4.551   2.192
 1293SOL     OW 3893   1.014   3.960   2.833
 1293SOL    HW1 3894   1.006   3.924   2.740
 1293SOL    HW2 3895   1.012   3.884   2.898
 1294SOL     OW 3896   1.709   4.109   3.243
 1294SOL    HW1 3897   1.782   4.178   3.247
 1294SOL    HW2 3898   1.737   4.034   3.184
 1295SOL     OW 3899   0.105   4.737   3.588
 1295SOL    HW1 3900   0.028   4.704   3.642
 1295SOL    HW2 3901   0.190   4.707   3.630
 1296SOL     OW 3902   0.672   3.927   3.351
 1296SOL    HW1 3903   0.762   3.911   3.311
 1296SOL    HW2 3904   0.680   3.932   3.450
 1297SOL     OW 3905   0.075   4.069   1.895
 1297SOL    HW1 3906  -0.017   4.041   1.866
 1297SOL    HW2 3907   0.106   4.146   1.839
 1298SOL     OW 3908   1.440   4.580   3.260
 1298SOL    HW1 3909   1.383   4.632   3.197
 1298SOL    HW2 3910   1.536   4.592   3.236
 1299SOL     OW 3911   0.072   3.890   2.180
 1299SOL    HW1 3912   0.055   3.973   2.126
 1299SOL    HW2 3913   0.162   3.853   2.158
 1300SOL     OW 3914   0.613   4.566   3.293
 1300SOL    HW1 3915   0.669   4.647   3.276
 1300SOL    HW2 3916   0.672   4.486   3.296
 1301SOL     OW 3917   0.716   4.289   3.570
 1301SOL    HW1 3918   0.735   4.354   3.644
 1301SOL    HW2 3919   0.776   4.209   3.579
 1302SOL     OW 3920   1.674   4.607   3.116
 1302SOL    HW1 3921   1.647   4.518   3.079
 1302SOL    HW2 3922   1.675   4.675   3.043
 1303SOL     OW 3923   1.225   4.049   2.311
 1303SOL    HW1 3924   1.290   3.975   2.300
 1303SOL    HW2 3925   1.245   4.099   2.395
 1304SOL     OW 3926   0.594   4.469   2.514
 1304SOL    HW1 3927   0.644   4.554   2.495
 1304SOL    HW2 3928   0.506   4.471   2.466
 1305SOL     OW 3929   1.777   4.066   3.504
 1305SOL    HW1 3930   1.760   4.097   3.410
 1305SOL    HW2 3931   1.693   4.029   3.542
 1306SOL     OW 3932   1.730   4.658   3.379
 1306SOL    HW1 3933   1.768   4.749   3.394
 1306SOL    HW2 3934   1.722   4.641   3.280
 1307SOL     OW 3935   1.824   3.916   3.089
 1307SOL    HW1 3936   1.820   3.826   3.133
 1307SOL    HW2 3937   1.827   3.905   2.990
 1308SOL     OW 3938   0.428   4.148   2.382
 1308SOL    HW1 3939   0.458   4.076   2.320
 1308SOL    HW2 3940   0.389   4.108   2.465
 1309SOL     OW 3941   0.317   4.271   3.142
 1309SOL    HW1 3942   0.355   4.212   3.214
 1309SOL    HW2 3943   0.357   4.245   3.054
 1310SOL     OW 3944   1.424   3.938   2.974
 1310SOL    HW1 3945   1.476   3.873   3.029
 1310SOL    HW2 3946   1.375   4.001   3.035
 1311SOL     OW 3947   1.001   3.758   3.016
 1311SOL    HW1 3948   0.938   3.686   2.985
 1311SOL    HW2 3949   1.094   3.722   3.016
 1312SOL     OW 3950   1.352   3.776   2.030
 1312SOL    HW1 3951   1.387   3.735   1.946
 1312SOL    HW2 3952   1.262   3.738   2.050
 1313SOL     OW 3953   1.300   4.177   2.553
 1313SOL    HW1 3954   1.241   4.257   2.557
 1313SOL    HW2 3955   1.315   4.142   2.646
 1314SOL     OW 3956   1.593   3.945   2.744
 1314SOL    HW1 3957   1.509   3.944   2.798
 1314SOL    HW2 3958   1.595   4.028   2.688
 1315SOL     OW 3959   0.230   4.352   3.837
 1315SOL    HW1 3960   0.137   4.350   3.874
 1315SOL    HW2 3961   0.231   4.313   3.745
 1316SOL     OW 3962   0.225   3.999   4.720
 1316SOL    HW1 3963   0.260   3.982   4.812
 1316SOL    HW2 3964   0.137   3.954   4.708
 1317SOL     OW 3965   0.019   4.092   4.371
 1317SOL    HW1 3966  -0.063   4.135   4.410
 1317SOL    HW2 3967  -0.009   4.019   4.308
 1318SOL     OW 3968   1.135   4.427   4.441
 1318SOL    HW1 3969   1.192   4.505   4.416
 1318SOL    HW2 3970   1.075   4.453   4.517
 1319SOL     OW 3971   1.755   4.331   3.955
 1319SOL    HW1 3972   1.743   4.318   3.856
 1319SOL    HW2 3973   1.725   4.250   4.004
 1320SOL     OW 3974   0.685   4.736   4.389
 1320SOL    HW1 3975   0.754   4.720   4.459
 1320SOL    HW2 3976   0.612   4.793   4.427
 1321SOL     OW 3977   1.603   4.171   4.461
 1321SOL    HW1 3978   1.529   4.217   4.411
 1321SOL    HW2 3979   1.654   4.239   4.514
 1322SOL     OW 3980   0.122   4.367   4.287
 1322SOL    HW1 3981   0.077   4.279   4.304
 1322SOL    HW2 3982   0.121   4.421   4.371
 1323SOL     OW 3983   0.613   5.089   4.450
 1323SOL    HW1 3984   0.564   5.002   4.459
 1323SOL    HW2 3985   0.590   5.132   4.363
 1324SOL     OW 3986   0.809   3.728   4.226
 1324SOL    HW1 3987   0.849   3.819   4.217
 1324SOL    HW2 3988   0.709   3.736   4.232
 1325SOL     OW 3989   1.525   4.723   3.914
 1325SOL    HW1 3990   1.462   4.647   3.927
 1325SOL    HW2 3991   1.573   4.741   4.000
 1326SOL     OW 3992   0.598   4.453   3.994
 1326SOL    HW1 3993   0.622   4.522   3.926
 1326SOL    HW2 3994   0.520   4.486   4.048
 1327SOL     OW 3995   1.281   4.069   4.668
 1327SOL    HW1 3996   1.195   4.019   4.655
 1327SOL    HW2 3997   1.343   4.015   4.724
 1328SOL     OW 3998   1.041   4.425   4.153
 1328SOL    HW1 3999   1.067   4.421   4.249
 1328SOL    HW2 4000   0.956   4.374   4.139
 1329SOL     OW 4001   0.076   4.535   4.513
 1329SOL    HW1 4002   0.175   4.523   4.522
 1329SOL    HW2 4003   0.052   4.630   4.534
 1330SOL     OW 4004   0.865   4.072   3.919
 1330SOL    HW1 4005   0.924   4.135   3.870
 1330SOL    HW2 4006   0.884   3.978   3.890
 1331SOL     OW 4007   1.458   4.459   4.452
 1331SOL    HW1 4008   1.453   4.394   4.527
 1331SOL    HW2 4009   1.538   4.518   4.465
 1332SOL     OW 4010   1.400   3.831   4.150
 1332SOL    HW1 4011   1.376   3.794   4.060
 1332SOL    HW2 4012   1.499   3.847   4.154
 1333SOL     OW 4013   0.382   4.424   4.204
 1333SOL    HW1 4014   0.427   4.334   4.201
 1333SOL    HW2 4015   0.288   4.413   4.237
 1334SOL     OW 4016   0.614   3.846   3.841
 1334SOL    HW1 4017   0.712   3.824   3.848
 1334SOL    HW2 4018   0.583   3.829   3.748
 1335SOL     OW 4019   0.922   4.227   4.623
 1335SOL    HW1 4020   0.897   4.218   4.527
 1335SOL    HW2 4021   0.970   4.145   4.654
 1336SOL     OW 4022   0.539   3.788   4.236
 1336SOL    HW1 4023   0.458   3.789   4.294
 1336SOL    HW2 4024   0.542   3.871   4.181
 1337SOL     OW 4025   0.297   3.759   3.895
 1337SOL    HW1 4026   0.346   3.843   3.874
 1337SOL    HW2 4027   0.359   3.694   3.940
 1338SOL     OW 4028   0.935   3.960   4.204
 1338SOL    HW1 4029   0.887   4.001   4.126
 1338SOL    HW2 4030   1.034   3.958   4.185
 1339SOL     OW 4031   1.032   4.273   3.740
 1339SOL    HW1 4032   0.991   4.355   3.701
 1339SOL    HW2 4033   1.096   4.299   3.813
 1340SOL     OW 4034   0.866   4.178   4.366
 1340SOL    HW1 4035   0.834   4.250   4.304
 1340SOL    HW2 4036   0.890   4.097   4.313
 1341SOL     OW 4037   1.017   3.763   4.477
 1341SOL    HW1 4038   0.945   3.768   4.408
 1341SOL    HW2 4039   0.993   3.694   4.546
 1342SOL     OW 4040   1.857   4.557   4.101
 1342SOL    HW1 4041   1.899   4.493   4.165
 1342SOL    HW2 4042   1.819   4.506   4.023
 1343SOL     OW 4043   1.390   4.299   3.802
 1343SOL    HW1 4044   1.336   4.278   3.883
 1343SOL    HW2 4045   1.481   4.258   3.811
 1344SOL     OW 4046   0.527   3.980   4.052
 1344SOL    HW1 4047   0.554   3.921   3.977
 1344SOL    HW2 4048   0.527   4.075   4.021
 1345SOL     OW 4049   1.111   4.919   4.824
 1345SOL    HW1 4050   1.071   4.963   4.905
 1345SOL    HW2 4051   1.070   4.956   4.741
 1346SOL     OW 4052   1.638   4.823   4.803
 1346SOL    HW1 4053   1.643   4.904   4.862
 1346SOL    HW2 4054   1.552   4.825   4.752
 1347SOL     OW 4055   0.566   4.261   4.589
 1347SOL    HW1 4056   0.578   4.327   4.515
 1347SOL    HW2 4057   0.612   4.295   4.672
 1348SOL     OW 4058   1.582   4.363   4.196
 1348SOL    HW1 4059   1.551   4.424   4.269
 1348SOL    HW2 4060   1.632   4.415   4.127
 1349SOL     OW 4061   0.573   4.594   4.753
 1349SOL    HW1 4062   0.617   4.683   4.744
 1349SOL    HW2 4063   0.510   4.594   4.830
 1350SOL     OW 4064   1.209   4.249   3.999
 1350SOL    HW1 4065   1.222   4.165   4.053
 1350SOL    HW2 4066   1.180   4.323   4.059
 1351SOL     OW 4067   0.307   3.937   4.955
 1351SOL    HW1 4068   0.284   3.974   5.045
 1351SOL    HW2 4069   0.277   3.842   4.949
 1352SOL     OW 4070   0.732   4.358   4.788
 1352SOL    HW1 4071   0.791   4.332   4.712
 1352SOL    HW2 4072   0.704   4.454   4.777
 1353SOL     OW 4073   0.307   3.787   4.342
 1353SOL    HW1 4074   0.296   3.881   4.375
 1353SOL    HW2 4075   0.302   3.724   4.419
 1354SOL     OW 4076   1.622   4.091   4.098
 1354SOL    HW1 4077   1.624   4.015   4.162
 1354SOL    HW2 4078   1.574   4.168   4.138
 1355SOL     OW 4079   1.540   3.998   3.849
 1355SOL    HW1 4080   1.479   3.923   3.872
 1355SOL    HW2 4081   1.562   4.050   3.932
 1356SOL     OW 4082   1.303   4.562   3.766
 1356SOL    HW1 4083   1.337   4.469   3.781
 1356SOL    HW2 4084   1.321   4.589   3.671
 1357SOL     OW 4085   0.319   4.534   4.673
 1357SOL    HW1 4086   0.412   4.570   4.678
 1357SOL    HW2 4087   0.313   4.449   4.725
 1358SOL     OW 4088   0.815   4.296   4.049
 1358SOL    HW1 4089   0.822   4.207   4.003
 1358SOL    HW2 4090   0.721   4.330   4.041
 1359SOL     OW 4091   0.671   4.188   4.993
 1359SOL    HW1 4092   0.637   4.099   4.963
 1359SOL    HW2 4093   0.697   4.242   4.913
 1360SOL     OW 4094   0.473   4.224   3.915
 1360SOL    HW1 4095   0.534   4.304   3.919
 1360SOL    HW2 4096   0.378   4.255   3.922
 1361SOL     OW 4097   1.302   4.579   4.033
 1361SOL    HW1 4098   1.216   4.548   4.075
 1361SOL    HW2 4099   1.298   4.565   3.934
 1362SOL     OW 4100   1.726   3.859   4.247
 1362SOL    HW1 4101   1.799   3.842   4.180
 1362SOL    HW2 4102   1.695   3.772   4.285
 1363SOL     OW 4103   1.280   4.651   4.396
 1363SOL    HW1 4104   1.340   4.570   4.398
 1363SOL    HW2 4105   1.320   4.720   4.336
 1364SOL     OW 4106   1.841   3.899   4.687
 1364SOL    HW1 4107   1.880   3.814   4.651
 1364SOL    HW2 4108   1.743   3.901   4.668
 1365SOL     OW 4109   0.263   4.050   4.444
 1365SOL    HW1 4110   0.184   4.101   4.410
 1365SOL    HW2 4111   0.254   4.035   4.542
 1366SOL     OW 4112   0.916   4.634   4.015
 1366SOL    HW1 4113   0.979   4.672   3.947
 1366SOL    HW2 4114   0.956   4.551   4.054
 1367SOL     OW 4115   0.075   4.069   3.757
 1367SOL    HW1 4116  -0.017   4.041   3.728
 1367SOL    HW2 4117   0.106   4.146   3.701
 1368SOL     OW 4118   0.072   3.890   4.042
 1368SOL    HW1 4119   0.055   3.973   3.988
 1368SOL    HW2 4120   0.162   3.853   4.020
 1369SOL     OW 4121   1.674   4.607   4.978
 1369SOL    HW1 4122   1.647   4.518   4.941
 1369SOL    HW2 4123   1.675   4.675   4.905
 1370SOL     OW 4124   1.225   4.049   4.173
 1370SOL    HW1 4125   1.290   3.975   4.162
 1370SOL    HW2 4126   1.245   4.099   4.257
 1371SOL     OW 4127   0.594   4.469   4.376
 1371SOL    HW1 4128   0.644   4.554   4.357
 1371SOL    HW2 4129   0.506   4.471   4.328
 1372SOL     OW 4130   1.824   3.916   4.951
 1372SOL    HW1 4131   1.820   3.826   4.995
 1372SOL    HW2 4132   1.827   3.905   4.852
 1373SOL     OW 4133   0.428   4.148   4.244
 1373SOL    HW1 4134   0.458   4.076   4.182
 1373SOL    HW2 4135   0.389   4.108   4.327
 1374SOL     OW 4136   1.352   3.776   3.892
 1374SOL    HW1 4137   1.387   3.735   3.808
 1374SOL    HW2 4138   1.262   3.738   3.912
 1375SOL     OW 4139   1.300   4.177   4.415
 1375SOL    HW1 4140   1.241   4.257   4.419
 1375SOL    HW2 4141   1.315   4.142   4.508
 1376SOL     OW 4142   1.593   3.945   4.606
 1376SOL    HW1 4143   1.509   3.944   4.660
 1376SOL    HW2 4144   1.595   4.028   4.550
 1377SOL     OW 4145   2.092   0.628   0.113
 1377SOL    HW1 4146   1.999   0.626   0.150
 1377SOL    HW2 4147   2.093   0.589   0.021
 1378SOL     OW 4148   2.087   0.275   0.996
 1378SOL    HW1 4149   2.122   0.258   1.088
 1378SOL    HW2 4150   1.999   0.230   0.984
 1379SOL     OW 4151   1.881   0.368   0.647
 1379SOL    HW1 4152   1.799   0.411   0.686
 1379SOL    HW2 4153   1.853   0.295   0.584
 1380SOL     OW 4154   2.431   1.275   1.165
 1380SOL    HW1 4155   2.338   1.268   1.128
 1380SOL    HW2 4156   2.442   1.364   1.209
 1381SOL     OW 4157   3.417   1.511   0.703
 1381SOL    HW1 4158   3.360   1.495   0.784
 1381SOL    HW2 4159   3.358   1.521   0.623
 1382SOL     OW 4160   2.997   0.703   0.717
 1382SOL    HW1 4161   3.054   0.781   0.692
 1382SOL    HW2 4162   2.937   0.729   0.793
 1383SOL     OW 4163   3.617   0.607   0.231
 1383SOL    HW1 4164   3.605   0.594   0.132
 1383SOL    HW2 4165   3.587   0.526   0.280
 1384SOL     OW 4166   2.630   1.144   1.023
 1384SOL    HW1 4167   2.552   1.161   1.083
 1384SOL    HW2 4168   2.664   1.231   0.987
 1385SOL     OW 4169   2.712   0.798   1.823
 1385SOL    HW1 4170   2.708   0.874   1.888
 1385SOL    HW2 4171   2.734   0.834   1.732
 1386SOL     OW 4172   2.547   1.012   0.665
 1386SOL    HW1 4173   2.616   0.996   0.735
 1386SOL    HW2 4174   2.474   1.069   0.703
 1387SOL     OW 4175   2.548   1.161   1.803
 1387SOL    HW1 4176   2.608   1.240   1.817
 1387SOL    HW2 4177   2.462   1.192   1.762
 1388SOL     OW 4178   2.197   1.435   1.061
 1388SOL    HW1 4179   2.119   1.404   1.008
 1388SOL    HW2 4180   2.255   1.493   1.004
 1389SOL     OW 4181   3.322   1.505   1.339
 1389SOL    HW1 4182   3.346   1.599   1.365
 1389SOL    HW2 4183   3.306   1.451   1.421
 1390SOL     OW 4184   2.300   0.392   1.499
 1390SOL    HW1 4185   2.382   0.336   1.508
 1390SOL    HW2 4186   2.219   0.334   1.503
 1391SOL     OW 4187   3.465   0.447   0.737
 1391SOL    HW1 4188   3.391   0.493   0.687
 1391SOL    HW2 4189   3.516   0.515   0.790
 1392SOL     OW 4190   2.093   1.713   0.483
 1392SOL    HW1 4191   2.127   1.790   0.537
 1392SOL    HW2 4192   2.137   1.713   0.393
 1393SOL     OW 4193   2.989   1.341   1.690
 1393SOL    HW1 4194   3.036   1.341   1.778
 1393SOL    HW2 4195   2.941   1.254   1.679
 1394SOL     OW 4196   2.092   1.434   0.538
 1394SOL    HW1 4197   2.066   1.530   0.538
 1394SOL    HW2 4198   2.021   1.380   0.583
 1395SOL     OW 4199   2.102   1.091   0.886
 1395SOL    HW1 4200   2.116   1.007   0.938
 1395SOL    HW2 4201   2.047   1.155   0.941
 1396SOL     OW 4202   2.482   1.786   1.439
 1396SOL    HW1 4203   2.390   1.769   1.474
 1396SOL    HW2 4204   2.510   1.878   1.465
 1397SOL     OW 4205   2.468   0.964   0.123
 1397SOL    HW1 4206   2.475   1.048   0.069
 1397SOL    HW2 4207   2.514   0.977   0.211
 1398SOL     OW 4208   3.456   0.114   1.480
 1398SOL    HW1 4209   3.438   0.181   1.408
 1398SOL    HW2 4210   3.453   0.160   1.569
 1399SOL     OW 4211   1.984   0.643   0.563
 1399SOL    HW1 4212   1.939   0.555   0.580
 1399SOL    HW2 4213   1.983   0.697   0.647
 1400SOL     OW 4214   3.704   1.767   0.359
 1400SOL    HW1 4215   3.758   1.738   0.439
 1400SOL    HW2 4216   3.734   1.857   0.330
 1401SOL     OW 4217   1.889   1.596   0.117
 1401SOL    HW1 4218   1.870   1.500   0.138
 1401SOL    HW2 4219   1.856   1.654   0.192
 1402SOL     OW 4220   3.551   0.922   0.612
 1402SOL    HW1 4221   3.646   0.893   0.620
 1402SOL    HW2 4222   3.543   0.987   0.537
 1403SOL     OW 4223   3.503   1.108   0.432
 1403SOL    HW1 4224   3.589   1.110   0.380
 1403SOL    HW2 4225   3.517   1.155   0.520
 1404SOL     OW 4226   1.975   0.737   1.597
 1404SOL    HW1 4227   2.063   0.724   1.642
 1404SOL    HW2 4228   1.962   0.834   1.575
 1405SOL     OW 4229   2.475   1.365   0.726
 1405SOL    HW1 4230   2.426   1.278   0.735
 1405SOL    HW2 4231   2.452   1.408   0.639
 1406SOL     OW 4232   3.155   1.228   1.423
 1406SOL    HW1 4233   3.192   1.155   1.365
 1406SOL    HW2 4234   3.207   1.233   1.508
 1407SOL     OW 4235   2.671   0.004   0.502
 1407SOL    HW1 4236   2.711   0.095   0.493
 1407SOL    HW2 4237   2.571   0.012   0.508
 1408SOL     OW 4238   2.059   0.976   1.264
 1408SOL    HW1 4239   2.148   0.931   1.250
 1408SOL    HW2 4240   1.986   0.911   1.245
 1409SOL     OW 4241   3.387   0.999   0.190
 1409SOL    HW1 4242   3.324   0.923   0.203
 1409SOL    HW2 4243   3.435   1.017   0.276
 1410SOL     OW 4244   3.049   1.792   1.616
 1410SOL    HW1 4245   3.073   1.852   1.540
 1410SOL    HW2 4246   3.056   1.697   1.586
 1411SOL     OW 4247   2.179   0.251   1.801
 1411SOL    HW1 4248   2.250   0.322   1.807
 1411SOL    HW2 4249   2.091   0.290   1.829
 1412SOL     OW 4250   3.328   1.417   0.953
 1412SOL    HW1 4251   3.269   1.423   1.033
 1412SOL    HW2 4252   3.313   1.329   0.907
 1413SOL     OW 4253   3.529   1.714   0.572
 1413SOL    HW1 4254   3.488   1.691   0.484
 1413SOL    HW2 4255   3.511   1.640   0.637
 1414SOL     OW 4256   2.460   0.729   0.270
 1414SOL    HW1 4257   2.484   0.798   0.202
 1414SOL    HW2 4258   2.382   0.762   0.324
 1415SOL     OW 4259   3.143   0.345   0.944
 1415SOL    HW1 4260   3.057   0.295   0.931
 1415SOL    HW2 4261   3.205   0.291   1.000
 1416SOL     OW 4262   3.438   1.662   0.307
 1416SOL    HW1 4263   3.527   1.708   0.310
 1416SOL    HW2 4264   3.417   1.638   0.212
 1417SOL     OW 4265   2.669   0.605   1.465
 1417SOL    HW1 4266   2.622   0.602   1.554
 1417SOL    HW2 4267   2.618   0.550   1.399
 1418SOL     OW 4268   3.256   0.469   1.674
 1418SOL    HW1 4269   3.236   0.512   1.762
 1418SOL    HW2 4270   3.334   0.407   1.683
 1419SOL     OW 4271   2.835   0.890   1.572
 1419SOL    HW1 4272   2.881   0.806   1.543
 1419SOL    HW2 4273   2.779   0.924   1.497
 1420SOL     OW 4274   2.853   0.410   1.242
 1420SOL    HW1 4275   2.776   0.444   1.296
 1420SOL    HW2 4276   2.819   0.359   1.163
 1421SOL     OW 4277   2.903   0.701   0.429
 1421SOL    HW1 4278   2.929   0.697   0.525
 1421SOL    HW2 4279   2.818   0.650   0.415
 1422SOL     OW 4280   1.938   0.811   0.789
 1422SOL    HW1 4281   2.037   0.799   0.798
 1422SOL    HW2 4282   1.914   0.906   0.810
 1423SOL     OW 4283   1.992   1.821   1.571
 1423SOL    HW1 4284   1.982   1.806   1.670
 1423SOL    HW2 4285   1.906   1.857   1.535
 1424SOL     OW 4286   2.727   0.348   0.195
 1424SOL    HW1 4287   2.786   0.411   0.146
 1424SOL    HW2 4288   2.746   0.254   0.166
 1425SOL     OW 4289   3.581   0.585   1.831
 1425SOL    HW1 4290   3.555   0.674   1.795
 1425SOL    HW2 4291   3.579   0.517   1.758
 1426SOL     OW 4292   3.224   1.144   0.545
 1426SOL    HW1 4293   3.307   1.115   0.497
 1426SOL    HW2 4294   3.175   1.211   0.489
 1427SOL     OW 4295   2.412   0.196   0.885
 1427SOL    HW1 4296   2.407   0.191   0.985
 1427SOL    HW2 4297   2.414   0.292   0.856
 1428SOL     OW 4298   2.870   1.456   0.477
 1428SOL    HW1 4299   2.824   1.528   0.425
 1428SOL    HW2 4300   2.866   1.476   0.575
 1429SOL     OW 4301   2.213   1.801   0.853
 1429SOL    HW1 4302   2.263   1.715   0.859
 1429SOL    HW2 4303   2.278   1.878   0.850
 1430SOL     OW 4304   3.657   1.066   0.873
 1430SOL    HW1 4305   3.595   1.051   0.797
 1430SOL    HW2 4306   3.605   1.077   0.958
 1431SOL     OW 4307   3.089   1.550   1.506
 1431SOL    HW1 4308   3.095   1.473   1.570
 1431SOL    HW2 4309   3.037   1.524   1.426
 1432SOL     OW 4310   2.183   0.943   0.242
 1432SOL    HW1 4311   2.265   0.982   0.200
 1432SOL    HW2 4312   2.156   0.861   0.193
 1433SOL     OW 4313   3.320   0.735   0.728
 1433SOL    HW1 4314   3.315   0.670   0.803
 1433SOL    HW2 4315   3.400   0.794   0.741
 1434SOL     OW 4316   2.323   1.266   1.727
 1434SOL    HW1 4317   2.273   1.267   1.641
 1434SOL    HW2 4318   2.260   1.248   1.803
 1435SOL     OW 4319   2.973   1.776   0.237
 1435SOL    HW1 4320   2.913   1.714   0.287
 1435SOL    HW2 4321   3.004   1.732   0.152
 1436SOL     OW 4322   2.064   0.285   1.498
 1436SOL    HW1 4323   1.984   0.345   1.485
 1436SOL    HW2 4324   2.054   0.236   1.584
 1437SOL     OW 4325   3.494   1.377   0.081
 1437SOL    HW1 4326   3.462   1.471   0.071
 1437SOL    HW2 4327   3.418   1.314   0.069
 1438SOL     OW 4328   2.326   1.743   0.323
 1438SOL    HW1 4329   2.359   1.782   0.409
 1438SOL    HW2 4330   2.402   1.736   0.258
 1439SOL     OW 4331   3.262   0.107   0.426
 1439SOL    HW1 4332   3.238   0.070   0.336
 1439SOL    HW2 4333   3.361   0.123   0.430
 1440SOL     OW 4334   2.111   1.785   1.241
 1440SOL    HW1 4335   2.168   1.720   1.291
 1440SOL    HW2 4336   2.095   1.752   1.148
 1441SOL     OW 4337   2.802   1.698   0.904
 1441SOL    HW1 4338   2.882   1.641   0.925
 1441SOL    HW2 4339   2.753   1.658   0.827
 1442SOL     OW 4340   2.244   0.700   0.480
 1442SOL    HW1 4341   2.289   0.610   0.477
 1442SOL    HW2 4342   2.150   0.689   0.513
 1443SOL     OW 4343   3.409   0.222   1.729
 1443SOL    HW1 4344   3.404   0.259   1.821
 1443SOL    HW2 4345   3.337   0.153   1.717
 1444SOL     OW 4346   2.476   0.122   0.117
 1444SOL    HW1 4347   2.574   0.100   0.124
 1444SOL    HW2 4348   2.445   0.105   0.024
 1445SOL     OW 4349   2.643   0.264   1.749
 1445SOL    HW1 4350   2.710   0.203   1.792
 1445SOL    HW2 4351   2.570   0.283   1.814
 1446SOL     OW 4352   2.750   1.514   1.195
 1446SOL    HW1 4353   2.727   1.489   1.101
 1446SOL    HW2 4354   2.811   1.445   1.234
 1447SOL     OW 4355   3.213   0.590   1.433
 1447SOL    HW1 4356   3.241   0.547   1.518
 1447SOL    HW2 4357   3.238   0.686   1.434
 1448SOL     OW 4358   2.665   1.402   0.924
 1448SOL    HW1 4359   2.755   1.416   0.882
 1448SOL    HW2 4360   2.594   1.404   0.853
 1449SOL     OW 4361   2.784   0.503   0.899
 1449SOL    HW1 4362   2.759   0.494   0.803
 1449SOL    HW2 4363   2.832   0.421   0.930
 1450SOL     OW 4364   2.401   0.064   0.512
 1450SOL    HW1 4365   2.320   0.065   0.570
 1450SOL    HW2 4366   2.404   0.147   0.457
 1451SOL     OW 4367   3.296   1.188   0.041
 1451SOL    HW1 4368   3.328   1.112   0.098
 1451SOL    HW2 4369   3.204   1.215   0.071
 1452SOL     OW 4370   2.159   0.035   0.171
 1452SOL    HW1 4371   2.208   0.119   0.150
 1452SOL    HW2 4372   2.221  -0.030   0.216
 1453SOL     OW 4373   2.797   0.236   0.480
 1453SOL    HW1 4374   2.749   0.277   0.402
 1453SOL    HW2 4375   2.896   0.234   0.461
 1454SOL     OW 4376   2.938   0.683   1.464
 1454SOL    HW1 4377   2.858   0.622   1.467
 1454SOL    HW2 4378   3.019   0.630   1.440
 1455SOL     OW 4379   3.089   1.570   0.793
 1455SOL    HW1 4380   3.110   1.644   0.728
 1455SOL    HW2 4381   3.157   1.570   0.866
 1456SOL     OW 4382   2.321   1.152   0.741
 1456SOL    HW1 4383   2.250   1.125   0.806
 1456SOL    HW2 4384   2.295   1.124   0.648
 1457SOL     OW 4385   3.133   1.797   0.591
 1457SOL    HW1 4386   3.177   1.861   0.527
 1457SOL    HW2 4387   3.083   1.849   0.661
 1458SOL     OW 4388   2.894   0.549   0.016
 1458SOL    HW1 4389   2.853   0.631  -0.023
 1458SOL    HW2 4390   2.958   0.575   0.089
 1459SOL     OW 4391   1.940   0.556   1.386
 1459SOL    HW1 4392   2.032   0.555   1.345
 1459SOL    HW2 4393   1.934   0.630   1.453
 1460SOL     OW 4394   2.423   0.222   1.147
 1460SOL    HW1 4395   2.461   0.138   1.184
 1460SOL    HW2 4396   2.335   0.241   1.191
 1461SOL     OW 4397   2.728   0.454   0.642
 1461SOL    HW1 4398   2.696   0.526   0.580
 1461SOL    HW2 4399   2.752   0.373   0.589
 1462SOL     OW 4400   2.879   0.039   0.753
 1462SOL    HW1 4401   2.807   0.044   0.684
 1462SOL    HW2 4402   2.855  -0.030   0.822
 1463SOL     OW 4403   3.291   1.173   0.867
 1463SOL    HW1 4404   3.236   1.089   0.860
 1463SOL    HW2 4405   3.317   1.202   0.775
 1464SOL     OW 4406   3.328   0.590   0.992
 1464SOL    HW1 4407   3.298   0.495   0.999
 1464SOL    HW2 4408   3.401   0.606   1.058
 1465SOL     OW 4409   3.719   0.833   0.377
 1465SOL    HW1 4410   3.761   0.769   0.441
 1465SOL    HW2 4411   3.681   0.782   0.299
 1466SOL     OW 4412   2.350   1.385   0.174
 1466SOL    HW1 4413   2.263   1.370   0.221
 1466SOL    HW2 4414   2.333   1.411   0.079
 1467SOL     OW 4415   3.526   1.280   0.657
 1467SOL    HW1 4416   3.625   1.288   0.671
 1467SOL    HW2 4417   3.481   1.364   0.688
 1468SOL     OW 4418   3.252   0.575   0.078
 1468SOL    HW1 4419   3.198   0.554   0.159
 1468SOL    HW2 4420   3.343   0.534   0.087
 1469SOL     OW 4421   2.389   0.256   0.328
 1469SOL    HW1 4422   2.416   0.197   0.253
 1469SOL    HW2 4423   2.389   0.351   0.297
 1470SOL     OW 4424   3.616   1.223   1.588
 1470SOL    HW1 4425   3.707   1.184   1.575
 1470SOL    HW2 4426   3.624   1.319   1.612
 1471SOL     OW 4427   2.926   1.347   1.340
 1471SOL    HW1 4428   2.846   1.324   1.395
 1471SOL    HW2 4429   3.009   1.321   1.389
 1472SOL     OW 4430   3.454   1.629   1.625
 1472SOL    HW1 4431   3.481   1.663   1.535
 1472SOL    HW2 4432   3.533   1.591   1.671
 1473SOL     OW 4433   2.973   1.195   1.100
 1473SOL    HW1 4434   2.933   1.239   1.181
 1473SOL    HW2 4435   2.932   1.232   1.017
 1474SOL     OW 4436   3.500   1.099   1.079
 1474SOL    HW1 4437   3.505   1.180   1.138
 1474SOL    HW2 4438   3.414   1.101   1.028
 1475SOL     OW 4439   2.777   0.089   1.402
 1475SOL    HW1 4440   2.802   0.069   1.307
 1475SOL    HW2 4441   2.849   0.145   1.444
 1476SOL     OW 4442   2.842   1.116   1.719
 1476SOL    HW1 4443   2.743   1.122   1.729
 1476SOL    HW2 4444   2.865   1.036   1.663
 1477SOL     OW 4445   2.567   1.050   0.368
 1477SOL    HW1 4446   2.553   1.057   0.467
 1477SOL    HW2 4447   2.651   0.999   0.350
 1478SOL     OW 4448   2.272   0.813   1.251
 1478SOL    HW1 4449   2.358   0.825   1.301
 1478SOL    HW2 4450   2.230   0.726   1.278
 1479SOL     OW 4451   3.136   0.386   1.262
 1479SOL    HW1 4452   3.157   0.460   1.326
 1479SOL    HW2 4453   3.047   0.403   1.219
 1480SOL     OW 4454   1.926   1.564   1.331
 1480SOL    HW1 4455   1.880   1.646   1.297
 1480SOL    HW2 4456   2.024   1.583   1.340
 1481SOL     OW 4457   2.229   1.100   0.501
 1481SOL    HW1 4458   2.222   1.183   0.445
 1481SOL    HW2 4459   2.233   1.020   0.441
 1482SOL     OW 4460   2.428   0.537   0.865
 1482SOL    HW1 4461   2.440   0.603   0.791
 1482SOL    HW2 4462   2.474   0.571   0.948
 1483SOL     OW 4463   3.114   1.348   0.388
 1483SOL    HW1 4464   3.164   1.425   0.428
 1483SOL    HW2 4465   3.019   1.350   0.420
 1484SOL     OW 4466   3.134   1.445   1.142
 1484SOL    HW1 4467   3.181   1.458   1.229
 1484SOL    HW2 4468   3.068   1.371   1.151
 1485SOL     OW 4469   3.444   0.639   0.472
 1485SOL    HW1 4470   3.413   0.700   0.545
 1485SOL    HW2 4471   3.494   0.691   0.403
 1486SOL     OW 4472   2.216   1.510   1.329
 1486SOL    HW1 4473   2.195   1.466   1.242
 1486SOL    HW2 4474   2.313   1.536   1.332
 1487SOL     OW 4475   2.264   0.751   1.598
 1487SOL    HW1 4476   2.332   0.806   1.551
 1487SOL    HW2 4477   2.304   0.663   1.625
 1488SOL     OW 4478   3.449   0.779   1.670
 1488SOL    HW1 4479   3.357   0.817   1.665
 1488SOL    HW2 4480   3.509   0.826   1.605
 1489SOL     OW 4481   2.875   0.105   1.770
 1489SOL    HW1 4482   2.881   0.190   1.718
 1489SOL    HW2 4483   2.907   0.029   1.713
 1490SOL     OW 4484   2.366   0.050   1.740
 1490SOL    HW1 4485   2.324  -0.007   1.670
 1490SOL    HW2 4486   2.300   0.119   1.772
 1491SOL     OW 4487   2.435   0.870   1.029
 1491SOL    HW1 4488   2.479   0.959   1.020
 1491SOL    HW2 4489   2.372   0.870   1.106
 1492SOL     OW 4490   3.222   0.862   1.045
 1492SOL    HW1 4491   3.147   0.862   0.979
 1492SOL    HW2 4492   3.259   0.770   1.054
 1493SOL     OW 4493   3.071   0.525   0.275
 1493SOL    HW1 4494   3.084   0.441   0.329
 1493SOL    HW2 4495   3.042   0.599   0.335
 1494SOL     OW 4496   2.169   0.213   1.231
 1494SOL    HW1 4497   2.146   0.250   1.321
 1494SOL    HW2 4498   2.139   0.118   1.225
 1495SOL     OW 4499   1.899   1.310   1.282
 1495SOL    HW1 4500   1.952   1.261   1.350
 1495SOL    HW2 4501   1.921   1.408   1.287
 1496SOL     OW 4502   2.594   0.634   1.064
 1496SOL    HW1 4503   2.653   0.608   0.988
 1496SOL    HW2 4504   2.566   0.730   1.053
 1497SOL     OW 4505   3.590   0.935   1.854
 1497SOL    HW1 4506   3.544   0.928   1.765
 1497SOL    HW2 4507   3.528   0.979   1.920
 1498SOL     OW 4508   2.169   0.063   0.618
 1498SOL    HW1 4509   2.158   0.157   0.651
 1498SOL    HW2 4510   2.164   0.000   0.695
 1499SOL     OW 4511   3.484   0.367   0.374
 1499SOL    HW1 4512   3.486   0.291   0.438
 1499SOL    HW2 4513   3.436   0.444   0.414
 1500SOL     OW 4514   2.885   0.766   0.966
 1500SOL    HW1 4515   2.900   0.787   1.062
 1500SOL    HW2 4516   2.855   0.671   0.957
 1501SOL     OW 4517   2.842   1.573   1.700
 1501SOL    HW1 4518   2.822   1.617   1.612
 1501SOL    HW2 4519   2.881   1.482   1.684
 1502SOL     OW 4520   3.721   1.518   1.605
 1502SOL    HW1 4521   3.735   1.545   1.510
 1502SOL    HW2 4522   3.804   1.540   1.658
 1503SOL     OW 4523   2.212   0.898   1.804
 1503SOL    HW1 4524   2.288   0.942   1.852
 1503SOL    HW2 4525   2.247   0.851   1.722
 1504SOL     OW 4526   3.402   0.274   0.125
 1504SOL    HW1 4527   3.341   0.199   0.148
 1504SOL    HW2 4528   3.424   0.326   0.208
 1505SOL     OW 4529   3.165   0.838   0.042
 1505SOL    HW1 4530   3.199   0.745   0.057
 1505SOL    HW2 4531   3.183   0.865  -0.053
 1506SOL     OW 4532   2.930   1.333   0.849
 1506SOL    HW1 4533   2.937   1.249   0.794
 1506SOL    HW2 4534   2.992   1.402   0.813
 1507SOL     OW 4535   2.181   0.810   0.949
 1507SOL    HW1 4536   2.274   0.846   0.954
 1507SOL    HW2 4537   2.175   0.725   1.001
 1508SOL     OW 4538   2.201   0.509   1.006
 1508SOL    HW1 4539   2.149   0.426   0.989
 1508SOL    HW2 4540   2.278   0.514   0.942
 1509SOL     OW 4541   3.000   0.380   1.678
 1509SOL    HW1 4542   2.955   0.443   1.742
 1509SOL    HW2 4543   3.093   0.411   1.661
 1510SOL     OW 4544   3.022   0.207   1.477
 1510SOL    HW1 4545   3.022   0.271   1.554
 1510SOL    HW2 4546   3.050   0.255   1.394
 1511SOL     OW 4547   1.870   1.326   0.200
 1511SOL    HW1 4548   1.777   1.347   0.169
 1511SOL    HW2 4549   1.880   1.227   0.213
 1512SOL     OW 4550   1.950   1.801   0.927
 1512SOL    HW1 4551   1.908   1.715   0.900
 1512SOL    HW2 4552   2.044   1.804   0.893
 1513SOL     OW 4553   2.366   1.568   0.910
 1513SOL    HW1 4554   2.432   1.642   0.919
 1513SOL    HW2 4555   2.410   1.489   0.868
 1514SOL     OW 4556   2.864   0.796   1.238
 1514SOL    HW1 4557   2.905   0.764   1.324
 1514SOL    HW2 4558   2.768   0.769   1.235
 1515SOL     OW 4559   1.902   0.544   1.114
 1515SOL    HW1 4560   1.987   0.511   1.073
 1515SOL    HW2 4561   1.915   0.559   1.212
 1516SOL     OW 4562   2.051   0.520   1.722
 1516SOL    HW1 4563   2.110   0.480   1.652
 1516SOL    HW2 4564   1.993   0.591   1.681
 1517SOL     OW 4565   3.231   0.950   1.660
 1517SOL    HW1 4566   3.270   1.039   1.680
 1517SOL    HW2 4567   3.241   0.930   1.563
 1518SOL     OW 4568   2.677   0.572   0.325
 1518SOL    HW1 4569   2.684   0.483   0.279
 1518SOL    HW2 4570   2.583   0.606   0.317
 1519SOL     OW 4571   3.519   0.604   1.206
 1519SOL    HW1 4572   3.481   0.535   1.268
 1519SOL    HW2 4573   3.601   0.568   1.162
 1520SOL     OW 4574   2.114   1.564   1.744
 1520SOL    HW1 4575   2.084   1.621   1.820
 1520SOL    HW2 4576   2.107   1.467   1.770
 1521SOL     OW 4577   2.533   0.464   1.269
 1521SOL    HW1 4578   2.499   0.375   1.239
 1521SOL    HW2 4579   2.559   0.518   1.189
 1522SOL     OW 4580   2.792   1.678   1.465
 1522SOL    HW1 4581   2.768   1.660   1.370
 1522SOL    HW2 4582   2.822   1.772   1.475
 1523SOL     OW 4583   2.335   0.500   0.191
 1523SOL    HW1 4584   2.396   0.580   0.195
 1523SOL    HW2 4585   2.240   0.531   0.198
 1524SOL     OW 4586   2.021   1.137   1.466
 1524SOL    HW1 4587   2.043   1.076   1.542
 1524SOL    HW2 4588   2.031   1.088   1.380
 1525SOL     OW 4589   3.209   1.059   1.234
 1525SOL    HW1 4590   3.233   0.996   1.160
 1525SOL    HW2 4591   3.119   1.099   1.216
 1526SOL     OW 4592   3.164   0.855   0.309
 1526SOL    HW1 4593   3.078   0.824   0.351
 1526SOL    HW2 4594   3.160   0.841   0.210
 1527SOL     OW 4595   3.621   1.747   1.154
 1527SOL    HW1 4596   3.682   1.777   1.081
 1527SOL    HW2 4597   3.583   1.658   1.132
 1528SOL     OW 4598   3.114   1.731   1.128
 1528SOL    HW1 4599   3.198   1.736   1.074
 1528SOL    HW2 4600   3.091   1.635   1.146
 1529SOL     OW 4601   1.945   1.258   1.022
 1529SOL    HW1 4602   1.940   1.257   1.122
 1529SOL    HW2 4603   1.862   1.217   0.984
 1530SOL     OW 4604   2.550   1.662   1.716
 1530SOL    HW1 4605   2.494   1.743   1.725
 1530SOL    HW2 4606   2.602   1.666   1.630
 1531SOL     OW 4607   2.765   0.086   0.133
 1531SOL    HW1 4608   2.816   0.087   0.047
 1531SOL    HW2 4609   2.821   0.044   0.204
 1532SOL     OW 4610   3.588   0.135   0.523
 1532SOL    HW1 4611   3.661   0.118   0.456
 1532SOL    HW2 4612   3.557   0.048   0.561
 1533SOL     OW 4613   3.250   1.573   0.477
 1533SOL    HW1 4614   3.317   1.585   0.403
 1533SOL    HW2 4615   3.210   1.662   0.500
 1534SOL     OW 4616   1.992   1.794   1.851
 1534SOL    HW1 4617   1.951   1.720   1.904
 1534SOL    HW2 4618   2.056   1.845   1.909
 1535SOL     OW 4619   3.142   0.927   0.672
 1535SOL    HW1 4620   3.202   0.846   0.674
 1535SOL    HW2 4621   3.182   0.996   0.612
 1536SOL     OW 4622   2.692   1.273   1.422
 1536SOL    HW1 4623   2.687   1.306   1.517
 1536SOL    HW2 4624   2.606   1.292   1.376
 1537SOL     OW 4625   2.534   1.616   0.154
 1537SOL    HW1 4626   2.543   1.626   0.055
 1537SOL    HW2 4627   2.494   1.527   0.175
 1538SOL     OW 4628   3.512   1.720   1.394
 1538SOL    HW1 4629   3.565   1.730   1.310
 1538SOL    HW2 4630   3.485   1.810   1.428
 1539SOL     OW 4631   3.703   0.175   0.963
 1539SOL    HW1 4632   3.742   0.090   0.927
 1539SOL    HW2 4633   3.605   0.177   0.944
 1540SOL     OW 4634   2.125   0.326   0.720
 1540SOL    HW1 4635   2.046   0.377   0.686
 1540SOL    HW2 4636   2.116   0.311   0.818
 1541SOL     OW 4637   3.056   1.612   0.031
 1541SOL    HW1 4638   3.062   1.519   0.068
 1541SOL    HW2 4639   2.997   1.612  -0.049
 1542SOL     OW 4640   2.684   1.002   1.372
 1542SOL    HW1 4641   2.724   1.001   1.280
 1542SOL    HW2 4642   2.694   1.094   1.412
 1543SOL     OW 4643   2.778   0.910   0.291
 1543SOL    HW1 4644   2.841   0.948   0.223
 1543SOL    HW2 4645   2.818   0.827   0.330
 1544SOL     OW 4646   3.366   1.607   0.044
 1544SOL    HW1 4647   3.274   1.644   0.051
 1544SOL    HW2 4648   3.404   1.627  -0.046
 1545SOL     OW 4649   2.234   1.288   1.490
 1545SOL    HW1 4650   2.221   1.381   1.456
 1545SOL    HW2 4651   2.150   1.236   1.477
 1546SOL     OW 4652   3.476   1.292   1.289
 1546SOL    HW1 4653   3.536   1.295   1.369
 1546SOL    HW2 4654   3.401   1.356   1.302
 1547SOL     OW 4655   2.901   1.098   0.696
 1547SOL    HW1 4656   2.831   1.051   0.750
 1547SOL    HW2 4657   2.960   1.030   0.653
 1548SOL     OW 4658   2.876   0.236   0.971
 1548SOL    HW1 4659   2.868   0.200   0.878
 1548SOL    HW2 4660   2.874   0.160   1.036
 1549SOL     OW 4661   2.452   1.487   0.491
 1549SOL    HW1 4662   2.494   1.429   0.421
 1549SOL    HW2 4663   2.408   1.566   0.447
 1550SOL     OW 4664   3.571   0.385   1.381
 1550SOL    HW1 4665   3.644   0.454   1.385
 1550SOL    HW2 4666   3.599   0.310   1.322
 1551SOL     OW 4667   2.117   1.348   0.290
 1551SOL    HW1 4668   2.021   1.349   0.263
 1551SOL    HW2 4669   2.129   1.401   0.374
 1552SOL     OW 4670   1.967   1.013   1.726
 1552SOL    HW1 4671   1.890   0.980   1.780
 1552SOL    HW2 4672   2.052   0.983   1.768
 1553SOL     OW 4673   2.534   0.203   1.489
 1553SOL    HW1 4674   2.624   0.187   1.449
 1553SOL    HW2 4675   2.542   0.208   1.588
 1554SOL     OW 4676   1.937   0.345   0.033
 1554SOL    HW1 4677   1.845   0.317   0.004
 1554SOL    HW2 4678   1.968   0.422  -0.023
 1555SOL     OW 4679   3.302   0.856   1.398
 1555SOL    HW1 4680   3.245   0.908   1.335
 1555SOL    HW2 4681   3.398   0.868   1.374
 1556SOL     OW 4682   3.045   1.335   0.119
 1556SOL    HW1 4683   2.946   1.324   0.121
 1556SOL    HW2 4684   3.079   1.350   0.212
 1557SOL     OW 4685   2.475   0.842   1.431
 1557SOL    HW1 4686   2.531   0.923   1.414
 1557SOL    HW2 4687   2.534   0.762   1.434
 1558SOL     OW 4688   3.355   1.767   0.959
 1558SOL    HW1 4689   3.388   1.831   0.890
 1558SOL    HW2 4690   3.421   1.761   1.034
 1559SOL     OW 4691   2.578   0.565   1.708
 1559SOL    HW1 4692   2.597   0.630   1.782
 1559SOL    HW2 4693   2.638   0.485   1.717
 1560SOL     OW 4694   3.312   1.220   1.633
 1560SOL    HW1 4695   3.303   1.210   1.732
 1560SOL    HW2 4696   3.408   1.213   1.607
 1561SOL     OW 4697   2.252   1.741   1.560
 1561SOL    HW1 4698   2.161   1.782   1.558
 1561SOL    HW2 4699   2.245   1.647   1.592
 1562SOL     OW 4700   3.536   0.883   1.254
 1562SOL    HW1 4701   3.509   0.794   1.217
 1562SOL    HW2 4702   3.537   0.951   1.181
 1563SOL     OW 4703   3.087   0.325   0.449
 1563SOL    HW1 4704   3.152   0.251   0.438
 1563SOL    HW2 4705   3.107   0.375   0.533
 1564SOL     OW 4706   2.456   0.745   0.652
 1564SOL    HW1 4707   2.506   0.830   0.633
 1564SOL    HW2 4708   2.368   0.747   0.604
 1565SOL     OW 4709   3.639   0.342   1.642
 1565SOL    HW1 4710   3.622   0.373   1.548
 1565SOL    HW2 4711   3.555   0.305   1.680
 1566SOL     OW 4712   3.592   0.934   1.517
 1566SOL    HW1 4713   3.630   1.025   1.532
 1566SOL    HW2 4714   3.584   0.917   1.418
 1567SOL     OW 4715   2.721   1.374   0.016
 1567SOL    HW1 4716   2.675   1.389   0.104
 1567SOL    HW2 4717   2.765   1.459  -0.014
 1568SOL     OW 4718   2.523   1.790   0.953
 1568SOL    HW1 4719   2.477   1.878   0.940
 1568SOL    HW2 4720   2.622   1.802   0.946
 1569SOL     OW 4721   2.721   0.956   0.861
 1569SOL    HW1 4722   2.775   0.887   0.909
 1569SOL    HW2 4723   2.689   1.025   0.927
 1570SOL     OW 4724   2.945   0.984   0.087
 1570SOL    HW1 4725   2.922   1.037   0.005
 1570SOL    HW2 4726   3.026   0.928   0.068
 1571SOL     OW 4727   3.723   1.569   0.851
 1571SOL    HW1 4728   3.652   1.557   0.781
 1571SOL    HW2 4729   3.724   1.490   0.911
 1572SOL     OW 4730   2.083   1.314   1.844
 1572SOL    HW1 4731   2.018   1.241   1.823
 1572SOL    HW2 4732   2.087   1.328   1.942
 1573SOL     OW 4733   1.941   1.240   0.653
 1573SOL    HW1 4734   1.940   1.193   0.741
 1573SOL    HW2 4735   2.023   1.212   0.602
 1574SOL     OW 4736   2.534   1.391   1.624
 1574SOL    HW1 4737   2.456   1.341   1.662
 1574SOL    HW2 4738   2.531   1.486   1.655
 1575SOL     OW 4739   3.686   0.192   1.227
 1575SOL    HW1 4740   3.682   0.102   1.271
 1575SOL    HW2 4741   3.689   0.181   1.128
 1576SOL     OW 4742   2.290   0.424   0.520
 1576SOL    HW1 4743   2.320   0.352   0.458
 1576SOL    HW2 4744   2.251   0.384   0.603
 1577SOL     OW 4745   3.567   1.487   1.104
 1577SOL    HW1 4746   3.474   1.462   1.077
 1577SOL    HW2 4747   3.593   1.437   1.186
 1578SOL     OW 4748   2.179   0.547   1.280
 1578SOL    HW1 4749   2.217   0.488   1.352
 1578SOL    HW2 4750   2.219   0.521   1.192
 1579SOL     OW 4751   2.674   1.586   0.687
 1579SOL    HW1 4752   2.706   1.596   0.593
 1579SOL    HW2 4753   2.595   1.524   0.689
 1580SOL     OW 4754   3.286   0.214   1.112
 1580SOL    HW1 4755   3.338   0.149   1.167
 1580SOL    HW2 4756   3.237   0.277   1.173
 1581SOL     OW 4757   2.863   0.034   1.154
 1581SOL    HW1 4758   2.800  -0.038   1.123
 1581SOL    HW2 4759   2.956  -0.002   1.154
 1582SOL     OW 4760   2.632   1.330   0.301
 1582SOL    HW1 4761   2.586   1.243   0.318
 1582SOL    HW2 4762   2.723   1.327   0.342
 1583SOL     OW 4763   2.480   1.567   1.284
 1583SOL    HW1 4764   2.475   1.649   1.341
 1583SOL    HW2 4765   2.569   1.564   1.239
 1584SOL     OW 4766   3.214   0.052   0.168
 1584SOL    HW1 4767   3.249   0.011   0.084
 1584SOL    HW2 4768   3.124   0.014   0.188
 1585SOL     OW 4769   3.162   0.453   0.691
 1585SOL    HW1 4770   3.103   0.533   0.695
 1585SOL    HW2 4771   3.177   0.418   0.784
 1586SOL     OW 4772   3.455   0.221   0.882
 1586SOL    HW1 4773   3.371   0.220   0.936
 1586SOL    HW2 4774   3.457   0.304   0.826
 1587SOL     OW 4775   1.901   1.077   0.300
 1587SOL    HW1 4776   2.000   1.066   0.291
 1587SOL    HW2 4777   1.861   0.991   0.332
 1588SOL     OW 4778   2.737   1.646   0.337
 1588SOL    HW1 4779   2.660   1.611   0.283
 1588SOL    HW2 4780   2.705   1.717   0.399
 1589SOL     OW 4781   2.092   0.628   1.975
 1589SOL    HW1 4782   1.999   0.626   2.012
 1589SOL    HW2 4783   2.093   0.589   1.883
 1590SOL     OW 4784   2.087   0.275   2.858
 1590SOL    HW1 4785   2.122   0.258   2.950
 1590SOL    HW2 4786   1.999   0.230   2.846
 1591SOL     OW 4787   1.881   0.368   2.509
 1591SOL    HW1 4788   1.799   0.411   2.548
 1591SOL    HW2 4789   1.853   0.295   2.446
 1592SOL     OW 4790   2.431   1.275   3.027
 1592SOL    HW1 4791   2.338   1.268   2.990
 1592SOL    HW2 4792   2.442   1.364   3.071
 1593SOL     OW 4793   3.417   1.511   2.565
 1593SOL    HW1 4794   3.360   1.495   2.646
 1593SOL    HW2 4795   3.358   1.521   2.485
 1594SOL     OW 4796   2.997   0.703   2.579
 1594SOL    HW1 4797   3.054   0.781   2.554
 1594SOL    HW2 4798   2.937   0.729   2.655
 1595SOL     OW 4799   3.617   0.607   2.093
 1595SOL    HW1 4800   3.605   0.594   1.994
 1595SOL    HW2 4801   3.587   0.526   2.142
 1596SOL     OW 4802   2.630   1.144   2.885
 1596SOL    HW1 4803   2.552   1.161   2.945
 1596SOL    HW2 4804   2.664   1.231   2.849
 1597SOL     OW 4805   2.712   0.798   3.685
 1597SOL    HW1 4806   2.708   0.874   3.750
 1597SOL    HW2 4807   2.734   0.834   3.594
 1598SOL     OW 4808   2.547   1.012   2.527
 1598SOL    HW1 4809   2.616   0.996   2.597
 1598SOL    HW2 4810   2.474   1.069   2.565
 1599SOL     OW 4811   2.548   1.161   3.665
 1599SOL    HW1 4812   2.608   1.240   3.679
 1599SOL    HW2 4813   2.462   1.192   3.624
 1600SOL     OW 4814   2.197   1.435   2.923
 1600SOL    HW1 4815   2.119   1.404   2.870
 1600SOL    HW2 4816   2.255   1.493   2.866
 1601SOL     OW 4817   3.322   1.505   3.201
 1601SOL    HW1 4818   3.346   1.599   3.227
 1601SOL    HW2 4819   3.306   1.451   3.283
 1602SOL     OW 4820   2.300   0.392   3.361
 1602SOL    HW1 4821   2.382   0.336   3.370
 1602SOL    HW2 4822   2.219   0.334   3.365
 1603SOL     OW 4823   3.465   0.447   2.599
 1603SOL    HW1 4824   3.391   0.493   2.549
 1603SOL    HW2 4825   3.516   0.515   2.652
 1604SOL     OW 4826   2.093   1.713   2.345
 1604SOL    HW1 4827   2.127   1.790   2.399
 1604SOL    HW2 4828   2.137   1.713   2.255
 1605SOL     OW 4829   2.989   1.341   3.552
 1605SOL    HW1 4830   3.036   1.341   3.640
 1605SOL    HW2 4831   2.941   1.254   3.541
 1606SOL     OW 4832   2.092   1.434   2.400
 1606SOL    HW1 4833   2.066   1.530   2.400
 1606SOL    HW2 4834   2.021   1.380   2.445
 1607SOL     OW 4835   2.102   1.091   2.748
 1607SOL    HW1 4836   2.116   1.007   2.800
 1607SOL    HW2 4837   2.047   1.155   2.803
 1608SOL     OW 4838   2.482   1.786   3.301
 1608SOL    HW1 4839   2.390   1.769   3.336
 1608SOL    HW2 4840   2.510   1.878   3.327
 1609SOL     OW 4841   2.468   0.964   1.985
 1609SOL    HW1 4842   2.475   1.048   1.931
 1609SOL    HW2 4843   2.514   0.977   2.073
 1610SOL     OW 4844   3.456   0.114   3.342
 1610SOL    HW1 4845   3.438   0.181   3.270
 1610SOL    HW2 4846   3.453   0.160   3.431
 1611SOL     OW 4847   1.984   0.643   2.425
 1611SOL    HW1 4848   1.939   0.555   2.442
 1611SOL    HW2 4849   1.983   0.697   2.509
 1612SOL     OW 4850   3.704   1.767   2.221
 1612SOL    HW1 4851   3.758   1.738   2.301
 1612SOL    HW2 4852   3.734   1.857   2.192
 1613SOL     OW 4853   1.889   1.596   1.979
 1613SOL    HW1 4854   1.870   1.500   2.000
 1613SOL    HW2 4855   1.856   1.654   2.054
 1614SOL     OW 4856   3.551   0.922   2.474
 1614SOL    HW1 4857   3.646   0.893   2.482
 1614SOL    HW2 4858   3.543   0.987   2.399
 1615SOL     OW 4859   3.503   1.108   2.294
 1615SOL    HW1 4860   3.589   1.110   2.242
 1615SOL    HW2 4861   3.517   1.155   2.382
 1616SOL     OW 4862   1.975   0.737   3.459
 1616SOL    HW1 4863   2.063   0.724   3.504
 1616SOL    HW2 4864   1.962   0.834   3.437
 1617SOL     OW 4865   2.475   1.365   2.588
 1617SOL    HW1 4866   2.426   1.278   2.597
 1617SOL    HW2 4867   2.452   1.408   2.501
 1618SOL     OW 4868   3.155   1.228   3.285
 1618SOL    HW1 4869   3.192   1.155   3.227
 1618SOL    HW2 4870   3.207   1.233   3.370
 1619SOL     OW 4871   2.671   0.004   2.364
 1619SOL    HW1 4872   2.711   0.095   2.355
 1619SOL    HW2 4873   2.571   0.012   2.370
 1620SOL     OW 4874   2.059   0.976   3.126
 1620SOL    HW1 4875   2.148   0.931   3.112
 1620SOL    HW2 4876   1.986   0.911   3.107
 1621SOL     OW 4877   3.387   0.999   2.052
 1621SOL    HW1 4878   3.324   0.923   2.065
 1621SOL    HW2 4879   3.435   1.017   2.138
 1622SOL     OW 4880   3.049   1.792   3.478
 1622SOL    HW1 4881   3.073   1.852   3.402
 1622SOL    HW2 4882   3.056   1.697   3.448
 1623SOL     OW 4883   2.179   0.251   3.663
 1623SOL    HW1 4884   2.250   0.322   3.669
 1623SOL    HW2 4885   2.091   0.290   3.691
 1624SOL     OW 4886   3.328   1.417   2.815
 1624SOL    HW1 4887   3.269   1.423   2.895
 1624SOL    HW2 4888   3.313   1.329   2.769
 1625SOL     OW 4889   3.529   1.714   2.434
 1625SOL    HW1 4890   3.488   1.691   2.346
 1625SOL    HW2 4891   3.511   1.640   2.499
 1626SOL     OW 4892   2.460   0.729   2.132
 1626SOL    HW1 4893   2.484   0.798   2.064
 1626SOL    HW2 4894   2.382   0.762   2.186
 1627SOL     OW 4895   3.143   0.345   2.806
 1627SOL    HW1 4896   3.057   0.295   2.793
 1627SOL    HW2 4897   3.205   0.291   2.862
 1628SOL     OW 4898   3.438   1.662   2.169
 1628SOL    HW1 4899   3.527   1.708   2.172
 1628SOL    HW2 4900   3.417   1.638   2.074
 1629SOL     OW 4901   2.669   0.605   3.327
 1629SOL    HW1 4902   2.622   0.602   3.416
 1629SOL    HW2 4903   2.618   0.550   3.261
 1630SOL     OW 4904   3.256   0.469   3.536
 1630SOL    HW1 4905   3.236   0.512   3.624
 1630SOL    HW2 4906   3.334   0.407   3.545
 1631SOL     OW 4907   2.835   0.890   3.434
 1631SOL    HW1 4908   2.881   0.806   3.405
 1631SOL    HW2 4909   2.779   0.924   3.359
 1632SOL     OW 4910   2.853   0.410   3.104
 1632SOL    HW1 4911   2.776   0.444   3.158
 1632SOL    HW2 4912   2.819   0.359   3.025
 1633SOL     OW 4913   2.903   0.701   2.291
 1633SOL    HW1 4914   2.929   0.697   2.387
 1633SOL    HW2 4915   2.818   0.650   2.277
 1634SOL     OW 4916   1.938   0.811   2.651
 1634SOL    HW1 4917   2.037   0.799   2.660
 1634SOL    HW2 4918   1.914   0.906   2.672
 1635SOL     OW 4919   1.992   1.821   3.433
 1635SOL    HW1 4920   1.982   1.806   3.532
 1635SOL    HW2 4921   1.906   1.857   3.397
 1636SOL     OW 4922   2.727   0.348   2.057
 1636SOL    HW1 4923   2.786   0.411   2.008
 1636SOL    HW2 4924   2.746   0.254   2.028
 1637SOL     OW 4925   3.581   0.585   3.693
 1637SOL    HW1 4926   3.555   0.674   3.657
 1637SOL    HW2 4927   3.579   0.517   3.620
 1638SOL     OW 4928   3.224   1.144   2.407
 1638SOL    HW1 4929   3.307   1.115   2.359
 1638SOL    HW2 4930   3.175   1.211   2.351
 1639SOL     OW 4931   2.412   0.196   2.747
 1639SOL    HW1 4932   2.407   0.191   2.847
 1639SOL    HW2 4933   2.414   0.292   2.718
 1640SOL     OW 4934   2.870   1.456   2.339
 1640SOL    HW1 4935   2.824   1.528   2.287
 1640SOL    HW2 4936   2.866   1.476   2.437
 1641SOL     OW 4937   2.213   1.801   2.715
 1641SOL    HW1 4938   2.263   1.715   2.721
 1641SOL    HW2 4939   2.278   1.878   2.712
 1642SOL     OW 4940   3.657   1.066   2.735
 1642SOL    HW1 4941   3.595   1.051   2.659
 1642SOL    HW2 4942   3.605   1.077   2.820
 1643SOL     OW 4943   3.089   1.550   3.368
 1643SOL    HW1 4944   3.095   1.473   3.432
 1643SOL    HW2 4945   3.037   1.524   3.288
 1644SOL     OW 4946   2.183   0.943   2.104
 1644SOL    HW1 4947   2.265   0.982   2.062
 1644SOL    HW2 4948   2.156   0.861   2.055
 1645SOL     OW 4949   3.320   0.735   2.590
 1645SOL    HW1 4950   3.315   0.670   2.665
 1645SOL    HW2 4951   3.400   0.794   2.603
 1646SOL     OW 4952   2.323   1.266   3.589
 1646SOL    HW1 4953   2.273   1.267   3.503
 1646SOL    HW2 4954   2.260   1.248   3.665
 1647SOL     OW 4955   2.973   1.776   2.099
 1647SOL    HW1 4956   2.913   1.714   2.149
 1647SOL    HW2 4957   3.004   1.732   2.014
 1648SOL     OW 4958   2.064   0.285   3.360
 1648SOL    HW1 4959   1.984   0.345   3.347
 1648SOL    HW2 4960   2.054   0.236   3.446
 1649SOL     OW 4961   3.494   1.377   1.943
 1649SOL    HW1 4962   3.462   1.471   1.933
 1649SOL    HW2 4963   3.418   1.314   1.931
 1650SOL     OW 4964   2.326   1.743   2.185
 1650SOL    HW1 4965   2.359   1.782   2.271
 1650SOL    HW2 4966   2.402   1.736   2.120
 1651SOL     OW 4967   3.262   0.107   2.288
 1651SOL    HW1 4968   3.238   0.070   2.198
 1651SOL    HW2 4969   3.361   0.123   2.292
 1652SOL     OW 4970   2.111   1.785   3.103
 1652SOL    HW1 4971   2.168   1.720   3.153
 1652SOL    HW2 4972   2.095   1.752   3.010
 1653SOL     OW 4973   2.802   1.698   2.766
 1653SOL    HW1 4974   2.882   1.641   2.787
 1653SOL    HW2 4975   2.753   1.658   2.689
 1654SOL     OW 4976   2.244   0.700   2.342
 1654SOL    HW1 4977   2.289   0.610   2.339
 1654SOL    HW2 4978   2.150   0.689   2.375
 1655SOL     OW 4979   3.409   0.222   3.591
 1655SOL    HW1 4980   3.404   0.259   3.683
 1655SOL    HW2 4981   3.337   0.153   3.579
 1656SOL     OW 4982   2.476   0.122   1.979
 1656SOL    HW1 4983   2.574   0.100   1.986
 1656SOL    HW2 4984   2.445   0.105   1.886
 1657SOL     OW 4985   2.643   0.264   3.611
 1657SOL    HW1 4986   2.710   0.203   3.654
 1657SOL    HW2 4987   2.570   0.283   3.676
 1658SOL     OW 4988   2.750   1.514   3.057
 1658SOL    HW1 4989   2.727   1.489   2.963
 1658SOL    HW2 4990   2.811   1.445   3.096
 1659SOL     OW 4991   3.213   0.590   3.295
 1659SOL    HW1 4992   3.241   0.547   3.380
 1659SOL    HW2 4993   3.238   0.686   3.296
 1660SOL     OW 4994   2.665   1.402   2.786
 1660SOL    HW1 4995   2.755   1.416   2.744
 1660SOL    HW2 4996   2.594   1.404   2.715
 1661SOL     OW 4997   2.784   0.503   2.761
 1661SOL    HW1 4998   2.759   0.494   2.665
 1661SOL    HW2 4999   2.832   0.421   2.792
 1662SOL     OW 5000   2.401   0.064   2.374
 1662SOL    HW1 5001   2.320   0.065   2.432
 1662SOL    HW2 5002   2.404   0.147   2.319
 1663SOL     OW 5003   3.296   1.188   1.903
 1663SOL    HW1 5004   3.328   1.112   1.960
 1663SOL    HW2 5005   3.204   1.215   1.933
 1664SOL     OW 5006   2.159   0.035   2.033
 1664SOL    HW1 5007   2.208   0.119   2.012
 1664SOL    HW2 5008   2.221  -0.030   2.078
 1665SOL     OW 5009   2.797   0.236   2.342
 1665SOL    HW1 5010   2.749   0.277   2.264
 1665SOL    HW2 5011   2.896   0.234   2.323
 1666SOL     OW 5012   2.938   0.683   3.326
 1666SOL    HW1 5013   2.858   0.622   3.329
 1666SOL    HW2 5014   3.019   0.630   3.302
 1667SOL     OW 5015   3.089   1.570   2.655
 1667SOL    HW1 5016   3.110   1.644   2.590
 1667SOL    HW2 5017   3.157   1.570   2.728
 1668SOL     OW 5018   2.321   1.152   2.603
 1668SOL    HW1 5019   2.250   1.125   2.668
 1668SOL    HW2 5020   2.295   1.124   2.510
 1669SOL     OW 5021   3.133   1.797   2.453
 1669SOL    HW1 5022   3.177   1.861   2.389
 1669SOL    HW2 5023   3.083   1.849   2.523
 1670SOL     OW 5024   2.894   0.549   1.878
 1670SOL    HW1 5025   2.853   0.631   1.839
 1670SOL    HW2 5026   2.958   0.575   1.951
 1671SOL     OW 5027   1.940   0.556   3.248
 1671SOL    HW1 5028   2.032   0.555   3.207
 1671SOL    HW2 5029   1.934   0.630   3.315
 1672SOL     OW 5030   2.423   0.222   3.009
 1672SOL    HW1 5031   2.461   0.138   3.046
 1672SOL    HW2 5032   2.335   0.241   3.053
 1673SOL     OW 5033   2.728   0.454   2.504
 1673SOL    HW1 5034   2.696   0.526   2.442
 1673SOL    HW2 5035   2.752   0.373   2.451
 1674SOL     OW 5036   2.879   0.039   2.615
 1674SOL    HW1 5037   2.807   0.044   2.546
 1674SOL    HW2 5038   2.855  -0.030   2.684
 1675SOL     OW 5039   3.291   1.173   2.729
 1675SOL    HW1 5040   3.236   1.089   2.722
 1675SOL    HW2 5041   3.317   1.202   2.637
 1676SOL     OW 5042   3.328   0.590   2.854
 1676SOL    HW1 5043   3.298   0.495   2.861
 1676SOL    HW2 5044   3.401   0.606   2.920
 1677SOL     OW 5045   3.719   0.833   2.239
 1677SOL    HW1 5046   3.761   0.769   2.303
 1677SOL    HW2 5047   3.681   0.782   2.161
 1678SOL     OW 5048   2.350   1.385   2.036
 1678SOL    HW1 5049   2.263   1.370   2.083
 1678SOL    HW2 5050   2.333   1.411   1.941
 1679SOL     OW 5051   3.526   1.280   2.519
 1679SOL    HW1 5052   3.625   1.288   2.533
 1679SOL    HW2 5053   3.481   1.364   2.550
 1680SOL     OW 5054   3.252   0.575   1.940
 1680SOL    HW1 5055   3.198   0.554   2.021
 1680SOL    HW2 5056   3.343   0.534   1.949
 1681SOL     OW 5057   2.389   0.256   2.190
 1681SOL    HW1 5058   2.416   0.197   2.115
 1681SOL    HW2 5059   2.389   0.351   2.159
 1682SOL     OW 5060   3.616   1.223   3.450
 1682SOL    HW1 5061   3.707   1.184   3.437
 1682SOL    HW2 5062   3.624   1.319   3.474
 1683SOL     OW 5063   2.926   1.347   3.202
 1683SOL    HW1 5064   2.846   1.324   3.257
 1683SOL    HW2 5065   3.009   1.321   3.251
 1684SOL     OW 5066   3.454   1.629   3.487
 1684SOL    HW1 5067   3.481   1.663   3.397
 1684SOL    HW2 5068   3.533   1.591   3.533
 1685SOL     OW 5069   2.973   1.195   2.962
 1685SOL    HW1 5070   2.933   1.239   3.043
 1685SOL    HW2 5071   2.932   1.232   2.879
 1686SOL     OW 5072   3.500   1.099   2.941
 1686SOL    HW1 5073   3.505   1.180   3.000
 1686SOL    HW2 5074   3.414   1.101   2.890
 1687SOL     OW 5075   2.777   0.089   3.264
 1687SOL    HW1 5076   2.802   0.069   3.169
 1687SOL    HW2 5077   2.849   0.145   3.306
 1688SOL     OW 5078   2.842   1.116   3.581
 1688SOL    HW1 5079   2.743   1.122   3.591
 1688SOL    HW2 5080   2.865   1.036   3.525
 1689SOL     OW 5081   2.567   1.050   2.230
 1689SOL    HW1 5082   2.553   1.057   2.329
 1689SOL    HW2 5083   2.651   0.999   2.212
 1690SOL     OW 5084   2.272   0.813   3.113
 1690SOL    HW1 5085   2.358   0.825   3.163
 1690SOL    HW2 5086   2.230   0.726   3.140
 1691SOL     OW 5087   3.136   0.386   3.124
 1691SOL    HW1 5088   3.157   0.460   3.188
 1691SOL    HW2 5089   3.047   0.403   3.081
 1692SOL     OW 5090   1.926   1.564   3.193
 1692SOL    HW1 5091   1.880   1.646   3.159
 1692SOL    HW2 5092   2.024   1.583   3.202
 1693SOL     OW 5093   2.229   1.100   2.363
 1693SOL    HW1 5094   2.222   1.183   2.307
 1693SOL    HW2 5095   2.233   1.020   2.303
 1694SOL     OW 5096   2.428   0.537   2.727
 1694SOL    HW1 5097   2.440   0.603   2.653
 1694SOL    HW2 5098   2.474   0.571   2.810
 1695SOL     OW 5099   3.114   1.348   2.250
 1695SOL    HW1 5100   3.164   1.425   2.290
 1695SOL    HW2 5101   3.019   1.350   2.282
 1696SOL     OW 5102   3.134   1.445   3.004
 1696SOL    HW1 5103   3.181   1.458   3.091
 1696SOL    HW2 5104   3.068   1.371   3.013
 1697SOL     OW 5105   3.444   0.639   2.334
 1697SOL    HW1 5106   3.413   0.700   2.407
 1697SOL    HW2 5107   3.494   0.691   2.265
 1698SOL     OW 5108   2.216   1.510   3.191
 1698SOL    HW1 5109   2.195   1.466   3.104
 1698SOL    HW2 5110   2.313   1.536   3.194
 1699SOL     OW 5111   2.264   0.751   3.460
 1699SOL    HW1 5112   2.332   0.806   3.413
 1699SOL    HW2 5113   2.304   0.663   3.487
 1700SOL     OW 5114   3.449   0.779   3.532
 1700SOL    HW1 5115   3.357   0.817   3.527
 1700SOL    HW2 5116   3.509   0.826   3.467
 1701SOL     OW 5117   2.875   0.105   3.632
 1701SOL    HW1 5118   2.881   0.190   3.580
 1701SOL    HW2 5119   2.907   0.029   3.575
 1702SOL     OW 5120   2.366   0.050   3.602
 1702SOL    HW1 5121   2.324  -0.007   3.532
 1702SOL    HW2 5122   2.300   0.119   3.634
 1703SOL     OW 5123   2.435   0.870   2.891
 1703SOL    HW1 5124   2.479   0.959   2.882
 1703SOL    HW2 5125   2.372   0.870   2.968
 1704SOL     OW 5126   3.222   0.862   2.907
 1704SOL    HW1 5127   3.147   0.862   2.841
 1704SOL    HW2 5128   3.259   0.770   2.916
 1705SOL     OW 5129   3.071   0.525   2.137
 1705SOL    HW1 5130   3.084   0.441   2.191
 1705SOL    HW2 5131   3.042   0.599   2.197
 1706SOL     OW 5132   2.169   0.213   3.093
 1706SOL    HW1 5133   2.146   0.250   3.183
 1706SOL    HW2 5134   2.139   0.118   3.087
 1707SOL     OW 5135   1.899   1.310   3.144
 1707SOL    HW1 5136   1.952   1.261   3.212
 1707SOL    HW2 5137   1.921   1.408   3.149
 1708SOL     OW 5138   2.594   0.634   2.926
 1708SOL    HW1 5139   2.653   0.608   2.850
 1708SOL    HW2 5140   2.566   0.730   2.915
 1709SOL     OW 5141   3.590   0.935   3.716
 1709SOL    HW1 5142   3.544   0.928   3.627
 1709SOL    HW2 5143   3.528   0.979   3.782
 1710SOL     OW 5144   2.169   0.063   2.480
 1710SOL    HW1 5145   2.158   0.157   2.513
 1710SOL    HW2 5146   2.164   0.000   2.557
 1711SOL     OW 5147   3.484   0.367   2.236
 1711SOL    HW1 5148   3.486   0.291   2.300
 1711SOL    HW2 5149   3.436   0.444   2.276
 1712SOL     OW 5150   2.885   0.766   2.828
 1712SOL    HW1 5151   2.900   0.787   2.924
 1712SOL    HW2 5152   2.855   0.671   2.819
 1713SOL     OW 5153   2.842   1.573   3.562
 1713SOL    HW1 5154   2.822   1.617   3.474
 1713SOL    HW2 5155   2.881   1.482   3.546
 1714SOL     OW 5156   3.721   1.518   3.467
 1714SOL    HW1 5157   3.735   1.545   3.372
 1714SOL    HW2 5158   3.804   1.540   3.520
 1715SOL     OW 5159   2.212   0.898   3.666
 1715SOL    HW1 5160   2.288   0.942   3.714
 1715SOL    HW2 5161   2.247   0.851   3.584
 1716SOL     OW 5162   3.402   0.274   1.987
 1716SOL    HW1 5163   3.341   0.199   2.010
 1716SOL    HW2 5164   3.424   0.326   2.070
 1717SOL     OW 5165   3.165   0.838   1.904
 1717SOL    HW1 5166   3.199   0.745   1.919
 1717SOL    HW2 5167   3.183   0.865   1.809
 1718SOL     OW 5168   2.930   1.333   2.711
 1718SOL    HW1 5169   2.937   1.249   2.656
 1718SOL    HW2 5170   2.992   1.402   2.675
 1719SOL     OW 5171   2.181   0.810   2.811
 1719SOL    HW1 5172   2.274   0.846   2.816
 1719SOL    HW2 5173   2.175   0.725   2.863
 1720SOL     OW 5174   2.201   0.509   2.868
 1720SOL    HW1 5175   2.149   0.426   2.851
 1720SOL    HW2 5176   2.278   0.514   2.804
 1721SOL     OW 5177   3.000   0.380   3.540
 1721SOL    HW1 5178   2.955   0.443   3.604
 1721SOL    HW2 5179   3.093   0.411   3.523
 1722SOL     OW 5180   3.022   0.207   3.339
 1722SOL    HW1 5181   3.022   0.271   3.416
 1722SOL    HW2 5182   3.050   0.255   3.256
 1723SOL     OW 5183   1.870   1.326   2.062
 1723SOL    HW1 5184   1.777   1.347   2.031
 1723SOL    HW2 5185   1.880   1.227   2.075
 1724SOL     OW 5186   1.950   1.801   2.789
 1724SOL    HW1 5187   1.908   1.715   2.762
 1724SOL    HW2 5188   2.044   1.804   2.755
 1725SOL     OW 5189   2.366   1.568   2.772
 1725SOL    HW1 5190   2.432   1.642   2.781
 1725SOL    HW2 5191   2.410   1.489   2.730
 1726SOL     OW 5192   2.864   0.796   3.100
 1726SOL    HW1 5193   2.905   0.764   3.186
 1726SOL    HW2 5194   2.768   0.769   3.097
 1727SOL     OW 5195   1.902   0.544   2.976
 1727SOL    HW1 5196   1.987   0.511   2.935
 1727SOL    HW2 5197   1.915   0.559   3.074
 1728SOL     OW 5198   2.051   0.520   3.584
 1728SOL    HW1 5199   2.110   0.480   3.514
 1728SOL    HW2 5200   1.993   0.591   3.543
 1729SOL     OW 5201   3.231   0.950   3.522
 1729SOL    HW1 5202   3.270   1.039   3.542
 1729SOL    HW2 5203   3.241   0.930   3.425
 1730SOL     OW 5204   2.677   0.572   2.187
 1730SOL    HW1 5205   2.684   0.483   2.141
 1730SOL    HW2 5206   2.583   0.606   2.179
 1731SOL     OW 5207   3.519   0.604   3.068
 1731SOL    HW1 5208   3.481   0.535   3.130
 1731SOL    HW2 5209   3.601   0.568   3.024
 1732SOL     OW 5210   2.114   1.564   3.606
 1732SOL    HW1 5211   2.084   1.621   3.682
 1732SOL    HW2 5212   2.107   1.467   3.632
 1733SOL     OW 5213   2.533   0.464   3.131
 1733SOL    HW1 5214   2.499   0.375   3.101
 1733SOL    HW2 5215   2.559   0.518   3.051
 1734SOL     OW 5216   2.792   1.678   3.327
 1734SOL    HW1 5217   2.768   1.660   3.232
 1734SOL    HW2 5218   2.822   1.772   3.337
 1735SOL     OW 5219   2.335   0.500   2.053
 1735SOL    HW1 5220   2.396   0.580   2.057
 1735SOL    HW2 5221   2.240   0.531   2.060
 1736SOL     OW 5222   2.021   1.137   3.328
 1736SOL    HW1 5223   2.043   1.076   3.404
 1736SOL    HW2 5224   2.031   1.088   3.242
 1737SOL     OW 5225   3.209   1.059   3.096
 1737SOL    HW1 5226   3.233   0.996   3.022
 1737SOL    HW2 5227   3.119   1.099   3.078
 1738SOL     OW 5228   3.164   0.855   2.171
 1738SOL    HW1 5229   3.078   0.824   2.213
 1738SOL    HW2 5230   3.160   0.841   2.072
 1739SOL     OW 5231   3.621   1.747   3.016
 1739SOL    HW1 5232   3.682   1.777   2.943
 1739SOL    HW2 5233   3.583   1.658   2.994
 1740SOL     OW 5234   3.114   1.731   2.990
 1740SOL    HW1 5235   3.198   1.736   2.936
 1740SOL    HW2 5236   3.091   1.635   3.008
 1741SOL     OW 5237   1.945   1.258   2.884
 1741SOL    HW1 5238   1.940   1.257   2.984
 1741SOL    HW2 5239   1.862   1.217   2.846
 1742SOL     OW 5240   2.550   1.662   3.578
 1742SOL    HW1 5241   2.494   1.743   3.587
 1742SOL    HW2 5242   2.602   1.666   3.492
 1743SOL     OW 5243   3.588   0.135   2.385
 1743SOL    HW1 5244   3.661   0.118   2.318
 1743SOL    HW2 5245   3.557   0.048   2.423
 1744SOL     OW 5246   3.250   1.573   2.339
 1744SOL    HW1 5247   3.317   1.585   2.265
 1744SOL    HW2 5248   3.210   1.662   2.362
 1745SOL     OW 5249   1.992   1.794   3.713
 1745SOL    HW1 5250   1.951   1.720   3.766
 1745SOL    HW2 5251   2.056   1.845   3.771
 1746SOL     OW 5252   3.142   0.927   2.534
 1746SOL    HW1 5253   3.202   0.846   2.536
 1746SOL    HW2 5254   3.182   0.996   2.474
 1747SOL     OW 5255   2.692   1.273   3.284
 1747SOL    HW1 5256   2.687   1.306   3.379
 1747SOL    HW2 5257   2.606   1.292   3.238
 1748SOL     OW 5258   2.534   1.616   2.016
 1748SOL    HW1 5259   2.543   1.626   1.917
 1748SOL    HW2 5260   2.494   1.527   2.037
 1749SOL     OW 5261   3.512   1.720   3.256
 1749SOL    HW1 5262   3.565   1.730   3.172
 1749SOL    HW2 5263   3.485   1.810   3.290
 1750SOL     OW 5264   3.703   0.175   2.825
 1750SOL    HW1 5265   3.742   0.090   2.789
 1750SOL    HW2 5266   3.605   0.177   2.806
 1751SOL     OW 5267   2.125   0.326   2.582
 1751SOL    HW1 5268   2.046   0.377   2.548
 1751SOL    HW2 5269   2.116   0.311   2.680
 1752SOL     OW 5270   3.056   1.612   1.893
 1752SOL    HW1 5271   3.062   1.519   1.930
 1752SOL    HW2 5272   2.997   1.612   1.813
 1753SOL     OW 5273   2.684   1.002   3.234
 1753SOL    HW1 5274   2.724   1.001   3.142
 1753SOL    HW2 5275   2.694   1.094   3.274
 1754SOL     OW 5276   2.778   0.910   2.153
 1754SOL    HW1 5277   2.841   0.948   2.085
 1754SOL    HW2 5278   2.818   0.827   2.192
 1755SOL     OW 5279   3.366   1.607   1.906
 1755SOL    HW1 5280   3.274   1.644   1.913
 1755SOL    HW2 5281   3.404   1.627   1.816
 1756SOL     OW 5282   2.234   1.288   3.352
 1756SOL    HW1 5283   2.221   1.381   3.318
 1756SOL    HW2 5284   2.150   1.236   3.339
 1757SOL     OW 5285   3.476   1.292   3.151
 1757SOL    HW1 5286   3.536   1.295   3.231
 1757SOL    HW2 5287   3.401   1.356   3.164
 1758SOL     OW 5288   2.901   1.098   2.558
 1758SOL    HW1 5289   2.831   1.051   2.612
 1758SOL    HW2 5290   2.960   1.030   2.515
 1759SOL     OW 5291   2.876   0.236   2.833
 1759SOL    HW1 5292   2.868   0.200   2.740
 1759SOL    HW2 5293   2.874   0.160   2.898
 1760SOL     OW 5294   2.452   1.487   2.353
 1760SOL    HW1 5295   2.494   1.429   2.283
 1760SOL    HW2 5296   2.408   1.566   2.309
 1761SOL     OW 5297   3.571   0.385   3.243
 1761SOL    HW1 5298   3.644   0.454   3.247
 1761SOL    HW2 5299   3.599   0.310   3.184
 1762SOL     OW 5300   2.117   1.348   2.152
 1762SOL    HW1 5301   2.021   1.349   2.125
 1762SOL    HW2 5302   2.129   1.401   2.236
 1763SOL     OW 5303   1.967   1.013   3.588
 1763SOL    HW1 5304   1.890   0.980   3.642
 1763SOL    HW2 5305   2.052   0.983   3.630
 1764SOL     OW 5306   2.534   0.203   3.351
 1764SOL    HW1 5307   2.624   0.187   3.311
 1764SOL    HW2 5308   2.542   0.208   3.450
 1765SOL     OW 5309   1.937   0.345   1.895
 1765SOL    HW1 5310   1.845   0.317   1.866
 1765SOL    HW2 5311   1.968   0.422   1.839
 1766SOL     OW 5312   3.302   0.856   3.260
 1766SOL    HW1 5313   3.245   0.908   3.197
 1766SOL    HW2 5314   3.398   0.868   3.236
 1767SOL     OW 5315   1.934   0.166   2.180
 1767SOL    HW1 5316   1.917   0.249   2.126
 1767SOL    HW2 5317   2.024   0.129   2.158
 1768SOL     OW 5318   3.045   1.335   1.981
 1768SOL    HW1 5319   2.946   1.324   1.983
 1768SOL    HW2 5320   3.079   1.350   2.074
 1769SOL     OW 5321   2.475   0.842   3.293
 1769SOL    HW1 5322   2.531   0.923   3.276
 1769SOL    HW2 5323   2.534   0.762   3.296
 1770SOL     OW 5324   3.355   1.767   2.821
 1770SOL    HW1 5325   3.388   1.831   2.752
 1770SOL    HW2 5326   3.421   1.761   2.896
 1771SOL     OW 5327   2.578   0.565   3.570
 1771SOL    HW1 5328   2.597   0.630   3.644
 1771SOL    HW2 5329   2.638   0.485   3.579
 1772SOL     OW 5330   3.312   1.220   3.495
 1772SOL    HW1 5331   3.303   1.210   3.594
 1772SOL    HW2 5332   3.408   1.213   3.469
 1773SOL     OW 5333   2.252   1.741   3.422
 1773SOL    HW1 5334   2.161   1.782   3.420
 1773SOL    HW2 5335   2.245   1.647   3.454
 1774SOL     OW 5336   3.536   0.883   3.116
 1774SOL    HW1 5337   3.509   0.794   3.079
 1774SOL    HW2 5338   3.537   0.951   3.043
 1775SOL     OW 5339   3.087   0.325   2.311
 1775SOL    HW1 5340   3.152   0.251   2.300
 1775SOL    HW2 5341   3.107   0.375   2.395
 1776SOL     OW 5342   2.456   0.745   2.514
 1776SOL    HW1 5343   2.506   0.830   2.495
 1776SOL    HW2 5344   2.368   0.747   2.466
 1777SOL     OW 5345   3.639   0.342   3.504
 1777SOL    HW1 5346   3.622   0.373   3.410
 1777SOL    HW2 5347   3.555   0.305   3.542
 1778SOL     OW 5348   3.592   0.934   3.379
 1778SOL    HW1 5349   3.630   1.025   3.394
 1778SOL    HW2 5350   3.584   0.917   3.280
 1779SOL     OW 5351   2.721   1.374   1.878
 1779SOL    HW1 5352   2.675   1.389   1.966
 1779SOL    HW2 5353   2.765   1.459   1.848
 1780SOL     OW 5354   2.523   1.790   2.815
 1780SOL    HW1 5355   2.477   1.878   2.802
 1780SOL    HW2 5356   2.622   1.802   2.808
 1781SOL     OW 5357   2.721   0.956   2.723
 1781SOL    HW1 5358   2.775   0.887   2.771
 1781SOL    HW2 5359   2.689   1.025   2.789
 1782SOL     OW 5360   2.945   0.984   1.949
 1782SOL    HW1 5361   2.922   1.037   1.867
 1782SOL    HW2 5362   3.026   0.928   1.930
 1783SOL     OW 5363   3.723   1.569   2.713
 1783SOL    HW1 5364   3.652   1.557   2.643
 1783SOL    HW2 5365   3.724   1.490   2.773
 1784SOL     OW 5366   2.083   1.314   3.706
 1784SOL    HW1 5367   2.018   1.241   3.685
 1784SOL    HW2 5368   2.087   1.328   3.804
 1785SOL     OW 5369   1.941   1.240   2.515
 1785SOL    HW1 5370   1.940   1.193   2.603
 1785SOL    HW2 5371   2.023   1.212   2.464
 1786SOL     OW 5372   2.534   1.391   3.486
 1786SOL    HW1 5373   2.456   1.341   3.524
 1786SOL    HW2 5374   2.531   1.486   3.517
 1787SOL     OW 5375   3.686   0.192   3.089
 1787SOL    HW1 5376   3.682   0.102   3.133
 1787SOL    HW2 5377   3.689   0.181   2.990
 1788SOL     OW 5378   2.290   0.424   2.382
 1788SOL    HW1 5379   2.320   0.352   2.320
 1788SOL    HW2 5380   2.251   0.384   2.465
 1789SOL     OW 5381   3.567   1.487   2.966
 1789SOL    HW1 5382   3.474   1.462   2.939
 1789SOL    HW2 5383   3.593   1.437   3.048
 1790SOL     OW 5384   2.179   0.547   3.142
 1790SOL    HW1 5385   2.217   0.488   3.214
 1790SOL    HW2 5386   2.219   0.521   3.054
 1791SOL     OW 5387   2.674   1.586   2.549
 1791SOL    HW1 5388   2.706   1.596   2.455
 1791SOL    HW2 5389   2.595   1.524   2.551
 1792SOL     OW 5390   3.286   0.214   2.974
 1792SOL    HW1 5391   3.338   0.149   3.029
 1792SOL    HW2 5392   3.237   0.277   3.035
 1793SOL     OW 5393   2.863   0.034   3.016
 1793SOL    HW1 5394   2.800  -0.038   2.985
 1793SOL    HW2 5395   2.956  -0.002   3.016
 1794SOL     OW 5396   2.632   1.330   2.163
 1794SOL    HW1 5397   2.586   1.243   2.180
 1794SOL    HW2 5398   2.723   1.327   2.204
 1795SOL     OW 5399   2.480   1.567   3.146
 1795SOL    HW1 5400   2.475   1.649   3.203
 1795SOL    HW2 5401   2.569   1.564   3.101
 1796SOL     OW 5402   3.214   0.052   2.030
 1796SOL    HW1 5403   3.249   0.011   1.946
 1796SOL    HW2 5404   3.124   0.014   2.050
 1797SOL     OW 5405   3.162   0.453   2.553
 1797SOL    HW1 5406   3.103   0.533   2.557
 1797SOL    HW2 5407   3.177   0.418   2.646
 1798SOL     OW 5408   3.455   0.221   2.744
 1798SOL    HW1 5409   3.371   0.220   2.798
 1798SOL    HW2 5410   3.457   0.304   2.688
 1799SOL     OW 5411   1.901   1.077   2.162
 1799SOL    HW1 5412   2.000   1.066   2.153
 1799SOL    HW2 5413   1.861   0.991   2.194
 1800SOL     OW 5414   2.737   1.646   2.199
 1800SOL    HW1 5415   2.660   1.611   2.145
 1800SOL    HW2 5416   2.705   1.717   2.261
 1801SOL     OW 5417   2.092   0.628   3.837
 1801SOL    HW1 5418   1.999   0.626   3.874
 1801SOL    HW2 5419   2.093   0.589   3.745
 1802SOL     OW 5420   2.087   0.275   4.720
 1802SOL    HW1 5421   2.122   0.258   4.812
 1802SOL    HW2 5422   1.999   0.230   4.708
 1803SOL     OW 5423   1.881   0.368   4.371
 1803SOL    HW1 5424   1.799   0.411   4.410
 1803SOL    HW2 5425   1.853   0.295   4.308
 1804SOL     OW 5426   3.417   1.511   4.427
 1804SOL    HW1 5427   3.360   1.495   4.508
 1804SOL    HW2 5428   3.358   1.521   4.347
 1805SOL     OW 5429   2.997   0.703   4.441
 1805SOL    HW1 5430   3.054   0.781   4.416
 1805SOL    HW2 5431   2.937   0.729   4.517
 1806SOL     OW 5432   3.617   0.607   3.955
 1806SOL    HW1 5433   3.605   0.594   3.856
 1806SOL    HW2 5434   3.587   0.526   4.004
 1807SOL     OW 5435   2.630   1.144   4.747
 1807SOL    HW1 5436   2.552   1.161   4.807
 1807SOL    HW2 5437   2.664   1.231   4.711
 1808SOL     OW 5438   2.547   1.012   4.389
 1808SOL    HW1 5439   2.616   0.996   4.459
 1808SOL    HW2 5440   2.474   1.069   4.427
 1809SOL     OW 5441   3.465   0.447   4.461
 1809SOL    HW1 5442   3.391   0.493   4.411
 1809SOL    HW2 5443   3.516   0.515   4.514
 1810SOL     OW 5444   2.093   1.713   4.207
 1810SOL    HW1 5445   2.127   1.790   4.261
 1810SOL    HW2 5446   2.137   1.713   4.117
 1811SOL     OW 5447   2.092   1.434   4.262
 1811SOL    HW1 5448   2.066   1.530   4.262
 1811SOL    HW2 5449   2.021   1.380   4.307
 1812SOL     OW 5450   2.102   1.091   4.610
 1812SOL    HW1 5451   2.116   1.007   4.662
 1812SOL    HW2 5452   2.047   1.155   4.665
 1813SOL     OW 5453   2.468   0.964   3.847
 1813SOL    HW1 5454   2.475   1.048   3.793
 1813SOL    HW2 5455   2.514   0.977   3.935
 1814SOL     OW 5456   1.984   0.643   4.287
 1814SOL    HW1 5457   1.939   0.555   4.304
 1814SOL    HW2 5458   1.983   0.697   4.371
 1815SOL     OW 5459   3.704   1.767   4.083
 1815SOL    HW1 5460   3.758   1.738   4.163
 1815SOL    HW2 5461   3.734   1.857   4.054
 1816SOL     OW 5462   1.889   1.596   3.841
 1816SOL    HW1 5463   1.870   1.500   3.862
 1816SOL    HW2 5464   1.856   1.654   3.916
 1817SOL     OW 5465   3.551   0.922   4.336
 1817SOL    HW1 5466   3.646   0.893   4.344
 1817SOL    HW2 5467   3.543   0.987   4.261
 1818SOL     OW 5468   3.503   1.108   4.156
 1818SOL    HW1 5469   3.589   1.110   4.104
 1818SOL    HW2 5470   3.517   1.155   4.244
 1819SOL     OW 5471   2.475   1.365   4.450
 1819SOL    HW1 5472   2.426   1.278   4.459
 1819SOL    HW2 5473   2.452   1.408   4.363
 1820SOL     OW 5474   2.671   0.004   4.226
 1820SOL    HW1 5475   2.711   0.095   4.217
 1820SOL    HW2 5476   2.571   0.012   4.232
 1821SOL     OW 5477   3.387   0.999   3.914
 1821SOL    HW1 5478   3.324   0.923   3.927
 1821SOL    HW2 5479   3.435   1.017   4.000
 1822SOL     OW 5480   3.328   1.417   4.677
 1822SOL    HW1 5481   3.269   1.423   4.757
 1822SOL    HW2 5482   3.313   1.329   4.631
 1823SOL     OW 5483   3.529   1.714   4.296
 1823SOL    HW1 5484   3.488   1.691   4.208
 1823SOL    HW2 5485   3.511   1.640   4.361
 1824SOL     OW 5486   2.460   0.729   3.994
 1824SOL    HW1 5487   2.484   0.798   3.926
 1824SOL    HW2 5488   2.382   0.762   4.048
 1825SOL     OW 5489   3.143   0.345   4.668
 1825SOL    HW1 5490   3.057   0.295   4.655
 1825SOL    HW2 5491   3.205   0.291   4.724
 1826SOL     OW 5492   3.438   1.662   4.031
 1826SOL    HW1 5493   3.527   1.708   4.034
 1826SOL    HW2 5494   3.417   1.638   3.936
 1827SOL     OW 5495   2.903   0.701   4.153
 1827SOL    HW1 5496   2.929   0.697   4.249
 1827SOL    HW2 5497   2.818   0.650   4.139
 1828SOL     OW 5498   1.938   0.811   4.513
 1828SOL    HW1 5499   2.037   0.799   4.522
 1828SOL    HW2 5500   1.914   0.906   4.534
 1829SOL     OW 5501   2.727   0.348   3.919
 1829SOL    HW1 5502   2.786   0.411   3.870
 1829SOL    HW2 5503   2.746   0.254   3.890
 1830SOL     OW 5504   3.224   1.144   4.269
 1830SOL    HW1 5505   3.307   1.115   4.221
 1830SOL    HW2 5506   3.175   1.211   4.213
 1831SOL     OW 5507   2.870   1.456   4.201
 1831SOL    HW1 5508   2.824   1.528   4.149
 1831SOL    HW2 5509   2.866   1.476   4.299
 1832SOL     OW 5510   2.213   1.801   4.577
 1832SOL    HW1 5511   2.263   1.715   4.583
 1832SOL    HW2 5512   2.278   1.878   4.574
 1833SOL     OW 5513   3.657   1.066   4.597
 1833SOL    HW1 5514   3.595   1.051   4.521
 1833SOL    HW2 5515   3.605   1.077   4.682
 1834SOL     OW 5516   2.183   0.943   3.966
 1834SOL    HW1 5517   2.265   0.982   3.924
 1834SOL    HW2 5518   2.156   0.861   3.917
 1835SOL     OW 5519   3.320   0.735   4.452
 1835SOL    HW1 5520   3.315   0.670   4.527
 1835SOL    HW2 5521   3.400   0.794   4.465
 1836SOL     OW 5522   2.973   1.776   3.961
 1836SOL    HW1 5523   2.913   1.714   4.011
 1836SOL    HW2 5524   3.004   1.732   3.876
 1837SOL     OW 5525   3.494   1.377   3.805
 1837SOL    HW1 5526   3.462   1.471   3.795
 1837SOL    HW2 5527   3.418   1.314   3.793
 1838SOL     OW 5528   2.326   1.743   4.047
 1838SOL    HW1 5529   2.359   1.782   4.133
 1838SOL    HW2 5530   2.402   1.736   3.982
 1839SOL     OW 5531   3.262   0.107   4.150
 1839SOL    HW1 5532   3.238   0.070   4.060
 1839SOL    HW2 5533   3.361   0.123   4.154
 1840SOL     OW 5534   2.111   1.785   4.965
 1840SOL    HW1 5535   2.168   1.720   5.015
 1840SOL    HW2 5536   2.095   1.752   4.872
 1841SOL     OW 5537   2.244   0.700   4.204
 1841SOL    HW1 5538   2.289   0.610   4.201
 1841SOL    HW2 5539   2.150   0.689   4.237
 1842SOL     OW 5540   2.476   0.122   3.841
 1842SOL    HW1 5541   2.574   0.100   3.848
 1842SOL    HW2 5542   2.445   0.105   3.748
 1843SOL     OW 5543   2.784   0.503   4.623
 1843SOL    HW1 5544   2.759   0.494   4.527
 1843SOL    HW2 5545   2.832   0.421   4.654
 1844SOL     OW 5546   2.401   0.064   4.236
 1844SOL    HW1 5547   2.320   0.065   4.294
 1844SOL    HW2 5548   2.404   0.147   4.181
 1845SOL     OW 5549   3.296   1.188   3.765
 1845SOL    HW1 5550   3.328   1.112   3.822
 1845SOL    HW2 5551   3.204   1.215   3.795
 1846SOL     OW 5552   2.159   0.035   3.895
 1846SOL    HW1 5553   2.208   0.119   3.874
 1846SOL    HW2 5554   2.221  -0.030   3.940
 1847SOL     OW 5555   2.797   0.236   4.204
 1847SOL    HW1 5556   2.749   0.277   4.126
 1847SOL    HW2 5557   2.896   0.234   4.185
 1848SOL     OW 5558   3.089   1.570   4.517
 1848SOL    HW1 5559   3.110   1.644   4.452
 1848SOL    HW2 5560   3.157   1.570   4.590
 1849SOL     OW 5561   2.321   1.152   4.465
 1849SOL    HW1 5562   2.250   1.125   4.530
 1849SOL    HW2 5563   2.295   1.124   4.372
 1850SOL     OW 5564   3.133   1.797   4.315
 1850SOL    HW1 5565   3.177   1.861   4.251
 1850SOL    HW2 5566   3.083   1.849   4.385
 1851SOL     OW 5567   2.894   0.549   3.740
 1851SOL    HW1 5568   2.853   0.631   3.701
 1851SOL    HW2 5569   2.958   0.575   3.813
 1852SOL     OW 5570   2.728   0.454   4.366
 1852SOL    HW1 5571   2.696   0.526   4.304
 1852SOL    HW2 5572   2.752   0.373   4.313
 1853SOL     OW 5573   2.879   0.039   4.477
 1853SOL    HW1 5574   2.807   0.044   4.408
 1853SOL    HW2 5575   2.855  -0.030   4.546
 1854SOL     OW 5576   3.291   1.173   4.591
 1854SOL    HW1 5577   3.236   1.089   4.584
 1854SOL    HW2 5578   3.317   1.202   4.499
 1855SOL     OW 5579   3.719   0.833   4.101
 1855SOL    HW1 5580   3.761   0.769   4.165
 1855SOL    HW2 5581   3.681   0.782   4.023
 1856SOL     OW 5582   2.350   1.385   3.898
 1856SOL    HW1 5583   2.263   1.370   3.945
 1856SOL    HW2 5584   2.333   1.411   3.803
 1857SOL     OW 5585   3.526   1.280   4.381
 1857SOL    HW1 5586   3.625   1.288   4.395
 1857SOL    HW2 5587   3.481   1.364   4.412
 1858SOL     OW 5588   3.252   0.575   3.802
 1858SOL    HW1 5589   3.198   0.554   3.883
 1858SOL    HW2 5590   3.343   0.534   3.811
 1859SOL     OW 5591   2.389   0.256   4.052
 1859SOL    HW1 5592   2.416   0.197   3.977
 1859SOL    HW2 5593   2.389   0.351   4.021
 1860SOL     OW 5594   3.500   1.099   4.803
 1860SOL    HW1 5595   3.505   1.180   4.862
 1860SOL    HW2 5596   3.414   1.101   4.752
 1861SOL     OW 5597   2.567   1.050   4.092
 1861SOL    HW1 5598   2.553   1.057   4.191
 1861SOL    HW2 5599   2.651   0.999   4.074
 1862SOL     OW 5600   2.229   1.100   4.225
 1862SOL    HW1 5601   2.222   1.183   4.169
 1862SOL    HW2 5602   2.233   1.020   4.165
 1863SOL     OW 5603   2.428   0.537   4.589
 1863SOL    HW1 5604   2.440   0.603   4.515
 1863SOL    HW2 5605   2.474   0.571   4.672
 1864SOL     OW 5606   3.114   1.348   4.112
 1864SOL    HW1 5607   3.164   1.425   4.152
 1864SOL    HW2 5608   3.019   1.350   4.144
 1865SOL     OW 5609   3.444   0.639   4.196
 1865SOL    HW1 5610   3.413   0.700   4.269
 1865SOL    HW2 5611   3.494   0.691   4.127
 1866SOL     OW 5612   3.071   0.525   3.999
 1866SOL    HW1 5613   3.084   0.441   4.053
 1866SOL    HW2 5614   3.042   0.599   4.059
 1867SOL     OW 5615   2.594   0.634   4.788
 1867SOL    HW1 5616   2.653   0.608   4.712
 1867SOL    HW2 5617   2.566   0.730   4.777
 1868SOL     OW 5618   2.169   0.063   4.342
 1868SOL    HW1 5619   2.158   0.157   4.375
 1868SOL    HW2 5620   2.164   0.000   4.419
 1869SOL     OW 5621   3.484   0.367   4.098
 1869SOL    HW1 5622   3.486   0.291   4.162
 1869SOL    HW2 5623   3.436   0.444   4.138
 1870SOL     OW 5624   3.402   0.274   3.849
 1870SOL    HW1 5625   3.341   0.199   3.872
 1870SOL    HW2 5626   3.424   0.326   3.932
 1871SOL     OW 5627   3.165   0.838   3.766
 1871SOL    HW1 5628   3.199   0.745   3.781
 1871SOL    HW2 5629   3.183   0.865   3.671
 1872SOL     OW 5630   2.930   1.333   4.573
 1872SOL    HW1 5631   2.937   1.249   4.518
 1872SOL    HW2 5632   2.992   1.402   4.537
 1873SOL     OW 5633   2.181   0.810   4.673
 1873SOL    HW1 5634   2.274   0.846   4.678
 1873SOL    HW2 5635   2.175   0.725   4.725
 1874SOL     OW 5636   1.870   1.326   3.924
 1874SOL    HW1 5637   1.777   1.347   3.893
 1874SOL    HW2 5638   1.880   1.227   3.937
 1875SOL     OW 5639   1.950   1.801   4.651
 1875SOL    HW1 5640   1.908   1.715   4.624
 1875SOL    HW2 5641   2.044   1.804   4.617
 1876SOL     OW 5642   2.366   1.568   4.634
 1876SOL    HW1 5643   2.432   1.642   4.643
 1876SOL    HW2 5644   2.410   1.489   4.592
 1877SOL     OW 5645   2.677   0.572   4.049
 1877SOL    HW1 5646   2.684   0.483   4.003
 1877SOL    HW2 5647   2.583   0.606   4.041
 1878SOL     OW 5648   2.533   0.464   4.993
 1878SOL    HW1 5649   2.499   0.375   4.963
 1878SOL    HW2 5650   2.559   0.518   4.913
 1879SOL     OW 5651   2.335   0.500   3.915
 1879SOL    HW1 5652   2.396   0.580   3.919
 1879SOL    HW2 5653   2.240   0.531   3.922
 1880SOL     OW 5654   3.209   1.059   4.958
 1880SOL    HW1 5655   3.233   0.996   4.884
 1880SOL    HW2 5656   3.119   1.099   4.940
 1881SOL     OW 5657   3.164   0.855   4.033
 1881SOL    HW1 5658   3.078   0.824   4.075
 1881SOL    HW2 5659   3.160   0.841   3.934
 1882SOL     OW 5660   3.621   1.747   4.878
 1882SOL    HW1 5661   3.682   1.777   4.805
 1882SOL    HW2 5662   3.583   1.658   4.856
 1883SOL     OW 5663   3.588   0.135   4.247
 1883SOL    HW1 5664   3.661   0.118   4.180
 1883SOL    HW2 5665   3.557   0.048   4.285
 1884SOL     OW 5666   3.250   1.573   4.201
 1884SOL    HW1 5667   3.317   1.585   4.127
 1884SOL    HW2 5668   3.210   1.662   4.224
 1885SOL     OW 5669   3.142   0.927   4.396
 1885SOL    HW1 5670   3.202   0.846   4.398
 1885SOL    HW2 5671   3.182   0.996   4.336
 1886SOL     OW 5672   2.534   1.616   3.878
 1886SOL    HW1 5673   2.543   1.626   3.779
 1886SOL    HW2 5674   2.494   1.527   3.899
 1887SOL     OW 5675   3.703   0.175   4.687
 1887SOL    HW1 5676   3.742   0.090   4.651
 1887SOL    HW2 5677   3.605   0.177   4.668
 1888SOL     OW 5678   2.125   0.326   4.444
 1888SOL    HW1 5679   2.046   0.377   4.410
 1888SOL    HW2 5680   2.116   0.311   4.542
 1889SOL     OW 5681   3.056   1.612   3.755
 1889SOL    HW1 5682   3.062   1.519   3.792
 1889SOL    HW2 5683   2.997   1.612   3.675
 1890SOL     OW 5684   2.778   0.910   4.015
 1890SOL    HW1 5685   2.841   0.948   3.947
 1890SOL    HW2 5686   2.818   0.827   4.054
 1891SOL     OW 5687   3.366   1.607   3.768
 1891SOL    HW1 5688   3.274   1.644   3.775
 1891SOL    HW2 5689   3.404   1.627   3.678
 1892SOL     OW 5690   3.476   1.292   5.013
 1892SOL    HW1 5691   3.536   1.295   5.093
 1892SOL    HW2 5692   3.401   1.356   5.026
 1893SOL     OW 5693   2.901   1.098   4.420
 1893SOL    HW1 5694   2.831   1.051   4.474
 1893SOL    HW2 5695   2.960   1.030   4.377
 1894SOL     OW 5696   2.452   1.487   4.215
 1894SOL    HW1 5697   2.494   1.429   4.145
 1894SOL    HW2 5698   2.408   1.566   4.171
 1895SOL     OW 5699   2.117   1.348   4.014
 1895SOL    HW1 5700   2.021   1.349   3.987
 1895SOL    HW2 5701   2.129   1.401   4.098
 1896SOL     OW 5702   1.937   0.345   3.757
 1896SOL    HW1 5703   1.845   0.317   3.728
 1896SOL    HW2 5704   1.968   0.422   3.701
 1897SOL     OW 5705   1.934   0.166   4.042
 1897SOL    HW1 5706   1.917   0.249   3.988
 1897SOL    HW2 5707   2.024   0.129   4.020
 1898SOL     OW 5708   3.045   1.335   3.843
 1898SOL    HW1 5709   2.946   1.324   3.845
 1898SOL    HW2 5710   3.079   1.350   3.936
 1899SOL     OW 5711   3.536   0.883   4.978
 1899SOL    HW1 5712   3.509   0.794   4.941
 1899SOL    HW2 5713   3.537   0.951   4.905
 1900SOL     OW 5714   3.087   0.325   4.173
 1900SOL    HW1 5715   3.152   0.251   4.162
 1900SOL    HW2 5716   3.107   0.375   4.257
 1901SOL     OW 5717   2.456   0.745   4.376
 1901SOL    HW1 5718   2.506   0.830   4.357
 1901SOL    HW2 5719   2.368   0.747   4.328
 1902SOL     OW 5720   2.721   1.374   3.740
 1902SOL    HW1 5721   2.675   1.389   3.828
 1902SOL    HW2 5722   2.765   1.459   3.710
 1903SOL     OW 5723   2.523   1.790   4.677
 1903SOL    HW1 5724   2.477   1.878   4.664
 1903SOL    HW2 5725   2.622   1.802   4.670
 1904SOL     OW 5726   2.721   0.956   4.585
 1904SOL    HW1 5727   2.775   0.887   4.633
 1904SOL    HW2 5728   2.689   1.025   4.651
 1905SOL     OW 5729   2.945   0.984   3.811
 1905SOL    HW1 5730   2.922   1.037   3.729
 1905SOL    HW2 5731   3.026   0.928   3.792
 1906SOL     OW 5732   3.723   1.569   4.575
 1906SOL    HW1 5733   3.652   1.557   4.505
 1906SOL    HW2 5734   3.724   1.490   4.635
 1907SOL     OW 5735   1.941   1.240   4.377
 1907SOL    HW1 5736   1.940   1.193   4.465
 1907SOL    HW2 5737   2.023   1.212   4.326
 1908SOL     OW 5738   3.686   0.192   4.951
 1908SOL    HW1 5739   3.682   0.102   4.995
 1908SOL    HW2 5740   3.689   0.181   4.852
 1909SOL     OW 5741   2.290   0.424   4.244
 1909SOL    HW1 5742   2.320   0.352   4.182
 1909SOL    HW2 5743   2.251   0.384   4.327
 1910SOL     OW 5744   2.674   1.586   4.411
 1910SOL    HW1 5745   2.706   1.596   4.317
 1910SOL    HW2 5746   2.595   1.524   4.413
 1911SOL     OW 5747   2.632   1.330   4.025
 1911SOL    HW1 5748   2.586   1.243   4.042
 1911SOL    HW2 5749   2.723   1.327   4.066
 1912SOL     OW 5750   3.214   0.052   3.892
 1912SOL    HW1 5751   3.249   0.011   3.808
 1912SOL    HW2 5752   3.124   0.014   3.912
 1913SOL     OW 5753   3.162   0.453   4.415
 1913SOL    HW1 5754   3.103   0.533   4.419
 1913SOL    HW2 5755   3.177   0.418   4.508
 1914SOL     OW 5756   3.455   0.221   4.606
 1914SOL    HW1 5757   3.371   0.220   4.660
 1914SOL    HW2 5758   3.457   0.304   4.550
 1915SOL     OW 5759   1.901   1.077   4.024
 1915SOL    HW1 5760   2.000   1.066   4.015
 1915SOL    HW2 5761   1.861   0.991   4.056
 1916SOL     OW 5762   2.737   1.646   4.061
 1916SOL    HW1 5763   2.660   1.611   4.007
 1916SOL    HW2 5764   2.705   1.717   4.123
 1917SOL     OW 5765   2.092   2.490   0.113
 1917SOL    HW1 5766   1.999   2.488   0.150
 1917SOL    HW2 5767   2.093   2.451   0.021
 1918SOL     OW 5768   2.087   2.137   0.996
 1918SOL    HW1 5769   2.122   2.120   1.088
 1918SOL    HW2 5770   1.999   2.092   0.984
 1919SOL     OW 5771   1.881   2.230   0.647
 1919SOL    HW1 5772   1.799   2.273   0.686
 1919SOL    HW2 5773   1.853   2.157   0.584
 1920SOL     OW 5774   2.431   3.137   1.165
 1920SOL    HW1 5775   2.338   3.130   1.128
 1920SOL    HW2 5776   2.442   3.226   1.209
 1921SOL     OW 5777   3.417   3.373   0.703
 1921SOL    HW1 5778   3.360   3.357   0.784
 1921SOL    HW2 5779   3.358   3.383   0.623
 1922SOL     OW 5780   2.997   2.565   0.717
 1922SOL    HW1 5781   3.054   2.643   0.692
 1922SOL    HW2 5782   2.937   2.591   0.793
 1923SOL     OW 5783   3.617   2.469   0.231
 1923SOL    HW1 5784   3.605   2.456   0.132
 1923SOL    HW2 5785   3.587   2.388   0.280
 1924SOL     OW 5786   2.630   3.006   1.023
 1924SOL    HW1 5787   2.552   3.023   1.083
 1924SOL    HW2 5788   2.664   3.093   0.987
 1925SOL     OW 5789   2.712   2.660   1.823
 1925SOL    HW1 5790   2.708   2.736   1.888
 1925SOL    HW2 5791   2.734   2.696   1.732
 1926SOL     OW 5792   2.547   2.874   0.665
 1926SOL    HW1 5793   2.616   2.858   0.735
 1926SOL    HW2 5794   2.474   2.931   0.703
 1927SOL     OW 5795   2.548   3.023   1.803
 1927SOL    HW1 5796   2.608   3.102   1.817
 1927SOL    HW2 5797   2.462   3.054   1.762
 1928SOL     OW 5798   2.197   3.297   1.061
 1928SOL    HW1 5799   2.119   3.266   1.008
 1928SOL    HW2 5800   2.255   3.355   1.004
 1929SOL     OW 5801   3.322   3.367   1.339
 1929SOL    HW1 5802   3.346   3.461   1.365
 1929SOL    HW2 5803   3.306   3.313   1.421
 1930SOL     OW 5804   2.300   2.254   1.499
 1930SOL    HW1 5805   2.382   2.198   1.508
 1930SOL    HW2 5806   2.219   2.196   1.503
 1931SOL     OW 5807   3.465   2.309   0.737
 1931SOL    HW1 5808   3.391   2.355   0.687
 1931SOL    HW2 5809   3.516   2.377   0.790
 1932SOL     OW 5810   2.093   3.575   0.483
 1932SOL    HW1 5811   2.127   3.652   0.537
 1932SOL    HW2 5812   2.137   3.575   0.393
 1933SOL     OW 5813   2.989   3.203   1.690
 1933SOL    HW1 5814   3.036   3.203   1.778
 1933SOL    HW2 5815   2.941   3.116   1.679
 1934SOL     OW 5816   2.092   3.296   0.538
 1934SOL    HW1 5817   2.066   3.392   0.538
 1934SOL    HW2 5818   2.021   3.242   0.583
 1935SOL     OW 5819   2.102   2.953   0.886
 1935SOL    HW1 5820   2.116   2.869   0.938
 1935SOL    HW2 5821   2.047   3.017   0.941
 1936SOL     OW 5822   2.482   3.648   1.439
 1936SOL    HW1 5823   2.390   3.631   1.474
 1936SOL    HW2 5824   2.510   3.740   1.465
 1937SOL     OW 5825   2.468   2.826   0.123
 1937SOL    HW1 5826   2.475   2.910   0.069
 1937SOL    HW2 5827   2.514   2.839   0.211
 1938SOL     OW 5828   3.456   1.976   1.480
 1938SOL    HW1 5829   3.438   2.043   1.408
 1938SOL    HW2 5830   3.453   2.022   1.569
 1939SOL     OW 5831   1.984   2.505   0.563
 1939SOL    HW1 5832   1.939   2.417   0.580
 1939SOL    HW2 5833   1.983   2.559   0.647
 1940SOL     OW 5834   3.704   3.629   0.359
 1940SOL    HW1 5835   3.758   3.600   0.439
 1940SOL    HW2 5836   3.734   3.719   0.330
 1941SOL     OW 5837   1.889   3.458   0.117
 1941SOL    HW1 5838   1.870   3.362   0.138
 1941SOL    HW2 5839   1.856   3.516   0.192
 1942SOL     OW 5840   3.551   2.784   0.612
 1942SOL    HW1 5841   3.646   2.755   0.620
 1942SOL    HW2 5842   3.543   2.849   0.537
 1943SOL     OW 5843   3.503   2.970   0.432
 1943SOL    HW1 5844   3.589   2.972   0.380
 1943SOL    HW2 5845   3.517   3.017   0.520
 1944SOL     OW 5846   1.975   2.599   1.597
 1944SOL    HW1 5847   2.063   2.586   1.642
 1944SOL    HW2 5848   1.962   2.696   1.575
 1945SOL     OW 5849   2.475   3.227   0.726
 1945SOL    HW1 5850   2.426   3.140   0.735
 1945SOL    HW2 5851   2.452   3.270   0.639
 1946SOL     OW 5852   3.155   3.090   1.423
 1946SOL    HW1 5853   3.192   3.017   1.365
 1946SOL    HW2 5854   3.207   3.095   1.508
 1947SOL     OW 5855   2.671   1.866   0.502
 1947SOL    HW1 5856   2.711   1.957   0.493
 1947SOL    HW2 5857   2.571   1.874   0.508
 1948SOL     OW 5858   2.059   2.838   1.264
 1948SOL    HW1 5859   2.148   2.793   1.250
 1948SOL    HW2 5860   1.986   2.773   1.245
 1949SOL     OW 5861   3.387   2.861   0.190
 1949SOL    HW1 5862   3.324   2.785   0.203
 1949SOL    HW2 5863   3.435   2.879   0.276
 1950SOL     OW 5864   3.049   3.654   1.616
 1950SOL    HW1 5865   3.073   3.714   1.540
 1950SOL    HW2 5866   3.056   3.559   1.586
 1951SOL     OW 5867   2.179   2.113   1.801
 1951SOL    HW1 5868   2.250   2.184   1.807
 1951SOL    HW2 5869   2.091   2.152   1.829
 1952SOL     OW 5870   3.328   3.279   0.953
 1952SOL    HW1 5871   3.269   3.285   1.033
 1952SOL    HW2 5872   3.313   3.191   0.907
 1953SOL     OW 5873   3.529   3.576   0.572
 1953SOL    HW1 5874   3.488   3.553   0.484
 1953SOL    HW2 5875   3.511   3.502   0.637
 1954SOL     OW 5876   2.460   2.591   0.270
 1954SOL    HW1 5877   2.484   2.660   0.202
 1954SOL    HW2 5878   2.382   2.624   0.324
 1955SOL     OW 5879   3.143   2.207   0.944
 1955SOL    HW1 5880   3.057   2.157   0.931
 1955SOL    HW2 5881   3.205   2.153   1.000
 1956SOL     OW 5882   3.438   3.524   0.307
 1956SOL    HW1 5883   3.527   3.570   0.310
 1956SOL    HW2 5884   3.417   3.500   0.212
 1957SOL     OW 5885   2.669   2.467   1.465
 1957SOL    HW1 5886   2.622   2.464   1.554
 1957SOL    HW2 5887   2.618   2.412   1.399
 1958SOL     OW 5888   3.256   2.331   1.674
 1958SOL    HW1 5889   3.236   2.374   1.762
 1958SOL    HW2 5890   3.334   2.269   1.683
 1959SOL     OW 5891   2.835   2.752   1.572
 1959SOL    HW1 5892   2.881   2.668   1.543
 1959SOL    HW2 5893   2.779   2.786   1.497
 1960SOL     OW 5894   2.853   2.272   1.242
 1960SOL    HW1 5895   2.776   2.306   1.296
 1960SOL    HW2 5896   2.819   2.221   1.163
 1961SOL     OW 5897   2.903   2.563   0.429
 1961SOL    HW1 5898   2.929   2.559   0.525
 1961SOL    HW2 5899   2.818   2.512   0.415
 1962SOL     OW 5900   1.938   2.673   0.789
 1962SOL    HW1 5901   2.037   2.661   0.798
 1962SOL    HW2 5902   1.914   2.768   0.810
 1963SOL     OW 5903   1.992   3.683   1.571
 1963SOL    HW1 5904   1.982   3.668   1.670
 1963SOL    HW2 5905   1.906   3.719   1.535
 1964SOL     OW 5906   2.727   2.210   0.195
 1964SOL    HW1 5907   2.786   2.273   0.146
 1964SOL    HW2 5908   2.746   2.116   0.166
 1965SOL     OW 5909   3.581   2.447   1.831
 1965SOL    HW1 5910   3.555   2.536   1.795
 1965SOL    HW2 5911   3.579   2.379   1.758
 1966SOL     OW 5912   3.224   3.006   0.545
 1966SOL    HW1 5913   3.307   2.977   0.497
 1966SOL    HW2 5914   3.175   3.073   0.489
 1967SOL     OW 5915   2.412   2.058   0.885
 1967SOL    HW1 5916   2.407   2.053   0.985
 1967SOL    HW2 5917   2.414   2.154   0.856
 1968SOL     OW 5918   2.870   3.318   0.477
 1968SOL    HW1 5919   2.824   3.390   0.425
 1968SOL    HW2 5920   2.866   3.338   0.575
 1969SOL     OW 5921   2.213   3.663   0.853
 1969SOL    HW1 5922   2.263   3.577   0.859
 1969SOL    HW2 5923   2.278   3.740   0.850
 1970SOL     OW 5924   3.657   2.928   0.873
 1970SOL    HW1 5925   3.595   2.913   0.797
 1970SOL    HW2 5926   3.605   2.939   0.958
 1971SOL     OW 5927   3.089   3.412   1.506
 1971SOL    HW1 5928   3.095   3.335   1.570
 1971SOL    HW2 5929   3.037   3.386   1.426
 1972SOL     OW 5930   2.183   2.805   0.242
 1972SOL    HW1 5931   2.265   2.844   0.200
 1972SOL    HW2 5932   2.156   2.723   0.193
 1973SOL     OW 5933   3.320   2.597   0.728
 1973SOL    HW1 5934   3.315   2.532   0.803
 1973SOL    HW2 5935   3.400   2.656   0.741
 1974SOL     OW 5936   2.323   3.128   1.727
 1974SOL    HW1 5937   2.273   3.129   1.641
 1974SOL    HW2 5938   2.260   3.110   1.803
 1975SOL     OW 5939   2.973   3.638   0.237
 1975SOL    HW1 5940   2.913   3.576   0.287
 1975SOL    HW2 5941   3.004   3.594   0.152
 1976SOL     OW 5942   2.064   2.147   1.498
 1976SOL    HW1 5943   1.984   2.207   1.485
 1976SOL    HW2 5944   2.054   2.098   1.584
 1977SOL     OW 5945   3.494   3.239   0.081
 1977SOL    HW1 5946   3.462   3.333   0.071
 1977SOL    HW2 5947   3.418   3.176   0.069
 1978SOL     OW 5948   2.326   3.605   0.323
 1978SOL    HW1 5949   2.359   3.644   0.409
 1978SOL    HW2 5950   2.402   3.598   0.258
 1979SOL     OW 5951   3.262   1.969   0.426
 1979SOL    HW1 5952   3.238   1.932   0.336
 1979SOL    HW2 5953   3.361   1.985   0.430
 1980SOL     OW 5954   2.111   3.647   1.241
 1980SOL    HW1 5955   2.168   3.582   1.291
 1980SOL    HW2 5956   2.095   3.614   1.148
 1981SOL     OW 5957   2.802   3.560   0.904
 1981SOL    HW1 5958   2.882   3.503   0.925
 1981SOL    HW2 5959   2.753   3.520   0.827
 1982SOL     OW 5960   2.244   2.562   0.480
 1982SOL    HW1 5961   2.289   2.472   0.477
 1982SOL    HW2 5962   2.150   2.551   0.513
 1983SOL     OW 5963   3.409   2.084   1.729
 1983SOL    HW1 5964   3.404   2.121   1.821
 1983SOL    HW2 5965   3.337   2.015   1.717
 1984SOL     OW 5966   2.476   1.984   0.117
 1984SOL    HW1 5967   2.574   1.962   0.124
 1984SOL    HW2 5968   2.445   1.967   0.024
 1985SOL     OW 5969   2.643   2.126   1.749
 1985SOL    HW1 5970   2.710   2.065   1.792
 1985SOL    HW2 5971   2.570   2.145   1.814
 1986SOL     OW 5972   2.750   3.376   1.195
 1986SOL    HW1 5973   2.727   3.351   1.101
 1986SOL    HW2 5974   2.811   3.307   1.234
 1987SOL     OW 5975   3.213   2.452   1.433
 1987SOL    HW1 5976   3.241   2.409   1.518
 1987SOL    HW2 5977   3.238   2.548   1.434
 1988SOL     OW 5978   2.665   3.264   0.924
 1988SOL    HW1 5979   2.755   3.278   0.882
 1988SOL    HW2 5980   2.594   3.266   0.853
 1989SOL     OW 5981   2.784   2.365   0.899
 1989SOL    HW1 5982   2.759   2.356   0.803
 1989SOL    HW2 5983   2.832   2.283   0.930
 1990SOL     OW 5984   2.401   1.926   0.512
 1990SOL    HW1 5985   2.320   1.927   0.570
 1990SOL    HW2 5986   2.404   2.009   0.457
 1991SOL     OW 5987   3.296   3.050   0.041
 1991SOL    HW1 5988   3.328   2.974   0.098
 1991SOL    HW2 5989   3.204   3.077   0.071
 1992SOL     OW 5990   2.797   2.098   0.480
 1992SOL    HW1 5991   2.749   2.139   0.402
 1992SOL    HW2 5992   2.896   2.096   0.461
 1993SOL     OW 5993   2.938   2.545   1.464
 1993SOL    HW1 5994   2.858   2.484   1.467
 1993SOL    HW2 5995   3.019   2.492   1.440
 1994SOL     OW 5996   3.089   3.432   0.793
 1994SOL    HW1 5997   3.110   3.506   0.728
 1994SOL    HW2 5998   3.157   3.432   0.866
 1995SOL     OW 5999   2.321   3.014   0.741
 1995SOL    HW1 6000   2.250   2.987   0.806
 1995SOL    HW2 6001   2.295   2.986   0.648
 1996SOL     OW 6002   3.133   3.659   0.591
 1996SOL    HW1 6003   3.177   3.723   0.527
 1996SOL    HW2 6004   3.083   3.711   0.661
 1997SOL     OW 6005   2.894   2.411   0.016
 1997SOL    HW1 6006   2.853   2.493  -0.023
 1997SOL    HW2 6007   2.958   2.437   0.089
 1998SOL     OW 6008   1.940   2.418   1.386
 1998SOL    HW1 6009   2.032   2.417   1.345
 1998SOL    HW2 6010   1.934   2.492   1.453
 1999SOL     OW 6011   2.423   2.084   1.147
 1999SOL    HW1 6012   2.461   2.000   1.184
 1999SOL    HW2 6013   2.335   2.103   1.191
 2000SOL     OW 6014   2.728   2.316   0.642
 2000SOL    HW1 6015   2.696   2.388   0.580
 2000SOL    HW2 6016   2.752   2.235   0.589
 2001SOL     OW 6017   2.879   1.901   0.753
 2001SOL    HW1 6018   2.807   1.906   0.684
 2001SOL    HW2 6019   2.855   1.832   0.822
 2002SOL     OW 6020   3.291   3.035   0.867
 2002SOL    HW1 6021   3.236   2.951   0.860
 2002SOL    HW2 6022   3.317   3.064   0.775
 2003SOL     OW 6023   3.328   2.452   0.992
 2003SOL    HW1 6024   3.298   2.357   0.999
 2003SOL    HW2 6025   3.401   2.468   1.058
 2004SOL     OW 6026   3.719   2.695   0.377
 2004SOL    HW1 6027   3.761   2.631   0.441
 2004SOL    HW2 6028   3.681   2.644   0.299
 2005SOL     OW 6029   2.350   3.247   0.174
 2005SOL    HW1 6030   2.263   3.232   0.221
 2005SOL    HW2 6031   2.333   3.273   0.079
 2006SOL     OW 6032   3.526   3.142   0.657
 2006SOL    HW1 6033   3.625   3.150   0.671
 2006SOL    HW2 6034   3.481   3.226   0.688
 2007SOL     OW 6035   3.252   2.437   0.078
 2007SOL    HW1 6036   3.198   2.416   0.159
 2007SOL    HW2 6037   3.343   2.396   0.087
 2008SOL     OW 6038   2.389   2.118   0.328
 2008SOL    HW1 6039   2.416   2.059   0.253
 2008SOL    HW2 6040   2.389   2.213   0.297
 2009SOL     OW 6041   3.616   3.085   1.588
 2009SOL    HW1 6042   3.707   3.046   1.575
 2009SOL    HW2 6043   3.624   3.181   1.612
 2010SOL     OW 6044   2.926   3.209   1.340
 2010SOL    HW1 6045   2.846   3.186   1.395
 2010SOL    HW2 6046   3.009   3.183   1.389
 2011SOL     OW 6047   3.454   3.491   1.625
 2011SOL    HW1 6048   3.481   3.525   1.535
 2011SOL    HW2 6049   3.533   3.453   1.671
 2012SOL     OW 6050   2.973   3.057   1.100
 2012SOL    HW1 6051   2.933   3.101   1.181
 2012SOL    HW2 6052   2.932   3.094   1.017
 2013SOL     OW 6053   3.500   2.961   1.079
 2013SOL    HW1 6054   3.505   3.042   1.138
 2013SOL    HW2 6055   3.414   2.963   1.028
 2014SOL     OW 6056   2.777   1.951   1.402
 2014SOL    HW1 6057   2.802   1.931   1.307
 2014SOL    HW2 6058   2.849   2.007   1.444
 2015SOL     OW 6059   2.842   2.978   1.719
 2015SOL    HW1 6060   2.743   2.984   1.729
 2015SOL    HW2 6061   2.865   2.898   1.663
 2016SOL     OW 6062   2.567   2.912   0.368
 2016SOL    HW1 6063   2.553   2.919   0.467
 2016SOL    HW2 6064   2.651   2.861   0.350
 2017SOL     OW 6065   2.272   2.675   1.251
 2017SOL    HW1 6066   2.358   2.687   1.301
 2017SOL    HW2 6067   2.230   2.588   1.278
 2018SOL     OW 6068   3.136   2.248   1.262
 2018SOL    HW1 6069   3.157   2.322   1.326
 2018SOL    HW2 6070   3.047   2.265   1.219
 2019SOL     OW 6071   1.926   3.426   1.331
 2019SOL    HW1 6072   1.880   3.508   1.297
 2019SOL    HW2 6073   2.024   3.445   1.340
 2020SOL     OW 6074   2.229   2.962   0.501
 2020SOL    HW1 6075   2.222   3.045   0.445
 2020SOL    HW2 6076   2.233   2.882   0.441
 2021SOL     OW 6077   2.428   2.399   0.865
 2021SOL    HW1 6078   2.440   2.465   0.791
 2021SOL    HW2 6079   2.474   2.433   0.948
 2022SOL     OW 6080   3.114   3.210   0.388
 2022SOL    HW1 6081   3.164   3.287   0.428
 2022SOL    HW2 6082   3.019   3.212   0.420
 2023SOL     OW 6083   3.134   3.307   1.142
 2023SOL    HW1 6084   3.181   3.320   1.229
 2023SOL    HW2 6085   3.068   3.233   1.151
 2024SOL     OW 6086   3.444   2.501   0.472
 2024SOL    HW1 6087   3.413   2.562   0.545
 2024SOL    HW2 6088   3.494   2.553   0.403
 2025SOL     OW 6089   2.216   3.372   1.329
 2025SOL    HW1 6090   2.195   3.328   1.242
 2025SOL    HW2 6091   2.313   3.398   1.332
 2026SOL     OW 6092   2.264   2.613   1.598
 2026SOL    HW1 6093   2.332   2.668   1.551
 2026SOL    HW2 6094   2.304   2.525   1.625
 2027SOL     OW 6095   3.449   2.641   1.670
 2027SOL    HW1 6096   3.357   2.679   1.665
 2027SOL    HW2 6097   3.509   2.688   1.605
 2028SOL     OW 6098   2.875   1.967   1.770
 2028SOL    HW1 6099   2.881   2.052   1.718
 2028SOL    HW2 6100   2.907   1.891   1.713
 2029SOL     OW 6101   2.366   1.912   1.740
 2029SOL    HW1 6102   2.324   1.855   1.670
 2029SOL    HW2 6103   2.300   1.981   1.772
 2030SOL     OW 6104   2.435   2.732   1.029
 2030SOL    HW1 6105   2.479   2.821   1.020
 2030SOL    HW2 6106   2.372   2.732   1.106
 2031SOL     OW 6107   3.222   2.724   1.045
 2031SOL    HW1 6108   3.147   2.724   0.979
 2031SOL    HW2 6109   3.259   2.632   1.054
 2032SOL     OW 6110   3.071   2.387   0.275
 2032SOL    HW1 6111   3.084   2.303   0.329
 2032SOL    HW2 6112   3.042   2.461   0.335
 2033SOL     OW 6113   2.169   2.075   1.231
 2033SOL    HW1 6114   2.146   2.112   1.321
 2033SOL    HW2 6115   2.139   1.980   1.225
 2034SOL     OW 6116   1.899   3.172   1.282
 2034SOL    HW1 6117   1.952   3.123   1.350
 2034SOL    HW2 6118   1.921   3.270   1.287
 2035SOL     OW 6119   2.594   2.496   1.064
 2035SOL    HW1 6120   2.653   2.470   0.988
 2035SOL    HW2 6121   2.566   2.592   1.053
 2036SOL     OW 6122   3.590   2.797   1.854
 2036SOL    HW1 6123   3.544   2.790   1.765
 2036SOL    HW2 6124   3.528   2.841   1.920
 2037SOL     OW 6125   2.169   1.925   0.618
 2037SOL    HW1 6126   2.158   2.019   0.651
 2037SOL    HW2 6127   2.164   1.862   0.695
 2038SOL     OW 6128   3.484   2.229   0.374
 2038SOL    HW1 6129   3.486   2.153   0.438
 2038SOL    HW2 6130   3.436   2.306   0.414
 2039SOL     OW 6131   2.885   2.628   0.966
 2039SOL    HW1 6132   2.900   2.649   1.062
 2039SOL    HW2 6133   2.855   2.533   0.957
 2040SOL     OW 6134   2.842   3.435   1.700
 2040SOL    HW1 6135   2.822   3.479   1.612
 2040SOL    HW2 6136   2.881   3.344   1.684
 2041SOL     OW 6137   3.721   3.380   1.605
 2041SOL    HW1 6138   3.735   3.407   1.510
 2041SOL    HW2 6139   3.804   3.402   1.658
 2042SOL     OW 6140   2.212   2.760   1.804
 2042SOL    HW1 6141   2.288   2.804   1.852
 2042SOL    HW2 6142   2.247   2.713   1.722
 2043SOL     OW 6143   3.402   2.136   0.125
 2043SOL    HW1 6144   3.341   2.061   0.148
 2043SOL    HW2 6145   3.424   2.188   0.208
 2044SOL     OW 6146   3.165   2.700   0.042
 2044SOL    HW1 6147   3.199   2.607   0.057
 2044SOL    HW2 6148   3.183   2.727  -0.053
 2045SOL     OW 6149   2.930   3.195   0.849
 2045SOL    HW1 6150   2.937   3.111   0.794
 2045SOL    HW2 6151   2.992   3.264   0.813
 2046SOL     OW 6152   2.181   2.672   0.949
 2046SOL    HW1 6153   2.274   2.708   0.954
 2046SOL    HW2 6154   2.175   2.587   1.001
 2047SOL     OW 6155   2.201   2.371   1.006
 2047SOL    HW1 6156   2.149   2.288   0.989
 2047SOL    HW2 6157   2.278   2.376   0.942
 2048SOL     OW 6158   3.000   2.242   1.678
 2048SOL    HW1 6159   2.955   2.305   1.742
 2048SOL    HW2 6160   3.093   2.273   1.661
 2049SOL     OW 6161   3.022   2.069   1.477
 2049SOL    HW1 6162   3.022   2.133   1.554
 2049SOL    HW2 6163   3.050   2.117   1.394
 2050SOL     OW 6164   1.870   3.188   0.200
 2050SOL    HW1 6165   1.777   3.209   0.169
 2050SOL    HW2 6166   1.880   3.089   0.213
 2051SOL     OW 6167   1.950   3.663   0.927
 2051SOL    HW1 6168   1.908   3.577   0.900
 2051SOL    HW2 6169   2.044   3.666   0.893
 2052SOL     OW 6170   2.366   3.430   0.910
 2052SOL    HW1 6171   2.432   3.504   0.919
 2052SOL    HW2 6172   2.410   3.351   0.868
 2053SOL     OW 6173   2.864   2.658   1.238
 2053SOL    HW1 6174   2.905   2.626   1.324
 2053SOL    HW2 6175   2.768   2.631   1.235
 2054SOL     OW 6176   1.902   2.406   1.114
 2054SOL    HW1 6177   1.987   2.373   1.073
 2054SOL    HW2 6178   1.915   2.421   1.212
 2055SOL     OW 6179   2.051   2.382   1.722
 2055SOL    HW1 6180   2.110   2.342   1.652
 2055SOL    HW2 6181   1.993   2.453   1.681
 2056SOL     OW 6182   3.231   2.812   1.660
 2056SOL    HW1 6183   3.270   2.901   1.680
 2056SOL    HW2 6184   3.241   2.792   1.563
 2057SOL     OW 6185   2.677   2.434   0.325
 2057SOL    HW1 6186   2.684   2.345   0.279
 2057SOL    HW2 6187   2.583   2.468   0.317
 2058SOL     OW 6188   3.519   2.466   1.206
 2058SOL    HW1 6189   3.481   2.397   1.268
 2058SOL    HW2 6190   3.601   2.430   1.162
 2059SOL     OW 6191   2.114   3.426   1.744
 2059SOL    HW1 6192   2.084   3.483   1.820
 2059SOL    HW2 6193   2.107   3.329   1.770
 2060SOL     OW 6194   2.533   2.326   1.269
 2060SOL    HW1 6195   2.499   2.237   1.239
 2060SOL    HW2 6196   2.559   2.380   1.189
 2061SOL     OW 6197   2.792   3.540   1.465
 2061SOL    HW1 6198   2.768   3.522   1.370
 2061SOL    HW2 6199   2.822   3.634   1.475
 2062SOL     OW 6200   2.335   2.362   0.191
 2062SOL    HW1 6201   2.396   2.442   0.195
 2062SOL    HW2 6202   2.240   2.393   0.198
 2063SOL     OW 6203   2.021   2.999   1.466
 2063SOL    HW1 6204   2.043   2.938   1.542
 2063SOL    HW2 6205   2.031   2.950   1.380
 2064SOL     OW 6206   3.209   2.921   1.234
 2064SOL    HW1 6207   3.233   2.858   1.160
 2064SOL    HW2 6208   3.119   2.961   1.216
 2065SOL     OW 6209   3.164   2.717   0.309
 2065SOL    HW1 6210   3.078   2.686   0.351
 2065SOL    HW2 6211   3.160   2.703   0.210
 2066SOL     OW 6212   3.621   3.609   1.154
 2066SOL    HW1 6213   3.682   3.639   1.081
 2066SOL    HW2 6214   3.583   3.520   1.132
 2067SOL     OW 6215   3.114   3.593   1.128
 2067SOL    HW1 6216   3.198   3.598   1.074
 2067SOL    HW2 6217   3.091   3.497   1.146
 2068SOL     OW 6218   1.945   3.120   1.022
 2068SOL    HW1 6219   1.940   3.119   1.122
 2068SOL    HW2 6220   1.862   3.079   0.984
 2069SOL     OW 6221   2.550   3.524   1.716
 2069SOL    HW1 6222   2.494   3.605   1.725
 2069SOL    HW2 6223   2.602   3.528   1.630
 2070SOL     OW 6224   2.765   1.948   0.133
 2070SOL    HW1 6225   2.816   1.949   0.047
 2070SOL    HW2 6226   2.821   1.906   0.204
 2071SOL     OW 6227   3.588   1.997   0.523
 2071SOL    HW1 6228   3.661   1.980   0.456
 2071SOL    HW2 6229   3.557   1.910   0.561
 2072SOL     OW 6230   3.250   3.435   0.477
 2072SOL    HW1 6231   3.317   3.447   0.403
 2072SOL    HW2 6232   3.210   3.524   0.500
 2073SOL     OW 6233   1.992   3.656   1.851
 2073SOL    HW1 6234   1.951   3.582   1.904
 2073SOL    HW2 6235   2.056   3.707   1.909
 2074SOL     OW 6236   3.142   2.789   0.672
 2074SOL    HW1 6237   3.202   2.708   0.674
 2074SOL    HW2 6238   3.182   2.858   0.612
 2075SOL     OW 6239   2.692   3.135   1.422
 2075SOL    HW1 6240   2.687   3.168   1.517
 2075SOL    HW2 6241   2.606   3.154   1.376
 2076SOL     OW 6242   2.534   3.478   0.154
 2076SOL    HW1 6243   2.543   3.488   0.055
 2076SOL    HW2 6244   2.494   3.389   0.175
 2077SOL     OW 6245   3.512   3.582   1.394
 2077SOL    HW1 6246   3.565   3.592   1.310
 2077SOL    HW2 6247   3.485   3.672   1.428
 2078SOL     OW 6248   3.703   2.037   0.963
 2078SOL    HW1 6249   3.742   1.952   0.927
 2078SOL    HW2 6250   3.605   2.039   0.944
 2079SOL     OW 6251   2.125   2.188   0.720
 2079SOL    HW1 6252   2.046   2.239   0.686
 2079SOL    HW2 6253   2.116   2.173   0.818
 2080SOL     OW 6254   3.056   3.474   0.031
 2080SOL    HW1 6255   3.062   3.381   0.068
 2080SOL    HW2 6256   2.997   3.474  -0.049
 2081SOL     OW 6257   2.684   2.864   1.372
 2081SOL    HW1 6258   2.724   2.863   1.280
 2081SOL    HW2 6259   2.694   2.956   1.412
 2082SOL     OW 6260   2.778   2.772   0.291
 2082SOL    HW1 6261   2.841   2.810   0.223
 2082SOL    HW2 6262   2.818   2.689   0.330
 2083SOL     OW 6263   3.366   3.469   0.044
 2083SOL    HW1 6264   3.274   3.506   0.051
 2083SOL    HW2 6265   3.404   3.489  -0.046
 2084SOL     OW 6266   2.234   3.150   1.490
 2084SOL    HW1 6267   2.221   3.243   1.456
 2084SOL    HW2 6268   2.150   3.098   1.477
 2085SOL     OW 6269   3.476   3.154   1.289
 2085SOL    HW1 6270   3.536   3.157   1.369
 2085SOL    HW2 6271   3.401   3.218   1.302
 2086SOL     OW 6272   2.901   2.960   0.696
 2086SOL    HW1 6273   2.831   2.913   0.750
 2086SOL    HW2 6274   2.960   2.892   0.653
 2087SOL     OW 6275   2.876   2.098   0.971
 2087SOL    HW1 6276   2.868   2.062   0.878
 2087SOL    HW2 6277   2.874   2.022   1.036
 2088SOL     OW 6278   2.452   3.349   0.491
 2088SOL    HW1 6279   2.494   3.291   0.421
 2088SOL    HW2 6280   2.408   3.428   0.447
 2089SOL     OW 6281   3.571   2.247   1.381
 2089SOL    HW1 6282   3.644   2.316   1.385
 2089SOL    HW2 6283   3.599   2.172   1.322
 2090SOL     OW 6284   2.117   3.210   0.290
 2090SOL    HW1 6285   2.021   3.211   0.263
 2090SOL    HW2 6286   2.129   3.263   0.374
 2091SOL     OW 6287   1.967   2.875   1.726
 2091SOL    HW1 6288   1.890   2.842   1.780
 2091SOL    HW2 6289   2.052   2.845   1.768
 2092SOL     OW 6290   2.534   2.065   1.489
 2092SOL    HW1 6291   2.624   2.049   1.449
 2092SOL    HW2 6292   2.542   2.070   1.588
 2093SOL     OW 6293   1.937   2.207   0.033
 2093SOL    HW1 6294   1.845   2.179   0.004
 2093SOL    HW2 6295   1.968   2.284  -0.023
 2094SOL     OW 6296   3.302   2.718   1.398
 2094SOL    HW1 6297   3.245   2.770   1.335
 2094SOL    HW2 6298   3.398   2.730   1.374
 2095SOL     OW 6299   3.045   3.197   0.119
 2095SOL    HW1 6300   2.946   3.186   0.121
 2095SOL    HW2 6301   3.079   3.212   0.212
 2096SOL     OW 6302   2.475   2.704   1.431
 2096SOL    HW1 6303   2.531   2.785   1.414
 2096SOL    HW2 6304   2.534   2.624   1.434
 2097SOL     OW 6305   3.355   3.629   0.959
 2097SOL    HW1 6306   3.388   3.693   0.890
 2097SOL    HW2 6307   3.421   3.623   1.034
 2098SOL     OW 6308   2.578   2.427   1.708
 2098SOL    HW1 6309   2.597   2.492   1.782
 2098SOL    HW2 6310   2.638   2.347   1.717
 2099SOL     OW 6311   3.312   3.082   1.633
 2099SOL    HW1 6312   3.303   3.072   1.732
 2099SOL    HW2 6313   3.408   3.075   1.607
 2100SOL     OW 6314   2.252   3.603   1.560
 2100SOL    HW1 6315   2.161   3.644   1.558
 2100SOL    HW2 6316   2.245   3.509   1.592
 2101SOL     OW 6317   3.536   2.745   1.254
 2101SOL    HW1 6318   3.509   2.656   1.217
 2101SOL    HW2 6319   3.537   2.813   1.181
 2102SOL     OW 6320   3.087   2.187   0.449
 2102SOL    HW1 6321   3.152   2.113   0.438
 2102SOL    HW2 6322   3.107   2.237   0.533
 2103SOL     OW 6323   2.456   2.607   0.652
 2103SOL    HW1 6324   2.506   2.692   0.633
 2103SOL    HW2 6325   2.368   2.609   0.604
 2104SOL     OW 6326   3.639   2.204   1.642
 2104SOL    HW1 6327   3.622   2.235   1.548
 2104SOL    HW2 6328   3.555   2.167   1.680
 2105SOL     OW 6329   3.592   2.796   1.517
 2105SOL    HW1 6330   3.630   2.887   1.532
 2105SOL    HW2 6331   3.584   2.779   1.418
 2106SOL     OW 6332   2.721   3.236   0.016
 2106SOL    HW1 6333   2.675   3.251   0.104
 2106SOL    HW2 6334   2.765   3.321  -0.014
 2107SOL     OW 6335   2.523   3.652   0.953
 2107SOL    HW1 6336   2.477   3.740   0.940
 2107SOL    HW2 6337   2.622   3.664   0.946
 2108SOL     OW 6338   2.721   2.818   0.861
 2108SOL    HW1 6339   2.775   2.749   0.909
 2108SOL    HW2 6340   2.689   2.887   0.927
 2109SOL     OW 6341   2.945   2.846   0.087
 2109SOL    HW1 6342   2.922   2.899   0.005
 2109SOL    HW2 6343   3.026   2.790   0.068
 2110SOL     OW 6344   3.723   3.431   0.851
 2110SOL    HW1 6345   3.652   3.419   0.781
 2110SOL    HW2 6346   3.724   3.352   0.911
 2111SOL     OW 6347   2.083   3.176   1.844
 2111SOL    HW1 6348   2.018   3.103   1.823
 2111SOL    HW2 6349   2.087   3.190   1.942
 2112SOL     OW 6350   1.941   3.102   0.653
 2112SOL    HW1 6351   1.940   3.055   0.741
 2112SOL    HW2 6352   2.023   3.074   0.602
 2113SOL     OW 6353   2.534   3.253   1.624
 2113SOL    HW1 6354   2.456   3.203   1.662
 2113SOL    HW2 6355   2.531   3.348   1.655
 2114SOL     OW 6356   3.686   2.054   1.227
 2114SOL    HW1 6357   3.682   1.964   1.271
 2114SOL    HW2 6358   3.689   2.043   1.128
 2115SOL     OW 6359   2.290   2.286   0.520
 2115SOL    HW1 6360   2.320   2.214   0.458
 2115SOL    HW2 6361   2.251   2.246   0.603
 2116SOL     OW 6362   3.567   3.349   1.104
 2116SOL    HW1 6363   3.474   3.324   1.077
 2116SOL    HW2 6364   3.593   3.299   1.186
 2117SOL     OW 6365   2.179   2.409   1.280
 2117SOL    HW1 6366   2.217   2.350   1.352
 2117SOL    HW2 6367   2.219   2.383   1.192
 2118SOL     OW 6368   2.674   3.448   0.687
 2118SOL    HW1 6369   2.706   3.458   0.593
 2118SOL    HW2 6370   2.595   3.386   0.689
 2119SOL     OW 6371   3.286   2.076   1.112
 2119SOL    HW1 6372   3.338   2.011   1.167
 2119SOL    HW2 6373   3.237   2.139   1.173
 2120SOL     OW 6374   2.863   1.896   1.154
 2120SOL    HW1 6375   2.800   1.824   1.123
 2120SOL    HW2 6376   2.956   1.860   1.154
 2121SOL     OW 6377   2.632   3.192   0.301
 2121SOL    HW1 6378   2.586   3.105   0.318
 2121SOL    HW2 6379   2.723   3.189   0.342
 2122SOL     OW 6380   2.480   3.429   1.284
 2122SOL    HW1 6381   2.475   3.511   1.341
 2122SOL    HW2 6382   2.569   3.426   1.239
 2123SOL     OW 6383   3.214   1.914   0.168
 2123SOL    HW1 6384   3.249   1.873   0.084
 2123SOL    HW2 6385   3.124   1.876   0.188
 2124SOL     OW 6386   3.162   2.315   0.691
 2124SOL    HW1 6387   3.103   2.395   0.695
 2124SOL    HW2 6388   3.177   2.280   0.784
 2125SOL     OW 6389   3.455   2.083   0.882
 2125SOL    HW1 6390   3.371   2.082   0.936
 2125SOL    HW2 6391   3.457   2.166   0.826
 2126SOL     OW 6392   1.901   2.939   0.300
 2126SOL    HW1 6393   2.000   2.928   0.291
 2126SOL    HW2 6394   1.861   2.853   0.332
 2127SOL     OW 6395   2.737   3.508   0.337
 2127SOL    HW1 6396   2.660   3.473   0.283
 2127SOL    HW2 6397   2.705   3.579   0.399
 2128SOL     OW 6398   2.092   2.490   1.975
 2128SOL    HW1 6399   1.999   2.488   2.012
 2128SOL    HW2 6400   2.093   2.451   1.883
 2129SOL     OW 6401   2.087   2.137   2.858
 2129SOL    HW1 6402   2.122   2.120   2.950
 2129SOL    HW2 6403   1.999   2.092   2.846
 2130SOL     OW 6404   1.881   2.230   2.509
 2130SOL    HW1 6405   1.799   2.273   2.548
 2130SOL    HW2 6406   1.853   2.157   2.446
 2131SOL     OW 6407   2.431   3.137   3.027
 2131SOL    HW1 6408   2.338   3.130   2.990
 2131SOL    HW2 6409   2.442   3.226   3.071
 2132SOL     OW 6410   3.417   3.373   2.565
 2132SOL    HW1 6411   3.360   3.357   2.646
 2132SOL    HW2 6412   3.358   3.383   2.485
 2133SOL     OW 6413   2.997   2.565   2.579
 2133SOL    HW1 6414   3.054   2.643   2.554
 2133SOL    HW2 6415   2.937   2.591   2.655
 2134SOL     OW 6416   3.617   2.469   2.093
 2134SOL    HW1 6417   3.605   2.456   1.994
 2134SOL    HW2 6418   3.587   2.388   2.142
 2135SOL     OW 6419   2.630   3.006   2.885
 2135SOL    HW1 6420   2.552   3.023   2.945
 2135SOL    HW2 6421   2.664   3.093   2.849
 2136SOL     OW 6422   2.712   2.660   3.685
 2136SOL    HW1 6423   2.708   2.736   3.750
 2136SOL    HW2 6424   2.734   2.696   3.594
 2137SOL     OW 6425   2.547   2.874   2.527
 2137SOL    HW1 6426   2.616   2.858   2.597
 2137SOL    HW2 6427   2.474   2.931   2.565
 2138SOL     OW 6428   2.548   3.023   3.665
 2138SOL    HW1 6429   2.608   3.102   3.679
 2138SOL    HW2 6430   2.462   3.054   3.624
 2139SOL     OW 6431   2.197   3.297   2.923
 2139SOL    HW1 6432   2.119   3.266   2.870
 2139SOL    HW2 6433   2.255   3.355   2.866
 2140SOL     OW 6434   3.322   3.367   3.201
 2140SOL    HW1 6435   3.346   3.461   3.227
 2140SOL    HW2 6436   3.306   3.313   3.283
 2141SOL     OW 6437   2.300   2.254   3.361
 2141SOL    HW1 6438   2.382   2.198   3.370
 2141SOL    HW2 6439   2.219   2.196   3.365
 2142SOL     OW 6440   3.465   2.309   2.599
 2142SOL    HW1 6441   3.391   2.355   2.549
 2142SOL    HW2 6442   3.516   2.377   2.652
 2143SOL     OW 6443   2.093   3.575   2.345
 2143SOL    HW1 6444   2.127   3.652   2.399
 2143SOL    HW2 6445   2.137   3.575   2.255
 2144SOL     OW 6446   2.989   3.203   3.552
 2144SOL    HW1 6447   3.036   3.203   3.640
 2144SOL    HW2 6448   2.941   3.116   3.541
 2145SOL     OW 6449   2.092   3.296   2.400
 2145SOL    HW1 6450   2.066   3.392   2.400
 2145SOL    HW2 6451   2.021   3.242   2.445
 2146SOL     OW 6452   2.102   2.953   2.748
 2146SOL    HW1 6453   2.116   2.869   2.800
 2146SOL    HW2 6454   2.047   3.017   2.803
 2147SOL     OW 6455   2.482   3.648   3.301
 2147SOL    HW1 6456   2.390   3.631   3.336
 2147SOL    HW2 6457   2.510   3.740   3.327
 2148SOL     OW 6458   2.468   2.826   1.985
 2148SOL    HW1 6459   2.475   2.910   1.931
 2148SOL    HW2 6460   2.514   2.839   2.073
 2149SOL     OW 6461   3.456   1.976   3.342
 2149SOL    HW1 6462   3.438   2.043   3.270
 2149SOL    HW2 6463   3.453   2.022   3.431
 2150SOL     OW 6464   1.984   2.505   2.425
 2150SOL    HW1 6465   1.939   2.417   2.442
 2150SOL    HW2 6466   1.983   2.559   2.509
 2151SOL     OW 6467   3.704   3.629   2.221
 2151SOL    HW1 6468   3.758   3.600   2.301
 2151SOL    HW2 6469   3.734   3.719   2.192
 2152SOL     OW 6470   1.889   3.458   1.979
 2152SOL    HW1 6471   1.870   3.362   2.000
 2152SOL    HW2 6472   1.856   3.516   2.054
 2153SOL     OW 6473   3.551   2.784   2.474
 2153SOL    HW1 6474   3.646   2.755   2.482
 2153SOL    HW2 6475   3.543   2.849   2.399
 2154SOL     OW 6476   3.503   2.970   2.294
 2154SOL    HW1 6477   3.589   2.972   2.242
 2154SOL    HW2 6478   3.517   3.017   2.382
 2155SOL     OW 6479   1.975   2.599   3.459
 2155SOL    HW1 6480   2.063   2.586   3.504
 2155SOL    HW2 6481   1.962   2.696   3.437
 2156SOL     OW 6482   2.475   3.227   2.588
 2156SOL    HW1 6483   2.426   3.140   2.597
 2156SOL    HW2 6484   2.452   3.270   2.501
 2157SOL     OW 6485   3.155   3.090   3.285
 2157SOL    HW1 6486   3.192   3.017   3.227
 2157SOL    HW2 6487   3.207   3.095   3.370
 2158SOL     OW 6488   2.671   1.866   2.364
 2158SOL    HW1 6489   2.711   1.957   2.355
 2158SOL    HW2 6490   2.571   1.874   2.370
 2159SOL     OW 6491   2.059   2.838   3.126
 2159SOL    HW1 6492   2.148   2.793   3.112
 2159SOL    HW2 6493   1.986   2.773   3.107
 2160SOL     OW 6494   3.387   2.861   2.052
 2160SOL    HW1 6495   3.324   2.785   2.065
 2160SOL    HW2 6496   3.435   2.879   2.138
 2161SOL     OW 6497   3.049   3.654   3.478
 2161SOL    HW1 6498   3.073   3.714   3.402
 2161SOL    HW2 6499   3.056   3.559   3.448
 2162SOL     OW 6500   2.179   2.113   3.663
 2162SOL    HW1 6501   2.250   2.184   3.669
 2162SOL    HW2 6502   2.091   2.152   3.691
 2163SOL     OW 6503   3.328   3.279   2.815
 2163SOL    HW1 6504   3.269   3.285   2.895
 2163SOL    HW2 6505   3.313   3.191   2.769
 2164SOL     OW 6506   3.529   3.576   2.434
 2164SOL    HW1 6507   3.488   3.553   2.346
 2164SOL    HW2 6508   3.511   3.502   2.499
 2165SOL     OW 6509   2.460   2.591   2.132
 2165SOL    HW1 6510   2.484   2.660   2.064
 2165SOL    HW2 6511   2.382   2.624   2.186
 2166SOL     OW 6512   3.143   2.207   2.806
 2166SOL    HW1 6513   3.057   2.157   2.793
 2166SOL    HW2 6514   3.205   2.153   2.862
 2167SOL     OW 6515   3.438   3.524   2.169
 2167SOL    HW1 6516   3.527   3.570   2.172
 2167SOL    HW2 6517   3.417   3.500   2.074
 2168SOL     OW 6518   2.669   2.467   3.327
 2168SOL    HW1 6519   2.622   2.464   3.416
 2168SOL    HW2 6520   2.618   2.412   3.261
 2169SOL     OW 6521   3.256   2.331   3.536
 2169SOL    HW1 6522   3.236   2.374   3.624
 2169SOL    HW2 6523   3.334   2.269   3.545
 2170SOL     OW 6524   2.835   2.752   3.434
 2170SOL    HW1 6525   2.881   2.668   3.405
 2170SOL    HW2 6526   2.779   2.786   3.359
 2171SOL     OW 6527   2.853   2.272   3.104
 2171SOL    HW1 6528   2.776   2.306   3.158
 2171SOL    HW2 6529   2.819   2.221   3.025
 2172SOL     OW 6530   2.903   2.563   2.291
 2172SOL    HW1 6531   2.929   2.559   2.387
 2172SOL    HW2 6532   2.818   2.512   2.277
 2173SOL     OW 6533   1.938   2.673   2.651
 2173SOL    HW1 6534   2.037   2.661   2.660
 2173SOL    HW2 6535   1.914   2.768   2.672
 2174SOL     OW 6536   1.992   3.683   3.433
 2174SOL    HW1 6537   1.982   3.668   3.532
 2174SOL    HW2 6538   1.906   3.719   3.397
 2175SOL     OW 6539   2.727   2.210   2.057
 2175SOL    HW1 6540   2.786   2.273   2.008
 2175SOL    HW2 6541   2.746   2.116   2.028
 2176SOL     OW 6542   3.581   2.447   3.693
 2176SOL    HW1 6543   3.555   2.536   3.657
 2176SOL    HW2 6544   3.579   2.379   3.620
 2177SOL     OW 6545   3.224   3.006   2.407
 2177SOL    HW1 6546   3.307   2.977   2.359
 2177SOL    HW2 6547   3.175   3.073   2.351
 2178SOL     OW 6548   2.412   2.058   2.747
 2178SOL    HW1 6549   2.407   2.053   2.847
 2178SOL    HW2 6550   2.414   2.154   2.718
 2179SOL     OW 6551   2.870   3.318   2.339
 2179SOL    HW1 6552   2.824   3.390   2.287
 2179SOL    HW2 6553   2.866   3.338   2.437
 2180SOL     OW 6554   2.213   3.663   2.715
 2180SOL    HW1 6555   2.263   3.577   2.721
 2180SOL    HW2 6556   2.278   3.740   2.712
 2181SOL     OW 6557   3.657   2.928   2.735
 2181SOL    HW1 6558   3.595   2.913   2.659
 2181SOL    HW2 6559   3.605   2.939   2.820
 2182SOL     OW 6560   3.089   3.412   3.368
 2182SOL    HW1 6561   3.095   3.335   3.432
 2182SOL    HW2 6562   3.037   3.386   3.288
 2183SOL     OW 6563   2.183   2.805   2.104
 2183SOL    HW1 6564   2.265   2.844   2.062
 2183SOL    HW2 6565   2.156   2.723   2.055
 2184SOL     OW 6566   3.320   2.597   2.590
 2184SOL    HW1 6567   3.315   2.532   2.665
 2184SOL    HW2 6568   3.400   2.656   2.603
 2185SOL     OW 6569   2.323   3.128   3.589
 2185SOL    HW1 6570   2.273   3.129   3.503
 2185SOL    HW2 6571   2.260   3.110   3.665
 2186SOL     OW 6572   2.973   3.638   2.099
 2186SOL    HW1 6573   2.913   3.576   2.149
 2186SOL    HW2 6574   3.004   3.594   2.014
 2187SOL     OW 6575   2.064   2.147   3.360
 2187SOL    HW1 6576   1.984   2.207   3.347
 2187SOL    HW2 6577   2.054   2.098   3.446
 2188SOL     OW 6578   3.494   3.239   1.943
 2188SOL    HW1 6579   3.462   3.333   1.933
 2188SOL    HW2 6580   3.418   3.176   1.931
 2189SOL     OW 6581   2.326   3.605   2.185
 2189SOL    HW1 6582   2.359   3.644   2.271
 2189SOL    HW2 6583   2.402   3.598   2.120
 2190SOL     OW 6584   3.262   1.969   2.288
 2190SOL    HW1 6585   3.238   1.932   2.198
 2190SOL    HW2 6586   3.361   1.985   2.292
 2191SOL     OW 6587   2.111   3.647   3.103
 2191SOL    HW1 6588   2.168   3.582   3.153
 2191SOL    HW2 6589   2.095   3.614   3.010
 2192SOL     OW 6590   2.802   3.560   2.766
 2192SOL    HW1 6591   2.882   3.503   2.787
 2192SOL    HW2 6592   2.753   3.520   2.689
 2193SOL     OW 6593   3.409   2.084   3.591
 2193SOL    HW1 6594   3.404   2.121   3.683
 2193SOL    HW2 6595   3.337   2.015   3.579
 2194SOL     OW 6596   2.476   1.984   1.979
 2194SOL    HW1 6597   2.574   1.962   1.986
 2194SOL    HW2 6598   2.445   1.967   1.886
 2195SOL     OW 6599   2.643   2.126   3.611
 2195SOL    HW1 6600   2.710   2.065   3.654
 2195SOL    HW2 6601   2.570   2.145   3.676
 2196SOL     OW 6602   2.750   3.376   3.057
 2196SOL    HW1 6603   2.727   3.351   2.963
 2196SOL    HW2 6604   2.811   3.307   3.096
 2197SOL     OW 6605   3.213   2.452   3.295
 2197SOL    HW1 6606   3.241   2.409   3.380
 2197SOL    HW2 6607   3.238   2.548   3.296
 2198SOL     OW 6608   2.665   3.264   2.786
 2198SOL    HW1 6609   2.755   3.278   2.744
 2198SOL    HW2 6610   2.594   3.266   2.715
 2199SOL     OW 6611   2.784   2.365   2.761
 2199SOL    HW1 6612   2.759   2.356   2.665
 2199SOL    HW2 6613   2.832   2.283   2.792
 2200SOL     OW 6614   2.401   1.926   2.374
 2200SOL    HW1 6615   2.320   1.927   2.432
 2200SOL    HW2 6616   2.404   2.009   2.319
 2201SOL     OW 6617   3.296   3.050   1.903
 2201SOL    HW1 6618   3.328   2.974   1.960
 2201SOL    HW2 6619   3.204   3.077   1.933
 2202SOL     OW 6620   2.159   1.897   2.033
 2202SOL    HW1 6621   2.208   1.981   2.012
 2202SOL    HW2 6622   2.221   1.832   2.078
 2203SOL     OW 6623   2.797   2.098   2.342
 2203SOL    HW1 6624   2.749   2.139   2.264
 2203SOL    HW2 6625   2.896   2.096   2.323
 2204SOL     OW 6626   2.938   2.545   3.326
 2204SOL    HW1 6627   2.858   2.484   3.329
 2204SOL    HW2 6628   3.019   2.492   3.302
 2205SOL     OW 6629   3.089   3.432   2.655
 2205SOL    HW1 6630   3.110   3.506   2.590
 2205SOL    HW2 6631   3.157   3.432   2.728
 2206SOL     OW 6632   2.321   3.014   2.603
 2206SOL    HW1 6633   2.250   2.987   2.668
 2206SOL    HW2 6634   2.295   2.986   2.510
 2207SOL     OW 6635   3.133   3.659   2.453
 2207SOL    HW1 6636   3.177   3.723   2.389
 2207SOL    HW2 6637   3.083   3.711   2.523
 2208SOL     OW 6638   2.894   2.411   1.878
 2208SOL    HW1 6639   2.853   2.493   1.839
 2208SOL    HW2 6640   2.958   2.437   1.951
 2209SOL     OW 6641   1.940   2.418   3.248
 2209SOL    HW1 6642   2.032   2.417   3.207
 2209SOL    HW2 6643   1.934   2.492   3.315
 2210SOL     OW 6644   2.423   2.084   3.009
 2210SOL    HW1 6645   2.461   2.000   3.046
 2210SOL    HW2 6646   2.335   2.103   3.053
 2211SOL     OW 6647   2.879   1.901   2.615
 2211SOL    HW1 6648   2.807   1.906   2.546
 2211SOL    HW2 6649   2.855   1.832   2.684
 2212SOL     OW 6650   3.291   3.035   2.729
 2212SOL    HW1 6651   3.236   2.951   2.722
 2212SOL    HW2 6652   3.317   3.064   2.637
 2213SOL     OW 6653   3.328   2.452   2.854
 2213SOL    HW1 6654   3.298   2.357   2.861
 2213SOL    HW2 6655   3.401   2.468   2.920
 2214SOL     OW 6656   3.719   2.695   2.239
 2214SOL    HW1 6657   3.761   2.631   2.303
 2214SOL    HW2 6658   3.681   2.644   2.161
 2215SOL     OW 6659   2.350   3.247   2.036
 2215SOL    HW1 6660   2.263   3.232   2.083
 2215SOL    HW2 6661   2.333   3.273   1.941
 2216SOL     OW 6662   3.526   3.142   2.519
 2216SOL    HW1 6663   3.625   3.150   2.533
 2216SOL    HW2 6664   3.481   3.226   2.550
 2217SOL     OW 6665   3.252   2.437   1.940
 2217SOL    HW1 6666   3.198   2.416   2.021
 2217SOL    HW2 6667   3.343   2.396   1.949
 2218SOL     OW 6668   2.389   2.118   2.190
 2218SOL    HW1 6669   2.416   2.059   2.115
 2218SOL    HW2 6670   2.389   2.213   2.159
 2219SOL     OW 6671   3.616   3.085   3.450
 2219SOL    HW1 6672   3.707   3.046   3.437
 2219SOL    HW2 6673   3.624   3.181   3.474
 2220SOL     OW 6674   2.926   3.209   3.202
 2220SOL    HW1 6675   2.846   3.186   3.257
 2220SOL    HW2 6676   3.009   3.183   3.251
 2221SOL     OW 6677   3.454   3.491   3.487
 2221SOL    HW1 6678   3.481   3.525   3.397
 2221SOL    HW2 6679   3.533   3.453   3.533
 2222SOL     OW 6680   2.973   3.057   2.962
 2222SOL    HW1 6681   2.933   3.101   3.043
 2222SOL    HW2 6682   2.932   3.094   2.879
 2223SOL     OW 6683   3.500   2.961   2.941
 2223SOL    HW1 6684   3.505   3.042   3.000
 2223SOL    HW2 6685   3.414   2.963   2.890
 2224SOL     OW 6686   2.777   1.951   3.264
 2224SOL    HW1 6687   2.802   1.931   3.169
 2224SOL    HW2 6688   2.849   2.007   3.306
 2225SOL     OW 6689   2.842   2.978   3.581
 2225SOL    HW1 6690   2.743   2.984   3.591
 2225SOL    HW2 6691   2.865   2.898   3.525
 2226SOL     OW 6692   2.567   2.912   2.230
 2226SOL    HW1 6693   2.553   2.919   2.329
 2226SOL    HW2 6694   2.651   2.861   2.212
 2227SOL     OW 6695   2.272   2.675   3.113
 2227SOL    HW1 6696   2.358   2.687   3.163
 2227SOL    HW2 6697   2.230   2.588   3.140
 2228SOL     OW 6698   3.136   2.248   3.124
 2228SOL    HW1 6699   3.157   2.322   3.188
 2228SOL    HW2 6700   3.047   2.265   3.081
 2229SOL     OW 6701   1.926   3.426   3.193
 2229SOL    HW1 6702   1.880   3.508   3.159
 2229SOL    HW2 6703   2.024   3.445   3.202
 2230SOL     OW 6704   2.229   2.962   2.363
 2230SOL    HW1 6705   2.222   3.045   2.307
 2230SOL    HW2 6706   2.233   2.882   2.303
 2231SOL     OW 6707   2.428   2.399   2.727
 2231SOL    HW1 6708   2.440   2.465   2.653
 2231SOL    HW2 6709   2.474   2.433   2.810
 2232SOL     OW 6710   3.114   3.210   2.250
 2232SOL    HW1 6711   3.164   3.287   2.290
 2232SOL    HW2 6712   3.019   3.212   2.282
 2233SOL     OW 6713   3.134   3.307   3.004
 2233SOL    HW1 6714   3.181   3.320   3.091
 2233SOL    HW2 6715   3.068   3.233   3.013
 2234SOL     OW 6716   3.444   2.501   2.334
 2234SOL    HW1 6717   3.413   2.562   2.407
 2234SOL    HW2 6718   3.494   2.553   2.265
 2235SOL     OW 6719   2.216   3.372   3.191
 2235SOL    HW1 6720   2.195   3.328   3.104
 2235SOL    HW2 6721   2.313   3.398   3.194
 2236SOL     OW 6722   2.264   2.613   3.460
 2236SOL    HW1 6723   2.332   2.668   3.413
 2236SOL    HW2 6724   2.304   2.525   3.487
 2237SOL     OW 6725   3.449   2.641   3.532
 2237SOL    HW1 6726   3.357   2.679   3.527
 2237SOL    HW2 6727   3.509   2.688   3.467
 2238SOL     OW 6728   2.875   1.967   3.632
 2238SOL    HW1 6729   2.881   2.052   3.580
 2238SOL    HW2 6730   2.907   1.891   3.575
 2239SOL     OW 6731   2.366   1.912   3.602
 2239SOL    HW1 6732   2.324   1.855   3.532
 2239SOL    HW2 6733   2.300   1.981   3.634
 2240SOL     OW 6734   2.435   2.732   2.891
 2240SOL    HW1 6735   2.479   2.821   2.882
 2240SOL    HW2 6736   2.372   2.732   2.968
 2241SOL     OW 6737   3.222   2.724   2.907
 2241SOL    HW1 6738   3.147   2.724   2.841
 2241SOL    HW2 6739   3.259   2.632   2.916
 2242SOL     OW 6740   3.071   2.387   2.137
 2242SOL    HW1 6741   3.084   2.303   2.191
 2242SOL    HW2 6742   3.042   2.461   2.197
 2243SOL     OW 6743   2.169   2.075   3.093
 2243SOL    HW1 6744   2.146   2.112   3.183
 2243SOL    HW2 6745   2.139   1.980   3.087
 2244SOL     OW 6746   1.899   3.172   3.144
 2244SOL    HW1 6747   1.952   3.123   3.212
 2244SOL    HW2 6748   1.921   3.270   3.149
 2245SOL     OW 6749   2.594   2.496   2.926
 2245SOL    HW1 6750   2.653   2.470   2.850
 2245SOL    HW2 6751   2.566   2.592   2.915
 2246SOL     OW 6752   3.590   2.797   3.716
 2246SOL    HW1 6753   3.544   2.790   3.627
 2246SOL    HW2 6754   3.528   2.841   3.782
 2247SOL     OW 6755   2.169   1.925   2.480
 2247SOL    HW1 6756   2.158   2.019   2.513
 2247SOL    HW2 6757   2.164   1.862   2.557
 2248SOL     OW 6758   3.484   2.229   2.236
 2248SOL    HW1 6759   3.486   2.153   2.300
 2248SOL    HW2 6760   3.436   2.306   2.276
 2249SOL     OW 6761   2.885   2.628   2.828
 2249SOL    HW1 6762   2.900   2.649   2.924
 2249SOL    HW2 6763   2.855   2.533   2.819
 2250SOL     OW 6764   2.842   3.435   3.562
 2250SOL    HW1 6765   2.822   3.479   3.474
 2250SOL    HW2 6766   2.881   3.344   3.546
 2251SOL     OW 6767   3.721   3.380   3.467
 2251SOL    HW1 6768   3.735   3.407   3.372
 2251SOL    HW2 6769   3.804   3.402   3.520
 2252SOL     OW 6770   2.212   2.760   3.666
 2252SOL    HW1 6771   2.288   2.804   3.714
 2252SOL    HW2 6772   2.247   2.713   3.584
 2253SOL     OW 6773   3.402   2.136   1.987
 2253SOL    HW1 6774   3.341   2.061   2.010
 2253SOL    HW2 6775   3.424   2.188   2.070
 2254SOL     OW 6776   3.165   2.700   1.904
 2254SOL    HW1 6777   3.199   2.607   1.919
 2254SOL    HW2 6778   3.183   2.727   1.809
 2255SOL     OW 6779   2.930   3.195   2.711
 2255SOL    HW1 6780   2.937   3.111   2.656
 2255SOL    HW2 6781   2.992   3.264   2.675
 2256SOL     OW 6782   2.181   2.672   2.811
 2256SOL    HW1 6783   2.274   2.708   2.816
 2256SOL    HW2 6784   2.175   2.587   2.863
 2257SOL     OW 6785   2.201   2.371   2.868
 2257SOL    HW1 6786   2.149   2.288   2.851
 2257SOL    HW2 6787   2.278   2.376   2.804
 2258SOL     OW 6788   3.000   2.242   3.540
 2258SOL    HW1 6789   2.955   2.305   3.604
 2258SOL    HW2 6790   3.093   2.273   3.523
 2259SOL     OW 6791   3.022   2.069   3.339
 2259SOL    HW1 6792   3.022   2.133   3.416
 2259SOL    HW2 6793   3.050   2.117   3.256
 2260SOL     OW 6794   1.870   3.188   2.062
 2260SOL    HW1 6795   1.777   3.209   2.031
 2260SOL    HW2 6796   1.880   3.089   2.075
 2261SOL     OW 6797   1.950   3.663   2.789
 2261SOL    HW1 6798   1.908   3.577   2.762
 2261SOL    HW2 6799   2.044   3.666   2.755
 2262SOL     OW 6800   2.366   3.430   2.772
 2262SOL    HW1 6801   2.432   3.504   2.781
 2262SOL    HW2 6802   2.410   3.351   2.730
 2263SOL     OW 6803   2.864   2.658   3.100
 2263SOL    HW1 6804   2.905   2.626   3.186
 2263SOL    HW2 6805   2.768   2.631   3.097
 2264SOL     OW 6806   1.902   2.406   2.976
 2264SOL    HW1 6807   1.987   2.373   2.935
 2264SOL    HW2 6808   1.915   2.421   3.074
 2265SOL     OW 6809   2.051   2.382   3.584
 2265SOL    HW1 6810   2.110   2.342   3.514
 2265SOL    HW2 6811   1.993   2.453   3.543
 2266SOL     OW 6812   3.231   2.812   3.522
 2266SOL    HW1 6813   3.270   2.901   3.542
 2266SOL    HW2 6814   3.241   2.792   3.425
 2267SOL     OW 6815   3.519   2.466   3.068
 2267SOL    HW1 6816   3.481   2.397   3.130
 2267SOL    HW2 6817   3.601   2.430   3.024
 2268SOL     OW 6818   2.114   3.426   3.606
 2268SOL    HW1 6819   2.084   3.483   3.682
 2268SOL    HW2 6820   2.107   3.329   3.632
 2269SOL     OW 6821   2.533   2.326   3.131
 2269SOL    HW1 6822   2.499   2.237   3.101
 2269SOL    HW2 6823   2.559   2.380   3.051
 2270SOL     OW 6824   2.792   3.540   3.327
 2270SOL    HW1 6825   2.768   3.522   3.232
 2270SOL    HW2 6826   2.822   3.634   3.337
 2271SOL     OW 6827   2.335   2.362   2.053
 2271SOL    HW1 6828   2.396   2.442   2.057
 2271SOL    HW2 6829   2.240   2.393   2.060
 2272SOL     OW 6830   2.021   2.999   3.328
 2272SOL    HW1 6831   2.043   2.938   3.404
 2272SOL    HW2 6832   2.031   2.950   3.242
 2273SOL     OW 6833   3.209   2.921   3.096
 2273SOL    HW1 6834   3.233   2.858   3.022
 2273SOL    HW2 6835   3.119   2.961   3.078
 2274SOL     OW 6836   3.164   2.717   2.171
 2274SOL    HW1 6837   3.078   2.686   2.213
 2274SOL    HW2 6838   3.160   2.703   2.072
 2275SOL     OW 6839   3.621   3.609   3.016
 2275SOL    HW1 6840   3.682   3.639   2.943
 2275SOL    HW2 6841   3.583   3.520   2.994
 2276SOL     OW 6842   3.114   3.593   2.990
 2276SOL    HW1 6843   3.198   3.598   2.936
 2276SOL    HW2 6844   3.091   3.497   3.008
 2277SOL     OW 6845   1.945   3.120   2.884
 2277SOL    HW1 6846   1.940   3.119   2.984
 2277SOL    HW2 6847   1.862   3.079   2.846
 2278SOL     OW 6848   2.550   3.524   3.578
 2278SOL    HW1 6849   2.494   3.605   3.587
 2278SOL    HW2 6850   2.602   3.528   3.492
 2279SOL     OW 6851   3.588   1.997   2.385
 2279SOL    HW1 6852   3.661   1.980   2.318
 2279SOL    HW2 6853   3.557   1.910   2.423
 2280SOL     OW 6854   3.250   3.435   2.339
 2280SOL    HW1 6855   3.317   3.447   2.265
 2280SOL    HW2 6856   3.210   3.524   2.362
 2281SOL     OW 6857   1.992   3.656   3.713
 2281SOL    HW1 6858   1.951   3.582   3.766
 2281SOL    HW2 6859   2.056   3.707   3.771
 2282SOL     OW 6860   3.142   2.789   2.534
 2282SOL    HW1 6861   3.202   2.708   2.536
 2282SOL    HW2 6862   3.182   2.858   2.474
 2283SOL     OW 6863   2.692   3.135   3.284
 2283SOL    HW1 6864   2.687   3.168   3.379
 2283SOL    HW2 6865   2.606   3.154   3.238
 2284SOL     OW 6866   2.534   3.478   2.016
 2284SOL    HW1 6867   2.543   3.488   1.917
 2284SOL    HW2 6868   2.494   3.389   2.037
 2285SOL     OW 6869   3.512   3.582   3.256
 2285SOL    HW1 6870   3.565   3.592   3.172
 2285SOL    HW2 6871   3.485   3.672   3.290
 2286SOL     OW 6872   3.703   2.037   2.825
 2286SOL    HW1 6873   3.742   1.952   2.789
 2286SOL    HW2 6874   3.605   2.039   2.806
 2287SOL     OW 6875   3.056   3.474   1.893
 2287SOL    HW1 6876   3.062   3.381   1.930
 2287SOL    HW2 6877   2.997   3.474   1.813
 2288SOL     OW 6878   2.684   2.864   3.234
 2288SOL    HW1 6879   2.724   2.863   3.142
 2288SOL    HW2 6880   2.694   2.956   3.274
 2289SOL     OW 6881   2.778   2.772   2.153
 2289SOL    HW1 6882   2.841   2.810   2.085
 2289SOL    HW2 6883   2.818   2.689   2.192
 2290SOL     OW 6884   3.366   3.469   1.906
 2290SOL    HW1 6885   3.274   3.506   1.913
 2290SOL    HW2 6886   3.404   3.489   1.816
 2291SOL     OW 6887   2.234   3.150   3.352
 2291SOL    HW1 6888   2.221   3.243   3.318
 2291SOL    HW2 6889   2.150   3.098   3.339
 2292SOL     OW 6890   3.476   3.154   3.151
 2292SOL    HW1 6891   3.536   3.157   3.231
 2292SOL    HW2 6892   3.401   3.218   3.164
 2293SOL     OW 6893   2.901   2.960   2.558
 2293SOL    HW1 6894   2.831   2.913   2.612
 2293SOL    HW2 6895   2.960   2.892   2.515
 2294SOL     OW 6896   2.876   2.098   2.833
 2294SOL    HW1 6897   2.868   2.062   2.740
 2294SOL    HW2 6898   2.874   2.022   2.898
 2295SOL     OW 6899   2.452   3.349   2.353
 2295SOL    HW1 6900   2.494   3.291   2.283
 2295SOL    HW2 6901   2.408   3.428   2.309
 2296SOL     OW 6902   3.571   2.247   3.243
 2296SOL    HW1 6903   3.644   2.316   3.247
 2296SOL    HW2 6904   3.599   2.172   3.184
 2297SOL     OW 6905   2.117   3.210   2.152
 2297SOL    HW1 6906   2.021   3.211   2.125
 2297SOL    HW2 6907   2.129   3.263   2.236
 2298SOL     OW 6908   1.967   2.875   3.588
 2298SOL    HW1 6909   1.890   2.842   3.642
 2298SOL    HW2 6910   2.052   2.845   3.630
 2299SOL     OW 6911   2.534   2.065   3.351
 2299SOL    HW1 6912   2.624   2.049   3.311
 2299SOL    HW2 6913   2.542   2.070   3.450
 2300SOL     OW 6914   1.937   2.207   1.895
 2300SOL    HW1 6915   1.845   2.179   1.866
 2300SOL    HW2 6916   1.968   2.284   1.839
 2301SOL     OW 6917   3.302   2.718   3.260
 2301SOL    HW1 6918   3.245   2.770   3.197
 2301SOL    HW2 6919   3.398   2.730   3.236
 2302SOL     OW 6920   1.934   2.028   2.180
 2302SOL    HW1 6921   1.917   2.111   2.126
 2302SOL    HW2 6922   2.024   1.991   2.158
 2303SOL     OW 6923   3.045   3.197   1.981
 2303SOL    HW1 6924   2.946   3.186   1.983
 2303SOL    HW2 6925   3.079   3.212   2.074
 2304SOL     OW 6926   2.475   2.704   3.293
 2304SOL    HW1 6927   2.531   2.785   3.276
 2304SOL    HW2 6928   2.534   2.624   3.296
 2305SOL     OW 6929   3.355   3.629   2.821
 2305SOL    HW1 6930   3.388   3.693   2.752
 2305SOL    HW2 6931   3.421   3.623   2.896
 2306SOL     OW 6932   2.578   2.427   3.570
 2306SOL    HW1 6933   2.597   2.492   3.644
 2306SOL    HW2 6934   2.638   2.347   3.579
 2307SOL     OW 6935   3.312   3.082   3.495
 2307SOL    HW1 6936   3.303   3.072   3.594
 2307SOL    HW2 6937   3.408   3.075   3.469
 2308SOL     OW 6938   2.252   3.603   3.422
 2308SOL    HW1 6939   2.161   3.644   3.420
 2308SOL    HW2 6940   2.245   3.509   3.454
 2309SOL     OW 6941   3.536   2.745   3.116
 2309SOL    HW1 6942   3.509   2.656   3.079
 2309SOL    HW2 6943   3.537   2.813   3.043
 2310SOL     OW 6944   3.087   2.187   2.311
 2310SOL    HW1 6945   3.152   2.113   2.300
 2310SOL    HW2 6946   3.107   2.237   2.395
 2311SOL     OW 6947   3.639   2.204   3.504
 2311SOL    HW1 6948   3.622   2.235   3.410
 2311SOL    HW2 6949   3.555   2.167   3.542
 2312SOL     OW 6950   3.592   2.796   3.379
 2312SOL    HW1 6951   3.630   2.887   3.394
 2312SOL    HW2 6952   3.584   2.779   3.280
 2313SOL     OW 6953   2.721   3.236   1.878
 2313SOL    HW1 6954   2.675   3.251   1.966
 2313SOL    HW2 6955   2.765   3.321   1.848
 2314SOL     OW 6956   2.523   3.652   2.815
 2314SOL    HW1 6957   2.477   3.740   2.802
 2314SOL    HW2 6958   2.622   3.664   2.808
 2315SOL     OW 6959   2.721   2.818   2.723
 2315SOL    HW1 6960   2.775   2.749   2.771
 2315SOL    HW2 6961   2.689   2.887   2.789
 2316SOL     OW 6962   2.945   2.846   1.949
 2316SOL    HW1 6963   2.922   2.899   1.867
 2316SOL    HW2 6964   3.026   2.790   1.930
 2317SOL     OW 6965   3.723   3.431   2.713
 2317SOL    HW1 6966   3.652   3.419   2.643
 2317SOL    HW2 6967   3.724   3.352   2.773
 2318SOL     OW 6968   2.083   3.176   3.706
 2318SOL    HW1 6969   2.018   3.103   3.685
 2318SOL    HW2 6970   2.087   3.190   3.804
 2319SOL     OW 6971   1.941   3.102   2.515
 2319SOL    HW1 6972   1.940   3.055   2.603
 2319SOL    HW2 6973   2.023   3.074   2.464
 2320SOL     OW 6974   2.534   3.253   3.486
 2320SOL    HW1 6975   2.456   3.203   3.524
 2320SOL    HW2 6976   2.531   3.348   3.517
 2321SOL     OW 6977   3.686   2.054   3.089
 2321SOL    HW1 6978   3.682   1.964   3.133
 2321SOL    HW2 6979   3.689   2.043   2.990
 2322SOL     OW 6980   3.567   3.349   2.966
 2322SOL    HW1 6981   3.474   3.324   2.939
 2322SOL    HW2 6982   3.593   3.299   3.048
 2323SOL     OW 6983   2.179   2.409   3.142
 2323SOL    HW1 6984   2.217   2.350   3.214
 2323SOL    HW2 6985   2.219   2.383   3.054
 2324SOL     OW 6986   2.674   3.448   2.549
 2324SOL    HW1 6987   2.706   3.458   2.455
 2324SOL    HW2 6988   2.595   3.386   2.551
 2325SOL     OW 6989   3.286   2.076   2.974
 2325SOL    HW1 6990   3.338   2.011   3.029
 2325SOL    HW2 6991   3.237   2.139   3.035
 2326SOL     OW 6992   2.863   1.896   3.016
 2326SOL    HW1 6993   2.800   1.824   2.985
 2326SOL    HW2 6994   2.956   1.860   3.016
 2327SOL     OW 6995   2.632   3.192   2.163
 2327SOL    HW1 6996   2.586   3.105   2.180
 2327SOL    HW2 6997   2.723   3.189   2.204
 2328SOL     OW 6998   2.480   3.429   3.146
 2328SOL    HW1 6999   2.475   3.511   3.203
 2328SOL    HW2 7000   2.569   3.426   3.101
 2329SOL     OW 7001   3.214   1.914   2.030
 2329SOL    HW1 7002   3.249   1.873   1.946
 2329SOL    HW2 7003   3.124   1.876   2.050
 2330SOL     OW 7004   3.162   2.315   2.553
 2330SOL    HW1 7005   3.103   2.395   2.557
 2330SOL    HW2 7006   3.177   2.280   2.646
 2331SOL     OW 7007   3.455   2.083   2.744
 2331SOL    HW1 7008   3.371   2.082   2.798
 2331SOL    HW2 7009   3.457   2.166   2.688
 2332SOL     OW 7010   1.901   2.939   2.162
 2332SOL    HW1 7011   2.000   2.928   2.153
 2332SOL    HW2 7012   1.861   2.853   2.194
 2333SOL     OW 7013   2.737   3.508   2.199
 2333SOL    HW1 7014   2.660   3.473   2.145
 2333SOL    HW2 7015   2.705   3.579   2.261
 2334SOL     OW 7016   2.092   2.490   3.837
 2334SOL    HW1 7017   1.999   2.488   3.874
 2334SOL    HW2 7018   2.093   2.451   3.745
 2335SOL     OW 7019   2.087   2.137   4.720
 2335SOL    HW1 7020   2.122   2.120   4.812
 2335SOL    HW2 7021   1.999   2.092   4.708
 2336SOL     OW 7022   1.881   2.230   4.371
 2336SOL    HW1 7023   1.799   2.273   4.410
 2336SOL    HW2 7024   1.853   2.157   4.308
 2337SOL     OW 7025   3.417   3.373   4.427
 2337SOL    HW1 7026   3.360   3.357   4.508
 2337SOL    HW2 7027   3.358   3.383   4.347
 2338SOL     OW 7028   2.997   2.565   4.441
 2338SOL    HW1 7029   3.054   2.643   4.416
 2338SOL    HW2 7030   2.937   2.591   4.517
 2339SOL     OW 7031   3.617   2.469   3.955
 2339SOL    HW1 7032   3.605   2.456   3.856
 2339SOL    HW2 7033   3.587   2.388   4.004
 2340SOL     OW 7034   2.630   3.006   4.747
 2340SOL    HW1 7035   2.552   3.023   4.807
 2340SOL    HW2 7036   2.664   3.093   4.711
 2341SOL     OW 7037   2.547   2.874   4.389
 2341SOL    HW1 7038   2.616   2.858   4.459
 2341SOL    HW2 7039   2.474   2.931   4.427
 2342SOL     OW 7040   3.465   2.309   4.461
 2342SOL    HW1 7041   3.391   2.355   4.411
 2342SOL    HW2 7042   3.516   2.377   4.514
 2343SOL     OW 7043   2.093   3.575   4.207
 2343SOL    HW1 7044   2.127   3.652   4.261
 2343SOL    HW2 7045   2.137   3.575   4.117
 2344SOL     OW 7046   2.092   3.296   4.262
 2344SOL    HW1 7047   2.066   3.392   4.262
 2344SOL    HW2 7048   2.021   3.242   4.307
 2345SOL     OW 7049   2.102   2.953   4.610
 2345SOL    HW1 7050   2.116   2.869   4.662
 2345SOL    HW2 7051   2.047   3.017   4.665
 2346SOL     OW 7052   2.468   2.826   3.847
 2346SOL    HW1 7053   2.475   2.910   3.793
 2346SOL    HW2 7054   2.514   2.839   3.935
 2347SOL     OW 7055   1.984   2.505   4.287
 2347SOL    HW1 7056   1.939   2.417   4.304
 2347SOL    HW2 7057   1.983   2.559   4.371
 2348SOL     OW 7058   3.704   3.629   4.083
 2348SOL    HW1 7059   3.758   3.600   4.163
 2348SOL    HW2 7060   3.734   3.719   4.054
 2349SOL     OW 7061   1.889   3.458   3.841
 2349SOL    HW1 7062   1.870   3.362   3.862
 2349SOL    HW2 7063   1.856   3.516   3.916
 2350SOL     OW 7064   3.551   2.784   4.336
 2350SOL    HW1 7065   3.646   2.755   4.344
 2350SOL    HW2 7066   3.543   2.849   4.261
 2351SOL     OW 7067   3.503   2.970   4.156
 2351SOL    HW1 7068   3.589   2.972   4.104
 2351SOL    HW2 7069   3.517   3.017   4.244
 2352SOL     OW 7070   2.475   3.227   4.450
 2352SOL    HW1 7071   2.426   3.140   4.459
 2352SOL    HW2 7072   2.452   3.270   4.363
 2353SOL     OW 7073   2.671   1.866   4.226
 2353SOL    HW1 7074   2.711   1.957   4.217
 2353SOL    HW2 7075   2.571   1.874   4.232
 2354SOL     OW 7076   3.387   2.861   3.914
 2354SOL    HW1 7077   3.324   2.785   3.927
 2354SOL    HW2 7078   3.435   2.879   4.000
 2355SOL     OW 7079   3.328   3.279   4.677
 2355SOL    HW1 7080   3.269   3.285   4.757
 2355SOL    HW2 7081   3.313   3.191   4.631
 2356SOL     OW 7082   3.529   3.576   4.296
 2356SOL    HW1 7083   3.488   3.553   4.208
 2356SOL    HW2 7084   3.511   3.502   4.361
 2357SOL     OW 7085   2.460   2.591   3.994
 2357SOL    HW1 7086   2.484   2.660   3.926
 2357SOL    HW2 7087   2.382   2.624   4.048
 2358SOL     OW 7088   3.143   2.207   4.668
 2358SOL    HW1 7089   3.057   2.157   4.655
 2358SOL    HW2 7090   3.205   2.153   4.724
 2359SOL     OW 7091   3.438   3.524   4.031
 2359SOL    HW1 7092   3.527   3.570   4.034
 2359SOL    HW2 7093   3.417   3.500   3.936
 2360SOL     OW 7094   2.903   2.563   4.153
 2360SOL    HW1 7095   2.929   2.559   4.249
 2360SOL    HW2 7096   2.818   2.512   4.139
 2361SOL     OW 7097   1.938   2.673   4.513
 2361SOL    HW1 7098   2.037   2.661   4.522
 2361SOL    HW2 7099   1.914   2.768   4.534
 2362SOL     OW 7100   2.727   2.210   3.919
 2362SOL    HW1 7101   2.786   2.273   3.870
 2362SOL    HW2 7102   2.746   2.116   3.890
 2363SOL     OW 7103   3.224   3.006   4.269
 2363SOL    HW1 7104   3.307   2.977   4.221
 2363SOL    HW2 7105   3.175   3.073   4.213
 2364SOL     OW 7106   2.870   3.318   4.201
 2364SOL    HW1 7107   2.824   3.390   4.149
 2364SOL    HW2 7108   2.866   3.338   4.299
 2365SOL     OW 7109   2.213   3.663   4.577
 2365SOL    HW1 7110   2.263   3.577   4.583
 2365SOL    HW2 7111   2.278   3.740   4.574
 2366SOL     OW 7112   3.657   2.928   4.597
 2366SOL    HW1 7113   3.595   2.913   4.521
 2366SOL    HW2 7114   3.605   2.939   4.682
 2367SOL     OW 7115   2.183   2.805   3.966
 2367SOL    HW1 7116   2.265   2.844   3.924
 2367SOL    HW2 7117   2.156   2.723   3.917
 2368SOL     OW 7118   3.320   2.597   4.452
 2368SOL    HW1 7119   3.315   2.532   4.527
 2368SOL    HW2 7120   3.400   2.656   4.465
 2369SOL     OW 7121   2.973   3.638   3.961
 2369SOL    HW1 7122   2.913   3.576   4.011
 2369SOL    HW2 7123   3.004   3.594   3.876
 2370SOL     OW 7124   3.494   3.239   3.805
 2370SOL    HW1 7125   3.462   3.333   3.795
 2370SOL    HW2 7126   3.418   3.176   3.793
 2371SOL     OW 7127   2.326   3.605   4.047
 2371SOL    HW1 7128   2.359   3.644   4.133
 2371SOL    HW2 7129   2.402   3.598   3.982
 2372SOL     OW 7130   3.262   1.969   4.150
 2372SOL    HW1 7131   3.238   1.932   4.060
 2372SOL    HW2 7132   3.361   1.985   4.154
 2373SOL     OW 7133   2.111   3.647   4.965
 2373SOL    HW1 7134   2.168   3.582   5.015
 2373SOL    HW2 7135   2.095   3.614   4.872
 2374SOL     OW 7136   2.244   2.562   4.204
 2374SOL    HW1 7137   2.289   2.472   4.201
 2374SOL    HW2 7138   2.150   2.551   4.237
 2375SOL     OW 7139   2.476   1.984   3.841
 2375SOL    HW1 7140   2.574   1.962   3.848
 2375SOL    HW2 7141   2.445   1.967   3.748
 2376SOL     OW 7142   2.784   2.365   4.623
 2376SOL    HW1 7143   2.759   2.356   4.527
 2376SOL    HW2 7144   2.832   2.283   4.654
 2377SOL     OW 7145   2.401   1.926   4.236
 2377SOL    HW1 7146   2.320   1.927   4.294
 2377SOL    HW2 7147   2.404   2.009   4.181
 2378SOL     OW 7148   3.296   3.050   3.765
 2378SOL    HW1 7149   3.328   2.974   3.822
 2378SOL    HW2 7150   3.204   3.077   3.795
 2379SOL     OW 7151   2.159   1.897   3.895
 2379SOL    HW1 7152   2.208   1.981   3.874
 2379SOL    HW2 7153   2.221   1.832   3.940
 2380SOL     OW 7154   2.797   2.098   4.204
 2380SOL    HW1 7155   2.749   2.139   4.126
 2380SOL    HW2 7156   2.896   2.096   4.185
 2381SOL     OW 7157   3.089   3.432   4.517
 2381SOL    HW1 7158   3.110   3.506   4.452
 2381SOL    HW2 7159   3.157   3.432   4.590
 2382SOL     OW 7160   2.321   3.014   4.465
 2382SOL    HW1 7161   2.250   2.987   4.530
 2382SOL    HW2 7162   2.295   2.986   4.372
 2383SOL     OW 7163   3.133   3.659   4.315
 2383SOL    HW1 7164   3.177   3.723   4.251
 2383SOL    HW2 7165   3.083   3.711   4.385
 2384SOL     OW 7166   2.894   2.411   3.740
 2384SOL    HW1 7167   2.853   2.493   3.701
 2384SOL    HW2 7168   2.958   2.437   3.813
 2385SOL     OW 7169   2.728   2.316   4.366
 2385SOL    HW1 7170   2.696   2.388   4.304
 2385SOL    HW2 7171   2.752   2.235   4.313
 2386SOL     OW 7172   2.879   1.901   4.477
 2386SOL    HW1 7173   2.807   1.906   4.408
 2386SOL    HW2 7174   2.855   1.832   4.546
 2387SOL     OW 7175   3.291   3.035   4.591
 2387SOL    HW1 7176   3.236   2.951   4.584
 2387SOL    HW2 7177   3.317   3.064   4.499
 2388SOL     OW 7178   3.719   2.695   4.101
 2388SOL    HW1 7179   3.761   2.631   4.165
 2388SOL    HW2 7180   3.681   2.644   4.023
 2389SOL     OW 7181   2.350   3.247   3.898
 2389SOL    HW1 7182   2.263   3.232   3.945
 2389SOL    HW2 7183   2.333   3.273   3.803
 2390SOL     OW 7184   3.526   3.142   4.381
 2390SOL    HW1 7185   3.625   3.150   4.395
 2390SOL    HW2 7186   3.481   3.226   4.412
 2391SOL     OW 7187   3.252   2.437   3.802
 2391SOL    HW1 7188   3.198   2.416   3.883
 2391SOL    HW2 7189   3.343   2.396   3.811
 2392SOL     OW 7190   2.389   2.118   4.052
 2392SOL    HW1 7191   2.416   2.059   3.977
 2392SOL    HW2 7192   2.389   2.213   4.021
 2393SOL     OW 7193   3.500   2.961   4.803
 2393SOL    HW1 7194   3.505   3.042   4.862
 2393SOL    HW2 7195   3.414   2.963   4.752
 2394SOL     OW 7196   2.567   2.912   4.092
 2394SOL    HW1 7197   2.553   2.919   4.191
 2394SOL    HW2 7198   2.651   2.861   4.074
 2395SOL     OW 7199   2.229   2.962   4.225
 2395SOL    HW1 7200   2.222   3.045   4.169
 2395SOL    HW2 7201   2.233   2.882   4.165
 2396SOL     OW 7202   2.428   2.399   4.589
 2396SOL    HW1 7203   2.440   2.465   4.515
 2396SOL    HW2 7204   2.474   2.433   4.672
 2397SOL     OW 7205   3.114   3.210   4.112
 2397SOL    HW1 7206   3.164   3.287   4.152
 2397SOL    HW2 7207   3.019   3.212   4.144
 2398SOL     OW 7208   3.444   2.501   4.196
 2398SOL    HW1 7209   3.413   2.562   4.269
 2398SOL    HW2 7210   3.494   2.553   4.127
 2399SOL     OW 7211   3.071   2.387   3.999
 2399SOL    HW1 7212   3.084   2.303   4.053
 2399SOL    HW2 7213   3.042   2.461   4.059
 2400SOL     OW 7214   2.169   2.075   4.955
 2400SOL    HW1 7215   2.146   2.112   5.045
 2400SOL    HW2 7216   2.139   1.980   4.949
 2401SOL     OW 7217   2.594   2.496   4.788
 2401SOL    HW1 7218   2.653   2.470   4.712
 2401SOL    HW2 7219   2.566   2.592   4.777
 2402SOL     OW 7220   2.169   1.925   4.342
 2402SOL    HW1 7221   2.158   2.019   4.375
 2402SOL    HW2 7222   2.164   1.862   4.419
 2403SOL     OW 7223   3.484   2.229   4.098
 2403SOL    HW1 7224   3.486   2.153   4.162
 2403SOL    HW2 7225   3.436   2.306   4.138
 2404SOL     OW 7226   3.402   2.136   3.849
 2404SOL    HW1 7227   3.341   2.061   3.872
 2404SOL    HW2 7228   3.424   2.188   3.932
 2405SOL     OW 7229   3.165   2.700   3.766
 2405SOL    HW1 7230   3.199   2.607   3.781
 2405SOL    HW2 7231   3.183   2.727   3.671
 2406SOL     OW 7232   2.930   3.195   4.573
 2406SOL    HW1 7233   2.937   3.111   4.518
 2406SOL    HW2 7234   2.992   3.264   4.537
 2407SOL     OW 7235   2.181   2.672   4.673
 2407SOL    HW1 7236   2.274   2.708   4.678
 2407SOL    HW2 7237   2.175   2.587   4.725
 2408SOL     OW 7238   1.870   3.188   3.924
 2408SOL    HW1 7239   1.777   3.209   3.893
 2408SOL    HW2 7240   1.880   3.089   3.937
 2409SOL     OW 7241   1.950   3.663   4.651
 2409SOL    HW1 7242   1.908   3.577   4.624
 2409SOL    HW2 7243   2.044   3.666   4.617
 2410SOL     OW 7244   2.366   3.430   4.634
 2410SOL    HW1 7245   2.432   3.504   4.643
 2410SOL    HW2 7246   2.410   3.351   4.592
 2411SOL     OW 7247   2.677   2.434   4.049
 2411SOL    HW1 7248   2.684   2.345   4.003
 2411SOL    HW2 7249   2.583   2.468   4.041
 2412SOL     OW 7250   2.533   2.326   4.993
 2412SOL    HW1 7251   2.499   2.237   4.963
 2412SOL    HW2 7252   2.559   2.380   4.913
 2413SOL     OW 7253   2.335   2.362   3.915
 2413SOL    HW1 7254   2.396   2.442   3.919
 2413SOL    HW2 7255   2.240   2.393   3.922
 2414SOL     OW 7256   3.209   2.921   4.958
 2414SOL    HW1 7257   3.233   2.858   4.884
 2414SOL    HW2 7258   3.119   2.961   4.940
 2415SOL     OW 7259   3.164   2.717   4.033
 2415SOL    HW1 7260   3.078   2.686   4.075
 2415SOL    HW2 7261   3.160   2.703   3.934
 2416SOL     OW 7262   3.621   3.609   4.878
 2416SOL    HW1 7263   3.682   3.639   4.805
 2416SOL    HW2 7264   3.583   3.520   4.856
 2417SOL     OW 7265   3.588   1.997   4.247
 2417SOL    HW1 7266   3.661   1.980   4.180
 2417SOL    HW2 7267   3.557   1.910   4.285
 2418SOL     OW 7268   3.250   3.435   4.201
 2418SOL    HW1 7269   3.317   3.447   4.127
 2418SOL    HW2 7270   3.210   3.524   4.224
 2419SOL     OW 7271   3.142   2.789   4.396
 2419SOL    HW1 7272   3.202   2.708   4.398
 2419SOL    HW2 7273   3.182   2.858   4.336
 2420SOL     OW 7274   2.534   3.478   3.878
 2420SOL    HW1 7275   2.543   3.488   3.779
 2420SOL    HW2 7276   2.494   3.389   3.899
 2421SOL     OW 7277   3.703   2.037   4.687
 2421SOL    HW1 7278   3.742   1.952   4.651
 2421SOL    HW2 7279   3.605   2.039   4.668
 2422SOL     OW 7280   2.125   2.188   4.444
 2422SOL    HW1 7281   2.046   2.239   4.410
 2422SOL    HW2 7282   2.116   2.173   4.542
 2423SOL     OW 7283   3.056   3.474   3.755
 2423SOL    HW1 7284   3.062   3.381   3.792
 2423SOL    HW2 7285   2.997   3.474   3.675
 2424SOL     OW 7286   2.778   2.772   4.015
 2424SOL    HW1 7287   2.841   2.810   3.947
 2424SOL    HW2 7288   2.818   2.689   4.054
 2425SOL     OW 7289   3.366   3.469   3.768
 2425SOL    HW1 7290   3.274   3.506   3.775
 2425SOL    HW2 7291   3.404   3.489   3.678
 2426SOL     OW 7292   3.476   3.154   5.013
 2426SOL    HW1 7293   3.536   3.157   5.093
 2426SOL    HW2 7294   3.401   3.218   5.026
 2427SOL     OW 7295   2.901   2.960   4.420
 2427SOL    HW1 7296   2.831   2.913   4.474
 2427SOL    HW2 7297   2.960   2.892   4.377
 2428SOL     OW 7298   2.452   3.349   4.215
 2428SOL    HW1 7299   2.494   3.291   4.145
 2428SOL    HW2 7300   2.408   3.428   4.171
 2429SOL     OW 7301   2.117   3.210   4.014
 2429SOL    HW1 7302   2.021   3.211   3.987
 2429SOL    HW2 7303   2.129   3.263   4.098
 2430SOL     OW 7304   1.937   2.207   3.757
 2430SOL    HW1 7305   1.845   2.179   3.728
 2430SOL    HW2 7306   1.968   2.284   3.701
 2431SOL     OW 7307   1.934   2.028   4.042
 2431SOL    HW1 7308   1.917   2.111   3.988
 2431SOL    HW2 7309   2.024   1.991   4.020
 2432SOL     OW 7310   3.045   3.197   3.843
 2432SOL    HW1 7311   2.946   3.186   3.845
 2432SOL    HW2 7312   3.079   3.212   3.936
 2433SOL     OW 7313   3.536   2.745   4.978
 2433SOL    HW1 7314   3.509   2.656   4.941
 2433SOL    HW2 7315   3.537   2.813   4.905
 2434SOL     OW 7316   3.087   2.187   4.173
 2434SOL    HW1 7317   3.152   2.113   4.162
 2434SOL    HW2 7318   3.107   2.237   4.257
 2435SOL     OW 7319   2.456   2.607   4.376
 2435SOL    HW1 7320   2.506   2.692   4.357
 2435SOL    HW2 7321   2.368   2.609   4.328
 2436SOL     OW 7322   2.721   3.236   3.740
 2436SOL    HW1 7323   2.675   3.251   3.828
 2436SOL    HW2 7324   2.765   3.321   3.710
 2437SOL     OW 7325   2.523   3.652   4.677
 2437SOL    HW1 7326   2.477   3.740   4.664
 2437SOL    HW2 7327   2.622   3.664   4.670
 2438SOL     OW 7328   2.721   2.818   4.585
 2438SOL    HW1 7329   2.775   2.749   4.633
 2438SOL    HW2 7330   2.689   2.887   4.651
 2439SOL     OW 7331   2.945   2.846   3.811
 2439SOL    HW1 7332   2.922   2.899   3.729
 2439SOL    HW2 7333   3.026   2.790   3.792
 2440SOL     OW 7334   3.723   3.431   4.575
 2440SOL    HW1 7335   3.652   3.419   4.505
 2440SOL    HW2 7336   3.724   3.352   4.635
 2441SOL     OW 7337   1.941   3.102   4.377
 2441SOL    HW1 7338   1.940   3.055   4.465
 2441SOL    HW2 7339   2.023   3.074   4.326
 2442SOL     OW 7340   3.686   2.054   4.951
 2442SOL    HW1 7341   3.682   1.964   4.995
 2442SOL    HW2 7342   3.689   2.043   4.852
 2443SOL     OW 7343   2.290   2.286   4.244
 2443SOL    HW1 7344   2.320   2.214   4.182
 2443SOL    HW2 7345   2.251   2.246   4.327
 2444SOL     OW 7346   2.674   3.448   4.411
 2444SOL    HW1 7347   2.706   3.458   4.317
 2444SOL    HW2 7348   2.595   3.386   4.413
 2445SOL     OW 7349   2.632   3.192   4.025
 2445SOL    HW1 7350   2.586   3.105   4.042
 2445SOL    HW2 7351   2.723   3.189   4.066
 2446SOL     OW 7352   3.214   1.914   3.892
 2446SOL    HW1 7353   3.249   1.873   3.808
 2446SOL    HW2 7354   3.124   1.876   3.912
 2447SOL     OW 7355   3.162   2.315   4.415
 2447SOL    HW1 7356   3.103   2.395   4.419
 2447SOL    HW2 7357   3.177   2.280   4.508
 2448SOL     OW 7358   3.455   2.083   4.606
 2448SOL    HW1 7359   3.371   2.082   4.660
 2448SOL    HW2 7360   3.457   2.166   4.550
 2449SOL     OW 7361   1.901   2.939   4.024
 2449SOL    HW1 7362   2.000   2.928   4.015
 2449SOL    HW2 7363   1.861   2.853   4.056
 2450SOL     OW 7364   2.737   3.508   4.061
 2450SOL    HW1 7365   2.660   3.473   4.007
 2450SOL    HW2 7366   2.705   3.579   4.123
 2451SOL     OW 7367   2.092   4.352   0.113
 2451SOL    HW1 7368   1.999   4.350   0.150
 2451SOL    HW2 7369   2.093   4.313   0.021
 2452SOL     OW 7370   2.087   3.999   0.996
 2452SOL    HW1 7371   2.122   3.982   1.088
 2452SOL    HW2 7372   1.999   3.954   0.984
 2453SOL     OW 7373   1.881   4.092   0.647
 2453SOL    HW1 7374   1.799   4.135   0.686
 2453SOL    HW2 7375   1.853   4.019   0.584
 2454SOL     OW 7376   2.997   4.427   0.717
 2454SOL    HW1 7377   3.054   4.505   0.692
 2454SOL    HW2 7378   2.937   4.453   0.793
 2455SOL     OW 7379   3.617   4.331   0.231
 2455SOL    HW1 7380   3.605   4.318   0.132
 2455SOL    HW2 7381   3.587   4.250   0.280
 2456SOL     OW 7382   2.630   4.868   1.023
 2456SOL    HW1 7383   2.552   4.885   1.083
 2456SOL    HW2 7384   2.664   4.955   0.987
 2457SOL     OW 7385   2.712   4.522   1.823
 2457SOL    HW1 7386   2.708   4.598   1.888
 2457SOL    HW2 7387   2.734   4.558   1.732
 2458SOL     OW 7388   2.547   4.736   0.665
 2458SOL    HW1 7389   2.616   4.720   0.735
 2458SOL    HW2 7390   2.474   4.793   0.703
 2459SOL     OW 7391   2.300   4.116   1.499
 2459SOL    HW1 7392   2.382   4.060   1.508
 2459SOL    HW2 7393   2.219   4.058   1.503
 2460SOL     OW 7394   3.465   4.171   0.737
 2460SOL    HW1 7395   3.391   4.217   0.687
 2460SOL    HW2 7396   3.516   4.239   0.790
 2461SOL     OW 7397   3.456   3.838   1.480
 2461SOL    HW1 7398   3.438   3.905   1.408
 2461SOL    HW2 7399   3.453   3.884   1.569
 2462SOL     OW 7400   1.984   4.367   0.563
 2462SOL    HW1 7401   1.939   4.279   0.580
 2462SOL    HW2 7402   1.983   4.421   0.647
 2463SOL     OW 7403   1.975   4.461   1.597
 2463SOL    HW1 7404   2.063   4.448   1.642
 2463SOL    HW2 7405   1.962   4.558   1.575
 2464SOL     OW 7406   2.671   3.728   0.502
 2464SOL    HW1 7407   2.711   3.819   0.493
 2464SOL    HW2 7408   2.571   3.736   0.508
 2465SOL     OW 7409   2.059   4.700   1.264
 2465SOL    HW1 7410   2.148   4.655   1.250
 2465SOL    HW2 7411   1.986   4.635   1.245
 2466SOL     OW 7412   3.387   4.723   0.190
 2466SOL    HW1 7413   3.324   4.647   0.203
 2466SOL    HW2 7414   3.435   4.741   0.276
 2467SOL     OW 7415   2.179   3.975   1.801
 2467SOL    HW1 7416   2.250   4.046   1.807
 2467SOL    HW2 7417   2.091   4.014   1.829
 2468SOL     OW 7418   2.460   4.453   0.270
 2468SOL    HW1 7419   2.484   4.522   0.202
 2468SOL    HW2 7420   2.382   4.486   0.324
 2469SOL     OW 7421   3.143   4.069   0.944
 2469SOL    HW1 7422   3.057   4.019   0.931
 2469SOL    HW2 7423   3.205   4.015   1.000
 2470SOL     OW 7424   2.669   4.329   1.465
 2470SOL    HW1 7425   2.622   4.326   1.554
 2470SOL    HW2 7426   2.618   4.274   1.399
 2471SOL     OW 7427   3.256   4.193   1.674
 2471SOL    HW1 7428   3.236   4.236   1.762
 2471SOL    HW2 7429   3.334   4.131   1.683
 2472SOL     OW 7430   2.835   4.614   1.572
 2472SOL    HW1 7431   2.881   4.530   1.543
 2472SOL    HW2 7432   2.779   4.648   1.497
 2473SOL     OW 7433   2.853   4.134   1.242
 2473SOL    HW1 7434   2.776   4.168   1.296
 2473SOL    HW2 7435   2.819   4.083   1.163
 2474SOL     OW 7436   2.903   4.425   0.429
 2474SOL    HW1 7437   2.929   4.421   0.525
 2474SOL    HW2 7438   2.818   4.374   0.415
 2475SOL     OW 7439   1.938   4.535   0.789
 2475SOL    HW1 7440   2.037   4.523   0.798
 2475SOL    HW2 7441   1.914   4.630   0.810
 2476SOL     OW 7442   2.727   4.072   0.195
 2476SOL    HW1 7443   2.786   4.135   0.146
 2476SOL    HW2 7444   2.746   3.978   0.166
 2477SOL     OW 7445   3.581   4.309   1.831
 2477SOL    HW1 7446   3.555   4.398   1.795
 2477SOL    HW2 7447   3.579   4.241   1.758
 2478SOL     OW 7448   2.412   3.920   0.885
 2478SOL    HW1 7449   2.407   3.915   0.985
 2478SOL    HW2 7450   2.414   4.016   0.856
 2479SOL     OW 7451   3.320   4.459   0.728
 2479SOL    HW1 7452   3.315   4.394   0.803
 2479SOL    HW2 7453   3.400   4.518   0.741
 2480SOL     OW 7454   2.064   4.009   1.498
 2480SOL    HW1 7455   1.984   4.069   1.485
 2480SOL    HW2 7456   2.054   3.960   1.584
 2481SOL     OW 7457   3.262   3.831   0.426
 2481SOL    HW1 7458   3.238   3.794   0.336
 2481SOL    HW2 7459   3.361   3.847   0.430
 2482SOL     OW 7460   2.244   4.424   0.480
 2482SOL    HW1 7461   2.289   4.334   0.477
 2482SOL    HW2 7462   2.150   4.413   0.513
 2483SOL     OW 7463   3.409   3.946   1.729
 2483SOL    HW1 7464   3.404   3.983   1.821
 2483SOL    HW2 7465   3.337   3.877   1.717
 2484SOL     OW 7466   2.476   3.846   0.117
 2484SOL    HW1 7467   2.574   3.824   0.124
 2484SOL    HW2 7468   2.445   3.829   0.024
 2485SOL     OW 7469   2.643   3.988   1.749
 2485SOL    HW1 7470   2.710   3.927   1.792
 2485SOL    HW2 7471   2.570   4.007   1.814
 2486SOL     OW 7472   3.213   4.314   1.433
 2486SOL    HW1 7473   3.241   4.271   1.518
 2486SOL    HW2 7474   3.238   4.410   1.434
 2487SOL     OW 7475   2.784   4.227   0.899
 2487SOL    HW1 7476   2.759   4.218   0.803
 2487SOL    HW2 7477   2.832   4.145   0.930
 2488SOL     OW 7478   2.401   3.788   0.512
 2488SOL    HW1 7479   2.320   3.789   0.570
 2488SOL    HW2 7480   2.404   3.871   0.457
 2489SOL     OW 7481   2.797   3.960   0.480
 2489SOL    HW1 7482   2.749   4.001   0.402
 2489SOL    HW2 7483   2.896   3.958   0.461
 2490SOL     OW 7484   2.938   4.407   1.464
 2490SOL    HW1 7485   2.858   4.346   1.467
 2490SOL    HW2 7486   3.019   4.354   1.440
 2491SOL     OW 7487   2.894   4.273   0.016
 2491SOL    HW1 7488   2.853   4.355  -0.023
 2491SOL    HW2 7489   2.958   4.299   0.089
 2492SOL     OW 7490   1.940   4.280   1.386
 2492SOL    HW1 7491   2.032   4.279   1.345
 2492SOL    HW2 7492   1.934   4.354   1.453
 2493SOL     OW 7493   2.423   3.946   1.147
 2493SOL    HW1 7494   2.461   3.862   1.184
 2493SOL    HW2 7495   2.335   3.965   1.191
 2494SOL     OW 7496   2.728   4.178   0.642
 2494SOL    HW1 7497   2.696   4.250   0.580
 2494SOL    HW2 7498   2.752   4.097   0.589
 2495SOL     OW 7499   2.879   3.763   0.753
 2495SOL    HW1 7500   2.807   3.768   0.684
 2495SOL    HW2 7501   2.855   3.694   0.822
 2496SOL     OW 7502   3.328   4.314   0.992
 2496SOL    HW1 7503   3.298   4.219   0.999
 2496SOL    HW2 7504   3.401   4.330   1.058
 2497SOL     OW 7505   3.719   4.557   0.377
 2497SOL    HW1 7506   3.761   4.493   0.441
 2497SOL    HW2 7507   3.681   4.506   0.299
 2498SOL     OW 7508   3.252   4.299   0.078
 2498SOL    HW1 7509   3.198   4.278   0.159
 2498SOL    HW2 7510   3.343   4.258   0.087
 2499SOL     OW 7511   2.389   3.980   0.328
 2499SOL    HW1 7512   2.416   3.921   0.253
 2499SOL    HW2 7513   2.389   4.075   0.297
 2500SOL     OW 7514   3.500   4.823   1.079
 2500SOL    HW1 7515   3.505   4.904   1.138
 2500SOL    HW2 7516   3.414   4.825   1.028
 2501SOL     OW 7517   2.777   3.813   1.402
 2501SOL    HW1 7518   2.802   3.793   1.307
 2501SOL    HW2 7519   2.849   3.869   1.444
 2502SOL     OW 7520   2.272   4.537   1.251
 2502SOL    HW1 7521   2.358   4.549   1.301
 2502SOL    HW2 7522   2.230   4.450   1.278
 2503SOL     OW 7523   3.136   4.110   1.262
 2503SOL    HW1 7524   3.157   4.184   1.326
 2503SOL    HW2 7525   3.047   4.127   1.219
 2504SOL     OW 7526   2.428   4.261   0.865
 2504SOL    HW1 7527   2.440   4.327   0.791
 2504SOL    HW2 7528   2.474   4.295   0.948
 2505SOL     OW 7529   3.444   4.363   0.472
 2505SOL    HW1 7530   3.413   4.424   0.545
 2505SOL    HW2 7531   3.494   4.415   0.403
 2506SOL     OW 7532   2.264   4.475   1.598
 2506SOL    HW1 7533   2.332   4.530   1.551
 2506SOL    HW2 7534   2.304   4.387   1.625
 2507SOL     OW 7535   3.449   4.503   1.670
 2507SOL    HW1 7536   3.357   4.541   1.665
 2507SOL    HW2 7537   3.509   4.550   1.605
 2508SOL     OW 7538   2.875   3.829   1.770
 2508SOL    HW1 7539   2.881   3.914   1.718
 2508SOL    HW2 7540   2.907   3.753   1.713
 2509SOL     OW 7541   2.366   3.774   1.740
 2509SOL    HW1 7542   2.324   3.717   1.670
 2509SOL    HW2 7543   2.300   3.843   1.772
 2510SOL     OW 7544   2.435   4.594   1.029
 2510SOL    HW1 7545   2.479   4.683   1.020
 2510SOL    HW2 7546   2.372   4.594   1.106
 2511SOL     OW 7547   3.222   4.586   1.045
 2511SOL    HW1 7548   3.147   4.586   0.979
 2511SOL    HW2 7549   3.259   4.494   1.054
 2512SOL     OW 7550   3.071   4.249   0.275
 2512SOL    HW1 7551   3.084   4.165   0.329
 2512SOL    HW2 7552   3.042   4.323   0.335
 2513SOL     OW 7553   2.169   3.937   1.231
 2513SOL    HW1 7554   2.146   3.974   1.321
 2513SOL    HW2 7555   2.139   3.842   1.225
 2514SOL     OW 7556   2.594   4.358   1.064
 2514SOL    HW1 7557   2.653   4.332   0.988
 2514SOL    HW2 7558   2.566   4.454   1.053
 2515SOL     OW 7559   3.590   4.659   1.854
 2515SOL    HW1 7560   3.544   4.652   1.765
 2515SOL    HW2 7561   3.528   4.703   1.920
 2516SOL     OW 7562   2.169   3.787   0.618
 2516SOL    HW1 7563   2.158   3.881   0.651
 2516SOL    HW2 7564   2.164   3.724   0.695
 2517SOL     OW 7565   3.484   4.091   0.374
 2517SOL    HW1 7566   3.486   4.015   0.438
 2517SOL    HW2 7567   3.436   4.168   0.414
 2518SOL     OW 7568   2.885   4.490   0.966
 2518SOL    HW1 7569   2.900   4.511   1.062
 2518SOL    HW2 7570   2.855   4.395   0.957
 2519SOL     OW 7571   2.212   4.622   1.804
 2519SOL    HW1 7572   2.288   4.666   1.852
 2519SOL    HW2 7573   2.247   4.575   1.722
 2520SOL     OW 7574   3.402   3.998   0.125
 2520SOL    HW1 7575   3.341   3.923   0.148
 2520SOL    HW2 7576   3.424   4.050   0.208
 2521SOL     OW 7577   3.165   4.562   0.042
 2521SOL    HW1 7578   3.199   4.469   0.057
 2521SOL    HW2 7579   3.183   4.589  -0.053
 2522SOL     OW 7580   2.181   4.534   0.949
 2522SOL    HW1 7581   2.274   4.570   0.954
 2522SOL    HW2 7582   2.175   4.449   1.001
 2523SOL     OW 7583   2.201   4.233   1.006
 2523SOL    HW1 7584   2.149   4.150   0.989
 2523SOL    HW2 7585   2.278   4.238   0.942
 2524SOL     OW 7586   3.000   4.104   1.678
 2524SOL    HW1 7587   2.955   4.167   1.742
 2524SOL    HW2 7588   3.093   4.135   1.661
 2525SOL     OW 7589   3.022   3.931   1.477
 2525SOL    HW1 7590   3.022   3.995   1.554
 2525SOL    HW2 7591   3.050   3.979   1.394
 2526SOL     OW 7592   2.864   4.520   1.238
 2526SOL    HW1 7593   2.905   4.488   1.324
 2526SOL    HW2 7594   2.768   4.493   1.235
 2527SOL     OW 7595   1.902   4.268   1.114
 2527SOL    HW1 7596   1.987   4.235   1.073
 2527SOL    HW2 7597   1.915   4.283   1.212
 2528SOL     OW 7598   2.051   4.244   1.722
 2528SOL    HW1 7599   2.110   4.204   1.652
 2528SOL    HW2 7600   1.993   4.315   1.681
 2529SOL     OW 7601   3.231   4.674   1.660
 2529SOL    HW1 7602   3.270   4.763   1.680
 2529SOL    HW2 7603   3.241   4.654   1.563
 2530SOL     OW 7604   2.677   4.296   0.325
 2530SOL    HW1 7605   2.684   4.207   0.279
 2530SOL    HW2 7606   2.583   4.330   0.317
 2531SOL     OW 7607   3.519   4.328   1.206
 2531SOL    HW1 7608   3.481   4.259   1.268
 2531SOL    HW2 7609   3.601   4.292   1.162
 2532SOL     OW 7610   2.533   4.188   1.269
 2532SOL    HW1 7611   2.499   4.099   1.239
 2532SOL    HW2 7612   2.559   4.242   1.189
 2533SOL     OW 7613   2.335   4.224   0.191
 2533SOL    HW1 7614   2.396   4.304   0.195
 2533SOL    HW2 7615   2.240   4.255   0.198
 2534SOL     OW 7616   2.021   4.861   1.466
 2534SOL    HW1 7617   2.043   4.800   1.542
 2534SOL    HW2 7618   2.031   4.812   1.380
 2535SOL     OW 7619   3.209   4.783   1.234
 2535SOL    HW1 7620   3.233   4.720   1.160
 2535SOL    HW2 7621   3.119   4.823   1.216
 2536SOL     OW 7622   3.164   4.579   0.309
 2536SOL    HW1 7623   3.078   4.548   0.351
 2536SOL    HW2 7624   3.160   4.565   0.210
 2537SOL     OW 7625   2.765   3.810   0.133
 2537SOL    HW1 7626   2.816   3.811   0.047
 2537SOL    HW2 7627   2.821   3.768   0.204
 2538SOL     OW 7628   3.588   3.859   0.523
 2538SOL    HW1 7629   3.661   3.842   0.456
 2538SOL    HW2 7630   3.557   3.772   0.561
 2539SOL     OW 7631   3.142   4.651   0.672
 2539SOL    HW1 7632   3.202   4.570   0.674
 2539SOL    HW2 7633   3.182   4.720   0.612
 2540SOL     OW 7634   3.703   3.899   0.963
 2540SOL    HW1 7635   3.742   3.814   0.927
 2540SOL    HW2 7636   3.605   3.901   0.944
 2541SOL     OW 7637   2.125   4.050   0.720
 2541SOL    HW1 7638   2.046   4.101   0.686
 2541SOL    HW2 7639   2.116   4.035   0.818
 2542SOL     OW 7640   2.778   4.634   0.291
 2542SOL    HW1 7641   2.841   4.672   0.223
 2542SOL    HW2 7642   2.818   4.551   0.330
 2543SOL     OW 7643   2.876   3.960   0.971
 2543SOL    HW1 7644   2.868   3.924   0.878
 2543SOL    HW2 7645   2.874   3.884   1.036
 2544SOL     OW 7646   3.571   4.109   1.381
 2544SOL    HW1 7647   3.644   4.178   1.385
 2544SOL    HW2 7648   3.599   4.034   1.322
 2545SOL     OW 7649   1.967   4.737   1.726
 2545SOL    HW1 7650   1.890   4.704   1.780
 2545SOL    HW2 7651   2.052   4.707   1.768
 2546SOL     OW 7652   2.534   3.927   1.489
 2546SOL    HW1 7653   2.624   3.911   1.449
 2546SOL    HW2 7654   2.542   3.932   1.588
 2547SOL     OW 7655   1.937   4.069   0.033
 2547SOL    HW1 7656   1.845   4.041   0.004
 2547SOL    HW2 7657   1.968   4.146  -0.023
 2548SOL     OW 7658   3.302   4.580   1.398
 2548SOL    HW1 7659   3.245   4.632   1.335
 2548SOL    HW2 7660   3.398   4.592   1.374
 2549SOL     OW 7661   2.475   4.566   1.431
 2549SOL    HW1 7662   2.531   4.647   1.414
 2549SOL    HW2 7663   2.534   4.486   1.434
 2550SOL     OW 7664   2.578   4.289   1.708
 2550SOL    HW1 7665   2.597   4.354   1.782
 2550SOL    HW2 7666   2.638   4.209   1.717
 2551SOL     OW 7667   3.536   4.607   1.254
 2551SOL    HW1 7668   3.509   4.518   1.217
 2551SOL    HW2 7669   3.537   4.675   1.181
 2552SOL     OW 7670   3.087   4.049   0.449
 2552SOL    HW1 7671   3.152   3.975   0.438
 2552SOL    HW2 7672   3.107   4.099   0.533
 2553SOL     OW 7673   2.456   4.469   0.652
 2553SOL    HW1 7674   2.506   4.554   0.633
 2553SOL    HW2 7675   2.368   4.471   0.604
 2554SOL     OW 7676   3.639   4.066   1.642
 2554SOL    HW1 7677   3.622   4.097   1.548
 2554SOL    HW2 7678   3.555   4.029   1.680
 2555SOL     OW 7679   3.592   4.658   1.517
 2555SOL    HW1 7680   3.630   4.749   1.532
 2555SOL    HW2 7681   3.584   4.641   1.418
 2556SOL     OW 7682   2.945   4.708   0.087
 2556SOL    HW1 7683   2.922   4.761   0.005
 2556SOL    HW2 7684   3.026   4.652   0.068
 2557SOL     OW 7685   3.686   3.916   1.227
 2557SOL    HW1 7686   3.682   3.826   1.271
 2557SOL    HW2 7687   3.689   3.905   1.128
 2558SOL     OW 7688   2.290   4.148   0.520
 2558SOL    HW1 7689   2.320   4.076   0.458
 2558SOL    HW2 7690   2.251   4.108   0.603
 2559SOL     OW 7691   2.179   4.271   1.280
 2559SOL    HW1 7692   2.217   4.212   1.352
 2559SOL    HW2 7693   2.219   4.245   1.192
 2560SOL     OW 7694   3.286   3.938   1.112
 2560SOL    HW1 7695   3.338   3.873   1.167
 2560SOL    HW2 7696   3.237   4.001   1.173
 2561SOL     OW 7697   2.863   3.758   1.154
 2561SOL    HW1 7698   2.800   3.686   1.123
 2561SOL    HW2 7699   2.956   3.722   1.154
 2562SOL     OW 7700   3.214   3.776   0.168
 2562SOL    HW1 7701   3.249   3.735   0.084
 2562SOL    HW2 7702   3.124   3.738   0.188
 2563SOL     OW 7703   3.162   4.177   0.691
 2563SOL    HW1 7704   3.103   4.257   0.695
 2563SOL    HW2 7705   3.177   4.142   0.784
 2564SOL     OW 7706   3.455   3.945   0.882
 2564SOL    HW1 7707   3.371   3.944   0.936
 2564SOL    HW2 7708   3.457   4.028   0.826
 2565SOL     OW 7709   2.092   4.352   1.975
 2565SOL    HW1 7710   1.999   4.350   2.012
 2565SOL    HW2 7711   2.093   4.313   1.883
 2566SOL     OW 7712   2.087   3.999   2.858
 2566SOL    HW1 7713   2.122   3.982   2.950
 2566SOL    HW2 7714   1.999   3.954   2.846
 2567SOL     OW 7715   1.881   4.092   2.509
 2567SOL    HW1 7716   1.799   4.135   2.548
 2567SOL    HW2 7717   1.853   4.019   2.446
 2568SOL     OW 7718   2.997   4.427   2.579
 2568SOL    HW1 7719   3.054   4.505   2.554
 2568SOL    HW2 7720   2.937   4.453   2.655
 2569SOL     OW 7721   3.617   4.331   2.093
 2569SOL    HW1 7722   3.605   4.318   1.994
 2569SOL    HW2 7723   3.587   4.250   2.142
 2570SOL     OW 7724   2.630   4.868   2.885
 2570SOL    HW1 7725   2.552   4.885   2.945
 2570SOL    HW2 7726   2.664   4.955   2.849
 2571SOL     OW 7727   2.712   4.522   3.685
 2571SOL    HW1 7728   2.708   4.598   3.750
 2571SOL    HW2 7729   2.734   4.558   3.594
 2572SOL     OW 7730   2.547   4.736   2.527
 2572SOL    HW1 7731   2.616   4.720   2.597
 2572SOL    HW2 7732   2.474   4.793   2.565
 2573SOL     OW 7733   2.300   4.116   3.361
 2573SOL    HW1 7734   2.382   4.060   3.370
 2573SOL    HW2 7735   2.219   4.058   3.365
 2574SOL     OW 7736   3.465   4.171   2.599
 2574SOL    HW1 7737   3.391   4.217   2.549
 2574SOL    HW2 7738   3.516   4.239   2.652
 2575SOL     OW 7739   3.456   3.838   3.342
 2575SOL    HW1 7740   3.438   3.905   3.270
 2575SOL    HW2 7741   3.453   3.884   3.431
 2576SOL     OW 7742   1.984   4.367   2.425
 2576SOL    HW1 7743   1.939   4.279   2.442
 2576SOL    HW2 7744   1.983   4.421   2.509
 2577SOL     OW 7745   1.975   4.461   3.459
 2577SOL    HW1 7746   2.063   4.448   3.504
 2577SOL    HW2 7747   1.962   4.558   3.437
 2578SOL     OW 7748   2.671   3.728   2.364
 2578SOL    HW1 7749   2.711   3.819   2.355
 2578SOL    HW2 7750   2.571   3.736   2.370
 2579SOL     OW 7751   2.059   4.700   3.126
 2579SOL    HW1 7752   2.148   4.655   3.112
 2579SOL    HW2 7753   1.986   4.635   3.107
 2580SOL     OW 7754   3.387   4.723   2.052
 2580SOL    HW1 7755   3.324   4.647   2.065
 2580SOL    HW2 7756   3.435   4.741   2.138
 2581SOL     OW 7757   2.179   3.975   3.663
 2581SOL    HW1 7758   2.250   4.046   3.669
 2581SOL    HW2 7759   2.091   4.014   3.691
 2582SOL     OW 7760   2.460   4.453   2.132
 2582SOL    HW1 7761   2.484   4.522   2.064
 2582SOL    HW2 7762   2.382   4.486   2.186
 2583SOL     OW 7763   3.143   4.069   2.806
 2583SOL    HW1 7764   3.057   4.019   2.793
 2583SOL    HW2 7765   3.205   4.015   2.862
 2584SOL     OW 7766   2.669   4.329   3.327
 2584SOL    HW1 7767   2.622   4.326   3.416
 2584SOL    HW2 7768   2.618   4.274   3.261
 2585SOL     OW 7769   3.256   4.193   3.536
 2585SOL    HW1 7770   3.236   4.236   3.624
 2585SOL    HW2 7771   3.334   4.131   3.545
 2586SOL     OW 7772   2.835   4.614   3.434
 2586SOL    HW1 7773   2.881   4.530   3.405
 2586SOL    HW2 7774   2.779   4.648   3.359
 2587SOL     OW 7775   2.853   4.134   3.104
 2587SOL    HW1 7776   2.776   4.168   3.158
 2587SOL    HW2 7777   2.819   4.083   3.025
 2588SOL     OW 7778   2.903   4.425   2.291
 2588SOL    HW1 7779   2.929   4.421   2.387
 2588SOL    HW2 7780   2.818   4.374   2.277
 2589SOL     OW 7781   1.938   4.535   2.651
 2589SOL    HW1 7782   2.037   4.523   2.660
 2589SOL    HW2 7783   1.914   4.630   2.672
 2590SOL     OW 7784   2.727   4.072   2.057
 2590SOL    HW1 7785   2.786   4.135   2.008
 2590SOL    HW2 7786   2.746   3.978   2.028
 2591SOL     OW 7787   3.581   4.309   3.693
 2591SOL    HW1 7788   3.555   4.398   3.657
 2591SOL    HW2 7789   3.579   4.241   3.620
 2592SOL     OW 7790   2.412   3.920   2.747
 2592SOL    HW1 7791   2.407   3.915   2.847
 2592SOL    HW2 7792   2.414   4.016   2.718
 2593SOL     OW 7793   3.320   4.459   2.590
 2593SOL    HW1 7794   3.315   4.394   2.665
 2593SOL    HW2 7795   3.400   4.518   2.603
 2594SOL     OW 7796   2.064   4.009   3.360
 2594SOL    HW1 7797   1.984   4.069   3.347
 2594SOL    HW2 7798   2.054   3.960   3.446
 2595SOL     OW 7799   3.262   3.831   2.288
 2595SOL    HW1 7800   3.238   3.794   2.198
 2595SOL    HW2 7801   3.361   3.847   2.292
 2596SOL     OW 7802   2.244   4.424   2.342
 2596SOL    HW1 7803   2.289   4.334   2.339
 2596SOL    HW2 7804   2.150   4.413   2.375
 2597SOL     OW 7805   3.409   3.946   3.591
 2597SOL    HW1 7806   3.404   3.983   3.683
 2597SOL    HW2 7807   3.337   3.877   3.579
 2598SOL     OW 7808   2.476   3.846   1.979
 2598SOL    HW1 7809   2.574   3.824   1.986
 2598SOL    HW2 7810   2.445   3.829   1.886
 2599SOL     OW 7811   2.643   3.988   3.611
 2599SOL    HW1 7812   2.710   3.927   3.654
 2599SOL    HW2 7813   2.570   4.007   3.676
 2600SOL     OW 7814   3.213   4.314   3.295
 2600SOL    HW1 7815   3.241   4.271   3.380
 2600SOL    HW2 7816   3.238   4.410   3.296
 2601SOL     OW 7817   2.784   4.227   2.761
 2601SOL    HW1 7818   2.759   4.218   2.665
 2601SOL    HW2 7819   2.832   4.145   2.792
 2602SOL     OW 7820   2.401   3.788   2.374
 2602SOL    HW1 7821   2.320   3.789   2.432
 2602SOL    HW2 7822   2.404   3.871   2.319
 2603SOL     OW 7823   2.159   3.759   2.033
 2603SOL    HW1 7824   2.208   3.843   2.012
 2603SOL    HW2 7825   2.221   3.694   2.078
 2604SOL     OW 7826   2.797   3.960   2.342
 2604SOL    HW1 7827   2.749   4.001   2.264
 2604SOL    HW2 7828   2.896   3.958   2.323
 2605SOL     OW 7829   2.938   4.407   3.326
 2605SOL    HW1 7830   2.858   4.346   3.329
 2605SOL    HW2 7831   3.019   4.354   3.302
 2606SOL     OW 7832   2.894   4.273   1.878
 2606SOL    HW1 7833   2.853   4.355   1.839
 2606SOL    HW2 7834   2.958   4.299   1.951
 2607SOL     OW 7835   1.940   4.280   3.248
 2607SOL    HW1 7836   2.032   4.279   3.207
 2607SOL    HW2 7837   1.934   4.354   3.315
 2608SOL     OW 7838   2.423   3.946   3.009
 2608SOL    HW1 7839   2.461   3.862   3.046
 2608SOL    HW2 7840   2.335   3.965   3.053
 2609SOL     OW 7841   2.728   4.178   2.504
 2609SOL    HW1 7842   2.696   4.250   2.442
 2609SOL    HW2 7843   2.752   4.097   2.451
 2610SOL     OW 7844   2.879   3.763   2.615
 2610SOL    HW1 7845   2.807   3.768   2.546
 2610SOL    HW2 7846   2.855   3.694   2.684
 2611SOL     OW 7847   3.328   4.314   2.854
 2611SOL    HW1 7848   3.298   4.219   2.861
 2611SOL    HW2 7849   3.401   4.330   2.920
 2612SOL     OW 7850   3.719   4.557   2.239
 2612SOL    HW1 7851   3.761   4.493   2.303
 2612SOL    HW2 7852   3.681   4.506   2.161
 2613SOL     OW 7853   3.252   4.299   1.940
 2613SOL    HW1 7854   3.198   4.278   2.021
 2613SOL    HW2 7855   3.343   4.258   1.949
 2614SOL     OW 7856   2.389   3.980   2.190
 2614SOL    HW1 7857   2.416   3.921   2.115
 2614SOL    HW2 7858   2.389   4.075   2.159
 2615SOL     OW 7859   3.500   4.823   2.941
 2615SOL    HW1 7860   3.505   4.904   3.000
 2615SOL    HW2 7861   3.414   4.825   2.890
 2616SOL     OW 7862   2.777   3.813   3.264
 2616SOL    HW1 7863   2.802   3.793   3.169
 2616SOL    HW2 7864   2.849   3.869   3.306
 2617SOL     OW 7865   2.272   4.537   3.113
 2617SOL    HW1 7866   2.358   4.549   3.163
 2617SOL    HW2 7867   2.230   4.450   3.140
 2618SOL     OW 7868   3.136   4.110   3.124
 2618SOL    HW1 7869   3.157   4.184   3.188
 2618SOL    HW2 7870   3.047   4.127   3.081
 2619SOL     OW 7871   2.428   4.261   2.727
 2619SOL    HW1 7872   2.440   4.327   2.653
 2619SOL    HW2 7873   2.474   4.295   2.810
 2620SOL     OW 7874   3.444   4.363   2.334
 2620SOL    HW1 7875   3.413   4.424   2.407
 2620SOL    HW2 7876   3.494   4.415   2.265
 2621SOL     OW 7877   2.264   4.475   3.460
 2621SOL    HW1 7878   2.332   4.530   3.413
 2621SOL    HW2 7879   2.304   4.387   3.487
 2622SOL     OW 7880   3.449   4.503   3.532
 2622SOL    HW1 7881   3.357   4.541   3.527
 2622SOL    HW2 7882   3.509   4.550   3.467
 2623SOL     OW 7883   2.875   3.829   3.632
 2623SOL    HW1 7884   2.881   3.914   3.580
 2623SOL    HW2 7885   2.907   3.753   3.575
 2624SOL     OW 7886   2.366   3.774   3.602
 2624SOL    HW1 7887   2.324   3.717   3.532
 2624SOL    HW2 7888   2.300   3.843   3.634
 2625SOL     OW 7889   2.435   4.594   2.891
 2625SOL    HW1 7890   2.479   4.683   2.882
 2625SOL    HW2 7891   2.372   4.594   2.968
 2626SOL     OW 7892   3.222   4.586   2.907
 2626SOL    HW1 7893   3.147   4.586   2.841
 2626SOL    HW2 7894   3.259   4.494   2.916
 2627SOL     OW 7895   3.071   4.249   2.137
 2627SOL    HW1 7896   3.084   4.165   2.191
 2627SOL    HW2 7897   3.042   4.323   2.197
 2628SOL     OW 7898   2.169   3.937   3.093
 2628SOL    HW1 7899   2.146   3.974   3.183
 2628SOL    HW2 7900   2.139   3.842   3.087
 2629SOL     OW 7901   2.594   4.358   2.926
 2629SOL    HW1 7902   2.653   4.332   2.850
 2629SOL    HW2 7903   2.566   4.454   2.915
 2630SOL     OW 7904   3.590   4.659   3.716
 2630SOL    HW1 7905   3.544   4.652   3.627
 2630SOL    HW2 7906   3.528   4.703   3.782
 2631SOL     OW 7907   2.169   3.787   2.480
 2631SOL    HW1 7908   2.158   3.881   2.513
 2631SOL    HW2 7909   2.164   3.724   2.557
 2632SOL     OW 7910   3.484   4.091   2.236
 2632SOL    HW1 7911   3.486   4.015   2.300
 2632SOL    HW2 7912   3.436   4.168   2.276
 2633SOL     OW 7913   2.885   4.490   2.828
 2633SOL    HW1 7914   2.900   4.511   2.924
 2633SOL    HW2 7915   2.855   4.395   2.819
 2634SOL     OW 7916   2.212   4.622   3.666
 2634SOL    HW1 7917   2.288   4.666   3.714
 2634SOL    HW2 7918   2.247   4.575   3.584
 2635SOL     OW 7919   3.402   3.998   1.987
 2635SOL    HW1 7920   3.341   3.923   2.010
 2635SOL    HW2 7921   3.424   4.050   2.070
 2636SOL     OW 7922   3.165   4.562   1.904
 2636SOL    HW1 7923   3.199   4.469   1.919
 2636SOL    HW2 7924   3.183   4.589   1.809
 2637SOL     OW 7925   2.181   4.534   2.811
 2637SOL    HW1 7926   2.274   4.570   2.816
 2637SOL    HW2 7927   2.175   4.449   2.863
 2638SOL     OW 7928   2.201   4.233   2.868
 2638SOL    HW1 7929   2.149   4.150   2.851
 2638SOL    HW2 7930   2.278   4.238   2.804
 2639SOL     OW 7931   3.000   4.104   3.540
 2639SOL    HW1 7932   2.955   4.167   3.604
 2639SOL    HW2 7933   3.093   4.135   3.523
 2640SOL     OW 7934   3.022   3.931   3.339
 2640SOL    HW1 7935   3.022   3.995   3.416
 2640SOL    HW2 7936   3.050   3.979   3.256
 2641SOL     OW 7937   2.864   4.520   3.100
 2641SOL    HW1 7938   2.905   4.488   3.186
 2641SOL    HW2 7939   2.768   4.493   3.097
 2642SOL     OW 7940   1.902   4.268   2.976
 2642SOL    HW1 7941   1.987   4.235   2.935
 2642SOL    HW2 7942   1.915   4.283   3.074
 2643SOL     OW 7943   2.051   4.244   3.584
 2643SOL    HW1 7944   2.110   4.204   3.514
 2643SOL    HW2 7945   1.993   4.315   3.543
 2644SOL     OW 7946   3.231   4.674   3.522
 2644SOL    HW1 7947   3.270   4.763   3.542
 2644SOL    HW2 7948   3.241   4.654   3.425
 2645SOL     OW 7949   2.677   4.296   2.187
 2645SOL    HW1 7950   2.684   4.207   2.141
 2645SOL    HW2 7951   2.583   4.330   2.179
 2646SOL     OW 7952   3.519   4.328   3.068
 2646SOL    HW1 7953   3.481   4.259   3.130
 2646SOL    HW2 7954   3.601   4.292   3.024
 2647SOL     OW 7955   2.533   4.188   3.131
 2647SOL    HW1 7956   2.499   4.099   3.101
 2647SOL    HW2 7957   2.559   4.242   3.051
 2648SOL     OW 7958   2.335   4.224   2.053
 2648SOL    HW1 7959   2.396   4.304   2.057
 2648SOL    HW2 7960   2.240   4.255   2.060
 2649SOL     OW 7961   2.021   4.861   3.328
 2649SOL    HW1 7962   2.043   4.800   3.404
 2649SOL    HW2 7963   2.031   4.812   3.242
 2650SOL     OW 7964   3.209   4.783   3.096
 2650SOL    HW1 7965   3.233   4.720   3.022
 2650SOL    HW2 7966   3.119   4.823   3.078
 2651SOL     OW 7967   3.164   4.579   2.171
 2651SOL    HW1 7968   3.078   4.548   2.213
 2651SOL    HW2 7969   3.160   4.565   2.072
 2652SOL     OW 7970   3.588   3.859   2.385
 2652SOL    HW1 7971   3.661   3.842   2.318
 2652SOL    HW2 7972   3.557   3.772   2.423
 2653SOL     OW 7973   3.142   4.651   2.534
 2653SOL    HW1 7974   3.202   4.570   2.536
 2653SOL    HW2 7975   3.182   4.720   2.474
 2654SOL     OW 7976   3.703   3.899   2.825
 2654SOL    HW1 7977   3.742   3.814   2.789
 2654SOL    HW2 7978   3.605   3.901   2.806
 2655SOL     OW 7979   2.125   4.050   2.582
 2655SOL    HW1 7980   2.046   4.101   2.548
 2655SOL    HW2 7981   2.116   4.035   2.680
 2656SOL     OW 7982   2.778   4.634   2.153
 2656SOL    HW1 7983   2.841   4.672   2.085
 2656SOL    HW2 7984   2.818   4.551   2.192
 2657SOL     OW 7985   2.876   3.960   2.833
 2657SOL    HW1 7986   2.868   3.924   2.740
 2657SOL    HW2 7987   2.874   3.884   2.898
 2658SOL     OW 7988   3.571   4.109   3.243
 2658SOL    HW1 7989   3.644   4.178   3.247
 2658SOL    HW2 7990   3.599   4.034   3.184
 2659SOL     OW 7991   1.967   4.737   3.588
 2659SOL    HW1 7992   1.890   4.704   3.642
 2659SOL    HW2 7993   2.052   4.707   3.630
 2660SOL     OW 7994   2.534   3.927   3.351
 2660SOL    HW1 7995   2.624   3.911   3.311
 2660SOL    HW2 7996   2.542   3.932   3.450
 2661SOL     OW 7997   1.937   4.069   1.895
 2661SOL    HW1 7998   1.845   4.041   1.866
 2661SOL    HW2 7999   1.968   4.146   1.839
 2662SOL     OW 8000   3.302   4.580   3.260
 2662SOL    HW1 8001   3.245   4.632   3.197
 2662SOL    HW2 8002   3.398   4.592   3.236
 2663SOL     OW 8003   1.934   3.890   2.180
 2663SOL    HW1 8004   1.917   3.973   2.126
 2663SOL    HW2 8005   2.024   3.853   2.158
 2664SOL     OW 8006   2.475   4.566   3.293
 2664SOL    HW1 8007   2.531   4.647   3.276
 2664SOL    HW2 8008   2.534   4.486   3.296
 2665SOL     OW 8009   2.578   4.289   3.570
 2665SOL    HW1 8010   2.597   4.354   3.644
 2665SOL    HW2 8011   2.638   4.209   3.579
 2666SOL     OW 8012   3.536   4.607   3.116
 2666SOL    HW1 8013   3.509   4.518   3.079
 2666SOL    HW2 8014   3.537   4.675   3.043
 2667SOL     OW 8015   3.087   4.049   2.311
 2667SOL    HW1 8016   3.152   3.975   2.300
 2667SOL    HW2 8017   3.107   4.099   2.395
 2668SOL     OW 8018   2.456   4.469   2.514
 2668SOL    HW1 8019   2.506   4.554   2.495
 2668SOL    HW2 8020   2.368   4.471   2.466
 2669SOL     OW 8021   3.639   4.066   3.504
 2669SOL    HW1 8022   3.622   4.097   3.410
 2669SOL    HW2 8023   3.555   4.029   3.542
 2670SOL     OW 8024   3.592   4.658   3.379
 2670SOL    HW1 8025   3.630   4.749   3.394
 2670SOL    HW2 8026   3.584   4.641   3.280
 2671SOL     OW 8027   3.686   3.916   3.089
 2671SOL    HW1 8028   3.682   3.826   3.133
 2671SOL    HW2 8029   3.689   3.905   2.990
 2672SOL     OW 8030   2.290   4.148   2.382
 2672SOL    HW1 8031   2.320   4.076   2.320
 2672SOL    HW2 8032   2.251   4.108   2.465
 2673SOL     OW 8033   2.179   4.271   3.142
 2673SOL    HW1 8034   2.217   4.212   3.214
 2673SOL    HW2 8035   2.219   4.245   3.054
 2674SOL     OW 8036   3.286   3.938   2.974
 2674SOL    HW1 8037   3.338   3.873   3.029
 2674SOL    HW2 8038   3.237   4.001   3.035
 2675SOL     OW 8039   2.863   3.758   3.016
 2675SOL    HW1 8040   2.800   3.686   2.985
 2675SOL    HW2 8041   2.956   3.722   3.016
 2676SOL     OW 8042   3.214   3.776   2.030
 2676SOL    HW1 8043   3.249   3.735   1.946
 2676SOL    HW2 8044   3.124   3.738   2.050
 2677SOL     OW 8045   3.162   4.177   2.553
 2677SOL    HW1 8046   3.103   4.257   2.557
 2677SOL    HW2 8047   3.177   4.142   2.646
 2678SOL     OW 8048   3.455   3.945   2.744
 2678SOL    HW1 8049   3.371   3.944   2.798
 2678SOL    HW2 8050   3.457   4.028   2.688
 2679SOL     OW 8051   2.092   4.352   3.837
 2679SOL    HW1 8052   1.999   4.350   3.874
 2679SOL    HW2 8053   2.093   4.313   3.745
 2680SOL     OW 8054   2.087   3.999   4.720
 2680SOL    HW1 8055   2.122   3.982   4.812
 2680SOL    HW2 8056   1.999   3.954   4.708
 2681SOL     OW 8057   1.881   4.092   4.371
 2681SOL    HW1 8058   1.799   4.135   4.410
 2681SOL    HW2 8059   1.853   4.019   4.308
 2682SOL     OW 8060   2.997   4.427   4.441
 2682SOL    HW1 8061   3.054   4.505   4.416
 2682SOL    HW2 8062   2.937   4.453   4.517
 2683SOL     OW 8063   3.617   4.331   3.955
 2683SOL    HW1 8064   3.605   4.318   3.856
 2683SOL    HW2 8065   3.587   4.250   4.004
 2684SOL     OW 8066   2.547   4.736   4.389
 2684SOL    HW1 8067   2.616   4.720   4.459
 2684SOL    HW2 8068   2.474   4.793   4.427
 2685SOL     OW 8069   3.465   4.171   4.461
 2685SOL    HW1 8070   3.391   4.217   4.411
 2685SOL    HW2 8071   3.516   4.239   4.514
 2686SOL     OW 8072   1.984   4.367   4.287
 2686SOL    HW1 8073   1.939   4.279   4.304
 2686SOL    HW2 8074   1.983   4.421   4.371
 2687SOL     OW 8075   2.475   5.089   4.450
 2687SOL    HW1 8076   2.426   5.002   4.459
 2687SOL    HW2 8077   2.452   5.132   4.363
 2688SOL     OW 8078   2.671   3.728   4.226
 2688SOL    HW1 8079   2.711   3.819   4.217
 2688SOL    HW2 8080   2.571   3.736   4.232
 2689SOL     OW 8081   3.387   4.723   3.914
 2689SOL    HW1 8082   3.324   4.647   3.927
 2689SOL    HW2 8083   3.435   4.741   4.000
 2690SOL     OW 8084   2.460   4.453   3.994
 2690SOL    HW1 8085   2.484   4.522   3.926
 2690SOL    HW2 8086   2.382   4.486   4.048
 2691SOL     OW 8087   3.143   4.069   4.668
 2691SOL    HW1 8088   3.057   4.019   4.655
 2691SOL    HW2 8089   3.205   4.015   4.724
 2692SOL     OW 8090   2.903   4.425   4.153
 2692SOL    HW1 8091   2.929   4.421   4.249
 2692SOL    HW2 8092   2.818   4.374   4.139
 2693SOL     OW 8093   1.938   4.535   4.513
 2693SOL    HW1 8094   2.037   4.523   4.522
 2693SOL    HW2 8095   1.914   4.630   4.534
 2694SOL     OW 8096   2.727   4.072   3.919
 2694SOL    HW1 8097   2.786   4.135   3.870
 2694SOL    HW2 8098   2.746   3.978   3.890
 2695SOL     OW 8099   3.320   4.459   4.452
 2695SOL    HW1 8100   3.315   4.394   4.527
 2695SOL    HW2 8101   3.400   4.518   4.465
 2696SOL     OW 8102   3.262   3.831   4.150
 2696SOL    HW1 8103   3.238   3.794   4.060
 2696SOL    HW2 8104   3.361   3.847   4.154
 2697SOL     OW 8105   2.244   4.424   4.204
 2697SOL    HW1 8106   2.289   4.334   4.201
 2697SOL    HW2 8107   2.150   4.413   4.237
 2698SOL     OW 8108   2.476   3.846   3.841
 2698SOL    HW1 8109   2.574   3.824   3.848
 2698SOL    HW2 8110   2.445   3.829   3.748
 2699SOL     OW 8111   2.784   4.227   4.623
 2699SOL    HW1 8112   2.759   4.218   4.527
 2699SOL    HW2 8113   2.832   4.145   4.654
 2700SOL     OW 8114   2.401   3.788   4.236
 2700SOL    HW1 8115   2.320   3.789   4.294
 2700SOL    HW2 8116   2.404   3.871   4.181
 2701SOL     OW 8117   2.159   3.759   3.895
 2701SOL    HW1 8118   2.208   3.843   3.874
 2701SOL    HW2 8119   2.221   3.694   3.940
 2702SOL     OW 8120   2.797   3.960   4.204
 2702SOL    HW1 8121   2.749   4.001   4.126
 2702SOL    HW2 8122   2.896   3.958   4.185
 2703SOL     OW 8123   2.894   4.273   3.740
 2703SOL    HW1 8124   2.853   4.355   3.701
 2703SOL    HW2 8125   2.958   4.299   3.813
 2704SOL     OW 8126   2.728   4.178   4.366
 2704SOL    HW1 8127   2.696   4.250   4.304
 2704SOL    HW2 8128   2.752   4.097   4.313
 2705SOL     OW 8129   2.879   3.763   4.477
 2705SOL    HW1 8130   2.807   3.768   4.408
 2705SOL    HW2 8131   2.855   3.694   4.546
 2706SOL     OW 8132   3.719   4.557   4.101
 2706SOL    HW1 8133   3.761   4.493   4.165
 2706SOL    HW2 8134   3.681   4.506   4.023
 2707SOL     OW 8135   3.252   4.299   3.802
 2707SOL    HW1 8136   3.198   4.278   3.883
 2707SOL    HW2 8137   3.343   4.258   3.811
 2708SOL     OW 8138   2.389   3.980   4.052
 2708SOL    HW1 8139   2.416   3.921   3.977
 2708SOL    HW2 8140   2.389   4.075   4.021
 2709SOL     OW 8141   2.973   4.919   4.824
 2709SOL    HW1 8142   2.933   4.963   4.905
 2709SOL    HW2 8143   2.932   4.956   4.741
 2710SOL     OW 8144   3.500   4.823   4.803
 2710SOL    HW1 8145   3.505   4.904   4.862
 2710SOL    HW2 8146   3.414   4.825   4.752
 2711SOL     OW 8147   2.428   4.261   4.589
 2711SOL    HW1 8148   2.440   4.327   4.515
 2711SOL    HW2 8149   2.474   4.295   4.672
 2712SOL     OW 8150   3.444   4.363   4.196
 2712SOL    HW1 8151   3.413   4.424   4.269
 2712SOL    HW2 8152   3.494   4.415   4.127
 2713SOL     OW 8153   2.435   4.594   4.753
 2713SOL    HW1 8154   2.479   4.683   4.744
 2713SOL    HW2 8155   2.372   4.594   4.830
 2714SOL     OW 8156   3.071   4.249   3.999
 2714SOL    HW1 8157   3.084   4.165   4.053
 2714SOL    HW2 8158   3.042   4.323   4.059
 2715SOL     OW 8159   2.169   3.937   4.955
 2715SOL    HW1 8160   2.146   3.974   5.045
 2715SOL    HW2 8161   2.139   3.842   4.949
 2716SOL     OW 8162   2.594   4.358   4.788
 2716SOL    HW1 8163   2.653   4.332   4.712
 2716SOL    HW2 8164   2.566   4.454   4.777
 2717SOL     OW 8165   2.169   3.787   4.342
 2717SOL    HW1 8166   2.158   3.881   4.375
 2717SOL    HW2 8167   2.164   3.724   4.419
 2718SOL     OW 8168   3.484   4.091   4.098
 2718SOL    HW1 8169   3.486   4.015   4.162
 2718SOL    HW2 8170   3.436   4.168   4.138
 2719SOL     OW 8171   3.402   3.998   3.849
 2719SOL    HW1 8172   3.341   3.923   3.872
 2719SOL    HW2 8173   3.424   4.050   3.932
 2720SOL     OW 8174   3.165   4.562   3.766
 2720SOL    HW1 8175   3.199   4.469   3.781
 2720SOL    HW2 8176   3.183   4.589   3.671
 2721SOL     OW 8177   2.181   4.534   4.673
 2721SOL    HW1 8178   2.274   4.570   4.678
 2721SOL    HW2 8179   2.175   4.449   4.725
 2722SOL     OW 8180   2.677   4.296   4.049
 2722SOL    HW1 8181   2.684   4.207   4.003
 2722SOL    HW2 8182   2.583   4.330   4.041
 2723SOL     OW 8183   2.533   4.188   4.993
 2723SOL    HW1 8184   2.499   4.099   4.963
 2723SOL    HW2 8185   2.559   4.242   4.913
 2724SOL     OW 8186   2.335   4.224   3.915
 2724SOL    HW1 8187   2.396   4.304   3.919
 2724SOL    HW2 8188   2.240   4.255   3.922
 2725SOL     OW 8189   3.164   4.579   4.033
 2725SOL    HW1 8190   3.078   4.548   4.075
 2725SOL    HW2 8191   3.160   4.565   3.934
 2726SOL     OW 8192   3.588   3.859   4.247
 2726SOL    HW1 8193   3.661   3.842   4.180
 2726SOL    HW2 8194   3.557   3.772   4.285
 2727SOL     OW 8195   3.142   4.651   4.396
 2727SOL    HW1 8196   3.202   4.570   4.398
 2727SOL    HW2 8197   3.182   4.720   4.336
 2728SOL     OW 8198   3.703   3.899   4.687
 2728SOL    HW1 8199   3.742   3.814   4.651
 2728SOL    HW2 8200   3.605   3.901   4.668
 2729SOL     OW 8201   2.125   4.050   4.444
 2729SOL    HW1 8202   2.046   4.101   4.410
 2729SOL    HW2 8203   2.116   4.035   4.542
 2730SOL     OW 8204   2.778   4.634   4.015
 2730SOL    HW1 8205   2.841   4.672   3.947
 2730SOL    HW2 8206   2.818   4.551   4.054
 2731SOL     OW 8207   1.937   4.069   3.757
 2731SOL    HW1 8208   1.845   4.041   3.728
 2731SOL    HW2 8209   1.968   4.146   3.701
 2732SOL     OW 8210   1.934   3.890   4.042
 2732SOL    HW1 8211   1.917   3.973   3.988
 2732SOL    HW2 8212   2.024   3.853   4.020
 2733SOL     OW 8213   3.536   4.607   4.978
 2733SOL    HW1 8214   3.509   4.518   4.941
 2733SOL    HW2 8215   3.537   4.675   4.905
 2734SOL     OW 8216   3.087   4.049   4.173
 2734SOL    HW1 8217   3.152   3.975   4.162
 2734SOL    HW2 8218   3.107   4.099   4.257
 2735SOL     OW 8219   2.456   4.469   4.376
 2735SOL    HW1 8220   2.506   4.554   4.357
 2735SOL    HW2 8221   2.368   4.471   4.328
 2736SOL     OW 8222   3.686   3.916   4.951
 2736SOL    HW1 8223   3.682   3.826   4.995
 2736SOL    HW2 8224   3.689   3.905   4.852
 2737SOL     OW 8225   2.290   4.148   4.244
 2737SOL    HW1 8226   2.320   4.076   4.182
 2737SOL    HW2 8227   2.251   4.108   4.327
 2738SOL     OW 8228   3.214   3.776   3.892
 2738SOL    HW1 8229   3.249   3.735   3.808
 2738SOL    HW2 8230   3.124   3.738   3.912
 2739SOL     OW 8231   3.162   4.177   4.415
 2739SOL    HW1 8232   3.103   4.257   4.419
 2739SOL    HW2 8233   3.177   4.142   4.508
 2740SOL     OW 8234   3.455   3.945   4.606
 2740SOL    HW1 8235   3.371   3.944   4.660
 2740SOL    HW2 8236   3.457   4.028   4.550
 2741SOL     OW 8237   3.954   0.628   0.113
 2741SOL    HW1 8238   3.861   0.626   0.150
 2741SOL    HW2 8239   3.955   0.589   0.021
 2742SOL     OW 8240   3.949   0.275   0.996
 2742SOL    HW1 8241   3.984   0.258   1.088
 2742SOL    HW2 8242   3.861   0.230   0.984
 2743SOL     OW 8243   3.743   0.368   0.647
 2743SOL    HW1 8244   3.661   0.411   0.686
 2743SOL    HW2 8245   3.715   0.295   0.584
 2744SOL     OW 8246   4.293   1.275   1.165
 2744SOL    HW1 8247   4.200   1.268   1.128
 2744SOL    HW2 8248   4.304   1.364   1.209
 2745SOL     OW 8249   4.492   1.144   1.023
 2745SOL    HW1 8250   4.414   1.161   1.083
 2745SOL    HW2 8251   4.526   1.231   0.987
 2746SOL     OW 8252   4.574   0.798   1.823
 2746SOL    HW1 8253   4.570   0.874   1.888
 2746SOL    HW2 8254   4.596   0.834   1.732
 2747SOL     OW 8255   4.409   1.012   0.665
 2747SOL    HW1 8256   4.478   0.996   0.735
 2747SOL    HW2 8257   4.336   1.069   0.703
 2748SOL     OW 8258   4.410   1.161   1.803
 2748SOL    HW1 8259   4.470   1.240   1.817
 2748SOL    HW2 8260   4.324   1.192   1.762
 2749SOL     OW 8261   4.059   1.435   1.061
 2749SOL    HW1 8262   3.981   1.404   1.008
 2749SOL    HW2 8263   4.117   1.493   1.004
 2750SOL     OW 8264   4.162   0.392   1.499
 2750SOL    HW1 8265   4.244   0.336   1.508
 2750SOL    HW2 8266   4.081   0.334   1.503
 2751SOL     OW 8267   3.955   1.713   0.483
 2751SOL    HW1 8268   3.989   1.790   0.537
 2751SOL    HW2 8269   3.999   1.713   0.393
 2752SOL     OW 8270   3.954   1.434   0.538
 2752SOL    HW1 8271   3.928   1.530   0.538
 2752SOL    HW2 8272   3.883   1.380   0.583
 2753SOL     OW 8273   3.964   1.091   0.886
 2753SOL    HW1 8274   3.978   1.007   0.938
 2753SOL    HW2 8275   3.909   1.155   0.941
 2754SOL     OW 8276   4.344   1.786   1.439
 2754SOL    HW1 8277   4.252   1.769   1.474
 2754SOL    HW2 8278   4.372   1.878   1.465
 2755SOL     OW 8279   4.330   0.964   0.123
 2755SOL    HW1 8280   4.337   1.048   0.069
 2755SOL    HW2 8281   4.376   0.977   0.211
 2756SOL     OW 8282   3.846   0.643   0.563
 2756SOL    HW1 8283   3.801   0.555   0.580
 2756SOL    HW2 8284   3.845   0.697   0.647
 2757SOL     OW 8285   3.751   1.596   0.117
 2757SOL    HW1 8286   3.732   1.500   0.138
 2757SOL    HW2 8287   3.718   1.654   0.192
 2758SOL     OW 8288   3.837   0.737   1.597
 2758SOL    HW1 8289   3.925   0.724   1.642
 2758SOL    HW2 8290   3.824   0.834   1.575
 2759SOL     OW 8291   4.337   1.365   0.726
 2759SOL    HW1 8292   4.288   1.278   0.735
 2759SOL    HW2 8293   4.314   1.408   0.639
 2760SOL     OW 8294   4.533   0.004   0.502
 2760SOL    HW1 8295   4.573   0.095   0.493
 2760SOL    HW2 8296   4.433   0.012   0.508
 2761SOL     OW 8297   3.921   0.976   1.264
 2761SOL    HW1 8298   4.010   0.931   1.250
 2761SOL    HW2 8299   3.848   0.911   1.245
 2762SOL     OW 8300   4.041   0.251   1.801
 2762SOL    HW1 8301   4.112   0.322   1.807
 2762SOL    HW2 8302   3.953   0.290   1.829
 2763SOL     OW 8303   4.322   0.729   0.270
 2763SOL    HW1 8304   4.346   0.798   0.202
 2763SOL    HW2 8305   4.244   0.762   0.324
 2764SOL     OW 8306   4.531   0.605   1.465
 2764SOL    HW1 8307   4.484   0.602   1.554
 2764SOL    HW2 8308   4.480   0.550   1.399
 2765SOL     OW 8309   3.800   0.811   0.789
 2765SOL    HW1 8310   3.899   0.799   0.798
 2765SOL    HW2 8311   3.776   0.906   0.810
 2766SOL     OW 8312   3.854   1.821   1.571
 2766SOL    HW1 8313   3.844   1.806   1.670
 2766SOL    HW2 8314   3.768   1.857   1.535
 2767SOL     OW 8315   4.589   0.348   0.195
 2767SOL    HW1 8316   4.648   0.411   0.146
 2767SOL    HW2 8317   4.608   0.254   0.166
 2768SOL     OW 8318   4.274   0.196   0.885
 2768SOL    HW1 8319   4.269   0.191   0.985
 2768SOL    HW2 8320   4.276   0.292   0.856
 2769SOL     OW 8321   4.732   1.456   0.477
 2769SOL    HW1 8322   4.686   1.528   0.425
 2769SOL    HW2 8323   4.728   1.476   0.575
 2770SOL     OW 8324   4.075   1.801   0.853
 2770SOL    HW1 8325   4.125   1.715   0.859
 2770SOL    HW2 8326   4.140   1.878   0.850
 2771SOL     OW 8327   4.045   0.943   0.242
 2771SOL    HW1 8328   4.127   0.982   0.200
 2771SOL    HW2 8329   4.018   0.861   0.193
 2772SOL     OW 8330   4.185   1.266   1.727
 2772SOL    HW1 8331   4.135   1.267   1.641
 2772SOL    HW2 8332   4.122   1.248   1.803
 2773SOL     OW 8333   3.926   0.285   1.498
 2773SOL    HW1 8334   3.846   0.345   1.485
 2773SOL    HW2 8335   3.916   0.236   1.584
 2774SOL     OW 8336   4.188   1.743   0.323
 2774SOL    HW1 8337   4.221   1.782   0.409
 2774SOL    HW2 8338   4.264   1.736   0.258
 2775SOL     OW 8339   3.973   1.785   1.241
 2775SOL    HW1 8340   4.030   1.720   1.291
 2775SOL    HW2 8341   3.957   1.752   1.148
 2776SOL     OW 8342   4.106   0.700   0.480
 2776SOL    HW1 8343   4.151   0.610   0.477
 2776SOL    HW2 8344   4.012   0.689   0.513
 2777SOL     OW 8345   4.338   0.122   0.117
 2777SOL    HW1 8346   4.436   0.100   0.124
 2777SOL    HW2 8347   4.307   0.105   0.024
 2778SOL     OW 8348   4.505   0.264   1.749
 2778SOL    HW1 8349   4.572   0.203   1.792
 2778SOL    HW2 8350   4.432   0.283   1.814
 2779SOL     OW 8351   4.612   1.514   1.195
 2779SOL    HW1 8352   4.589   1.489   1.101
 2779SOL    HW2 8353   4.673   1.445   1.234
 2780SOL     OW 8354   4.527   1.402   0.924
 2780SOL    HW1 8355   4.617   1.416   0.882
 2780SOL    HW2 8356   4.456   1.404   0.853
 2781SOL     OW 8357   4.646   0.503   0.899
 2781SOL    HW1 8358   4.621   0.494   0.803
 2781SOL    HW2 8359   4.694   0.421   0.930
 2782SOL     OW 8360   4.263   0.064   0.512
 2782SOL    HW1 8361   4.182   0.065   0.570
 2782SOL    HW2 8362   4.266   0.147   0.457
 2783SOL     OW 8363   4.021   0.035   0.171
 2783SOL    HW1 8364   4.070   0.119   0.150
 2783SOL    HW2 8365   4.083  -0.030   0.216
 2784SOL     OW 8366   4.951   1.570   0.793
 2784SOL    HW1 8367   4.972   1.644   0.728
 2784SOL    HW2 8368   5.019   1.570   0.866
 2785SOL     OW 8369   4.183   1.152   0.741
 2785SOL    HW1 8370   4.112   1.125   0.806
 2785SOL    HW2 8371   4.157   1.124   0.648
 2786SOL     OW 8372   3.802   0.556   1.386
 2786SOL    HW1 8373   3.894   0.555   1.345
 2786SOL    HW2 8374   3.796   0.630   1.453
 2787SOL     OW 8375   4.285   0.222   1.147
 2787SOL    HW1 8376   4.323   0.138   1.184
 2787SOL    HW2 8377   4.197   0.241   1.191
 2788SOL     OW 8378   4.741   0.039   0.753
 2788SOL    HW1 8379   4.669   0.044   0.684
 2788SOL    HW2 8380   4.717  -0.030   0.822
 2789SOL     OW 8381   4.212   1.385   0.174
 2789SOL    HW1 8382   4.125   1.370   0.221
 2789SOL    HW2 8383   4.195   1.411   0.079
 2790SOL     OW 8384   4.251   0.256   0.328
 2790SOL    HW1 8385   4.278   0.197   0.253
 2790SOL    HW2 8386   4.251   0.351   0.297
 2791SOL     OW 8387   4.639   0.089   1.402
 2791SOL    HW1 8388   4.664   0.069   1.307
 2791SOL    HW2 8389   4.711   0.145   1.444
 2792SOL     OW 8390   4.704   1.116   1.719
 2792SOL    HW1 8391   4.605   1.122   1.729
 2792SOL    HW2 8392   4.727   1.036   1.663
 2793SOL     OW 8393   4.429   1.050   0.368
 2793SOL    HW1 8394   4.415   1.057   0.467
 2793SOL    HW2 8395   4.513   0.999   0.350
 2794SOL     OW 8396   4.134   0.813   1.251
 2794SOL    HW1 8397   4.220   0.825   1.301
 2794SOL    HW2 8398   4.092   0.726   1.278
 2795SOL     OW 8399   3.788   1.564   1.331
 2795SOL    HW1 8400   3.742   1.646   1.297
 2795SOL    HW2 8401   3.886   1.583   1.340
 2796SOL     OW 8402   4.091   1.100   0.501
 2796SOL    HW1 8403   4.084   1.183   0.445
 2796SOL    HW2 8404   4.095   1.020   0.441
 2797SOL     OW 8405   4.290   0.537   0.865
 2797SOL    HW1 8406   4.302   0.603   0.791
 2797SOL    HW2 8407   4.336   0.571   0.948
 2798SOL     OW 8408   4.078   1.510   1.329
 2798SOL    HW1 8409   4.057   1.466   1.242
 2798SOL    HW2 8410   4.175   1.536   1.332
 2799SOL     OW 8411   4.126   0.751   1.598
 2799SOL    HW1 8412   4.194   0.806   1.551
 2799SOL    HW2 8413   4.166   0.663   1.625
 2800SOL     OW 8414   4.228   0.050   1.740
 2800SOL    HW1 8415   4.186  -0.007   1.670
 2800SOL    HW2 8416   4.162   0.119   1.772
 2801SOL     OW 8417   4.297   0.870   1.029
 2801SOL    HW1 8418   4.341   0.959   1.020
 2801SOL    HW2 8419   4.234   0.870   1.106
 2802SOL     OW 8420   4.933   0.525   0.275
 2802SOL    HW1 8421   4.946   0.441   0.329
 2802SOL    HW2 8422   4.904   0.599   0.335
 2803SOL     OW 8423   4.031   0.213   1.231
 2803SOL    HW1 8424   4.008   0.250   1.321
 2803SOL    HW2 8425   4.001   0.118   1.225
 2804SOL     OW 8426   3.761   1.310   1.282
 2804SOL    HW1 8427   3.814   1.261   1.350
 2804SOL    HW2 8428   3.783   1.408   1.287
 2805SOL     OW 8429   4.456   0.634   1.064
 2805SOL    HW1 8430   4.515   0.608   0.988
 2805SOL    HW2 8431   4.428   0.730   1.053
 2806SOL     OW 8432   4.031   0.063   0.618
 2806SOL    HW1 8433   4.020   0.157   0.651
 2806SOL    HW2 8434   4.026   0.000   0.695
 2807SOL     OW 8435   4.747   0.766   0.966
 2807SOL    HW1 8436   4.762   0.787   1.062
 2807SOL    HW2 8437   4.717   0.671   0.957
 2808SOL     OW 8438   4.704   1.573   1.700
 2808SOL    HW1 8439   4.684   1.617   1.612
 2808SOL    HW2 8440   4.743   1.482   1.684
 2809SOL     OW 8441   4.074   0.898   1.804
 2809SOL    HW1 8442   4.150   0.942   1.852
 2809SOL    HW2 8443   4.109   0.851   1.722
 2810SOL     OW 8444   4.043   0.810   0.949
 2810SOL    HW1 8445   4.136   0.846   0.954
 2810SOL    HW2 8446   4.037   0.725   1.001
 2811SOL     OW 8447   4.063   0.509   1.006
 2811SOL    HW1 8448   4.011   0.426   0.989
 2811SOL    HW2 8449   4.140   0.514   0.942
 2812SOL     OW 8450   3.732   1.326   0.200
 2812SOL    HW1 8451   3.639   1.347   0.169
 2812SOL    HW2 8452   3.742   1.227   0.213
 2813SOL     OW 8453   3.812   1.801   0.927
 2813SOL    HW1 8454   3.770   1.715   0.900
 2813SOL    HW2 8455   3.906   1.804   0.893
 2814SOL     OW 8456   4.228   1.568   0.910
 2814SOL    HW1 8457   4.294   1.642   0.919
 2814SOL    HW2 8458   4.272   1.489   0.868
 2815SOL     OW 8459   4.726   0.796   1.238
 2815SOL    HW1 8460   4.767   0.764   1.324
 2815SOL    HW2 8461   4.630   0.769   1.235
 2816SOL     OW 8462   3.764   0.544   1.114
 2816SOL    HW1 8463   3.849   0.511   1.073
 2816SOL    HW2 8464   3.777   0.559   1.212
 2817SOL     OW 8465   3.913   0.520   1.722
 2817SOL    HW1 8466   3.972   0.480   1.652
 2817SOL    HW2 8467   3.855   0.591   1.681
 2818SOL     OW 8468   4.539   0.572   0.325
 2818SOL    HW1 8469   4.546   0.483   0.279
 2818SOL    HW2 8470   4.445   0.606   0.317
 2819SOL     OW 8471   3.976   1.564   1.744
 2819SOL    HW1 8472   3.946   1.621   1.820
 2819SOL    HW2 8473   3.969   1.467   1.770
 2820SOL     OW 8474   4.395   0.464   1.269
 2820SOL    HW1 8475   4.361   0.375   1.239
 2820SOL    HW2 8476   4.421   0.518   1.189
 2821SOL     OW 8477   4.654   1.678   1.465
 2821SOL    HW1 8478   4.630   1.660   1.370
 2821SOL    HW2 8479   4.684   1.772   1.475
 2822SOL     OW 8480   4.197   0.500   0.191
 2822SOL    HW1 8481   4.258   0.580   0.195
 2822SOL    HW2 8482   4.102   0.531   0.198
 2823SOL     OW 8483   3.883   1.137   1.466
 2823SOL    HW1 8484   3.905   1.076   1.542
 2823SOL    HW2 8485   3.893   1.088   1.380
 2824SOL     OW 8486   3.807   1.258   1.022
 2824SOL    HW1 8487   3.802   1.257   1.122
 2824SOL    HW2 8488   3.724   1.217   0.984
 2825SOL     OW 8489   4.412   1.662   1.716
 2825SOL    HW1 8490   4.356   1.743   1.725
 2825SOL    HW2 8491   4.464   1.666   1.630
 2826SOL     OW 8492   4.627   0.086   0.133
 2826SOL    HW1 8493   4.678   0.087   0.047
 2826SOL    HW2 8494   4.683   0.044   0.204
 2827SOL     OW 8495   3.854   1.794   1.851
 2827SOL    HW1 8496   3.813   1.720   1.904
 2827SOL    HW2 8497   3.918   1.845   1.909
 2828SOL     OW 8498   5.004   0.927   0.672
 2828SOL    HW1 8499   5.064   0.846   0.674
 2828SOL    HW2 8500   5.044   0.996   0.612
 2829SOL     OW 8501   4.554   1.273   1.422
 2829SOL    HW1 8502   4.549   1.306   1.517
 2829SOL    HW2 8503   4.468   1.292   1.376
 2830SOL     OW 8504   4.396   1.616   0.154
 2830SOL    HW1 8505   4.405   1.626   0.055
 2830SOL    HW2 8506   4.356   1.527   0.175
 2831SOL     OW 8507   3.987   0.326   0.720
 2831SOL    HW1 8508   3.908   0.377   0.686
 2831SOL    HW2 8509   3.978   0.311   0.818
 2832SOL     OW 8510   4.546   1.002   1.372
 2832SOL    HW1 8511   4.586   1.001   1.280
 2832SOL    HW2 8512   4.556   1.094   1.412
 2833SOL     OW 8513   4.096   1.288   1.490
 2833SOL    HW1 8514   4.083   1.381   1.456
 2833SOL    HW2 8515   4.012   1.236   1.477
 2834SOL     OW 8516   4.738   0.236   0.971
 2834SOL    HW1 8517   4.730   0.200   0.878
 2834SOL    HW2 8518   4.736   0.160   1.036
 2835SOL     OW 8519   4.314   1.487   0.491
 2835SOL    HW1 8520   4.356   1.429   0.421
 2835SOL    HW2 8521   4.270   1.566   0.447
 2836SOL     OW 8522   3.979   1.348   0.290
 2836SOL    HW1 8523   3.883   1.349   0.263
 2836SOL    HW2 8524   3.991   1.401   0.374
 2837SOL     OW 8525   3.829   1.013   1.726
 2837SOL    HW1 8526   3.752   0.980   1.780
 2837SOL    HW2 8527   3.914   0.983   1.768
 2838SOL     OW 8528   4.396   0.203   1.489
 2838SOL    HW1 8529   4.486   0.187   1.449
 2838SOL    HW2 8530   4.404   0.208   1.588
 2839SOL     OW 8531   3.799   0.345   0.033
 2839SOL    HW1 8532   3.707   0.317   0.004
 2839SOL    HW2 8533   3.830   0.422  -0.023
 2840SOL     OW 8534   4.337   0.842   1.431
 2840SOL    HW1 8535   4.393   0.923   1.414
 2840SOL    HW2 8536   4.396   0.762   1.434
 2841SOL     OW 8537   4.440   0.565   1.708
 2841SOL    HW1 8538   4.459   0.630   1.782
 2841SOL    HW2 8539   4.500   0.485   1.717
 2842SOL     OW 8540   4.114   1.741   1.560
 2842SOL    HW1 8541   4.023   1.782   1.558
 2842SOL    HW2 8542   4.107   1.647   1.592
 2843SOL     OW 8543   4.949   0.325   0.449
 2843SOL    HW1 8544   5.014   0.251   0.438
 2843SOL    HW2 8545   4.969   0.375   0.533
 2844SOL     OW 8546   4.318   0.745   0.652
 2844SOL    HW1 8547   4.368   0.830   0.633
 2844SOL    HW2 8548   4.230   0.747   0.604
 2845SOL     OW 8549   4.583   1.374   0.016
 2845SOL    HW1 8550   4.537   1.389   0.104
 2845SOL    HW2 8551   4.627   1.459  -0.014
 2846SOL     OW 8552   4.385   1.790   0.953
 2846SOL    HW1 8553   4.339   1.878   0.940
 2846SOL    HW2 8554   4.484   1.802   0.946
 2847SOL     OW 8555   4.583   0.956   0.861
 2847SOL    HW1 8556   4.637   0.887   0.909
 2847SOL    HW2 8557   4.551   1.025   0.927
 2848SOL     OW 8558   4.807   0.984   0.087
 2848SOL    HW1 8559   4.784   1.037   0.005
 2848SOL    HW2 8560   4.888   0.928   0.068
 2849SOL     OW 8561   3.945   1.314   1.844
 2849SOL    HW1 8562   3.880   1.241   1.823
 2849SOL    HW2 8563   3.949   1.328   1.942
 2850SOL     OW 8564   3.803   1.240   0.653
 2850SOL    HW1 8565   3.802   1.193   0.741
 2850SOL    HW2 8566   3.885   1.212   0.602
 2851SOL     OW 8567   4.396   1.391   1.624
 2851SOL    HW1 8568   4.318   1.341   1.662
 2851SOL    HW2 8569   4.393   1.486   1.655
 2852SOL     OW 8570   4.152   0.424   0.520
 2852SOL    HW1 8571   4.182   0.352   0.458
 2852SOL    HW2 8572   4.113   0.384   0.603
 2853SOL     OW 8573   4.041   0.547   1.280
 2853SOL    HW1 8574   4.079   0.488   1.352
 2853SOL    HW2 8575   4.081   0.521   1.192
 2854SOL     OW 8576   4.536   1.586   0.687
 2854SOL    HW1 8577   4.568   1.596   0.593
 2854SOL    HW2 8578   4.457   1.524   0.689
 2855SOL     OW 8579   4.725   0.034   1.154
 2855SOL    HW1 8580   4.662  -0.038   1.123
 2855SOL    HW2 8581   4.818  -0.002   1.154
 2856SOL     OW 8582   4.494   1.330   0.301
 2856SOL    HW1 8583   4.448   1.243   0.318
 2856SOL    HW2 8584   4.585   1.327   0.342
 2857SOL     OW 8585   4.342   1.567   1.284
 2857SOL    HW1 8586   4.337   1.649   1.341
 2857SOL    HW2 8587   4.431   1.564   1.239
 2858SOL     OW 8588   3.763   1.077   0.300
 2858SOL    HW1 8589   3.862   1.066   0.291
 2858SOL    HW2 8590   3.723   0.991   0.332
 2859SOL     OW 8591   4.599   1.646   0.337
 2859SOL    HW1 8592   4.522   1.611   0.283
 2859SOL    HW2 8593   4.567   1.717   0.399
 2860SOL     OW 8594   3.954   0.628   1.975
 2860SOL    HW1 8595   3.861   0.626   2.012
 2860SOL    HW2 8596   3.955   0.589   1.883
 2861SOL     OW 8597   3.949   0.275   2.858
 2861SOL    HW1 8598   3.984   0.258   2.950
 2861SOL    HW2 8599   3.861   0.230   2.846
 2862SOL     OW 8600   3.743   0.368   2.509
 2862SOL    HW1 8601   3.661   0.411   2.548
 2862SOL    HW2 8602   3.715   0.295   2.446
 2863SOL     OW 8603   4.293   1.275   3.027
 2863SOL    HW1 8604   4.200   1.268   2.990
 2863SOL    HW2 8605   4.304   1.364   3.071
 2864SOL     OW 8606   4.492   1.144   2.885
 2864SOL    HW1 8607   4.414   1.161   2.945
 2864SOL    HW2 8608   4.526   1.231   2.849
 2865SOL     OW 8609   4.574   0.798   3.685
 2865SOL    HW1 8610   4.570   0.874   3.750
 2865SOL    HW2 8611   4.596   0.834   3.594
 2866SOL     OW 8612   4.409   1.012   2.527
 2866SOL    HW1 8613   4.478   0.996   2.597
 2866SOL    HW2 8614   4.336   1.069   2.565
 2867SOL     OW 8615   4.410   1.161   3.665
 2867SOL    HW1 8616   4.470   1.240   3.679
 2867SOL    HW2 8617   4.324   1.192   3.624
 2868SOL     OW 8618   4.059   1.435   2.923
 2868SOL    HW1 8619   3.981   1.404   2.870
 2868SOL    HW2 8620   4.117   1.493   2.866
 2869SOL     OW 8621   4.162   0.392   3.361
 2869SOL    HW1 8622   4.244   0.336   3.370
 2869SOL    HW2 8623   4.081   0.334   3.365
 2870SOL     OW 8624   3.955   1.713   2.345
 2870SOL    HW1 8625   3.989   1.790   2.399
 2870SOL    HW2 8626   3.999   1.713   2.255
 2871SOL     OW 8627   3.954   1.434   2.400
 2871SOL    HW1 8628   3.928   1.530   2.400
 2871SOL    HW2 8629   3.883   1.380   2.445
 2872SOL     OW 8630   3.964   1.091   2.748
 2872SOL    HW1 8631   3.978   1.007   2.800
 2872SOL    HW2 8632   3.909   1.155   2.803
 2873SOL     OW 8633   4.344   1.786   3.301
 2873SOL    HW1 8634   4.252   1.769   3.336
 2873SOL    HW2 8635   4.372   1.878   3.327
 2874SOL     OW 8636   4.330   0.964   1.985
 2874SOL    HW1 8637   4.337   1.048   1.931
 2874SOL    HW2 8638   4.376   0.977   2.073
 2875SOL     OW 8639   3.846   0.643   2.425
 2875SOL    HW1 8640   3.801   0.555   2.442
 2875SOL    HW2 8641   3.845   0.697   2.509
 2876SOL     OW 8642   3.751   1.596   1.979
 2876SOL    HW1 8643   3.732   1.500   2.000
 2876SOL    HW2 8644   3.718   1.654   2.054
 2877SOL     OW 8645   3.837   0.737   3.459
 2877SOL    HW1 8646   3.925   0.724   3.504
 2877SOL    HW2 8647   3.824   0.834   3.437
 2878SOL     OW 8648   4.337   1.365   2.588
 2878SOL    HW1 8649   4.288   1.278   2.597
 2878SOL    HW2 8650   4.314   1.408   2.501
 2879SOL     OW 8651   4.533   0.004   2.364
 2879SOL    HW1 8652   4.573   0.095   2.355
 2879SOL    HW2 8653   4.433   0.012   2.370
 2880SOL     OW 8654   3.921   0.976   3.126
 2880SOL    HW1 8655   4.010   0.931   3.112
 2880SOL    HW2 8656   3.848   0.911   3.107
 2881SOL     OW 8657   4.041   0.251   3.663
 2881SOL    HW1 8658   4.112   0.322   3.669
 2881SOL    HW2 8659   3.953   0.290   3.691
 2882SOL     OW 8660   4.322   0.729   2.132
 2882SOL    HW1 8661   4.346   0.798   2.064
 2882SOL    HW2 8662   4.244   0.762   2.186
 2883SOL     OW 8663   4.531   0.605   3.327
 2883SOL    HW1 8664   4.484   0.602   3.416
 2883SOL    HW2 8665   4.480   0.550   3.261
 2884SOL     OW 8666   3.800   0.811   2.651
 2884SOL    HW1 8667   3.899   0.799   2.660
 2884SOL    HW2 8668   3.776   0.906   2.672
 2885SOL     OW 8669   3.854   1.821   3.433
 2885SOL    HW1 8670   3.844   1.806   3.532
 2885SOL    HW2 8671   3.768   1.857   3.397
 2886SOL     OW 8672   4.589   0.348   2.057
 2886SOL    HW1 8673   4.648   0.411   2.008
 2886SOL    HW2 8674   4.608   0.254   2.028
 2887SOL     OW 8675   4.274   0.196   2.747
 2887SOL    HW1 8676   4.269   0.191   2.847
 2887SOL    HW2 8677   4.276   0.292   2.718
 2888SOL     OW 8678   4.732   1.456   2.339
 2888SOL    HW1 8679   4.686   1.528   2.287
 2888SOL    HW2 8680   4.728   1.476   2.437
 2889SOL     OW 8681   4.075   1.801   2.715
 2889SOL    HW1 8682   4.125   1.715   2.721
 2889SOL    HW2 8683   4.140   1.878   2.712
 2890SOL     OW 8684   4.045   0.943   2.104
 2890SOL    HW1 8685   4.127   0.982   2.062
 2890SOL    HW2 8686   4.018   0.861   2.055
 2891SOL     OW 8687   4.185   1.266   3.589
 2891SOL    HW1 8688   4.135   1.267   3.503
 2891SOL    HW2 8689   4.122   1.248   3.665
 2892SOL     OW 8690   3.926   0.285   3.360
 2892SOL    HW1 8691   3.846   0.345   3.347
 2892SOL    HW2 8692   3.916   0.236   3.446
 2893SOL     OW 8693   4.188   1.743   2.185
 2893SOL    HW1 8694   4.221   1.782   2.271
 2893SOL    HW2 8695   4.264   1.736   2.120
 2894SOL     OW 8696   3.973   1.785   3.103
 2894SOL    HW1 8697   4.030   1.720   3.153
 2894SOL    HW2 8698   3.957   1.752   3.010
 2895SOL     OW 8699   4.106   0.700   2.342
 2895SOL    HW1 8700   4.151   0.610   2.339
 2895SOL    HW2 8701   4.012   0.689   2.375
 2896SOL     OW 8702   4.338   0.122   1.979
 2896SOL    HW1 8703   4.436   0.100   1.986
 2896SOL    HW2 8704   4.307   0.105   1.886
 2897SOL     OW 8705   4.505   0.264   3.611
 2897SOL    HW1 8706   4.572   0.203   3.654
 2897SOL    HW2 8707   4.432   0.283   3.676
 2898SOL     OW 8708   4.612   1.514   3.057
 2898SOL    HW1 8709   4.589   1.489   2.963
 2898SOL    HW2 8710   4.673   1.445   3.096
 2899SOL     OW 8711   4.527   1.402   2.786
 2899SOL    HW1 8712   4.617   1.416   2.744
 2899SOL    HW2 8713   4.456   1.404   2.715
 2900SOL     OW 8714   4.646   0.503   2.761
 2900SOL    HW1 8715   4.621   0.494   2.665
 2900SOL    HW2 8716   4.694   0.421   2.792
 2901SOL     OW 8717   4.263   0.064   2.374
 2901SOL    HW1 8718   4.182   0.065   2.432
 2901SOL    HW2 8719   4.266   0.147   2.319
 2902SOL     OW 8720   4.021   0.035   2.033
 2902SOL    HW1 8721   4.070   0.119   2.012
 2902SOL    HW2 8722   4.083  -0.030   2.078
 2903SOL     OW 8723   4.951   1.570   2.655
 2903SOL    HW1 8724   4.972   1.644   2.590
 2903SOL    HW2 8725   5.019   1.570   2.728
 2904SOL     OW 8726   4.183   1.152   2.603
 2904SOL    HW1 8727   4.112   1.125   2.668
 2904SOL    HW2 8728   4.157   1.124   2.510
 2905SOL     OW 8729   3.802   0.556   3.248
 2905SOL    HW1 8730   3.894   0.555   3.207
 2905SOL    HW2 8731   3.796   0.630   3.315
 2906SOL     OW 8732   4.285   0.222   3.009
 2906SOL    HW1 8733   4.323   0.138   3.046
 2906SOL    HW2 8734   4.197   0.241   3.053
 2907SOL     OW 8735   4.741   0.039   2.615
 2907SOL    HW1 8736   4.669   0.044   2.546
 2907SOL    HW2 8737   4.717  -0.030   2.684
 2908SOL     OW 8738   4.212   1.385   2.036
 2908SOL    HW1 8739   4.125   1.370   2.083
 2908SOL    HW2 8740   4.195   1.411   1.941
 2909SOL     OW 8741   4.251   0.256   2.190
 2909SOL    HW1 8742   4.278   0.197   2.115
 2909SOL    HW2 8743   4.251   0.351   2.159
 2910SOL     OW 8744   4.639   0.089   3.264
 2910SOL    HW1 8745   4.664   0.069   3.169
 2910SOL    HW2 8746   4.711   0.145   3.306
 2911SOL     OW 8747   4.704   1.116   3.581
 2911SOL    HW1 8748   4.605   1.122   3.591
 2911SOL    HW2 8749   4.727   1.036   3.525
 2912SOL     OW 8750   4.429   1.050   2.230
 2912SOL    HW1 8751   4.415   1.057   2.329
 2912SOL    HW2 8752   4.513   0.999   2.212
 2913SOL     OW 8753   4.134   0.813   3.113
 2913SOL    HW1 8754   4.220   0.825   3.163
 2913SOL    HW2 8755   4.092   0.726   3.140
 2914SOL     OW 8756   3.788   1.564   3.193
 2914SOL    HW1 8757   3.742   1.646   3.159
 2914SOL    HW2 8758   3.886   1.583   3.202
 2915SOL     OW 8759   4.091   1.100   2.363
 2915SOL    HW1 8760   4.084   1.183   2.307
 2915SOL    HW2 8761   4.095   1.020   2.303
 2916SOL     OW 8762   4.290   0.537   2.727
 2916SOL    HW1 8763   4.302   0.603   2.653
 2916SOL    HW2 8764   4.336   0.571   2.810
 2917SOL     OW 8765   4.078   1.510   3.191
 2917SOL    HW1 8766   4.057   1.466   3.104
 2917SOL    HW2 8767   4.175   1.536   3.194
 2918SOL     OW 8768   4.126   0.751   3.460
 2918SOL    HW1 8769   4.194   0.806   3.413
 2918SOL    HW2 8770   4.166   0.663   3.487
 2919SOL     OW 8771   4.228   0.050   3.602
 2919SOL    HW1 8772   4.186  -0.007   3.532
 2919SOL    HW2 8773   4.162   0.119   3.634
 2920SOL     OW 8774   4.297   0.870   2.891
 2920SOL    HW1 8775   4.341   0.959   2.882
 2920SOL    HW2 8776   4.234   0.870   2.968
 2921SOL     OW 8777   4.933   0.525   2.137
 2921SOL    HW1 8778   4.946   0.441   2.191
 2921SOL    HW2 8779   4.904   0.599   2.197
 2922SOL     OW 8780   4.031   0.213   3.093
 2922SOL    HW1 8781   4.008   0.250   3.183
 2922SOL    HW2 8782   4.001   0.118   3.087
 2923SOL     OW 8783   3.761   1.310   3.144
 2923SOL    HW1 8784   3.814   1.261   3.212
 2923SOL    HW2 8785   3.783   1.408   3.149
 2924SOL     OW 8786   4.456   0.634   2.926
 2924SOL    HW1 8787   4.515   0.608   2.850
 2924SOL    HW2 8788   4.428   0.730   2.915
 2925SOL     OW 8789   4.031   0.063   2.480
 2925SOL    HW1 8790   4.020   0.157   2.513
 2925SOL    HW2 8791   4.026   0.000   2.557
 2926SOL     OW 8792   4.747   0.766   2.828
 2926SOL    HW1 8793   4.762   0.787   2.924
 2926SOL    HW2 8794   4.717   0.671   2.819
 2927SOL     OW 8795   4.704   1.573   3.562
 2927SOL    HW1 8796   4.684   1.617   3.474
 2927SOL    HW2 8797   4.743   1.482   3.546
 2928SOL     OW 8798   4.074   0.898   3.666
 2928SOL    HW1 8799   4.150   0.942   3.714
 2928SOL    HW2 8800   4.109   0.851   3.584
 2929SOL     OW 8801   4.043   0.810   2.811
 2929SOL    HW1 8802   4.136   0.846   2.816
 2929SOL    HW2 8803   4.037   0.725   2.863
 2930SOL     OW 8804   4.063   0.509   2.868
 2930SOL    HW1 8805   4.011   0.426   2.851
 2930SOL    HW2 8806   4.140   0.514   2.804
 2931SOL     OW 8807   3.732   1.326   2.062
 2931SOL    HW1 8808   3.639   1.347   2.031
 2931SOL    HW2 8809   3.742   1.227   2.075
 2932SOL     OW 8810   3.812   1.801   2.789
 2932SOL    HW1 8811   3.770   1.715   2.762
 2932SOL    HW2 8812   3.906   1.804   2.755
 2933SOL     OW 8813   4.228   1.568   2.772
 2933SOL    HW1 8814   4.294   1.642   2.781
 2933SOL    HW2 8815   4.272   1.489   2.730
 2934SOL     OW 8816   4.726   0.796   3.100
 2934SOL    HW1 8817   4.767   0.764   3.186
 2934SOL    HW2 8818   4.630   0.769   3.097
 2935SOL     OW 8819   3.764   0.544   2.976
 2935SOL    HW1 8820   3.849   0.511   2.935
 2935SOL    HW2 8821   3.777   0.559   3.074
 2936SOL     OW 8822   3.913   0.520   3.584
 2936SOL    HW1 8823   3.972   0.480   3.514
 2936SOL    HW2 8824   3.855   0.591   3.543
 2937SOL     OW 8825   4.539   0.572   2.187
 2937SOL    HW1 8826   4.546   0.483   2.141
 2937SOL    HW2 8827   4.445   0.606   2.179
 2938SOL     OW 8828   3.976   1.564   3.606
 2938SOL    HW1 8829   3.946   1.621   3.682
 2938SOL    HW2 8830   3.969   1.467   3.632
 2939SOL     OW 8831   4.395   0.464   3.131
 2939SOL    HW1 8832   4.361   0.375   3.101
 2939SOL    HW2 8833   4.421   0.518   3.051
 2940SOL     OW 8834   4.654   1.678   3.327
 2940SOL    HW1 8835   4.630   1.660   3.232
 2940SOL    HW2 8836   4.684   1.772   3.337
 2941SOL     OW 8837   4.197   0.500   2.053
 2941SOL    HW1 8838   4.258   0.580   2.057
 2941SOL    HW2 8839   4.102   0.531   2.060
 2942SOL     OW 8840   3.883   1.137   3.328
 2942SOL    HW1 8841   3.905   1.076   3.404
 2942SOL    HW2 8842   3.893   1.088   3.242
 2943SOL     OW 8843   3.807   1.258   2.884
 2943SOL    HW1 8844   3.802   1.257   2.984
 2943SOL    HW2 8845   3.724   1.217   2.846
 2944SOL     OW 8846   4.412   1.662   3.578
 2944SOL    HW1 8847   4.356   1.743   3.587
 2944SOL    HW2 8848   4.464   1.666   3.492
 2945SOL     OW 8849   4.627   0.086   1.995
 2945SOL    HW1 8850   4.678   0.087   1.909
 2945SOL    HW2 8851   4.683   0.044   2.066
 2946SOL     OW 8852   3.854   1.794   3.713
 2946SOL    HW1 8853   3.813   1.720   3.766
 2946SOL    HW2 8854   3.918   1.845   3.771
 2947SOL     OW 8855   5.004   0.927   2.534
 2947SOL    HW1 8856   5.064   0.846   2.536
 2947SOL    HW2 8857   5.044   0.996   2.474
 2948SOL     OW 8858   4.554   1.273   3.284
 2948SOL    HW1 8859   4.549   1.306   3.379
 2948SOL    HW2 8860   4.468   1.292   3.238
 2949SOL     OW 8861   4.396   1.616   2.016
 2949SOL    HW1 8862   4.405   1.626   1.917
 2949SOL    HW2 8863   4.356   1.527   2.037
 2950SOL     OW 8864   3.987   0.326   2.582
 2950SOL    HW1 8865   3.908   0.377   2.548
 2950SOL    HW2 8866   3.978   0.311   2.680
 2951SOL     OW 8867   4.546   1.002   3.234
 2951SOL    HW1 8868   4.586   1.001   3.142
 2951SOL    HW2 8869   4.556   1.094   3.274
 2952SOL     OW 8870   4.096   1.288   3.352
 2952SOL    HW1 8871   4.083   1.381   3.318
 2952SOL    HW2 8872   4.012   1.236   3.339
 2953SOL     OW 8873   4.738   0.236   2.833
 2953SOL    HW1 8874   4.730   0.200   2.740
 2953SOL    HW2 8875   4.736   0.160   2.898
 2954SOL     OW 8876   4.314   1.487   2.353
 2954SOL    HW1 8877   4.356   1.429   2.283
 2954SOL    HW2 8878   4.270   1.566   2.309
 2955SOL     OW 8879   3.979   1.348   2.152
 2955SOL    HW1 8880   3.883   1.349   2.125
 2955SOL    HW2 8881   3.991   1.401   2.236
 2956SOL     OW 8882   3.829   1.013   3.588
 2956SOL    HW1 8883   3.752   0.980   3.642
 2956SOL    HW2 8884   3.914   0.983   3.630
 2957SOL     OW 8885   4.396   0.203   3.351
 2957SOL    HW1 8886   4.486   0.187   3.311
 2957SOL    HW2 8887   4.404   0.208   3.450
 2958SOL     OW 8888   3.799   0.345   1.895
 2958SOL    HW1 8889   3.707   0.317   1.866
 2958SOL    HW2 8890   3.830   0.422   1.839
 2959SOL     OW 8891   3.796   0.166   2.180
 2959SOL    HW1 8892   3.779   0.249   2.126
 2959SOL    HW2 8893   3.886   0.129   2.158
 2960SOL     OW 8894   4.337   0.842   3.293
 2960SOL    HW1 8895   4.393   0.923   3.276
 2960SOL    HW2 8896   4.396   0.762   3.296
 2961SOL     OW 8897   4.440   0.565   3.570
 2961SOL    HW1 8898   4.459   0.630   3.644
 2961SOL    HW2 8899   4.500   0.485   3.579
 2962SOL     OW 8900   4.114   1.741   3.422
 2962SOL    HW1 8901   4.023   1.782   3.420
 2962SOL    HW2 8902   4.107   1.647   3.454
 2963SOL     OW 8903   4.949   0.325   2.311
 2963SOL    HW1 8904   5.014   0.251   2.300
 2963SOL    HW2 8905   4.969   0.375   2.395
 2964SOL     OW 8906   4.318   0.745   2.514
 2964SOL    HW1 8907   4.368   0.830   2.495
 2964SOL    HW2 8908   4.230   0.747   2.466
 2965SOL     OW 8909   4.583   1.374   1.878
 2965SOL    HW1 8910   4.537   1.389   1.966
 2965SOL    HW2 8911   4.627   1.459   1.848
 2966SOL     OW 8912   4.385   1.790   2.815
 2966SOL    HW1 8913   4.339   1.878   2.802
 2966SOL    HW2 8914   4.484   1.802   2.808
 2967SOL     OW 8915   4.583   0.956   2.723
 2967SOL    HW1 8916   4.637   0.887   2.771
 2967SOL    HW2 8917   4.551   1.025   2.789
 2968SOL     OW 8918   3.945   1.314   3.706
 2968SOL    HW1 8919   3.880   1.241   3.685
 2968SOL    HW2 8920   3.949   1.328   3.804
 2969SOL     OW 8921   3.803   1.240   2.515
 2969SOL    HW1 8922   3.802   1.193   2.603
 2969SOL    HW2 8923   3.885   1.212   2.464
 2970SOL     OW 8924   4.396   1.391   3.486
 2970SOL    HW1 8925   4.318   1.341   3.524
 2970SOL    HW2 8926   4.393   1.486   3.517
 2971SOL     OW 8927   4.152   0.424   2.382
 2971SOL    HW1 8928   4.182   0.352   2.320
 2971SOL    HW2 8929   4.113   0.384   2.465
 2972SOL     OW 8930   4.041   0.547   3.142
 2972SOL    HW1 8931   4.079   0.488   3.214
 2972SOL    HW2 8932   4.081   0.521   3.054
 2973SOL     OW 8933   4.536   1.586   2.549
 2973SOL    HW1 8934   4.568   1.596   2.455
 2973SOL    HW2 8935   4.457   1.524   2.551
 2974SOL     OW 8936   4.725   0.034   3.016
 2974SOL    HW1 8937   4.662  -0.038   2.985
 2974SOL    HW2 8938   4.818  -0.002   3.016
 2975SOL     OW 8939   4.494   1.330   2.163
 2975SOL    HW1 8940   4.448   1.243   2.180
 2975SOL    HW2 8941   4.585   1.327   2.204
 2976SOL     OW 8942   4.342   1.567   3.146
 2976SOL    HW1 8943   4.337   1.649   3.203
 2976SOL    HW2 8944   4.431   1.564   3.101
 2977SOL     OW 8945   3.763   1.077   2.162
 2977SOL    HW1 8946   3.862   1.066   2.153
 2977SOL    HW2 8947   3.723   0.991   2.194
 2978SOL     OW 8948   4.599   1.646   2.199
 2978SOL    HW1 8949   4.522   1.611   2.145
 2978SOL    HW2 8950   4.567   1.717   2.261
 2979SOL     OW 8951   3.954   0.628   3.837
 2979SOL    HW1 8952   3.861   0.626   3.874
 2979SOL    HW2 8953   3.955   0.589   3.745
 2980SOL     OW 8954   3.949   0.275   4.720
 2980SOL    HW1 8955   3.984   0.258   4.812
 2980SOL    HW2 8956   3.861   0.230   4.708
 2981SOL     OW 8957   3.743   0.368   4.371
 2981SOL    HW1 8958   3.661   0.411   4.410
 2981SOL    HW2 8959   3.715   0.295   4.308
 2982SOL     OW 8960   4.492   1.144   4.747
 2982SOL    HW1 8961   4.414   1.161   4.807
 2982SOL    HW2 8962   4.526   1.231   4.711
 2983SOL     OW 8963   4.409   1.012   4.389
 2983SOL    HW1 8964   4.478   0.996   4.459
 2983SOL    HW2 8965   4.336   1.069   4.427
 2984SOL     OW 8966   3.955   1.713   4.207
 2984SOL    HW1 8967   3.989   1.790   4.261
 2984SOL    HW2 8968   3.999   1.713   4.117
 2985SOL     OW 8969   3.954   1.434   4.262
 2985SOL    HW1 8970   3.928   1.530   4.262
 2985SOL    HW2 8971   3.883   1.380   4.307
 2986SOL     OW 8972   3.964   1.091   4.610
 2986SOL    HW1 8973   3.978   1.007   4.662
 2986SOL    HW2 8974   3.909   1.155   4.665
 2987SOL     OW 8975   4.330   0.964   3.847
 2987SOL    HW1 8976   4.337   1.048   3.793
 2987SOL    HW2 8977   4.376   0.977   3.935
 2988SOL     OW 8978   3.846   0.643   4.287
 2988SOL    HW1 8979   3.801   0.555   4.304
 2988SOL    HW2 8980   3.845   0.697   4.371
 2989SOL     OW 8981   3.751   1.596   3.841
 2989SOL    HW1 8982   3.732   1.500   3.862
 2989SOL    HW2 8983   3.718   1.654   3.916
 2990SOL     OW 8984   4.337   1.365   4.450
 2990SOL    HW1 8985   4.288   1.278   4.459
 2990SOL    HW2 8986   4.314   1.408   4.363
 2991SOL     OW 8987   4.533   0.004   4.226
 2991SOL    HW1 8988   4.573   0.095   4.217
 2991SOL    HW2 8989   4.433   0.012   4.232
 2992SOL     OW 8990   4.322   0.729   3.994
 2992SOL    HW1 8991   4.346   0.798   3.926
 2992SOL    HW2 8992   4.244   0.762   4.048
 2993SOL     OW 8993   3.800   0.811   4.513
 2993SOL    HW1 8994   3.899   0.799   4.522
 2993SOL    HW2 8995   3.776   0.906   4.534
 2994SOL     OW 8996   4.589   0.348   3.919
 2994SOL    HW1 8997   4.648   0.411   3.870
 2994SOL    HW2 8998   4.608   0.254   3.890
 2995SOL     OW 8999   4.732   1.456   4.201
 2995SOL    HW1 9000   4.686   1.528   4.149
 2995SOL    HW2 9001   4.728   1.476   4.299
 2996SOL     OW 9002   4.075   1.801   4.577
 2996SOL    HW1 9003   4.125   1.715   4.583
 2996SOL    HW2 9004   4.140   1.878   4.574
 2997SOL     OW 9005   4.045   0.943   3.966
 2997SOL    HW1 9006   4.127   0.982   3.924
 2997SOL    HW2 9007   4.018   0.861   3.917
 2998SOL     OW 9008   4.188   1.743   4.047
 2998SOL    HW1 9009   4.221   1.782   4.133
 2998SOL    HW2 9010   4.264   1.736   3.982
 2999SOL     OW 9011   3.973   1.785   4.965
 2999SOL    HW1 9012   4.030   1.720   5.015
 2999SOL    HW2 9013   3.957   1.752   4.872
 3000SOL     OW 9014   4.106   0.700   4.204
 3000SOL    HW1 9015   4.151   0.610   4.201
 3000SOL    HW2 9016   4.012   0.689   4.237
 3001SOL     OW 9017   4.338   0.122   3.841
 3001SOL    HW1 9018   4.436   0.100   3.848
 3001SOL    HW2 9019   4.307   0.105   3.748
 3002SOL     OW 9020   4.646   0.503   4.623
 3002SOL    HW1 9021   4.621   0.494   4.527
 3002SOL    HW2 9022   4.694   0.421   4.654
 3003SOL     OW 9023   4.263   0.064   4.236
 3003SOL    HW1 9024   4.182   0.065   4.294
 3003SOL    HW2 9025   4.266   0.147   4.181
 3004SOL     OW 9026   4.021   0.035   3.895
 3004SOL    HW1 9027   4.070   0.119   3.874
 3004SOL    HW2 9028   4.083  -0.030   3.940
 3005SOL     OW 9029   4.951   1.570   4.517
 3005SOL    HW1 9030   4.972   1.644   4.452
 3005SOL    HW2 9031   5.019   1.570   4.590
 3006SOL     OW 9032   4.183   1.152   4.465
 3006SOL    HW1 9033   4.112   1.125   4.530
 3006SOL    HW2 9034   4.157   1.124   4.372
 3007SOL     OW 9035   4.741   0.039   4.477
 3007SOL    HW1 9036   4.669   0.044   4.408
 3007SOL    HW2 9037   4.717  -0.030   4.546
 3008SOL     OW 9038   4.212   1.385   3.898
 3008SOL    HW1 9039   4.125   1.370   3.945
 3008SOL    HW2 9040   4.195   1.411   3.803
 3009SOL     OW 9041   4.251   0.256   4.052
 3009SOL    HW1 9042   4.278   0.197   3.977
 3009SOL    HW2 9043   4.251   0.351   4.021
 3010SOL     OW 9044   4.429   1.050   4.092
 3010SOL    HW1 9045   4.415   1.057   4.191
 3010SOL    HW2 9046   4.513   0.999   4.074
 3011SOL     OW 9047   4.091   1.100   4.225
 3011SOL    HW1 9048   4.084   1.183   4.169
 3011SOL    HW2 9049   4.095   1.020   4.165
 3012SOL     OW 9050   4.290   0.537   4.589
 3012SOL    HW1 9051   4.302   0.603   4.515
 3012SOL    HW2 9052   4.336   0.571   4.672
 3013SOL     OW 9053   4.933   0.525   3.999
 3013SOL    HW1 9054   4.946   0.441   4.053
 3013SOL    HW2 9055   4.904   0.599   4.059
 3014SOL     OW 9056   4.456   0.634   4.788
 3014SOL    HW1 9057   4.515   0.608   4.712
 3014SOL    HW2 9058   4.428   0.730   4.777
 3015SOL     OW 9059   4.031   0.063   4.342
 3015SOL    HW1 9060   4.020   0.157   4.375
 3015SOL    HW2 9061   4.026   0.000   4.419
 3016SOL     OW 9062   4.747   0.766   4.690
 3016SOL    HW1 9063   4.762   0.787   4.786
 3016SOL    HW2 9064   4.717   0.671   4.681
 3017SOL     OW 9065   4.043   0.810   4.673
 3017SOL    HW1 9066   4.136   0.846   4.678
 3017SOL    HW2 9067   4.037   0.725   4.725
 3018SOL     OW 9068   3.732   1.326   3.924
 3018SOL    HW1 9069   3.639   1.347   3.893
 3018SOL    HW2 9070   3.742   1.227   3.937
 3019SOL     OW 9071   3.812   1.801   4.651
 3019SOL    HW1 9072   3.770   1.715   4.624
 3019SOL    HW2 9073   3.906   1.804   4.617
 3020SOL     OW 9074   4.228   1.568   4.634
 3020SOL    HW1 9075   4.294   1.642   4.643
 3020SOL    HW2 9076   4.272   1.489   4.592
 3021SOL     OW 9077   4.726   0.796   4.962
 3021SOL    HW1 9078   4.767   0.764   5.048
 3021SOL    HW2 9079   4.630   0.769   4.959
 3022SOL     OW 9080   4.539   0.572   4.049
 3022SOL    HW1 9081   4.546   0.483   4.003
 3022SOL    HW2 9082   4.445   0.606   4.041
 3023SOL     OW 9083   4.395   0.464   4.993
 3023SOL    HW1 9084   4.361   0.375   4.963
 3023SOL    HW2 9085   4.421   0.518   4.913
 3024SOL     OW 9086   4.197   0.500   3.915
 3024SOL    HW1 9087   4.258   0.580   3.919
 3024SOL    HW2 9088   4.102   0.531   3.922
 3025SOL     OW 9089   4.627   0.086   3.857
 3025SOL    HW1 9090   4.678   0.087   3.771
 3025SOL    HW2 9091   4.683   0.044   3.928
 3026SOL     OW 9092   5.004   0.927   4.396
 3026SOL    HW1 9093   5.064   0.846   4.398
 3026SOL    HW2 9094   5.044   0.996   4.336
 3027SOL     OW 9095   4.396   1.616   3.878
 3027SOL    HW1 9096   4.405   1.626   3.779
 3027SOL    HW2 9097   4.356   1.527   3.899
 3028SOL     OW 9098   3.987   0.326   4.444
 3028SOL    HW1 9099   3.908   0.377   4.410
 3028SOL    HW2 9100   3.978   0.311   4.542
 3029SOL     OW 9101   4.314   1.487   4.215
 3029SOL    HW1 9102   4.356   1.429   4.145
 3029SOL    HW2 9103   4.270   1.566   4.171
 3030SOL     OW 9104   3.979   1.348   4.014
 3030SOL    HW1 9105   3.883   1.349   3.987
 3030SOL    HW2 9106   3.991   1.401   4.098
 3031SOL     OW 9107   3.799   0.345   3.757
 3031SOL    HW1 9108   3.707   0.317   3.728
 3031SOL    HW2 9109   3.830   0.422   3.701
 3032SOL     OW 9110   3.796   0.166   4.042
 3032SOL    HW1 9111   3.779   0.249   3.988
 3032SOL    HW2 9112   3.886   0.129   4.020
 3033SOL     OW 9113   4.949   0.325   4.173
 3033SOL    HW1 9114   5.014   0.251   4.162
 3033SOL    HW2 9115   4.969   0.375   4.257
 3034SOL     OW 9116   4.318   0.745   4.376
 3034SOL    HW1 9117   4.368   0.830   4.357
 3034SOL    HW2 9118   4.230   0.747   4.328
 3035SOL     OW 9119   4.583   1.374   3.740
 3035SOL    HW1 9120   4.537   1.389   3.828
 3035SOL    HW2 9121   4.627   1.459   3.710
 3036SOL     OW 9122   4.385   1.790   4.677
 3036SOL    HW1 9123   4.339   1.878   4.664
 3036SOL    HW2 9124   4.484   1.802   4.670
 3037SOL     OW 9125   4.583   0.956   4.585
 3037SOL    HW1 9126   4.637   0.887   4.633
 3037SOL    HW2 9127   4.551   1.025   4.651
 3038SOL     OW 9128   3.803   1.240   4.377
 3038SOL    HW1 9129   3.802   1.193   4.465
 3038SOL    HW2 9130   3.885   1.212   4.326
 3039SOL     OW 9131   4.152   0.424   4.244
 3039SOL    HW1 9132   4.182   0.352   4.182
 3039SOL    HW2 9133   4.113   0.384   4.327
 3040SOL     OW 9134   4.536   1.586   4.411
 3040SOL    HW1 9135   4.568   1.596   4.317
 3040SOL    HW2 9136   4.457   1.524   4.413
 3041SOL     OW 9137   4.494   1.330   4.025
 3041SOL    HW1 9138   4.448   1.243   4.042
 3041SOL    HW2 9139   4.585   1.327   4.066
 3042SOL     OW 9140   3.763   1.077   4.024
 3042SOL    HW1 9141   3.862   1.066   4.015
 3042SOL    HW2 9142   3.723   0.991   4.056
 3043SOL     OW 9143   4.599   1.646   4.061
 3043SOL    HW1 9144   4.522   1.611   4.007
 3043SOL    HW2 9145   4.567   1.717   4.123
 3044SOL     OW 9146   3.954   2.490   0.113
 3044SOL    HW1 9147   3.861   2.488   0.150
 3044SOL    HW2 9148   3.955   2.451   0.021
 3045SOL     OW 9149   3.949   2.137   0.996
 3045SOL    HW1 9150   3.984   2.120   1.088
 3045SOL    HW2 9151   3.861   2.092   0.984
 3046SOL     OW 9152   3.743   2.230   0.647
 3046SOL    HW1 9153   3.661   2.273   0.686
 3046SOL    HW2 9154   3.715   2.157   0.584
 3047SOL     OW 9155   4.293   3.137   1.165
 3047SOL    HW1 9156   4.200   3.130   1.128
 3047SOL    HW2 9157   4.304   3.226   1.209
 3048SOL     OW 9158   4.492   3.006   1.023
 3048SOL    HW1 9159   4.414   3.023   1.083
 3048SOL    HW2 9160   4.526   3.093   0.987
 3049SOL     OW 9161   4.574   2.660   1.823
 3049SOL    HW1 9162   4.570   2.736   1.888
 3049SOL    HW2 9163   4.596   2.696   1.732
 3050SOL     OW 9164   4.409   2.874   0.665
 3050SOL    HW1 9165   4.478   2.858   0.735
 3050SOL    HW2 9166   4.336   2.931   0.703
 3051SOL     OW 9167   4.410   3.023   1.803
 3051SOL    HW1 9168   4.470   3.102   1.817
 3051SOL    HW2 9169   4.324   3.054   1.762
 3052SOL     OW 9170   4.059   3.297   1.061
 3052SOL    HW1 9171   3.981   3.266   1.008
 3052SOL    HW2 9172   4.117   3.355   1.004
 3053SOL     OW 9173   4.162   2.254   1.499
 3053SOL    HW1 9174   4.244   2.198   1.508
 3053SOL    HW2 9175   4.081   2.196   1.503
 3054SOL     OW 9176   3.955   3.575   0.483
 3054SOL    HW1 9177   3.989   3.652   0.537
 3054SOL    HW2 9178   3.999   3.575   0.393
 3055SOL     OW 9179   3.954   3.296   0.538
 3055SOL    HW1 9180   3.928   3.392   0.538
 3055SOL    HW2 9181   3.883   3.242   0.583
 3056SOL     OW 9182   3.964   2.953   0.886
 3056SOL    HW1 9183   3.978   2.869   0.938
 3056SOL    HW2 9184   3.909   3.017   0.941
 3057SOL     OW 9185   4.344   3.648   1.439
 3057SOL    HW1 9186   4.252   3.631   1.474
 3057SOL    HW2 9187   4.372   3.740   1.465
 3058SOL     OW 9188   4.330   2.826   0.123
 3058SOL    HW1 9189   4.337   2.910   0.069
 3058SOL    HW2 9190   4.376   2.839   0.211
 3059SOL     OW 9191   3.846   2.505   0.563
 3059SOL    HW1 9192   3.801   2.417   0.580
 3059SOL    HW2 9193   3.845   2.559   0.647
 3060SOL     OW 9194   3.751   3.458   0.117
 3060SOL    HW1 9195   3.732   3.362   0.138
 3060SOL    HW2 9196   3.718   3.516   0.192
 3061SOL     OW 9197   3.837   2.599   1.597
 3061SOL    HW1 9198   3.925   2.586   1.642
 3061SOL    HW2 9199   3.824   2.696   1.575
 3062SOL     OW 9200   4.337   3.227   0.726
 3062SOL    HW1 9201   4.288   3.140   0.735
 3062SOL    HW2 9202   4.314   3.270   0.639
 3063SOL     OW 9203   4.533   1.866   0.502
 3063SOL    HW1 9204   4.573   1.957   0.493
 3063SOL    HW2 9205   4.433   1.874   0.508
 3064SOL     OW 9206   3.921   2.838   1.264
 3064SOL    HW1 9207   4.010   2.793   1.250
 3064SOL    HW2 9208   3.848   2.773   1.245
 3065SOL     OW 9209   4.041   2.113   1.801
 3065SOL    HW1 9210   4.112   2.184   1.807
 3065SOL    HW2 9211   3.953   2.152   1.829
 3066SOL     OW 9212   4.322   2.591   0.270
 3066SOL    HW1 9213   4.346   2.660   0.202
 3066SOL    HW2 9214   4.244   2.624   0.324
 3067SOL     OW 9215   4.531   2.467   1.465
 3067SOL    HW1 9216   4.484   2.464   1.554
 3067SOL    HW2 9217   4.480   2.412   1.399
 3068SOL     OW 9218   4.715   2.272   1.242
 3068SOL    HW1 9219   4.638   2.306   1.296
 3068SOL    HW2 9220   4.681   2.221   1.163
 3069SOL     OW 9221   3.800   2.673   0.789
 3069SOL    HW1 9222   3.899   2.661   0.798
 3069SOL    HW2 9223   3.776   2.768   0.810
 3070SOL     OW 9224   3.854   3.683   1.571
 3070SOL    HW1 9225   3.844   3.668   1.670
 3070SOL    HW2 9226   3.768   3.719   1.535
 3071SOL     OW 9227   4.589   2.210   0.195
 3071SOL    HW1 9228   4.648   2.273   0.146
 3071SOL    HW2 9229   4.608   2.116   0.166
 3072SOL     OW 9230   4.274   2.058   0.885
 3072SOL    HW1 9231   4.269   2.053   0.985
 3072SOL    HW2 9232   4.276   2.154   0.856
 3073SOL     OW 9233   4.732   3.318   0.477
 3073SOL    HW1 9234   4.686   3.390   0.425
 3073SOL    HW2 9235   4.728   3.338   0.575
 3074SOL     OW 9236   4.075   3.663   0.853
 3074SOL    HW1 9237   4.125   3.577   0.859
 3074SOL    HW2 9238   4.140   3.740   0.850
 3075SOL     OW 9239   4.045   2.805   0.242
 3075SOL    HW1 9240   4.127   2.844   0.200
 3075SOL    HW2 9241   4.018   2.723   0.193
 3076SOL     OW 9242   4.185   3.128   1.727
 3076SOL    HW1 9243   4.135   3.129   1.641
 3076SOL    HW2 9244   4.122   3.110   1.803
 3077SOL     OW 9245   3.926   2.147   1.498
 3077SOL    HW1 9246   3.846   2.207   1.485
 3077SOL    HW2 9247   3.916   2.098   1.584
 3078SOL     OW 9248   4.188   3.605   0.323
 3078SOL    HW1 9249   4.221   3.644   0.409
 3078SOL    HW2 9250   4.264   3.598   0.258
 3079SOL     OW 9251   3.973   3.647   1.241
 3079SOL    HW1 9252   4.030   3.582   1.291
 3079SOL    HW2 9253   3.957   3.614   1.148
 3080SOL     OW 9254   4.106   2.562   0.480
 3080SOL    HW1 9255   4.151   2.472   0.477
 3080SOL    HW2 9256   4.012   2.551   0.513
 3081SOL     OW 9257   4.338   1.984   0.117
 3081SOL    HW1 9258   4.436   1.962   0.124
 3081SOL    HW2 9259   4.307   1.967   0.024
 3082SOL     OW 9260   4.505   2.126   1.749
 3082SOL    HW1 9261   4.572   2.065   1.792
 3082SOL    HW2 9262   4.432   2.145   1.814
 3083SOL     OW 9263   4.612   3.376   1.195
 3083SOL    HW1 9264   4.589   3.351   1.101
 3083SOL    HW2 9265   4.673   3.307   1.234
 3084SOL     OW 9266   4.527   3.264   0.924
 3084SOL    HW1 9267   4.617   3.278   0.882
 3084SOL    HW2 9268   4.456   3.266   0.853
 3085SOL     OW 9269   4.646   2.365   0.899
 3085SOL    HW1 9270   4.621   2.356   0.803
 3085SOL    HW2 9271   4.694   2.283   0.930
 3086SOL     OW 9272   4.263   1.926   0.512
 3086SOL    HW1 9273   4.182   1.927   0.570
 3086SOL    HW2 9274   4.266   2.009   0.457
 3087SOL     OW 9275   4.951   3.432   0.793
 3087SOL    HW1 9276   4.972   3.506   0.728
 3087SOL    HW2 9277   5.019   3.432   0.866
 3088SOL     OW 9278   4.183   3.014   0.741
 3088SOL    HW1 9279   4.112   2.987   0.806
 3088SOL    HW2 9280   4.157   2.986   0.648
 3089SOL     OW 9281   3.802   2.418   1.386
 3089SOL    HW1 9282   3.894   2.417   1.345
 3089SOL    HW2 9283   3.796   2.492   1.453
 3090SOL     OW 9284   4.285   2.084   1.147
 3090SOL    HW1 9285   4.323   2.000   1.184
 3090SOL    HW2 9286   4.197   2.103   1.191
 3091SOL     OW 9287   4.741   1.901   0.753
 3091SOL    HW1 9288   4.669   1.906   0.684
 3091SOL    HW2 9289   4.717   1.832   0.822
 3092SOL     OW 9290   4.212   3.247   0.174
 3092SOL    HW1 9291   4.125   3.232   0.221
 3092SOL    HW2 9292   4.195   3.273   0.079
 3093SOL     OW 9293   4.251   2.118   0.328
 3093SOL    HW1 9294   4.278   2.059   0.253
 3093SOL    HW2 9295   4.251   2.213   0.297
 3094SOL     OW 9296   4.639   1.951   1.402
 3094SOL    HW1 9297   4.664   1.931   1.307
 3094SOL    HW2 9298   4.711   2.007   1.444
 3095SOL     OW 9299   4.704   2.978   1.719
 3095SOL    HW1 9300   4.605   2.984   1.729
 3095SOL    HW2 9301   4.727   2.898   1.663
 3096SOL     OW 9302   4.429   2.912   0.368
 3096SOL    HW1 9303   4.415   2.919   0.467
 3096SOL    HW2 9304   4.513   2.861   0.350
 3097SOL     OW 9305   4.134   2.675   1.251
 3097SOL    HW1 9306   4.220   2.687   1.301
 3097SOL    HW2 9307   4.092   2.588   1.278
 3098SOL     OW 9308   3.788   3.426   1.331
 3098SOL    HW1 9309   3.742   3.508   1.297
 3098SOL    HW2 9310   3.886   3.445   1.340
 3099SOL     OW 9311   4.091   2.962   0.501
 3099SOL    HW1 9312   4.084   3.045   0.445
 3099SOL    HW2 9313   4.095   2.882   0.441
 3100SOL     OW 9314   4.290   2.399   0.865
 3100SOL    HW1 9315   4.302   2.465   0.791
 3100SOL    HW2 9316   4.336   2.433   0.948
 3101SOL     OW 9317   4.078   3.372   1.329
 3101SOL    HW1 9318   4.057   3.328   1.242
 3101SOL    HW2 9319   4.175   3.398   1.332
 3102SOL     OW 9320   4.126   2.613   1.598
 3102SOL    HW1 9321   4.194   2.668   1.551
 3102SOL    HW2 9322   4.166   2.525   1.625
 3103SOL     OW 9323   4.737   1.967   1.770
 3103SOL    HW1 9324   4.743   2.052   1.718
 3103SOL    HW2 9325   4.769   1.891   1.713
 3104SOL     OW 9326   4.228   1.912   1.740
 3104SOL    HW1 9327   4.186   1.855   1.670
 3104SOL    HW2 9328   4.162   1.981   1.772
 3105SOL     OW 9329   4.297   2.732   1.029
 3105SOL    HW1 9330   4.341   2.821   1.020
 3105SOL    HW2 9331   4.234   2.732   1.106
 3106SOL     OW 9332   4.933   2.387   0.275
 3106SOL    HW1 9333   4.946   2.303   0.329
 3106SOL    HW2 9334   4.904   2.461   0.335
 3107SOL     OW 9335   4.031   2.075   1.231
 3107SOL    HW1 9336   4.008   2.112   1.321
 3107SOL    HW2 9337   4.001   1.980   1.225
 3108SOL     OW 9338   3.761   3.172   1.282
 3108SOL    HW1 9339   3.814   3.123   1.350
 3108SOL    HW2 9340   3.783   3.270   1.287
 3109SOL     OW 9341   4.456   2.496   1.064
 3109SOL    HW1 9342   4.515   2.470   0.988
 3109SOL    HW2 9343   4.428   2.592   1.053
 3110SOL     OW 9344   4.031   1.925   0.618
 3110SOL    HW1 9345   4.020   2.019   0.651
 3110SOL    HW2 9346   4.026   1.862   0.695
 3111SOL     OW 9347   4.747   2.628   0.966
 3111SOL    HW1 9348   4.762   2.649   1.062
 3111SOL    HW2 9349   4.717   2.533   0.957
 3112SOL     OW 9350   4.704   3.435   1.700
 3112SOL    HW1 9351   4.684   3.479   1.612
 3112SOL    HW2 9352   4.743   3.344   1.684
 3113SOL     OW 9353   4.074   2.760   1.804
 3113SOL    HW1 9354   4.150   2.804   1.852
 3113SOL    HW2 9355   4.109   2.713   1.722
 3114SOL     OW 9356   4.043   2.672   0.949
 3114SOL    HW1 9357   4.136   2.708   0.954
 3114SOL    HW2 9358   4.037   2.587   1.001
 3115SOL     OW 9359   4.063   2.371   1.006
 3115SOL    HW1 9360   4.011   2.288   0.989
 3115SOL    HW2 9361   4.140   2.376   0.942
 3116SOL     OW 9362   3.732   3.188   0.200
 3116SOL    HW1 9363   3.639   3.209   0.169
 3116SOL    HW2 9364   3.742   3.089   0.213
 3117SOL     OW 9365   3.812   3.663   0.927
 3117SOL    HW1 9366   3.770   3.577   0.900
 3117SOL    HW2 9367   3.906   3.666   0.893
 3118SOL     OW 9368   4.228   3.430   0.910
 3118SOL    HW1 9369   4.294   3.504   0.919
 3118SOL    HW2 9370   4.272   3.351   0.868
 3119SOL     OW 9371   4.726   2.658   1.238
 3119SOL    HW1 9372   4.767   2.626   1.324
 3119SOL    HW2 9373   4.630   2.631   1.235
 3120SOL     OW 9374   3.764   2.406   1.114
 3120SOL    HW1 9375   3.849   2.373   1.073
 3120SOL    HW2 9376   3.777   2.421   1.212
 3121SOL     OW 9377   3.913   2.382   1.722
 3121SOL    HW1 9378   3.972   2.342   1.652
 3121SOL    HW2 9379   3.855   2.453   1.681
 3122SOL     OW 9380   4.539   2.434   0.325
 3122SOL    HW1 9381   4.546   2.345   0.279
 3122SOL    HW2 9382   4.445   2.468   0.317
 3123SOL     OW 9383   3.976   3.426   1.744
 3123SOL    HW1 9384   3.946   3.483   1.820
 3123SOL    HW2 9385   3.969   3.329   1.770
 3124SOL     OW 9386   4.395   2.326   1.269
 3124SOL    HW1 9387   4.361   2.237   1.239
 3124SOL    HW2 9388   4.421   2.380   1.189
 3125SOL     OW 9389   4.654   3.540   1.465
 3125SOL    HW1 9390   4.630   3.522   1.370
 3125SOL    HW2 9391   4.684   3.634   1.475
 3126SOL     OW 9392   4.197   2.362   0.191
 3126SOL    HW1 9393   4.258   2.442   0.195
 3126SOL    HW2 9394   4.102   2.393   0.198
 3127SOL     OW 9395   3.883   2.999   1.466
 3127SOL    HW1 9396   3.905   2.938   1.542
 3127SOL    HW2 9397   3.893   2.950   1.380
 3128SOL     OW 9398   3.807   3.120   1.022
 3128SOL    HW1 9399   3.802   3.119   1.122
 3128SOL    HW2 9400   3.724   3.079   0.984
 3129SOL     OW 9401   4.412   3.524   1.716
 3129SOL    HW1 9402   4.356   3.605   1.725
 3129SOL    HW2 9403   4.464   3.528   1.630
 3130SOL     OW 9404   4.627   1.948   0.133
 3130SOL    HW1 9405   4.678   1.949   0.047
 3130SOL    HW2 9406   4.683   1.906   0.204
 3131SOL     OW 9407   3.854   3.656   1.851
 3131SOL    HW1 9408   3.813   3.582   1.904
 3131SOL    HW2 9409   3.918   3.707   1.909
 3132SOL     OW 9410   5.004   2.789   0.672
 3132SOL    HW1 9411   5.064   2.708   0.674
 3132SOL    HW2 9412   5.044   2.858   0.612
 3133SOL     OW 9413   4.554   3.135   1.422
 3133SOL    HW1 9414   4.549   3.168   1.517
 3133SOL    HW2 9415   4.468   3.154   1.376
 3134SOL     OW 9416   4.396   3.478   0.154
 3134SOL    HW1 9417   4.405   3.488   0.055
 3134SOL    HW2 9418   4.356   3.389   0.175
 3135SOL     OW 9419   3.987   2.188   0.720
 3135SOL    HW1 9420   3.908   2.239   0.686
 3135SOL    HW2 9421   3.978   2.173   0.818
 3136SOL     OW 9422   4.546   2.864   1.372
 3136SOL    HW1 9423   4.586   2.863   1.280
 3136SOL    HW2 9424   4.556   2.956   1.412
 3137SOL     OW 9425   4.096   3.150   1.490
 3137SOL    HW1 9426   4.083   3.243   1.456
 3137SOL    HW2 9427   4.012   3.098   1.477
 3138SOL     OW 9428   4.738   2.098   0.971
 3138SOL    HW1 9429   4.730   2.062   0.878
 3138SOL    HW2 9430   4.736   2.022   1.036
 3139SOL     OW 9431   4.314   3.349   0.491
 3139SOL    HW1 9432   4.356   3.291   0.421
 3139SOL    HW2 9433   4.270   3.428   0.447
 3140SOL     OW 9434   3.979   3.210   0.290
 3140SOL    HW1 9435   3.883   3.211   0.263
 3140SOL    HW2 9436   3.991   3.263   0.374
 3141SOL     OW 9437   3.829   2.875   1.726
 3141SOL    HW1 9438   3.752   2.842   1.780
 3141SOL    HW2 9439   3.914   2.845   1.768
 3142SOL     OW 9440   4.396   2.065   1.489
 3142SOL    HW1 9441   4.486   2.049   1.449
 3142SOL    HW2 9442   4.404   2.070   1.588
 3143SOL     OW 9443   3.799   2.207   0.033
 3143SOL    HW1 9444   3.707   2.179   0.004
 3143SOL    HW2 9445   3.830   2.284  -0.023
 3144SOL     OW 9446   4.337   2.704   1.431
 3144SOL    HW1 9447   4.393   2.785   1.414
 3144SOL    HW2 9448   4.396   2.624   1.434
 3145SOL     OW 9449   4.440   2.427   1.708
 3145SOL    HW1 9450   4.459   2.492   1.782
 3145SOL    HW2 9451   4.500   2.347   1.717
 3146SOL     OW 9452   4.114   3.603   1.560
 3146SOL    HW1 9453   4.023   3.644   1.558
 3146SOL    HW2 9454   4.107   3.509   1.592
 3147SOL     OW 9455   4.949   2.187   0.449
 3147SOL    HW1 9456   5.014   2.113   0.438
 3147SOL    HW2 9457   4.969   2.237   0.533
 3148SOL     OW 9458   4.318   2.607   0.652
 3148SOL    HW1 9459   4.368   2.692   0.633
 3148SOL    HW2 9460   4.230   2.609   0.604
 3149SOL     OW 9461   4.583   3.236   0.016
 3149SOL    HW1 9462   4.537   3.251   0.104
 3149SOL    HW2 9463   4.627   3.321  -0.014
 3150SOL     OW 9464   4.385   3.652   0.953
 3150SOL    HW1 9465   4.339   3.740   0.940
 3150SOL    HW2 9466   4.484   3.664   0.946
 3151SOL     OW 9467   4.583   2.818   0.861
 3151SOL    HW1 9468   4.637   2.749   0.909
 3151SOL    HW2 9469   4.551   2.887   0.927
 3152SOL     OW 9470   4.807   2.846   0.087
 3152SOL    HW1 9471   4.784   2.899   0.005
 3152SOL    HW2 9472   4.888   2.790   0.068
 3153SOL     OW 9473   3.945   3.176   1.844
 3153SOL    HW1 9474   3.880   3.103   1.823
 3153SOL    HW2 9475   3.949   3.190   1.942
 3154SOL     OW 9476   3.803   3.102   0.653
 3154SOL    HW1 9477   3.802   3.055   0.741
 3154SOL    HW2 9478   3.885   3.074   0.602
 3155SOL     OW 9479   4.396   3.253   1.624
 3155SOL    HW1 9480   4.318   3.203   1.662
 3155SOL    HW2 9481   4.393   3.348   1.655
 3156SOL     OW 9482   4.152   2.286   0.520
 3156SOL    HW1 9483   4.182   2.214   0.458
 3156SOL    HW2 9484   4.113   2.246   0.603
 3157SOL     OW 9485   4.041   2.409   1.280
 3157SOL    HW1 9486   4.079   2.350   1.352
 3157SOL    HW2 9487   4.081   2.383   1.192
 3158SOL     OW 9488   4.536   3.448   0.687
 3158SOL    HW1 9489   4.568   3.458   0.593
 3158SOL    HW2 9490   4.457   3.386   0.689
 3159SOL     OW 9491   4.725   1.896   1.154
 3159SOL    HW1 9492   4.662   1.824   1.123
 3159SOL    HW2 9493   4.818   1.860   1.154
 3160SOL     OW 9494   4.494   3.192   0.301
 3160SOL    HW1 9495   4.448   3.105   0.318
 3160SOL    HW2 9496   4.585   3.189   0.342
 3161SOL     OW 9497   4.342   3.429   1.284
 3161SOL    HW1 9498   4.337   3.511   1.341
 3161SOL    HW2 9499   4.431   3.426   1.239
 3162SOL     OW 9500   3.763   2.939   0.300
 3162SOL    HW1 9501   3.862   2.928   0.291
 3162SOL    HW2 9502   3.723   2.853   0.332
 3163SOL     OW 9503   4.599   3.508   0.337
 3163SOL    HW1 9504   4.522   3.473   0.283
 3163SOL    HW2 9505   4.567   3.579   0.399
 3164SOL     OW 9506   3.954   2.490   1.975
 3164SOL    HW1 9507   3.861   2.488   2.012
 3164SOL    HW2 9508   3.955   2.451   1.883
 3165SOL     OW 9509   3.949   2.137   2.858
 3165SOL    HW1 9510   3.984   2.120   2.950
 3165SOL    HW2 9511   3.861   2.092   2.846
 3166SOL     OW 9512   3.743   2.230   2.509
 3166SOL    HW1 9513   3.661   2.273   2.548
 3166SOL    HW2 9514   3.715   2.157   2.446
 3167SOL     OW 9515   4.293   3.137   3.027
 3167SOL    HW1 9516   4.200   3.130   2.990
 3167SOL    HW2 9517   4.304   3.226   3.071
 3168SOL     OW 9518   4.492   3.006   2.885
 3168SOL    HW1 9519   4.414   3.023   2.945
 3168SOL    HW2 9520   4.526   3.093   2.849
 3169SOL     OW 9521   4.574   2.660   3.685
 3169SOL    HW1 9522   4.570   2.736   3.750
 3169SOL    HW2 9523   4.596   2.696   3.594
 3170SOL     OW 9524   4.409   2.874   2.527
 3170SOL    HW1 9525   4.478   2.858   2.597
 3170SOL    HW2 9526   4.336   2.931   2.565
 3171SOL     OW 9527   4.410   3.023   3.665
 3171SOL    HW1 9528   4.470   3.102   3.679
 3171SOL    HW2 9529   4.324   3.054   3.624
 3172SOL     OW 9530   4.059   3.297   2.923
 3172SOL    HW1 9531   3.981   3.266   2.870
 3172SOL    HW2 9532   4.117   3.355   2.866
 3173SOL     OW 9533   4.162   2.254   3.361
 3173SOL    HW1 9534   4.244   2.198   3.370
 3173SOL    HW2 9535   4.081   2.196   3.365
 3174SOL     OW 9536   3.955   3.575   2.345
 3174SOL    HW1 9537   3.989   3.652   2.399
 3174SOL    HW2 9538   3.999   3.575   2.255
 3175SOL     OW 9539   3.954   3.296   2.400
 3175SOL    HW1 9540   3.928   3.392   2.400
 3175SOL    HW2 9541   3.883   3.242   2.445
 3176SOL     OW 9542   3.964   2.953   2.748
 3176SOL    HW1 9543   3.978   2.869   2.800
 3176SOL    HW2 9544   3.909   3.017   2.803
 3177SOL     OW 9545   4.344   3.648   3.301
 3177SOL    HW1 9546   4.252   3.631   3.336
 3177SOL    HW2 9547   4.372   3.740   3.327
 3178SOL     OW 9548   4.330   2.826   1.985
 3178SOL    HW1 9549   4.337   2.910   1.931
 3178SOL    HW2 9550   4.376   2.839   2.073
 3179SOL     OW 9551   3.846   2.505   2.425
 3179SOL    HW1 9552   3.801   2.417   2.442
 3179SOL    HW2 9553   3.845   2.559   2.509
 3180SOL     OW 9554   3.751   3.458   1.979
 3180SOL    HW1 9555   3.732   3.362   2.000
 3180SOL    HW2 9556   3.718   3.516   2.054
 3181SOL     OW 9557   3.837   2.599   3.459
 3181SOL    HW1 9558   3.925   2.586   3.504
 3181SOL    HW2 9559   3.824   2.696   3.437
 3182SOL     OW 9560   4.337   3.227   2.588
 3182SOL    HW1 9561   4.288   3.140   2.597
 3182SOL    HW2 9562   4.314   3.270   2.501
 3183SOL     OW 9563   4.533   1.866   2.364
 3183SOL    HW1 9564   4.573   1.957   2.355
 3183SOL    HW2 9565   4.433   1.874   2.370
 3184SOL     OW 9566   3.921   2.838   3.126
 3184SOL    HW1 9567   4.010   2.793   3.112
 3184SOL    HW2 9568   3.848   2.773   3.107
 3185SOL     OW 9569   4.041   2.113   3.663
 3185SOL    HW1 9570   4.112   2.184   3.669
 3185SOL    HW2 9571   3.953   2.152   3.691
 3186SOL     OW 9572   4.322   2.591   2.132
 3186SOL    HW1 9573   4.346   2.660   2.064
 3186SOL    HW2 9574   4.244   2.624   2.186
 3187SOL     OW 9575   4.531   2.467   3.327
 3187SOL    HW1 9576   4.484   2.464   3.416
 3187SOL    HW2 9577   4.480   2.412   3.261
 3188SOL     OW 9578   4.715   2.272   3.104
 3188SOL    HW1 9579   4.638   2.306   3.158
 3188SOL    HW2 9580   4.681   2.221   3.025
 3189SOL     OW 9581   3.800   2.673   2.651
 3189SOL    HW1 9582   3.899   2.661   2.660
 3189SOL    HW2 9583   3.776   2.768   2.672
 3190SOL     OW 9584   3.854   3.683   3.433
 3190SOL    HW1 9585   3.844   3.668   3.532
 3190SOL    HW2 9586   3.768   3.719   3.397
 3191SOL     OW 9587   4.589   2.210   2.057
 3191SOL    HW1 9588   4.648   2.273   2.008
 3191SOL    HW2 9589   4.608   2.116   2.028
 3192SOL     OW 9590   4.274   2.058   2.747
 3192SOL    HW1 9591   4.269   2.053   2.847
 3192SOL    HW2 9592   4.276   2.154   2.718
 3193SOL     OW 9593   4.732   3.318   2.339
 3193SOL    HW1 9594   4.686   3.390   2.287
 3193SOL    HW2 9595   4.728   3.338   2.437
 3194SOL     OW 9596   4.075   3.663   2.715
 3194SOL    HW1 9597   4.125   3.577   2.721
 3194SOL    HW2 9598   4.140   3.740   2.712
 3195SOL     OW 9599   4.045   2.805   2.104
 3195SOL    HW1 9600   4.127   2.844   2.062
 3195SOL    HW2 9601   4.018   2.723   2.055
 3196SOL     OW 9602   4.185   3.128   3.589
 3196SOL    HW1 9603   4.135   3.129   3.503
 3196SOL    HW2 9604   4.122   3.110   3.665
 3197SOL     OW 9605   3.926   2.147   3.360
 3197SOL    HW1 9606   3.846   2.207   3.347
 3197SOL    HW2 9607   3.916   2.098   3.446
 3198SOL     OW 9608   4.188   3.605   2.185
 3198SOL    HW1 9609   4.221   3.644   2.271
 3198SOL    HW2 9610   4.264   3.598   2.120
 3199SOL     OW 9611   3.973   3.647   3.103
 3199SOL    HW1 9612   4.030   3.582   3.153
 3199SOL    HW2 9613   3.957   3.614   3.010
 3200SOL     OW 9614   4.106   2.562   2.342
 3200SOL    HW1 9615   4.151   2.472   2.339
 3200SOL    HW2 9616   4.012   2.551   2.375
 3201SOL     OW 9617   4.338   1.984   1.979
 3201SOL    HW1 9618   4.436   1.962   1.986
 3201SOL    HW2 9619   4.307   1.967   1.886
 3202SOL     OW 9620   4.505   2.126   3.611
 3202SOL    HW1 9621   4.572   2.065   3.654
 3202SOL    HW2 9622   4.432   2.145   3.676
 3203SOL     OW 9623   4.612   3.376   3.057
 3203SOL    HW1 9624   4.589   3.351   2.963
 3203SOL    HW2 9625   4.673   3.307   3.096
 3204SOL     OW 9626   4.527   3.264   2.786
 3204SOL    HW1 9627   4.617   3.278   2.744
 3204SOL    HW2 9628   4.456   3.266   2.715
 3205SOL     OW 9629   4.646   2.365   2.761
 3205SOL    HW1 9630   4.621   2.356   2.665
 3205SOL    HW2 9631   4.694   2.283   2.792
 3206SOL     OW 9632   4.263   1.926   2.374
 3206SOL    HW1 9633   4.182   1.927   2.432
 3206SOL    HW2 9634   4.266   2.009   2.319
 3207SOL     OW 9635   4.021   1.897   2.033
 3207SOL    HW1 9636   4.070   1.981   2.012
 3207SOL    HW2 9637   4.083   1.832   2.078
 3208SOL     OW 9638   4.951   3.432   2.655
 3208SOL    HW1 9639   4.972   3.506   2.590
 3208SOL    HW2 9640   5.019   3.432   2.728
 3209SOL     OW 9641   4.183   3.014   2.603
 3209SOL    HW1 9642   4.112   2.987   2.668
 3209SOL    HW2 9643   4.157   2.986   2.510
 3210SOL     OW 9644   3.802   2.418   3.248
 3210SOL    HW1 9645   3.894   2.417   3.207
 3210SOL    HW2 9646   3.796   2.492   3.315
 3211SOL     OW 9647   4.285   2.084   3.009
 3211SOL    HW1 9648   4.323   2.000   3.046
 3211SOL    HW2 9649   4.197   2.103   3.053
 3212SOL     OW 9650   4.741   1.901   2.615
 3212SOL    HW1 9651   4.669   1.906   2.546
 3212SOL    HW2 9652   4.717   1.832   2.684
 3213SOL     OW 9653   4.212   3.247   2.036
 3213SOL    HW1 9654   4.125   3.232   2.083
 3213SOL    HW2 9655   4.195   3.273   1.941
 3214SOL     OW 9656   4.251   2.118   2.190
 3214SOL    HW1 9657   4.278   2.059   2.115
 3214SOL    HW2 9658   4.251   2.213   2.159
 3215SOL     OW 9659   4.639   1.951   3.264
 3215SOL    HW1 9660   4.664   1.931   3.169
 3215SOL    HW2 9661   4.711   2.007   3.306
 3216SOL     OW 9662   4.704   2.978   3.581
 3216SOL    HW1 9663   4.605   2.984   3.591
 3216SOL    HW2 9664   4.727   2.898   3.525
 3217SOL     OW 9665   4.429   2.912   2.230
 3217SOL    HW1 9666   4.415   2.919   2.329
 3217SOL    HW2 9667   4.513   2.861   2.212
 3218SOL     OW 9668   4.134   2.675   3.113
 3218SOL    HW1 9669   4.220   2.687   3.163
 3218SOL    HW2 9670   4.092   2.588   3.140
 3219SOL     OW 9671   3.788   3.426   3.193
 3219SOL    HW1 9672   3.742   3.508   3.159
 3219SOL    HW2 9673   3.886   3.445   3.202
 3220SOL     OW 9674   4.091   2.962   2.363
 3220SOL    HW1 9675   4.084   3.045   2.307
 3220SOL    HW2 9676   4.095   2.882   2.303
 3221SOL     OW 9677   4.290   2.399   2.727
 3221SOL    HW1 9678   4.302   2.465   2.653
 3221SOL    HW2 9679   4.336   2.433   2.810
 3222SOL     OW 9680   4.078   3.372   3.191
 3222SOL    HW1 9681   4.057   3.328   3.104
 3222SOL    HW2 9682   4.175   3.398   3.194
 3223SOL     OW 9683   4.126   2.613   3.460
 3223SOL    HW1 9684   4.194   2.668   3.413
 3223SOL    HW2 9685   4.166   2.525   3.487
 3224SOL     OW 9686   4.737   1.967   3.632
 3224SOL    HW1 9687   4.743   2.052   3.580
 3224SOL    HW2 9688   4.769   1.891   3.575
 3225SOL     OW 9689   4.228   1.912   3.602
 3225SOL    HW1 9690   4.186   1.855   3.532
 3225SOL    HW2 9691   4.162   1.981   3.634
 3226SOL     OW 9692   4.297   2.732   2.891
 3226SOL    HW1 9693   4.341   2.821   2.882
 3226SOL    HW2 9694   4.234   2.732   2.968
 3227SOL     OW 9695   4.933   2.387   2.137
 3227SOL    HW1 9696   4.946   2.303   2.191
 3227SOL    HW2 9697   4.904   2.461   2.197
 3228SOL     OW 9698   4.031   2.075   3.093
 3228SOL    HW1 9699   4.008   2.112   3.183
 3228SOL    HW2 9700   4.001   1.980   3.087
 3229SOL     OW 9701   3.761   3.172   3.144
 3229SOL    HW1 9702   3.814   3.123   3.212
 3229SOL    HW2 9703   3.783   3.270   3.149
 3230SOL     OW 9704   4.456   2.496   2.926
 3230SOL    HW1 9705   4.515   2.470   2.850
 3230SOL    HW2 9706   4.428   2.592   2.915
 3231SOL     OW 9707   4.031   1.925   2.480
 3231SOL    HW1 9708   4.020   2.019   2.513
 3231SOL    HW2 9709   4.026   1.862   2.557
 3232SOL     OW 9710   4.747   2.628   2.828
 3232SOL    HW1 9711   4.762   2.649   2.924
 3232SOL    HW2 9712   4.717   2.533   2.819
 3233SOL     OW 9713   4.704   3.435   3.562
 3233SOL    HW1 9714   4.684   3.479   3.474
 3233SOL    HW2 9715   4.743   3.344   3.546
 3234SOL     OW 9716   4.074   2.760   3.666
 3234SOL    HW1 9717   4.150   2.804   3.714
 3234SOL    HW2 9718   4.109   2.713   3.584
 3235SOL     OW 9719   4.043   2.672   2.811
 3235SOL    HW1 9720   4.136   2.708   2.816
 3235SOL    HW2 9721   4.037   2.587   2.863
 3236SOL     OW 9722   4.063   2.371   2.868
 3236SOL    HW1 9723   4.011   2.288   2.851
 3236SOL    HW2 9724   4.140   2.376   2.804
 3237SOL     OW 9725   3.732   3.188   2.062
 3237SOL    HW1 9726   3.639   3.209   2.031
 3237SOL    HW2 9727   3.742   3.089   2.075
 3238SOL     OW 9728   3.812   3.663   2.789
 3238SOL    HW1 9729   3.770   3.577   2.762
 3238SOL    HW2 9730   3.906   3.666   2.755
 3239SOL     OW 9731   4.228   3.430   2.772
 3239SOL    HW1 9732   4.294   3.504   2.781
 3239SOL    HW2 9733   4.272   3.351   2.730
 3240SOL     OW 9734   4.726   2.658   3.100
 3240SOL    HW1 9735   4.767   2.626   3.186
 3240SOL    HW2 9736   4.630   2.631   3.097
 3241SOL     OW 9737   3.764   2.406   2.976
 3241SOL    HW1 9738   3.849   2.373   2.935
 3241SOL    HW2 9739   3.777   2.421   3.074
 3242SOL     OW 9740   3.913   2.382   3.584
 3242SOL    HW1 9741   3.972   2.342   3.514
 3242SOL    HW2 9742   3.855   2.453   3.543
 3243SOL     OW 9743   4.539   2.434   2.187
 3243SOL    HW1 9744   4.546   2.345   2.141
 3243SOL    HW2 9745   4.445   2.468   2.179
 3244SOL     OW 9746   3.976   3.426   3.606
 3244SOL    HW1 9747   3.946   3.483   3.682
 3244SOL    HW2 9748   3.969   3.329   3.632
 3245SOL     OW 9749   4.395   2.326   3.131
 3245SOL    HW1 9750   4.361   2.237   3.101
 3245SOL    HW2 9751   4.421   2.380   3.051
 3246SOL     OW 9752   4.654   3.540   3.327
 3246SOL    HW1 9753   4.630   3.522   3.232
 3246SOL    HW2 9754   4.684   3.634   3.337
 3247SOL     OW 9755   4.197   2.362   2.053
 3247SOL    HW1 9756   4.258   2.442   2.057
 3247SOL    HW2 9757   4.102   2.393   2.060
 3248SOL     OW 9758   3.883   2.999   3.328
 3248SOL    HW1 9759   3.905   2.938   3.404
 3248SOL    HW2 9760   3.893   2.950   3.242
 3249SOL     OW 9761   3.807   3.120   2.884
 3249SOL    HW1 9762   3.802   3.119   2.984
 3249SOL    HW2 9763   3.724   3.079   2.846
 3250SOL     OW 9764   4.412   3.524   3.578
 3250SOL    HW1 9765   4.356   3.605   3.587
 3250SOL    HW2 9766   4.464   3.528   3.492
 3251SOL     OW 9767   3.854   3.656   3.713
 3251SOL    HW1 9768   3.813   3.582   3.766
 3251SOL    HW2 9769   3.918   3.707   3.771
 3252SOL     OW 9770   5.004   2.789   2.534
 3252SOL    HW1 9771   5.064   2.708   2.536
 3252SOL    HW2 9772   5.044   2.858   2.474
 3253SOL     OW 9773   4.554   3.135   3.284
 3253SOL    HW1 9774   4.549   3.168   3.379
 3253SOL    HW2 9775   4.468   3.154   3.238
 3254SOL     OW 9776   4.396   3.478   2.016
 3254SOL    HW1 9777   4.405   3.488   1.917
 3254SOL    HW2 9778   4.356   3.389   2.037
 3255SOL     OW 9779   3.987   2.188   2.582
 3255SOL    HW1 9780   3.908   2.239   2.548
 3255SOL    HW2 9781   3.978   2.173   2.680
 3256SOL     OW 9782   4.546   2.864   3.234
 3256SOL    HW1 9783   4.586   2.863   3.142
 3256SOL    HW2 9784   4.556   2.956   3.274
 3257SOL     OW 9785   4.096   3.150   3.352
 3257SOL    HW1 9786   4.083   3.243   3.318
 3257SOL    HW2 9787   4.012   3.098   3.339
 3258SOL     OW 9788   4.738   2.098   2.833
 3258SOL    HW1 9789   4.730   2.062   2.740
 3258SOL    HW2 9790   4.736   2.022   2.898
 3259SOL     OW 9791   4.314   3.349   2.353
 3259SOL    HW1 9792   4.356   3.291   2.283
 3259SOL    HW2 9793   4.270   3.428   2.309
 3260SOL     OW 9794   3.979   3.210   2.152
 3260SOL    HW1 9795   3.883   3.211   2.125
 3260SOL    HW2 9796   3.991   3.263   2.236
 3261SOL     OW 9797   3.829   2.875   3.588
 3261SOL    HW1 9798   3.752   2.842   3.642
 3261SOL    HW2 9799   3.914   2.845   3.630
 3262SOL     OW 9800   4.396   2.065   3.351
 3262SOL    HW1 9801   4.486   2.049   3.311
 3262SOL    HW2 9802   4.404   2.070   3.450
 3263SOL     OW 9803   3.799   2.207   1.895
 3263SOL    HW1 9804   3.707   2.179   1.866
 3263SOL    HW2 9805   3.830   2.284   1.839
 3264SOL     OW 9806   3.796   2.028   2.180
 3264SOL    HW1 9807   3.779   2.111   2.126
 3264SOL    HW2 9808   3.886   1.991   2.158
 3265SOL     OW 9809   4.337   2.704   3.293
 3265SOL    HW1 9810   4.393   2.785   3.276
 3265SOL    HW2 9811   4.396   2.624   3.296
 3266SOL     OW 9812   4.440   2.427   3.570
 3266SOL    HW1 9813   4.459   2.492   3.644
 3266SOL    HW2 9814   4.500   2.347   3.579
 3267SOL     OW 9815   4.114   3.603   3.422
 3267SOL    HW1 9816   4.023   3.644   3.420
 3267SOL    HW2 9817   4.107   3.509   3.454
 3268SOL     OW 9818   4.949   2.187   2.311
 3268SOL    HW1 9819   5.014   2.113   2.300
 3268SOL    HW2 9820   4.969   2.237   2.395
 3269SOL     OW 9821   4.318   2.607   2.514
 3269SOL    HW1 9822   4.368   2.692   2.495
 3269SOL    HW2 9823   4.230   2.609   2.466
 3270SOL     OW 9824   4.583   3.236   1.878
 3270SOL    HW1 9825   4.537   3.251   1.966
 3270SOL    HW2 9826   4.627   3.321   1.848
 3271SOL     OW 9827   4.385   3.652   2.815
 3271SOL    HW1 9828   4.339   3.740   2.802
 3271SOL    HW2 9829   4.484   3.664   2.808
 3272SOL     OW 9830   4.583   2.818   2.723
 3272SOL    HW1 9831   4.637   2.749   2.771
 3272SOL    HW2 9832   4.551   2.887   2.789
 3273SOL     OW 9833   3.945   3.176   3.706
 3273SOL    HW1 9834   3.880   3.103   3.685
 3273SOL    HW2 9835   3.949   3.190   3.804
 3274SOL     OW 9836   3.803   3.102   2.515
 3274SOL    HW1 9837   3.802   3.055   2.603
 3274SOL    HW2 9838   3.885   3.074   2.464
 3275SOL     OW 9839   4.396   3.253   3.486
 3275SOL    HW1 9840   4.318   3.203   3.524
 3275SOL    HW2 9841   4.393   3.348   3.517
 3276SOL     OW 9842   4.152   2.286   2.382
 3276SOL    HW1 9843   4.182   2.214   2.320
 3276SOL    HW2 9844   4.113   2.246   2.465
 3277SOL     OW 9845   4.041   2.409   3.142
 3277SOL    HW1 9846   4.079   2.350   3.214
 3277SOL    HW2 9847   4.081   2.383   3.054
 3278SOL     OW 9848   4.536   3.448   2.549
 3278SOL    HW1 9849   4.568   3.458   2.455
 3278SOL    HW2 9850   4.457   3.386   2.551
 3279SOL     OW 9851   4.725   1.896   3.016
 3279SOL    HW1 9852   4.662   1.824   2.985
 3279SOL    HW2 9853   4.818   1.860   3.016
 3280SOL     OW 9854   4.494   3.192   2.163
 3280SOL    HW1 9855   4.448   3.105   2.180
 3280SOL    HW2 9856   4.585   3.189   2.204
 3281SOL     OW 9857   4.342   3.429   3.146
 3281SOL    HW1 9858   4.337   3.511   3.203
 3281SOL    HW2 9859   4.431   3.426   3.101
 3282SOL     OW 9860   3.763   2.939   2.162
 3282SOL    HW1 9861   3.862   2.928   2.153
 3282SOL    HW2 9862   3.723   2.853   2.194
 3283SOL     OW 9863   4.599   3.508   2.199
 3283SOL    HW1 9864   4.522   3.473   2.145
 3283SOL    HW2 9865   4.567   3.579   2.261
 3284SOL     OW 9866   3.954   2.490   3.837
 3284SOL    HW1 9867   3.861   2.488   3.874
 3284SOL    HW2 9868   3.955   2.451   3.745
 3285SOL     OW 9869   3.949   2.137   4.720
 3285SOL    HW1 9870   3.984   2.120   4.812
 3285SOL    HW2 9871   3.861   2.092   4.708
 3286SOL     OW 9872   3.743   2.230   4.371
 3286SOL    HW1 9873   3.661   2.273   4.410
 3286SOL    HW2 9874   3.715   2.157   4.308
 3287SOL     OW 9875   4.492   3.006   4.747
 3287SOL    HW1 9876   4.414   3.023   4.807
 3287SOL    HW2 9877   4.526   3.093   4.711
 3288SOL     OW 9878   4.409   2.874   4.389
 3288SOL    HW1 9879   4.478   2.858   4.459
 3288SOL    HW2 9880   4.336   2.931   4.427
 3289SOL     OW 9881   3.955   3.575   4.207
 3289SOL    HW1 9882   3.989   3.652   4.261
 3289SOL    HW2 9883   3.999   3.575   4.117
 3290SOL     OW 9884   3.954   3.296   4.262
 3290SOL    HW1 9885   3.928   3.392   4.262
 3290SOL    HW2 9886   3.883   3.242   4.307
 3291SOL     OW 9887   3.964   2.953   4.610
 3291SOL    HW1 9888   3.978   2.869   4.662
 3291SOL    HW2 9889   3.909   3.017   4.665
 3292SOL     OW 9890   4.330   2.826   3.847
 3292SOL    HW1 9891   4.337   2.910   3.793
 3292SOL    HW2 9892   4.376   2.839   3.935
 3293SOL     OW 9893   3.846   2.505   4.287
 3293SOL    HW1 9894   3.801   2.417   4.304
 3293SOL    HW2 9895   3.845   2.559   4.371
 3294SOL     OW 9896   3.751   3.458   3.841
 3294SOL    HW1 9897   3.732   3.362   3.862
 3294SOL    HW2 9898   3.718   3.516   3.916
 3295SOL     OW 9899   4.337   3.227   4.450
 3295SOL    HW1 9900   4.288   3.140   4.459
 3295SOL    HW2 9901   4.314   3.270   4.363
 3296SOL     OW 9902   4.533   1.866   4.226
 3296SOL    HW1 9903   4.573   1.957   4.217
 3296SOL    HW2 9904   4.433   1.874   4.232
 3297SOL     OW 9905   4.322   2.591   3.994
 3297SOL    HW1 9906   4.346   2.660   3.926
 3297SOL    HW2 9907   4.244   2.624   4.048
 3298SOL     OW 9908   3.800   2.673   4.513
 3298SOL    HW1 9909   3.899   2.661   4.522
 3298SOL    HW2 9910   3.776   2.768   4.534
 3299SOL     OW 9911   4.589   2.210   3.919
 3299SOL    HW1 9912   4.648   2.273   3.870
 3299SOL    HW2 9913   4.608   2.116   3.890
 3300SOL     OW 9914   4.732   3.318   4.201
 3300SOL    HW1 9915   4.686   3.390   4.149
 3300SOL    HW2 9916   4.728   3.338   4.299
 3301SOL     OW 9917   4.075   3.663   4.577
 3301SOL    HW1 9918   4.125   3.577   4.583
 3301SOL    HW2 9919   4.140   3.740   4.574
 3302SOL     OW 9920   4.045   2.805   3.966
 3302SOL    HW1 9921   4.127   2.844   3.924
 3302SOL    HW2 9922   4.018   2.723   3.917
 3303SOL     OW 9923   4.188   3.605   4.047
 3303SOL    HW1 9924   4.221   3.644   4.133
 3303SOL    HW2 9925   4.264   3.598   3.982
 3304SOL     OW 9926   3.973   3.647   4.965
 3304SOL    HW1 9927   4.030   3.582   5.015
 3304SOL    HW2 9928   3.957   3.614   4.872
 3305SOL     OW 9929   4.106   2.562   4.204
 3305SOL    HW1 9930   4.151   2.472   4.201
 3305SOL    HW2 9931   4.012   2.551   4.237
 3306SOL     OW 9932   4.338   1.984   3.841
 3306SOL    HW1 9933   4.436   1.962   3.848
 3306SOL    HW2 9934   4.307   1.967   3.748
 3307SOL     OW 9935   4.646   2.365   4.623
 3307SOL    HW1 9936   4.621   2.356   4.527
 3307SOL    HW2 9937   4.694   2.283   4.654
 3308SOL     OW 9938   4.263   1.926   4.236
 3308SOL    HW1 9939   4.182   1.927   4.294
 3308SOL    HW2 9940   4.266   2.009   4.181
 3309SOL     OW 9941   4.021   1.897   3.895
 3309SOL    HW1 9942   4.070   1.981   3.874
 3309SOL    HW2 9943   4.083   1.832   3.940
 3310SOL     OW 9944   4.951   3.432   4.517
 3310SOL    HW1 9945   4.972   3.506   4.452
 3310SOL    HW2 9946   5.019   3.432   4.590
 3311SOL     OW 9947   4.183   3.014   4.465
 3311SOL    HW1 9948   4.112   2.987   4.530
 3311SOL    HW2 9949   4.157   2.986   4.372
 3312SOL     OW 9950   4.741   1.901   4.477
 3312SOL    HW1 9951   4.669   1.906   4.408
 3312SOL    HW2 9952   4.717   1.832   4.546
 3313SOL     OW 9953   4.212   3.247   3.898
 3313SOL    HW1 9954   4.125   3.232   3.945
 3313SOL    HW2 9955   4.195   3.273   3.803
 3314SOL     OW 9956   4.251   2.118   4.052
 3314SOL    HW1 9957   4.278   2.059   3.977
 3314SOL    HW2 9958   4.251   2.213   4.021
 3315SOL     OW 9959   4.429   2.912   4.092
 3315SOL    HW1 9960   4.415   2.919   4.191
 3315SOL    HW2 9961   4.513   2.861   4.074
 3316SOL     OW 9962   4.091   2.962   4.225
 3316SOL    HW1 9963   4.084   3.045   4.169
 3316SOL    HW2 9964   4.095   2.882   4.165
 3317SOL     OW 9965   4.290   2.399   4.589
 3317SOL    HW1 9966   4.302   2.465   4.515
 3317SOL    HW2 9967   4.336   2.433   4.672
 3318SOL     OW 9968   4.933   2.387   3.999
 3318SOL    HW1 9969   4.946   2.303   4.053
 3318SOL    HW2 9970   4.904   2.461   4.059
 3319SOL     OW 9971   4.031   2.075   4.955
 3319SOL    HW1 9972   4.008   2.112   5.045
 3319SOL    HW2 9973   4.001   1.980   4.949
 3320SOL     OW 9974   4.456   2.496   4.788
 3320SOL    HW1 9975   4.515   2.470   4.712
 3320SOL    HW2 9976   4.428   2.592   4.777
 3321SOL     OW 9977   4.031   1.925   4.342
 3321SOL    HW1 9978   4.020   2.019   4.375
 3321SOL    HW2 9979   4.026   1.862   4.419
 3322SOL     OW 9980   4.747   2.628   4.690
 3322SOL    HW1 9981   4.762   2.649   4.786
 3322SOL    HW2 9982   4.717   2.533   4.681
 3323SOL     OW 9983   4.043   2.672   4.673
 3323SOL    HW1 9984   4.136   2.708   4.678
 3323SOL    HW2 9985   4.037   2.587   4.725
 3324SOL     OW 9986   3.732   3.188   3.924
 3324SOL    HW1 9987   3.639   3.209   3.893
 3324SOL    HW2 9988   3.742   3.089   3.937
 3325SOL     OW 9989   3.812   3.663   4.651
 3325SOL    HW1 9990   3.770   3.577   4.624
 3325SOL    HW2 9991   3.906   3.666   4.617
 3326SOL     OW 9992   4.228   3.430   4.634
 3326SOL    HW1 9993   4.294   3.504   4.643
 3326SOL    HW2 9994   4.272   3.351   4.592
 3327SOL     OW 9995   4.726   2.658   4.962
 3327SOL    HW1 9996   4.767   2.626   5.048
 3327SOL    HW2 9997   4.630   2.631   4.959
 3328SOL     OW 9998   4.539   2.434   4.049
 3328SOL    HW1 9999   4.546   2.345   4.003
 3328SOL    HW210000   4.445   2.468   4.041
 3329SOL     OW10001   4.395   2.326   4.993
 3329SOL    HW110002   4.361   2.237   4.963
 3329SOL    HW210003   4.421   2.380   4.913
 3330SOL     OW10004   4.197   2.362   3.915
 3330SOL    HW110005   4.258   2.442   3.919
 3330SOL    HW210006   4.102   2.393   3.922
 3331SOL     OW10007   5.004   2.789   4.396
 3331SOL    HW110008   5.064   2.708   4.398
 3331SOL    HW210009   5.044   2.858   4.336
 3332SOL     OW10010   4.396   3.478   3.878
 3332SOL    HW110011   4.405   3.488   3.779
 3332SOL    HW210012   4.356   3.389   3.899
 3333SOL     OW10013   3.987   2.188   4.444
 3333SOL    HW110014   3.908   2.239   4.410
 3333SOL    HW210015   3.978   2.173   4.542
 3334SOL     OW10016   4.314   3.349   4.215
 3334SOL    HW110017   4.356   3.291   4.145
 3334SOL    HW210018   4.270   3.428   4.171
 3335SOL     OW10019   3.979   3.210   4.014
 3335SOL    HW110020   3.883   3.211   3.987
 3335SOL    HW210021   3.991   3.263   4.098
 3336SOL     OW10022   3.799   2.207   3.757
 3336SOL    HW110023   3.707   2.179   3.728
 3336SOL    HW210024   3.830   2.284   3.701
 3337SOL     OW10025   3.796   2.028   4.042
 3337SOL    HW110026   3.779   2.111   3.988
 3337SOL    HW210027   3.886   1.991   4.020
 3338SOL     OW10028   4.949   2.187   4.173
 3338SOL    HW110029   5.014   2.113   4.162
 3338SOL    HW210030   4.969   2.237   4.257
 3339SOL     OW10031   4.318   2.607   4.376
 3339SOL    HW110032   4.368   2.692   4.357
 3339SOL    HW210033   4.230   2.609   4.328
 3340SOL     OW10034   4.583   3.236   3.740
 3340SOL    HW110035   4.537   3.251   3.828
 3340SOL    HW210036   4.627   3.321   3.710
 3341SOL     OW10037   4.385   3.652   4.677
 3341SOL    HW110038   4.339   3.740   4.664
 3341SOL    HW210039   4.484   3.664   4.670
 3342SOL     OW10040   4.583   2.818   4.585
 3342SOL    HW110041   4.637   2.749   4.633
 3342SOL    HW210042   4.551   2.887   4.651
 3343SOL     OW10043   3.803   3.102   4.377
 3343SOL    HW110044   3.802   3.055   4.465
 3343SOL    HW210045   3.885   3.074   4.326
 3344SOL     OW10046   4.152   2.286   4.244
 3344SOL    HW110047   4.182   2.214   4.182
 3344SOL    HW210048   4.113   2.246   4.327
 3345SOL     OW10049   4.536   3.448   4.411
 3345SOL    HW110050   4.568   3.458   4.317
 3345SOL    HW210051   4.457   3.386   4.413
 3346SOL     OW10052   4.494   3.192   4.025
 3346SOL    HW110053   4.448   3.105   4.042
 3346SOL    HW210054   4.585   3.189   4.066
 3347SOL     OW10055   3.763   2.939   4.024
 3347SOL    HW110056   3.862   2.928   4.015
 3347SOL    HW210057   3.723   2.853   4.056
 3348SOL     OW10058   4.599   3.508   4.061
 3348SOL    HW110059   4.522   3.473   4.007
 3348SOL    HW210060   4.567   3.579   4.123
 3349SOL     OW10061   3.954   4.352   0.113
 3349SOL    HW110062   3.861   4.350   0.150
 3349SOL    HW210063   3.955   4.313   0.021
 3350SOL     OW10064   3.949   3.999   0.996
 3350SOL    HW110065   3.984   3.982   1.088
 3350SOL    HW210066   3.861   3.954   0.984
 3351SOL     OW10067   3.743   4.092   0.647
 3351SOL    HW110068   3.661   4.135   0.686
 3351SOL    HW210069   3.715   4.019   0.584
 3352SOL     OW10070   4.492   4.868   1.023
 3352SOL    HW110071   4.414   4.885   1.083
 3352SOL    HW210072   4.526   4.955   0.987
 3353SOL     OW10073   4.574   4.522   1.823
 3353SOL    HW110074   4.570   4.598   1.888
 3353SOL    HW210075   4.596   4.558   1.732
 3354SOL     OW10076   4.409   4.736   0.665
 3354SOL    HW110077   4.478   4.720   0.735
 3354SOL    HW210078   4.336   4.793   0.703
 3355SOL     OW10079   4.162   4.116   1.499
 3355SOL    HW110080   4.244   4.060   1.508
 3355SOL    HW210081   4.081   4.058   1.503
 3356SOL     OW10082   3.846   4.367   0.563
 3356SOL    HW110083   3.801   4.279   0.580
 3356SOL    HW210084   3.845   4.421   0.647
 3357SOL     OW10085   3.837   4.461   1.597
 3357SOL    HW110086   3.925   4.448   1.642
 3357SOL    HW210087   3.824   4.558   1.575
 3358SOL     OW10088   4.533   3.728   0.502
 3358SOL    HW110089   4.573   3.819   0.493
 3358SOL    HW210090   4.433   3.736   0.508
 3359SOL     OW10091   3.921   4.700   1.264
 3359SOL    HW110092   4.010   4.655   1.250
 3359SOL    HW210093   3.848   4.635   1.245
 3360SOL     OW10094   4.041   3.975   1.801
 3360SOL    HW110095   4.112   4.046   1.807
 3360SOL    HW210096   3.953   4.014   1.829
 3361SOL     OW10097   4.322   4.453   0.270
 3361SOL    HW110098   4.346   4.522   0.202
 3361SOL    HW210099   4.244   4.486   0.324
 3362SOL     OW10100   4.531   4.329   1.465
 3362SOL    HW110101   4.484   4.326   1.554
 3362SOL    HW210102   4.480   4.274   1.399
 3363SOL     OW10103   4.715   4.134   1.242
 3363SOL    HW110104   4.638   4.168   1.296
 3363SOL    HW210105   4.681   4.083   1.163
 3364SOL     OW10106   3.800   4.535   0.789
 3364SOL    HW110107   3.899   4.523   0.798
 3364SOL    HW210108   3.776   4.630   0.810
 3365SOL     OW10109   4.589   4.072   0.195
 3365SOL    HW110110   4.648   4.135   0.146
 3365SOL    HW210111   4.608   3.978   0.166
 3366SOL     OW10112   4.274   3.920   0.885
 3366SOL    HW110113   4.269   3.915   0.985
 3366SOL    HW210114   4.276   4.016   0.856
 3367SOL     OW10115   3.926   4.009   1.498
 3367SOL    HW110116   3.846   4.069   1.485
 3367SOL    HW210117   3.916   3.960   1.584
 3368SOL     OW10118   4.106   4.424   0.480
 3368SOL    HW110119   4.151   4.334   0.477
 3368SOL    HW210120   4.012   4.413   0.513
 3369SOL     OW10121   4.338   3.846   0.117
 3369SOL    HW110122   4.436   3.824   0.124
 3369SOL    HW210123   4.307   3.829   0.024
 3370SOL     OW10124   4.505   3.988   1.749
 3370SOL    HW110125   4.572   3.927   1.792
 3370SOL    HW210126   4.432   4.007   1.814
 3371SOL     OW10127   4.646   4.227   0.899
 3371SOL    HW110128   4.621   4.218   0.803
 3371SOL    HW210129   4.694   4.145   0.930
 3372SOL     OW10130   4.263   3.788   0.512
 3372SOL    HW110131   4.182   3.789   0.570
 3372SOL    HW210132   4.266   3.871   0.457
 3373SOL     OW10133   3.802   4.280   1.386
 3373SOL    HW110134   3.894   4.279   1.345
 3373SOL    HW210135   3.796   4.354   1.453
 3374SOL     OW10136   4.285   3.946   1.147
 3374SOL    HW110137   4.323   3.862   1.184
 3374SOL    HW210138   4.197   3.965   1.191
 3375SOL     OW10139   4.741   3.763   0.753
 3375SOL    HW110140   4.669   3.768   0.684
 3375SOL    HW210141   4.717   3.694   0.822
 3376SOL     OW10142   4.251   3.980   0.328
 3376SOL    HW110143   4.278   3.921   0.253
 3376SOL    HW210144   4.251   4.075   0.297
 3377SOL     OW10145   4.639   3.813   1.402
 3377SOL    HW110146   4.664   3.793   1.307
 3377SOL    HW210147   4.711   3.869   1.444
 3378SOL     OW10148   4.704   4.840   1.719
 3378SOL    HW110149   4.605   4.846   1.729
 3378SOL    HW210150   4.727   4.760   1.663
 3379SOL     OW10151   4.134   4.537   1.251
 3379SOL    HW110152   4.220   4.549   1.301
 3379SOL    HW210153   4.092   4.450   1.278
 3380SOL     OW10154   4.290   4.261   0.865
 3380SOL    HW110155   4.302   4.327   0.791
 3380SOL    HW210156   4.336   4.295   0.948
 3381SOL     OW10157   4.126   4.475   1.598
 3381SOL    HW110158   4.194   4.530   1.551
 3381SOL    HW210159   4.166   4.387   1.625
 3382SOL     OW10160   4.737   3.829   1.770
 3382SOL    HW110161   4.743   3.914   1.718
 3382SOL    HW210162   4.769   3.753   1.713
 3383SOL     OW10163   4.228   3.774   1.740
 3383SOL    HW110164   4.186   3.717   1.670
 3383SOL    HW210165   4.162   3.843   1.772
 3384SOL     OW10166   4.297   4.594   1.029
 3384SOL    HW110167   4.341   4.683   1.020
 3384SOL    HW210168   4.234   4.594   1.106
 3385SOL     OW10169   4.933   4.249   0.275
 3385SOL    HW110170   4.946   4.165   0.329
 3385SOL    HW210171   4.904   4.323   0.335
 3386SOL     OW10172   4.031   3.937   1.231
 3386SOL    HW110173   4.008   3.974   1.321
 3386SOL    HW210174   4.001   3.842   1.225
 3387SOL     OW10175   4.456   4.358   1.064
 3387SOL    HW110176   4.515   4.332   0.988
 3387SOL    HW210177   4.428   4.454   1.053
 3388SOL     OW10178   4.031   3.787   0.618
 3388SOL    HW110179   4.020   3.881   0.651
 3388SOL    HW210180   4.026   3.724   0.695
 3389SOL     OW10181   4.747   4.490   0.966
 3389SOL    HW110182   4.762   4.511   1.062
 3389SOL    HW210183   4.717   4.395   0.957
 3390SOL     OW10184   4.074   4.622   1.804
 3390SOL    HW110185   4.150   4.666   1.852
 3390SOL    HW210186   4.109   4.575   1.722
 3391SOL     OW10187   4.043   4.534   0.949
 3391SOL    HW110188   4.136   4.570   0.954
 3391SOL    HW210189   4.037   4.449   1.001
 3392SOL     OW10190   4.063   4.233   1.006
 3392SOL    HW110191   4.011   4.150   0.989
 3392SOL    HW210192   4.140   4.238   0.942
 3393SOL     OW10193   4.726   4.520   1.238
 3393SOL    HW110194   4.767   4.488   1.324
 3393SOL    HW210195   4.630   4.493   1.235
 3394SOL     OW10196   3.764   4.268   1.114
 3394SOL    HW110197   3.849   4.235   1.073
 3394SOL    HW210198   3.777   4.283   1.212
 3395SOL     OW10199   3.913   4.244   1.722
 3395SOL    HW110200   3.972   4.204   1.652
 3395SOL    HW210201   3.855   4.315   1.681
 3396SOL     OW10202   4.539   4.296   0.325
 3396SOL    HW110203   4.546   4.207   0.279
 3396SOL    HW210204   4.445   4.330   0.317
 3397SOL     OW10205   4.395   4.188   1.269
 3397SOL    HW110206   4.361   4.099   1.239
 3397SOL    HW210207   4.421   4.242   1.189
 3398SOL     OW10208   4.197   4.224   0.191
 3398SOL    HW110209   4.258   4.304   0.195
 3398SOL    HW210210   4.102   4.255   0.198
 3399SOL     OW10211   3.883   4.861   1.466
 3399SOL    HW110212   3.905   4.800   1.542
 3399SOL    HW210213   3.893   4.812   1.380
 3400SOL     OW10214   5.026   4.579   0.309
 3400SOL    HW110215   4.940   4.548   0.351
 3400SOL    HW210216   5.022   4.565   0.210
 3401SOL     OW10217   4.627   3.810   0.133
 3401SOL    HW110218   4.678   3.811   0.047
 3401SOL    HW210219   4.683   3.768   0.204
 3402SOL     OW10220   3.987   4.050   0.720
 3402SOL    HW110221   3.908   4.101   0.686
 3402SOL    HW210222   3.978   4.035   0.818
 3403SOL     OW10223   4.640   4.634   0.291
 3403SOL    HW110224   4.703   4.672   0.223
 3403SOL    HW210225   4.680   4.551   0.330
 3404SOL     OW10226   4.738   3.960   0.971
 3404SOL    HW110227   4.730   3.924   0.878
 3404SOL    HW210228   4.736   3.884   1.036
 3405SOL     OW10229   3.829   4.737   1.726
 3405SOL    HW110230   3.752   4.704   1.780
 3405SOL    HW210231   3.914   4.707   1.768
 3406SOL     OW10232   4.396   3.927   1.489
 3406SOL    HW110233   4.486   3.911   1.449
 3406SOL    HW210234   4.404   3.932   1.588
 3407SOL     OW10235   3.799   4.069   0.033
 3407SOL    HW110236   3.707   4.041   0.004
 3407SOL    HW210237   3.830   4.146  -0.023
 3408SOL     OW10238   4.337   4.566   1.431
 3408SOL    HW110239   4.393   4.647   1.414
 3408SOL    HW210240   4.396   4.486   1.434
 3409SOL     OW10241   4.440   4.289   1.708
 3409SOL    HW110242   4.459   4.354   1.782
 3409SOL    HW210243   4.500   4.209   1.717
 3410SOL     OW10244   4.949   4.049   0.449
 3410SOL    HW110245   5.014   3.975   0.438
 3410SOL    HW210246   4.969   4.099   0.533
 3411SOL     OW10247   4.318   4.469   0.652
 3411SOL    HW110248   4.368   4.554   0.633
 3411SOL    HW210249   4.230   4.471   0.604
 3412SOL     OW10250   4.807   4.708   0.087
 3412SOL    HW110251   4.784   4.761   0.005
 3412SOL    HW210252   4.888   4.652   0.068
 3413SOL     OW10253   4.152   4.148   0.520
 3413SOL    HW110254   4.182   4.076   0.458
 3413SOL    HW210255   4.113   4.108   0.603
 3414SOL     OW10256   4.041   4.271   1.280
 3414SOL    HW110257   4.079   4.212   1.352
 3414SOL    HW210258   4.081   4.245   1.192
 3415SOL     OW10259   4.725   3.758   1.154
 3415SOL    HW110260   4.662   3.686   1.123
 3415SOL    HW210261   4.818   3.722   1.154
 3416SOL     OW10262   3.954   4.352   1.975
 3416SOL    HW110263   3.861   4.350   2.012
 3416SOL    HW210264   3.955   4.313   1.883
 3417SOL     OW10265   3.949   3.999   2.858
 3417SOL    HW110266   3.984   3.982   2.950
 3417SOL    HW210267   3.861   3.954   2.846
 3418SOL     OW10268   3.743   4.092   2.509
 3418SOL    HW110269   3.661   4.135   2.548
 3418SOL    HW210270   3.715   4.019   2.446
 3419SOL     OW10271   4.492   4.868   2.885
 3419SOL    HW110272   4.414   4.885   2.945
 3419SOL    HW210273   4.526   4.955   2.849
 3420SOL     OW10274   4.574   4.522   3.685
 3420SOL    HW110275   4.570   4.598   3.750
 3420SOL    HW210276   4.596   4.558   3.594
 3421SOL     OW10277   4.409   4.736   2.527
 3421SOL    HW110278   4.478   4.720   2.597
 3421SOL    HW210279   4.336   4.793   2.565
 3422SOL     OW10280   4.162   4.116   3.361
 3422SOL    HW110281   4.244   4.060   3.370
 3422SOL    HW210282   4.081   4.058   3.365
 3423SOL     OW10283   3.846   4.367   2.425
 3423SOL    HW110284   3.801   4.279   2.442
 3423SOL    HW210285   3.845   4.421   2.509
 3424SOL     OW10286   3.837   4.461   3.459
 3424SOL    HW110287   3.925   4.448   3.504
 3424SOL    HW210288   3.824   4.558   3.437
 3425SOL     OW10289   4.533   3.728   2.364
 3425SOL    HW110290   4.573   3.819   2.355
 3425SOL    HW210291   4.433   3.736   2.370
 3426SOL     OW10292   3.921   4.700   3.126
 3426SOL    HW110293   4.010   4.655   3.112
 3426SOL    HW210294   3.848   4.635   3.107
 3427SOL     OW10295   4.041   3.975   3.663
 3427SOL    HW110296   4.112   4.046   3.669
 3427SOL    HW210297   3.953   4.014   3.691
 3428SOL     OW10298   4.322   4.453   2.132
 3428SOL    HW110299   4.346   4.522   2.064
 3428SOL    HW210300   4.244   4.486   2.186
 3429SOL     OW10301   4.531   4.329   3.327
 3429SOL    HW110302   4.484   4.326   3.416
 3429SOL    HW210303   4.480   4.274   3.261
 3430SOL     OW10304   4.715   4.134   3.104
 3430SOL    HW110305   4.638   4.168   3.158
 3430SOL    HW210306   4.681   4.083   3.025
 3431SOL     OW10307   3.800   4.535   2.651
 3431SOL    HW110308   3.899   4.523   2.660
 3431SOL    HW210309   3.776   4.630   2.672
 3432SOL     OW10310   4.589   4.072   2.057
 3432SOL    HW110311   4.648   4.135   2.008
 3432SOL    HW210312   4.608   3.978   2.028
 3433SOL     OW10313   4.274   3.920   2.747
 3433SOL    HW110314   4.269   3.915   2.847
 3433SOL    HW210315   4.276   4.016   2.718
 3434SOL     OW10316   3.926   4.009   3.360
 3434SOL    HW110317   3.846   4.069   3.347
 3434SOL    HW210318   3.916   3.960   3.446
 3435SOL     OW10319   4.106   4.424   2.342
 3435SOL    HW110320   4.151   4.334   2.339
 3435SOL    HW210321   4.012   4.413   2.375
 3436SOL     OW10322   4.338   3.846   1.979
 3436SOL    HW110323   4.436   3.824   1.986
 3436SOL    HW210324   4.307   3.829   1.886
 3437SOL     OW10325   4.505   3.988   3.611
 3437SOL    HW110326   4.572   3.927   3.654
 3437SOL    HW210327   4.432   4.007   3.676
 3438SOL     OW10328   4.646   4.227   2.761
 3438SOL    HW110329   4.621   4.218   2.665
 3438SOL    HW210330   4.694   4.145   2.792
 3439SOL     OW10331   4.263   3.788   2.374
 3439SOL    HW110332   4.182   3.789   2.432
 3439SOL    HW210333   4.266   3.871   2.319
 3440SOL     OW10334   4.021   3.759   2.033
 3440SOL    HW110335   4.070   3.843   2.012
 3440SOL    HW210336   4.083   3.694   2.078
 3441SOL     OW10337   3.802   4.280   3.248
 3441SOL    HW110338   3.894   4.279   3.207
 3441SOL    HW210339   3.796   4.354   3.315
 3442SOL     OW10340   4.285   3.946   3.009
 3442SOL    HW110341   4.323   3.862   3.046
 3442SOL    HW210342   4.197   3.965   3.053
 3443SOL     OW10343   4.741   3.763   2.615
 3443SOL    HW110344   4.669   3.768   2.546
 3443SOL    HW210345   4.717   3.694   2.684
 3444SOL     OW10346   4.251   3.980   2.190
 3444SOL    HW110347   4.278   3.921   2.115
 3444SOL    HW210348   4.251   4.075   2.159
 3445SOL     OW10349   4.639   3.813   3.264
 3445SOL    HW110350   4.664   3.793   3.169
 3445SOL    HW210351   4.711   3.869   3.306
 3446SOL     OW10352   4.704   4.840   3.581
 3446SOL    HW110353   4.605   4.846   3.591
 3446SOL    HW210354   4.727   4.760   3.525
 3447SOL     OW10355   4.134   4.537   3.113
 3447SOL    HW110356   4.220   4.549   3.163
 3447SOL    HW210357   4.092   4.450   3.140
 3448SOL     OW10358   4.290   4.261   2.727
 3448SOL    HW110359   4.302   4.327   2.653
 3448SOL    HW210360   4.336   4.295   2.810
 3449SOL     OW10361   4.126   4.475   3.460
 3449SOL    HW110362   4.194   4.530   3.413
 3449SOL    HW210363   4.166   4.387   3.487
 3450SOL     OW10364   4.737   3.829   3.632
 3450SOL    HW110365   4.743   3.914   3.580
 3450SOL    HW210366   4.769   3.753   3.575
 3451SOL     OW10367   4.228   3.774   3.602
 3451SOL    HW110368   4.186   3.717   3.532
 3451SOL    HW210369   4.162   3.843   3.634
 3452SOL     OW10370   4.297   4.594   2.891
 3452SOL    HW110371   4.341   4.683   2.882
 3452SOL    HW210372   4.234   4.594   2.968
 3453SOL     OW10373   4.933   4.249   2.137
 3453SOL    HW110374   4.946   4.165   2.191
 3453SOL    HW210375   4.904   4.323   2.197
 3454SOL     OW10376   4.031   3.937   3.093
 3454SOL    HW110377   4.008   3.974   3.183
 3454SOL    HW210378   4.001   3.842   3.087
 3455SOL     OW10379   4.456   4.358   2.926
 3455SOL    HW110380   4.515   4.332   2.850
 3455SOL    HW210381   4.428   4.454   2.915
 3456SOL     OW10382   4.031   3.787   2.480
 3456SOL    HW110383   4.020   3.881   2.513
 3456SOL    HW210384   4.026   3.724   2.557
 3457SOL     OW10385   4.747   4.490   2.828
 3457SOL    HW110386   4.762   4.511   2.924
 3457SOL    HW210387   4.717   4.395   2.819
 3458SOL     OW10388   4.074   4.622   3.666
 3458SOL    HW110389   4.150   4.666   3.714
 3458SOL    HW210390   4.109   4.575   3.584
 3459SOL     OW10391   4.043   4.534   2.811
 3459SOL    HW110392   4.136   4.570   2.816
 3459SOL    HW210393   4.037   4.449   2.863
 3460SOL     OW10394   4.063   4.233   2.868
 3460SOL    HW110395   4.011   4.150   2.851
 3460SOL    HW210396   4.140   4.238   2.804
 3461SOL     OW10397   4.726   4.520   3.100
 3461SOL    HW110398   4.767   4.488   3.186
 3461SOL    HW210399   4.630   4.493   3.097
 3462SOL     OW10400   3.764   4.268   2.976
 3462SOL    HW110401   3.849   4.235   2.935
 3462SOL    HW210402   3.777   4.283   3.074
 3463SOL     OW10403   3.913   4.244   3.584
 3463SOL    HW110404   3.972   4.204   3.514
 3463SOL    HW210405   3.855   4.315   3.543
 3464SOL     OW10406   4.539   4.296   2.187
 3464SOL    HW110407   4.546   4.207   2.141
 3464SOL    HW210408   4.445   4.330   2.179
 3465SOL     OW10409   4.395   4.188   3.131
 3465SOL    HW110410   4.361   4.099   3.101
 3465SOL    HW210411   4.421   4.242   3.051
 3466SOL     OW10412   4.197   4.224   2.053
 3466SOL    HW110413   4.258   4.304   2.057
 3466SOL    HW210414   4.102   4.255   2.060
 3467SOL     OW10415   3.883   4.861   3.328
 3467SOL    HW110416   3.905   4.800   3.404
 3467SOL    HW210417   3.893   4.812   3.242
 3468SOL     OW10418   5.026   4.579   2.171
 3468SOL    HW110419   4.940   4.548   2.213
 3468SOL    HW210420   5.022   4.565   2.072
 3469SOL     OW10421   3.987   4.050   2.582
 3469SOL    HW110422   3.908   4.101   2.548
 3469SOL    HW210423   3.978   4.035   2.680
 3470SOL     OW10424   4.640   4.634   2.153
 3470SOL    HW110425   4.703   4.672   2.085
 3470SOL    HW210426   4.680   4.551   2.192
 3471SOL     OW10427   4.738   3.960   2.833
 3471SOL    HW110428   4.730   3.924   2.740
 3471SOL    HW210429   4.736   3.884   2.898
 3472SOL     OW10430   3.829   4.737   3.588
 3472SOL    HW110431   3.752   4.704   3.642
 3472SOL    HW210432   3.914   4.707   3.630
 3473SOL     OW10433   4.396   3.927   3.351
 3473SOL    HW110434   4.486   3.911   3.311
 3473SOL    HW210435   4.404   3.932   3.450
 3474SOL     OW10436   3.799   4.069   1.895
 3474SOL    HW110437   3.707   4.041   1.866
 3474SOL    HW210438   3.830   4.146   1.839
 3475SOL     OW10439   3.796   3.890   2.180
 3475SOL    HW110440   3.779   3.973   2.126
 3475SOL    HW210441   3.886   3.853   2.158
 3476SOL     OW10442   4.337   4.566   3.293
 3476SOL    HW110443   4.393   4.647   3.276
 3476SOL    HW210444   4.396   4.486   3.296
 3477SOL     OW10445   4.440   4.289   3.570
 3477SOL    HW110446   4.459   4.354   3.644
 3477SOL    HW210447   4.500   4.209   3.579
 3478SOL     OW10448   4.949   4.049   2.311
 3478SOL    HW110449   5.014   3.975   2.300
 3478SOL    HW210450   4.969   4.099   2.395
 3479SOL     OW10451   4.318   4.469   2.514
 3479SOL    HW110452   4.368   4.554   2.495
 3479SOL    HW210453   4.230   4.471   2.466
 3480SOL     OW10454   4.152   4.148   2.382
 3480SOL    HW110455   4.182   4.076   2.320
 3480SOL    HW210456   4.113   4.108   2.465
 3481SOL     OW10457   4.041   4.271   3.142
 3481SOL    HW110458   4.079   4.212   3.214
 3481SOL    HW210459   4.081   4.245   3.054
 3482SOL     OW10460   4.725   3.758   3.016
 3482SOL    HW110461   4.662   3.686   2.985
 3482SOL    HW210462   4.818   3.722   3.016
 3483SOL     OW10463   3.954   4.352   3.837
 3483SOL    HW110464   3.861   4.350   3.874
 3483SOL    HW210465   3.955   4.313   3.745
 3484SOL     OW10466   3.949   3.999   4.720
 3484SOL    HW110467   3.984   3.982   4.812
 3484SOL    HW210468   3.861   3.954   4.708
 3485SOL     OW10469   3.743   4.092   4.371
 3485SOL    HW110470   3.661   4.135   4.410
 3485SOL    HW210471   3.715   4.019   4.308
 3486SOL     OW10472   4.409   4.736   4.389
 3486SOL    HW110473   4.478   4.720   4.459
 3486SOL    HW210474   4.336   4.793   4.427
 3487SOL     OW10475   3.846   4.367   4.287
 3487SOL    HW110476   3.801   4.279   4.304
 3487SOL    HW210477   3.845   4.421   4.371
 3488SOL     OW10478   4.337   5.089   4.450
 3488SOL    HW110479   4.288   5.002   4.459
 3488SOL    HW210480   4.314   5.132   4.363
 3489SOL     OW10481   4.533   3.728   4.226
 3489SOL    HW110482   4.573   3.819   4.217
 3489SOL    HW210483   4.433   3.736   4.232
 3490SOL     OW10484   4.322   4.453   3.994
 3490SOL    HW110485   4.346   4.522   3.926
 3490SOL    HW210486   4.244   4.486   4.048
 3491SOL     OW10487   3.800   4.535   4.513
 3491SOL    HW110488   3.899   4.523   4.522
 3491SOL    HW210489   3.776   4.630   4.534
 3492SOL     OW10490   4.589   4.072   3.919
 3492SOL    HW110491   4.648   4.135   3.870
 3492SOL    HW210492   4.608   3.978   3.890
 3493SOL     OW10493   4.106   4.424   4.204
 3493SOL    HW110494   4.151   4.334   4.201
 3493SOL    HW210495   4.012   4.413   4.237
 3494SOL     OW10496   4.338   3.846   3.841
 3494SOL    HW110497   4.436   3.824   3.848
 3494SOL    HW210498   4.307   3.829   3.748
 3495SOL     OW10499   4.646   4.227   4.623
 3495SOL    HW110500   4.621   4.218   4.527
 3495SOL    HW210501   4.694   4.145   4.654
 3496SOL     OW10502   4.263   3.788   4.236
 3496SOL    HW110503   4.182   3.789   4.294
 3496SOL    HW210504   4.266   3.871   4.181
 3497SOL     OW10505   4.021   3.759   3.895
 3497SOL    HW110506   4.070   3.843   3.874
 3497SOL    HW210507   4.083   3.694   3.940
 3498SOL     OW10508   4.741   3.763   4.477
 3498SOL    HW110509   4.669   3.768   4.408
 3498SOL    HW210510   4.717   3.694   4.546
 3499SOL     OW10511   4.251   3.980   4.052
 3499SOL    HW110512   4.278   3.921   3.977
 3499SOL    HW210513   4.251   4.075   4.021
 3500SOL     OW10514   4.290   4.261   4.589
 3500SOL    HW110515   4.302   4.327   4.515
 3500SOL    HW210516   4.336   4.295   4.672
 3501SOL     OW10517   4.297   4.594   4.753
 3501SOL    HW110518   4.341   4.683   4.744
 3501SOL    HW210519   4.234   4.594   4.830
 3502SOL     OW10520   4.933   4.249   3.999
 3502SOL    HW110521   4.946   4.165   4.053
 3502SOL    HW210522   4.904   4.323   4.059
 3503SOL     OW10523   4.031   3.937   4.955
 3503SOL    HW110524   4.008   3.974   5.045
 3503SOL    HW210525   4.001   3.842   4.949
 3504SOL     OW10526   4.456   4.358   4.788
 3504SOL    HW110527   4.515   4.332   4.712
 3504SOL    HW210528   4.428   4.454   4.777
 3505SOL     OW10529   4.031   3.787   4.342
 3505SOL    HW110530   4.020   3.881   4.375
 3505SOL    HW210531   4.026   3.724   4.419
 3506SOL     OW10532   4.747   4.490   4.690
 3506SOL    HW110533   4.762   4.511   4.786
 3506SOL    HW210534   4.717   4.395   4.681
 3507SOL     OW10535   4.792   5.057   4.573
 3507SOL    HW110536   4.799   4.973   4.518
 3507SOL    HW210537   4.854   5.126   4.537
 3508SOL     OW10538   4.043   4.534   4.673
 3508SOL    HW110539   4.136   4.570   4.678
 3508SOL    HW210540   4.037   4.449   4.725
 3509SOL     OW10541   4.539   4.296   4.049
 3509SOL    HW110542   4.546   4.207   4.003
 3509SOL    HW210543   4.445   4.330   4.041
 3510SOL     OW10544   4.395   4.188   4.993
 3510SOL    HW110545   4.361   4.099   4.963
 3510SOL    HW210546   4.421   4.242   4.913
 3511SOL     OW10547   4.197   4.224   3.915
 3511SOL    HW110548   4.258   4.304   3.919
 3511SOL    HW210549   4.102   4.255   3.922
 3512SOL     OW10550   5.026   4.579   4.033
 3512SOL    HW110551   4.940   4.548   4.075
 3512SOL    HW210552   5.022   4.565   3.934
 3513SOL     OW10553   3.987   4.050   4.444
 3513SOL    HW110554   3.908   4.101   4.410
 3513SOL    HW210555   3.978   4.035   4.542
 3514SOL     OW10556   4.640   4.634   4.015
 3514SOL    HW110557   4.703   4.672   3.947
 3514SOL    HW210558   4.680   4.551   4.054
 3515SOL     OW10559   3.799   4.069   3.757
 3515SOL    HW110560   3.707   4.041   3.728
 3515SOL    HW210561   3.830   4.146   3.701
 3516SOL     OW10562   3.796   3.890   4.042
 3516SOL    HW110563   3.779   3.973   3.988
 3516SOL    HW210564   3.886   3.853   4.020
 3517SOL     OW10565   4.949   4.049   4.173
 3517SOL    HW110566   5.014   3.975   4.162
 3517SOL    HW210567   4.969   4.099   4.257
 3518SOL     OW10568   4.318   4.469   4.376
 3518SOL    HW110569   4.368   4.554   4.357
 3518SOL    HW210570   4.230   4.471   4.328
 3519SOL     OW10571   4.152   4.148   4.244
 3519SOL    HW110572   4.182   4.076   4.182
 3519SOL    HW210573   4.113   4.108   4.327
   4.76553   4.76553   4.76553
