mobley_1235151_GMX.gro created by acpype (v: 2023.10.27) on Wed May 20 23:45:08 2026
   19
    1MOL     C1    1   2.110   2.263   2.348
    1MOL     C2    2   2.224   2.320   2.430
    1MOL     C3    3   2.342   2.361   2.342
    1MOL     C4    4   2.458   2.416   2.425
    1MOL     C5    5   2.573   2.460   2.336
    1MOL     N1    6   2.678   2.517   2.422
    1MOL     O1    7   2.675   2.639   2.445
    1MOL     O2    8   2.763   2.438   2.469
    1MOL     H1    9   2.027   2.235   2.413
    1MOL     H2   10   2.073   2.337   2.276
    1MOL     H3   11   2.142   2.174   2.292
    1MOL     H4   12   2.257   2.245   2.503
    1MOL     H5   13   2.188   2.407   2.486
    1MOL     H6   14   2.309   2.438   2.270
    1MOL     H7   15   2.376   2.275   2.283
    1MOL     H8   16   2.492   2.338   2.495
    1MOL     H9   17   2.423   2.500   2.486
    1MOL    H10   18   2.544   2.539   2.266
    1MOL    H11   19   2.619   2.377   2.282
   4.76553   4.76553   4.76553
