%VERSION  VERSION_STAMP = V0001.000  DATE = 05/20/26  23:46:55                  
%FLAG TITLE                                                                     
%FORMAT(20a4)                                                                   
12_diethoxyethane                                                               
%FLAG POINTERS                                                                  
%FORMAT(10I8)                                                                   
      22       4      14       7      32       6      44      15       0       0
     101       1       7       6      15       4       7      10       4       0
       0       0       0       0       0       0       0       0      22       0
       0
%FLAG ATOM_NAME                                                                 
%FORMAT(20a4)                                                                   
C1  C2  C3  C4  C5  C6  O1  O2  H1  H2  H3  H4  H5  H6  H7  H8  H9  H10 H11 H12 
H13 H14 
%FLAG CHARGE                                                                    
%FORMAT(5E16.8)                                                                 
 -1.76938533E+00 -1.76938533E+00  2.41263252E+00  2.41263252E+00  2.33974332E+00
  2.33974332E+00 -7.81007778E+00 -7.81007778E+00  8.20604836E-01  8.20604836E-01
  8.20604836E-01  8.20604836E-01  8.20604836E-01  8.20604836E-01  4.68313110E-01
  4.68313110E-01  4.68313110E-01  4.68313110E-01  7.05203010E-01  7.05203010E-01
  7.05203010E-01  7.05203010E-01
%FLAG ATOMIC_NUMBER                                                             
%FORMAT(10I8)                                                                   
       6       6       6       6       6       6       8       8       1       1
       1       1       1       1       1       1       1       1       1       1
       1       1
%FLAG MASS                                                                      
%FORMAT(5E16.8)                                                                 
  1.20100000E+01  1.20100000E+01  1.20100000E+01  1.20100000E+01  1.20100000E+01
  1.20100000E+01  1.60000000E+01  1.60000000E+01  1.00800000E+00  1.00800000E+00
  1.00800000E+00  1.00800000E+00  1.00800000E+00  1.00800000E+00  1.00800000E+00
  1.00800000E+00  1.00800000E+00  1.00800000E+00  1.00800000E+00  1.00800000E+00
  1.00800000E+00  1.00800000E+00
%FLAG ATOM_TYPE_INDEX                                                           
%FORMAT(10I8)                                                                   
       1       1       1       1       1       1       2       2       3       3
       3       3       3       3       4       4       4       4       4       4
       4       4
%FLAG NUMBER_EXCLUDED_ATOMS                                                     
%FORMAT(10I8)                                                                   
       8       8      10      10       9       8      10       9       4       3
       2       4       3       2       1       1       1       1       3       2
       1       1
%FLAG NONBONDED_PARM_INDEX                                                      
%FORMAT(10I8)                                                                   
       1       2       4       7       2       3       5       8       4       5
       6       9       7       8       9      10
%FLAG RESIDUE_LABEL                                                             
%FORMAT(20a4)                                                                   
MOL 
%FLAG RESIDUE_POINTER                                                           
%FORMAT(10I8)                                                                   
       1
%FLAG BOND_FORCE_CONSTANT                                                       
%FORMAT(5E16.8)                                                                 
  2.28890000E+02  3.45250000E+02  2.82270000E+02  3.44220000E+02
%FLAG BOND_EQUIL_VALUE                                                          
%FORMAT(5E16.8)                                                                 
  1.53540000E+00  1.09620000E+00  1.42730000E+00  1.09690000E+00
%FLAG ANGLE_FORCE_CONSTANT                                                      
%FORMAT(5E16.8)                                                                 
  7.74400000E+01  4.32800000E+01  4.32700000E+01  8.83300000E+01  5.62000000E+01
  3.58000000E+01  3.56400000E+01
%FLAG ANGLE_EQUIL_VALUE                                                         
%FORMAT(5E16.8)                                                                 
  1.87832415E+00  1.91270715E+00  1.91427794E+00  1.98269488E+00  1.92579712E+00
  1.88024401E+00  1.89455572E+00
%FLAG DIHEDRAL_FORCE_CONSTANT                                                   
%FORMAT(5E16.8)                                                                 
  8.80000000E-01  8.00000000E-02  7.50000000E-01  3.37000000E-01  2.50000000E-01
  0.00000000E+00  1.80000000E-01  9.00000000E-01  5.00000000E-01  1.55555556E-01
%FLAG DIHEDRAL_PERIODICITY                                                      
%FORMAT(5E16.8)                                                                 
  1.00000000E+00  2.00000000E+00  3.00000000E+00  3.00000000E+00  1.00000000E+00
  3.00000000E+00  1.00000000E+00  2.00000000E+00  3.00000000E+00  3.00000000E+00
%FLAG DIHEDRAL_PHASE                                                            
%FORMAT(5E16.8)                                                                 
  3.14159400E+00  0.00000000E+00  0.00000000E+00  0.00000000E+00  0.00000000E+00
  0.00000000E+00  0.00000000E+00  0.00000000E+00  0.00000000E+00  0.00000000E+00
%FLAG SCEE_SCALE_FACTOR                                                         
%FORMAT(5E16.8)                                                                 
  1.20000000E+00  1.20000000E+00  1.20000000E+00  1.20000000E+00  1.20000000E+00
  1.20000000E+00  1.20000000E+00  1.20000000E+00  1.20000000E+00  1.20000000E+00
%FLAG SCNB_SCALE_FACTOR                                                         
%FORMAT(5E16.8)                                                                 
  2.00000000E+00  2.00000000E+00  2.00000000E+00  2.00000000E+00  2.00000000E+00
  2.00000000E+00  2.00000000E+00  2.00000000E+00  2.00000000E+00  2.00000000E+00
%FLAG SOLTY                                                                     
%FORMAT(5E16.8)                                                                 
  0.00000000E+00  0.00000000E+00  0.00000000E+00  0.00000000E+00
%FLAG LENNARD_JONES_ACOEF                                                       
%FORMAT(5E16.8)                                                                 
  1.02073671E+06  5.42502534E+05  2.83662575E+05  1.00235148E+05  5.02224902E+04
  7.94617769E+03  6.97998263E+04  3.44374471E+04  5.22955465E+03  3.39005767E+03
%FLAG LENNARD_JONES_BCOEF                                                       
%FORMAT(5E16.8)                                                                 
  6.63431737E+02  4.38146883E+02  2.87011518E+02  1.37787728E+02  8.83545880E+01
  2.57122925E+01  1.14981426E+02  7.31636661E+01  2.08590256E+01  1.67944276E+01
%FLAG BONDS_INC_HYDROGEN                                                        
%FORMAT(10I8)                                                                   
       0      24       2       0      27       2       0      30       2       3
      33       2       3      36       2       3      39       2       6      42
       4       6      45       4       9      48       4       9      51       4
      12      54       4      12      57       4      15      60       4      15
      63       4
%FLAG BONDS_WITHOUT_HYDROGEN                                                    
%FORMAT(10I8)                                                                   
       0       6       1       3       9       1       6      18       3       9
      21       3      12      15       1      12      18       3      15      21
       3
%FLAG ANGLES_INC_HYDROGEN                                                       
%FORMAT(10I8)                                                                   
       0       6      42       2       0       6      45       2       3       9
      48       2       3       9      51       2       6       0      24       3
       6       0      27       3       6       0      30       3       9       3
      33       3       9       3      36       3       9       3      39       3
      12      15      60       2      12      15      63       2      15      12
      54       2      15      12      57       2      18       6      42       5
      18       6      45       5      18      12      54       5      18      12
      57       5      21       9      48       5      21       9      51       5
      21      15      60       5      21      15      63       5      24       0
      27       6      24       0      30       6      27       0      30       6
      33       3      36       6      33       3      39       6      36       3
      39       6      42       6      45       7      48       9      51       7
      54      12      57       7      60      15      63       7
%FLAG ANGLES_WITHOUT_HYDROGEN                                                   
%FORMAT(10I8)                                                                   
       0       6      18       1       3       9      21       1       6      18
      12       4       9      21      15       4      12      15      21       1
      15      12      18       1
%FLAG DIHEDRALS_INC_HYDROGEN                                                    
%FORMAT(10I8)                                                                   
       6      18      12      54       4       6      18      12      57       4
       9      21      15      60       4       9      21      15      63       4
      12      18       6      42       4      12      18       6      45       4
      15      21       9      48       4      15      21       9      51       4
      24       0       6      18       5      24       0      -6      18       6
      27       0       6      18       5      27       0      -6      18       6
      30       0       6      18       5      30       0      -6      18       6
      18      12      15      60       5      18      12     -15      60       6
      18      12      15      63       5      18      12     -15      63       6
      21       9       3      33       5      21       9      -3      33       6
      21       9       3      36       5      21       9      -3      36       6
      21       9       3      39       5      21       9      -3      39       6
      21      15      12      54       5      21      15     -12      54       6
      21      15      12      57       5      21      15     -12      57       6
      24       0       6      42      10      24       0       6      45      10
      27       0       6      42      10      27       0       6      45      10
      30       0       6      42      10      30       0       6      45      10
      33       3       9      48      10      33       3       9      51      10
      36       3       9      48      10      36       3       9      51      10
      39       3       9      48      10      39       3       9      51      10
      54      12      15      60      10      54      12      15      63      10
      57      12      15      60      10      57      12      15      63      10
%FLAG DIHEDRALS_WITHOUT_HYDROGEN                                                
%FORMAT(10I8)                                                                   
       0       6      18      12       1       0       6     -18      12       2
       0       6     -18      12       3       3       9      21      15       1
       3       9     -21      15       2       3       9     -21      15       3
       6      18      12      15       1       6      18     -12      15       2
       6      18     -12      15       3       9      21      15      12       1
       9      21     -15      12       2       9      21     -15      12       3
      18      12      15      21       7      18      12     -15      21       8
      18      12     -15      21       9
%FLAG EXCLUDED_ATOMS_LIST                                                       
%FORMAT(10I8)                                                                   
       3       5       7       9      10      11      15      16       4       6
       8      12      13      14      17      18       5       6       7       9
      10      11      15      16      19      20       5       6       8      12
      13      14      17      18      21      22       6       7       8      15
      16      19      20      21      22       7       8      17      18      19
      20      21      22       8       9      10      11      15      16      19
      20      21      22      12      13      14      17      18      19      20
      21      22      10      11      15      16      11      15      16      15
      16      13      14      17      18      14      17      18      17      18
      16       0      18       0      20      21      22      21      22      22
       0
%FLAG HBOND_ACOEF                                                               
%FORMAT(5E16.8)                                                                 

%FLAG HBOND_BCOEF                                                               
%FORMAT(5E16.8)                                                                 

%FLAG HBCUT                                                                     
%FORMAT(5E16.8)                                                                 

%FLAG AMBER_ATOM_TYPE                                                           
%FORMAT(20a4)                                                                   
c3  c3  c3  c3  c3  c3  os  os  hc  hc  hc  hc  hc  hc  h1  h1  h1  h1  h1  h1  
h1  h1  
%FLAG TREE_CHAIN_CLASSIFICATION                                                 
%FORMAT(20a4)                                                                   
BLA BLA BLA BLA BLA BLA BLA BLA BLA BLA BLA BLA BLA BLA BLA BLA BLA BLA BLA BLA 
BLA BLA 
%FLAG JOIN_ARRAY                                                                
%FORMAT(10I8)                                                                   
       0       0       0       0       0       0       0       0       0       0
       0       0       0       0       0       0       0       0       0       0
       0       0
%FLAG IROTAT                                                                    
%FORMAT(10I8)                                                                   
       0       0       0       0       0       0       0       0       0       0
       0       0       0       0       0       0       0       0       0       0
       0       0
%FLAG RADIUS_SET                                                                
%FORMAT(1a80)                                                                   
modified Bondi radii (mbondi)                                                   
%FLAG RADII                                                                     
%FORMAT(5E16.8)                                                                 
  1.70000000E+00  1.70000000E+00  1.70000000E+00  1.70000000E+00  1.70000000E+00
  1.70000000E+00  1.50000000E+00  1.50000000E+00  1.30000000E+00  1.30000000E+00
  1.30000000E+00  1.30000000E+00  1.30000000E+00  1.30000000E+00  1.30000000E+00
  1.30000000E+00  1.30000000E+00  1.30000000E+00  1.30000000E+00  1.30000000E+00
  1.30000000E+00  1.30000000E+00
%FLAG SCREEN                                                                    
%FORMAT(5E16.8)                                                                 
  7.20000000E-01  7.20000000E-01  7.20000000E-01  7.20000000E-01  7.20000000E-01
  7.20000000E-01  8.50000000E-01  8.50000000E-01  8.50000000E-01  8.50000000E-01
  8.50000000E-01  8.50000000E-01  8.50000000E-01  8.50000000E-01  8.50000000E-01
  8.50000000E-01  8.50000000E-01  8.50000000E-01  8.50000000E-01  8.50000000E-01
  8.50000000E-01  8.50000000E-01
%FLAG IPOL                                                                      
%FORMAT(1I8)                                                                    
       0
