; mobley_4690963_GMX_OPLS.itp created by acpype (v: 2023.10.27) on Wed May 20 23:46:36 2026

; For OPLS atomtypes manual fine tuning
; AC_at:OPLS_at:OPLScode: Possible_Alternatives (see ffoplsaa.atp and ffoplsaanb.itp)
; c3:CT:opls_135: ['136', '137', '149', '157', '158', '206', '209', '210', '223B', '224B', '245', '246', '274', '283', '284', '285', '292', '292B', '293B', '296', '307', '308', '505']
; os:x:opls_x: []
; hc:HC:opls_140: []
; h1:HC:opls_140: []

[ moleculetype ]
;name            nrexcl
 mobley_4690963   3

[ atoms ]
;   nr  type  resi  res  atom  cgnr     charge      mass       ; qtot   bond_type
     1 opls_135     1   MOL    C1    1    -0.097100     12.01100 ; qtot -0.097  CT  
     2 opls_135     1   MOL    C2    2    -0.097100     12.01100 ; qtot -0.194  CT  
     3 opls_135     1   MOL    C3    3     0.132400     12.01100 ; qtot -0.062  CT  
     4 opls_135     1   MOL    C4    4     0.132400     12.01100 ; qtot  0.071  CT  
     5 opls_135     1   MOL    C5    5     0.128400     12.01100 ; qtot  0.199  CT  
     6 opls_135     1   MOL    C6    6     0.128400     12.01100 ; qtot  0.327  CT  
     7 opls_x     1   MOL    O1    7    -0.427599      0.00000 ; qtot -0.100  x   
     8 opls_x     1   MOL    O2    8    -0.427599      0.00000 ; qtot -0.528  x   
     9 opls_140     1   MOL    H1    9     0.045033      1.00800 ; qtot -0.483  HC  
    10 opls_140     1   MOL    H2   10     0.045033      1.00800 ; qtot -0.438  HC  
    11 opls_140     1   MOL    H3   11     0.045033      1.00800 ; qtot -0.393  HC  
    12 opls_140     1   MOL    H4   12     0.045033      1.00800 ; qtot -0.348  HC  
    13 opls_140     1   MOL    H5   13     0.045033      1.00800 ; qtot -0.303  HC  
    14 opls_140     1   MOL    H6   14     0.045033      1.00800 ; qtot -0.258  HC  
    15 opls_140     1   MOL    H7   15     0.025700      1.00800 ; qtot -0.232  HC  
    16 opls_140     1   MOL    H8   16     0.025700      1.00800 ; qtot -0.206  HC  
    17 opls_140     1   MOL    H9   17     0.025700      1.00800 ; qtot -0.181  HC  
    18 opls_140     1   MOL   H10   18     0.025700      1.00800 ; qtot -0.155  HC  
    19 opls_140     1   MOL   H11   19     0.038700      1.00800 ; qtot -0.116  HC  
    20 opls_140     1   MOL   H12   20     0.038700      1.00800 ; qtot -0.077  HC  
    21 opls_140     1   MOL   H13   21     0.038700      1.00800 ; qtot -0.039  HC  
    22 opls_140     1   MOL   H14   22     0.038700      1.00800 ; qtot -0.000  HC  

[ bonds ]
;   ai     aj funct   r             k
     1      3   1 ;    1.5354e-01    1.9154e+05 ;     C1 - C3         CT - CT    
     1      9   1 ;    1.0962e-01    2.8891e+05 ;     C1 - H1         CT - HC    
     1     10   1 ;    1.0962e-01    2.8891e+05 ;     C1 - H2         CT - HC    
     1     11   1 ;    1.0962e-01    2.8891e+05 ;     C1 - H3         CT - HC    
     2      4   1 ;    1.5354e-01    1.9154e+05 ;     C2 - C4         CT - CT    
     2     12   1 ;    1.0962e-01    2.8891e+05 ;     C2 - H4         CT - HC    
     2     13   1 ;    1.0962e-01    2.8891e+05 ;     C2 - H5         CT - HC    
     2     14   1 ;    1.0962e-01    2.8891e+05 ;     C2 - H6         CT - HC    
     3      7   1 ;    1.4273e-01    2.3620e+05 ;     C3 - O1         CT - x     
     3     15   1 ;    1.0969e-01    2.8804e+05 ;     C3 - H7         CT - HC    
     3     16   1 ;    1.0969e-01    2.8804e+05 ;     C3 - H8         CT - HC    
     4      8   1 ;    1.4273e-01    2.3620e+05 ;     C4 - O2         CT - x     
     4     17   1 ;    1.0969e-01    2.8804e+05 ;     C4 - H9         CT - HC    
     4     18   1 ;    1.0969e-01    2.8804e+05 ;     C4 - H10        CT - HC    
     5      6   1 ;    1.5354e-01    1.9154e+05 ;     C5 - C6         CT - CT    
     5      7   1 ;    1.4273e-01    2.3620e+05 ;     C5 - O1         CT - x     
     5     19   1 ;    1.0969e-01    2.8804e+05 ;     C5 - H11        CT - HC    
     5     20   1 ;    1.0969e-01    2.8804e+05 ;     C5 - H12        CT - HC    
     6      8   1 ;    1.4273e-01    2.3620e+05 ;     C6 - O2         CT - x     
     6     21   1 ;    1.0969e-01    2.8804e+05 ;     C6 - H13        CT - HC    
     6     22   1 ;    1.0969e-01    2.8804e+05 ;     C6 - H14        CT - HC    

[ pairs ]
;   ai     aj    funct
     1      5      1 ;     C1 - C5    
     2      6      1 ;     C2 - C6    
     3      6      1 ;     C3 - C6    
     3     19      1 ;     C3 - H11   
     3     20      1 ;     C3 - H12   
     4      5      1 ;     C4 - C5    
     4     21      1 ;     C4 - H13   
     4     22      1 ;     C4 - H14   
     5     15      1 ;     C5 - H7    
     5     16      1 ;     C5 - H8    
     6     17      1 ;     C6 - H9    
     6     18      1 ;     C6 - H10   
     7      8      1 ;     O1 - O2    
     7     21      1 ;     O1 - H13   
     7     22      1 ;     O1 - H14   
     8     12      1 ;     O2 - H4    
     8     13      1 ;     O2 - H5    
     8     14      1 ;     O2 - H6    
     8     19      1 ;     O2 - H11   
     8     20      1 ;     O2 - H12   
     9      7      1 ;     H1 - O1    
     9     15      1 ;     H1 - H7    
     9     16      1 ;     H1 - H8    
    10      7      1 ;     H2 - O1    
    10     15      1 ;     H2 - H7    
    10     16      1 ;     H2 - H8    
    11      7      1 ;     H3 - O1    
    11     15      1 ;     H3 - H7    
    11     16      1 ;     H3 - H8    
    12     17      1 ;     H4 - H9    
    12     18      1 ;     H4 - H10   
    13     17      1 ;     H5 - H9    
    13     18      1 ;     H5 - H10   
    14     17      1 ;     H6 - H9    
    14     18      1 ;     H6 - H10   
    19     21      1 ;    H11 - H13   
    19     22      1 ;    H11 - H14   
    20     21      1 ;    H12 - H13   
    20     22      1 ;    H12 - H14   

[ angles ]
;   ai     aj     ak    funct   theta         cth
     1      3      7      1 ;    1.0762e+02    6.4802e+02 ;     C1 - C3   - O1       CT -   CT - x   
     1      3     15      1 ;    1.0959e+02    3.6217e+02 ;     C1 - C3   - H7       CT -   CT - HC  
     1      3     16      1 ;    1.0959e+02    3.6217e+02 ;     C1 - C3   - H8       CT -   CT - HC  
     2      4      8      1 ;    1.0762e+02    6.4802e+02 ;     C2 - C4   - O2       CT -   CT - x   
     2      4     17      1 ;    1.0959e+02    3.6217e+02 ;     C2 - C4   - H9       CT -   CT - HC  
     2      4     18      1 ;    1.0959e+02    3.6217e+02 ;     C2 - C4   - H10      CT -   CT - HC  
     3      1      9      1 ;    1.0968e+02    3.6208e+02 ;     C3 - C1   - H1       CT -   CT - HC  
     3      1     10      1 ;    1.0968e+02    3.6208e+02 ;     C3 - C1   - H2       CT -   CT - HC  
     3      1     11      1 ;    1.0968e+02    3.6208e+02 ;     C3 - C1   - H3       CT -   CT - HC  
     3      7      5      1 ;    1.1360e+02    7.3915e+02 ;     C3 - O1   - C5       CT -    x - CT  
     4      2     12      1 ;    1.0968e+02    3.6208e+02 ;     C4 - C2   - H4       CT -   CT - HC  
     4      2     13      1 ;    1.0968e+02    3.6208e+02 ;     C4 - C2   - H5       CT -   CT - HC  
     4      2     14      1 ;    1.0968e+02    3.6208e+02 ;     C4 - C2   - H6       CT -   CT - HC  
     4      8      6      1 ;    1.1360e+02    7.3915e+02 ;     C4 - O2   - C6       CT -    x - CT  
     5      6      8      1 ;    1.0762e+02    6.4802e+02 ;     C5 - C6   - O2       CT -   CT - x   
     5      6     21      1 ;    1.0959e+02    3.6217e+02 ;     C5 - C6   - H13      CT -   CT - HC  
     5      6     22      1 ;    1.0959e+02    3.6217e+02 ;     C5 - C6   - H14      CT -   CT - HC  
     6      5      7      1 ;    1.0762e+02    6.4802e+02 ;     C6 - C5   - O1       CT -   CT - x   
     6      5     19      1 ;    1.0959e+02    3.6217e+02 ;     C6 - C5   - H11      CT -   CT - HC  
     6      5     20      1 ;    1.0959e+02    3.6217e+02 ;     C6 - C5   - H12      CT -   CT - HC  
     7      3     15      1 ;    1.1034e+02    4.7028e+02 ;     O1 - C3   - H7        x -   CT - HC  
     7      3     16      1 ;    1.1034e+02    4.7028e+02 ;     O1 - C3   - H8        x -   CT - HC  
     7      5     19      1 ;    1.1034e+02    4.7028e+02 ;     O1 - C5   - H11       x -   CT - HC  
     7      5     20      1 ;    1.1034e+02    4.7028e+02 ;     O1 - C5   - H12       x -   CT - HC  
     8      4     17      1 ;    1.1034e+02    4.7028e+02 ;     O2 - C4   - H9        x -   CT - HC  
     8      4     18      1 ;    1.1034e+02    4.7028e+02 ;     O2 - C4   - H10       x -   CT - HC  
     8      6     21      1 ;    1.1034e+02    4.7028e+02 ;     O2 - C6   - H13       x -   CT - HC  
     8      6     22      1 ;    1.1034e+02    4.7028e+02 ;     O2 - C6   - H14       x -   CT - HC  
     9      1     10      1 ;    1.0773e+02    2.9957e+02 ;     H1 - C1   - H2       HC -   CT - HC  
     9      1     11      1 ;    1.0773e+02    2.9957e+02 ;     H1 - C1   - H3       HC -   CT - HC  
    10      1     11      1 ;    1.0773e+02    2.9957e+02 ;     H2 - C1   - H3       HC -   CT - HC  
    12      2     13      1 ;    1.0773e+02    2.9957e+02 ;     H4 - C2   - H5       HC -   CT - HC  
    12      2     14      1 ;    1.0773e+02    2.9957e+02 ;     H4 - C2   - H6       HC -   CT - HC  
    13      2     14      1 ;    1.0773e+02    2.9957e+02 ;     H5 - C2   - H6       HC -   CT - HC  
    15      3     16      1 ;    1.0855e+02    2.9824e+02 ;     H7 - C3   - H8       HC -   CT - HC  
    17      4     18      1 ;    1.0855e+02    2.9824e+02 ;     H9 - C4   - H10      HC -   CT - HC  
    19      5     20      1 ;    1.0855e+02    2.9824e+02 ;    H11 - C5   - H12      HC -   CT - HC  
    21      6     22      1 ;    1.0855e+02    2.9824e+02 ;    H13 - C6   - H14      HC -   CT - HC  

[ dihedrals ] ; propers
; for gromacs 4.5 or higher, using funct 9
;    i      j      k      l   func   phase     kd      pn
     1      3      7      5      9 ;     0.00   0.33472   2 ;     C1-    C3-    O1-    C5
     1      3      7      5      9 ;     0.00   3.13800   3 ;     C1-    C3-    O1-    C5
     1      3      7      5      9 ;   180.00   3.68192   1 ;     C1-    C3-    O1-    C5
     2      4      8      6      9 ;     0.00   0.33472   2 ;     C2-    C4-    O2-    C6
     2      4      8      6      9 ;     0.00   3.13800   3 ;     C2-    C4-    O2-    C6
     2      4      8      6      9 ;   180.00   3.68192   1 ;     C2-    C4-    O2-    C6
     3      7      5      6      9 ;     0.00   0.33472   2 ;     C3-    O1-    C5-    C6
     3      7      5      6      9 ;     0.00   3.13800   3 ;     C3-    O1-    C5-    C6
     3      7      5      6      9 ;   180.00   3.68192   1 ;     C3-    O1-    C5-    C6
     3      7      5     19      9 ;     0.00   1.41001   3 ;     C3-    O1-    C5-   H11
     3      7      5     20      9 ;     0.00   1.41001   3 ;     C3-    O1-    C5-   H12
     4      8      6      5      9 ;     0.00   0.33472   2 ;     C4-    O2-    C6-    C5
     4      8      6      5      9 ;     0.00   3.13800   3 ;     C4-    O2-    C6-    C5
     4      8      6      5      9 ;   180.00   3.68192   1 ;     C4-    O2-    C6-    C5
     4      8      6     21      9 ;     0.00   1.41001   3 ;     C4-    O2-    C6-   H13
     4      8      6     22      9 ;     0.00   1.41001   3 ;     C4-    O2-    C6-   H14
     5      7      3     15      9 ;     0.00   1.41001   3 ;     C5-    O1-    C3-    H7
     5      7      3     16      9 ;     0.00   1.41001   3 ;     C5-    O1-    C3-    H8
     6      8      4     17      9 ;     0.00   1.41001   3 ;     C6-    O2-    C4-    H9
     6      8      4     18      9 ;     0.00   1.41001   3 ;     C6-    O2-    C4-   H10
     7      5      6      8      9 ;     0.00   0.75312   1 ;     O1-    C5-    C6-    O2
     7      5      6      8      9 ;     0.00   2.09200   3 ;     O1-    C5-    C6-    O2
     7      5      6      8      9 ;     0.00   3.76560   2 ;     O1-    C5-    C6-    O2
     7      5      6     21      9 ;     0.00   0.00000   0 ;     O1-    C5-    C6-   H13
     7      5      6     21      9 ;     0.00   1.04600   1 ;     O1-    C5-    C6-   H13
     7      5      6     22      9 ;     0.00   0.00000   0 ;     O1-    C5-    C6-   H14
     7      5      6     22      9 ;     0.00   1.04600   1 ;     O1-    C5-    C6-   H14
     8      4      2     12      9 ;     0.00   0.00000   0 ;     O2-    C4-    C2-    H4
     8      4      2     12      9 ;     0.00   1.04600   1 ;     O2-    C4-    C2-    H4
     8      4      2     13      9 ;     0.00   0.00000   0 ;     O2-    C4-    C2-    H5
     8      4      2     13      9 ;     0.00   1.04600   1 ;     O2-    C4-    C2-    H5
     8      4      2     14      9 ;     0.00   0.00000   0 ;     O2-    C4-    C2-    H6
     8      4      2     14      9 ;     0.00   1.04600   1 ;     O2-    C4-    C2-    H6
     8      6      5     19      9 ;     0.00   0.00000   0 ;     O2-    C6-    C5-   H11
     8      6      5     19      9 ;     0.00   1.04600   1 ;     O2-    C6-    C5-   H11
     8      6      5     20      9 ;     0.00   0.00000   0 ;     O2-    C6-    C5-   H12
     8      6      5     20      9 ;     0.00   1.04600   1 ;     O2-    C6-    C5-   H12
     9      1      3      7      9 ;     0.00   0.00000   0 ;     H1-    C1-    C3-    O1
     9      1      3      7      9 ;     0.00   1.04600   1 ;     H1-    C1-    C3-    O1
     9      1      3     15      9 ;     0.00   0.65084   3 ;     H1-    C1-    C3-    H7
     9      1      3     16      9 ;     0.00   0.65084   3 ;     H1-    C1-    C3-    H8
    10      1      3      7      9 ;     0.00   0.00000   0 ;     H2-    C1-    C3-    O1
    10      1      3      7      9 ;     0.00   1.04600   1 ;     H2-    C1-    C3-    O1
    10      1      3     15      9 ;     0.00   0.65084   3 ;     H2-    C1-    C3-    H7
    10      1      3     16      9 ;     0.00   0.65084   3 ;     H2-    C1-    C3-    H8
    11      1      3      7      9 ;     0.00   0.00000   0 ;     H3-    C1-    C3-    O1
    11      1      3      7      9 ;     0.00   1.04600   1 ;     H3-    C1-    C3-    O1
    11      1      3     15      9 ;     0.00   0.65084   3 ;     H3-    C1-    C3-    H7
    11      1      3     16      9 ;     0.00   0.65084   3 ;     H3-    C1-    C3-    H8
    12      2      4     17      9 ;     0.00   0.65084   3 ;     H4-    C2-    C4-    H9
    12      2      4     18      9 ;     0.00   0.65084   3 ;     H4-    C2-    C4-   H10
    13      2      4     17      9 ;     0.00   0.65084   3 ;     H5-    C2-    C4-    H9
    13      2      4     18      9 ;     0.00   0.65084   3 ;     H5-    C2-    C4-   H10
    14      2      4     17      9 ;     0.00   0.65084   3 ;     H6-    C2-    C4-    H9
    14      2      4     18      9 ;     0.00   0.65084   3 ;     H6-    C2-    C4-   H10
    19      5      6     21      9 ;     0.00   0.65084   3 ;    H11-    C5-    C6-   H13
    19      5      6     22      9 ;     0.00   0.65084   3 ;    H11-    C5-    C6-   H14
    20      5      6     21      9 ;     0.00   0.65084   3 ;    H12-    C5-    C6-   H13
    20      5      6     22      9 ;     0.00   0.65084   3 ;    H12-    C5-    C6-   H14
