12_diethoxyethane
    22
   0.3020000   0.5420000   3.9170000  -3.1660000  -3.7250000  -0.0470000
   0.3150000   0.8020000   2.4260000  -3.2680000  -2.2460000  -0.3500000
  -0.8940000   0.4510000   0.4420000  -2.1460000  -0.1940000  -0.1210000
  -0.8530000   0.2360000   1.8470000  -2.1050000  -1.5920000   0.1370000
   1.1900000   0.9650000   4.3950000  -0.5900000   0.9800000   4.3780000
   0.2690000  -0.5340000   4.1210000  -4.0480000  -4.2600000  -0.4090000
  -2.2750000  -4.1550000  -0.5160000  -3.0700000  -3.8920000   1.0310000
   1.1950000   0.3430000   1.9650000   0.3240000   1.8770000   2.2240000
  -4.1460000  -1.8130000   0.1390000  -3.3400000  -2.0790000  -1.4290000
  -0.8900000   1.5300000   0.2610000   0.0000000   0.0000000   0.0000000
  -2.2120000  -0.0490000  -1.2040000  -3.0380000   0.2180000   0.3610000
