; mobley_4690963_GMX_OPLS.top created by acpype (v: 2023.10.27) on Wed May 20 23:46:36 2026

; Include forcefield parameters
#include "ffoplsaa.itp"

; Include mobley_4690963_GMX.itp topology
#include "mobley_4690963_GMX.itp"

; Ligand position restraints
#ifdef POSRES_LIG
#include "posre_mobley_4690963.itp"
#endif

[ system ]
 mobley_4690963

[ molecules ]
; Compound        nmols
 mobley_4690963   1     
