iodobenzene
    12
   1.8850000  -1.0380000  -0.1090000   0.8180000  -0.4410000   0.5630000
   2.9350000  -1.6040000   0.6140000   0.8010000  -0.4100000   1.9570000
   2.9180000  -1.5730000   2.0080000   1.8510000  -0.9770000   2.6800000
   1.8260000  -0.9310000   4.7570000   1.8980000  -1.0610000  -1.1950000
   0.0000000  -0.0000000  -0.0000000   3.7660000  -2.0680000   0.0900000
  -0.0400000   0.0590000   2.4610000   3.7460000  -2.0200000   2.5530000
