; mobley_7988076_GMX_OPLS.itp created by acpype (v: 2023.10.27) on Wed May 20 23:52:15 2026

; For OPLS atomtypes manual fine tuning
; AC_at:OPLS_at:OPLScode: Possible_Alternatives (see ffoplsaa.atp and ffoplsaanb.itp)
; ca:CA:opls_145: ['166', '501', '502']
; c:C:opls_235: ['271']
; o:O:opls_236: ['272']
; oh:OH:opls_154: ['167']
; ha:HA:opls_146: []
; h4:HA:opls_146: []
; ho:HO:opls_155: ['168']

[ moleculetype ]
;name            nrexcl
 mobley_7988076   3

[ atoms ]
;   nr  type  resi  res  atom  cgnr     charge      mass       ; qtot   bond_type
     1 opls_145     1   MOL    C1    1    -0.041000     12.01100 ; qtot -0.041  CA  
     2 opls_145     1   MOL    C2    2    -0.041000     12.01100 ; qtot -0.082  CA  
     3 opls_145     1   MOL    C3    3    -0.203000     12.01100 ; qtot -0.285  CA  
     4 opls_145     1   MOL    C4    4    -0.203000     12.01100 ; qtot -0.488  CA  
     5 opls_145     1   MOL    C5    5    -0.234600     12.01100 ; qtot -0.723  CA  
     6 opls_145     1   MOL    C6    6     0.156100     12.01100 ; qtot -0.566  CA  
     7 opls_235     1   MOL    C7    7     0.582500     12.01100 ; qtot  0.016  C   
     8 opls_236     1   MOL    O1    8    -0.533100     15.99940 ; qtot -0.517  O   
     9 opls_154     1   MOL    O2    9    -0.491100     15.99940 ; qtot -1.008  OH  
    10 opls_146     1   MOL    H1   10     0.147000      1.00800 ; qtot -0.861  HA  
    11 opls_146     1   MOL    H2   11     0.147000      1.00800 ; qtot -0.714  HA  
    12 opls_146     1   MOL    H3   12     0.147500      1.00800 ; qtot -0.567  HA  
    13 opls_146     1   MOL    H4   13     0.147500      1.00800 ; qtot -0.419  HA  
    14 opls_146     1   MOL    H5   14    -0.004800      1.00800 ; qtot -0.424  HA  
    15 opls_155     1   MOL    H6   15     0.424000      1.00800 ; qtot  0.000  HO  

[ bonds ]
;   ai     aj funct   r             k
     1      3   1 ;    1.3986e-01    2.9644e+05 ;     C1 - C3         CA - CA    
     1      5   1 ;    1.3986e-01    2.9644e+05 ;     C1 - C5         CA - CA    
     1     10   1 ;    1.0860e-01    3.0183e+05 ;     C1 - H1         CA - HA    
     2      4   1 ;    1.3986e-01    2.9644e+05 ;     C2 - C4         CA - CA    
     2      5   1 ;    1.3986e-01    2.9644e+05 ;     C2 - C5         CA - CA    
     2     11   1 ;    1.0860e-01    3.0183e+05 ;     C2 - H2         CA - HA    
     3      6   1 ;    1.3986e-01    2.9644e+05 ;     C3 - C6         CA - CA    
     3     12   1 ;    1.0860e-01    3.0183e+05 ;     C3 - H3         CA - HA    
     4      6   1 ;    1.3986e-01    2.9644e+05 ;     C4 - C6         CA - CA    
     4     13   1 ;    1.0860e-01    3.0183e+05 ;     C4 - H4         CA - HA    
     5      7   1 ;    1.4907e-01    2.1994e+05 ;     C5 - C7         CA - C     
     6      9   1 ;    1.3644e-01    2.9167e+05 ;     C6 - O2         CA - OH    
     7      8   1 ;    1.2190e-01    4.9421e+05 ;     C7 - O1          C - O     
     7     14   1 ;    1.1123e-01    2.6984e+05 ;     C7 - H5          C - HA    
     9     15   1 ;    9.7250e-02    4.4811e+05 ;     O2 - H6         OH - HO    

[ pairs ]
;   ai     aj    funct
     1      4      1 ;     C1 - C4    
     1      8      1 ;     C1 - O1    
     1      9      1 ;     C1 - O2    
     1     11      1 ;     C1 - H2    
     1     14      1 ;     C1 - H5    
     2      3      1 ;     C2 - C3    
     2      8      1 ;     C2 - O1    
     2      9      1 ;     C2 - O2    
     2     14      1 ;     C2 - H5    
     3      7      1 ;     C3 - C7    
     3     13      1 ;     C3 - H4    
     3     15      1 ;     C3 - H6    
     4      7      1 ;     C4 - C7    
     4     12      1 ;     C4 - H3    
     4     15      1 ;     C4 - H6    
     5      6      1 ;     C5 - C6    
     5     12      1 ;     C5 - H3    
     5     13      1 ;     C5 - H4    
     6     11      1 ;     C6 - H2    
     7     11      1 ;     C7 - H2    
     9     12      1 ;     O2 - H3    
     9     13      1 ;     O2 - H4    
    10      2      1 ;     H1 - C2    
    10      6      1 ;     H1 - C6    
    10      7      1 ;     H1 - C7    
    10     12      1 ;     H1 - H3    
    11     13      1 ;     H2 - H4    

[ angles ]
;   ai     aj     ak    funct   theta         cth
     1      3      6      1 ;    1.2002e+02    5.3279e+02 ;     C1 - C3   - C6       CA -   CA - CA  
     1      3     12      1 ;    1.1988e+02    3.7572e+02 ;     C1 - C3   - H3       CA -   CA - HA  
     1      5      2      1 ;    1.2002e+02    5.3279e+02 ;     C1 - C5   - C2       CA -   CA - CA  
     1      5      7      1 ;    1.2033e+02    5.1413e+02 ;     C1 - C5   - C7       CA -   CA - C   
     2      4      6      1 ;    1.2002e+02    5.3279e+02 ;     C2 - C4   - C6       CA -   CA - CA  
     2      4     13      1 ;    1.1988e+02    3.7572e+02 ;     C2 - C4   - H4       CA -   CA - HA  
     2      5      7      1 ;    1.2033e+02    5.1413e+02 ;     C2 - C5   - C7       CA -   CA - C   
     3      1      5      1 ;    1.2002e+02    5.3279e+02 ;     C3 - C1   - C5       CA -   CA - CA  
     3      1     10      1 ;    1.1988e+02    3.7572e+02 ;     C3 - C1   - H1       CA -   CA - HA  
     3      6      4      1 ;    1.2002e+02    5.3279e+02 ;     C3 - C6   - C4       CA -   CA - CA  
     3      6      9      1 ;    1.1990e+02    6.5990e+02 ;     C3 - C6   - O2       CA -   CA - OH  
     4      2      5      1 ;    1.2002e+02    5.3279e+02 ;     C4 - C2   - C5       CA -   CA - CA  
     4      2     11      1 ;    1.1988e+02    3.7572e+02 ;     C4 - C2   - H2       CA -   CA - HA  
     4      6      9      1 ;    1.1990e+02    6.5990e+02 ;     C4 - C6   - O2       CA -   CA - OH  
     5      1     10      1 ;    1.1988e+02    3.7572e+02 ;     C5 - C1   - H1       CA -   CA - HA  
     5      2     11      1 ;    1.1988e+02    3.7572e+02 ;     C5 - C2   - H2       CA -   CA - HA  
     5      7      8      1 ;    1.2260e+02    6.5237e+02 ;     C5 - C7   - O1       CA -    C - O   
     5      7     14      1 ;    1.1514e+02    3.6208e+02 ;     C5 - C7   - H5       CA -    C - HA  
     6      3     12      1 ;    1.1988e+02    3.7572e+02 ;     C6 - C3   - H3       CA -   CA - HA  
     6      4     13      1 ;    1.1988e+02    3.7572e+02 ;     C6 - C4   - H4       CA -   CA - HA  
     6      9     15      1 ;    1.0858e+02    5.6409e+02 ;     C6 - O2   - H6       CA -   OH - HO  
     8      7     14      1 ;    1.2062e+02    5.0191e+02 ;     O1 - C7   - H5        O -    C - HA  

[ dihedrals ] ; propers
; for gromacs 4.5 or higher, using funct 9
;    i      j      k      l   func   phase     kd      pn
     1      3      6      4      9 ;   180.00  15.16700   2 ;     C1-    C3-    C6-    C4
     1      3      6      9      9 ;   180.00  15.16700   2 ;     C1-    C3-    C6-    O2
     1      5      2      4      9 ;   180.00  15.16700   2 ;     C1-    C5-    C2-    C4
     1      5      2     11      9 ;   180.00  15.16700   2 ;     C1-    C5-    C2-    H2
     1      5      7      8      9 ;   180.00   2.42672   2 ;     C1-    C5-    C7-    O1
     1      5      7     14      9 ;   180.00   4.18400   2 ;     C1-    C5-    C7-    H5
     2      4      6      3      9 ;   180.00  15.16700   2 ;     C2-    C4-    C6-    C3
     2      4      6      9      9 ;   180.00  15.16700   2 ;     C2-    C4-    C6-    O2
     2      5      7      8      9 ;   180.00   2.42672   2 ;     C2-    C5-    C7-    O1
     2      5      7     14      9 ;   180.00   4.18400   2 ;     C2-    C5-    C7-    H5
     3      1      5      2      9 ;   180.00  15.16700   2 ;     C3-    C1-    C5-    C2
     3      1      5      7      9 ;   180.00  15.16700   2 ;     C3-    C1-    C5-    C7
     3      6      4     13      9 ;   180.00  15.16700   2 ;     C3-    C6-    C4-    H4
     3      6      9     15      9 ;   180.00   3.57732   2 ;     C3-    C6-    O2-    H6
     4      2      5      7      9 ;   180.00  15.16700   2 ;     C4-    C2-    C5-    C7
     4      6      3     12      9 ;   180.00  15.16700   2 ;     C4-    C6-    C3-    H3
     4      6      9     15      9 ;   180.00   3.57732   2 ;     C4-    C6-    O2-    H6
     5      1      3      6      9 ;   180.00  15.16700   2 ;     C5-    C1-    C3-    C6
     5      1      3     12      9 ;   180.00  15.16700   2 ;     C5-    C1-    C3-    H3
     5      2      4      6      9 ;   180.00  15.16700   2 ;     C5-    C2-    C4-    C6
     5      2      4     13      9 ;   180.00  15.16700   2 ;     C5-    C2-    C4-    H4
     6      4      2     11      9 ;   180.00  15.16700   2 ;     C6-    C4-    C2-    H2
     7      5      2     11      9 ;   180.00  15.16700   2 ;     C7-    C5-    C2-    H2
     9      6      3     12      9 ;   180.00  15.16700   2 ;     O2-    C6-    C3-    H3
     9      6      4     13      9 ;   180.00  15.16700   2 ;     O2-    C6-    C4-    H4
    10      1      3      6      9 ;   180.00  15.16700   2 ;     H1-    C1-    C3-    C6
    10      1      3     12      9 ;   180.00  15.16700   2 ;     H1-    C1-    C3-    H3
    10      1      5      2      9 ;   180.00  15.16700   2 ;     H1-    C1-    C5-    C2
    10      1      5      7      9 ;   180.00  15.16700   2 ;     H1-    C1-    C5-    C7
    11      2      4     13      9 ;   180.00  15.16700   2 ;     H2-    C2-    C4-    H4

[ dihedrals ] ; impropers
; treated as propers in GROMACS to use correct AMBER analytical function
;    i      j      k      l   func   phase     kd      pn
     1      6      3     12      4 ;   180.00   4.60240   2 ;     C1-    C6-    C3-    H3
     2      6      4     13      4 ;   180.00   4.60240   2 ;     C2-    C6-    C4-    H4
     3      4      6      9      4 ;   180.00   4.60240   2 ;     C3-    C4-    C6-    O2
     4      5      2     11      4 ;   180.00   4.60240   2 ;     C4-    C5-    C2-    H2
     5     14      7      8      4 ;   180.00  43.93200   2 ;     C5-    H5-    C7-    O1
     7      1      5      2      4 ;   180.00   4.60240   2 ;     C7-    C1-    C5-    C2
    10      1      5      3      4 ;   180.00   4.60240   2 ;     H1-    C1-    C5-    C3
