%VERSION  VERSION_STAMP = V0001.000  DATE = 05/20/26  23:52:16                  
%FLAG TITLE                                                                     
%FORMAT(20a4)                                                                   
4_hydroxybenzaldehyde                                                           
%FLAG POINTERS                                                                  
%FORMAT(10I8)                                                                   
      15       6       6       9      11      11      23      14       0       0
      68       1       9      11      14       7       8       6       7       0
       0       0       0       0       0       0       0       0      15       0
       0
%FLAG ATOM_NAME                                                                 
%FORMAT(20a4)                                                                   
C1  C2  C3  C4  C5  C6  C7  O1  O2  H1  H2  H3  H4  H5  H6  
%FLAG CHARGE                                                                    
%FORMAT(5E16.8)                                                                 
 -7.47114300E-01 -7.47114300E-01 -3.69912690E+00 -3.69912690E+00 -4.27495158E+00
  2.84450103E+00  1.05780452E+01 -9.71430813E+00 -8.94897153E+00  2.67867810E+00
  2.67867810E+00  2.68778925E+00  2.68778925E+00 -8.74670400E-02  7.72625520E+00
%FLAG ATOMIC_NUMBER                                                             
%FORMAT(10I8)                                                                   
       6       6       6       6       6       6       6       8       8       1
       1       1       1       1       1
%FLAG MASS                                                                      
%FORMAT(5E16.8)                                                                 
  1.20100000E+01  1.20100000E+01  1.20100000E+01  1.20100000E+01  1.20100000E+01
  1.20100000E+01  1.20100000E+01  1.60000000E+01  1.60000000E+01  1.00800000E+00
  1.00800000E+00  1.00800000E+00  1.00800000E+00  1.00800000E+00  1.00800000E+00
%FLAG ATOM_TYPE_INDEX                                                           
%FORMAT(10I8)                                                                   
       1       1       1       1       1       1       1       2       3       4
       4       4       4       5       6
%FLAG NUMBER_EXCLUDED_ATOMS                                                     
%FORMAT(10I8)                                                                   
      12      11       9       8       8       6       4       1       3       1
       1       1       1       1       1
%FLAG NONBONDED_PARM_INDEX                                                      
%FORMAT(10I8)                                                                   
       1       2       4       7      11      16       2       3       5       8
      12      17       4       5       6       9      13      18       7       8
       9      10      14      19      11      12      13      14      15      20
      16      17      18      19      20      21
%FLAG RESIDUE_LABEL                                                             
%FORMAT(20a4)                                                                   
MOL 
%FLAG RESIDUE_POINTER                                                           
%FORMAT(10I8)                                                                   
       1
%FLAG BOND_FORCE_CONSTANT                                                       
%FORMAT(5E16.8)                                                                 
  3.54250000E+02  3.60690000E+02  2.62840000E+02  3.48550000E+02  5.90600000E+02
  3.22470000E+02  5.35510000E+02
%FLAG BOND_EQUIL_VALUE                                                          
%FORMAT(5E16.8)                                                                 
  1.39860000E+00  1.08600000E+00  1.49070000E+00  1.36440000E+00  1.21900000E+00
  1.11230000E+00  9.72500000E-01
%FLAG ANGLE_FORCE_CONSTANT                                                      
%FORMAT(5E16.8)                                                                 
  6.36700000E+01  4.49000000E+01  6.14400000E+01  7.88600000E+01  7.79600000E+01
  4.32700000E+01  6.74100000E+01  5.99800000E+01
%FLAG ANGLE_EQUIL_VALUE                                                         
%FORMAT(5E16.8)                                                                 
  2.09474507E+00  2.09230160E+00  2.10015559E+00  2.09265067E+00  2.13977458E+00
  2.00957296E+00  1.89507931E+00  2.10521705E+00
%FLAG DIHEDRAL_FORCE_CONSTANT                                                   
%FORMAT(5E16.8)                                                                 
  3.62500000E+00  5.80000000E-01  1.00000000E+00  8.55000000E-01  1.10000000E+00
  1.05000000E+01
%FLAG DIHEDRAL_PERIODICITY                                                      
%FORMAT(5E16.8)                                                                 
  2.00000000E+00  2.00000000E+00  2.00000000E+00  2.00000000E+00  2.00000000E+00
  2.00000000E+00
%FLAG DIHEDRAL_PHASE                                                            
%FORMAT(5E16.8)                                                                 
  3.14159400E+00  3.14159400E+00  3.14159400E+00  3.14159400E+00  3.14159400E+00
  3.14159400E+00
%FLAG SCEE_SCALE_FACTOR                                                         
%FORMAT(5E16.8)                                                                 
  1.20000000E+00  1.20000000E+00  1.20000000E+00  1.20000000E+00  0.00000000E+00
  0.00000000E+00
%FLAG SCNB_SCALE_FACTOR                                                         
%FORMAT(5E16.8)                                                                 
  2.00000000E+00  2.00000000E+00  2.00000000E+00  2.00000000E+00  0.00000000E+00
  0.00000000E+00
%FLAG SOLTY                                                                     
%FORMAT(5E16.8)                                                                 
  0.00000000E+00  0.00000000E+00  0.00000000E+00  0.00000000E+00  0.00000000E+00
  0.00000000E+00  0.00000000E+00
%FLAG LENNARD_JONES_ACOEF                                                       
%FORMAT(5E16.8)                                                                 
  6.96551276E+05  5.17507491E+05  3.76435470E+05  5.92438683E+05  4.37717034E+05
  5.03152404E+05  7.52549148E+04  5.27277400E+04  6.30298721E+04  6.90855956E+03
  6.27751680E+04  4.36069364E+04  5.24591488E+04  5.62610481E+03  4.56536476E+03
  2.25372434E+02  1.15813907E+02  1.74176419E+02  8.53132435E+00  6.05535196E+00
  1.10360882E-05
%FLAG LENNARD_JONES_BCOEF                                                       
%FORMAT(5E16.8)                                                                 
  5.24668528E+02  4.98871431E+02  4.69350655E+02  4.76608379E+02  4.51916854E+02
  4.32634597E+02  1.09570372E+02  1.01173582E+02  9.87712192E+01  2.10929191E+01
  1.00073628E+02  9.20079458E+01  9.01089277E+01  1.90347353E+01  1.71467049E+01
  4.40751799E+00  3.48534600E+00  3.81654050E+00  5.44840215E-01  4.59018960E-01
  4.55498033E-04
%FLAG BONDS_INC_HYDROGEN                                                        
%FORMAT(10I8)                                                                   
       0      27       2       3      30       2       6      33       2       9
      36       2      18      39       6      24      42       7
%FLAG BONDS_WITHOUT_HYDROGEN                                                    
%FORMAT(10I8)                                                                   
       0       6       1       0      12       1       3       9       1       3
      12       1       6      15       1       9      15       1      12      18
       3      15      24       4      18      21       5
%FLAG ANGLES_INC_HYDROGEN                                                       
%FORMAT(10I8)                                                                   
       0       6      33       2       3       9      36       2       6       0
      27       2       9       3      30       2      12       0      27       2
      12       3      30       2      12      18      39       6      15       6
      33       2      15       9      36       2      15      24      42       7
      21      18      39       8
%FLAG ANGLES_WITHOUT_HYDROGEN                                                   
%FORMAT(10I8)                                                                   
       0       6      15       1       0      12       3       1       0      12
      18       3       3       9      15       1       3      12      18       3
       6       0      12       1       6      15       9       1       6      15
      24       4       9       3      12       1       9      15      24       4
      12      18      21       5
%FLAG DIHEDRALS_INC_HYDROGEN                                                    
%FORMAT(10I8)                                                                   
       0      12       3      30       1       0      12      18      39       3
      27       0      12       3       1       3      12      18      39       3
       6      15       9      36       1       6      15      24      42       4
       9      15       6      33       1       9      15      24      42       4
      12       0       6      33       1      12       3       9      36       1
      27       0       6      15       1      15       9       3      30       1
      27       0      12      18       1      18      12       3      30       1
      24      15       6      33       1      24      15       9      36       1
      27       0       6      33       1      30       3       9      36       1
      27       0     -12      -6       5       9      12      -3     -30       5
       0      15      -6     -33       5       3      15      -9     -36       5
      12      39     -18     -21       6
%FLAG DIHEDRALS_WITHOUT_HYDROGEN                                                
%FORMAT(10I8)                                                                   
       0       6      15       9       1       0       6      15      24       1
       0      12      -3       9       1       0      12      18      21       2
       3       9      15       6       1       3       9      15      24       1
       6       0     -12       3       1       3      12      18      21       2
       6       0      12      18       1       9       3      12      18       1
      12       0       6      15       1      12       3      -9      15       1
      18       0     -12      -3       5       6       9     -15     -24       5
%FLAG EXCLUDED_ATOMS_LIST                                                       
%FORMAT(10I8)                                                                   
       2       3       4       5       6       7       8       9      10      11
      12      14       3       4       5       6       7       8       9      10
      11      13      14       4       5       6       7       9      10      12
      13      15       5       6       7       9      11      12      13      15
       6       7       8      10      11      12      13      14       9      10
      11      12      13      15       8      10      11      14      14      12
      13      15      12      13       0       0       0       0
%FLAG HBOND_ACOEF                                                               
%FORMAT(5E16.8)                                                                 

%FLAG HBOND_BCOEF                                                               
%FORMAT(5E16.8)                                                                 

%FLAG HBCUT                                                                     
%FORMAT(5E16.8)                                                                 

%FLAG AMBER_ATOM_TYPE                                                           
%FORMAT(20a4)                                                                   
ca  ca  ca  ca  ca  ca  c   o   oh  ha  ha  ha  ha  h4  ho  
%FLAG TREE_CHAIN_CLASSIFICATION                                                 
%FORMAT(20a4)                                                                   
BLA BLA BLA BLA BLA BLA BLA BLA BLA BLA BLA BLA BLA BLA BLA 
%FLAG JOIN_ARRAY                                                                
%FORMAT(10I8)                                                                   
       0       0       0       0       0       0       0       0       0       0
       0       0       0       0       0
%FLAG IROTAT                                                                    
%FORMAT(10I8)                                                                   
       0       0       0       0       0       0       0       0       0       0
       0       0       0       0       0
%FLAG RADIUS_SET                                                                
%FORMAT(1a80)                                                                   
modified Bondi radii (mbondi)                                                   
%FLAG RADII                                                                     
%FORMAT(5E16.8)                                                                 
  1.70000000E+00  1.70000000E+00  1.70000000E+00  1.70000000E+00  1.70000000E+00
  1.70000000E+00  1.70000000E+00  1.50000000E+00  1.50000000E+00  1.30000000E+00
  1.30000000E+00  1.30000000E+00  1.30000000E+00  1.30000000E+00  8.00000000E-01
%FLAG SCREEN                                                                    
%FORMAT(5E16.8)                                                                 
  7.20000000E-01  7.20000000E-01  7.20000000E-01  7.20000000E-01  7.20000000E-01
  7.20000000E-01  7.20000000E-01  8.50000000E-01  8.50000000E-01  8.50000000E-01
  8.50000000E-01  8.50000000E-01  8.50000000E-01  8.50000000E-01  8.50000000E-01
%FLAG IPOL                                                                      
%FORMAT(1I8)                                                                    
       0
