; mobley_7988076_GMX_OPLS.top created by acpype (v: 2023.10.27) on Wed May 20 23:52:15 2026

; Include forcefield parameters
#include "ffoplsaa.itp"

; Include mobley_7988076_GMX.itp topology
#include "mobley_7988076_GMX.itp"

; Ligand position restraints
#ifdef POSRES_LIG
#include "posre_mobley_7988076.itp"
#endif

[ system ]
 mobley_7988076

[ molecules ]
; Compound        nmols
 mobley_7988076   1     
