4_hydroxybenzaldehyde
    15
   0.8180000  -0.4390000   0.5640000   2.9370000  -1.5970000   0.6200000
   0.7990000  -0.4060000   1.9590000   2.9180000  -1.5650000   2.0140000
   1.8870000  -1.0340000  -0.1050000   1.8500000  -0.9690000   2.6840000
   1.9050000  -1.0680000  -1.5590000   2.8210000  -1.5790000  -2.2090000
   1.8310000  -0.9390000   4.0440000  -0.0060000   0.0040000   0.0090000
   3.7740000  -2.0650000   0.1080000  -0.0370000   0.0580000   2.4750000
   3.7400000  -2.0050000   2.5730000   1.0450000  -0.6070000  -2.0920000
   1.1750000  -0.2790000   4.3350000
