mobley_7988076_GMX.gro created by acpype (v: 2023.10.27) on Wed May 20 23:52:15 2026
 15
    1  MOL   C1    1   0.082  -0.044   0.056
    1  MOL   C2    2   0.294  -0.160   0.062
    1  MOL   C3    3   0.080  -0.041   0.196
    1  MOL   C4    4   0.292  -0.157   0.201
    1  MOL   C5    5   0.189  -0.103  -0.011
    1  MOL   C6    6   0.185  -0.097   0.268
    1  MOL   C7    7   0.191  -0.107  -0.156
    1  MOL   O1    8   0.282  -0.158  -0.221
    1  MOL   O2    9   0.183  -0.094   0.404
    1  MOL   H1   10  -0.001   0.000   0.001
    1  MOL   H2   11   0.377  -0.207   0.011
    1  MOL   H3   12  -0.004   0.006   0.248
    1  MOL   H4   13   0.374  -0.201   0.257
    1  MOL   H5   14   0.104  -0.061  -0.209
    1  MOL   H6   15   0.118  -0.028   0.433
    7.62200     4.24600    13.08800
