; mobley_5282042_GMX.top created by acpype (v: 2023.10.27) on Thu May 21 00:00:17 2026

[ defaults ]
; nbfunc        comb-rule       gen-pairs       fudgeLJ fudgeQQ
1               2               yes             0.5     0.8333333333

; Include mobley_5282042_GMX.itp topology
#include "mobley_5282042_GMX.itp"

; Ligand position restraints
#ifdef POSRES_LIG
#include "posre_mobley_5282042.itp"
#endif

[ system ]
mobley_5282042 in water

[ molecules ]
; Compound        nmols
 mobley_5282042   1     
SOL              4505
