%VERSION  VERSION_STAMP = V0001.000  DATE = 05/21/26  00:01:14                  
%FLAG TITLE                                                                     
%FORMAT(20a4)                                                                   
SAMPL4_024                                                                      
%FLAG POINTERS                                                                  
%FORMAT(10I8)                                                                   
      44       6      23      23      50      31      82      46       0       0
     243       1      23      31      46      11      20      13       8       0
       0       0       0       0       0       0       0       0      44       0
       0
%FLAG ATOM_NAME                                                                 
%FORMAT(20a4)                                                                   
C1  C2  C3  C4  C5  C6  C7  C8  C9  C10 C11 C12 C13 C14 C15 C16 C17 C18 C19 C20 
N1  H1  H2  H3  H4  H5  H6  H7  H8  H9  H10 H11 H12 H13 H14 H15 H16 H17 H18 H19 
H20 H21 H22 H23 
%FLAG CHARGE                                                                    
%FORMAT(5E16.8)                                                                 
 -2.46001050E+00 -2.46001050E+00 -2.28689865E+00 -2.28689865E+00 -2.15934255E+00
 -2.15934255E+00 -2.44178820E+00 -2.44178820E+00 -7.61692140E-01 -7.61692140E-01
 -1.08058239E+00 -1.08058239E+00 -2.80623420E-01 -2.66410026E+00 -5.75824680E-01
 -5.75824680E-01  2.84450103E+00  2.84450103E+00 -1.04231556E+00  3.18525804E+00
 -1.34772131E+01  2.39623245E+00  2.39623245E+00  2.38712130E+00  2.38712130E+00
  2.45089935E+00  2.45089935E+00  2.36889900E+00  2.36889900E+00  2.31423210E+00
  9.60315210E-01  9.60315210E-01  9.60315210E-01  9.60315210E-01  5.59424610E-01
  5.59424610E-01  5.59424610E-01  5.59424610E-01  5.59424610E-01  5.59424610E-01
  1.11520476E+00  1.11520476E+00  5.68535760E-01  5.68535760E-01
%FLAG ATOMIC_NUMBER                                                             
%FORMAT(10I8)                                                                   
       6       6       6       6       6       6       6       6       6       6
       6       6       6       6       6       6       6       6       6       6
       7       1       1       1       1       1       1       1       1       1
       1       1       1       1       1       1       1       1       1       1
       1       1       1       1
%FLAG MASS                                                                      
%FORMAT(5E16.8)                                                                 
  1.20100000E+01  1.20100000E+01  1.20100000E+01  1.20100000E+01  1.20100000E+01
  1.20100000E+01  1.20100000E+01  1.20100000E+01  1.20100000E+01  1.20100000E+01
  1.20100000E+01  1.20100000E+01  1.20100000E+01  1.20100000E+01  1.20100000E+01
  1.20100000E+01  1.20100000E+01  1.20100000E+01  1.20100000E+01  1.20100000E+01
  1.40100000E+01  1.00800000E+00  1.00800000E+00  1.00800000E+00  1.00800000E+00
  1.00800000E+00  1.00800000E+00  1.00800000E+00  1.00800000E+00  1.00800000E+00
  1.00800000E+00  1.00800000E+00  1.00800000E+00  1.00800000E+00  1.00800000E+00
  1.00800000E+00  1.00800000E+00  1.00800000E+00  1.00800000E+00  1.00800000E+00
  1.00800000E+00  1.00800000E+00  1.00800000E+00  1.00800000E+00
%FLAG ATOM_TYPE_INDEX                                                           
%FORMAT(10I8)                                                                   
       1       1       1       1       1       1       1       1       1       1
       1       1       1       1       2       2       2       2       2       2
       3       4       4       4       4       4       4       4       4       4
       5       5       5       5       6       6       6       6       6       6
       5       5       6       6
%FLAG NUMBER_EXCLUDED_ATOMS                                                     
%FORMAT(10I8)                                                                   
      10      10       9       9      10      10      10      10      14      13
      12      11      10       8       6       5      12      11       7      12
      10       2       2       1       1       1       1       1       1       2
       3       2       1       1       2       1       1       2       1       1
       3       2       1       1
%FLAG NONBONDED_PARM_INDEX                                                      
%FORMAT(10I8)                                                                   
       1       2       4       7      11      16       2       3       5       8
      12      17       4       5       6       9      13      18       7       8
       9      10      14      19      11      12      13      14      15      20
      16      17      18      19      20      21
%FLAG RESIDUE_LABEL                                                             
%FORMAT(20a4)                                                                   
MOL 
%FLAG RESIDUE_POINTER                                                           
%FORMAT(10I8)                                                                   
       1
%FLAG BOND_FORCE_CONSTANT                                                       
%FORMAT(5E16.8)                                                                 
  3.54250000E+02  3.60690000E+02  2.71850000E+02  2.43910000E+02  4.24300000E+02
  2.48400000E+02  3.57290000E+02  2.28890000E+02  3.45250000E+02  2.55850000E+02
  3.44220000E+02
%FLAG BOND_EQUIL_VALUE                                                          
%FORMAT(5E16.8)                                                                 
  1.39860000E+00  1.08600000E+00  1.48000000E+00  1.51470000E+00  1.34570000E+00
  1.50880000E+00  1.08820000E+00  1.53540000E+00  1.09620000E+00  1.46260000E+00
  1.09690000E+00
%FLAG ANGLE_FORCE_CONSTANT                                                      
%FORMAT(5E16.8)                                                                 
  6.36700000E+01  4.49000000E+01  6.15800000E+01  6.07400000E+01  6.06400000E+01
  6.19900000E+01  6.03300000E+01  4.36100000E+01  6.06000000E+01  4.61500000E+01
  6.04000000E+01  4.37600000E+01  4.32700000E+01  7.77500000E+01  4.29500000E+01
  6.49000000E+01  4.32800000E+01  4.78400000E+01  3.58000000E+01  3.56400000E+01
%FLAG ANGLE_EQUIL_VALUE                                                         
%FORMAT(5E16.8)                                                                 
  2.09474507E+00  2.09230160E+00  2.10818411E+00  2.10888224E+00  2.06228193E+00
  2.14640683E+00  1.96209999E+00  1.93085858E+00  2.19178541E+00  2.10294812E+00
  1.96489251E+00  1.93120765E+00  1.91427794E+00  1.96209999E+00  2.00800217E+00
  1.97361916E+00  1.91270715E+00  1.92143380E+00  1.88024401E+00  1.89455572E+00
%FLAG DIHEDRAL_FORCE_CONSTANT                                                   
%FORMAT(5E16.8)                                                                 
  3.62500000E+00  8.05000000E-01  5.85000000E-01  2.40000000E-01  0.00000000E+00
  6.65000000E+00  1.55555556E-01  0.00000000E+00  2.25000000E-01  7.30000000E-01
  1.00000000E-01  1.20000000E-01  1.10000000E+00
%FLAG DIHEDRAL_PERIODICITY                                                      
%FORMAT(5E16.8)                                                                 
  2.00000000E+00  2.00000000E+00  2.00000000E+00  2.00000000E+00  1.00000000E+00
  2.00000000E+00  3.00000000E+00  2.00000000E+00  3.00000000E+00  3.00000000E+00
  3.00000000E+00  3.00000000E+00  2.00000000E+00
%FLAG DIHEDRAL_PHASE                                                            
%FORMAT(5E16.8)                                                                 
  3.14159400E+00  3.14159400E+00  3.14159400E+00  3.14159400E+00  0.00000000E+00
  3.14159400E+00  0.00000000E+00  0.00000000E+00  0.00000000E+00  0.00000000E+00
  0.00000000E+00  0.00000000E+00  3.14159400E+00
%FLAG SCEE_SCALE_FACTOR                                                         
%FORMAT(5E16.8)                                                                 
  1.20000000E+00  1.20000000E+00  1.20000000E+00  1.20000000E+00  1.20000000E+00
  1.20000000E+00  1.20000000E+00  1.20000000E+00  1.20000000E+00  1.20000000E+00
  1.20000000E+00  1.20000000E+00  0.00000000E+00
%FLAG SCNB_SCALE_FACTOR                                                         
%FORMAT(5E16.8)                                                                 
  2.00000000E+00  2.00000000E+00  2.00000000E+00  2.00000000E+00  2.00000000E+00
  2.00000000E+00  2.00000000E+00  2.00000000E+00  2.00000000E+00  2.00000000E+00
  2.00000000E+00  2.00000000E+00  0.00000000E+00
%FLAG SOLTY                                                                     
%FORMAT(5E16.8)                                                                 
  0.00000000E+00  0.00000000E+00  0.00000000E+00  0.00000000E+00  0.00000000E+00
  0.00000000E+00  0.00000000E+00  0.00000000E+00
%FLAG LENNARD_JONES_ACOEF                                                       
%FORMAT(5E16.8)                                                                 
  6.96551276E+05  8.43969952E+05  1.02073671E+06  7.10207765E+05  8.59569453E+05
  7.23647490E+05  7.52549148E+04  9.27554496E+04  7.75325560E+04  6.90855956E+03
  8.12662403E+04  1.00235148E+05  8.37616145E+04  7.41026906E+03  7.94617769E+03
  5.63013422E+04  6.97998263E+04  5.82112737E+04  4.88692384E+03  5.22955465E+03
  3.39005767E+03
%FLAG LENNARD_JONES_BCOEF                                                       
%FORMAT(5E16.8)                                                                 
  5.24668528E+02  5.90251928E+02  6.63431737E+02  5.11427129E+02  5.75038595E+02
  4.98353106E+02  1.09570372E+02  1.24325688E+02  1.07361937E+02  2.10929191E+01
  1.21392023E+02  1.37787728E+02  1.18970742E+02  2.32899892E+01  2.57122925E+01
  1.01040256E+02  1.14981426E+02  9.91793374E+01  1.89134207E+01  2.08590256E+01
  1.67944276E+01
%FLAG BONDS_INC_HYDROGEN                                                        
%FORMAT(10I8)                                                                   
       0      63       2       3      66       2       6      69       2       9
      72       2      12      75       2      15      78       2      18      81
       2      21      84       2      39      87       7      42      90       9
      42      93       9      45      96       9      45      99       9      48
     102      11      48     105      11      48     108      11      51     111
      11      51     114      11      51     117      11      54     120       9
      54     123       9      57     126      11      57     129      11
%FLAG BONDS_WITHOUT_HYDROGEN                                                    
%FORMAT(10I8)                                                                   
       0       6       1       0      12       1       3       9       1       3
      15       1       6      18       1       9      21       1      12      24
       1      15      27       1      18      30       1      21      33       1
      24      30       1      24      36       3      27      33       1      27
      36       3      30      42       4      33      45       4      36      39
       5      39      54       6      42      45       8      48      60      10
      51      60      10      54      57       8      57      60      10
%FLAG ANGLES_INC_HYDROGEN                                                       
%FORMAT(10I8)                                                                   
       0       6      69       2       0      12      75       2       3       9
      72       2       3      15      78       2       6       0      63       2
       6      18      81       2       9       3      66       2       9      21
      84       2      12       0      63       2      15       3      66       2
      18       6      69       2      21       9      72       2      24      12
      75       2      27      15      78       2      30      18      81       2
      30      42      90       8      30      42      93       8      33      21
      84       2      33      45      96       8      33      45      99       8
      36      39      87      10      39      54     120      12      39      54
     123      12      42      45      96      13      42      45      99      13
      45      42      90      13      45      42      93      13      54      39
      87      15      54      57     126      17      54      57     129      17
      57      54     120      13      57      54     123      13      60      48
     102      18      60      48     105      18      60      48     108      18
      60      51     111      18      60      51     114      18      60      51
     117      18      60      57     126      18      60      57     129      18
      90      42      93      19      96      45      99      19     102      48
     105      20     102      48     108      20     105      48     108      20
     111      51     114      20     111      51     117      20     114      51
     117      20     120      54     123      19     126      57     129      20
%FLAG ANGLES_WITHOUT_HYDROGEN                                                   
%FORMAT(10I8)                                                                   
       0       6      18       1       0      12      24       1       3       9
      21       1       3      15      27       1       6       0      12       1
       6      18      30       1       9       3      15       1       9      21
      33       1      12      24      30       1      12      24      36       3
      15      27      33       1      15      27      36       3      18      30
      24       1      18      30      42       4      21      33      27       1
      21      33      45       4      24      30      42       4      24      36
      27       5      24      36      39       6      27      33      45       4
      27      36      39       6      30      24      36       3      30      42
      45       7      33      27      36       3      33      45      42       7
      36      39      54       9      39      54      57      11      48      60
      51      14      48      60      57      14      51      60      57      14
      54      57      60      16
%FLAG DIHEDRALS_INC_HYDROGEN                                                    
%FORMAT(10I8)                                                                   
       0       6      18      81       1       3       9      21      84       1
       6       0      12      75       1       9       3      15      78       1
      12       0       6      69       1      15       3       9      72       1
      63       0       6      18       1      18      30      42      90       5
      18      30      42      93       5      21       9       3      66       1
      21      33      45      96       5      21      33      45      99       5
      63       0      12      24       1      24      30      18      81       1
      24      30      42      90       5      24      30      42      93       5
      24      36      39      87       6      27      15       3      66       1
      27      33      21      84       1      27      33      45      96       5
      27      33      45      99       5      27      36      39      87       6
      30      18       6      69       1      30      24      12      75       1
      30      42      45      96       7      30      42      45      99       7
      33      21       9      72       1      33      27      15      78       1
      33      45      42      90       7      33      45      42      93       7
      36      24      12      75       1      36      27      15      78       1
      36      39      54     120       8      36      39      54     123       8
      39      54      57     126       7      39      54      57     129       7
      42      30      18      81       1      45      33      21      84       1
      48      60      51     111       9      48      60      51     114       9
      48      60      51     117       9      48      60      57     126       9
      48      60      57     129       9      51      60      48     102       9
      51      60      48     105       9      51      60      48     108       9
      51      60      57     126       9      51      60      57     129       9
      57      54      39      87       8      57      60      48     102       9
      57      60      48     105       9      57      60      48     108       9
      57      60      51     111       9      57      60      51     114       9
      57      60      51     117       9      60      57      54     120      11
      60      57      54     123      11      63       0       6      69       1
      63       0      12      75       1      66       3       9      72       1
      66       3      15      78       1      69       6      18      81       1
      72       9      21      84       1      87      39      54     120       8
      87      39      54     123       8      90      42      45      96      12
      90      42      45      99      12      93      42      45      96      12
      93      42      45      99      12     120      54      57     126       7
     120      54      57     129       7     123      54      57     126       7
     123      54      57     129       7      63       0     -12      -6      13
       9      15      -3     -66      13       0      18      -6     -69      13
       3      21      -9     -72      13       0      24     -12     -75      13
       3      27     -15     -78      13       6      30     -18     -81      13
       9      33     -21     -84      13      54      36     -39     -87      13
%FLAG DIHEDRALS_WITHOUT_HYDROGEN                                                
%FORMAT(10I8)                                                                   
       0       6      18      30       1       0      12     -24      30       1
       0      12      24      36       1       3       9      21      33       1
       3      15     -27      33       1       3      15      27      36       1
       6       0      12      24       1       6      18     -30      24       1
       6      18      30      42       1       9       3      15      27       1
       9      21     -33      27       1       9      21      33      45       1
      12       0       6      18       1      12      24     -30      18       1
      12      24      30      42       1      12      24      36      27       2
      12      24      36      39       3      15       3       9      21       1
      15      27     -33      21       1      15      27      33      45       1
      15      27      36      24       2      15      27      36      39       3
      18      30      24      36       1      18      30      42      45       4
      21      33      27      36       1      21      33      45      42       4
      24      30      42      45       4      24      36      27      33       2
      24      36      39      54       6      27      33      45      42       4
      27      36      24      30       2      27      36      39      54       6
      30      24      36      39       3      30      42      45      33       7
      33      27      36      39       3      36      24      30      42       1
      36      27      33      45       1      36      39      54      57       8
      39      54      57      60       7      48      60      57      54      10
      51      60      57      54      10      12      30     -24     -36      13
      15      33     -27     -36      13      18      24     -30     -42      13
      45      21     -33     -27      13      39      24     -36     -27      13
%FLAG EXCLUDED_ATOMS_LIST                                                       
%FORMAT(10I8)                                                                   
       3       5       7       9      11      13      22      24      26      28
       4       6       8      10      12      13      23      25      27      29
       5       7       9      11      15      22      24      26      28       6
       8      10      12      16      23      25      27      29       7       9
      10      11      13      14      15      22      24      26       8       9
      10      12      13      14      16      23      25      27       9      11
      13      15      16      22      24      28      31      32      10      12
      13      15      16      23      25      29      33      34      10      11
      12      13      14      15      16      19      22      26      28      30
      31      32      11      12      13      14      15      16      19      23
      27      29      30      33      34      12      13      14      15      16
      24      26      28      31      32      33      34      13      14      15
      16      25      27      29      31      32      33      34      14      15
      16      19      20      26      27      30      41      42      19      20
      21      30      41      42      43      44      16      28      31      32
      33      34      29      31      32      33      34      18      19      20
      21      35      36      37      38      39      40      43      44      19
      20      21      35      36      37      38      39      40      43      44
      20      21      30      41      42      43      44      21      30      35
      36      37      38      39      40      41      42      43      44      35
      36      37      38      39      40      41      42      43      44      24
      26      25      27      28      29       0       0       0       0      41
      42      32      33      34      33      34      34       0      36      37
      37       0      39      40      40       0      42      43      44      43
      44      44       0
%FLAG HBOND_ACOEF                                                               
%FORMAT(5E16.8)                                                                 

%FLAG HBOND_BCOEF                                                               
%FORMAT(5E16.8)                                                                 

%FLAG HBCUT                                                                     
%FORMAT(5E16.8)                                                                 

%FLAG AMBER_ATOM_TYPE                                                           
%FORMAT(20a4)                                                                   
ca  ca  ca  ca  ca  ca  ca  ca  ca  ca  ca  ca  ce  c2  c3  c3  c3  c3  c3  c3  
n3  ha  ha  ha  ha  ha  ha  ha  ha  ha  hc  hc  hc  hc  h1  h1  h1  h1  h1  h1  
hc  hc  h1  h1  
%FLAG TREE_CHAIN_CLASSIFICATION                                                 
%FORMAT(20a4)                                                                   
BLA BLA BLA BLA BLA BLA BLA BLA BLA BLA BLA BLA BLA BLA BLA BLA BLA BLA BLA BLA 
BLA BLA BLA BLA BLA BLA BLA BLA BLA BLA BLA BLA BLA BLA BLA BLA BLA BLA BLA BLA 
BLA BLA BLA BLA 
%FLAG JOIN_ARRAY                                                                
%FORMAT(10I8)                                                                   
       0       0       0       0       0       0       0       0       0       0
       0       0       0       0       0       0       0       0       0       0
       0       0       0       0       0       0       0       0       0       0
       0       0       0       0       0       0       0       0       0       0
       0       0       0       0
%FLAG IROTAT                                                                    
%FORMAT(10I8)                                                                   
       0       0       0       0       0       0       0       0       0       0
       0       0       0       0       0       0       0       0       0       0
       0       0       0       0       0       0       0       0       0       0
       0       0       0       0       0       0       0       0       0       0
       0       0       0       0
%FLAG RADIUS_SET                                                                
%FORMAT(1a80)                                                                   
modified Bondi radii (mbondi)                                                   
%FLAG RADII                                                                     
%FORMAT(5E16.8)                                                                 
  1.70000000E+00  1.70000000E+00  1.70000000E+00  1.70000000E+00  1.70000000E+00
  1.70000000E+00  1.70000000E+00  1.70000000E+00  1.70000000E+00  1.70000000E+00
  1.70000000E+00  1.70000000E+00  1.70000000E+00  1.70000000E+00  1.70000000E+00
  1.70000000E+00  1.70000000E+00  1.70000000E+00  1.70000000E+00  1.70000000E+00
  1.55000000E+00  1.30000000E+00  1.30000000E+00  1.30000000E+00  1.30000000E+00
  1.30000000E+00  1.30000000E+00  1.30000000E+00  1.30000000E+00  1.30000000E+00
  1.30000000E+00  1.30000000E+00  1.30000000E+00  1.30000000E+00  1.30000000E+00
  1.30000000E+00  1.30000000E+00  1.30000000E+00  1.30000000E+00  1.30000000E+00
  1.30000000E+00  1.30000000E+00  1.30000000E+00  1.30000000E+00
%FLAG SCREEN                                                                    
%FORMAT(5E16.8)                                                                 
  7.20000000E-01  7.20000000E-01  7.20000000E-01  7.20000000E-01  7.20000000E-01
  7.20000000E-01  7.20000000E-01  7.20000000E-01  7.20000000E-01  7.20000000E-01
  7.20000000E-01  7.20000000E-01  7.20000000E-01  7.20000000E-01  7.20000000E-01
  7.20000000E-01  7.20000000E-01  7.20000000E-01  7.20000000E-01  7.20000000E-01
  7.90000000E-01  8.50000000E-01  8.50000000E-01  8.50000000E-01  8.50000000E-01
  8.50000000E-01  8.50000000E-01  8.50000000E-01  8.50000000E-01  8.50000000E-01
  8.50000000E-01  8.50000000E-01  8.50000000E-01  8.50000000E-01  8.50000000E-01
  8.50000000E-01  8.50000000E-01  8.50000000E-01  8.50000000E-01  8.50000000E-01
  8.50000000E-01  8.50000000E-01  8.50000000E-01  8.50000000E-01
%FLAG IPOL                                                                      
%FORMAT(1I8)                                                                    
       0
