; mobley_5282042_GMX_OPLS.top created by acpype (v: 2023.10.27) on Thu May 21 00:00:17 2026

; Include forcefield parameters
#include "ffoplsaa.itp"

; Include mobley_5282042_GMX.itp topology
#include "mobley_5282042_GMX.itp"

; Ligand position restraints
#ifdef POSRES_LIG
#include "posre_mobley_5282042.itp"
#endif

[ system ]
 mobley_5282042

[ molecules ]
; Compound        nmols
 mobley_5282042   1     
