; mobley_5282042_GMX.itp created by acpype (v: 2023.10.27) on Thu May 21 00:00:17 2026

[ atomtypes ]
;name   bond_type     mass     charge   ptype   sigma         epsilon       Amb
 ca       ca          0.00000  0.00000   A     3.31521e-01   4.13379e-01 ; 1.86  0.0988
 ce       ce          0.00000  0.00000   A     3.31521e-01   4.13379e-01 ; 1.86  0.0988
 c2       c2          0.00000  0.00000   A     3.31521e-01   4.13379e-01 ; 1.86  0.0988
 c3       c3          0.00000  0.00000   A     3.39771e-01   4.51035e-01 ; 1.91  0.1078
 n3       n3          0.00000  0.00000   A     3.36510e-01   3.58987e-01 ; 1.89  0.0858
 ha       ha          0.00000  0.00000   A     2.62548e-01   6.73624e-02 ; 1.47  0.0161
 hc       hc          0.00000  0.00000   A     2.60018e-01   8.70272e-02 ; 1.46  0.0208
 h1       h1          0.00000  0.00000   A     2.42200e-01   8.70272e-02 ; 1.36  0.0208

[ moleculetype ]
;name            nrexcl
 mobley_5282042   3

[ atoms ]
;   nr  type  resi  res  atom  cgnr     charge      mass       ; qtot   bond_type
     1   ca     1   MOL    C1    1    -0.135000     12.01000 ; qtot -0.135
     2   ca     1   MOL    C2    2    -0.135000     12.01000 ; qtot -0.270
     3   ca     1   MOL    C3    3    -0.125500     12.01000 ; qtot -0.396
     4   ca     1   MOL    C4    4    -0.125500     12.01000 ; qtot -0.521
     5   ca     1   MOL    C5    5    -0.118500     12.01000 ; qtot -0.639
     6   ca     1   MOL    C6    6    -0.118500     12.01000 ; qtot -0.758
     7   ca     1   MOL    C7    7    -0.134000     12.01000 ; qtot -0.892
     8   ca     1   MOL    C8    8    -0.134000     12.01000 ; qtot -1.026
     9   ca     1   MOL    C9    9    -0.041800     12.01000 ; qtot -1.068
    10   ca     1   MOL   C10   10    -0.041800     12.01000 ; qtot -1.110
    11   ca     1   MOL   C11   11    -0.059300     12.01000 ; qtot -1.169
    12   ca     1   MOL   C12   12    -0.059300     12.01000 ; qtot -1.228
    13   ce     1   MOL   C13   13    -0.015400     12.01000 ; qtot -1.244
    14   c2     1   MOL   C14   14    -0.146200     12.01000 ; qtot -1.390
    15   c3     1   MOL   C15   15    -0.031600     12.01000 ; qtot -1.421
    16   c3     1   MOL   C16   16    -0.031600     12.01000 ; qtot -1.453
    17   c3     1   MOL   C17   17     0.156100     12.01000 ; qtot -1.297
    18   c3     1   MOL   C18   18     0.156100     12.01000 ; qtot -1.141
    19   c3     1   MOL   C19   19    -0.057200     12.01000 ; qtot -1.198
    20   c3     1   MOL   C20   20     0.174800     12.01000 ; qtot -1.023
    21   n3     1   MOL    N1   21    -0.737600     14.01000 ; qtot -1.761
    22   ha     1   MOL    H1   22     0.131500      1.00800 ; qtot -1.629
    23   ha     1   MOL    H2   23     0.131500      1.00800 ; qtot -1.498
    24   ha     1   MOL    H3   24     0.131000      1.00800 ; qtot -1.367
    25   ha     1   MOL    H4   25     0.131000      1.00800 ; qtot -1.236
    26   ha     1   MOL    H5   26     0.134500      1.00800 ; qtot -1.101
    27   ha     1   MOL    H6   27     0.134500      1.00800 ; qtot -0.967
    28   ha     1   MOL    H7   28     0.130000      1.00800 ; qtot -0.837
    29   ha     1   MOL    H8   29     0.130000      1.00800 ; qtot -0.707
    30   ha     1   MOL    H9   30     0.127000      1.00800 ; qtot -0.580
    31   hc     1   MOL   H10   31     0.052700      1.00800 ; qtot -0.527
    32   hc     1   MOL   H11   32     0.052700      1.00800 ; qtot -0.474
    33   hc     1   MOL   H12   33     0.052700      1.00800 ; qtot -0.422
    34   hc     1   MOL   H13   34     0.052700      1.00800 ; qtot -0.369
    35   h1     1   MOL   H14   35     0.030700      1.00800 ; qtot -0.338
    36   h1     1   MOL   H15   36     0.030700      1.00800 ; qtot -0.308
    37   h1     1   MOL   H16   37     0.030700      1.00800 ; qtot -0.277
    38   h1     1   MOL   H17   38     0.030700      1.00800 ; qtot -0.246
    39   h1     1   MOL   H18   39     0.030700      1.00800 ; qtot -0.216
    40   h1     1   MOL   H19   40     0.030700      1.00800 ; qtot -0.185
    41   hc     1   MOL   H20   41     0.061200      1.00800 ; qtot -0.124
    42   hc     1   MOL   H21   42     0.061200      1.00800 ; qtot -0.062
    43   h1     1   MOL   H22   43     0.031200      1.00800 ; qtot -0.031
    44   h1     1   MOL   H23   44     0.031200      1.00800 ; qtot -0.000

[ bonds ]
;   ai     aj funct   r             k
     1      3   1    1.3986e-01    2.9644e+05 ;     C1 - C3    
     1      5   1    1.3986e-01    2.9644e+05 ;     C1 - C5    
     1     22   1    1.0860e-01    3.0183e+05 ;     C1 - H1    
     2      4   1    1.3986e-01    2.9644e+05 ;     C2 - C4    
     2      6   1    1.3986e-01    2.9644e+05 ;     C2 - C6    
     2     23   1    1.0860e-01    3.0183e+05 ;     C2 - H2    
     3      7   1    1.3986e-01    2.9644e+05 ;     C3 - C7    
     3     24   1    1.0860e-01    3.0183e+05 ;     C3 - H3    
     4      8   1    1.3986e-01    2.9644e+05 ;     C4 - C8    
     4     25   1    1.0860e-01    3.0183e+05 ;     C4 - H4    
     5      9   1    1.3986e-01    2.9644e+05 ;     C5 - C9    
     5     26   1    1.0860e-01    3.0183e+05 ;     C5 - H5    
     6     10   1    1.3986e-01    2.9644e+05 ;     C6 - C10   
     6     27   1    1.0860e-01    3.0183e+05 ;     C6 - H6    
     7     11   1    1.3986e-01    2.9644e+05 ;     C7 - C11   
     7     28   1    1.0860e-01    3.0183e+05 ;     C7 - H7    
     8     12   1    1.3986e-01    2.9644e+05 ;     C8 - C12   
     8     29   1    1.0860e-01    3.0183e+05 ;     C8 - H8    
     9     11   1    1.3986e-01    2.9644e+05 ;     C9 - C11   
     9     13   1    1.4800e-01    2.2748e+05 ;     C9 - C13   
    10     12   1    1.3986e-01    2.9644e+05 ;    C10 - C12   
    10     13   1    1.4800e-01    2.2748e+05 ;    C10 - C13   
    11     15   1    1.5147e-01    2.0410e+05 ;    C11 - C15   
    12     16   1    1.5147e-01    2.0410e+05 ;    C12 - C16   
    13     14   1    1.3457e-01    3.5505e+05 ;    C13 - C14   
    14     19   1    1.5088e-01    2.0786e+05 ;    C14 - C19   
    14     30   1    1.0882e-01    2.9898e+05 ;    C14 - H9    
    15     16   1    1.5354e-01    1.9154e+05 ;    C15 - C16   
    15     31   1    1.0962e-01    2.8891e+05 ;    C15 - H10   
    15     32   1    1.0962e-01    2.8891e+05 ;    C15 - H11   
    16     33   1    1.0962e-01    2.8891e+05 ;    C16 - H12   
    16     34   1    1.0962e-01    2.8891e+05 ;    C16 - H13   
    17     21   1    1.4626e-01    2.1410e+05 ;    C17 - N1    
    17     35   1    1.0969e-01    2.8804e+05 ;    C17 - H14   
    17     36   1    1.0969e-01    2.8804e+05 ;    C17 - H15   
    17     37   1    1.0969e-01    2.8804e+05 ;    C17 - H16   
    18     21   1    1.4626e-01    2.1410e+05 ;    C18 - N1    
    18     38   1    1.0969e-01    2.8804e+05 ;    C18 - H17   
    18     39   1    1.0969e-01    2.8804e+05 ;    C18 - H18   
    18     40   1    1.0969e-01    2.8804e+05 ;    C18 - H19   
    19     20   1    1.5354e-01    1.9154e+05 ;    C19 - C20   
    19     41   1    1.0962e-01    2.8891e+05 ;    C19 - H20   
    19     42   1    1.0962e-01    2.8891e+05 ;    C19 - H21   
    20     21   1    1.4626e-01    2.1410e+05 ;    C20 - N1    
    20     43   1    1.0969e-01    2.8804e+05 ;    C20 - H22   
    20     44   1    1.0969e-01    2.8804e+05 ;    C20 - H23   

[ pairs ]
;   ai     aj    funct
     1     11      1 ;     C1 - C11   
     1     13      1 ;     C1 - C13   
     1     28      1 ;     C1 - H7    
     2     12      1 ;     C2 - C12   
     2     13      1 ;     C2 - C13   
     2     29      1 ;     C2 - H8    
     3      9      1 ;     C3 - C9    
     3     15      1 ;     C3 - C15   
     3     26      1 ;     C3 - H5    
     4     10      1 ;     C4 - C10   
     4     16      1 ;     C4 - C16   
     4     27      1 ;     C4 - H6    
     5      7      1 ;     C5 - C7    
     5     10      1 ;     C5 - C10   
     5     14      1 ;     C5 - C14   
     5     15      1 ;     C5 - C15   
     5     24      1 ;     C5 - H3    
     6      8      1 ;     C6 - C8    
     6      9      1 ;     C6 - C9    
     6     14      1 ;     C6 - C14   
     6     16      1 ;     C6 - C16   
     6     25      1 ;     C6 - H4    
     7     13      1 ;     C7 - C13   
     7     16      1 ;     C7 - C16   
     7     31      1 ;     C7 - H10   
     7     32      1 ;     C7 - H11   
     8     13      1 ;     C8 - C13   
     8     15      1 ;     C8 - C15   
     8     23      1 ;     C8 - H2    
     8     33      1 ;     C8 - H12   
     8     34      1 ;     C8 - H13   
     9     12      1 ;     C9 - C12   
     9     16      1 ;     C9 - C16   
     9     19      1 ;     C9 - C19   
     9     28      1 ;     C9 - H7    
     9     30      1 ;     C9 - H9    
     9     31      1 ;     C9 - H10   
     9     32      1 ;     C9 - H11   
    10     11      1 ;    C10 - C11   
    10     15      1 ;    C10 - C15   
    10     19      1 ;    C10 - C19   
    10     23      1 ;    C10 - H2    
    10     29      1 ;    C10 - H8    
    10     30      1 ;    C10 - H9    
    10     33      1 ;    C10 - H12   
    10     34      1 ;    C10 - H13   
    11     12      1 ;    C11 - C12   
    11     14      1 ;    C11 - C14   
    11     24      1 ;    C11 - H3    
    11     26      1 ;    C11 - H5    
    11     33      1 ;    C11 - H12   
    11     34      1 ;    C11 - H13   
    12     14      1 ;    C12 - C14   
    12     25      1 ;    C12 - H4    
    12     27      1 ;    C12 - H6    
    12     31      1 ;    C12 - H10   
    12     32      1 ;    C12 - H11   
    13     15      1 ;    C13 - C15   
    13     16      1 ;    C13 - C16   
    13     20      1 ;    C13 - C20   
    13     26      1 ;    C13 - H5    
    13     27      1 ;    C13 - H6    
    13     41      1 ;    C13 - H20   
    13     42      1 ;    C13 - H21   
    14     21      1 ;    C14 - N1    
    14     43      1 ;    C14 - H22   
    14     44      1 ;    C14 - H23   
    15     28      1 ;    C15 - H7    
    16     29      1 ;    C16 - H8    
    17     19      1 ;    C17 - C19   
    17     38      1 ;    C17 - H17   
    17     39      1 ;    C17 - H18   
    17     40      1 ;    C17 - H19   
    17     43      1 ;    C17 - H22   
    17     44      1 ;    C17 - H23   
    18     19      1 ;    C18 - C19   
    18     35      1 ;    C18 - H14   
    18     36      1 ;    C18 - H15   
    18     37      1 ;    C18 - H16   
    18     43      1 ;    C18 - H22   
    18     44      1 ;    C18 - H23   
    20     30      1 ;    C20 - H9    
    20     35      1 ;    C20 - H14   
    20     36      1 ;    C20 - H15   
    20     37      1 ;    C20 - H16   
    20     38      1 ;    C20 - H17   
    20     39      1 ;    C20 - H18   
    20     40      1 ;    C20 - H19   
    21     41      1 ;     N1 - H20   
    21     42      1 ;     N1 - H21   
    22      7      1 ;     H1 - C7    
    22      9      1 ;     H1 - C9    
    22     24      1 ;     H1 - H3    
    22     26      1 ;     H1 - H5    
    23     25      1 ;     H2 - H4    
    23     27      1 ;     H2 - H6    
    24     28      1 ;     H3 - H7    
    25     29      1 ;     H4 - H8    
    30     41      1 ;     H9 - H20   
    30     42      1 ;     H9 - H21   
    31     33      1 ;    H10 - H12   
    31     34      1 ;    H10 - H13   
    32     33      1 ;    H11 - H12   
    32     34      1 ;    H11 - H13   
    41     43      1 ;    H20 - H22   
    41     44      1 ;    H20 - H23   
    42     43      1 ;    H21 - H22   
    42     44      1 ;    H21 - H23   

[ angles ]
;   ai     aj     ak    funct   theta         cth
     1      3      7      1    1.2002e+02    5.3279e+02 ;     C1 - C3     - C7    
     1      3     24      1    1.1988e+02    3.7572e+02 ;     C1 - C3     - H3    
     1      5      9      1    1.2002e+02    5.3279e+02 ;     C1 - C5     - C9    
     1      5     26      1    1.1988e+02    3.7572e+02 ;     C1 - C5     - H5    
     2      4      8      1    1.2002e+02    5.3279e+02 ;     C2 - C4     - C8    
     2      4     25      1    1.1988e+02    3.7572e+02 ;     C2 - C4     - H4    
     2      6     10      1    1.2002e+02    5.3279e+02 ;     C2 - C6     - C10   
     2      6     27      1    1.1988e+02    3.7572e+02 ;     C2 - C6     - H6    
     3      1      5      1    1.2002e+02    5.3279e+02 ;     C3 - C1     - C5    
     3      1     22      1    1.1988e+02    3.7572e+02 ;     C3 - C1     - H1    
     3      7     11      1    1.2002e+02    5.3279e+02 ;     C3 - C7     - C11   
     3      7     28      1    1.1988e+02    3.7572e+02 ;     C3 - C7     - H7    
     4      2      6      1    1.2002e+02    5.3279e+02 ;     C4 - C2     - C6    
     4      2     23      1    1.1988e+02    3.7572e+02 ;     C4 - C2     - H2    
     4      8     12      1    1.2002e+02    5.3279e+02 ;     C4 - C8     - C12   
     4      8     29      1    1.1988e+02    3.7572e+02 ;     C4 - C8     - H8    
     5      1     22      1    1.1988e+02    3.7572e+02 ;     C5 - C1     - H1    
     5      9     11      1    1.2002e+02    5.3279e+02 ;     C5 - C9     - C11   
     5      9     13      1    1.2079e+02    5.1530e+02 ;     C5 - C9     - C13   
     6      2     23      1    1.1988e+02    3.7572e+02 ;     C6 - C2     - H2    
     6     10     12      1    1.2002e+02    5.3279e+02 ;     C6 - C10    - C12   
     6     10     13      1    1.2079e+02    5.1530e+02 ;     C6 - C10    - C13   
     7      3     24      1    1.1988e+02    3.7572e+02 ;     C7 - C3     - H3    
     7     11      9      1    1.2002e+02    5.3279e+02 ;     C7 - C11    - C9    
     7     11     15      1    1.2083e+02    5.0827e+02 ;     C7 - C11    - C15   
     8      4     25      1    1.1988e+02    3.7572e+02 ;     C8 - C4     - H4    
     8     12     10      1    1.2002e+02    5.3279e+02 ;     C8 - C12    - C10   
     8     12     16      1    1.2083e+02    5.0827e+02 ;     C8 - C12    - C16   
     9      5     26      1    1.1988e+02    3.7572e+02 ;     C9 - C5     - H5    
     9     11     15      1    1.2083e+02    5.0827e+02 ;     C9 - C11    - C15   
     9     13     10      1    1.1816e+02    5.0744e+02 ;     C9 - C13    - C10   
     9     13     14      1    1.2298e+02    5.1873e+02 ;     C9 - C13    - C14   
    10      6     27      1    1.1988e+02    3.7572e+02 ;    C10 - C6     - H6    
    10     12     16      1    1.2083e+02    5.0827e+02 ;    C10 - C12    - C16   
    10     13     14      1    1.2298e+02    5.1873e+02 ;    C10 - C13    - C14   
    11      7     28      1    1.1988e+02    3.7572e+02 ;    C11 - C7     - H7    
    11      9     13      1    1.2079e+02    5.1530e+02 ;    C11 - C9     - C13   
    11     15     16      1    1.1242e+02    5.0484e+02 ;    C11 - C15    - C16   
    11     15     31      1    1.1063e+02    3.6493e+02 ;    C11 - C15    - H10   
    11     15     32      1    1.1063e+02    3.6493e+02 ;    C11 - C15    - H11   
    12      8     29      1    1.1988e+02    3.7572e+02 ;    C12 - C8     - H8    
    12     10     13      1    1.2079e+02    5.1530e+02 ;    C12 - C10    - C13   
    12     16     15      1    1.1242e+02    5.0484e+02 ;    C12 - C16    - C15   
    12     16     33      1    1.1063e+02    3.6493e+02 ;    C12 - C16    - H12   
    12     16     34      1    1.1063e+02    3.6493e+02 ;    C12 - C16    - H13   
    13     14     19      1    1.2558e+02    5.0710e+02 ;    C13 - C14    - C19   
    13     14     30      1    1.2049e+02    3.8618e+02 ;    C13 - C14    - H9    
    14     19     20      1    1.1258e+02    5.0543e+02 ;    C14 - C19    - C20   
    14     19     41      1    1.1065e+02    3.6618e+02 ;    C14 - C19    - H20   
    14     19     42      1    1.1065e+02    3.6618e+02 ;    C14 - C19    - H21   
    15     16     33      1    1.0968e+02    3.6208e+02 ;    C15 - C16    - H12   
    15     16     34      1    1.0968e+02    3.6208e+02 ;    C15 - C16    - H13   
    16     15     31      1    1.0968e+02    3.6208e+02 ;    C16 - C15    - H10   
    16     15     32      1    1.0968e+02    3.6208e+02 ;    C16 - C15    - H11   
    17     21     18      1    1.1242e+02    6.5061e+02 ;    C17 - N1     - C18   
    17     21     20      1    1.1242e+02    6.5061e+02 ;    C17 - N1     - C20   
    18     21     20      1    1.1242e+02    6.5061e+02 ;    C18 - N1     - C20   
    19     14     30      1    1.1505e+02    3.5941e+02 ;    C19 - C14    - H9    
    19     20     21      1    1.1308e+02    5.4308e+02 ;    C19 - C20    - N1    
    19     20     43      1    1.0959e+02    3.6217e+02 ;    C19 - C20    - H22   
    19     20     44      1    1.0959e+02    3.6217e+02 ;    C19 - C20    - H23   
    20     19     41      1    1.0968e+02    3.6208e+02 ;    C20 - C19    - H20   
    20     19     42      1    1.0968e+02    3.6208e+02 ;    C20 - C19    - H21   
    21     17     35      1    1.1009e+02    4.0033e+02 ;     N1 - C17    - H14   
    21     17     36      1    1.1009e+02    4.0033e+02 ;     N1 - C17    - H15   
    21     17     37      1    1.1009e+02    4.0033e+02 ;     N1 - C17    - H16   
    21     18     38      1    1.1009e+02    4.0033e+02 ;     N1 - C18    - H17   
    21     18     39      1    1.1009e+02    4.0033e+02 ;     N1 - C18    - H18   
    21     18     40      1    1.1009e+02    4.0033e+02 ;     N1 - C18    - H19   
    21     20     43      1    1.1009e+02    4.0033e+02 ;     N1 - C20    - H22   
    21     20     44      1    1.1009e+02    4.0033e+02 ;     N1 - C20    - H23   
    31     15     32      1    1.0773e+02    2.9957e+02 ;    H10 - C15    - H11   
    33     16     34      1    1.0773e+02    2.9957e+02 ;    H12 - C16    - H13   
    35     17     36      1    1.0855e+02    2.9824e+02 ;    H14 - C17    - H15   
    35     17     37      1    1.0855e+02    2.9824e+02 ;    H14 - C17    - H16   
    36     17     37      1    1.0855e+02    2.9824e+02 ;    H15 - C17    - H16   
    38     18     39      1    1.0855e+02    2.9824e+02 ;    H17 - C18    - H18   
    38     18     40      1    1.0855e+02    2.9824e+02 ;    H17 - C18    - H19   
    39     18     40      1    1.0855e+02    2.9824e+02 ;    H18 - C18    - H19   
    41     19     42      1    1.0773e+02    2.9957e+02 ;    H20 - C19    - H21   
    43     20     44      1    1.0855e+02    2.9824e+02 ;    H22 - C20    - H23   

[ dihedrals ] ; propers
; for gromacs 4.5 or higher, using funct 9
;    i      j      k      l   func   phase     kd      pn
     1      3      7     11      9   180.00  15.16700   2 ;     C1-    C3-    C7-   C11
     1      3      7     28      9   180.00  15.16700   2 ;     C1-    C3-    C7-    H7
     1      5      9     11      9   180.00  15.16700   2 ;     C1-    C5-    C9-   C11
     1      5      9     13      9   180.00  15.16700   2 ;     C1-    C5-    C9-   C13
     2      4      8     12      9   180.00  15.16700   2 ;     C2-    C4-    C8-   C12
     2      4      8     29      9   180.00  15.16700   2 ;     C2-    C4-    C8-    H8
     2      6     10     12      9   180.00  15.16700   2 ;     C2-    C6-   C10-   C12
     2      6     10     13      9   180.00  15.16700   2 ;     C2-    C6-   C10-   C13
     3      1      5      9      9   180.00  15.16700   2 ;     C3-    C1-    C5-    C9
     3      1      5     26      9   180.00  15.16700   2 ;     C3-    C1-    C5-    H5
     3      7     11      9      9   180.00  15.16700   2 ;     C3-    C7-   C11-    C9
     3      7     11     15      9   180.00  15.16700   2 ;     C3-    C7-   C11-   C15
     4      2      6     10      9   180.00  15.16700   2 ;     C4-    C2-    C6-   C10
     4      2      6     27      9   180.00  15.16700   2 ;     C4-    C2-    C6-    H6
     4      8     12     10      9   180.00  15.16700   2 ;     C4-    C8-   C12-   C10
     4      8     12     16      9   180.00  15.16700   2 ;     C4-    C8-   C12-   C16
     5      1      3      7      9   180.00  15.16700   2 ;     C5-    C1-    C3-    C7
     5      1      3     24      9   180.00  15.16700   2 ;     C5-    C1-    C3-    H3
     5      9     11      7      9   180.00  15.16700   2 ;     C5-    C9-   C11-    C7
     5      9     11     15      9   180.00  15.16700   2 ;     C5-    C9-   C11-   C15
     5      9     13     10      9   180.00   3.36812   2 ;     C5-    C9-   C13-   C10
     5      9     13     14      9   180.00   2.44764   2 ;     C5-    C9-   C13-   C14
     6      2      4      8      9   180.00  15.16700   2 ;     C6-    C2-    C4-    C8
     6      2      4     25      9   180.00  15.16700   2 ;     C6-    C2-    C4-    H4
     6     10     12      8      9   180.00  15.16700   2 ;     C6-   C10-   C12-    C8
     6     10     12     16      9   180.00  15.16700   2 ;     C6-   C10-   C12-   C16
     6     10     13      9      9   180.00   3.36812   2 ;     C6-   C10-   C13-    C9
     6     10     13     14      9   180.00   2.44764   2 ;     C6-   C10-   C13-   C14
     7     11      9     13      9   180.00  15.16700   2 ;     C7-   C11-    C9-   C13
     7     11     15     16      9   180.00   1.00416   2 ;     C7-   C11-   C15-   C16
     7     11     15     31      9     0.00   0.00000   0 ;     C7-   C11-   C15-   H10
     7     11     15     32      9     0.00   0.00000   0 ;     C7-   C11-   C15-   H11
     8      4      2     23      9   180.00  15.16700   2 ;     C8-    C4-    C2-    H2
     8     12     10     13      9   180.00  15.16700   2 ;     C8-   C12-   C10-   C13
     8     12     16     15      9   180.00   1.00416   2 ;     C8-   C12-   C16-   C15
     8     12     16     33      9     0.00   0.00000   0 ;     C8-   C12-   C16-   H12
     8     12     16     34      9     0.00   0.00000   0 ;     C8-   C12-   C16-   H13
     9     11      7     28      9   180.00  15.16700   2 ;     C9-   C11-    C7-    H7
     9     11     15     16      9   180.00   1.00416   2 ;     C9-   C11-   C15-   C16
     9     11     15     31      9     0.00   0.00000   0 ;     C9-   C11-   C15-   H10
     9     11     15     32      9     0.00   0.00000   0 ;     C9-   C11-   C15-   H11
     9     13     10     12      9   180.00   3.36812   2 ;     C9-   C13-   C10-   C12
     9     13     14     19      9   180.00  27.82360   2 ;     C9-   C13-   C14-   C19
     9     13     14     30      9   180.00  27.82360   2 ;     C9-   C13-   C14-    H9
    10      6      2     23      9   180.00  15.16700   2 ;    C10-    C6-    C2-    H2
    10     12      8     29      9   180.00  15.16700   2 ;    C10-   C12-    C8-    H8
    10     12     16     15      9   180.00   1.00416   2 ;    C10-   C12-   C16-   C15
    10     12     16     33      9     0.00   0.00000   0 ;    C10-   C12-   C16-   H12
    10     12     16     34      9     0.00   0.00000   0 ;    C10-   C12-   C16-   H13
    10     13      9     11      9   180.00   3.36812   2 ;    C10-   C13-    C9-   C11
    10     13     14     19      9   180.00  27.82360   2 ;    C10-   C13-   C14-   C19
    10     13     14     30      9   180.00  27.82360   2 ;    C10-   C13-   C14-    H9
    11      7      3     24      9   180.00  15.16700   2 ;    C11-    C7-    C3-    H3
    11      9      5     26      9   180.00  15.16700   2 ;    C11-    C9-    C5-    H5
    11      9     13     14      9   180.00   2.44764   2 ;    C11-    C9-   C13-   C14
    11     15     16     12      9     0.00   0.65084   3 ;    C11-   C15-   C16-   C12
    11     15     16     33      9     0.00   0.65084   3 ;    C11-   C15-   C16-   H12
    11     15     16     34      9     0.00   0.65084   3 ;    C11-   C15-   C16-   H13
    12      8      4     25      9   180.00  15.16700   2 ;    C12-    C8-    C4-    H4
    12     10      6     27      9   180.00  15.16700   2 ;    C12-   C10-    C6-    H6
    12     10     13     14      9   180.00   2.44764   2 ;    C12-   C10-   C13-   C14
    12     16     15     31      9     0.00   0.65084   3 ;    C12-   C16-   C15-   H10
    12     16     15     32      9     0.00   0.65084   3 ;    C12-   C16-   C15-   H11
    13      9      5     26      9   180.00  15.16700   2 ;    C13-    C9-    C5-    H5
    13      9     11     15      9   180.00  15.16700   2 ;    C13-    C9-   C11-   C15
    13     10      6     27      9   180.00  15.16700   2 ;    C13-   C10-    C6-    H6
    13     10     12     16      9   180.00  15.16700   2 ;    C13-   C10-   C12-   C16
    13     14     19     20      9     0.00   0.00000   0 ;    C13-   C14-   C19-   C20
    13     14     19     41      9     0.00   0.00000   0 ;    C13-   C14-   C19-   H20
    13     14     19     42      9     0.00   0.00000   0 ;    C13-   C14-   C19-   H21
    14     19     20     21      9     0.00   0.65084   3 ;    C14-   C19-   C20-    N1
    14     19     20     43      9     0.00   0.65084   3 ;    C14-   C19-   C20-   H22
    14     19     20     44      9     0.00   0.65084   3 ;    C14-   C19-   C20-   H23
    15     11      7     28      9   180.00  15.16700   2 ;    C15-   C11-    C7-    H7
    16     12      8     29      9   180.00  15.16700   2 ;    C16-   C12-    C8-    H8
    17     21     18     38      9     0.00   0.94140   3 ;    C17-    N1-   C18-   H17
    17     21     18     39      9     0.00   0.94140   3 ;    C17-    N1-   C18-   H18
    17     21     18     40      9     0.00   0.94140   3 ;    C17-    N1-   C18-   H19
    17     21     20     19      9     0.00   3.05432   3 ;    C17-    N1-   C20-   C19
    17     21     20     43      9     0.00   0.94140   3 ;    C17-    N1-   C20-   H22
    17     21     20     44      9     0.00   0.94140   3 ;    C17-    N1-   C20-   H23
    18     21     17     35      9     0.00   0.94140   3 ;    C18-    N1-   C17-   H14
    18     21     17     36      9     0.00   0.94140   3 ;    C18-    N1-   C17-   H15
    18     21     17     37      9     0.00   0.94140   3 ;    C18-    N1-   C17-   H16
    18     21     20     19      9     0.00   3.05432   3 ;    C18-    N1-   C20-   C19
    18     21     20     43      9     0.00   0.94140   3 ;    C18-    N1-   C20-   H22
    18     21     20     44      9     0.00   0.94140   3 ;    C18-    N1-   C20-   H23
    20     19     14     30      9     0.00   0.00000   0 ;    C20-   C19-   C14-    H9
    20     21     17     35      9     0.00   0.94140   3 ;    C20-    N1-   C17-   H14
    20     21     17     36      9     0.00   0.94140   3 ;    C20-    N1-   C17-   H15
    20     21     17     37      9     0.00   0.94140   3 ;    C20-    N1-   C17-   H16
    20     21     18     38      9     0.00   0.94140   3 ;    C20-    N1-   C18-   H17
    20     21     18     39      9     0.00   0.94140   3 ;    C20-    N1-   C18-   H18
    20     21     18     40      9     0.00   0.94140   3 ;    C20-    N1-   C18-   H19
    21     20     19     41      9     0.00   0.41840   3 ;     N1-   C20-   C19-   H20
    21     20     19     42      9     0.00   0.41840   3 ;     N1-   C20-   C19-   H21
    22      1      3      7      9   180.00  15.16700   2 ;     H1-    C1-    C3-    C7
    22      1      3     24      9   180.00  15.16700   2 ;     H1-    C1-    C3-    H3
    22      1      5      9      9   180.00  15.16700   2 ;     H1-    C1-    C5-    C9
    22      1      5     26      9   180.00  15.16700   2 ;     H1-    C1-    C5-    H5
    23      2      4     25      9   180.00  15.16700   2 ;     H2-    C2-    C4-    H4
    23      2      6     27      9   180.00  15.16700   2 ;     H2-    C2-    C6-    H6
    24      3      7     28      9   180.00  15.16700   2 ;     H3-    C3-    C7-    H7
    25      4      8     29      9   180.00  15.16700   2 ;     H4-    C4-    C8-    H8
    30     14     19     41      9     0.00   0.00000   0 ;     H9-   C14-   C19-   H20
    30     14     19     42      9     0.00   0.00000   0 ;     H9-   C14-   C19-   H21
    31     15     16     33      9     0.00   0.50208   3 ;    H10-   C15-   C16-   H12
    31     15     16     34      9     0.00   0.50208   3 ;    H10-   C15-   C16-   H13
    32     15     16     33      9     0.00   0.50208   3 ;    H11-   C15-   C16-   H12
    32     15     16     34      9     0.00   0.50208   3 ;    H11-   C15-   C16-   H13
    41     19     20     43      9     0.00   0.65084   3 ;    H20-   C19-   C20-   H22
    41     19     20     44      9     0.00   0.65084   3 ;    H20-   C19-   C20-   H23
    42     19     20     43      9     0.00   0.65084   3 ;    H21-   C19-   C20-   H22
    42     19     20     44      9     0.00   0.65084   3 ;    H21-   C19-   C20-   H23

[ dihedrals ] ; impropers
; treated as propers in GROMACS to use correct AMBER analytical function
;    i      j      k      l   func   phase     kd      pn
     1      7      3     24      4   180.00   4.60240   2 ;     C1-    C7-    C3-    H3
     1      9      5     26      4   180.00   4.60240   2 ;     C1-    C9-    C5-    H5
     2      8      4     25      4   180.00   4.60240   2 ;     C2-    C8-    C4-    H4
     2     10      6     27      4   180.00   4.60240   2 ;     C2-   C10-    C6-    H6
     3     11      7     28      4   180.00   4.60240   2 ;     C3-   C11-    C7-    H7
     4      6      2     23      4   180.00   4.60240   2 ;     C4-    C6-    C2-    H2
     4     12      8     29      4   180.00   4.60240   2 ;     C4-   C12-    C8-    H8
     5     11      9     13      4   180.00   4.60240   2 ;     C5-   C11-    C9-   C13
     6     12     10     13      4   180.00   4.60240   2 ;     C6-   C12-   C10-   C13
     7      9     11     15      4   180.00   4.60240   2 ;     C7-    C9-   C11-   C15
    14      9     13     10      4   180.00   4.60240   2 ;    C14-    C9-   C13-   C10
    16      8     12     10      4   180.00   4.60240   2 ;    C16-    C8-   C12-   C10
    19     13     14     30      4   180.00   4.60240   2 ;    C19-   C13-   C14-    H9
    22      1      5      3      4   180.00   4.60240   2 ;     H1-    C1-    C5-    C3
