SAMPL4_024
    44
   3.8660000   1.0810000   6.7820000   0.9650000  -0.4230000   0.5620000
   5.1180000   0.5220000   6.5790000   1.7760000  -1.4230000   0.0320000
   2.7820000   0.6460000   6.0200000   0.9430000  -0.1990000   1.9390000
   5.2810000  -0.4680000   5.6120000   2.5700000  -2.1990000   0.8760000
   2.9210000  -0.3680000   5.0470000   1.7350000  -0.9780000   2.7960000
   4.1980000  -0.9340000   4.8350000   2.5580000  -1.9830000   2.2620000
   1.7210000  -0.7510000   4.2570000   0.5610000  -1.0060000   4.8940000
   4.5480000  -1.9880000   3.8000000   3.4250000  -2.8150000   3.1720000
  -3.8880000  -2.9650000   5.3890000  -2.6370000  -3.6840000   3.4670000
  -0.7020000  -1.3980000   4.1940000  -1.6220000  -2.2260000   5.0850000
  -2.8460000  -2.5840000   4.4220000   3.7270000   1.8490000   7.5370000
   0.3470000   0.1810000  -0.0950000   5.9650000   0.8460000   7.1760000
   1.7900000  -1.6000000  -1.0400000   1.8140000   1.1080000   6.2080000
   0.3020000   0.5850000   2.3340000   6.2750000  -0.8870000   5.4650000
   3.1960000  -2.9760000   0.4450000   0.5390000  -0.9120000   5.9720000
   5.0570000  -1.4770000   2.9710000   5.2840000  -2.6660000   4.2550000
   2.8090000  -3.2320000   3.9780000   3.8240000  -3.6790000   2.6250000
  -4.0520000  -2.1540000   6.1030000  -3.5850000  -3.8610000   5.9370000
  -4.8280000  -3.1720000   4.8700000  -1.8650000  -3.4110000   2.7430000
  -3.5640000  -3.8980000   2.9290000  -2.3210000  -4.5880000   3.9950000
  -0.4860000  -1.9480000   3.2690000  -1.2220000  -0.4780000   3.9030000
  -1.8970000  -1.6510000   5.9750000  -1.1390000  -3.1520000   5.4150000
