mobley_5282042_GMX.gro created by acpype (v: 2023.10.27) on Thu May 21 00:00:17 2026
 44
    1  MOL   C1    1   0.387   0.108   0.678
    1  MOL   C2    2   0.097  -0.042   0.056
    1  MOL   C3    3   0.512   0.052   0.658
    1  MOL   C4    4   0.178  -0.142   0.003
    1  MOL   C5    5   0.278   0.065   0.602
    1  MOL   C6    6   0.094  -0.020   0.194
    1  MOL   C7    7   0.528  -0.047   0.561
    1  MOL   C8    8   0.257  -0.220   0.088
    1  MOL   C9    9   0.292  -0.037   0.505
    1  MOL  C10   10   0.174  -0.098   0.280
    1  MOL  C11   11   0.420  -0.093   0.484
    1  MOL  C12   12   0.256  -0.198   0.226
    1  MOL  C13   13   0.172  -0.075   0.426
    1  MOL  C14   14   0.056  -0.101   0.489
    1  MOL  C15   15   0.455  -0.199   0.380
    1  MOL  C16   16   0.343  -0.282   0.317
    1  MOL  C17   17  -0.389  -0.296   0.539
    1  MOL  C18   18  -0.264  -0.368   0.347
    1  MOL  C19   19  -0.070  -0.140   0.419
    1  MOL  C20   20  -0.162  -0.223   0.509
    1  MOL   N1   21  -0.285  -0.258   0.442
    1  MOL   H1   22   0.373   0.185   0.754
    1  MOL   H2   23   0.035   0.018  -0.010
    1  MOL   H3   24   0.597   0.085   0.718
    1  MOL   H4   25   0.179  -0.160  -0.104
    1  MOL   H5   26   0.181   0.111   0.621
    1  MOL   H6   27   0.030   0.058   0.233
    1  MOL   H7   28   0.628  -0.089   0.546
    1  MOL   H8   29   0.320  -0.298   0.045
    1  MOL   H9   30   0.054  -0.091   0.597
    1  MOL  H10   31   0.506  -0.148   0.297
    1  MOL  H11   32   0.528  -0.267   0.425
    1  MOL  H12   33   0.281  -0.323   0.398
    1  MOL  H13   34   0.382  -0.368   0.263
    1  MOL  H14   35  -0.405  -0.215   0.610
    1  MOL  H15   36  -0.359  -0.386   0.594
    1  MOL  H16   37  -0.483  -0.317   0.487
    1  MOL  H17   38  -0.186  -0.341   0.274
    1  MOL  H18   39  -0.356  -0.390   0.293
    1  MOL  H19   40  -0.232  -0.459   0.400
    1  MOL  H20   41  -0.049  -0.195   0.327
    1  MOL  H21   42  -0.122  -0.048   0.390
    1  MOL  H22   43  -0.190  -0.165   0.598
    1  MOL  H23   44  -0.114  -0.315   0.541
   22.20600    12.87400    17.15400
