; mobley_5282042_GMX_OPLS.itp created by acpype (v: 2023.10.27) on Thu May 21 00:00:17 2026

; For OPLS atomtypes manual fine tuning
; AC_at:OPLS_at:OPLScode: Possible_Alternatives (see ffoplsaa.atp and ffoplsaanb.itp)
; ca:CA:opls_145: ['166', '501', '502']
; ce:x:opls_x: []
; c2:CR:opls_509: ['510']
; c3:CT:opls_135: ['136', '137', '149', '157', '158', '206', '209', '210', '223B', '224B', '245', '246', '274', '283', '284', '285', '292', '292B', '293B', '296', '307', '308', '505']
; n3:x:opls_x: []
; ha:HA:opls_146: []
; hc:HC:opls_140: []
; h1:HC:opls_140: []

[ moleculetype ]
;name            nrexcl
 mobley_5282042   3

[ atoms ]
;   nr  type  resi  res  atom  cgnr     charge      mass       ; qtot   bond_type
     1 opls_145     1   MOL    C1    1    -0.135000     12.01100 ; qtot -0.135  CA  
     2 opls_145     1   MOL    C2    2    -0.135000     12.01100 ; qtot -0.270  CA  
     3 opls_145     1   MOL    C3    3    -0.125500     12.01100 ; qtot -0.396  CA  
     4 opls_145     1   MOL    C4    4    -0.125500     12.01100 ; qtot -0.521  CA  
     5 opls_145     1   MOL    C5    5    -0.118500     12.01100 ; qtot -0.639  CA  
     6 opls_145     1   MOL    C6    6    -0.118500     12.01100 ; qtot -0.758  CA  
     7 opls_145     1   MOL    C7    7    -0.134000     12.01100 ; qtot -0.892  CA  
     8 opls_145     1   MOL    C8    8    -0.134000     12.01100 ; qtot -1.026  CA  
     9 opls_145     1   MOL    C9    9    -0.041800     12.01100 ; qtot -1.068  CA  
    10 opls_145     1   MOL   C10   10    -0.041800     12.01100 ; qtot -1.110  CA  
    11 opls_145     1   MOL   C11   11    -0.059300     12.01100 ; qtot -1.169  CA  
    12 opls_145     1   MOL   C12   12    -0.059300     12.01100 ; qtot -1.228  CA  
    13 opls_x     1   MOL   C13   13    -0.015400      0.00000 ; qtot -1.244  x   
    14 opls_509     1   MOL   C14   14    -0.146200     12.01100 ; qtot -1.390  CR  
    15 opls_135     1   MOL   C15   15    -0.031600     12.01100 ; qtot -1.421  CT  
    16 opls_135     1   MOL   C16   16    -0.031600     12.01100 ; qtot -1.453  CT  
    17 opls_135     1   MOL   C17   17     0.156100     12.01100 ; qtot -1.297  CT  
    18 opls_135     1   MOL   C18   18     0.156100     12.01100 ; qtot -1.141  CT  
    19 opls_135     1   MOL   C19   19    -0.057200     12.01100 ; qtot -1.198  CT  
    20 opls_135     1   MOL   C20   20     0.174800     12.01100 ; qtot -1.023  CT  
    21 opls_x     1   MOL    N1   21    -0.737600      0.00000 ; qtot -1.761  x   
    22 opls_146     1   MOL    H1   22     0.131500      1.00800 ; qtot -1.629  HA  
    23 opls_146     1   MOL    H2   23     0.131500      1.00800 ; qtot -1.498  HA  
    24 opls_146     1   MOL    H3   24     0.131000      1.00800 ; qtot -1.367  HA  
    25 opls_146     1   MOL    H4   25     0.131000      1.00800 ; qtot -1.236  HA  
    26 opls_146     1   MOL    H5   26     0.134500      1.00800 ; qtot -1.101  HA  
    27 opls_146     1   MOL    H6   27     0.134500      1.00800 ; qtot -0.967  HA  
    28 opls_146     1   MOL    H7   28     0.130000      1.00800 ; qtot -0.837  HA  
    29 opls_146     1   MOL    H8   29     0.130000      1.00800 ; qtot -0.707  HA  
    30 opls_146     1   MOL    H9   30     0.127000      1.00800 ; qtot -0.580  HA  
    31 opls_140     1   MOL   H10   31     0.052700      1.00800 ; qtot -0.527  HC  
    32 opls_140     1   MOL   H11   32     0.052700      1.00800 ; qtot -0.474  HC  
    33 opls_140     1   MOL   H12   33     0.052700      1.00800 ; qtot -0.422  HC  
    34 opls_140     1   MOL   H13   34     0.052700      1.00800 ; qtot -0.369  HC  
    35 opls_140     1   MOL   H14   35     0.030700      1.00800 ; qtot -0.338  HC  
    36 opls_140     1   MOL   H15   36     0.030700      1.00800 ; qtot -0.308  HC  
    37 opls_140     1   MOL   H16   37     0.030700      1.00800 ; qtot -0.277  HC  
    38 opls_140     1   MOL   H17   38     0.030700      1.00800 ; qtot -0.246  HC  
    39 opls_140     1   MOL   H18   39     0.030700      1.00800 ; qtot -0.216  HC  
    40 opls_140     1   MOL   H19   40     0.030700      1.00800 ; qtot -0.185  HC  
    41 opls_140     1   MOL   H20   41     0.061200      1.00800 ; qtot -0.124  HC  
    42 opls_140     1   MOL   H21   42     0.061200      1.00800 ; qtot -0.062  HC  
    43 opls_140     1   MOL   H22   43     0.031200      1.00800 ; qtot -0.031  HC  
    44 opls_140     1   MOL   H23   44     0.031200      1.00800 ; qtot -0.000  HC  

[ bonds ]
;   ai     aj funct   r             k
     1      3   1 ;    1.3986e-01    2.9644e+05 ;     C1 - C3         CA - CA    
     1      5   1 ;    1.3986e-01    2.9644e+05 ;     C1 - C5         CA - CA    
     1     22   1 ;    1.0860e-01    3.0183e+05 ;     C1 - H1         CA - HA    
     2      4   1 ;    1.3986e-01    2.9644e+05 ;     C2 - C4         CA - CA    
     2      6   1 ;    1.3986e-01    2.9644e+05 ;     C2 - C6         CA - CA    
     2     23   1 ;    1.0860e-01    3.0183e+05 ;     C2 - H2         CA - HA    
     3      7   1 ;    1.3986e-01    2.9644e+05 ;     C3 - C7         CA - CA    
     3     24   1 ;    1.0860e-01    3.0183e+05 ;     C3 - H3         CA - HA    
     4      8   1 ;    1.3986e-01    2.9644e+05 ;     C4 - C8         CA - CA    
     4     25   1 ;    1.0860e-01    3.0183e+05 ;     C4 - H4         CA - HA    
     5      9   1 ;    1.3986e-01    2.9644e+05 ;     C5 - C9         CA - CA    
     5     26   1 ;    1.0860e-01    3.0183e+05 ;     C5 - H5         CA - HA    
     6     10   1 ;    1.3986e-01    2.9644e+05 ;     C6 - C10        CA - CA    
     6     27   1 ;    1.0860e-01    3.0183e+05 ;     C6 - H6         CA - HA    
     7     11   1 ;    1.3986e-01    2.9644e+05 ;     C7 - C11        CA - CA    
     7     28   1 ;    1.0860e-01    3.0183e+05 ;     C7 - H7         CA - HA    
     8     12   1 ;    1.3986e-01    2.9644e+05 ;     C8 - C12        CA - CA    
     8     29   1 ;    1.0860e-01    3.0183e+05 ;     C8 - H8         CA - HA    
     9     11   1 ;    1.3986e-01    2.9644e+05 ;     C9 - C11        CA - CA    
     9     13   1 ;    1.4800e-01    2.2748e+05 ;     C9 - C13        CA - x     
    10     12   1 ;    1.3986e-01    2.9644e+05 ;    C10 - C12        CA - CA    
    10     13   1 ;    1.4800e-01    2.2748e+05 ;    C10 - C13        CA - x     
    11     15   1 ;    1.5147e-01    2.0410e+05 ;    C11 - C15        CA - CT    
    12     16   1 ;    1.5147e-01    2.0410e+05 ;    C12 - C16        CA - CT    
    13     14   1 ;    1.3457e-01    3.5505e+05 ;    C13 - C14         x - CR    
    14     19   1 ;    1.5088e-01    2.0786e+05 ;    C14 - C19        CR - CT    
    14     30   1 ;    1.0882e-01    2.9898e+05 ;    C14 - H9         CR - HA    
    15     16   1 ;    1.5354e-01    1.9154e+05 ;    C15 - C16        CT - CT    
    15     31   1 ;    1.0962e-01    2.8891e+05 ;    C15 - H10        CT - HC    
    15     32   1 ;    1.0962e-01    2.8891e+05 ;    C15 - H11        CT - HC    
    16     33   1 ;    1.0962e-01    2.8891e+05 ;    C16 - H12        CT - HC    
    16     34   1 ;    1.0962e-01    2.8891e+05 ;    C16 - H13        CT - HC    
    17     21   1 ;    1.4626e-01    2.1410e+05 ;    C17 - N1         CT - x     
    17     35   1 ;    1.0969e-01    2.8804e+05 ;    C17 - H14        CT - HC    
    17     36   1 ;    1.0969e-01    2.8804e+05 ;    C17 - H15        CT - HC    
    17     37   1 ;    1.0969e-01    2.8804e+05 ;    C17 - H16        CT - HC    
    18     21   1 ;    1.4626e-01    2.1410e+05 ;    C18 - N1         CT - x     
    18     38   1 ;    1.0969e-01    2.8804e+05 ;    C18 - H17        CT - HC    
    18     39   1 ;    1.0969e-01    2.8804e+05 ;    C18 - H18        CT - HC    
    18     40   1 ;    1.0969e-01    2.8804e+05 ;    C18 - H19        CT - HC    
    19     20   1 ;    1.5354e-01    1.9154e+05 ;    C19 - C20        CT - CT    
    19     41   1 ;    1.0962e-01    2.8891e+05 ;    C19 - H20        CT - HC    
    19     42   1 ;    1.0962e-01    2.8891e+05 ;    C19 - H21        CT - HC    
    20     21   1 ;    1.4626e-01    2.1410e+05 ;    C20 - N1         CT - x     
    20     43   1 ;    1.0969e-01    2.8804e+05 ;    C20 - H22        CT - HC    
    20     44   1 ;    1.0969e-01    2.8804e+05 ;    C20 - H23        CT - HC    

[ pairs ]
;   ai     aj    funct
     1     11      1 ;     C1 - C11   
     1     13      1 ;     C1 - C13   
     1     28      1 ;     C1 - H7    
     2     12      1 ;     C2 - C12   
     2     13      1 ;     C2 - C13   
     2     29      1 ;     C2 - H8    
     3      9      1 ;     C3 - C9    
     3     15      1 ;     C3 - C15   
     3     26      1 ;     C3 - H5    
     4     10      1 ;     C4 - C10   
     4     16      1 ;     C4 - C16   
     4     27      1 ;     C4 - H6    
     5      7      1 ;     C5 - C7    
     5     10      1 ;     C5 - C10   
     5     14      1 ;     C5 - C14   
     5     15      1 ;     C5 - C15   
     5     24      1 ;     C5 - H3    
     6      8      1 ;     C6 - C8    
     6      9      1 ;     C6 - C9    
     6     14      1 ;     C6 - C14   
     6     16      1 ;     C6 - C16   
     6     25      1 ;     C6 - H4    
     7     13      1 ;     C7 - C13   
     7     16      1 ;     C7 - C16   
     7     31      1 ;     C7 - H10   
     7     32      1 ;     C7 - H11   
     8     13      1 ;     C8 - C13   
     8     15      1 ;     C8 - C15   
     8     23      1 ;     C8 - H2    
     8     33      1 ;     C8 - H12   
     8     34      1 ;     C8 - H13   
     9     12      1 ;     C9 - C12   
     9     16      1 ;     C9 - C16   
     9     19      1 ;     C9 - C19   
     9     28      1 ;     C9 - H7    
     9     30      1 ;     C9 - H9    
     9     31      1 ;     C9 - H10   
     9     32      1 ;     C9 - H11   
    10     11      1 ;    C10 - C11   
    10     15      1 ;    C10 - C15   
    10     19      1 ;    C10 - C19   
    10     23      1 ;    C10 - H2    
    10     29      1 ;    C10 - H8    
    10     30      1 ;    C10 - H9    
    10     33      1 ;    C10 - H12   
    10     34      1 ;    C10 - H13   
    11     12      1 ;    C11 - C12   
    11     14      1 ;    C11 - C14   
    11     24      1 ;    C11 - H3    
    11     26      1 ;    C11 - H5    
    11     33      1 ;    C11 - H12   
    11     34      1 ;    C11 - H13   
    12     14      1 ;    C12 - C14   
    12     25      1 ;    C12 - H4    
    12     27      1 ;    C12 - H6    
    12     31      1 ;    C12 - H10   
    12     32      1 ;    C12 - H11   
    13     15      1 ;    C13 - C15   
    13     16      1 ;    C13 - C16   
    13     20      1 ;    C13 - C20   
    13     26      1 ;    C13 - H5    
    13     27      1 ;    C13 - H6    
    13     41      1 ;    C13 - H20   
    13     42      1 ;    C13 - H21   
    14     21      1 ;    C14 - N1    
    14     43      1 ;    C14 - H22   
    14     44      1 ;    C14 - H23   
    15     28      1 ;    C15 - H7    
    16     29      1 ;    C16 - H8    
    17     19      1 ;    C17 - C19   
    17     38      1 ;    C17 - H17   
    17     39      1 ;    C17 - H18   
    17     40      1 ;    C17 - H19   
    17     43      1 ;    C17 - H22   
    17     44      1 ;    C17 - H23   
    18     19      1 ;    C18 - C19   
    18     35      1 ;    C18 - H14   
    18     36      1 ;    C18 - H15   
    18     37      1 ;    C18 - H16   
    18     43      1 ;    C18 - H22   
    18     44      1 ;    C18 - H23   
    20     30      1 ;    C20 - H9    
    20     35      1 ;    C20 - H14   
    20     36      1 ;    C20 - H15   
    20     37      1 ;    C20 - H16   
    20     38      1 ;    C20 - H17   
    20     39      1 ;    C20 - H18   
    20     40      1 ;    C20 - H19   
    21     41      1 ;     N1 - H20   
    21     42      1 ;     N1 - H21   
    22      7      1 ;     H1 - C7    
    22      9      1 ;     H1 - C9    
    22     24      1 ;     H1 - H3    
    22     26      1 ;     H1 - H5    
    23     25      1 ;     H2 - H4    
    23     27      1 ;     H2 - H6    
    24     28      1 ;     H3 - H7    
    25     29      1 ;     H4 - H8    
    30     41      1 ;     H9 - H20   
    30     42      1 ;     H9 - H21   
    31     33      1 ;    H10 - H12   
    31     34      1 ;    H10 - H13   
    32     33      1 ;    H11 - H12   
    32     34      1 ;    H11 - H13   
    41     43      1 ;    H20 - H22   
    41     44      1 ;    H20 - H23   
    42     43      1 ;    H21 - H22   
    42     44      1 ;    H21 - H23   

[ angles ]
;   ai     aj     ak    funct   theta         cth
     1      3      7      1 ;    1.2002e+02    5.3279e+02 ;     C1 - C3   - C7       CA -   CA - CA  
     1      3     24      1 ;    1.1988e+02    3.7572e+02 ;     C1 - C3   - H3       CA -   CA - HA  
     1      5      9      1 ;    1.2002e+02    5.3279e+02 ;     C1 - C5   - C9       CA -   CA - CA  
     1      5     26      1 ;    1.1988e+02    3.7572e+02 ;     C1 - C5   - H5       CA -   CA - HA  
     2      4      8      1 ;    1.2002e+02    5.3279e+02 ;     C2 - C4   - C8       CA -   CA - CA  
     2      4     25      1 ;    1.1988e+02    3.7572e+02 ;     C2 - C4   - H4       CA -   CA - HA  
     2      6     10      1 ;    1.2002e+02    5.3279e+02 ;     C2 - C6   - C10      CA -   CA - CA  
     2      6     27      1 ;    1.1988e+02    3.7572e+02 ;     C2 - C6   - H6       CA -   CA - HA  
     3      1      5      1 ;    1.2002e+02    5.3279e+02 ;     C3 - C1   - C5       CA -   CA - CA  
     3      1     22      1 ;    1.1988e+02    3.7572e+02 ;     C3 - C1   - H1       CA -   CA - HA  
     3      7     11      1 ;    1.2002e+02    5.3279e+02 ;     C3 - C7   - C11      CA -   CA - CA  
     3      7     28      1 ;    1.1988e+02    3.7572e+02 ;     C3 - C7   - H7       CA -   CA - HA  
     4      2      6      1 ;    1.2002e+02    5.3279e+02 ;     C4 - C2   - C6       CA -   CA - CA  
     4      2     23      1 ;    1.1988e+02    3.7572e+02 ;     C4 - C2   - H2       CA -   CA - HA  
     4      8     12      1 ;    1.2002e+02    5.3279e+02 ;     C4 - C8   - C12      CA -   CA - CA  
     4      8     29      1 ;    1.1988e+02    3.7572e+02 ;     C4 - C8   - H8       CA -   CA - HA  
     5      1     22      1 ;    1.1988e+02    3.7572e+02 ;     C5 - C1   - H1       CA -   CA - HA  
     5      9     11      1 ;    1.2002e+02    5.3279e+02 ;     C5 - C9   - C11      CA -   CA - CA  
     5      9     13      1 ;    1.2079e+02    5.1530e+02 ;     C5 - C9   - C13      CA -   CA - x   
     6      2     23      1 ;    1.1988e+02    3.7572e+02 ;     C6 - C2   - H2       CA -   CA - HA  
     6     10     12      1 ;    1.2002e+02    5.3279e+02 ;     C6 - C10  - C12      CA -   CA - CA  
     6     10     13      1 ;    1.2079e+02    5.1530e+02 ;     C6 - C10  - C13      CA -   CA - x   
     7      3     24      1 ;    1.1988e+02    3.7572e+02 ;     C7 - C3   - H3       CA -   CA - HA  
     7     11      9      1 ;    1.2002e+02    5.3279e+02 ;     C7 - C11  - C9       CA -   CA - CA  
     7     11     15      1 ;    1.2083e+02    5.0827e+02 ;     C7 - C11  - C15      CA -   CA - CT  
     8      4     25      1 ;    1.1988e+02    3.7572e+02 ;     C8 - C4   - H4       CA -   CA - HA  
     8     12     10      1 ;    1.2002e+02    5.3279e+02 ;     C8 - C12  - C10      CA -   CA - CA  
     8     12     16      1 ;    1.2083e+02    5.0827e+02 ;     C8 - C12  - C16      CA -   CA - CT  
     9      5     26      1 ;    1.1988e+02    3.7572e+02 ;     C9 - C5   - H5       CA -   CA - HA  
     9     11     15      1 ;    1.2083e+02    5.0827e+02 ;     C9 - C11  - C15      CA -   CA - CT  
     9     13     10      1 ;    1.1816e+02    5.0744e+02 ;     C9 - C13  - C10      CA -    x - CA  
     9     13     14      1 ;    1.2298e+02    5.1873e+02 ;     C9 - C13  - C14      CA -    x - CR  
    10      6     27      1 ;    1.1988e+02    3.7572e+02 ;    C10 - C6   - H6       CA -   CA - HA  
    10     12     16      1 ;    1.2083e+02    5.0827e+02 ;    C10 - C12  - C16      CA -   CA - CT  
    10     13     14      1 ;    1.2298e+02    5.1873e+02 ;    C10 - C13  - C14      CA -    x - CR  
    11      7     28      1 ;    1.1988e+02    3.7572e+02 ;    C11 - C7   - H7       CA -   CA - HA  
    11      9     13      1 ;    1.2079e+02    5.1530e+02 ;    C11 - C9   - C13      CA -   CA - x   
    11     15     16      1 ;    1.1242e+02    5.0484e+02 ;    C11 - C15  - C16      CA -   CT - CT  
    11     15     31      1 ;    1.1063e+02    3.6493e+02 ;    C11 - C15  - H10      CA -   CT - HC  
    11     15     32      1 ;    1.1063e+02    3.6493e+02 ;    C11 - C15  - H11      CA -   CT - HC  
    12      8     29      1 ;    1.1988e+02    3.7572e+02 ;    C12 - C8   - H8       CA -   CA - HA  
    12     10     13      1 ;    1.2079e+02    5.1530e+02 ;    C12 - C10  - C13      CA -   CA - x   
    12     16     15      1 ;    1.1242e+02    5.0484e+02 ;    C12 - C16  - C15      CA -   CT - CT  
    12     16     33      1 ;    1.1063e+02    3.6493e+02 ;    C12 - C16  - H12      CA -   CT - HC  
    12     16     34      1 ;    1.1063e+02    3.6493e+02 ;    C12 - C16  - H13      CA -   CT - HC  
    13     14     19      1 ;    1.2558e+02    5.0710e+02 ;    C13 - C14  - C19       x -   CR - CT  
    13     14     30      1 ;    1.2049e+02    3.8618e+02 ;    C13 - C14  - H9        x -   CR - HA  
    14     19     20      1 ;    1.1258e+02    5.0543e+02 ;    C14 - C19  - C20      CR -   CT - CT  
    14     19     41      1 ;    1.1065e+02    3.6618e+02 ;    C14 - C19  - H20      CR -   CT - HC  
    14     19     42      1 ;    1.1065e+02    3.6618e+02 ;    C14 - C19  - H21      CR -   CT - HC  
    15     16     33      1 ;    1.0968e+02    3.6208e+02 ;    C15 - C16  - H12      CT -   CT - HC  
    15     16     34      1 ;    1.0968e+02    3.6208e+02 ;    C15 - C16  - H13      CT -   CT - HC  
    16     15     31      1 ;    1.0968e+02    3.6208e+02 ;    C16 - C15  - H10      CT -   CT - HC  
    16     15     32      1 ;    1.0968e+02    3.6208e+02 ;    C16 - C15  - H11      CT -   CT - HC  
    17     21     18      1 ;    1.1242e+02    6.5061e+02 ;    C17 - N1   - C18      CT -    x - CT  
    17     21     20      1 ;    1.1242e+02    6.5061e+02 ;    C17 - N1   - C20      CT -    x - CT  
    18     21     20      1 ;    1.1242e+02    6.5061e+02 ;    C18 - N1   - C20      CT -    x - CT  
    19     14     30      1 ;    1.1505e+02    3.5941e+02 ;    C19 - C14  - H9       CT -   CR - HA  
    19     20     21      1 ;    1.1308e+02    5.4308e+02 ;    C19 - C20  - N1       CT -   CT - x   
    19     20     43      1 ;    1.0959e+02    3.6217e+02 ;    C19 - C20  - H22      CT -   CT - HC  
    19     20     44      1 ;    1.0959e+02    3.6217e+02 ;    C19 - C20  - H23      CT -   CT - HC  
    20     19     41      1 ;    1.0968e+02    3.6208e+02 ;    C20 - C19  - H20      CT -   CT - HC  
    20     19     42      1 ;    1.0968e+02    3.6208e+02 ;    C20 - C19  - H21      CT -   CT - HC  
    21     17     35      1 ;    1.1009e+02    4.0033e+02 ;     N1 - C17  - H14       x -   CT - HC  
    21     17     36      1 ;    1.1009e+02    4.0033e+02 ;     N1 - C17  - H15       x -   CT - HC  
    21     17     37      1 ;    1.1009e+02    4.0033e+02 ;     N1 - C17  - H16       x -   CT - HC  
    21     18     38      1 ;    1.1009e+02    4.0033e+02 ;     N1 - C18  - H17       x -   CT - HC  
    21     18     39      1 ;    1.1009e+02    4.0033e+02 ;     N1 - C18  - H18       x -   CT - HC  
    21     18     40      1 ;    1.1009e+02    4.0033e+02 ;     N1 - C18  - H19       x -   CT - HC  
    21     20     43      1 ;    1.1009e+02    4.0033e+02 ;     N1 - C20  - H22       x -   CT - HC  
    21     20     44      1 ;    1.1009e+02    4.0033e+02 ;     N1 - C20  - H23       x -   CT - HC  
    31     15     32      1 ;    1.0773e+02    2.9957e+02 ;    H10 - C15  - H11      HC -   CT - HC  
    33     16     34      1 ;    1.0773e+02    2.9957e+02 ;    H12 - C16  - H13      HC -   CT - HC  
    35     17     36      1 ;    1.0855e+02    2.9824e+02 ;    H14 - C17  - H15      HC -   CT - HC  
    35     17     37      1 ;    1.0855e+02    2.9824e+02 ;    H14 - C17  - H16      HC -   CT - HC  
    36     17     37      1 ;    1.0855e+02    2.9824e+02 ;    H15 - C17  - H16      HC -   CT - HC  
    38     18     39      1 ;    1.0855e+02    2.9824e+02 ;    H17 - C18  - H18      HC -   CT - HC  
    38     18     40      1 ;    1.0855e+02    2.9824e+02 ;    H17 - C18  - H19      HC -   CT - HC  
    39     18     40      1 ;    1.0855e+02    2.9824e+02 ;    H18 - C18  - H19      HC -   CT - HC  
    41     19     42      1 ;    1.0773e+02    2.9957e+02 ;    H20 - C19  - H21      HC -   CT - HC  
    43     20     44      1 ;    1.0855e+02    2.9824e+02 ;    H22 - C20  - H23      HC -   CT - HC  

[ dihedrals ] ; propers
; for gromacs 4.5 or higher, using funct 9
;    i      j      k      l   func   phase     kd      pn
     1      3      7     11      9 ;   180.00  15.16700   2 ;     C1-    C3-    C7-   C11
     1      3      7     28      9 ;   180.00  15.16700   2 ;     C1-    C3-    C7-    H7
     1      5      9     11      9 ;   180.00  15.16700   2 ;     C1-    C5-    C9-   C11
     1      5      9     13      9 ;   180.00  15.16700   2 ;     C1-    C5-    C9-   C13
     2      4      8     12      9 ;   180.00  15.16700   2 ;     C2-    C4-    C8-   C12
     2      4      8     29      9 ;   180.00  15.16700   2 ;     C2-    C4-    C8-    H8
     2      6     10     12      9 ;   180.00  15.16700   2 ;     C2-    C6-   C10-   C12
     2      6     10     13      9 ;   180.00  15.16700   2 ;     C2-    C6-   C10-   C13
     3      1      5      9      9 ;   180.00  15.16700   2 ;     C3-    C1-    C5-    C9
     3      1      5     26      9 ;   180.00  15.16700   2 ;     C3-    C1-    C5-    H5
     3      7     11      9      9 ;   180.00  15.16700   2 ;     C3-    C7-   C11-    C9
     3      7     11     15      9 ;   180.00  15.16700   2 ;     C3-    C7-   C11-   C15
     4      2      6     10      9 ;   180.00  15.16700   2 ;     C4-    C2-    C6-   C10
     4      2      6     27      9 ;   180.00  15.16700   2 ;     C4-    C2-    C6-    H6
     4      8     12     10      9 ;   180.00  15.16700   2 ;     C4-    C8-   C12-   C10
     4      8     12     16      9 ;   180.00  15.16700   2 ;     C4-    C8-   C12-   C16
     5      1      3      7      9 ;   180.00  15.16700   2 ;     C5-    C1-    C3-    C7
     5      1      3     24      9 ;   180.00  15.16700   2 ;     C5-    C1-    C3-    H3
     5      9     11      7      9 ;   180.00  15.16700   2 ;     C5-    C9-   C11-    C7
     5      9     11     15      9 ;   180.00  15.16700   2 ;     C5-    C9-   C11-   C15
     5      9     13     10      9 ;   180.00   3.36812   2 ;     C5-    C9-   C13-   C10
     5      9     13     14      9 ;   180.00   2.44764   2 ;     C5-    C9-   C13-   C14
     6      2      4      8      9 ;   180.00  15.16700   2 ;     C6-    C2-    C4-    C8
     6      2      4     25      9 ;   180.00  15.16700   2 ;     C6-    C2-    C4-    H4
     6     10     12      8      9 ;   180.00  15.16700   2 ;     C6-   C10-   C12-    C8
     6     10     12     16      9 ;   180.00  15.16700   2 ;     C6-   C10-   C12-   C16
     6     10     13      9      9 ;   180.00   3.36812   2 ;     C6-   C10-   C13-    C9
     6     10     13     14      9 ;   180.00   2.44764   2 ;     C6-   C10-   C13-   C14
     7     11      9     13      9 ;   180.00  15.16700   2 ;     C7-   C11-    C9-   C13
     7     11     15     16      9 ;   180.00   1.00416   2 ;     C7-   C11-   C15-   C16
     7     11     15     31      9 ;     0.00   0.00000   0 ;     C7-   C11-   C15-   H10
     7     11     15     32      9 ;     0.00   0.00000   0 ;     C7-   C11-   C15-   H11
     8      4      2     23      9 ;   180.00  15.16700   2 ;     C8-    C4-    C2-    H2
     8     12     10     13      9 ;   180.00  15.16700   2 ;     C8-   C12-   C10-   C13
     8     12     16     15      9 ;   180.00   1.00416   2 ;     C8-   C12-   C16-   C15
     8     12     16     33      9 ;     0.00   0.00000   0 ;     C8-   C12-   C16-   H12
     8     12     16     34      9 ;     0.00   0.00000   0 ;     C8-   C12-   C16-   H13
     9     11      7     28      9 ;   180.00  15.16700   2 ;     C9-   C11-    C7-    H7
     9     11     15     16      9 ;   180.00   1.00416   2 ;     C9-   C11-   C15-   C16
     9     11     15     31      9 ;     0.00   0.00000   0 ;     C9-   C11-   C15-   H10
     9     11     15     32      9 ;     0.00   0.00000   0 ;     C9-   C11-   C15-   H11
     9     13     10     12      9 ;   180.00   3.36812   2 ;     C9-   C13-   C10-   C12
     9     13     14     19      9 ;   180.00  27.82360   2 ;     C9-   C13-   C14-   C19
     9     13     14     30      9 ;   180.00  27.82360   2 ;     C9-   C13-   C14-    H9
    10      6      2     23      9 ;   180.00  15.16700   2 ;    C10-    C6-    C2-    H2
    10     12      8     29      9 ;   180.00  15.16700   2 ;    C10-   C12-    C8-    H8
    10     12     16     15      9 ;   180.00   1.00416   2 ;    C10-   C12-   C16-   C15
    10     12     16     33      9 ;     0.00   0.00000   0 ;    C10-   C12-   C16-   H12
    10     12     16     34      9 ;     0.00   0.00000   0 ;    C10-   C12-   C16-   H13
    10     13      9     11      9 ;   180.00   3.36812   2 ;    C10-   C13-    C9-   C11
    10     13     14     19      9 ;   180.00  27.82360   2 ;    C10-   C13-   C14-   C19
    10     13     14     30      9 ;   180.00  27.82360   2 ;    C10-   C13-   C14-    H9
    11      7      3     24      9 ;   180.00  15.16700   2 ;    C11-    C7-    C3-    H3
    11      9      5     26      9 ;   180.00  15.16700   2 ;    C11-    C9-    C5-    H5
    11      9     13     14      9 ;   180.00   2.44764   2 ;    C11-    C9-   C13-   C14
    11     15     16     12      9 ;     0.00   0.65084   3 ;    C11-   C15-   C16-   C12
    11     15     16     33      9 ;     0.00   0.65084   3 ;    C11-   C15-   C16-   H12
    11     15     16     34      9 ;     0.00   0.65084   3 ;    C11-   C15-   C16-   H13
    12      8      4     25      9 ;   180.00  15.16700   2 ;    C12-    C8-    C4-    H4
    12     10      6     27      9 ;   180.00  15.16700   2 ;    C12-   C10-    C6-    H6
    12     10     13     14      9 ;   180.00   2.44764   2 ;    C12-   C10-   C13-   C14
    12     16     15     31      9 ;     0.00   0.65084   3 ;    C12-   C16-   C15-   H10
    12     16     15     32      9 ;     0.00   0.65084   3 ;    C12-   C16-   C15-   H11
    13      9      5     26      9 ;   180.00  15.16700   2 ;    C13-    C9-    C5-    H5
    13      9     11     15      9 ;   180.00  15.16700   2 ;    C13-    C9-   C11-   C15
    13     10      6     27      9 ;   180.00  15.16700   2 ;    C13-   C10-    C6-    H6
    13     10     12     16      9 ;   180.00  15.16700   2 ;    C13-   C10-   C12-   C16
    13     14     19     20      9 ;     0.00   0.00000   0 ;    C13-   C14-   C19-   C20
    13     14     19     41      9 ;     0.00   0.00000   0 ;    C13-   C14-   C19-   H20
    13     14     19     42      9 ;     0.00   0.00000   0 ;    C13-   C14-   C19-   H21
    14     19     20     21      9 ;     0.00   0.65084   3 ;    C14-   C19-   C20-    N1
    14     19     20     43      9 ;     0.00   0.65084   3 ;    C14-   C19-   C20-   H22
    14     19     20     44      9 ;     0.00   0.65084   3 ;    C14-   C19-   C20-   H23
    15     11      7     28      9 ;   180.00  15.16700   2 ;    C15-   C11-    C7-    H7
    16     12      8     29      9 ;   180.00  15.16700   2 ;    C16-   C12-    C8-    H8
    17     21     18     38      9 ;     0.00   0.94140   3 ;    C17-    N1-   C18-   H17
    17     21     18     39      9 ;     0.00   0.94140   3 ;    C17-    N1-   C18-   H18
    17     21     18     40      9 ;     0.00   0.94140   3 ;    C17-    N1-   C18-   H19
    17     21     20     19      9 ;     0.00   3.05432   3 ;    C17-    N1-   C20-   C19
    17     21     20     43      9 ;     0.00   0.94140   3 ;    C17-    N1-   C20-   H22
    17     21     20     44      9 ;     0.00   0.94140   3 ;    C17-    N1-   C20-   H23
    18     21     17     35      9 ;     0.00   0.94140   3 ;    C18-    N1-   C17-   H14
    18     21     17     36      9 ;     0.00   0.94140   3 ;    C18-    N1-   C17-   H15
    18     21     17     37      9 ;     0.00   0.94140   3 ;    C18-    N1-   C17-   H16
    18     21     20     19      9 ;     0.00   3.05432   3 ;    C18-    N1-   C20-   C19
    18     21     20     43      9 ;     0.00   0.94140   3 ;    C18-    N1-   C20-   H22
    18     21     20     44      9 ;     0.00   0.94140   3 ;    C18-    N1-   C20-   H23
    20     19     14     30      9 ;     0.00   0.00000   0 ;    C20-   C19-   C14-    H9
    20     21     17     35      9 ;     0.00   0.94140   3 ;    C20-    N1-   C17-   H14
    20     21     17     36      9 ;     0.00   0.94140   3 ;    C20-    N1-   C17-   H15
    20     21     17     37      9 ;     0.00   0.94140   3 ;    C20-    N1-   C17-   H16
    20     21     18     38      9 ;     0.00   0.94140   3 ;    C20-    N1-   C18-   H17
    20     21     18     39      9 ;     0.00   0.94140   3 ;    C20-    N1-   C18-   H18
    20     21     18     40      9 ;     0.00   0.94140   3 ;    C20-    N1-   C18-   H19
    21     20     19     41      9 ;     0.00   0.41840   3 ;     N1-   C20-   C19-   H20
    21     20     19     42      9 ;     0.00   0.41840   3 ;     N1-   C20-   C19-   H21
    22      1      3      7      9 ;   180.00  15.16700   2 ;     H1-    C1-    C3-    C7
    22      1      3     24      9 ;   180.00  15.16700   2 ;     H1-    C1-    C3-    H3
    22      1      5      9      9 ;   180.00  15.16700   2 ;     H1-    C1-    C5-    C9
    22      1      5     26      9 ;   180.00  15.16700   2 ;     H1-    C1-    C5-    H5
    23      2      4     25      9 ;   180.00  15.16700   2 ;     H2-    C2-    C4-    H4
    23      2      6     27      9 ;   180.00  15.16700   2 ;     H2-    C2-    C6-    H6
    24      3      7     28      9 ;   180.00  15.16700   2 ;     H3-    C3-    C7-    H7
    25      4      8     29      9 ;   180.00  15.16700   2 ;     H4-    C4-    C8-    H8
    30     14     19     41      9 ;     0.00   0.00000   0 ;     H9-   C14-   C19-   H20
    30     14     19     42      9 ;     0.00   0.00000   0 ;     H9-   C14-   C19-   H21
    31     15     16     33      9 ;     0.00   0.50208   3 ;    H10-   C15-   C16-   H12
    31     15     16     34      9 ;     0.00   0.50208   3 ;    H10-   C15-   C16-   H13
    32     15     16     33      9 ;     0.00   0.50208   3 ;    H11-   C15-   C16-   H12
    32     15     16     34      9 ;     0.00   0.50208   3 ;    H11-   C15-   C16-   H13
    41     19     20     43      9 ;     0.00   0.65084   3 ;    H20-   C19-   C20-   H22
    41     19     20     44      9 ;     0.00   0.65084   3 ;    H20-   C19-   C20-   H23
    42     19     20     43      9 ;     0.00   0.65084   3 ;    H21-   C19-   C20-   H22
    42     19     20     44      9 ;     0.00   0.65084   3 ;    H21-   C19-   C20-   H23

[ dihedrals ] ; impropers
; treated as propers in GROMACS to use correct AMBER analytical function
;    i      j      k      l   func   phase     kd      pn
     1      7      3     24      4 ;   180.00   4.60240   2 ;     C1-    C7-    C3-    H3
     1      9      5     26      4 ;   180.00   4.60240   2 ;     C1-    C9-    C5-    H5
     2      8      4     25      4 ;   180.00   4.60240   2 ;     C2-    C8-    C4-    H4
     2     10      6     27      4 ;   180.00   4.60240   2 ;     C2-   C10-    C6-    H6
     3     11      7     28      4 ;   180.00   4.60240   2 ;     C3-   C11-    C7-    H7
     4      6      2     23      4 ;   180.00   4.60240   2 ;     C4-    C6-    C2-    H2
     4     12      8     29      4 ;   180.00   4.60240   2 ;     C4-   C12-    C8-    H8
     5     11      9     13      4 ;   180.00   4.60240   2 ;     C5-   C11-    C9-   C13
     6     12     10     13      4 ;   180.00   4.60240   2 ;     C6-   C12-   C10-   C13
     7      9     11     15      4 ;   180.00   4.60240   2 ;     C7-    C9-   C11-   C15
    14      9     13     10      4 ;   180.00   4.60240   2 ;    C14-    C9-   C13-   C10
    16      8     12     10      4 ;   180.00   4.60240   2 ;    C16-    C8-   C12-   C10
    19     13     14     30      4 ;   180.00   4.60240   2 ;    C19-   C13-   C14-    H9
    22      1      5      3      4 ;   180.00   4.60240   2 ;     H1-    C1-    C5-    C3
