%VERSION  VERSION_STAMP = V0001.000  DATE = 05/20/26  23:45:12                  
%FLAG TITLE                                                                     
%FORMAT(20a4)                                                                   
1_nitropentane                                                                  
%FLAG POINTERS                                                                  
%FORMAT(10I8)                                                                   
      19       5      11       7      26       7      37       6       0       0
      94       1       7       7       6       5       9       7       5       0
       0       0       0       0       0       0       0       0      19       0
       0
%FLAG ATOM_NAME                                                                 
%FORMAT(20a4)                                                                   
C1  C2  C3  C4  C5  N1  O1  O2  H1  H2  H3  H4  H5  H6  H7  H8  H9  H10 H11 
%FLAG CHARGE                                                                    
%FORMAT(5E16.8)                                                                 
 -1.71471843E+00 -1.44685062E+00 -1.42862832E+00 -1.72018512E+00 -1.41587271E+00
  4.17837339E+00 -3.85401645E+00 -3.85401645E+00  6.56604136E-01  6.56604136E-01
  6.56604136E-01  8.14536810E-01  8.14536810E-01  8.23647960E-01  8.23647960E-01
  1.27920546E+00  1.27920546E+00  1.72565181E+00  1.72565181E+00
%FLAG ATOMIC_NUMBER                                                             
%FORMAT(10I8)                                                                   
       6       6       6       6       6       7       8       8       1       1
       1       1       1       1       1       1       1       1       1
%FLAG MASS                                                                      
%FORMAT(5E16.8)                                                                 
  1.20100000E+01  1.20100000E+01  1.20100000E+01  1.20100000E+01  1.20100000E+01
  1.40100000E+01  1.60000000E+01  1.60000000E+01  1.00800000E+00  1.00800000E+00
  1.00800000E+00  1.00800000E+00  1.00800000E+00  1.00800000E+00  1.00800000E+00
  1.00800000E+00  1.00800000E+00  1.00800000E+00  1.00800000E+00
%FLAG ATOM_TYPE_INDEX                                                           
%FORMAT(10I8)                                                                   
       1       1       1       1       1       2       3       3       4       4
       4       4       4       4       4       4       4       5       5
%FLAG NUMBER_EXCLUDED_ATOMS                                                     
%FORMAT(10I8)                                                                   
      10      12      14      12       9       6       3       2       4       3
       2       3       2       3       2       3       2       1       1
%FLAG NONBONDED_PARM_INDEX                                                      
%FORMAT(10I8)                                                                   
       1       2       4       7      11       2       3       5       8      12
       4       5       6       9      13       7       8       9      10      14
      11      12      13      14      15
%FLAG RESIDUE_LABEL                                                             
%FORMAT(20a4)                                                                   
MOL 
%FLAG RESIDUE_POINTER                                                           
%FORMAT(10I8)                                                                   
       1
%FLAG BOND_FORCE_CONSTANT                                                       
%FORMAT(5E16.8)                                                                 
  2.28890000E+02  3.45250000E+02  2.11580000E+02  3.44220000E+02  3.61740000E+02
%FLAG BOND_EQUIL_VALUE                                                          
%FORMAT(5E16.8)                                                                 
  1.53540000E+00  1.09620000E+00  1.52320000E+00  1.09690000E+00  1.23110000E+00
%FLAG ANGLE_FORCE_CONSTANT                                                      
%FORMAT(5E16.8)                                                                 
  5.98700000E+01  4.32700000E+01  6.46800000E+01  4.32800000E+01  9.68300000E+01
  4.71500000E+01  1.31020000E+02  3.58000000E+01  3.56400000E+01
%FLAG ANGLE_EQUIL_VALUE                                                         
%FORMAT(5E16.8)                                                                 
  1.96576518E+00  1.91427794E+00  1.91323075E+00  1.91270715E+00  2.04081437E+00
  1.84237035E+00  2.18253516E+00  1.88024401E+00  1.89455572E+00
%FLAG DIHEDRAL_FORCE_CONSTANT                                                   
%FORMAT(5E16.8)                                                                 
  5.20000000E-01  1.30000000E-01  1.55555556E-01  0.00000000E+00  0.00000000E+00
  1.20000000E-01  1.10000000E+00
%FLAG DIHEDRAL_PERIODICITY                                                      
%FORMAT(5E16.8)                                                                 
  3.00000000E+00  3.00000000E+00  3.00000000E+00  2.00000000E+00  1.00000000E+00
  3.00000000E+00  2.00000000E+00
%FLAG DIHEDRAL_PHASE                                                            
%FORMAT(5E16.8)                                                                 
  0.00000000E+00  0.00000000E+00  0.00000000E+00  0.00000000E+00  0.00000000E+00
  0.00000000E+00  3.14159400E+00
%FLAG SCEE_SCALE_FACTOR                                                         
%FORMAT(5E16.8)                                                                 
  1.20000000E+00  1.20000000E+00  1.20000000E+00  1.20000000E+00  1.20000000E+00
  1.20000000E+00  0.00000000E+00
%FLAG SCNB_SCALE_FACTOR                                                         
%FORMAT(5E16.8)                                                                 
  2.00000000E+00  2.00000000E+00  2.00000000E+00  2.00000000E+00  2.00000000E+00
  2.00000000E+00  0.00000000E+00
%FLAG SOLTY                                                                     
%FORMAT(5E16.8)                                                                 
  0.00000000E+00  0.00000000E+00  0.00000000E+00  0.00000000E+00  0.00000000E+00
%FLAG LENNARD_JONES_ACOEF                                                       
%FORMAT(5E16.8)                                                                 
  1.02073671E+06  8.59569453E+05  7.23647490E+05  6.30925504E+05  5.29641935E+05
  3.76435470E+05  1.00235148E+05  8.37616145E+04  5.68021765E+04  7.94617769E+03
  6.97998263E+04  5.82112737E+04  3.86646725E+04  5.22955465E+03  3.39005767E+03
%FLAG LENNARD_JONES_BCOEF                                                       
%FORMAT(5E16.8)                                                                 
  6.63431737E+02  5.75038595E+02  4.98353106E+02  5.62969425E+02  4.87196412E+02
  4.69350655E+02  1.37787728E+02  1.18970742E+02  1.11953944E+02  2.57122925E+01
  1.14981426E+02  9.91793374E+01  9.23664132E+01  2.08590256E+01  1.67944276E+01
%FLAG BONDS_INC_HYDROGEN                                                        
%FORMAT(10I8)                                                                   
       0      24       2       0      27       2       0      30       2       3
      33       2       3      36       2       6      39       2       6      42
       2       9      45       2       9      48       2      12      51       4
      12      54       4
%FLAG BONDS_WITHOUT_HYDROGEN                                                    
%FORMAT(10I8)                                                                   
       0       3       1       3       6       1       6       9       1       9
      12       1      12      15       3      15      18       5      15      21
       5
%FLAG ANGLES_INC_HYDROGEN                                                       
%FORMAT(10I8)                                                                   
       0       3      33       2       0       3      36       2       3       0
      24       2       3       0      27       2       3       0      30       2
       3       6      39       2       3       6      42       2       6       3
      33       2       6       3      36       2       6       9      45       2
       6       9      48       2       9       6      39       2       9       6
      42       2       9      12      51       4       9      12      54       4
      12       9      45       2      12       9      48       2      15      12
      51       6      15      12      54       6      24       0      27       8
      24       0      30       8      27       0      30       8      33       3
      36       8      39       6      42       8      45       9      48       8
      51      12      54       9
%FLAG ANGLES_WITHOUT_HYDROGEN                                                   
%FORMAT(10I8)                                                                   
       0       3       6       1       3       6       9       1       6       9
      12       1       9      12      15       3      12      15      18       5
      12      15      21       5      18      15      21       7
%FLAG DIHEDRALS_INC_HYDROGEN                                                    
%FORMAT(10I8)                                                                   
       0       3       6      39       2       0       3       6      42       2
       3       6       9      45       2       3       6       9      48       2
      24       0       3       6       2      27       0       3       6       2
      30       0       3       6       2       6       9      12      51       3
       6       9      12      54       3       9       6       3      33       2
       9       6       3      36       2      12       9       6      39       2
      12       9       6      42       2      15      12       9      45       3
      15      12       9      48       3      18      15      12      51       5
      18      15      12      54       5      21      15      12      51       5
      21      15      12      54       5      24       0       3      33       6
      24       0       3      36       6      27       0       3      33       6
      27       0       3      36       6      30       0       3      33       6
      30       0       3      36       6      33       3       6      39       6
      33       3       6      42       6      36       3       6      39       6
      36       3       6      42       6      39       6       9      45       6
      39       6       9      48       6      42       6       9      45       6
      42       6       9      48       6      45       9      12      51       3
      45       9      12      54       3      48       9      12      51       3
      48       9      12      54       3
%FLAG DIHEDRALS_WITHOUT_HYDROGEN                                                
%FORMAT(10I8)                                                                   
       0       3       6       9       1       3       6       9      12       1
       6       9      12      15       3       9      12      15      18       4
       9      12      15      21       4      12      18     -15     -21       7
%FLAG EXCLUDED_ATOMS_LIST                                                       
%FORMAT(10I8)                                                                   
       2       3       4       9      10      11      12      13      14      15
       3       4       5       9      10      11      12      13      14      15
      16      17       4       5       6       9      10      11      12      13
      14      15      16      17      18      19       5       6       7       8
      12      13      14      15      16      17      18      19       6       7
       8      14      15      16      17      18      19       7       8      16
      17      18      19       8      18      19      18      19      10      11
      12      13      11      12      13      12      13      13      14      15
      14      15      15      16      17      16      17      17      18      19
      18      19      19       0
%FLAG HBOND_ACOEF                                                               
%FORMAT(5E16.8)                                                                 

%FLAG HBOND_BCOEF                                                               
%FORMAT(5E16.8)                                                                 

%FLAG HBCUT                                                                     
%FORMAT(5E16.8)                                                                 

%FLAG AMBER_ATOM_TYPE                                                           
%FORMAT(20a4)                                                                   
c3  c3  c3  c3  c3  no  o   o   hc  hc  hc  hc  hc  hc  hc  hc  hc  h1  h1  
%FLAG TREE_CHAIN_CLASSIFICATION                                                 
%FORMAT(20a4)                                                                   
BLA BLA BLA BLA BLA BLA BLA BLA BLA BLA BLA BLA BLA BLA BLA BLA BLA BLA BLA 
%FLAG JOIN_ARRAY                                                                
%FORMAT(10I8)                                                                   
       0       0       0       0       0       0       0       0       0       0
       0       0       0       0       0       0       0       0       0
%FLAG IROTAT                                                                    
%FORMAT(10I8)                                                                   
       0       0       0       0       0       0       0       0       0       0
       0       0       0       0       0       0       0       0       0
%FLAG RADIUS_SET                                                                
%FORMAT(1a80)                                                                   
modified Bondi radii (mbondi)                                                   
%FLAG RADII                                                                     
%FORMAT(5E16.8)                                                                 
  1.70000000E+00  1.70000000E+00  1.70000000E+00  1.70000000E+00  1.70000000E+00
  1.55000000E+00  1.50000000E+00  1.50000000E+00  1.30000000E+00  1.30000000E+00
  1.30000000E+00  1.30000000E+00  1.30000000E+00  1.30000000E+00  1.30000000E+00
  1.30000000E+00  1.30000000E+00  1.30000000E+00  1.30000000E+00
%FLAG SCREEN                                                                    
%FORMAT(5E16.8)                                                                 
  7.20000000E-01  7.20000000E-01  7.20000000E-01  7.20000000E-01  7.20000000E-01
  7.90000000E-01  8.50000000E-01  8.50000000E-01  8.50000000E-01  8.50000000E-01
  8.50000000E-01  8.50000000E-01  8.50000000E-01  8.50000000E-01  8.50000000E-01
  8.50000000E-01  8.50000000E-01  8.50000000E-01  8.50000000E-01
%FLAG IPOL                                                                      
%FORMAT(1I8)                                                                    
       0
