mobley_1235151_GMX.gro created by acpype (v: 2023.10.27) on Wed May 20 23:45:08 2026
 19
    1  MOL   C1    1   0.038  -0.079   0.071
    1  MOL   C2    2   0.152  -0.022   0.153
    1  MOL   C3    3   0.270   0.019   0.065
    1  MOL   C4    4   0.386   0.074   0.148
    1  MOL   C5    5   0.501   0.118   0.059
    1  MOL   N1    6   0.606   0.175   0.145
    1  MOL   O1    7   0.603   0.297   0.168
    1  MOL   O2    8   0.691   0.096   0.192
    1  MOL   H1    9  -0.045  -0.107   0.136
    1  MOL   H2   10   0.001  -0.005  -0.001
    1  MOL   H3   11   0.070  -0.168   0.015
    1  MOL   H4   12   0.185  -0.097   0.226
    1  MOL   H5   13   0.116   0.065   0.209
    1  MOL   H6   14   0.237   0.096  -0.007
    1  MOL   H7   15   0.304  -0.067   0.006
    1  MOL   H8   16   0.420  -0.004   0.218
    1  MOL   H9   17   0.351   0.158   0.209
    1  MOL  H10   18   0.472   0.197  -0.011
    1  MOL  H11   19   0.547   0.035   0.005
   14.71400     9.28800     4.73600
