1_nitropentane
    19
   0.3790000  -0.7860000   0.7060000   1.5220000  -0.2150000   1.5300000
   2.7000000   0.1940000   0.6450000   3.8610000   0.7360000   1.4790000
   5.0100000   1.1790000   0.5900000   6.0590000   1.7460000   1.4530000
   6.0250000   2.9690000   1.6780000   6.9050000   0.9630000   1.9200000
  -0.4520000  -1.0720000   1.3590000   0.0070000  -0.0490000  -0.0130000
   0.6980000  -1.6750000   0.1540000   1.8480000  -0.9650000   2.2600000
   1.1610000   0.6520000   2.0940000   2.3730000   0.9580000  -0.0710000
   3.0390000  -0.6710000   0.0610000   4.2040000  -0.0380000   2.1780000
   3.5140000   1.5790000   2.0900000   4.7210000   1.9680000  -0.1080000
   5.4680000   0.3460000   0.0500000
