; mobley_1235151_GMX_OPLS.top created by acpype (v: 2023.10.27) on Wed May 20 23:45:08 2026

; Include forcefield parameters
#include "ffoplsaa.itp"

; Include mobley_1235151_GMX.itp topology
#include "mobley_1235151_GMX.itp"

; Ligand position restraints
#ifdef POSRES_LIG
#include "posre_mobley_1235151.itp"
#endif

[ system ]
 mobley_1235151

[ molecules ]
; Compound        nmols
 mobley_1235151   1     
