; mobley_337666_GMX_OPLS.itp created by acpype (v: 2023.10.27) on Wed May 20 23:59:20 2026

; For OPLS atomtypes manual fine tuning
; AC_at:OPLS_at:OPLScode: Possible_Alternatives (see ffoplsaa.atp and ffoplsaanb.itp)
; cc:C*:opls_500: ['506', '507', '508', '514']
; cd:C*:opls_500: ['506', '507', '508', '514']
; c:C:opls_235: ['271']
; ns:x:opls_x: []
; o:O:opls_236: ['272']
; f:x:opls_x: []
; h4:HA:opls_146: []
; hn:H:opls_240: ['241', '290', '301', '304', '310', '504', '513']

[ moleculetype ]
;name            nrexcl
 mobley_337666    3

[ atoms ]
;   nr  type  resi  res  atom  cgnr     charge      mass       ; qtot   bond_type
     1 opls_500     1   MOL    C1    1     0.000600     12.01100 ; qtot  0.001  C*  
     2 opls_500     1   MOL    C2    2    -0.030700     12.01100 ; qtot -0.030  C*  
     3 opls_235     1   MOL    C3    3     0.703700     12.01100 ; qtot  0.674  C   
     4 opls_235     1   MOL    C4    4     0.803500     12.01100 ; qtot  1.477  C   
     5 opls_x     1   MOL    N1    5    -0.462100      0.00000 ; qtot  1.015  x   
     6 opls_x     1   MOL    N2    6    -0.581500      0.00000 ; qtot  0.433  x   
     7 opls_236     1   MOL    O1    7    -0.576500     15.99940 ; qtot -0.143  O   
     8 opls_236     1   MOL    O2    8    -0.626500     15.99940 ; qtot -0.770  O   
     9 opls_x     1   MOL    F1    9    -0.131500      0.00000 ; qtot -0.901  x   
    10 opls_146     1   MOL    H1   10     0.179000      1.00800 ; qtot -0.722  HA  
    11 opls_240     1   MOL    H2   11     0.361500      1.00800 ; qtot -0.360  H   
    12 opls_240     1   MOL    H3   12     0.360500      1.00800 ; qtot  0.000  H   

[ bonds ]
;   ai     aj funct   r             k
     1      2   1 ;    1.3730e-01    3.2321e+05 ;     C1 - C2         C* - C*    
     1      5   1 ;    1.3804e-01    2.8065e+05 ;     C1 - N1         C* - x     
     1     10   1 ;    1.0809e-01    3.0854e+05 ;     C1 - H1         C* - HA    
     2      3   1 ;    1.4728e-01    2.3273e+05 ;     C2 - C3         C* - C     
     2      9   1 ;    1.3440e-01    2.8680e+05 ;     C2 - F1         C* - x     
     3      6   1 ;    1.3798e-01    2.8122e+05 ;     C3 - N2          C - x     
     3      7   1 ;    1.2190e-01    4.9421e+05 ;     C3 - O1          C - O     
     4      5   1 ;    1.3798e-01    2.8122e+05 ;     C4 - N1          C - x     
     4      6   1 ;    1.3798e-01    2.8122e+05 ;     C4 - N2          C - x     
     4      8   1 ;    1.2190e-01    4.9421e+05 ;     C4 - O2          C - O     
     5     11   1 ;    1.0132e-01    3.9630e+05 ;     N1 - H2          x - H     
     6     12   1 ;    1.0132e-01    3.9630e+05 ;     N2 - H3          x - H     

[ pairs ]
;   ai     aj    funct
     1      6      1 ;     C1 - N2    
     1      7      1 ;     C1 - O1    
     1      8      1 ;     C1 - O2    
     2      4      1 ;     C2 - C4    
     2     11      1 ;     C2 - H2    
     2     12      1 ;     C2 - H3    
     3      8      1 ;     C3 - O2    
     4      7      1 ;     C4 - O1    
     5      3      1 ;     N1 - C3    
     5      9      1 ;     N1 - F1    
     5     12      1 ;     N1 - H3    
     6      9      1 ;     N2 - F1    
     6     11      1 ;     N2 - H2    
     7      9      1 ;     O1 - F1    
     7     12      1 ;     O1 - H3    
     8     11      1 ;     O2 - H2    
     8     12      1 ;     O2 - H3    
    10      3      1 ;     H1 - C3    
    10      4      1 ;     H1 - C4    
    10      9      1 ;     H1 - F1    
    10     11      1 ;     H1 - H2    

[ angles ]
;   ai     aj     ak    funct   theta         cth
     1      2      3      1 ;    1.2132e+02    5.1965e+02 ;     C1 - C2   - C3       C* -   C* - C   
     1      2      9      1 ;    1.2160e+02    6.7480e+02 ;     C1 - C2   - F1       C* -   C* - x   
     1      5      4      1 ;    1.2518e+02    6.5346e+02 ;     C1 - N1   - C4       C* -    x - C   
     1      5     11      1 ;    1.1891e+02    4.7656e+02 ;     C1 - N1   - H2       C* -    x - H   
     2      1      5      1 ;    1.2145e+02    5.7120e+02 ;     C2 - C1   - N1       C* -   C* - x   
     2      1     10      1 ;    1.2911e+02    3.6777e+02 ;     C2 - C1   - H1       C* -   C* - HA  
     2      3      6      1 ;    1.1220e+02    5.7245e+02 ;     C2 - C3   - N2       C* -    C - x   
     2      3      7      1 ;    1.2371e+02    6.5530e+02 ;     C2 - C3   - O1       C* -    C - O   
     3      2      9      1 ;    1.1724e+02    6.6024e+02 ;     C3 - C2   - F1        C -   C* - x   
     3      6      4      1 ;    1.2805e+02    6.4618e+02 ;     C3 - N2   - C4        C -    x - C   
     3      6     12      1 ;    1.1726e+02    4.8007e+02 ;     C3 - N2   - H3        C -    x - H   
     4      5     11      1 ;    1.1726e+02    4.8007e+02 ;     C4 - N1   - H2        C -    x - H   
     4      6     12      1 ;    1.1726e+02    4.8007e+02 ;     C4 - N2   - H3        C -    x - H   
     5      1     10      1 ;    1.1582e+02    4.1045e+02 ;     N1 - C1   - H1        x -   C* - HA  
     5      4      6      1 ;    1.1289e+02    6.2752e+02 ;     N1 - C4   - N2        x -    C - x   
     5      4      8      1 ;    1.2305e+02    7.2977e+02 ;     N1 - C4   - O2        x -    C - O   
     6      3      7      1 ;    1.2305e+02    7.2977e+02 ;     N2 - C3   - O1        x -    C - O   
     6      4      8      1 ;    1.2305e+02    7.2977e+02 ;     N2 - C4   - O2        x -    C - O   

[ dihedrals ] ; propers
; for gromacs 4.5 or higher, using funct 9
;    i      j      k      l   func   phase     kd      pn
     1      2      3      6      9 ;   180.00  12.02900   2 ;     C1-    C2-    C3-    N2
     1      2      3      7      9 ;   180.00  12.02900   2 ;     C1-    C2-    C3-    O1
     1      5      4      6      9 ;   180.00  10.46000   2 ;     C1-    N1-    C4-    N2
     1      5      4      8      9 ;   180.00  10.46000   2 ;     C1-    N1-    C4-    O2
     2      1      5      4      9 ;   180.00   6.90360   2 ;     C2-    C1-    N1-    C4
     2      1      5     11      9 ;   180.00   6.90360   2 ;     C2-    C1-    N1-    H2
     2      3      6      4      9 ;   180.00  10.46000   2 ;     C2-    C3-    N2-    C4
     2      3      6     12      9 ;   180.00  10.46000   2 ;     C2-    C3-    N2-    H3
     3      6      4      5      9 ;   180.00  10.46000   2 ;     C3-    N2-    C4-    N1
     3      6      4      8      9 ;   180.00  10.46000   2 ;     C3-    N2-    C4-    O2
     4      6      3      7      9 ;   180.00  10.46000   2 ;     C4-    N2-    C3-    O1
     5      1      2      3      9 ;   180.00  16.73600   2 ;     N1-    C1-    C2-    C3
     5      1      2      9      9 ;   180.00  16.73600   2 ;     N1-    C1-    C2-    F1
     5      4      6     12      9 ;   180.00  10.46000   2 ;     N1-    C4-    N2-    H3
     6      3      2      9      9 ;   180.00  12.02900   2 ;     N2-    C3-    C2-    F1
     6      4      5     11      9 ;   180.00  10.46000   2 ;     N2-    C4-    N1-    H2
     7      3      2      9      9 ;   180.00  12.02900   2 ;     O1-    C3-    C2-    F1
     7      3      6     12      9 ;     0.00   8.36800   1 ;     O1-    C3-    N2-    H3
     7      3      6     12      9 ;   180.00  10.46000   2 ;     O1-    C3-    N2-    H3
     8      4      5     11      9 ;     0.00   8.36800   1 ;     O2-    C4-    N1-    H2
     8      4      5     11      9 ;   180.00  10.46000   2 ;     O2-    C4-    N1-    H2
     8      4      6     12      9 ;     0.00   8.36800   1 ;     O2-    C4-    N2-    H3
     8      4      6     12      9 ;   180.00  10.46000   2 ;     O2-    C4-    N2-    H3
    10      1      2      3      9 ;   180.00  16.73600   2 ;     H1-    C1-    C2-    C3
    10      1      2      9      9 ;   180.00  16.73600   2 ;     H1-    C1-    C2-    F1
    10      1      5      4      9 ;   180.00   6.90360   2 ;     H1-    C1-    N1-    C4
    10      1      5     11      9 ;   180.00   6.90360   2 ;     H1-    C1-    N1-    H2

[ dihedrals ] ; impropers
; treated as propers in GROMACS to use correct AMBER analytical function
;    i      j      k      l   func   phase     kd      pn
     2      6      3      7      4 ;   180.00  43.93200   2 ;     C2-    N2-    C3-    O1
     3      1      2      9      4 ;   180.00   4.60240   2 ;     C3-    C1-    C2-    F1
     3      4      6     12      4 ;   180.00   4.60240   2 ;     C3-    C4-    N2-    H3
     4      1      5     11      4 ;   180.00   4.60240   2 ;     C4-    C1-    N1-    H2
     5      1     10      2      4 ;   180.00   4.60240   2 ;     N1-    C1-    H1-    C2
     5      6      4      8      4 ;   180.00  43.93200   2 ;     N1-    N2-    C4-    O2
