mobley_337666_GMX.gro created by acpype (v: 2023.10.27) on Wed May 20 23:59:20 2026
 12
    1  MOL   C1    1  -0.107   0.036   0.171
    1  MOL   C2    2  -0.193  -0.011   0.261
    1  MOL   C3    3  -0.248  -0.148   0.251
    1  MOL   C4    4  -0.110  -0.171   0.044
    1  MOL   N1    5  -0.066  -0.041   0.066
    1  MOL   N2    6  -0.200  -0.218   0.140
    1  MOL   O1    7  -0.327  -0.192   0.333
    1  MOL   O2    8  -0.072  -0.240  -0.051
    1  MOL   F1    9  -0.235   0.062   0.366
    1  MOL   H1   10  -0.065   0.135   0.176
    1  MOL   H2   11  -0.000  -0.001  -0.001
    1  MOL   H3   12  -0.235  -0.313   0.128
    6.53400     8.97000     8.34200
