5-flurouracil
    12
  -1.0700000   0.3560000   1.7120000  -1.9310000  -0.1090000   2.6140000
  -2.4750000  -1.4770000   2.5050000  -1.0990000  -1.7120000   0.4430000
  -0.6590000  -0.4100000   0.6550000  -2.0040000  -2.1830000   1.4030000
  -3.2680000  -1.9180000   3.3300000  -0.7240000  -2.3970000  -0.5090000
  -2.3500000   0.6240000   3.6620000  -0.6540000   1.3540000   1.7650000
  -0.0010000  -0.0090000  -0.0060000  -2.3490000  -3.1310000   1.2820000
