; mobley_337666_GMX_OPLS.top created by acpype (v: 2023.10.27) on Wed May 20 23:59:20 2026

; Include forcefield parameters
#include "ffoplsaa.itp"

; Include mobley_337666_GMX.itp topology
#include "mobley_337666_GMX.itp"

; Ligand position restraints
#ifdef POSRES_LIG
#include "posre_mobley_337666.itp"
#endif

[ system ]
 mobley_337666

[ molecules ]
; Compound        nmols
 mobley_337666    1     
