mobley_4687447_GMX.gro created by acpype (v: 2023.10.27) on Wed May 20 23:55:06 2026
10921
    1MOL     C1    1   2.197   2.462   2.155
    1MOL     C2    2   2.322   2.484   2.238
    1MOL     C3    3   2.326   2.393   2.360
    1MOL     C4    4   2.583   2.368   2.622
    1MOL     C5    5   2.453   2.337   2.549
    1MOL     O1    6   2.692   2.339   2.536
    1MOL     O2    7   2.444   2.419   2.433
    1MOL     H1    8   2.107   2.484   2.213
    1MOL     H2    9   2.197   2.529   2.068
    1MOL     H3   10   2.191   2.359   2.119
    1MOL     H4   11   2.329   2.588   2.269
    1MOL     H5   12   2.411   2.465   2.176
    1MOL     H6   13   2.240   2.412   2.425
    1MOL     H7   14   2.325   2.288   2.330
    1MOL     H8   15   2.593   2.306   2.712
    1MOL     H9   16   2.587   2.474   2.649
    1MOL    H10   17   2.366   2.358   2.612
    1MOL    H11   18   2.451   2.232   2.517
    1MOL    H12   19   2.749   2.276   2.583
    2SOL     OW   20   0.230   0.628   0.113
    2SOL    HW1   21   0.137   0.626   0.150
    2SOL    HW2   22   0.231   0.589   0.021
    3SOL     OW   23   0.225   0.275   0.996
    3SOL    HW1   24   0.260   0.258   1.088
    3SOL    HW2   25   0.137   0.230   0.984
    4SOL     OW   26   0.019   0.368   0.647
    4SOL    HW1   27  -0.063   0.411   0.686
    4SOL    HW2   28  -0.009   0.295   0.584
    5SOL     OW   29   0.569   1.275   1.165
    5SOL    HW1   30   0.476   1.268   1.128
    5SOL    HW2   31   0.580   1.364   1.209
    6SOL     OW   32   1.555   1.511   0.703
    6SOL    HW1   33   1.498   1.495   0.784
    6SOL    HW2   34   1.496   1.521   0.623
    7SOL     OW   35   1.135   0.703   0.717
    7SOL    HW1   36   1.192   0.781   0.692
    7SOL    HW2   37   1.075   0.729   0.793
    8SOL     OW   38   1.755   0.607   0.231
    8SOL    HW1   39   1.743   0.594   0.132
    8SOL    HW2   40   1.725   0.526   0.280
    9SOL     OW   41   0.768   1.144   1.023
    9SOL    HW1   42   0.690   1.161   1.083
    9SOL    HW2   43   0.802   1.231   0.987
   10SOL     OW   44   0.850   0.798   1.823
   10SOL    HW1   45   0.846   0.874   1.888
   10SOL    HW2   46   0.872   0.834   1.732
   11SOL     OW   47   0.685   1.012   0.665
   11SOL    HW1   48   0.754   0.996   0.735
   11SOL    HW2   49   0.612   1.069   0.703
   12SOL     OW   50   0.686   1.161   1.803
   12SOL    HW1   51   0.746   1.240   1.817
   12SOL    HW2   52   0.600   1.192   1.762
   13SOL     OW   53   0.335   1.435   1.061
   13SOL    HW1   54   0.257   1.404   1.008
   13SOL    HW2   55   0.393   1.493   1.004
   14SOL     OW   56   1.460   1.505   1.339
   14SOL    HW1   57   1.484   1.599   1.365
   14SOL    HW2   58   1.444   1.451   1.421
   15SOL     OW   59   0.438   0.392   1.499
   15SOL    HW1   60   0.520   0.336   1.508
   15SOL    HW2   61   0.357   0.334   1.503
   16SOL     OW   62   1.603   0.447   0.737
   16SOL    HW1   63   1.529   0.493   0.687
   16SOL    HW2   64   1.654   0.515   0.790
   17SOL     OW   65   0.231   1.713   0.483
   17SOL    HW1   66   0.265   1.790   0.537
   17SOL    HW2   67   0.275   1.713   0.393
   18SOL     OW   68   1.127   1.341   1.690
   18SOL    HW1   69   1.174   1.341   1.778
   18SOL    HW2   70   1.079   1.254   1.679
   19SOL     OW   71   0.230   1.434   0.538
   19SOL    HW1   72   0.204   1.530   0.538
   19SOL    HW2   73   0.159   1.380   0.583
   20SOL     OW   74   0.240   1.091   0.886
   20SOL    HW1   75   0.254   1.007   0.938
   20SOL    HW2   76   0.185   1.155   0.941
   21SOL     OW   77   0.620   1.786   1.439
   21SOL    HW1   78   0.528   1.769   1.474
   21SOL    HW2   79   0.648   1.878   1.465
   22SOL     OW   80   0.606   0.964   0.123
   22SOL    HW1   81   0.613   1.048   0.069
   22SOL    HW2   82   0.652   0.977   0.211
   23SOL     OW   83   1.594   0.114   1.480
   23SOL    HW1   84   1.576   0.181   1.408
   23SOL    HW2   85   1.591   0.160   1.569
   24SOL     OW   86   0.122   0.643   0.563
   24SOL    HW1   87   0.077   0.555   0.580
   24SOL    HW2   88   0.121   0.697   0.647
   25SOL     OW   89   1.842   1.767   0.359
   25SOL    HW1   90   1.896   1.738   0.439
   25SOL    HW2   91   1.872   1.857   0.330
   26SOL     OW   92   0.027   1.596   0.117
   26SOL    HW1   93   0.008   1.500   0.138
   26SOL    HW2   94  -0.006   1.654   0.192
   27SOL     OW   95   1.689   0.922   0.612
   27SOL    HW1   96   1.784   0.893   0.620
   27SOL    HW2   97   1.681   0.987   0.537
   28SOL     OW   98   1.641   1.108   0.432
   28SOL    HW1   99   1.727   1.110   0.380
   28SOL    HW2  100   1.655   1.155   0.520
   29SOL     OW  101   0.113   0.737   1.597
   29SOL    HW1  102   0.201   0.724   1.642
   29SOL    HW2  103   0.100   0.834   1.575
   30SOL     OW  104   0.613   1.365   0.726
   30SOL    HW1  105   0.564   1.278   0.735
   30SOL    HW2  106   0.590   1.408   0.639
   31SOL     OW  107   1.293   1.228   1.423
   31SOL    HW1  108   1.330   1.155   1.365
   31SOL    HW2  109   1.345   1.233   1.508
   32SOL     OW  110   0.809   0.004   0.502
   32SOL    HW1  111   0.849   0.095   0.493
   32SOL    HW2  112   0.709   0.012   0.508
   33SOL     OW  113   0.197   0.976   1.264
   33SOL    HW1  114   0.286   0.931   1.250
   33SOL    HW2  115   0.124   0.911   1.245
   34SOL     OW  116   1.525   0.999   0.190
   34SOL    HW1  117   1.462   0.923   0.203
   34SOL    HW2  118   1.573   1.017   0.276
   35SOL     OW  119   1.187   1.792   1.616
   35SOL    HW1  120   1.211   1.852   1.540
   35SOL    HW2  121   1.194   1.697   1.586
   36SOL     OW  122   0.317   0.251   1.801
   36SOL    HW1  123   0.388   0.322   1.807
   36SOL    HW2  124   0.229   0.290   1.829
   37SOL     OW  125   1.466   1.417   0.953
   37SOL    HW1  126   1.407   1.423   1.033
   37SOL    HW2  127   1.451   1.329   0.907
   38SOL     OW  128   1.667   1.714   0.572
   38SOL    HW1  129   1.626   1.691   0.484
   38SOL    HW2  130   1.649   1.640   0.637
   39SOL     OW  131   0.598   0.729   0.270
   39SOL    HW1  132   0.622   0.798   0.202
   39SOL    HW2  133   0.520   0.762   0.324
   40SOL     OW  134   1.281   0.345   0.944
   40SOL    HW1  135   1.195   0.295   0.931
   40SOL    HW2  136   1.343   0.291   1.000
   41SOL     OW  137   1.576   1.662   0.307
   41SOL    HW1  138   1.665   1.708   0.310
   41SOL    HW2  139   1.555   1.638   0.212
   42SOL     OW  140   0.807   0.605   1.465
   42SOL    HW1  141   0.760   0.602   1.554
   42SOL    HW2  142   0.756   0.550   1.399
   43SOL     OW  143   1.394   0.469   1.674
   43SOL    HW1  144   1.374   0.512   1.762
   43SOL    HW2  145   1.472   0.407   1.683
   44SOL     OW  146   0.973   0.890   1.572
   44SOL    HW1  147   1.019   0.806   1.543
   44SOL    HW2  148   0.917   0.924   1.497
   45SOL     OW  149   0.991   0.410   1.242
   45SOL    HW1  150   0.914   0.444   1.296
   45SOL    HW2  151   0.957   0.359   1.163
   46SOL     OW  152   1.041   0.701   0.429
   46SOL    HW1  153   1.067   0.697   0.525
   46SOL    HW2  154   0.956   0.650   0.415
   47SOL     OW  155   0.076   0.811   0.789
   47SOL    HW1  156   0.175   0.799   0.798
   47SOL    HW2  157   0.052   0.906   0.810
   48SOL     OW  158   0.130   1.821   1.571
   48SOL    HW1  159   0.120   1.806   1.670
   48SOL    HW2  160   0.044   1.857   1.535
   49SOL     OW  161   0.865   0.348   0.195
   49SOL    HW1  162   0.924   0.411   0.146
   49SOL    HW2  163   0.884   0.254   0.166
   50SOL     OW  164   1.719   0.585   1.831
   50SOL    HW1  165   1.693   0.674   1.795
   50SOL    HW2  166   1.717   0.517   1.758
   51SOL     OW  167   1.362   1.144   0.545
   51SOL    HW1  168   1.445   1.115   0.497
   51SOL    HW2  169   1.313   1.211   0.489
   52SOL     OW  170   0.550   0.196   0.885
   52SOL    HW1  171   0.545   0.191   0.985
   52SOL    HW2  172   0.552   0.292   0.856
   53SOL     OW  173   1.008   1.456   0.477
   53SOL    HW1  174   0.962   1.528   0.425
   53SOL    HW2  175   1.004   1.476   0.575
   54SOL     OW  176   0.351   1.801   0.853
   54SOL    HW1  177   0.401   1.715   0.859
   54SOL    HW2  178   0.416   1.878   0.850
   55SOL     OW  179   1.795   1.066   0.873
   55SOL    HW1  180   1.733   1.051   0.797
   55SOL    HW2  181   1.743   1.077   0.958
   56SOL     OW  182   1.227   1.550   1.506
   56SOL    HW1  183   1.233   1.473   1.570
   56SOL    HW2  184   1.175   1.524   1.426
   57SOL     OW  185   0.321   0.943   0.242
   57SOL    HW1  186   0.403   0.982   0.200
   57SOL    HW2  187   0.294   0.861   0.193
   58SOL     OW  188   1.458   0.735   0.728
   58SOL    HW1  189   1.453   0.670   0.803
   58SOL    HW2  190   1.538   0.794   0.741
   59SOL     OW  191   0.461   1.266   1.727
   59SOL    HW1  192   0.411   1.267   1.641
   59SOL    HW2  193   0.398   1.248   1.803
   60SOL     OW  194   1.111   1.776   0.237
   60SOL    HW1  195   1.051   1.714   0.287
   60SOL    HW2  196   1.142   1.732   0.152
   61SOL     OW  197   0.202   0.285   1.498
   61SOL    HW1  198   0.122   0.345   1.485
   61SOL    HW2  199   0.192   0.236   1.584
   62SOL     OW  200   1.632   1.377   0.081
   62SOL    HW1  201   1.600   1.471   0.071
   62SOL    HW2  202   1.556   1.314   0.069
   63SOL     OW  203   0.464   1.743   0.323
   63SOL    HW1  204   0.497   1.782   0.409
   63SOL    HW2  205   0.540   1.736   0.258
   64SOL     OW  206   1.400   0.107   0.426
   64SOL    HW1  207   1.376   0.070   0.336
   64SOL    HW2  208   1.499   0.123   0.430
   65SOL     OW  209   0.249   1.785   1.241
   65SOL    HW1  210   0.306   1.720   1.291
   65SOL    HW2  211   0.233   1.752   1.148
   66SOL     OW  212   0.940   1.698   0.904
   66SOL    HW1  213   1.020   1.641   0.925
   66SOL    HW2  214   0.891   1.658   0.827
   67SOL     OW  215   0.382   0.700   0.480
   67SOL    HW1  216   0.427   0.610   0.477
   67SOL    HW2  217   0.288   0.689   0.513
   68SOL     OW  218   1.547   0.222   1.729
   68SOL    HW1  219   1.542   0.259   1.821
   68SOL    HW2  220   1.475   0.153   1.717
   69SOL     OW  221   0.614   0.122   0.117
   69SOL    HW1  222   0.712   0.100   0.124
   69SOL    HW2  223   0.583   0.105   0.024
   70SOL     OW  224   0.781   0.264   1.749
   70SOL    HW1  225   0.848   0.203   1.792
   70SOL    HW2  226   0.708   0.283   1.814
   71SOL     OW  227   0.888   1.514   1.195
   71SOL    HW1  228   0.865   1.489   1.101
   71SOL    HW2  229   0.949   1.445   1.234
   72SOL     OW  230   1.351   0.590   1.433
   72SOL    HW1  231   1.379   0.547   1.518
   72SOL    HW2  232   1.376   0.686   1.434
   73SOL     OW  233   0.803   1.402   0.924
   73SOL    HW1  234   0.893   1.416   0.882
   73SOL    HW2  235   0.732   1.404   0.853
   74SOL     OW  236   0.922   0.503   0.899
   74SOL    HW1  237   0.897   0.494   0.803
   74SOL    HW2  238   0.970   0.421   0.930
   75SOL     OW  239   0.539   0.064   0.512
   75SOL    HW1  240   0.458   0.065   0.570
   75SOL    HW2  241   0.542   0.147   0.457
   76SOL     OW  242   1.434   1.188   0.041
   76SOL    HW1  243   1.466   1.112   0.098
   76SOL    HW2  244   1.342   1.215   0.071
   77SOL     OW  245   0.297   0.035   0.171
   77SOL    HW1  246   0.346   0.119   0.150
   77SOL    HW2  247   0.359  -0.030   0.216
   78SOL     OW  248   0.935   0.236   0.480
   78SOL    HW1  249   0.887   0.277   0.402
   78SOL    HW2  250   1.034   0.234   0.461
   79SOL     OW  251   1.076   0.683   1.464
   79SOL    HW1  252   0.996   0.622   1.467
   79SOL    HW2  253   1.157   0.630   1.440
   80SOL     OW  254   1.227   1.570   0.793
   80SOL    HW1  255   1.248   1.644   0.728
   80SOL    HW2  256   1.295   1.570   0.866
   81SOL     OW  257   0.459   1.152   0.741
   81SOL    HW1  258   0.388   1.125   0.806
   81SOL    HW2  259   0.433   1.124   0.648
   82SOL     OW  260   1.271   1.797   0.591
   82SOL    HW1  261   1.315   1.861   0.527
   82SOL    HW2  262   1.221   1.849   0.661
   83SOL     OW  263   1.032   0.549   0.016
   83SOL    HW1  264   0.991   0.631  -0.023
   83SOL    HW2  265   1.096   0.575   0.089
   84SOL     OW  266   0.078   0.556   1.386
   84SOL    HW1  267   0.170   0.555   1.345
   84SOL    HW2  268   0.072   0.630   1.453
   85SOL     OW  269   0.561   0.222   1.147
   85SOL    HW1  270   0.599   0.138   1.184
   85SOL    HW2  271   0.473   0.241   1.191
   86SOL     OW  272   0.866   0.454   0.642
   86SOL    HW1  273   0.834   0.526   0.580
   86SOL    HW2  274   0.890   0.373   0.589
   87SOL     OW  275   1.017   0.039   0.753
   87SOL    HW1  276   0.945   0.044   0.684
   87SOL    HW2  277   0.993  -0.030   0.822
   88SOL     OW  278   1.429   1.173   0.867
   88SOL    HW1  279   1.374   1.089   0.860
   88SOL    HW2  280   1.455   1.202   0.775
   89SOL     OW  281   1.466   0.590   0.992
   89SOL    HW1  282   1.436   0.495   0.999
   89SOL    HW2  283   1.539   0.606   1.058
   90SOL     OW  284   1.857   0.833   0.377
   90SOL    HW1  285   1.899   0.769   0.441
   90SOL    HW2  286   1.819   0.782   0.299
   91SOL     OW  287   0.488   1.385   0.174
   91SOL    HW1  288   0.401   1.370   0.221
   91SOL    HW2  289   0.471   1.411   0.079
   92SOL     OW  290   1.664   1.280   0.657
   92SOL    HW1  291   1.763   1.288   0.671
   92SOL    HW2  292   1.619   1.364   0.688
   93SOL     OW  293   1.390   0.575   0.078
   93SOL    HW1  294   1.336   0.554   0.159
   93SOL    HW2  295   1.481   0.534   0.087
   94SOL     OW  296   0.527   0.256   0.328
   94SOL    HW1  297   0.554   0.197   0.253
   94SOL    HW2  298   0.527   0.351   0.297
   95SOL     OW  299   1.754   1.223   1.588
   95SOL    HW1  300   1.845   1.184   1.575
   95SOL    HW2  301   1.762   1.319   1.612
   96SOL     OW  302   1.064   1.347   1.340
   96SOL    HW1  303   0.984   1.324   1.395
   96SOL    HW2  304   1.147   1.321   1.389
   97SOL     OW  305   1.592   1.629   1.625
   97SOL    HW1  306   1.619   1.663   1.535
   97SOL    HW2  307   1.671   1.591   1.671
   98SOL     OW  308   1.111   1.195   1.100
   98SOL    HW1  309   1.071   1.239   1.181
   98SOL    HW2  310   1.070   1.232   1.017
   99SOL     OW  311   1.638   1.099   1.079
   99SOL    HW1  312   1.643   1.180   1.138
   99SOL    HW2  313   1.552   1.101   1.028
  100SOL     OW  314   0.915   0.089   1.402
  100SOL    HW1  315   0.940   0.069   1.307
  100SOL    HW2  316   0.987   0.145   1.444
  101SOL     OW  317   0.980   1.116   1.719
  101SOL    HW1  318   0.881   1.122   1.729
  101SOL    HW2  319   1.003   1.036   1.663
  102SOL     OW  320   0.705   1.050   0.368
  102SOL    HW1  321   0.691   1.057   0.467
  102SOL    HW2  322   0.789   0.999   0.350
  103SOL     OW  323   0.410   0.813   1.251
  103SOL    HW1  324   0.496   0.825   1.301
  103SOL    HW2  325   0.368   0.726   1.278
  104SOL     OW  326   1.274   0.386   1.262
  104SOL    HW1  327   1.295   0.460   1.326
  104SOL    HW2  328   1.185   0.403   1.219
  105SOL     OW  329   0.064   1.564   1.331
  105SOL    HW1  330   0.018   1.646   1.297
  105SOL    HW2  331   0.162   1.583   1.340
  106SOL     OW  332   0.367   1.100   0.501
  106SOL    HW1  333   0.360   1.183   0.445
  106SOL    HW2  334   0.371   1.020   0.441
  107SOL     OW  335   0.566   0.537   0.865
  107SOL    HW1  336   0.578   0.603   0.791
  107SOL    HW2  337   0.612   0.571   0.948
  108SOL     OW  338   1.252   1.348   0.388
  108SOL    HW1  339   1.302   1.425   0.428
  108SOL    HW2  340   1.157   1.350   0.420
  109SOL     OW  341   1.272   1.445   1.142
  109SOL    HW1  342   1.319   1.458   1.229
  109SOL    HW2  343   1.206   1.371   1.151
  110SOL     OW  344   1.582   0.639   0.472
  110SOL    HW1  345   1.551   0.700   0.545
  110SOL    HW2  346   1.632   0.691   0.403
  111SOL     OW  347   0.354   1.510   1.329
  111SOL    HW1  348   0.333   1.466   1.242
  111SOL    HW2  349   0.451   1.536   1.332
  112SOL     OW  350   0.402   0.751   1.598
  112SOL    HW1  351   0.470   0.806   1.551
  112SOL    HW2  352   0.442   0.663   1.625
  113SOL     OW  353   1.587   0.779   1.670
  113SOL    HW1  354   1.495   0.817   1.665
  113SOL    HW2  355   1.647   0.826   1.605
  114SOL     OW  356   1.013   0.105   1.770
  114SOL    HW1  357   1.019   0.190   1.718
  114SOL    HW2  358   1.045   0.029   1.713
  115SOL     OW  359   0.504   0.050   1.740
  115SOL    HW1  360   0.462  -0.007   1.670
  115SOL    HW2  361   0.438   0.119   1.772
  116SOL     OW  362   0.573   0.870   1.029
  116SOL    HW1  363   0.617   0.959   1.020
  116SOL    HW2  364   0.510   0.870   1.106
  117SOL     OW  365   1.360   0.862   1.045
  117SOL    HW1  366   1.285   0.862   0.979
  117SOL    HW2  367   1.397   0.770   1.054
  118SOL     OW  368   1.209   0.525   0.275
  118SOL    HW1  369   1.222   0.441   0.329
  118SOL    HW2  370   1.180   0.599   0.335
  119SOL     OW  371   0.307   0.213   1.231
  119SOL    HW1  372   0.284   0.250   1.321
  119SOL    HW2  373   0.277   0.118   1.225
  120SOL     OW  374   0.037   1.310   1.282
  120SOL    HW1  375   0.090   1.261   1.350
  120SOL    HW2  376   0.059   1.408   1.287
  121SOL     OW  377   0.732   0.634   1.064
  121SOL    HW1  378   0.791   0.608   0.988
  121SOL    HW2  379   0.704   0.730   1.053
  122SOL     OW  380   1.728   0.935   1.854
  122SOL    HW1  381   1.682   0.928   1.765
  122SOL    HW2  382   1.666   0.979   1.920
  123SOL     OW  383   0.307   0.063   0.618
  123SOL    HW1  384   0.296   0.157   0.651
  123SOL    HW2  385   0.302   0.000   0.695
  124SOL     OW  386   1.622   0.367   0.374
  124SOL    HW1  387   1.624   0.291   0.438
  124SOL    HW2  388   1.574   0.444   0.414
  125SOL     OW  389   1.023   0.766   0.966
  125SOL    HW1  390   1.038   0.787   1.062
  125SOL    HW2  391   0.993   0.671   0.957
  126SOL     OW  392   0.980   1.573   1.700
  126SOL    HW1  393   0.960   1.617   1.612
  126SOL    HW2  394   1.019   1.482   1.684
  127SOL     OW  395   1.859   1.518   1.605
  127SOL    HW1  396   1.873   1.545   1.510
  127SOL    HW2  397   1.942   1.540   1.658
  128SOL     OW  398   0.350   0.898   1.804
  128SOL    HW1  399   0.426   0.942   1.852
  128SOL    HW2  400   0.385   0.851   1.722
  129SOL     OW  401   1.540   0.274   0.125
  129SOL    HW1  402   1.479   0.199   0.148
  129SOL    HW2  403   1.562   0.326   0.208
  130SOL     OW  404   1.303   0.838   0.042
  130SOL    HW1  405   1.337   0.745   0.057
  130SOL    HW2  406   1.321   0.865  -0.053
  131SOL     OW  407   1.068   1.333   0.849
  131SOL    HW1  408   1.075   1.249   0.794
  131SOL    HW2  409   1.130   1.402   0.813
  132SOL     OW  410   0.319   0.810   0.949
  132SOL    HW1  411   0.412   0.846   0.954
  132SOL    HW2  412   0.313   0.725   1.001
  133SOL     OW  413   0.339   0.509   1.006
  133SOL    HW1  414   0.287   0.426   0.989
  133SOL    HW2  415   0.416   0.514   0.942
  134SOL     OW  416   1.138   0.380   1.678
  134SOL    HW1  417   1.093   0.443   1.742
  134SOL    HW2  418   1.231   0.411   1.661
  135SOL     OW  419   1.160   0.207   1.477
  135SOL    HW1  420   1.160   0.271   1.554
  135SOL    HW2  421   1.188   0.255   1.394
  136SOL     OW  422   0.008   1.326   0.200
  136SOL    HW1  423  -0.085   1.347   0.169
  136SOL    HW2  424   0.018   1.227   0.213
  137SOL     OW  425   0.088   1.801   0.927
  137SOL    HW1  426   0.046   1.715   0.900
  137SOL    HW2  427   0.182   1.804   0.893
  138SOL     OW  428   0.504   1.568   0.910
  138SOL    HW1  429   0.570   1.642   0.919
  138SOL    HW2  430   0.548   1.489   0.868
  139SOL     OW  431   1.002   0.796   1.238
  139SOL    HW1  432   1.043   0.764   1.324
  139SOL    HW2  433   0.906   0.769   1.235
  140SOL     OW  434   0.040   0.544   1.114
  140SOL    HW1  435   0.125   0.511   1.073
  140SOL    HW2  436   0.053   0.559   1.212
  141SOL     OW  437   0.189   0.520   1.722
  141SOL    HW1  438   0.248   0.480   1.652
  141SOL    HW2  439   0.131   0.591   1.681
  142SOL     OW  440   1.369   0.950   1.660
  142SOL    HW1  441   1.408   1.039   1.680
  142SOL    HW2  442   1.379   0.930   1.563
  143SOL     OW  443   0.815   0.572   0.325
  143SOL    HW1  444   0.822   0.483   0.279
  143SOL    HW2  445   0.721   0.606   0.317
  144SOL     OW  446   1.657   0.604   1.206
  144SOL    HW1  447   1.619   0.535   1.268
  144SOL    HW2  448   1.739   0.568   1.162
  145SOL     OW  449   0.252   1.564   1.744
  145SOL    HW1  450   0.222   1.621   1.820
  145SOL    HW2  451   0.245   1.467   1.770
  146SOL     OW  452   0.671   0.464   1.269
  146SOL    HW1  453   0.637   0.375   1.239
  146SOL    HW2  454   0.697   0.518   1.189
  147SOL     OW  455   0.930   1.678   1.465
  147SOL    HW1  456   0.906   1.660   1.370
  147SOL    HW2  457   0.960   1.772   1.475
  148SOL     OW  458   0.473   0.500   0.191
  148SOL    HW1  459   0.534   0.580   0.195
  148SOL    HW2  460   0.378   0.531   0.198
  149SOL     OW  461   0.159   1.137   1.466
  149SOL    HW1  462   0.181   1.076   1.542
  149SOL    HW2  463   0.169   1.088   1.380
  150SOL     OW  464   1.347   1.059   1.234
  150SOL    HW1  465   1.371   0.996   1.160
  150SOL    HW2  466   1.257   1.099   1.216
  151SOL     OW  467   1.302   0.855   0.309
  151SOL    HW1  468   1.216   0.824   0.351
  151SOL    HW2  469   1.298   0.841   0.210
  152SOL     OW  470   1.759   1.747   1.154
  152SOL    HW1  471   1.820   1.777   1.081
  152SOL    HW2  472   1.721   1.658   1.132
  153SOL     OW  473   1.252   1.731   1.128
  153SOL    HW1  474   1.336   1.736   1.074
  153SOL    HW2  475   1.229   1.635   1.146
  154SOL     OW  476   0.083   1.258   1.022
  154SOL    HW1  477   0.078   1.257   1.122
  154SOL    HW2  478   0.000   1.217   0.984
  155SOL     OW  479   0.688   1.662   1.716
  155SOL    HW1  480   0.632   1.743   1.725
  155SOL    HW2  481   0.740   1.666   1.630
  156SOL     OW  482   0.903   0.086   0.133
  156SOL    HW1  483   0.954   0.087   0.047
  156SOL    HW2  484   0.959   0.044   0.204
  157SOL     OW  485   1.726   0.135   0.523
  157SOL    HW1  486   1.799   0.118   0.456
  157SOL    HW2  487   1.695   0.048   0.561
  158SOL     OW  488   1.388   1.573   0.477
  158SOL    HW1  489   1.455   1.585   0.403
  158SOL    HW2  490   1.348   1.662   0.500
  159SOL     OW  491   0.130   1.794   1.851
  159SOL    HW1  492   0.089   1.720   1.904
  159SOL    HW2  493   0.194   1.845   1.909
  160SOL     OW  494   1.280   0.927   0.672
  160SOL    HW1  495   1.340   0.846   0.674
  160SOL    HW2  496   1.320   0.996   0.612
  161SOL     OW  497   0.830   1.273   1.422
  161SOL    HW1  498   0.825   1.306   1.517
  161SOL    HW2  499   0.744   1.292   1.376
  162SOL     OW  500   0.672   1.616   0.154
  162SOL    HW1  501   0.681   1.626   0.055
  162SOL    HW2  502   0.632   1.527   0.175
  163SOL     OW  503   1.650   1.720   1.394
  163SOL    HW1  504   1.703   1.730   1.310
  163SOL    HW2  505   1.623   1.810   1.428
  164SOL     OW  506   1.841   0.175   0.963
  164SOL    HW1  507   1.880   0.090   0.927
  164SOL    HW2  508   1.743   0.177   0.944
  165SOL     OW  509   0.263   0.326   0.720
  165SOL    HW1  510   0.184   0.377   0.686
  165SOL    HW2  511   0.254   0.311   0.818
  166SOL     OW  512   1.194   1.612   0.031
  166SOL    HW1  513   1.200   1.519   0.068
  166SOL    HW2  514   1.135   1.612  -0.049
  167SOL     OW  515   0.822   1.002   1.372
  167SOL    HW1  516   0.862   1.001   1.280
  167SOL    HW2  517   0.832   1.094   1.412
  168SOL     OW  518   0.916   0.910   0.291
  168SOL    HW1  519   0.979   0.948   0.223
  168SOL    HW2  520   0.956   0.827   0.330
  169SOL     OW  521   1.504   1.607   0.044
  169SOL    HW1  522   1.412   1.644   0.051
  169SOL    HW2  523   1.542   1.627  -0.046
  170SOL     OW  524   0.372   1.288   1.490
  170SOL    HW1  525   0.359   1.381   1.456
  170SOL    HW2  526   0.288   1.236   1.477
  171SOL     OW  527   1.614   1.292   1.289
  171SOL    HW1  528   1.674   1.295   1.369
  171SOL    HW2  529   1.539   1.356   1.302
  172SOL     OW  530   1.039   1.098   0.696
  172SOL    HW1  531   0.969   1.051   0.750
  172SOL    HW2  532   1.098   1.030   0.653
  173SOL     OW  533   1.014   0.236   0.971
  173SOL    HW1  534   1.006   0.200   0.878
  173SOL    HW2  535   1.012   0.160   1.036
  174SOL     OW  536   0.590   1.487   0.491
  174SOL    HW1  537   0.632   1.429   0.421
  174SOL    HW2  538   0.546   1.566   0.447
  175SOL     OW  539   1.709   0.385   1.381
  175SOL    HW1  540   1.782   0.454   1.385
  175SOL    HW2  541   1.737   0.310   1.322
  176SOL     OW  542   0.255   1.348   0.290
  176SOL    HW1  543   0.159   1.349   0.263
  176SOL    HW2  544   0.267   1.401   0.374
  177SOL     OW  545   0.105   1.013   1.726
  177SOL    HW1  546   0.028   0.980   1.780
  177SOL    HW2  547   0.190   0.983   1.768
  178SOL     OW  548   0.672   0.203   1.489
  178SOL    HW1  549   0.762   0.187   1.449
  178SOL    HW2  550   0.680   0.208   1.588
  179SOL     OW  551   0.075   0.345   0.033
  179SOL    HW1  552  -0.017   0.317   0.004
  179SOL    HW2  553   0.106   0.422  -0.023
  180SOL     OW  554   1.440   0.856   1.398
  180SOL    HW1  555   1.383   0.908   1.335
  180SOL    HW2  556   1.536   0.868   1.374
  181SOL     OW  557   0.072   0.166   0.318
  181SOL    HW1  558   0.055   0.249   0.264
  181SOL    HW2  559   0.162   0.129   0.296
  182SOL     OW  560   1.183   1.335   0.119
  182SOL    HW1  561   1.084   1.324   0.121
  182SOL    HW2  562   1.217   1.350   0.212
  183SOL     OW  563   0.613   0.842   1.431
  183SOL    HW1  564   0.669   0.923   1.414
  183SOL    HW2  565   0.672   0.762   1.434
  184SOL     OW  566   1.493   1.767   0.959
  184SOL    HW1  567   1.526   1.831   0.890
  184SOL    HW2  568   1.559   1.761   1.034
  185SOL     OW  569   0.716   0.565   1.708
  185SOL    HW1  570   0.735   0.630   1.782
  185SOL    HW2  571   0.776   0.485   1.717
  186SOL     OW  572   1.450   1.220   1.633
  186SOL    HW1  573   1.441   1.210   1.732
  186SOL    HW2  574   1.546   1.213   1.607
  187SOL     OW  575   0.390   1.741   1.560
  187SOL    HW1  576   0.299   1.782   1.558
  187SOL    HW2  577   0.383   1.647   1.592
  188SOL     OW  578   1.674   0.883   1.254
  188SOL    HW1  579   1.647   0.794   1.217
  188SOL    HW2  580   1.675   0.951   1.181
  189SOL     OW  581   1.225   0.325   0.449
  189SOL    HW1  582   1.290   0.251   0.438
  189SOL    HW2  583   1.245   0.375   0.533
  190SOL     OW  584   0.594   0.745   0.652
  190SOL    HW1  585   0.644   0.830   0.633
  190SOL    HW2  586   0.506   0.747   0.604
  191SOL     OW  587   1.777   0.342   1.642
  191SOL    HW1  588   1.760   0.373   1.548
  191SOL    HW2  589   1.693   0.305   1.680
  192SOL     OW  590   1.730   0.934   1.517
  192SOL    HW1  591   1.768   1.025   1.532
  192SOL    HW2  592   1.722   0.917   1.418
  193SOL     OW  593   0.859   1.374   0.016
  193SOL    HW1  594   0.813   1.389   0.104
  193SOL    HW2  595   0.903   1.459  -0.014
  194SOL     OW  596   0.661   1.790   0.953
  194SOL    HW1  597   0.615   1.878   0.940
  194SOL    HW2  598   0.760   1.802   0.946
  195SOL     OW  599   0.859   0.956   0.861
  195SOL    HW1  600   0.913   0.887   0.909
  195SOL    HW2  601   0.827   1.025   0.927
  196SOL     OW  602   1.083   0.984   0.087
  196SOL    HW1  603   1.060   1.037   0.005
  196SOL    HW2  604   1.164   0.928   0.068
  197SOL     OW  605   1.861   1.569   0.851
  197SOL    HW1  606   1.790   1.557   0.781
  197SOL    HW2  607   1.862   1.490   0.911
  198SOL     OW  608   0.221   1.314   1.844
  198SOL    HW1  609   0.156   1.241   1.823
  198SOL    HW2  610   0.225   1.328   1.942
  199SOL     OW  611   0.079   1.240   0.653
  199SOL    HW1  612   0.078   1.193   0.741
  199SOL    HW2  613   0.161   1.212   0.602
  200SOL     OW  614   0.672   1.391   1.624
  200SOL    HW1  615   0.594   1.341   1.662
  200SOL    HW2  616   0.669   1.486   1.655
  201SOL     OW  617   1.824   0.192   1.227
  201SOL    HW1  618   1.820   0.102   1.271
  201SOL    HW2  619   1.827   0.181   1.128
  202SOL     OW  620   0.428   0.424   0.520
  202SOL    HW1  621   0.458   0.352   0.458
  202SOL    HW2  622   0.389   0.384   0.603
  203SOL     OW  623   1.705   1.487   1.104
  203SOL    HW1  624   1.612   1.462   1.077
  203SOL    HW2  625   1.731   1.437   1.186
  204SOL     OW  626   0.317   0.547   1.280
  204SOL    HW1  627   0.355   0.488   1.352
  204SOL    HW2  628   0.357   0.521   1.192
  205SOL     OW  629   0.812   1.586   0.687
  205SOL    HW1  630   0.844   1.596   0.593
  205SOL    HW2  631   0.733   1.524   0.689
  206SOL     OW  632   1.424   0.214   1.112
  206SOL    HW1  633   1.476   0.149   1.167
  206SOL    HW2  634   1.375   0.277   1.173
  207SOL     OW  635   1.001   0.034   1.154
  207SOL    HW1  636   0.938  -0.038   1.123
  207SOL    HW2  637   1.094  -0.002   1.154
  208SOL     OW  638   0.770   1.330   0.301
  208SOL    HW1  639   0.724   1.243   0.318
  208SOL    HW2  640   0.861   1.327   0.342
  209SOL     OW  641   0.618   1.567   1.284
  209SOL    HW1  642   0.613   1.649   1.341
  209SOL    HW2  643   0.707   1.564   1.239
  210SOL     OW  644   1.352   0.052   0.168
  210SOL    HW1  645   1.387   0.011   0.084
  210SOL    HW2  646   1.262   0.014   0.188
  211SOL     OW  647   1.300   0.453   0.691
  211SOL    HW1  648   1.241   0.533   0.695
  211SOL    HW2  649   1.315   0.418   0.784
  212SOL     OW  650   1.593   0.221   0.882
  212SOL    HW1  651   1.509   0.220   0.936
  212SOL    HW2  652   1.595   0.304   0.826
  213SOL     OW  653   0.039   1.077   0.300
  213SOL    HW1  654   0.138   1.066   0.291
  213SOL    HW2  655  -0.001   0.991   0.332
  214SOL     OW  656   0.875   1.646   0.337
  214SOL    HW1  657   0.798   1.611   0.283
  214SOL    HW2  658   0.843   1.717   0.399
  215SOL     OW  659   0.230   0.628   1.975
  215SOL    HW1  660   0.137   0.626   2.012
  215SOL    HW2  661   0.231   0.589   1.883
  216SOL     OW  662   0.225   0.275   2.858
  216SOL    HW1  663   0.260   0.258   2.950
  216SOL    HW2  664   0.137   0.230   2.846
  217SOL     OW  665   0.019   0.368   2.509
  217SOL    HW1  666  -0.063   0.411   2.548
  217SOL    HW2  667  -0.009   0.295   2.446
  218SOL     OW  668   0.569   1.275   3.027
  218SOL    HW1  669   0.476   1.268   2.990
  218SOL    HW2  670   0.580   1.364   3.071
  219SOL     OW  671   1.555   1.511   2.565
  219SOL    HW1  672   1.498   1.495   2.646
  219SOL    HW2  673   1.496   1.521   2.485
  220SOL     OW  674   1.135   0.703   2.579
  220SOL    HW1  675   1.192   0.781   2.554
  220SOL    HW2  676   1.075   0.729   2.655
  221SOL     OW  677   1.755   0.607   2.093
  221SOL    HW1  678   1.743   0.594   1.994
  221SOL    HW2  679   1.725   0.526   2.142
  222SOL     OW  680   0.768   1.144   2.885
  222SOL    HW1  681   0.690   1.161   2.945
  222SOL    HW2  682   0.802   1.231   2.849
  223SOL     OW  683   0.850   0.798   3.685
  223SOL    HW1  684   0.846   0.874   3.750
  223SOL    HW2  685   0.872   0.834   3.594
  224SOL     OW  686   0.685   1.012   2.527
  224SOL    HW1  687   0.754   0.996   2.597
  224SOL    HW2  688   0.612   1.069   2.565
  225SOL     OW  689   0.686   1.161   3.665
  225SOL    HW1  690   0.746   1.240   3.679
  225SOL    HW2  691   0.600   1.192   3.624
  226SOL     OW  692   0.335   1.435   2.923
  226SOL    HW1  693   0.257   1.404   2.870
  226SOL    HW2  694   0.393   1.493   2.866
  227SOL     OW  695   1.460   1.505   3.201
  227SOL    HW1  696   1.484   1.599   3.227
  227SOL    HW2  697   1.444   1.451   3.283
  228SOL     OW  698   0.438   0.392   3.361
  228SOL    HW1  699   0.520   0.336   3.370
  228SOL    HW2  700   0.357   0.334   3.365
  229SOL     OW  701   1.603   0.447   2.599
  229SOL    HW1  702   1.529   0.493   2.549
  229SOL    HW2  703   1.654   0.515   2.652
  230SOL     OW  704   0.231   1.713   2.345
  230SOL    HW1  705   0.265   1.790   2.399
  230SOL    HW2  706   0.275   1.713   2.255
  231SOL     OW  707   1.127   1.341   3.552
  231SOL    HW1  708   1.174   1.341   3.640
  231SOL    HW2  709   1.079   1.254   3.541
  232SOL     OW  710   0.230   1.434   2.400
  232SOL    HW1  711   0.204   1.530   2.400
  232SOL    HW2  712   0.159   1.380   2.445
  233SOL     OW  713   0.240   1.091   2.748
  233SOL    HW1  714   0.254   1.007   2.800
  233SOL    HW2  715   0.185   1.155   2.803
  234SOL     OW  716   0.620   1.786   3.301
  234SOL    HW1  717   0.528   1.769   3.336
  234SOL    HW2  718   0.648   1.878   3.327
  235SOL     OW  719   0.606   0.964   1.985
  235SOL    HW1  720   0.613   1.048   1.931
  235SOL    HW2  721   0.652   0.977   2.073
  236SOL     OW  722   1.594   0.114   3.342
  236SOL    HW1  723   1.576   0.181   3.270
  236SOL    HW2  724   1.591   0.160   3.431
  237SOL     OW  725   0.122   0.643   2.425
  237SOL    HW1  726   0.077   0.555   2.442
  237SOL    HW2  727   0.121   0.697   2.509
  238SOL     OW  728   1.842   1.767   2.221
  238SOL    HW1  729   1.896   1.738   2.301
  238SOL    HW2  730   1.872   1.857   2.192
  239SOL     OW  731   0.027   1.596   1.979
  239SOL    HW1  732   0.008   1.500   2.000
  239SOL    HW2  733  -0.006   1.654   2.054
  240SOL     OW  734   1.689   0.922   2.474
  240SOL    HW1  735   1.784   0.893   2.482
  240SOL    HW2  736   1.681   0.987   2.399
  241SOL     OW  737   1.641   1.108   2.294
  241SOL    HW1  738   1.727   1.110   2.242
  241SOL    HW2  739   1.655   1.155   2.382
  242SOL     OW  740   0.113   0.737   3.459
  242SOL    HW1  741   0.201   0.724   3.504
  242SOL    HW2  742   0.100   0.834   3.437
  243SOL     OW  743   0.613   1.365   2.588
  243SOL    HW1  744   0.564   1.278   2.597
  243SOL    HW2  745   0.590   1.408   2.501
  244SOL     OW  746   1.293   1.228   3.285
  244SOL    HW1  747   1.330   1.155   3.227
  244SOL    HW2  748   1.345   1.233   3.370
  245SOL     OW  749   0.809   0.004   2.364
  245SOL    HW1  750   0.849   0.095   2.355
  245SOL    HW2  751   0.709   0.012   2.370
  246SOL     OW  752   0.197   0.976   3.126
  246SOL    HW1  753   0.286   0.931   3.112
  246SOL    HW2  754   0.124   0.911   3.107
  247SOL     OW  755   1.525   0.999   2.052
  247SOL    HW1  756   1.462   0.923   2.065
  247SOL    HW2  757   1.573   1.017   2.138
  248SOL     OW  758   1.187   1.792   3.478
  248SOL    HW1  759   1.211   1.852   3.402
  248SOL    HW2  760   1.194   1.697   3.448
  249SOL     OW  761   0.317   0.251   3.663
  249SOL    HW1  762   0.388   0.322   3.669
  249SOL    HW2  763   0.229   0.290   3.691
  250SOL     OW  764   1.466   1.417   2.815
  250SOL    HW1  765   1.407   1.423   2.895
  250SOL    HW2  766   1.451   1.329   2.769
  251SOL     OW  767   1.667   1.714   2.434
  251SOL    HW1  768   1.626   1.691   2.346
  251SOL    HW2  769   1.649   1.640   2.499
  252SOL     OW  770   0.598   0.729   2.132
  252SOL    HW1  771   0.622   0.798   2.064
  252SOL    HW2  772   0.520   0.762   2.186
  253SOL     OW  773   1.281   0.345   2.806
  253SOL    HW1  774   1.195   0.295   2.793
  253SOL    HW2  775   1.343   0.291   2.862
  254SOL     OW  776   1.576   1.662   2.169
  254SOL    HW1  777   1.665   1.708   2.172
  254SOL    HW2  778   1.555   1.638   2.074
  255SOL     OW  779   0.807   0.605   3.327
  255SOL    HW1  780   0.760   0.602   3.416
  255SOL    HW2  781   0.756   0.550   3.261
  256SOL     OW  782   1.394   0.469   3.536
  256SOL    HW1  783   1.374   0.512   3.624
  256SOL    HW2  784   1.472   0.407   3.545
  257SOL     OW  785   0.973   0.890   3.434
  257SOL    HW1  786   1.019   0.806   3.405
  257SOL    HW2  787   0.917   0.924   3.359
  258SOL     OW  788   0.991   0.410   3.104
  258SOL    HW1  789   0.914   0.444   3.158
  258SOL    HW2  790   0.957   0.359   3.025
  259SOL     OW  791   1.041   0.701   2.291
  259SOL    HW1  792   1.067   0.697   2.387
  259SOL    HW2  793   0.956   0.650   2.277
  260SOL     OW  794   0.076   0.811   2.651
  260SOL    HW1  795   0.175   0.799   2.660
  260SOL    HW2  796   0.052   0.906   2.672
  261SOL     OW  797   0.130   1.821   3.433
  261SOL    HW1  798   0.120   1.806   3.532
  261SOL    HW2  799   0.044   1.857   3.397
  262SOL     OW  800   0.865   0.348   2.057
  262SOL    HW1  801   0.924   0.411   2.008
  262SOL    HW2  802   0.884   0.254   2.028
  263SOL     OW  803   1.719   0.585   3.693
  263SOL    HW1  804   1.693   0.674   3.657
  263SOL    HW2  805   1.717   0.517   3.620
  264SOL     OW  806   1.362   1.144   2.407
  264SOL    HW1  807   1.445   1.115   2.359
  264SOL    HW2  808   1.313   1.211   2.351
  265SOL     OW  809   0.550   0.196   2.747
  265SOL    HW1  810   0.545   0.191   2.847
  265SOL    HW2  811   0.552   0.292   2.718
  266SOL     OW  812   1.008   1.456   2.339
  266SOL    HW1  813   0.962   1.528   2.287
  266SOL    HW2  814   1.004   1.476   2.437
  267SOL     OW  815   0.351   1.801   2.715
  267SOL    HW1  816   0.401   1.715   2.721
  267SOL    HW2  817   0.416   1.878   2.712
  268SOL     OW  818   1.795   1.066   2.735
  268SOL    HW1  819   1.733   1.051   2.659
  268SOL    HW2  820   1.743   1.077   2.820
  269SOL     OW  821   1.227   1.550   3.368
  269SOL    HW1  822   1.233   1.473   3.432
  269SOL    HW2  823   1.175   1.524   3.288
  270SOL     OW  824   0.321   0.943   2.104
  270SOL    HW1  825   0.403   0.982   2.062
  270SOL    HW2  826   0.294   0.861   2.055
  271SOL     OW  827   1.458   0.735   2.590
  271SOL    HW1  828   1.453   0.670   2.665
  271SOL    HW2  829   1.538   0.794   2.603
  272SOL     OW  830   0.461   1.266   3.589
  272SOL    HW1  831   0.411   1.267   3.503
  272SOL    HW2  832   0.398   1.248   3.665
  273SOL     OW  833   1.111   1.776   2.099
  273SOL    HW1  834   1.051   1.714   2.149
  273SOL    HW2  835   1.142   1.732   2.014
  274SOL     OW  836   0.202   0.285   3.360
  274SOL    HW1  837   0.122   0.345   3.347
  274SOL    HW2  838   0.192   0.236   3.446
  275SOL     OW  839   1.632   1.377   1.943
  275SOL    HW1  840   1.600   1.471   1.933
  275SOL    HW2  841   1.556   1.314   1.931
  276SOL     OW  842   0.464   1.743   2.185
  276SOL    HW1  843   0.497   1.782   2.271
  276SOL    HW2  844   0.540   1.736   2.120
  277SOL     OW  845   1.400   0.107   2.288
  277SOL    HW1  846   1.376   0.070   2.198
  277SOL    HW2  847   1.499   0.123   2.292
  278SOL     OW  848   0.249   1.785   3.103
  278SOL    HW1  849   0.306   1.720   3.153
  278SOL    HW2  850   0.233   1.752   3.010
  279SOL     OW  851   0.940   1.698   2.766
  279SOL    HW1  852   1.020   1.641   2.787
  279SOL    HW2  853   0.891   1.658   2.689
  280SOL     OW  854   0.382   0.700   2.342
  280SOL    HW1  855   0.427   0.610   2.339
  280SOL    HW2  856   0.288   0.689   2.375
  281SOL     OW  857   1.547   0.222   3.591
  281SOL    HW1  858   1.542   0.259   3.683
  281SOL    HW2  859   1.475   0.153   3.579
  282SOL     OW  860   0.614   0.122   1.979
  282SOL    HW1  861   0.712   0.100   1.986
  282SOL    HW2  862   0.583   0.105   1.886
  283SOL     OW  863   0.781   0.264   3.611
  283SOL    HW1  864   0.848   0.203   3.654
  283SOL    HW2  865   0.708   0.283   3.676
  284SOL     OW  866   0.888   1.514   3.057
  284SOL    HW1  867   0.865   1.489   2.963
  284SOL    HW2  868   0.949   1.445   3.096
  285SOL     OW  869   1.351   0.590   3.295
  285SOL    HW1  870   1.379   0.547   3.380
  285SOL    HW2  871   1.376   0.686   3.296
  286SOL     OW  872   0.803   1.402   2.786
  286SOL    HW1  873   0.893   1.416   2.744
  286SOL    HW2  874   0.732   1.404   2.715
  287SOL     OW  875   0.922   0.503   2.761
  287SOL    HW1  876   0.897   0.494   2.665
  287SOL    HW2  877   0.970   0.421   2.792
  288SOL     OW  878   0.539   0.064   2.374
  288SOL    HW1  879   0.458   0.065   2.432
  288SOL    HW2  880   0.542   0.147   2.319
  289SOL     OW  881   1.434   1.188   1.903
  289SOL    HW1  882   1.466   1.112   1.960
  289SOL    HW2  883   1.342   1.215   1.933
  290SOL     OW  884   0.297   0.035   2.033
  290SOL    HW1  885   0.346   0.119   2.012
  290SOL    HW2  886   0.359  -0.030   2.078
  291SOL     OW  887   0.935   0.236   2.342
  291SOL    HW1  888   0.887   0.277   2.264
  291SOL    HW2  889   1.034   0.234   2.323
  292SOL     OW  890   1.076   0.683   3.326
  292SOL    HW1  891   0.996   0.622   3.329
  292SOL    HW2  892   1.157   0.630   3.302
  293SOL     OW  893   1.227   1.570   2.655
  293SOL    HW1  894   1.248   1.644   2.590
  293SOL    HW2  895   1.295   1.570   2.728
  294SOL     OW  896   0.459   1.152   2.603
  294SOL    HW1  897   0.388   1.125   2.668
  294SOL    HW2  898   0.433   1.124   2.510
  295SOL     OW  899   1.271   1.797   2.453
  295SOL    HW1  900   1.315   1.861   2.389
  295SOL    HW2  901   1.221   1.849   2.523
  296SOL     OW  902   1.032   0.549   1.878
  296SOL    HW1  903   0.991   0.631   1.839
  296SOL    HW2  904   1.096   0.575   1.951
  297SOL     OW  905   0.078   0.556   3.248
  297SOL    HW1  906   0.170   0.555   3.207
  297SOL    HW2  907   0.072   0.630   3.315
  298SOL     OW  908   0.561   0.222   3.009
  298SOL    HW1  909   0.599   0.138   3.046
  298SOL    HW2  910   0.473   0.241   3.053
  299SOL     OW  911   0.866   0.454   2.504
  299SOL    HW1  912   0.834   0.526   2.442
  299SOL    HW2  913   0.890   0.373   2.451
  300SOL     OW  914   1.017   0.039   2.615
  300SOL    HW1  915   0.945   0.044   2.546
  300SOL    HW2  916   0.993  -0.030   2.684
  301SOL     OW  917   1.429   1.173   2.729
  301SOL    HW1  918   1.374   1.089   2.722
  301SOL    HW2  919   1.455   1.202   2.637
  302SOL     OW  920   1.466   0.590   2.854
  302SOL    HW1  921   1.436   0.495   2.861
  302SOL    HW2  922   1.539   0.606   2.920
  303SOL     OW  923   1.857   0.833   2.239
  303SOL    HW1  924   1.899   0.769   2.303
  303SOL    HW2  925   1.819   0.782   2.161
  304SOL     OW  926   0.488   1.385   2.036
  304SOL    HW1  927   0.401   1.370   2.083
  304SOL    HW2  928   0.471   1.411   1.941
  305SOL     OW  929   1.664   1.280   2.519
  305SOL    HW1  930   1.763   1.288   2.533
  305SOL    HW2  931   1.619   1.364   2.550
  306SOL     OW  932   1.390   0.575   1.940
  306SOL    HW1  933   1.336   0.554   2.021
  306SOL    HW2  934   1.481   0.534   1.949
  307SOL     OW  935   0.527   0.256   2.190
  307SOL    HW1  936   0.554   0.197   2.115
  307SOL    HW2  937   0.527   0.351   2.159
  308SOL     OW  938   1.754   1.223   3.450
  308SOL    HW1  939   1.845   1.184   3.437
  308SOL    HW2  940   1.762   1.319   3.474
  309SOL     OW  941   1.064   1.347   3.202
  309SOL    HW1  942   0.984   1.324   3.257
  309SOL    HW2  943   1.147   1.321   3.251
  310SOL     OW  944   1.592   1.629   3.487
  310SOL    HW1  945   1.619   1.663   3.397
  310SOL    HW2  946   1.671   1.591   3.533
  311SOL     OW  947   1.111   1.195   2.962
  311SOL    HW1  948   1.071   1.239   3.043
  311SOL    HW2  949   1.070   1.232   2.879
  312SOL     OW  950   1.638   1.099   2.941
  312SOL    HW1  951   1.643   1.180   3.000
  312SOL    HW2  952   1.552   1.101   2.890
  313SOL     OW  953   0.915   0.089   3.264
  313SOL    HW1  954   0.940   0.069   3.169
  313SOL    HW2  955   0.987   0.145   3.306
  314SOL     OW  956   0.980   1.116   3.581
  314SOL    HW1  957   0.881   1.122   3.591
  314SOL    HW2  958   1.003   1.036   3.525
  315SOL     OW  959   0.705   1.050   2.230
  315SOL    HW1  960   0.691   1.057   2.329
  315SOL    HW2  961   0.789   0.999   2.212
  316SOL     OW  962   0.410   0.813   3.113
  316SOL    HW1  963   0.496   0.825   3.163
  316SOL    HW2  964   0.368   0.726   3.140
  317SOL     OW  965   1.274   0.386   3.124
  317SOL    HW1  966   1.295   0.460   3.188
  317SOL    HW2  967   1.185   0.403   3.081
  318SOL     OW  968   0.064   1.564   3.193
  318SOL    HW1  969   0.018   1.646   3.159
  318SOL    HW2  970   0.162   1.583   3.202
  319SOL     OW  971   0.367   1.100   2.363
  319SOL    HW1  972   0.360   1.183   2.307
  319SOL    HW2  973   0.371   1.020   2.303
  320SOL     OW  974   0.566   0.537   2.727
  320SOL    HW1  975   0.578   0.603   2.653
  320SOL    HW2  976   0.612   0.571   2.810
  321SOL     OW  977   1.252   1.348   2.250
  321SOL    HW1  978   1.302   1.425   2.290
  321SOL    HW2  979   1.157   1.350   2.282
  322SOL     OW  980   1.272   1.445   3.004
  322SOL    HW1  981   1.319   1.458   3.091
  322SOL    HW2  982   1.206   1.371   3.013
  323SOL     OW  983   1.582   0.639   2.334
  323SOL    HW1  984   1.551   0.700   2.407
  323SOL    HW2  985   1.632   0.691   2.265
  324SOL     OW  986   0.354   1.510   3.191
  324SOL    HW1  987   0.333   1.466   3.104
  324SOL    HW2  988   0.451   1.536   3.194
  325SOL     OW  989   0.402   0.751   3.460
  325SOL    HW1  990   0.470   0.806   3.413
  325SOL    HW2  991   0.442   0.663   3.487
  326SOL     OW  992   1.587   0.779   3.532
  326SOL    HW1  993   1.495   0.817   3.527
  326SOL    HW2  994   1.647   0.826   3.467
  327SOL     OW  995   1.013   0.105   3.632
  327SOL    HW1  996   1.019   0.190   3.580
  327SOL    HW2  997   1.045   0.029   3.575
  328SOL     OW  998   0.504   0.050   3.602
  328SOL    HW1  999   0.462  -0.007   3.532
  328SOL    HW2 1000   0.438   0.119   3.634
  329SOL     OW 1001   0.573   0.870   2.891
  329SOL    HW1 1002   0.617   0.959   2.882
  329SOL    HW2 1003   0.510   0.870   2.968
  330SOL     OW 1004   1.360   0.862   2.907
  330SOL    HW1 1005   1.285   0.862   2.841
  330SOL    HW2 1006   1.397   0.770   2.916
  331SOL     OW 1007   1.209   0.525   2.137
  331SOL    HW1 1008   1.222   0.441   2.191
  331SOL    HW2 1009   1.180   0.599   2.197
  332SOL     OW 1010   0.307   0.213   3.093
  332SOL    HW1 1011   0.284   0.250   3.183
  332SOL    HW2 1012   0.277   0.118   3.087
  333SOL     OW 1013   0.037   1.310   3.144
  333SOL    HW1 1014   0.090   1.261   3.212
  333SOL    HW2 1015   0.059   1.408   3.149
  334SOL     OW 1016   0.732   0.634   2.926
  334SOL    HW1 1017   0.791   0.608   2.850
  334SOL    HW2 1018   0.704   0.730   2.915
  335SOL     OW 1019   1.728   0.935   3.716
  335SOL    HW1 1020   1.682   0.928   3.627
  335SOL    HW2 1021   1.666   0.979   3.782
  336SOL     OW 1022   0.307   0.063   2.480
  336SOL    HW1 1023   0.296   0.157   2.513
  336SOL    HW2 1024   0.302   0.000   2.557
  337SOL     OW 1025   1.622   0.367   2.236
  337SOL    HW1 1026   1.624   0.291   2.300
  337SOL    HW2 1027   1.574   0.444   2.276
  338SOL     OW 1028   1.023   0.766   2.828
  338SOL    HW1 1029   1.038   0.787   2.924
  338SOL    HW2 1030   0.993   0.671   2.819
  339SOL     OW 1031   0.980   1.573   3.562
  339SOL    HW1 1032   0.960   1.617   3.474
  339SOL    HW2 1033   1.019   1.482   3.546
  340SOL     OW 1034   1.859   1.518   3.467
  340SOL    HW1 1035   1.873   1.545   3.372
  340SOL    HW2 1036   1.942   1.540   3.520
  341SOL     OW 1037   0.350   0.898   3.666
  341SOL    HW1 1038   0.426   0.942   3.714
  341SOL    HW2 1039   0.385   0.851   3.584
  342SOL     OW 1040   1.540   0.274   1.987
  342SOL    HW1 1041   1.479   0.199   2.010
  342SOL    HW2 1042   1.562   0.326   2.070
  343SOL     OW 1043   1.303   0.838   1.904
  343SOL    HW1 1044   1.337   0.745   1.919
  343SOL    HW2 1045   1.321   0.865   1.809
  344SOL     OW 1046   1.068   1.333   2.711
  344SOL    HW1 1047   1.075   1.249   2.656
  344SOL    HW2 1048   1.130   1.402   2.675
  345SOL     OW 1049   0.319   0.810   2.811
  345SOL    HW1 1050   0.412   0.846   2.816
  345SOL    HW2 1051   0.313   0.725   2.863
  346SOL     OW 1052   0.339   0.509   2.868
  346SOL    HW1 1053   0.287   0.426   2.851
  346SOL    HW2 1054   0.416   0.514   2.804
  347SOL     OW 1055   1.138   0.380   3.540
  347SOL    HW1 1056   1.093   0.443   3.604
  347SOL    HW2 1057   1.231   0.411   3.523
  348SOL     OW 1058   1.160   0.207   3.339
  348SOL    HW1 1059   1.160   0.271   3.416
  348SOL    HW2 1060   1.188   0.255   3.256
  349SOL     OW 1061   0.008   1.326   2.062
  349SOL    HW1 1062  -0.085   1.347   2.031
  349SOL    HW2 1063   0.018   1.227   2.075
  350SOL     OW 1064   0.088   1.801   2.789
  350SOL    HW1 1065   0.046   1.715   2.762
  350SOL    HW2 1066   0.182   1.804   2.755
  351SOL     OW 1067   0.504   1.568   2.772
  351SOL    HW1 1068   0.570   1.642   2.781
  351SOL    HW2 1069   0.548   1.489   2.730
  352SOL     OW 1070   1.002   0.796   3.100
  352SOL    HW1 1071   1.043   0.764   3.186
  352SOL    HW2 1072   0.906   0.769   3.097
  353SOL     OW 1073   0.040   0.544   2.976
  353SOL    HW1 1074   0.125   0.511   2.935
  353SOL    HW2 1075   0.053   0.559   3.074
  354SOL     OW 1076   0.189   0.520   3.584
  354SOL    HW1 1077   0.248   0.480   3.514
  354SOL    HW2 1078   0.131   0.591   3.543
  355SOL     OW 1079   1.369   0.950   3.522
  355SOL    HW1 1080   1.408   1.039   3.542
  355SOL    HW2 1081   1.379   0.930   3.425
  356SOL     OW 1082   0.815   0.572   2.187
  356SOL    HW1 1083   0.822   0.483   2.141
  356SOL    HW2 1084   0.721   0.606   2.179
  357SOL     OW 1085   1.657   0.604   3.068
  357SOL    HW1 1086   1.619   0.535   3.130
  357SOL    HW2 1087   1.739   0.568   3.024
  358SOL     OW 1088   0.252   1.564   3.606
  358SOL    HW1 1089   0.222   1.621   3.682
  358SOL    HW2 1090   0.245   1.467   3.632
  359SOL     OW 1091   0.671   0.464   3.131
  359SOL    HW1 1092   0.637   0.375   3.101
  359SOL    HW2 1093   0.697   0.518   3.051
  360SOL     OW 1094   0.930   1.678   3.327
  360SOL    HW1 1095   0.906   1.660   3.232
  360SOL    HW2 1096   0.960   1.772   3.337
  361SOL     OW 1097   0.473   0.500   2.053
  361SOL    HW1 1098   0.534   0.580   2.057
  361SOL    HW2 1099   0.378   0.531   2.060
  362SOL     OW 1100   0.159   1.137   3.328
  362SOL    HW1 1101   0.181   1.076   3.404
  362SOL    HW2 1102   0.169   1.088   3.242
  363SOL     OW 1103   1.347   1.059   3.096
  363SOL    HW1 1104   1.371   0.996   3.022
  363SOL    HW2 1105   1.257   1.099   3.078
  364SOL     OW 1106   1.302   0.855   2.171
  364SOL    HW1 1107   1.216   0.824   2.213
  364SOL    HW2 1108   1.298   0.841   2.072
  365SOL     OW 1109   1.759   1.747   3.016
  365SOL    HW1 1110   1.820   1.777   2.943
  365SOL    HW2 1111   1.721   1.658   2.994
  366SOL     OW 1112   1.252   1.731   2.990
  366SOL    HW1 1113   1.336   1.736   2.936
  366SOL    HW2 1114   1.229   1.635   3.008
  367SOL     OW 1115   0.083   1.258   2.884
  367SOL    HW1 1116   0.078   1.257   2.984
  367SOL    HW2 1117   0.000   1.217   2.846
  368SOL     OW 1118   0.688   1.662   3.578
  368SOL    HW1 1119   0.632   1.743   3.587
  368SOL    HW2 1120   0.740   1.666   3.492
  369SOL     OW 1121   1.726   0.135   2.385
  369SOL    HW1 1122   1.799   0.118   2.318
  369SOL    HW2 1123   1.695   0.048   2.423
  370SOL     OW 1124   1.388   1.573   2.339
  370SOL    HW1 1125   1.455   1.585   2.265
  370SOL    HW2 1126   1.348   1.662   2.362
  371SOL     OW 1127   0.130   1.794   3.713
  371SOL    HW1 1128   0.089   1.720   3.766
  371SOL    HW2 1129   0.194   1.845   3.771
  372SOL     OW 1130   1.280   0.927   2.534
  372SOL    HW1 1131   1.340   0.846   2.536
  372SOL    HW2 1132   1.320   0.996   2.474
  373SOL     OW 1133   0.830   1.273   3.284
  373SOL    HW1 1134   0.825   1.306   3.379
  373SOL    HW2 1135   0.744   1.292   3.238
  374SOL     OW 1136   0.672   1.616   2.016
  374SOL    HW1 1137   0.681   1.626   1.917
  374SOL    HW2 1138   0.632   1.527   2.037
  375SOL     OW 1139   1.650   1.720   3.256
  375SOL    HW1 1140   1.703   1.730   3.172
  375SOL    HW2 1141   1.623   1.810   3.290
  376SOL     OW 1142   1.841   0.175   2.825
  376SOL    HW1 1143   1.880   0.090   2.789
  376SOL    HW2 1144   1.743   0.177   2.806
  377SOL     OW 1145   0.263   0.326   2.582
  377SOL    HW1 1146   0.184   0.377   2.548
  377SOL    HW2 1147   0.254   0.311   2.680
  378SOL     OW 1148   1.194   1.612   1.893
  378SOL    HW1 1149   1.200   1.519   1.930
  378SOL    HW2 1150   1.135   1.612   1.813
  379SOL     OW 1151   0.822   1.002   3.234
  379SOL    HW1 1152   0.862   1.001   3.142
  379SOL    HW2 1153   0.832   1.094   3.274
  380SOL     OW 1154   0.916   0.910   2.153
  380SOL    HW1 1155   0.979   0.948   2.085
  380SOL    HW2 1156   0.956   0.827   2.192
  381SOL     OW 1157   1.504   1.607   1.906
  381SOL    HW1 1158   1.412   1.644   1.913
  381SOL    HW2 1159   1.542   1.627   1.816
  382SOL     OW 1160   0.372   1.288   3.352
  382SOL    HW1 1161   0.359   1.381   3.318
  382SOL    HW2 1162   0.288   1.236   3.339
  383SOL     OW 1163   1.614   1.292   3.151
  383SOL    HW1 1164   1.674   1.295   3.231
  383SOL    HW2 1165   1.539   1.356   3.164
  384SOL     OW 1166   1.039   1.098   2.558
  384SOL    HW1 1167   0.969   1.051   2.612
  384SOL    HW2 1168   1.098   1.030   2.515
  385SOL     OW 1169   1.014   0.236   2.833
  385SOL    HW1 1170   1.006   0.200   2.740
  385SOL    HW2 1171   1.012   0.160   2.898
  386SOL     OW 1172   0.590   1.487   2.353
  386SOL    HW1 1173   0.632   1.429   2.283
  386SOL    HW2 1174   0.546   1.566   2.309
  387SOL     OW 1175   1.709   0.385   3.243
  387SOL    HW1 1176   1.782   0.454   3.247
  387SOL    HW2 1177   1.737   0.310   3.184
  388SOL     OW 1178   0.255   1.348   2.152
  388SOL    HW1 1179   0.159   1.349   2.125
  388SOL    HW2 1180   0.267   1.401   2.236
  389SOL     OW 1181   0.105   1.013   3.588
  389SOL    HW1 1182   0.028   0.980   3.642
  389SOL    HW2 1183   0.190   0.983   3.630
  390SOL     OW 1184   0.672   0.203   3.351
  390SOL    HW1 1185   0.762   0.187   3.311
  390SOL    HW2 1186   0.680   0.208   3.450
  391SOL     OW 1187   0.075   0.345   1.895
  391SOL    HW1 1188  -0.017   0.317   1.866
  391SOL    HW2 1189   0.106   0.422   1.839
  392SOL     OW 1190   1.440   0.856   3.260
  392SOL    HW1 1191   1.383   0.908   3.197
  392SOL    HW2 1192   1.536   0.868   3.236
  393SOL     OW 1193   0.072   0.166   2.180
  393SOL    HW1 1194   0.055   0.249   2.126
  393SOL    HW2 1195   0.162   0.129   2.158
  394SOL     OW 1196   1.183   1.335   1.981
  394SOL    HW1 1197   1.084   1.324   1.983
  394SOL    HW2 1198   1.217   1.350   2.074
  395SOL     OW 1199   0.613   0.842   3.293
  395SOL    HW1 1200   0.669   0.923   3.276
  395SOL    HW2 1201   0.672   0.762   3.296
  396SOL     OW 1202   1.493   1.767   2.821
  396SOL    HW1 1203   1.526   1.831   2.752
  396SOL    HW2 1204   1.559   1.761   2.896
  397SOL     OW 1205   0.716   0.565   3.570
  397SOL    HW1 1206   0.735   0.630   3.644
  397SOL    HW2 1207   0.776   0.485   3.579
  398SOL     OW 1208   1.450   1.220   3.495
  398SOL    HW1 1209   1.441   1.210   3.594
  398SOL    HW2 1210   1.546   1.213   3.469
  399SOL     OW 1211   0.390   1.741   3.422
  399SOL    HW1 1212   0.299   1.782   3.420
  399SOL    HW2 1213   0.383   1.647   3.454
  400SOL     OW 1214   1.674   0.883   3.116
  400SOL    HW1 1215   1.647   0.794   3.079
  400SOL    HW2 1216   1.675   0.951   3.043
  401SOL     OW 1217   1.225   0.325   2.311
  401SOL    HW1 1218   1.290   0.251   2.300
  401SOL    HW2 1219   1.245   0.375   2.395
  402SOL     OW 1220   0.594   0.745   2.514
  402SOL    HW1 1221   0.644   0.830   2.495
  402SOL    HW2 1222   0.506   0.747   2.466
  403SOL     OW 1223   1.777   0.342   3.504
  403SOL    HW1 1224   1.760   0.373   3.410
  403SOL    HW2 1225   1.693   0.305   3.542
  404SOL     OW 1226   1.730   0.934   3.379
  404SOL    HW1 1227   1.768   1.025   3.394
  404SOL    HW2 1228   1.722   0.917   3.280
  405SOL     OW 1229   0.859   1.374   1.878
  405SOL    HW1 1230   0.813   1.389   1.966
  405SOL    HW2 1231   0.903   1.459   1.848
  406SOL     OW 1232   0.661   1.790   2.815
  406SOL    HW1 1233   0.615   1.878   2.802
  406SOL    HW2 1234   0.760   1.802   2.808
  407SOL     OW 1235   0.859   0.956   2.723
  407SOL    HW1 1236   0.913   0.887   2.771
  407SOL    HW2 1237   0.827   1.025   2.789
  408SOL     OW 1238   1.083   0.984   1.949
  408SOL    HW1 1239   1.060   1.037   1.867
  408SOL    HW2 1240   1.164   0.928   1.930
  409SOL     OW 1241   1.861   1.569   2.713
  409SOL    HW1 1242   1.790   1.557   2.643
  409SOL    HW2 1243   1.862   1.490   2.773
  410SOL     OW 1244   0.221   1.314   3.706
  410SOL    HW1 1245   0.156   1.241   3.685
  410SOL    HW2 1246   0.225   1.328   3.804
  411SOL     OW 1247   0.079   1.240   2.515
  411SOL    HW1 1248   0.078   1.193   2.603
  411SOL    HW2 1249   0.161   1.212   2.464
  412SOL     OW 1250   0.672   1.391   3.486
  412SOL    HW1 1251   0.594   1.341   3.524
  412SOL    HW2 1252   0.669   1.486   3.517
  413SOL     OW 1253   1.824   0.192   3.089
  413SOL    HW1 1254   1.820   0.102   3.133
  413SOL    HW2 1255   1.827   0.181   2.990
  414SOL     OW 1256   0.428   0.424   2.382
  414SOL    HW1 1257   0.458   0.352   2.320
  414SOL    HW2 1258   0.389   0.384   2.465
  415SOL     OW 1259   1.705   1.487   2.966
  415SOL    HW1 1260   1.612   1.462   2.939
  415SOL    HW2 1261   1.731   1.437   3.048
  416SOL     OW 1262   0.317   0.547   3.142
  416SOL    HW1 1263   0.355   0.488   3.214
  416SOL    HW2 1264   0.357   0.521   3.054
  417SOL     OW 1265   0.812   1.586   2.549
  417SOL    HW1 1266   0.844   1.596   2.455
  417SOL    HW2 1267   0.733   1.524   2.551
  418SOL     OW 1268   1.424   0.214   2.974
  418SOL    HW1 1269   1.476   0.149   3.029
  418SOL    HW2 1270   1.375   0.277   3.035
  419SOL     OW 1271   1.001   0.034   3.016
  419SOL    HW1 1272   0.938  -0.038   2.985
  419SOL    HW2 1273   1.094  -0.002   3.016
  420SOL     OW 1274   0.770   1.330   2.163
  420SOL    HW1 1275   0.724   1.243   2.180
  420SOL    HW2 1276   0.861   1.327   2.204
  421SOL     OW 1277   0.618   1.567   3.146
  421SOL    HW1 1278   0.613   1.649   3.203
  421SOL    HW2 1279   0.707   1.564   3.101
  422SOL     OW 1280   1.352   0.052   2.030
  422SOL    HW1 1281   1.387   0.011   1.946
  422SOL    HW2 1282   1.262   0.014   2.050
  423SOL     OW 1283   1.300   0.453   2.553
  423SOL    HW1 1284   1.241   0.533   2.557
  423SOL    HW2 1285   1.315   0.418   2.646
  424SOL     OW 1286   1.593   0.221   2.744
  424SOL    HW1 1287   1.509   0.220   2.798
  424SOL    HW2 1288   1.595   0.304   2.688
  425SOL     OW 1289   0.039   1.077   2.162
  425SOL    HW1 1290   0.138   1.066   2.153
  425SOL    HW2 1291  -0.001   0.991   2.194
  426SOL     OW 1292   0.875   1.646   2.199
  426SOL    HW1 1293   0.798   1.611   2.145
  426SOL    HW2 1294   0.843   1.717   2.261
  427SOL     OW 1295   0.230   0.628   3.837
  427SOL    HW1 1296   0.137   0.626   3.874
  427SOL    HW2 1297   0.231   0.589   3.745
  428SOL     OW 1298   0.225   0.275   4.720
  428SOL    HW1 1299   0.260   0.258   4.812
  428SOL    HW2 1300   0.137   0.230   4.708
  429SOL     OW 1301   0.019   0.368   4.371
  429SOL    HW1 1302  -0.063   0.411   4.410
  429SOL    HW2 1303  -0.009   0.295   4.308
  430SOL     OW 1304   1.555   1.511   4.427
  430SOL    HW1 1305   1.498   1.495   4.508
  430SOL    HW2 1306   1.496   1.521   4.347
  431SOL     OW 1307   1.135   0.703   4.441
  431SOL    HW1 1308   1.192   0.781   4.416
  431SOL    HW2 1309   1.075   0.729   4.517
  432SOL     OW 1310   1.755   0.607   3.955
  432SOL    HW1 1311   1.743   0.594   3.856
  432SOL    HW2 1312   1.725   0.526   4.004
  433SOL     OW 1313   0.768   1.144   4.747
  433SOL    HW1 1314   0.690   1.161   4.807
  433SOL    HW2 1315   0.802   1.231   4.711
  434SOL     OW 1316   0.685   1.012   4.389
  434SOL    HW1 1317   0.754   0.996   4.459
  434SOL    HW2 1318   0.612   1.069   4.427
  435SOL     OW 1319   0.335   1.435   4.785
  435SOL    HW1 1320   0.257   1.404   4.732
  435SOL    HW2 1321   0.393   1.493   4.728
  436SOL     OW 1322   1.603   0.447   4.461
  436SOL    HW1 1323   1.529   0.493   4.411
  436SOL    HW2 1324   1.654   0.515   4.514
  437SOL     OW 1325   0.231   1.713   4.207
  437SOL    HW1 1326   0.265   1.790   4.261
  437SOL    HW2 1327   0.275   1.713   4.117
  438SOL     OW 1328   0.230   1.434   4.262
  438SOL    HW1 1329   0.204   1.530   4.262
  438SOL    HW2 1330   0.159   1.380   4.307
  439SOL     OW 1331   0.240   1.091   4.610
  439SOL    HW1 1332   0.254   1.007   4.662
  439SOL    HW2 1333   0.185   1.155   4.665
  440SOL     OW 1334   0.606   0.964   3.847
  440SOL    HW1 1335   0.613   1.048   3.793
  440SOL    HW2 1336   0.652   0.977   3.935
  441SOL     OW 1337   0.122   0.643   4.287
  441SOL    HW1 1338   0.077   0.555   4.304
  441SOL    HW2 1339   0.121   0.697   4.371
  442SOL     OW 1340   1.842   1.767   4.083
  442SOL    HW1 1341   1.896   1.738   4.163
  442SOL    HW2 1342   1.872   1.857   4.054
  443SOL     OW 1343   0.027   1.596   3.841
  443SOL    HW1 1344   0.008   1.500   3.862
  443SOL    HW2 1345  -0.006   1.654   3.916
  444SOL     OW 1346   1.689   0.922   4.336
  444SOL    HW1 1347   1.784   0.893   4.344
  444SOL    HW2 1348   1.681   0.987   4.261
  445SOL     OW 1349   1.641   1.108   4.156
  445SOL    HW1 1350   1.727   1.110   4.104
  445SOL    HW2 1351   1.655   1.155   4.244
  446SOL     OW 1352   0.613   1.365   4.450
  446SOL    HW1 1353   0.564   1.278   4.459
  446SOL    HW2 1354   0.590   1.408   4.363
  447SOL     OW 1355   0.809   0.004   4.226
  447SOL    HW1 1356   0.849   0.095   4.217
  447SOL    HW2 1357   0.709   0.012   4.232
  448SOL     OW 1358   1.525   0.999   3.914
  448SOL    HW1 1359   1.462   0.923   3.927
  448SOL    HW2 1360   1.573   1.017   4.000
  449SOL     OW 1361   1.466   1.417   4.677
  449SOL    HW1 1362   1.407   1.423   4.757
  449SOL    HW2 1363   1.451   1.329   4.631
  450SOL     OW 1364   1.667   1.714   4.296
  450SOL    HW1 1365   1.626   1.691   4.208
  450SOL    HW2 1366   1.649   1.640   4.361
  451SOL     OW 1367   0.598   0.729   3.994
  451SOL    HW1 1368   0.622   0.798   3.926
  451SOL    HW2 1369   0.520   0.762   4.048
  452SOL     OW 1370   1.281   0.345   4.668
  452SOL    HW1 1371   1.195   0.295   4.655
  452SOL    HW2 1372   1.343   0.291   4.724
  453SOL     OW 1373   1.576   1.662   4.031
  453SOL    HW1 1374   1.665   1.708   4.034
  453SOL    HW2 1375   1.555   1.638   3.936
  454SOL     OW 1376   1.041   0.701   4.153
  454SOL    HW1 1377   1.067   0.697   4.249
  454SOL    HW2 1378   0.956   0.650   4.139
  455SOL     OW 1379   0.076   0.811   4.513
  455SOL    HW1 1380   0.175   0.799   4.522
  455SOL    HW2 1381   0.052   0.906   4.534
  456SOL     OW 1382   0.865   0.348   3.919
  456SOL    HW1 1383   0.924   0.411   3.870
  456SOL    HW2 1384   0.884   0.254   3.890
  457SOL     OW 1385   1.362   1.144   4.269
  457SOL    HW1 1386   1.445   1.115   4.221
  457SOL    HW2 1387   1.313   1.211   4.213
  458SOL     OW 1388   0.550   0.196   4.609
  458SOL    HW1 1389   0.545   0.191   4.709
  458SOL    HW2 1390   0.552   0.292   4.580
  459SOL     OW 1391   1.008   1.456   4.201
  459SOL    HW1 1392   0.962   1.528   4.149
  459SOL    HW2 1393   1.004   1.476   4.299
  460SOL     OW 1394   0.351   1.801   4.577
  460SOL    HW1 1395   0.401   1.715   4.583
  460SOL    HW2 1396   0.416   1.878   4.574
  461SOL     OW 1397   1.795   1.066   4.597
  461SOL    HW1 1398   1.733   1.051   4.521
  461SOL    HW2 1399   1.743   1.077   4.682
  462SOL     OW 1400   0.321   0.943   3.966
  462SOL    HW1 1401   0.403   0.982   3.924
  462SOL    HW2 1402   0.294   0.861   3.917
  463SOL     OW 1403   1.458   0.735   4.452
  463SOL    HW1 1404   1.453   0.670   4.527
  463SOL    HW2 1405   1.538   0.794   4.465
  464SOL     OW 1406   1.111   1.776   3.961
  464SOL    HW1 1407   1.051   1.714   4.011
  464SOL    HW2 1408   1.142   1.732   3.876
  465SOL     OW 1409   1.632   1.377   3.805
  465SOL    HW1 1410   1.600   1.471   3.795
  465SOL    HW2 1411   1.556   1.314   3.793
  466SOL     OW 1412   0.464   1.743   4.047
  466SOL    HW1 1413   0.497   1.782   4.133
  466SOL    HW2 1414   0.540   1.736   3.982
  467SOL     OW 1415   1.400   0.107   4.150
  467SOL    HW1 1416   1.376   0.070   4.060
  467SOL    HW2 1417   1.499   0.123   4.154
  468SOL     OW 1418   0.249   1.785   4.965
  468SOL    HW1 1419   0.306   1.720   5.015
  468SOL    HW2 1420   0.233   1.752   4.872
  469SOL     OW 1421   0.940   1.698   4.628
  469SOL    HW1 1422   1.020   1.641   4.649
  469SOL    HW2 1423   0.891   1.658   4.551
  470SOL     OW 1424   0.382   0.700   4.204
  470SOL    HW1 1425   0.427   0.610   4.201
  470SOL    HW2 1426   0.288   0.689   4.237
  471SOL     OW 1427   0.614   0.122   3.841
  471SOL    HW1 1428   0.712   0.100   3.848
  471SOL    HW2 1429   0.583   0.105   3.748
  472SOL     OW 1430   0.803   1.402   4.648
  472SOL    HW1 1431   0.893   1.416   4.606
  472SOL    HW2 1432   0.732   1.404   4.577
  473SOL     OW 1433   0.922   0.503   4.623
  473SOL    HW1 1434   0.897   0.494   4.527
  473SOL    HW2 1435   0.970   0.421   4.654
  474SOL     OW 1436   0.539   0.064   4.236
  474SOL    HW1 1437   0.458   0.065   4.294
  474SOL    HW2 1438   0.542   0.147   4.181
  475SOL     OW 1439   1.434   1.188   3.765
  475SOL    HW1 1440   1.466   1.112   3.822
  475SOL    HW2 1441   1.342   1.215   3.795
  476SOL     OW 1442   0.297   0.035   3.895
  476SOL    HW1 1443   0.346   0.119   3.874
  476SOL    HW2 1444   0.359  -0.030   3.940
  477SOL     OW 1445   0.935   0.236   4.204
  477SOL    HW1 1446   0.887   0.277   4.126
  477SOL    HW2 1447   1.034   0.234   4.185
  478SOL     OW 1448   1.227   1.570   4.517
  478SOL    HW1 1449   1.248   1.644   4.452
  478SOL    HW2 1450   1.295   1.570   4.590
  479SOL     OW 1451   0.459   1.152   4.465
  479SOL    HW1 1452   0.388   1.125   4.530
  479SOL    HW2 1453   0.433   1.124   4.372
  480SOL     OW 1454   1.271   1.797   4.315
  480SOL    HW1 1455   1.315   1.861   4.251
  480SOL    HW2 1456   1.221   1.849   4.385
  481SOL     OW 1457   1.032   0.549   3.740
  481SOL    HW1 1458   0.991   0.631   3.701
  481SOL    HW2 1459   1.096   0.575   3.813
  482SOL     OW 1460   0.866   0.454   4.366
  482SOL    HW1 1461   0.834   0.526   4.304
  482SOL    HW2 1462   0.890   0.373   4.313
  483SOL     OW 1463   1.017   0.039   4.477
  483SOL    HW1 1464   0.945   0.044   4.408
  483SOL    HW2 1465   0.993  -0.030   4.546
  484SOL     OW 1466   1.429   1.173   4.591
  484SOL    HW1 1467   1.374   1.089   4.584
  484SOL    HW2 1468   1.455   1.202   4.499
  485SOL     OW 1469   1.466   0.590   4.716
  485SOL    HW1 1470   1.436   0.495   4.723
  485SOL    HW2 1471   1.539   0.606   4.782
  486SOL     OW 1472   1.857   0.833   4.101
  486SOL    HW1 1473   1.899   0.769   4.165
  486SOL    HW2 1474   1.819   0.782   4.023
  487SOL     OW 1475   0.488   1.385   3.898
  487SOL    HW1 1476   0.401   1.370   3.945
  487SOL    HW2 1477   0.471   1.411   3.803
  488SOL     OW 1478   1.664   1.280   4.381
  488SOL    HW1 1479   1.763   1.288   4.395
  488SOL    HW2 1480   1.619   1.364   4.412
  489SOL     OW 1481   1.390   0.575   3.802
  489SOL    HW1 1482   1.336   0.554   3.883
  489SOL    HW2 1483   1.481   0.534   3.811
  490SOL     OW 1484   0.527   0.256   4.052
  490SOL    HW1 1485   0.554   0.197   3.977
  490SOL    HW2 1486   0.527   0.351   4.021
  491SOL     OW 1487   1.638   1.099   4.803
  491SOL    HW1 1488   1.643   1.180   4.862
  491SOL    HW2 1489   1.552   1.101   4.752
  492SOL     OW 1490   0.705   1.050   4.092
  492SOL    HW1 1491   0.691   1.057   4.191
  492SOL    HW2 1492   0.789   0.999   4.074
  493SOL     OW 1493   0.367   1.100   4.225
  493SOL    HW1 1494   0.360   1.183   4.169
  493SOL    HW2 1495   0.371   1.020   4.165
  494SOL     OW 1496   0.566   0.537   4.589
  494SOL    HW1 1497   0.578   0.603   4.515
  494SOL    HW2 1498   0.612   0.571   4.672
  495SOL     OW 1499   1.252   1.348   4.112
  495SOL    HW1 1500   1.302   1.425   4.152
  495SOL    HW2 1501   1.157   1.350   4.144
  496SOL     OW 1502   1.582   0.639   4.196
  496SOL    HW1 1503   1.551   0.700   4.269
  496SOL    HW2 1504   1.632   0.691   4.127
  497SOL     OW 1505   0.573   0.870   4.753
  497SOL    HW1 1506   0.617   0.959   4.744
  497SOL    HW2 1507   0.510   0.870   4.830
  498SOL     OW 1508   1.209   0.525   3.999
  498SOL    HW1 1509   1.222   0.441   4.053
  498SOL    HW2 1510   1.180   0.599   4.059
  499SOL     OW 1511   0.732   0.634   4.788
  499SOL    HW1 1512   0.791   0.608   4.712
  499SOL    HW2 1513   0.704   0.730   4.777
  500SOL     OW 1514   0.307   0.063   4.342
  500SOL    HW1 1515   0.296   0.157   4.375
  500SOL    HW2 1516   0.302   0.000   4.419
  501SOL     OW 1517   1.622   0.367   4.098
  501SOL    HW1 1518   1.624   0.291   4.162
  501SOL    HW2 1519   1.574   0.444   4.138
  502SOL     OW 1520   1.540   0.274   3.849
  502SOL    HW1 1521   1.479   0.199   3.872
  502SOL    HW2 1522   1.562   0.326   3.932
  503SOL     OW 1523   1.303   0.838   3.766
  503SOL    HW1 1524   1.337   0.745   3.781
  503SOL    HW2 1525   1.321   0.865   3.671
  504SOL     OW 1526   1.068   1.333   4.573
  504SOL    HW1 1527   1.075   1.249   4.518
  504SOL    HW2 1528   1.130   1.402   4.537
  505SOL     OW 1529   0.319   0.810   4.673
  505SOL    HW1 1530   0.412   0.846   4.678
  505SOL    HW2 1531   0.313   0.725   4.725
  506SOL     OW 1532   0.339   0.509   4.730
  506SOL    HW1 1533   0.287   0.426   4.713
  506SOL    HW2 1534   0.416   0.514   4.666
  507SOL     OW 1535   0.008   1.326   3.924
  507SOL    HW1 1536  -0.085   1.347   3.893
  507SOL    HW2 1537   0.018   1.227   3.937
  508SOL     OW 1538   0.088   1.801   4.651
  508SOL    HW1 1539   0.046   1.715   4.624
  508SOL    HW2 1540   0.182   1.804   4.617
  509SOL     OW 1541   0.504   1.568   4.634
  509SOL    HW1 1542   0.570   1.642   4.643
  509SOL    HW2 1543   0.548   1.489   4.592
  510SOL     OW 1544   0.815   0.572   4.049
  510SOL    HW1 1545   0.822   0.483   4.003
  510SOL    HW2 1546   0.721   0.606   4.041
  511SOL     OW 1547   0.671   0.464   4.993
  511SOL    HW1 1548   0.637   0.375   4.963
  511SOL    HW2 1549   0.697   0.518   4.913
  512SOL     OW 1550   0.473   0.500   3.915
  512SOL    HW1 1551   0.534   0.580   3.919
  512SOL    HW2 1552   0.378   0.531   3.922
  513SOL     OW 1553   1.302   0.855   4.033
  513SOL    HW1 1554   1.216   0.824   4.075
  513SOL    HW2 1555   1.298   0.841   3.934
  514SOL     OW 1556   1.759   1.747   4.878
  514SOL    HW1 1557   1.820   1.777   4.805
  514SOL    HW2 1558   1.721   1.658   4.856
  515SOL     OW 1559   0.083   1.258   4.746
  515SOL    HW1 1560   0.078   1.257   4.846
  515SOL    HW2 1561   0.000   1.217   4.708
  516SOL     OW 1562   1.726   0.135   4.247
  516SOL    HW1 1563   1.799   0.118   4.180
  516SOL    HW2 1564   1.695   0.048   4.285
  517SOL     OW 1565   1.388   1.573   4.201
  517SOL    HW1 1566   1.455   1.585   4.127
  517SOL    HW2 1567   1.348   1.662   4.224
  518SOL     OW 1568   1.280   0.927   4.396
  518SOL    HW1 1569   1.340   0.846   4.398
  518SOL    HW2 1570   1.320   0.996   4.336
  519SOL     OW 1571   0.672   1.616   3.878
  519SOL    HW1 1572   0.681   1.626   3.779
  519SOL    HW2 1573   0.632   1.527   3.899
  520SOL     OW 1574   1.841   0.175   4.687
  520SOL    HW1 1575   1.880   0.090   4.651
  520SOL    HW2 1576   1.743   0.177   4.668
  521SOL     OW 1577   0.263   0.326   4.444
  521SOL    HW1 1578   0.184   0.377   4.410
  521SOL    HW2 1579   0.254   0.311   4.542
  522SOL     OW 1580   1.194   1.612   3.755
  522SOL    HW1 1581   1.200   1.519   3.792
  522SOL    HW2 1582   1.135   1.612   3.675
  523SOL     OW 1583   0.916   0.910   4.015
  523SOL    HW1 1584   0.979   0.948   3.947
  523SOL    HW2 1585   0.956   0.827   4.054
  524SOL     OW 1586   1.504   1.607   3.768
  524SOL    HW1 1587   1.412   1.644   3.775
  524SOL    HW2 1588   1.542   1.627   3.678
  525SOL     OW 1589   1.039   1.098   4.420
  525SOL    HW1 1590   0.969   1.051   4.474
  525SOL    HW2 1591   1.098   1.030   4.377
  526SOL     OW 1592   0.590   1.487   4.215
  526SOL    HW1 1593   0.632   1.429   4.145
  526SOL    HW2 1594   0.546   1.566   4.171
  527SOL     OW 1595   0.255   1.348   4.014
  527SOL    HW1 1596   0.159   1.349   3.987
  527SOL    HW2 1597   0.267   1.401   4.098
  528SOL     OW 1598   0.075   0.345   3.757
  528SOL    HW1 1599  -0.017   0.317   3.728
  528SOL    HW2 1600   0.106   0.422   3.701
  529SOL     OW 1601   0.072   0.166   4.042
  529SOL    HW1 1602   0.055   0.249   3.988
  529SOL    HW2 1603   0.162   0.129   4.020
  530SOL     OW 1604   1.183   1.335   3.843
  530SOL    HW1 1605   1.084   1.324   3.845
  530SOL    HW2 1606   1.217   1.350   3.936
  531SOL     OW 1607   1.674   0.883   4.978
  531SOL    HW1 1608   1.647   0.794   4.941
  531SOL    HW2 1609   1.675   0.951   4.905
  532SOL     OW 1610   1.225   0.325   4.173
  532SOL    HW1 1611   1.290   0.251   4.162
  532SOL    HW2 1612   1.245   0.375   4.257
  533SOL     OW 1613   0.594   0.745   4.376
  533SOL    HW1 1614   0.644   0.830   4.357
  533SOL    HW2 1615   0.506   0.747   4.328
  534SOL     OW 1616   0.859   1.374   3.740
  534SOL    HW1 1617   0.813   1.389   3.828
  534SOL    HW2 1618   0.903   1.459   3.710
  535SOL     OW 1619   0.661   1.790   4.677
  535SOL    HW1 1620   0.615   1.878   4.664
  535SOL    HW2 1621   0.760   1.802   4.670
  536SOL     OW 1622   0.859   0.956   4.585
  536SOL    HW1 1623   0.913   0.887   4.633
  536SOL    HW2 1624   0.827   1.025   4.651
  537SOL     OW 1625   1.083   0.984   3.811
  537SOL    HW1 1626   1.060   1.037   3.729
  537SOL    HW2 1627   1.164   0.928   3.792
  538SOL     OW 1628   1.861   1.569   4.575
  538SOL    HW1 1629   1.790   1.557   4.505
  538SOL    HW2 1630   1.862   1.490   4.635
  539SOL     OW 1631   0.079   1.240   4.377
  539SOL    HW1 1632   0.078   1.193   4.465
  539SOL    HW2 1633   0.161   1.212   4.326
  540SOL     OW 1634   1.824   0.192   4.951
  540SOL    HW1 1635   1.820   0.102   4.995
  540SOL    HW2 1636   1.827   0.181   4.852
  541SOL     OW 1637   0.428   0.424   4.244
  541SOL    HW1 1638   0.458   0.352   4.182
  541SOL    HW2 1639   0.389   0.384   4.327
  542SOL     OW 1640   0.812   1.586   4.411
  542SOL    HW1 1641   0.844   1.596   4.317
  542SOL    HW2 1642   0.733   1.524   4.413
  543SOL     OW 1643   0.770   1.330   4.025
  543SOL    HW1 1644   0.724   1.243   4.042
  543SOL    HW2 1645   0.861   1.327   4.066
  544SOL     OW 1646   1.352   0.052   3.892
  544SOL    HW1 1647   1.387   0.011   3.808
  544SOL    HW2 1648   1.262   0.014   3.912
  545SOL     OW 1649   1.300   0.453   4.415
  545SOL    HW1 1650   1.241   0.533   4.419
  545SOL    HW2 1651   1.315   0.418   4.508
  546SOL     OW 1652   1.593   0.221   4.606
  546SOL    HW1 1653   1.509   0.220   4.660
  546SOL    HW2 1654   1.595   0.304   4.550
  547SOL     OW 1655   0.039   1.077   4.024
  547SOL    HW1 1656   0.138   1.066   4.015
  547SOL    HW2 1657  -0.001   0.991   4.056
  548SOL     OW 1658   0.875   1.646   4.061
  548SOL    HW1 1659   0.798   1.611   4.007
  548SOL    HW2 1660   0.843   1.717   4.123
  549SOL     OW 1661   0.230   2.490   0.113
  549SOL    HW1 1662   0.137   2.488   0.150
  549SOL    HW2 1663   0.231   2.451   0.021
  550SOL     OW 1664   0.225   2.137   0.996
  550SOL    HW1 1665   0.260   2.120   1.088
  550SOL    HW2 1666   0.137   2.092   0.984
  551SOL     OW 1667   0.019   2.230   0.647
  551SOL    HW1 1668  -0.063   2.273   0.686
  551SOL    HW2 1669  -0.009   2.157   0.584
  552SOL     OW 1670   0.569   3.137   1.165
  552SOL    HW1 1671   0.476   3.130   1.128
  552SOL    HW2 1672   0.580   3.226   1.209
  553SOL     OW 1673   1.555   3.373   0.703
  553SOL    HW1 1674   1.498   3.357   0.784
  553SOL    HW2 1675   1.496   3.383   0.623
  554SOL     OW 1676   1.135   2.565   0.717
  554SOL    HW1 1677   1.192   2.643   0.692
  554SOL    HW2 1678   1.075   2.591   0.793
  555SOL     OW 1679   1.755   2.469   0.231
  555SOL    HW1 1680   1.743   2.456   0.132
  555SOL    HW2 1681   1.725   2.388   0.280
  556SOL     OW 1682   0.768   3.006   1.023
  556SOL    HW1 1683   0.690   3.023   1.083
  556SOL    HW2 1684   0.802   3.093   0.987
  557SOL     OW 1685   0.850   2.660   1.823
  557SOL    HW1 1686   0.846   2.736   1.888
  557SOL    HW2 1687   0.872   2.696   1.732
  558SOL     OW 1688   0.685   2.874   0.665
  558SOL    HW1 1689   0.754   2.858   0.735
  558SOL    HW2 1690   0.612   2.931   0.703
  559SOL     OW 1691   0.686   3.023   1.803
  559SOL    HW1 1692   0.746   3.102   1.817
  559SOL    HW2 1693   0.600   3.054   1.762
  560SOL     OW 1694   0.335   3.297   1.061
  560SOL    HW1 1695   0.257   3.266   1.008
  560SOL    HW2 1696   0.393   3.355   1.004
  561SOL     OW 1697   1.460   3.367   1.339
  561SOL    HW1 1698   1.484   3.461   1.365
  561SOL    HW2 1699   1.444   3.313   1.421
  562SOL     OW 1700   0.438   2.254   1.499
  562SOL    HW1 1701   0.520   2.198   1.508
  562SOL    HW2 1702   0.357   2.196   1.503
  563SOL     OW 1703   1.603   2.309   0.737
  563SOL    HW1 1704   1.529   2.355   0.687
  563SOL    HW2 1705   1.654   2.377   0.790
  564SOL     OW 1706   0.231   3.575   0.483
  564SOL    HW1 1707   0.265   3.652   0.537
  564SOL    HW2 1708   0.275   3.575   0.393
  565SOL     OW 1709   1.127   3.203   1.690
  565SOL    HW1 1710   1.174   3.203   1.778
  565SOL    HW2 1711   1.079   3.116   1.679
  566SOL     OW 1712   0.230   3.296   0.538
  566SOL    HW1 1713   0.204   3.392   0.538
  566SOL    HW2 1714   0.159   3.242   0.583
  567SOL     OW 1715   0.240   2.953   0.886
  567SOL    HW1 1716   0.254   2.869   0.938
  567SOL    HW2 1717   0.185   3.017   0.941
  568SOL     OW 1718   0.620   3.648   1.439
  568SOL    HW1 1719   0.528   3.631   1.474
  568SOL    HW2 1720   0.648   3.740   1.465
  569SOL     OW 1721   0.606   2.826   0.123
  569SOL    HW1 1722   0.613   2.910   0.069
  569SOL    HW2 1723   0.652   2.839   0.211
  570SOL     OW 1724   1.594   1.976   1.480
  570SOL    HW1 1725   1.576   2.043   1.408
  570SOL    HW2 1726   1.591   2.022   1.569
  571SOL     OW 1727   0.122   2.505   0.563
  571SOL    HW1 1728   0.077   2.417   0.580
  571SOL    HW2 1729   0.121   2.559   0.647
  572SOL     OW 1730   1.842   3.629   0.359
  572SOL    HW1 1731   1.896   3.600   0.439
  572SOL    HW2 1732   1.872   3.719   0.330
  573SOL     OW 1733   0.027   3.458   0.117
  573SOL    HW1 1734   0.008   3.362   0.138
  573SOL    HW2 1735  -0.006   3.516   0.192
  574SOL     OW 1736   1.689   2.784   0.612
  574SOL    HW1 1737   1.784   2.755   0.620
  574SOL    HW2 1738   1.681   2.849   0.537
  575SOL     OW 1739   1.641   2.970   0.432
  575SOL    HW1 1740   1.727   2.972   0.380
  575SOL    HW2 1741   1.655   3.017   0.520
  576SOL     OW 1742   0.113   2.599   1.597
  576SOL    HW1 1743   0.201   2.586   1.642
  576SOL    HW2 1744   0.100   2.696   1.575
  577SOL     OW 1745   0.613   3.227   0.726
  577SOL    HW1 1746   0.564   3.140   0.735
  577SOL    HW2 1747   0.590   3.270   0.639
  578SOL     OW 1748   1.293   3.090   1.423
  578SOL    HW1 1749   1.330   3.017   1.365
  578SOL    HW2 1750   1.345   3.095   1.508
  579SOL     OW 1751   0.809   1.866   0.502
  579SOL    HW1 1752   0.849   1.957   0.493
  579SOL    HW2 1753   0.709   1.874   0.508
  580SOL     OW 1754   0.197   2.838   1.264
  580SOL    HW1 1755   0.286   2.793   1.250
  580SOL    HW2 1756   0.124   2.773   1.245
  581SOL     OW 1757   1.525   2.861   0.190
  581SOL    HW1 1758   1.462   2.785   0.203
  581SOL    HW2 1759   1.573   2.879   0.276
  582SOL     OW 1760   1.187   3.654   1.616
  582SOL    HW1 1761   1.211   3.714   1.540
  582SOL    HW2 1762   1.194   3.559   1.586
  583SOL     OW 1763   0.317   2.113   1.801
  583SOL    HW1 1764   0.388   2.184   1.807
  583SOL    HW2 1765   0.229   2.152   1.829
  584SOL     OW 1766   1.466   3.279   0.953
  584SOL    HW1 1767   1.407   3.285   1.033
  584SOL    HW2 1768   1.451   3.191   0.907
  585SOL     OW 1769   1.667   3.576   0.572
  585SOL    HW1 1770   1.626   3.553   0.484
  585SOL    HW2 1771   1.649   3.502   0.637
  586SOL     OW 1772   0.598   2.591   0.270
  586SOL    HW1 1773   0.622   2.660   0.202
  586SOL    HW2 1774   0.520   2.624   0.324
  587SOL     OW 1775   1.281   2.207   0.944
  587SOL    HW1 1776   1.195   2.157   0.931
  587SOL    HW2 1777   1.343   2.153   1.000
  588SOL     OW 1778   1.576   3.524   0.307
  588SOL    HW1 1779   1.665   3.570   0.310
  588SOL    HW2 1780   1.555   3.500   0.212
  589SOL     OW 1781   0.807   2.467   1.465
  589SOL    HW1 1782   0.760   2.464   1.554
  589SOL    HW2 1783   0.756   2.412   1.399
  590SOL     OW 1784   1.394   2.331   1.674
  590SOL    HW1 1785   1.374   2.374   1.762
  590SOL    HW2 1786   1.472   2.269   1.683
  591SOL     OW 1787   0.973   2.752   1.572
  591SOL    HW1 1788   1.019   2.668   1.543
  591SOL    HW2 1789   0.917   2.786   1.497
  592SOL     OW 1790   0.991   2.272   1.242
  592SOL    HW1 1791   0.914   2.306   1.296
  592SOL    HW2 1792   0.957   2.221   1.163
  593SOL     OW 1793   1.041   2.563   0.429
  593SOL    HW1 1794   1.067   2.559   0.525
  593SOL    HW2 1795   0.956   2.512   0.415
  594SOL     OW 1796   0.076   2.673   0.789
  594SOL    HW1 1797   0.175   2.661   0.798
  594SOL    HW2 1798   0.052   2.768   0.810
  595SOL     OW 1799   0.130   3.683   1.571
  595SOL    HW1 1800   0.120   3.668   1.670
  595SOL    HW2 1801   0.044   3.719   1.535
  596SOL     OW 1802   0.865   2.210   0.195
  596SOL    HW1 1803   0.924   2.273   0.146
  596SOL    HW2 1804   0.884   2.116   0.166
  597SOL     OW 1805   1.719   2.447   1.831
  597SOL    HW1 1806   1.693   2.536   1.795
  597SOL    HW2 1807   1.717   2.379   1.758
  598SOL     OW 1808   1.362   3.006   0.545
  598SOL    HW1 1809   1.445   2.977   0.497
  598SOL    HW2 1810   1.313   3.073   0.489
  599SOL     OW 1811   0.550   2.058   0.885
  599SOL    HW1 1812   0.545   2.053   0.985
  599SOL    HW2 1813   0.552   2.154   0.856
  600SOL     OW 1814   1.008   3.318   0.477
  600SOL    HW1 1815   0.962   3.390   0.425
  600SOL    HW2 1816   1.004   3.338   0.575
  601SOL     OW 1817   0.351   3.663   0.853
  601SOL    HW1 1818   0.401   3.577   0.859
  601SOL    HW2 1819   0.416   3.740   0.850
  602SOL     OW 1820   1.795   2.928   0.873
  602SOL    HW1 1821   1.733   2.913   0.797
  602SOL    HW2 1822   1.743   2.939   0.958
  603SOL     OW 1823   1.227   3.412   1.506
  603SOL    HW1 1824   1.233   3.335   1.570
  603SOL    HW2 1825   1.175   3.386   1.426
  604SOL     OW 1826   0.321   2.805   0.242
  604SOL    HW1 1827   0.403   2.844   0.200
  604SOL    HW2 1828   0.294   2.723   0.193
  605SOL     OW 1829   1.458   2.597   0.728
  605SOL    HW1 1830   1.453   2.532   0.803
  605SOL    HW2 1831   1.538   2.656   0.741
  606SOL     OW 1832   0.461   3.128   1.727
  606SOL    HW1 1833   0.411   3.129   1.641
  606SOL    HW2 1834   0.398   3.110   1.803
  607SOL     OW 1835   1.111   3.638   0.237
  607SOL    HW1 1836   1.051   3.576   0.287
  607SOL    HW2 1837   1.142   3.594   0.152
  608SOL     OW 1838   0.202   2.147   1.498
  608SOL    HW1 1839   0.122   2.207   1.485
  608SOL    HW2 1840   0.192   2.098   1.584
  609SOL     OW 1841   1.632   3.239   0.081
  609SOL    HW1 1842   1.600   3.333   0.071
  609SOL    HW2 1843   1.556   3.176   0.069
  610SOL     OW 1844   0.464   3.605   0.323
  610SOL    HW1 1845   0.497   3.644   0.409
  610SOL    HW2 1846   0.540   3.598   0.258
  611SOL     OW 1847   1.400   1.969   0.426
  611SOL    HW1 1848   1.376   1.932   0.336
  611SOL    HW2 1849   1.499   1.985   0.430
  612SOL     OW 1850   0.249   3.647   1.241
  612SOL    HW1 1851   0.306   3.582   1.291
  612SOL    HW2 1852   0.233   3.614   1.148
  613SOL     OW 1853   0.940   3.560   0.904
  613SOL    HW1 1854   1.020   3.503   0.925
  613SOL    HW2 1855   0.891   3.520   0.827
  614SOL     OW 1856   0.382   2.562   0.480
  614SOL    HW1 1857   0.427   2.472   0.477
  614SOL    HW2 1858   0.288   2.551   0.513
  615SOL     OW 1859   1.547   2.084   1.729
  615SOL    HW1 1860   1.542   2.121   1.821
  615SOL    HW2 1861   1.475   2.015   1.717
  616SOL     OW 1862   0.614   1.984   0.117
  616SOL    HW1 1863   0.712   1.962   0.124
  616SOL    HW2 1864   0.583   1.967   0.024
  617SOL     OW 1865   0.781   2.126   1.749
  617SOL    HW1 1866   0.848   2.065   1.792
  617SOL    HW2 1867   0.708   2.145   1.814
  618SOL     OW 1868   0.888   3.376   1.195
  618SOL    HW1 1869   0.865   3.351   1.101
  618SOL    HW2 1870   0.949   3.307   1.234
  619SOL     OW 1871   1.351   2.452   1.433
  619SOL    HW1 1872   1.379   2.409   1.518
  619SOL    HW2 1873   1.376   2.548   1.434
  620SOL     OW 1874   0.803   3.264   0.924
  620SOL    HW1 1875   0.893   3.278   0.882
  620SOL    HW2 1876   0.732   3.266   0.853
  621SOL     OW 1877   0.922   2.365   0.899
  621SOL    HW1 1878   0.897   2.356   0.803
  621SOL    HW2 1879   0.970   2.283   0.930
  622SOL     OW 1880   0.539   1.926   0.512
  622SOL    HW1 1881   0.458   1.927   0.570
  622SOL    HW2 1882   0.542   2.009   0.457
  623SOL     OW 1883   1.434   3.050   0.041
  623SOL    HW1 1884   1.466   2.974   0.098
  623SOL    HW2 1885   1.342   3.077   0.071
  624SOL     OW 1886   0.935   2.098   0.480
  624SOL    HW1 1887   0.887   2.139   0.402
  624SOL    HW2 1888   1.034   2.096   0.461
  625SOL     OW 1889   1.076   2.545   1.464
  625SOL    HW1 1890   0.996   2.484   1.467
  625SOL    HW2 1891   1.157   2.492   1.440
  626SOL     OW 1892   1.227   3.432   0.793
  626SOL    HW1 1893   1.248   3.506   0.728
  626SOL    HW2 1894   1.295   3.432   0.866
  627SOL     OW 1895   0.459   3.014   0.741
  627SOL    HW1 1896   0.388   2.987   0.806
  627SOL    HW2 1897   0.433   2.986   0.648
  628SOL     OW 1898   1.271   3.659   0.591
  628SOL    HW1 1899   1.315   3.723   0.527
  628SOL    HW2 1900   1.221   3.711   0.661
  629SOL     OW 1901   1.032   2.411   0.016
  629SOL    HW1 1902   0.991   2.493  -0.023
  629SOL    HW2 1903   1.096   2.437   0.089
  630SOL     OW 1904   0.078   2.418   1.386
  630SOL    HW1 1905   0.170   2.417   1.345
  630SOL    HW2 1906   0.072   2.492   1.453
  631SOL     OW 1907   0.561   2.084   1.147
  631SOL    HW1 1908   0.599   2.000   1.184
  631SOL    HW2 1909   0.473   2.103   1.191
  632SOL     OW 1910   0.866   2.316   0.642
  632SOL    HW1 1911   0.834   2.388   0.580
  632SOL    HW2 1912   0.890   2.235   0.589
  633SOL     OW 1913   1.017   1.901   0.753
  633SOL    HW1 1914   0.945   1.906   0.684
  633SOL    HW2 1915   0.993   1.832   0.822
  634SOL     OW 1916   1.429   3.035   0.867
  634SOL    HW1 1917   1.374   2.951   0.860
  634SOL    HW2 1918   1.455   3.064   0.775
  635SOL     OW 1919   1.466   2.452   0.992
  635SOL    HW1 1920   1.436   2.357   0.999
  635SOL    HW2 1921   1.539   2.468   1.058
  636SOL     OW 1922   1.857   2.695   0.377
  636SOL    HW1 1923   1.899   2.631   0.441
  636SOL    HW2 1924   1.819   2.644   0.299
  637SOL     OW 1925   0.488   3.247   0.174
  637SOL    HW1 1926   0.401   3.232   0.221
  637SOL    HW2 1927   0.471   3.273   0.079
  638SOL     OW 1928   1.664   3.142   0.657
  638SOL    HW1 1929   1.763   3.150   0.671
  638SOL    HW2 1930   1.619   3.226   0.688
  639SOL     OW 1931   1.390   2.437   0.078
  639SOL    HW1 1932   1.336   2.416   0.159
  639SOL    HW2 1933   1.481   2.396   0.087
  640SOL     OW 1934   0.527   2.118   0.328
  640SOL    HW1 1935   0.554   2.059   0.253
  640SOL    HW2 1936   0.527   2.213   0.297
  641SOL     OW 1937   1.754   3.085   1.588
  641SOL    HW1 1938   1.845   3.046   1.575
  641SOL    HW2 1939   1.762   3.181   1.612
  642SOL     OW 1940   1.064   3.209   1.340
  642SOL    HW1 1941   0.984   3.186   1.395
  642SOL    HW2 1942   1.147   3.183   1.389
  643SOL     OW 1943   1.592   3.491   1.625
  643SOL    HW1 1944   1.619   3.525   1.535
  643SOL    HW2 1945   1.671   3.453   1.671
  644SOL     OW 1946   1.111   3.057   1.100
  644SOL    HW1 1947   1.071   3.101   1.181
  644SOL    HW2 1948   1.070   3.094   1.017
  645SOL     OW 1949   1.638   2.961   1.079
  645SOL    HW1 1950   1.643   3.042   1.138
  645SOL    HW2 1951   1.552   2.963   1.028
  646SOL     OW 1952   0.915   1.951   1.402
  646SOL    HW1 1953   0.940   1.931   1.307
  646SOL    HW2 1954   0.987   2.007   1.444
  647SOL     OW 1955   0.980   2.978   1.719
  647SOL    HW1 1956   0.881   2.984   1.729
  647SOL    HW2 1957   1.003   2.898   1.663
  648SOL     OW 1958   0.705   2.912   0.368
  648SOL    HW1 1959   0.691   2.919   0.467
  648SOL    HW2 1960   0.789   2.861   0.350
  649SOL     OW 1961   0.410   2.675   1.251
  649SOL    HW1 1962   0.496   2.687   1.301
  649SOL    HW2 1963   0.368   2.588   1.278
  650SOL     OW 1964   1.274   2.248   1.262
  650SOL    HW1 1965   1.295   2.322   1.326
  650SOL    HW2 1966   1.185   2.265   1.219
  651SOL     OW 1967   0.064   3.426   1.331
  651SOL    HW1 1968   0.018   3.508   1.297
  651SOL    HW2 1969   0.162   3.445   1.340
  652SOL     OW 1970   0.367   2.962   0.501
  652SOL    HW1 1971   0.360   3.045   0.445
  652SOL    HW2 1972   0.371   2.882   0.441
  653SOL     OW 1973   0.566   2.399   0.865
  653SOL    HW1 1974   0.578   2.465   0.791
  653SOL    HW2 1975   0.612   2.433   0.948
  654SOL     OW 1976   1.252   3.210   0.388
  654SOL    HW1 1977   1.302   3.287   0.428
  654SOL    HW2 1978   1.157   3.212   0.420
  655SOL     OW 1979   1.272   3.307   1.142
  655SOL    HW1 1980   1.319   3.320   1.229
  655SOL    HW2 1981   1.206   3.233   1.151
  656SOL     OW 1982   1.582   2.501   0.472
  656SOL    HW1 1983   1.551   2.562   0.545
  656SOL    HW2 1984   1.632   2.553   0.403
  657SOL     OW 1985   0.354   3.372   1.329
  657SOL    HW1 1986   0.333   3.328   1.242
  657SOL    HW2 1987   0.451   3.398   1.332
  658SOL     OW 1988   0.402   2.613   1.598
  658SOL    HW1 1989   0.470   2.668   1.551
  658SOL    HW2 1990   0.442   2.525   1.625
  659SOL     OW 1991   1.587   2.641   1.670
  659SOL    HW1 1992   1.495   2.679   1.665
  659SOL    HW2 1993   1.647   2.688   1.605
  660SOL     OW 1994   1.013   1.967   1.770
  660SOL    HW1 1995   1.019   2.052   1.718
  660SOL    HW2 1996   1.045   1.891   1.713
  661SOL     OW 1997   0.504   1.912   1.740
  661SOL    HW1 1998   0.462   1.855   1.670
  661SOL    HW2 1999   0.438   1.981   1.772
  662SOL     OW 2000   0.573   2.732   1.029
  662SOL    HW1 2001   0.617   2.821   1.020
  662SOL    HW2 2002   0.510   2.732   1.106
  663SOL     OW 2003   1.360   2.724   1.045
  663SOL    HW1 2004   1.285   2.724   0.979
  663SOL    HW2 2005   1.397   2.632   1.054
  664SOL     OW 2006   1.209   2.387   0.275
  664SOL    HW1 2007   1.222   2.303   0.329
  664SOL    HW2 2008   1.180   2.461   0.335
  665SOL     OW 2009   0.307   2.075   1.231
  665SOL    HW1 2010   0.284   2.112   1.321
  665SOL    HW2 2011   0.277   1.980   1.225
  666SOL     OW 2012   0.037   3.172   1.282
  666SOL    HW1 2013   0.090   3.123   1.350
  666SOL    HW2 2014   0.059   3.270   1.287
  667SOL     OW 2015   0.732   2.496   1.064
  667SOL    HW1 2016   0.791   2.470   0.988
  667SOL    HW2 2017   0.704   2.592   1.053
  668SOL     OW 2018   1.728   2.797   1.854
  668SOL    HW1 2019   1.682   2.790   1.765
  668SOL    HW2 2020   1.666   2.841   1.920
  669SOL     OW 2021   0.307   1.925   0.618
  669SOL    HW1 2022   0.296   2.019   0.651
  669SOL    HW2 2023   0.302   1.862   0.695
  670SOL     OW 2024   1.622   2.229   0.374
  670SOL    HW1 2025   1.624   2.153   0.438
  670SOL    HW2 2026   1.574   2.306   0.414
  671SOL     OW 2027   1.023   2.628   0.966
  671SOL    HW1 2028   1.038   2.649   1.062
  671SOL    HW2 2029   0.993   2.533   0.957
  672SOL     OW 2030   0.980   3.435   1.700
  672SOL    HW1 2031   0.960   3.479   1.612
  672SOL    HW2 2032   1.019   3.344   1.684
  673SOL     OW 2033   1.859   3.380   1.605
  673SOL    HW1 2034   1.873   3.407   1.510
  673SOL    HW2 2035   1.942   3.402   1.658
  674SOL     OW 2036   0.350   2.760   1.804
  674SOL    HW1 2037   0.426   2.804   1.852
  674SOL    HW2 2038   0.385   2.713   1.722
  675SOL     OW 2039   1.540   2.136   0.125
  675SOL    HW1 2040   1.479   2.061   0.148
  675SOL    HW2 2041   1.562   2.188   0.208
  676SOL     OW 2042   1.303   2.700   0.042
  676SOL    HW1 2043   1.337   2.607   0.057
  676SOL    HW2 2044   1.321   2.727  -0.053
  677SOL     OW 2045   1.068   3.195   0.849
  677SOL    HW1 2046   1.075   3.111   0.794
  677SOL    HW2 2047   1.130   3.264   0.813
  678SOL     OW 2048   0.319   2.672   0.949
  678SOL    HW1 2049   0.412   2.708   0.954
  678SOL    HW2 2050   0.313   2.587   1.001
  679SOL     OW 2051   0.339   2.371   1.006
  679SOL    HW1 2052   0.287   2.288   0.989
  679SOL    HW2 2053   0.416   2.376   0.942
  680SOL     OW 2054   1.138   2.242   1.678
  680SOL    HW1 2055   1.093   2.305   1.742
  680SOL    HW2 2056   1.231   2.273   1.661
  681SOL     OW 2057   1.160   2.069   1.477
  681SOL    HW1 2058   1.160   2.133   1.554
  681SOL    HW2 2059   1.188   2.117   1.394
  682SOL     OW 2060   0.008   3.188   0.200
  682SOL    HW1 2061  -0.085   3.209   0.169
  682SOL    HW2 2062   0.018   3.089   0.213
  683SOL     OW 2063   0.088   3.663   0.927
  683SOL    HW1 2064   0.046   3.577   0.900
  683SOL    HW2 2065   0.182   3.666   0.893
  684SOL     OW 2066   0.504   3.430   0.910
  684SOL    HW1 2067   0.570   3.504   0.919
  684SOL    HW2 2068   0.548   3.351   0.868
  685SOL     OW 2069   1.002   2.658   1.238
  685SOL    HW1 2070   1.043   2.626   1.324
  685SOL    HW2 2071   0.906   2.631   1.235
  686SOL     OW 2072   0.040   2.406   1.114
  686SOL    HW1 2073   0.125   2.373   1.073
  686SOL    HW2 2074   0.053   2.421   1.212
  687SOL     OW 2075   0.189   2.382   1.722
  687SOL    HW1 2076   0.248   2.342   1.652
  687SOL    HW2 2077   0.131   2.453   1.681
  688SOL     OW 2078   1.369   2.812   1.660
  688SOL    HW1 2079   1.408   2.901   1.680
  688SOL    HW2 2080   1.379   2.792   1.563
  689SOL     OW 2081   0.815   2.434   0.325
  689SOL    HW1 2082   0.822   2.345   0.279
  689SOL    HW2 2083   0.721   2.468   0.317
  690SOL     OW 2084   1.657   2.466   1.206
  690SOL    HW1 2085   1.619   2.397   1.268
  690SOL    HW2 2086   1.739   2.430   1.162
  691SOL     OW 2087   0.252   3.426   1.744
  691SOL    HW1 2088   0.222   3.483   1.820
  691SOL    HW2 2089   0.245   3.329   1.770
  692SOL     OW 2090   0.671   2.326   1.269
  692SOL    HW1 2091   0.637   2.237   1.239
  692SOL    HW2 2092   0.697   2.380   1.189
  693SOL     OW 2093   0.930   3.540   1.465
  693SOL    HW1 2094   0.906   3.522   1.370
  693SOL    HW2 2095   0.960   3.634   1.475
  694SOL     OW 2096   0.473   2.362   0.191
  694SOL    HW1 2097   0.534   2.442   0.195
  694SOL    HW2 2098   0.378   2.393   0.198
  695SOL     OW 2099   0.159   2.999   1.466
  695SOL    HW1 2100   0.181   2.938   1.542
  695SOL    HW2 2101   0.169   2.950   1.380
  696SOL     OW 2102   1.347   2.921   1.234
  696SOL    HW1 2103   1.371   2.858   1.160
  696SOL    HW2 2104   1.257   2.961   1.216
  697SOL     OW 2105   1.302   2.717   0.309
  697SOL    HW1 2106   1.216   2.686   0.351
  697SOL    HW2 2107   1.298   2.703   0.210
  698SOL     OW 2108   1.759   3.609   1.154
  698SOL    HW1 2109   1.820   3.639   1.081
  698SOL    HW2 2110   1.721   3.520   1.132
  699SOL     OW 2111   1.252   3.593   1.128
  699SOL    HW1 2112   1.336   3.598   1.074
  699SOL    HW2 2113   1.229   3.497   1.146
  700SOL     OW 2114   0.083   3.120   1.022
  700SOL    HW1 2115   0.078   3.119   1.122
  700SOL    HW2 2116   0.000   3.079   0.984
  701SOL     OW 2117   0.688   3.524   1.716
  701SOL    HW1 2118   0.632   3.605   1.725
  701SOL    HW2 2119   0.740   3.528   1.630
  702SOL     OW 2120   0.903   1.948   0.133
  702SOL    HW1 2121   0.954   1.949   0.047
  702SOL    HW2 2122   0.959   1.906   0.204
  703SOL     OW 2123   1.726   1.997   0.523
  703SOL    HW1 2124   1.799   1.980   0.456
  703SOL    HW2 2125   1.695   1.910   0.561
  704SOL     OW 2126   1.388   3.435   0.477
  704SOL    HW1 2127   1.455   3.447   0.403
  704SOL    HW2 2128   1.348   3.524   0.500
  705SOL     OW 2129   0.130   3.656   1.851
  705SOL    HW1 2130   0.089   3.582   1.904
  705SOL    HW2 2131   0.194   3.707   1.909
  706SOL     OW 2132   1.280   2.789   0.672
  706SOL    HW1 2133   1.340   2.708   0.674
  706SOL    HW2 2134   1.320   2.858   0.612
  707SOL     OW 2135   0.830   3.135   1.422
  707SOL    HW1 2136   0.825   3.168   1.517
  707SOL    HW2 2137   0.744   3.154   1.376
  708SOL     OW 2138   0.672   3.478   0.154
  708SOL    HW1 2139   0.681   3.488   0.055
  708SOL    HW2 2140   0.632   3.389   0.175
  709SOL     OW 2141   1.650   3.582   1.394
  709SOL    HW1 2142   1.703   3.592   1.310
  709SOL    HW2 2143   1.623   3.672   1.428
  710SOL     OW 2144   1.841   2.037   0.963
  710SOL    HW1 2145   1.880   1.952   0.927
  710SOL    HW2 2146   1.743   2.039   0.944
  711SOL     OW 2147   0.263   2.188   0.720
  711SOL    HW1 2148   0.184   2.239   0.686
  711SOL    HW2 2149   0.254   2.173   0.818
  712SOL     OW 2150   1.194   3.474   0.031
  712SOL    HW1 2151   1.200   3.381   0.068
  712SOL    HW2 2152   1.135   3.474  -0.049
  713SOL     OW 2153   0.822   2.864   1.372
  713SOL    HW1 2154   0.862   2.863   1.280
  713SOL    HW2 2155   0.832   2.956   1.412
  714SOL     OW 2156   0.916   2.772   0.291
  714SOL    HW1 2157   0.979   2.810   0.223
  714SOL    HW2 2158   0.956   2.689   0.330
  715SOL     OW 2159   1.504   3.469   0.044
  715SOL    HW1 2160   1.412   3.506   0.051
  715SOL    HW2 2161   1.542   3.489  -0.046
  716SOL     OW 2162   0.372   3.150   1.490
  716SOL    HW1 2163   0.359   3.243   1.456
  716SOL    HW2 2164   0.288   3.098   1.477
  717SOL     OW 2165   1.614   3.154   1.289
  717SOL    HW1 2166   1.674   3.157   1.369
  717SOL    HW2 2167   1.539   3.218   1.302
  718SOL     OW 2168   1.039   2.960   0.696
  718SOL    HW1 2169   0.969   2.913   0.750
  718SOL    HW2 2170   1.098   2.892   0.653
  719SOL     OW 2171   1.014   2.098   0.971
  719SOL    HW1 2172   1.006   2.062   0.878
  719SOL    HW2 2173   1.012   2.022   1.036
  720SOL     OW 2174   0.590   3.349   0.491
  720SOL    HW1 2175   0.632   3.291   0.421
  720SOL    HW2 2176   0.546   3.428   0.447
  721SOL     OW 2177   1.709   2.247   1.381
  721SOL    HW1 2178   1.782   2.316   1.385
  721SOL    HW2 2179   1.737   2.172   1.322
  722SOL     OW 2180   0.255   3.210   0.290
  722SOL    HW1 2181   0.159   3.211   0.263
  722SOL    HW2 2182   0.267   3.263   0.374
  723SOL     OW 2183   0.105   2.875   1.726
  723SOL    HW1 2184   0.028   2.842   1.780
  723SOL    HW2 2185   0.190   2.845   1.768
  724SOL     OW 2186   0.672   2.065   1.489
  724SOL    HW1 2187   0.762   2.049   1.449
  724SOL    HW2 2188   0.680   2.070   1.588
  725SOL     OW 2189   0.075   2.207   0.033
  725SOL    HW1 2190  -0.017   2.179   0.004
  725SOL    HW2 2191   0.106   2.284  -0.023
  726SOL     OW 2192   1.440   2.718   1.398
  726SOL    HW1 2193   1.383   2.770   1.335
  726SOL    HW2 2194   1.536   2.730   1.374
  727SOL     OW 2195   0.072   2.028   0.318
  727SOL    HW1 2196   0.055   2.111   0.264
  727SOL    HW2 2197   0.162   1.991   0.296
  728SOL     OW 2198   1.183   3.197   0.119
  728SOL    HW1 2199   1.084   3.186   0.121
  728SOL    HW2 2200   1.217   3.212   0.212
  729SOL     OW 2201   0.613   2.704   1.431
  729SOL    HW1 2202   0.669   2.785   1.414
  729SOL    HW2 2203   0.672   2.624   1.434
  730SOL     OW 2204   1.493   3.629   0.959
  730SOL    HW1 2205   1.526   3.693   0.890
  730SOL    HW2 2206   1.559   3.623   1.034
  731SOL     OW 2207   0.716   2.427   1.708
  731SOL    HW1 2208   0.735   2.492   1.782
  731SOL    HW2 2209   0.776   2.347   1.717
  732SOL     OW 2210   1.450   3.082   1.633
  732SOL    HW1 2211   1.441   3.072   1.732
  732SOL    HW2 2212   1.546   3.075   1.607
  733SOL     OW 2213   0.390   3.603   1.560
  733SOL    HW1 2214   0.299   3.644   1.558
  733SOL    HW2 2215   0.383   3.509   1.592
  734SOL     OW 2216   1.674   2.745   1.254
  734SOL    HW1 2217   1.647   2.656   1.217
  734SOL    HW2 2218   1.675   2.813   1.181
  735SOL     OW 2219   1.225   2.187   0.449
  735SOL    HW1 2220   1.290   2.113   0.438
  735SOL    HW2 2221   1.245   2.237   0.533
  736SOL     OW 2222   0.594   2.607   0.652
  736SOL    HW1 2223   0.644   2.692   0.633
  736SOL    HW2 2224   0.506   2.609   0.604
  737SOL     OW 2225   1.777   2.204   1.642
  737SOL    HW1 2226   1.760   2.235   1.548
  737SOL    HW2 2227   1.693   2.167   1.680
  738SOL     OW 2228   1.730   2.796   1.517
  738SOL    HW1 2229   1.768   2.887   1.532
  738SOL    HW2 2230   1.722   2.779   1.418
  739SOL     OW 2231   0.859   3.236   0.016
  739SOL    HW1 2232   0.813   3.251   0.104
  739SOL    HW2 2233   0.903   3.321  -0.014
  740SOL     OW 2234   0.661   3.652   0.953
  740SOL    HW1 2235   0.615   3.740   0.940
  740SOL    HW2 2236   0.760   3.664   0.946
  741SOL     OW 2237   0.859   2.818   0.861
  741SOL    HW1 2238   0.913   2.749   0.909
  741SOL    HW2 2239   0.827   2.887   0.927
  742SOL     OW 2240   1.083   2.846   0.087
  742SOL    HW1 2241   1.060   2.899   0.005
  742SOL    HW2 2242   1.164   2.790   0.068
  743SOL     OW 2243   1.861   3.431   0.851
  743SOL    HW1 2244   1.790   3.419   0.781
  743SOL    HW2 2245   1.862   3.352   0.911
  744SOL     OW 2246   0.221   3.176   1.844
  744SOL    HW1 2247   0.156   3.103   1.823
  744SOL    HW2 2248   0.225   3.190   1.942
  745SOL     OW 2249   0.079   3.102   0.653
  745SOL    HW1 2250   0.078   3.055   0.741
  745SOL    HW2 2251   0.161   3.074   0.602
  746SOL     OW 2252   0.672   3.253   1.624
  746SOL    HW1 2253   0.594   3.203   1.662
  746SOL    HW2 2254   0.669   3.348   1.655
  747SOL     OW 2255   1.824   2.054   1.227
  747SOL    HW1 2256   1.820   1.964   1.271
  747SOL    HW2 2257   1.827   2.043   1.128
  748SOL     OW 2258   0.428   2.286   0.520
  748SOL    HW1 2259   0.458   2.214   0.458
  748SOL    HW2 2260   0.389   2.246   0.603
  749SOL     OW 2261   1.705   3.349   1.104
  749SOL    HW1 2262   1.612   3.324   1.077
  749SOL    HW2 2263   1.731   3.299   1.186
  750SOL     OW 2264   0.317   2.409   1.280
  750SOL    HW1 2265   0.355   2.350   1.352
  750SOL    HW2 2266   0.357   2.383   1.192
  751SOL     OW 2267   0.812   3.448   0.687
  751SOL    HW1 2268   0.844   3.458   0.593
  751SOL    HW2 2269   0.733   3.386   0.689
  752SOL     OW 2270   1.424   2.076   1.112
  752SOL    HW1 2271   1.476   2.011   1.167
  752SOL    HW2 2272   1.375   2.139   1.173
  753SOL     OW 2273   1.001   1.896   1.154
  753SOL    HW1 2274   0.938   1.824   1.123
  753SOL    HW2 2275   1.094   1.860   1.154
  754SOL     OW 2276   0.770   3.192   0.301
  754SOL    HW1 2277   0.724   3.105   0.318
  754SOL    HW2 2278   0.861   3.189   0.342
  755SOL     OW 2279   0.618   3.429   1.284
  755SOL    HW1 2280   0.613   3.511   1.341
  755SOL    HW2 2281   0.707   3.426   1.239
  756SOL     OW 2282   1.352   1.914   0.168
  756SOL    HW1 2283   1.387   1.873   0.084
  756SOL    HW2 2284   1.262   1.876   0.188
  757SOL     OW 2285   1.300   2.315   0.691
  757SOL    HW1 2286   1.241   2.395   0.695
  757SOL    HW2 2287   1.315   2.280   0.784
  758SOL     OW 2288   1.593   2.083   0.882
  758SOL    HW1 2289   1.509   2.082   0.936
  758SOL    HW2 2290   1.595   2.166   0.826
  759SOL     OW 2291   0.039   2.939   0.300
  759SOL    HW1 2292   0.138   2.928   0.291
  759SOL    HW2 2293  -0.001   2.853   0.332
  760SOL     OW 2294   0.875   3.508   0.337
  760SOL    HW1 2295   0.798   3.473   0.283
  760SOL    HW2 2296   0.843   3.579   0.399
  761SOL     OW 2297   0.230   2.490   1.975
  761SOL    HW1 2298   0.137   2.488   2.012
  761SOL    HW2 2299   0.231   2.451   1.883
  762SOL     OW 2300   0.225   2.137   2.858
  762SOL    HW1 2301   0.260   2.120   2.950
  762SOL    HW2 2302   0.137   2.092   2.846
  763SOL     OW 2303   0.019   2.230   2.509
  763SOL    HW1 2304  -0.063   2.273   2.548
  763SOL    HW2 2305  -0.009   2.157   2.446
  764SOL     OW 2306   0.569   3.137   3.027
  764SOL    HW1 2307   0.476   3.130   2.990
  764SOL    HW2 2308   0.580   3.226   3.071
  765SOL     OW 2309   1.555   3.373   2.565
  765SOL    HW1 2310   1.498   3.357   2.646
  765SOL    HW2 2311   1.496   3.383   2.485
  766SOL     OW 2312   1.135   2.565   2.579
  766SOL    HW1 2313   1.192   2.643   2.554
  766SOL    HW2 2314   1.075   2.591   2.655
  767SOL     OW 2315   1.755   2.469   2.093
  767SOL    HW1 2316   1.743   2.456   1.994
  767SOL    HW2 2317   1.725   2.388   2.142
  768SOL     OW 2318   0.768   3.006   2.885
  768SOL    HW1 2319   0.690   3.023   2.945
  768SOL    HW2 2320   0.802   3.093   2.849
  769SOL     OW 2321   0.850   2.660   3.685
  769SOL    HW1 2322   0.846   2.736   3.750
  769SOL    HW2 2323   0.872   2.696   3.594
  770SOL     OW 2324   0.685   2.874   2.527
  770SOL    HW1 2325   0.754   2.858   2.597
  770SOL    HW2 2326   0.612   2.931   2.565
  771SOL     OW 2327   0.686   3.023   3.665
  771SOL    HW1 2328   0.746   3.102   3.679
  771SOL    HW2 2329   0.600   3.054   3.624
  772SOL     OW 2330   0.335   3.297   2.923
  772SOL    HW1 2331   0.257   3.266   2.870
  772SOL    HW2 2332   0.393   3.355   2.866
  773SOL     OW 2333   1.460   3.367   3.201
  773SOL    HW1 2334   1.484   3.461   3.227
  773SOL    HW2 2335   1.444   3.313   3.283
  774SOL     OW 2336   0.438   2.254   3.361
  774SOL    HW1 2337   0.520   2.198   3.370
  774SOL    HW2 2338   0.357   2.196   3.365
  775SOL     OW 2339   1.603   2.309   2.599
  775SOL    HW1 2340   1.529   2.355   2.549
  775SOL    HW2 2341   1.654   2.377   2.652
  776SOL     OW 2342   0.231   3.575   2.345
  776SOL    HW1 2343   0.265   3.652   2.399
  776SOL    HW2 2344   0.275   3.575   2.255
  777SOL     OW 2345   1.127   3.203   3.552
  777SOL    HW1 2346   1.174   3.203   3.640
  777SOL    HW2 2347   1.079   3.116   3.541
  778SOL     OW 2348   0.230   3.296   2.400
  778SOL    HW1 2349   0.204   3.392   2.400
  778SOL    HW2 2350   0.159   3.242   2.445
  779SOL     OW 2351   0.240   2.953   2.748
  779SOL    HW1 2352   0.254   2.869   2.800
  779SOL    HW2 2353   0.185   3.017   2.803
  780SOL     OW 2354   0.620   3.648   3.301
  780SOL    HW1 2355   0.528   3.631   3.336
  780SOL    HW2 2356   0.648   3.740   3.327
  781SOL     OW 2357   0.606   2.826   1.985
  781SOL    HW1 2358   0.613   2.910   1.931
  781SOL    HW2 2359   0.652   2.839   2.073
  782SOL     OW 2360   1.594   1.976   3.342
  782SOL    HW1 2361   1.576   2.043   3.270
  782SOL    HW2 2362   1.591   2.022   3.431
  783SOL     OW 2363   0.122   2.505   2.425
  783SOL    HW1 2364   0.077   2.417   2.442
  783SOL    HW2 2365   0.121   2.559   2.509
  784SOL     OW 2366   1.842   3.629   2.221
  784SOL    HW1 2367   1.896   3.600   2.301
  784SOL    HW2 2368   1.872   3.719   2.192
  785SOL     OW 2369   0.027   3.458   1.979
  785SOL    HW1 2370   0.008   3.362   2.000
  785SOL    HW2 2371  -0.006   3.516   2.054
  786SOL     OW 2372   1.689   2.784   2.474
  786SOL    HW1 2373   1.784   2.755   2.482
  786SOL    HW2 2374   1.681   2.849   2.399
  787SOL     OW 2375   1.641   2.970   2.294
  787SOL    HW1 2376   1.727   2.972   2.242
  787SOL    HW2 2377   1.655   3.017   2.382
  788SOL     OW 2378   0.113   2.599   3.459
  788SOL    HW1 2379   0.201   2.586   3.504
  788SOL    HW2 2380   0.100   2.696   3.437
  789SOL     OW 2381   0.613   3.227   2.588
  789SOL    HW1 2382   0.564   3.140   2.597
  789SOL    HW2 2383   0.590   3.270   2.501
  790SOL     OW 2384   1.293   3.090   3.285
  790SOL    HW1 2385   1.330   3.017   3.227
  790SOL    HW2 2386   1.345   3.095   3.370
  791SOL     OW 2387   0.809   1.866   2.364
  791SOL    HW1 2388   0.849   1.957   2.355
  791SOL    HW2 2389   0.709   1.874   2.370
  792SOL     OW 2390   0.197   2.838   3.126
  792SOL    HW1 2391   0.286   2.793   3.112
  792SOL    HW2 2392   0.124   2.773   3.107
  793SOL     OW 2393   1.525   2.861   2.052
  793SOL    HW1 2394   1.462   2.785   2.065
  793SOL    HW2 2395   1.573   2.879   2.138
  794SOL     OW 2396   1.187   3.654   3.478
  794SOL    HW1 2397   1.211   3.714   3.402
  794SOL    HW2 2398   1.194   3.559   3.448
  795SOL     OW 2399   0.317   2.113   3.663
  795SOL    HW1 2400   0.388   2.184   3.669
  795SOL    HW2 2401   0.229   2.152   3.691
  796SOL     OW 2402   1.466   3.279   2.815
  796SOL    HW1 2403   1.407   3.285   2.895
  796SOL    HW2 2404   1.451   3.191   2.769
  797SOL     OW 2405   1.667   3.576   2.434
  797SOL    HW1 2406   1.626   3.553   2.346
  797SOL    HW2 2407   1.649   3.502   2.499
  798SOL     OW 2408   0.598   2.591   2.132
  798SOL    HW1 2409   0.622   2.660   2.064
  798SOL    HW2 2410   0.520   2.624   2.186
  799SOL     OW 2411   1.281   2.207   2.806
  799SOL    HW1 2412   1.195   2.157   2.793
  799SOL    HW2 2413   1.343   2.153   2.862
  800SOL     OW 2414   1.576   3.524   2.169
  800SOL    HW1 2415   1.665   3.570   2.172
  800SOL    HW2 2416   1.555   3.500   2.074
  801SOL     OW 2417   0.807   2.467   3.327
  801SOL    HW1 2418   0.760   2.464   3.416
  801SOL    HW2 2419   0.756   2.412   3.261
  802SOL     OW 2420   1.394   2.331   3.536
  802SOL    HW1 2421   1.374   2.374   3.624
  802SOL    HW2 2422   1.472   2.269   3.545
  803SOL     OW 2423   0.973   2.752   3.434
  803SOL    HW1 2424   1.019   2.668   3.405
  803SOL    HW2 2425   0.917   2.786   3.359
  804SOL     OW 2426   0.991   2.272   3.104
  804SOL    HW1 2427   0.914   2.306   3.158
  804SOL    HW2 2428   0.957   2.221   3.025
  805SOL     OW 2429   1.041   2.563   2.291
  805SOL    HW1 2430   1.067   2.559   2.387
  805SOL    HW2 2431   0.956   2.512   2.277
  806SOL     OW 2432   0.076   2.673   2.651
  806SOL    HW1 2433   0.175   2.661   2.660
  806SOL    HW2 2434   0.052   2.768   2.672
  807SOL     OW 2435   0.130   3.683   3.433
  807SOL    HW1 2436   0.120   3.668   3.532
  807SOL    HW2 2437   0.044   3.719   3.397
  808SOL     OW 2438   0.865   2.210   2.057
  808SOL    HW1 2439   0.924   2.273   2.008
  808SOL    HW2 2440   0.884   2.116   2.028
  809SOL     OW 2441   1.719   2.447   3.693
  809SOL    HW1 2442   1.693   2.536   3.657
  809SOL    HW2 2443   1.717   2.379   3.620
  810SOL     OW 2444   1.362   3.006   2.407
  810SOL    HW1 2445   1.445   2.977   2.359
  810SOL    HW2 2446   1.313   3.073   2.351
  811SOL     OW 2447   0.550   2.058   2.747
  811SOL    HW1 2448   0.545   2.053   2.847
  811SOL    HW2 2449   0.552   2.154   2.718
  812SOL     OW 2450   1.008   3.318   2.339
  812SOL    HW1 2451   0.962   3.390   2.287
  812SOL    HW2 2452   1.004   3.338   2.437
  813SOL     OW 2453   0.351   3.663   2.715
  813SOL    HW1 2454   0.401   3.577   2.721
  813SOL    HW2 2455   0.416   3.740   2.712
  814SOL     OW 2456   1.795   2.928   2.735
  814SOL    HW1 2457   1.733   2.913   2.659
  814SOL    HW2 2458   1.743   2.939   2.820
  815SOL     OW 2459   1.227   3.412   3.368
  815SOL    HW1 2460   1.233   3.335   3.432
  815SOL    HW2 2461   1.175   3.386   3.288
  816SOL     OW 2462   0.321   2.805   2.104
  816SOL    HW1 2463   0.403   2.844   2.062
  816SOL    HW2 2464   0.294   2.723   2.055
  817SOL     OW 2465   1.458   2.597   2.590
  817SOL    HW1 2466   1.453   2.532   2.665
  817SOL    HW2 2467   1.538   2.656   2.603
  818SOL     OW 2468   0.461   3.128   3.589
  818SOL    HW1 2469   0.411   3.129   3.503
  818SOL    HW2 2470   0.398   3.110   3.665
  819SOL     OW 2471   1.111   3.638   2.099
  819SOL    HW1 2472   1.051   3.576   2.149
  819SOL    HW2 2473   1.142   3.594   2.014
  820SOL     OW 2474   0.202   2.147   3.360
  820SOL    HW1 2475   0.122   2.207   3.347
  820SOL    HW2 2476   0.192   2.098   3.446
  821SOL     OW 2477   1.632   3.239   1.943
  821SOL    HW1 2478   1.600   3.333   1.933
  821SOL    HW2 2479   1.556   3.176   1.931
  822SOL     OW 2480   0.464   3.605   2.185
  822SOL    HW1 2481   0.497   3.644   2.271
  822SOL    HW2 2482   0.540   3.598   2.120
  823SOL     OW 2483   1.400   1.969   2.288
  823SOL    HW1 2484   1.376   1.932   2.198
  823SOL    HW2 2485   1.499   1.985   2.292
  824SOL     OW 2486   0.249   3.647   3.103
  824SOL    HW1 2487   0.306   3.582   3.153
  824SOL    HW2 2488   0.233   3.614   3.010
  825SOL     OW 2489   0.940   3.560   2.766
  825SOL    HW1 2490   1.020   3.503   2.787
  825SOL    HW2 2491   0.891   3.520   2.689
  826SOL     OW 2492   0.382   2.562   2.342
  826SOL    HW1 2493   0.427   2.472   2.339
  826SOL    HW2 2494   0.288   2.551   2.375
  827SOL     OW 2495   1.547   2.084   3.591
  827SOL    HW1 2496   1.542   2.121   3.683
  827SOL    HW2 2497   1.475   2.015   3.579
  828SOL     OW 2498   0.614   1.984   1.979
  828SOL    HW1 2499   0.712   1.962   1.986
  828SOL    HW2 2500   0.583   1.967   1.886
  829SOL     OW 2501   0.781   2.126   3.611
  829SOL    HW1 2502   0.848   2.065   3.654
  829SOL    HW2 2503   0.708   2.145   3.676
  830SOL     OW 2504   0.888   3.376   3.057
  830SOL    HW1 2505   0.865   3.351   2.963
  830SOL    HW2 2506   0.949   3.307   3.096
  831SOL     OW 2507   1.351   2.452   3.295
  831SOL    HW1 2508   1.379   2.409   3.380
  831SOL    HW2 2509   1.376   2.548   3.296
  832SOL     OW 2510   0.803   3.264   2.786
  832SOL    HW1 2511   0.893   3.278   2.744
  832SOL    HW2 2512   0.732   3.266   2.715
  833SOL     OW 2513   0.922   2.365   2.761
  833SOL    HW1 2514   0.897   2.356   2.665
  833SOL    HW2 2515   0.970   2.283   2.792
  834SOL     OW 2516   0.539   1.926   2.374
  834SOL    HW1 2517   0.458   1.927   2.432
  834SOL    HW2 2518   0.542   2.009   2.319
  835SOL     OW 2519   1.434   3.050   1.903
  835SOL    HW1 2520   1.466   2.974   1.960
  835SOL    HW2 2521   1.342   3.077   1.933
  836SOL     OW 2522   0.297   1.897   2.033
  836SOL    HW1 2523   0.346   1.981   2.012
  836SOL    HW2 2524   0.359   1.832   2.078
  837SOL     OW 2525   0.935   2.098   2.342
  837SOL    HW1 2526   0.887   2.139   2.264
  837SOL    HW2 2527   1.034   2.096   2.323
  838SOL     OW 2528   1.076   2.545   3.326
  838SOL    HW1 2529   0.996   2.484   3.329
  838SOL    HW2 2530   1.157   2.492   3.302
  839SOL     OW 2531   1.227   3.432   2.655
  839SOL    HW1 2532   1.248   3.506   2.590
  839SOL    HW2 2533   1.295   3.432   2.728
  840SOL     OW 2534   0.459   3.014   2.603
  840SOL    HW1 2535   0.388   2.987   2.668
  840SOL    HW2 2536   0.433   2.986   2.510
  841SOL     OW 2537   1.271   3.659   2.453
  841SOL    HW1 2538   1.315   3.723   2.389
  841SOL    HW2 2539   1.221   3.711   2.523
  842SOL     OW 2540   1.032   2.411   1.878
  842SOL    HW1 2541   0.991   2.493   1.839
  842SOL    HW2 2542   1.096   2.437   1.951
  843SOL     OW 2543   0.078   2.418   3.248
  843SOL    HW1 2544   0.170   2.417   3.207
  843SOL    HW2 2545   0.072   2.492   3.315
  844SOL     OW 2546   0.561   2.084   3.009
  844SOL    HW1 2547   0.599   2.000   3.046
  844SOL    HW2 2548   0.473   2.103   3.053
  845SOL     OW 2549   0.866   2.316   2.504
  845SOL    HW1 2550   0.834   2.388   2.442
  845SOL    HW2 2551   0.890   2.235   2.451
  846SOL     OW 2552   1.017   1.901   2.615
  846SOL    HW1 2553   0.945   1.906   2.546
  846SOL    HW2 2554   0.993   1.832   2.684
  847SOL     OW 2555   1.429   3.035   2.729
  847SOL    HW1 2556   1.374   2.951   2.722
  847SOL    HW2 2557   1.455   3.064   2.637
  848SOL     OW 2558   1.466   2.452   2.854
  848SOL    HW1 2559   1.436   2.357   2.861
  848SOL    HW2 2560   1.539   2.468   2.920
  849SOL     OW 2561   1.857   2.695   2.239
  849SOL    HW1 2562   1.899   2.631   2.303
  849SOL    HW2 2563   1.819   2.644   2.161
  850SOL     OW 2564   0.488   3.247   2.036
  850SOL    HW1 2565   0.401   3.232   2.083
  850SOL    HW2 2566   0.471   3.273   1.941
  851SOL     OW 2567   1.664   3.142   2.519
  851SOL    HW1 2568   1.763   3.150   2.533
  851SOL    HW2 2569   1.619   3.226   2.550
  852SOL     OW 2570   1.390   2.437   1.940
  852SOL    HW1 2571   1.336   2.416   2.021
  852SOL    HW2 2572   1.481   2.396   1.949
  853SOL     OW 2573   0.527   2.118   2.190
  853SOL    HW1 2574   0.554   2.059   2.115
  853SOL    HW2 2575   0.527   2.213   2.159
  854SOL     OW 2576   1.754   3.085   3.450
  854SOL    HW1 2577   1.845   3.046   3.437
  854SOL    HW2 2578   1.762   3.181   3.474
  855SOL     OW 2579   1.064   3.209   3.202
  855SOL    HW1 2580   0.984   3.186   3.257
  855SOL    HW2 2581   1.147   3.183   3.251
  856SOL     OW 2582   1.592   3.491   3.487
  856SOL    HW1 2583   1.619   3.525   3.397
  856SOL    HW2 2584   1.671   3.453   3.533
  857SOL     OW 2585   1.111   3.057   2.962
  857SOL    HW1 2586   1.071   3.101   3.043
  857SOL    HW2 2587   1.070   3.094   2.879
  858SOL     OW 2588   1.638   2.961   2.941
  858SOL    HW1 2589   1.643   3.042   3.000
  858SOL    HW2 2590   1.552   2.963   2.890
  859SOL     OW 2591   0.915   1.951   3.264
  859SOL    HW1 2592   0.940   1.931   3.169
  859SOL    HW2 2593   0.987   2.007   3.306
  860SOL     OW 2594   0.980   2.978   3.581
  860SOL    HW1 2595   0.881   2.984   3.591
  860SOL    HW2 2596   1.003   2.898   3.525
  861SOL     OW 2597   0.705   2.912   2.230
  861SOL    HW1 2598   0.691   2.919   2.329
  861SOL    HW2 2599   0.789   2.861   2.212
  862SOL     OW 2600   0.410   2.675   3.113
  862SOL    HW1 2601   0.496   2.687   3.163
  862SOL    HW2 2602   0.368   2.588   3.140
  863SOL     OW 2603   1.274   2.248   3.124
  863SOL    HW1 2604   1.295   2.322   3.188
  863SOL    HW2 2605   1.185   2.265   3.081
  864SOL     OW 2606   0.064   3.426   3.193
  864SOL    HW1 2607   0.018   3.508   3.159
  864SOL    HW2 2608   0.162   3.445   3.202
  865SOL     OW 2609   0.367   2.962   2.363
  865SOL    HW1 2610   0.360   3.045   2.307
  865SOL    HW2 2611   0.371   2.882   2.303
  866SOL     OW 2612   0.566   2.399   2.727
  866SOL    HW1 2613   0.578   2.465   2.653
  866SOL    HW2 2614   0.612   2.433   2.810
  867SOL     OW 2615   1.252   3.210   2.250
  867SOL    HW1 2616   1.302   3.287   2.290
  867SOL    HW2 2617   1.157   3.212   2.282
  868SOL     OW 2618   1.272   3.307   3.004
  868SOL    HW1 2619   1.319   3.320   3.091
  868SOL    HW2 2620   1.206   3.233   3.013
  869SOL     OW 2621   1.582   2.501   2.334
  869SOL    HW1 2622   1.551   2.562   2.407
  869SOL    HW2 2623   1.632   2.553   2.265
  870SOL     OW 2624   0.354   3.372   3.191
  870SOL    HW1 2625   0.333   3.328   3.104
  870SOL    HW2 2626   0.451   3.398   3.194
  871SOL     OW 2627   0.402   2.613   3.460
  871SOL    HW1 2628   0.470   2.668   3.413
  871SOL    HW2 2629   0.442   2.525   3.487
  872SOL     OW 2630   1.587   2.641   3.532
  872SOL    HW1 2631   1.495   2.679   3.527
  872SOL    HW2 2632   1.647   2.688   3.467
  873SOL     OW 2633   1.013   1.967   3.632
  873SOL    HW1 2634   1.019   2.052   3.580
  873SOL    HW2 2635   1.045   1.891   3.575
  874SOL     OW 2636   0.504   1.912   3.602
  874SOL    HW1 2637   0.462   1.855   3.532
  874SOL    HW2 2638   0.438   1.981   3.634
  875SOL     OW 2639   0.573   2.732   2.891
  875SOL    HW1 2640   0.617   2.821   2.882
  875SOL    HW2 2641   0.510   2.732   2.968
  876SOL     OW 2642   1.360   2.724   2.907
  876SOL    HW1 2643   1.285   2.724   2.841
  876SOL    HW2 2644   1.397   2.632   2.916
  877SOL     OW 2645   1.209   2.387   2.137
  877SOL    HW1 2646   1.222   2.303   2.191
  877SOL    HW2 2647   1.180   2.461   2.197
  878SOL     OW 2648   0.307   2.075   3.093
  878SOL    HW1 2649   0.284   2.112   3.183
  878SOL    HW2 2650   0.277   1.980   3.087
  879SOL     OW 2651   0.037   3.172   3.144
  879SOL    HW1 2652   0.090   3.123   3.212
  879SOL    HW2 2653   0.059   3.270   3.149
  880SOL     OW 2654   0.732   2.496   2.926
  880SOL    HW1 2655   0.791   2.470   2.850
  880SOL    HW2 2656   0.704   2.592   2.915
  881SOL     OW 2657   1.728   2.797   3.716
  881SOL    HW1 2658   1.682   2.790   3.627
  881SOL    HW2 2659   1.666   2.841   3.782
  882SOL     OW 2660   0.307   1.925   2.480
  882SOL    HW1 2661   0.296   2.019   2.513
  882SOL    HW2 2662   0.302   1.862   2.557
  883SOL     OW 2663   1.622   2.229   2.236
  883SOL    HW1 2664   1.624   2.153   2.300
  883SOL    HW2 2665   1.574   2.306   2.276
  884SOL     OW 2666   1.023   2.628   2.828
  884SOL    HW1 2667   1.038   2.649   2.924
  884SOL    HW2 2668   0.993   2.533   2.819
  885SOL     OW 2669   0.980   3.435   3.562
  885SOL    HW1 2670   0.960   3.479   3.474
  885SOL    HW2 2671   1.019   3.344   3.546
  886SOL     OW 2672   1.859   3.380   3.467
  886SOL    HW1 2673   1.873   3.407   3.372
  886SOL    HW2 2674   1.942   3.402   3.520
  887SOL     OW 2675   0.350   2.760   3.666
  887SOL    HW1 2676   0.426   2.804   3.714
  887SOL    HW2 2677   0.385   2.713   3.584
  888SOL     OW 2678   1.540   2.136   1.987
  888SOL    HW1 2679   1.479   2.061   2.010
  888SOL    HW2 2680   1.562   2.188   2.070
  889SOL     OW 2681   1.303   2.700   1.904
  889SOL    HW1 2682   1.337   2.607   1.919
  889SOL    HW2 2683   1.321   2.727   1.809
  890SOL     OW 2684   1.068   3.195   2.711
  890SOL    HW1 2685   1.075   3.111   2.656
  890SOL    HW2 2686   1.130   3.264   2.675
  891SOL     OW 2687   0.319   2.672   2.811
  891SOL    HW1 2688   0.412   2.708   2.816
  891SOL    HW2 2689   0.313   2.587   2.863
  892SOL     OW 2690   0.339   2.371   2.868
  892SOL    HW1 2691   0.287   2.288   2.851
  892SOL    HW2 2692   0.416   2.376   2.804
  893SOL     OW 2693   1.138   2.242   3.540
  893SOL    HW1 2694   1.093   2.305   3.604
  893SOL    HW2 2695   1.231   2.273   3.523
  894SOL     OW 2696   1.160   2.069   3.339
  894SOL    HW1 2697   1.160   2.133   3.416
  894SOL    HW2 2698   1.188   2.117   3.256
  895SOL     OW 2699   0.008   3.188   2.062
  895SOL    HW1 2700  -0.085   3.209   2.031
  895SOL    HW2 2701   0.018   3.089   2.075
  896SOL     OW 2702   0.088   3.663   2.789
  896SOL    HW1 2703   0.046   3.577   2.762
  896SOL    HW2 2704   0.182   3.666   2.755
  897SOL     OW 2705   0.504   3.430   2.772
  897SOL    HW1 2706   0.570   3.504   2.781
  897SOL    HW2 2707   0.548   3.351   2.730
  898SOL     OW 2708   1.002   2.658   3.100
  898SOL    HW1 2709   1.043   2.626   3.186
  898SOL    HW2 2710   0.906   2.631   3.097
  899SOL     OW 2711   0.040   2.406   2.976
  899SOL    HW1 2712   0.125   2.373   2.935
  899SOL    HW2 2713   0.053   2.421   3.074
  900SOL     OW 2714   0.189   2.382   3.584
  900SOL    HW1 2715   0.248   2.342   3.514
  900SOL    HW2 2716   0.131   2.453   3.543
  901SOL     OW 2717   1.369   2.812   3.522
  901SOL    HW1 2718   1.408   2.901   3.542
  901SOL    HW2 2719   1.379   2.792   3.425
  902SOL     OW 2720   0.815   2.434   2.187
  902SOL    HW1 2721   0.822   2.345   2.141
  902SOL    HW2 2722   0.721   2.468   2.179
  903SOL     OW 2723   1.657   2.466   3.068
  903SOL    HW1 2724   1.619   2.397   3.130
  903SOL    HW2 2725   1.739   2.430   3.024
  904SOL     OW 2726   0.252   3.426   3.606
  904SOL    HW1 2727   0.222   3.483   3.682
  904SOL    HW2 2728   0.245   3.329   3.632
  905SOL     OW 2729   0.671   2.326   3.131
  905SOL    HW1 2730   0.637   2.237   3.101
  905SOL    HW2 2731   0.697   2.380   3.051
  906SOL     OW 2732   0.930   3.540   3.327
  906SOL    HW1 2733   0.906   3.522   3.232
  906SOL    HW2 2734   0.960   3.634   3.337
  907SOL     OW 2735   0.473   2.362   2.053
  907SOL    HW1 2736   0.534   2.442   2.057
  907SOL    HW2 2737   0.378   2.393   2.060
  908SOL     OW 2738   0.159   2.999   3.328
  908SOL    HW1 2739   0.181   2.938   3.404
  908SOL    HW2 2740   0.169   2.950   3.242
  909SOL     OW 2741   1.347   2.921   3.096
  909SOL    HW1 2742   1.371   2.858   3.022
  909SOL    HW2 2743   1.257   2.961   3.078
  910SOL     OW 2744   1.302   2.717   2.171
  910SOL    HW1 2745   1.216   2.686   2.213
  910SOL    HW2 2746   1.298   2.703   2.072
  911SOL     OW 2747   1.759   3.609   3.016
  911SOL    HW1 2748   1.820   3.639   2.943
  911SOL    HW2 2749   1.721   3.520   2.994
  912SOL     OW 2750   1.252   3.593   2.990
  912SOL    HW1 2751   1.336   3.598   2.936
  912SOL    HW2 2752   1.229   3.497   3.008
  913SOL     OW 2753   0.083   3.120   2.884
  913SOL    HW1 2754   0.078   3.119   2.984
  913SOL    HW2 2755   0.000   3.079   2.846
  914SOL     OW 2756   0.688   3.524   3.578
  914SOL    HW1 2757   0.632   3.605   3.587
  914SOL    HW2 2758   0.740   3.528   3.492
  915SOL     OW 2759   1.726   1.997   2.385
  915SOL    HW1 2760   1.799   1.980   2.318
  915SOL    HW2 2761   1.695   1.910   2.423
  916SOL     OW 2762   1.388   3.435   2.339
  916SOL    HW1 2763   1.455   3.447   2.265
  916SOL    HW2 2764   1.348   3.524   2.362
  917SOL     OW 2765   0.130   3.656   3.713
  917SOL    HW1 2766   0.089   3.582   3.766
  917SOL    HW2 2767   0.194   3.707   3.771
  918SOL     OW 2768   1.280   2.789   2.534
  918SOL    HW1 2769   1.340   2.708   2.536
  918SOL    HW2 2770   1.320   2.858   2.474
  919SOL     OW 2771   0.830   3.135   3.284
  919SOL    HW1 2772   0.825   3.168   3.379
  919SOL    HW2 2773   0.744   3.154   3.238
  920SOL     OW 2774   0.672   3.478   2.016
  920SOL    HW1 2775   0.681   3.488   1.917
  920SOL    HW2 2776   0.632   3.389   2.037
  921SOL     OW 2777   1.650   3.582   3.256
  921SOL    HW1 2778   1.703   3.592   3.172
  921SOL    HW2 2779   1.623   3.672   3.290
  922SOL     OW 2780   1.841   2.037   2.825
  922SOL    HW1 2781   1.880   1.952   2.789
  922SOL    HW2 2782   1.743   2.039   2.806
  923SOL     OW 2783   0.263   2.188   2.582
  923SOL    HW1 2784   0.184   2.239   2.548
  923SOL    HW2 2785   0.254   2.173   2.680
  924SOL     OW 2786   1.194   3.474   1.893
  924SOL    HW1 2787   1.200   3.381   1.930
  924SOL    HW2 2788   1.135   3.474   1.813
  925SOL     OW 2789   0.822   2.864   3.234
  925SOL    HW1 2790   0.862   2.863   3.142
  925SOL    HW2 2791   0.832   2.956   3.274
  926SOL     OW 2792   0.916   2.772   2.153
  926SOL    HW1 2793   0.979   2.810   2.085
  926SOL    HW2 2794   0.956   2.689   2.192
  927SOL     OW 2795   1.504   3.469   1.906
  927SOL    HW1 2796   1.412   3.506   1.913
  927SOL    HW2 2797   1.542   3.489   1.816
  928SOL     OW 2798   0.372   3.150   3.352
  928SOL    HW1 2799   0.359   3.243   3.318
  928SOL    HW2 2800   0.288   3.098   3.339
  929SOL     OW 2801   1.614   3.154   3.151
  929SOL    HW1 2802   1.674   3.157   3.231
  929SOL    HW2 2803   1.539   3.218   3.164
  930SOL     OW 2804   1.039   2.960   2.558
  930SOL    HW1 2805   0.969   2.913   2.612
  930SOL    HW2 2806   1.098   2.892   2.515
  931SOL     OW 2807   1.014   2.098   2.833
  931SOL    HW1 2808   1.006   2.062   2.740
  931SOL    HW2 2809   1.012   2.022   2.898
  932SOL     OW 2810   0.590   3.349   2.353
  932SOL    HW1 2811   0.632   3.291   2.283
  932SOL    HW2 2812   0.546   3.428   2.309
  933SOL     OW 2813   1.709   2.247   3.243
  933SOL    HW1 2814   1.782   2.316   3.247
  933SOL    HW2 2815   1.737   2.172   3.184
  934SOL     OW 2816   0.255   3.210   2.152
  934SOL    HW1 2817   0.159   3.211   2.125
  934SOL    HW2 2818   0.267   3.263   2.236
  935SOL     OW 2819   0.105   2.875   3.588
  935SOL    HW1 2820   0.028   2.842   3.642
  935SOL    HW2 2821   0.190   2.845   3.630
  936SOL     OW 2822   0.672   2.065   3.351
  936SOL    HW1 2823   0.762   2.049   3.311
  936SOL    HW2 2824   0.680   2.070   3.450
  937SOL     OW 2825   0.075   2.207   1.895
  937SOL    HW1 2826  -0.017   2.179   1.866
  937SOL    HW2 2827   0.106   2.284   1.839
  938SOL     OW 2828   1.440   2.718   3.260
  938SOL    HW1 2829   1.383   2.770   3.197
  938SOL    HW2 2830   1.536   2.730   3.236
  939SOL     OW 2831   0.072   2.028   2.180
  939SOL    HW1 2832   0.055   2.111   2.126
  939SOL    HW2 2833   0.162   1.991   2.158
  940SOL     OW 2834   1.183   3.197   1.981
  940SOL    HW1 2835   1.084   3.186   1.983
  940SOL    HW2 2836   1.217   3.212   2.074
  941SOL     OW 2837   0.613   2.704   3.293
  941SOL    HW1 2838   0.669   2.785   3.276
  941SOL    HW2 2839   0.672   2.624   3.296
  942SOL     OW 2840   1.493   3.629   2.821
  942SOL    HW1 2841   1.526   3.693   2.752
  942SOL    HW2 2842   1.559   3.623   2.896
  943SOL     OW 2843   0.716   2.427   3.570
  943SOL    HW1 2844   0.735   2.492   3.644
  943SOL    HW2 2845   0.776   2.347   3.579
  944SOL     OW 2846   1.450   3.082   3.495
  944SOL    HW1 2847   1.441   3.072   3.594
  944SOL    HW2 2848   1.546   3.075   3.469
  945SOL     OW 2849   0.390   3.603   3.422
  945SOL    HW1 2850   0.299   3.644   3.420
  945SOL    HW2 2851   0.383   3.509   3.454
  946SOL     OW 2852   1.674   2.745   3.116
  946SOL    HW1 2853   1.647   2.656   3.079
  946SOL    HW2 2854   1.675   2.813   3.043
  947SOL     OW 2855   1.225   2.187   2.311
  947SOL    HW1 2856   1.290   2.113   2.300
  947SOL    HW2 2857   1.245   2.237   2.395
  948SOL     OW 2858   0.594   2.607   2.514
  948SOL    HW1 2859   0.644   2.692   2.495
  948SOL    HW2 2860   0.506   2.609   2.466
  949SOL     OW 2861   1.777   2.204   3.504
  949SOL    HW1 2862   1.760   2.235   3.410
  949SOL    HW2 2863   1.693   2.167   3.542
  950SOL     OW 2864   1.730   2.796   3.379
  950SOL    HW1 2865   1.768   2.887   3.394
  950SOL    HW2 2866   1.722   2.779   3.280
  951SOL     OW 2867   0.859   3.236   1.878
  951SOL    HW1 2868   0.813   3.251   1.966
  951SOL    HW2 2869   0.903   3.321   1.848
  952SOL     OW 2870   0.661   3.652   2.815
  952SOL    HW1 2871   0.615   3.740   2.802
  952SOL    HW2 2872   0.760   3.664   2.808
  953SOL     OW 2873   0.859   2.818   2.723
  953SOL    HW1 2874   0.913   2.749   2.771
  953SOL    HW2 2875   0.827   2.887   2.789
  954SOL     OW 2876   1.083   2.846   1.949
  954SOL    HW1 2877   1.060   2.899   1.867
  954SOL    HW2 2878   1.164   2.790   1.930
  955SOL     OW 2879   1.861   3.431   2.713
  955SOL    HW1 2880   1.790   3.419   2.643
  955SOL    HW2 2881   1.862   3.352   2.773
  956SOL     OW 2882   0.221   3.176   3.706
  956SOL    HW1 2883   0.156   3.103   3.685
  956SOL    HW2 2884   0.225   3.190   3.804
  957SOL     OW 2885   0.079   3.102   2.515
  957SOL    HW1 2886   0.078   3.055   2.603
  957SOL    HW2 2887   0.161   3.074   2.464
  958SOL     OW 2888   0.672   3.253   3.486
  958SOL    HW1 2889   0.594   3.203   3.524
  958SOL    HW2 2890   0.669   3.348   3.517
  959SOL     OW 2891   1.824   2.054   3.089
  959SOL    HW1 2892   1.820   1.964   3.133
  959SOL    HW2 2893   1.827   2.043   2.990
  960SOL     OW 2894   0.428   2.286   2.382
  960SOL    HW1 2895   0.458   2.214   2.320
  960SOL    HW2 2896   0.389   2.246   2.465
  961SOL     OW 2897   1.705   3.349   2.966
  961SOL    HW1 2898   1.612   3.324   2.939
  961SOL    HW2 2899   1.731   3.299   3.048
  962SOL     OW 2900   0.317   2.409   3.142
  962SOL    HW1 2901   0.355   2.350   3.214
  962SOL    HW2 2902   0.357   2.383   3.054
  963SOL     OW 2903   0.812   3.448   2.549
  963SOL    HW1 2904   0.844   3.458   2.455
  963SOL    HW2 2905   0.733   3.386   2.551
  964SOL     OW 2906   1.424   2.076   2.974
  964SOL    HW1 2907   1.476   2.011   3.029
  964SOL    HW2 2908   1.375   2.139   3.035
  965SOL     OW 2909   1.001   1.896   3.016
  965SOL    HW1 2910   0.938   1.824   2.985
  965SOL    HW2 2911   1.094   1.860   3.016
  966SOL     OW 2912   0.770   3.192   2.163
  966SOL    HW1 2913   0.724   3.105   2.180
  966SOL    HW2 2914   0.861   3.189   2.204
  967SOL     OW 2915   0.618   3.429   3.146
  967SOL    HW1 2916   0.613   3.511   3.203
  967SOL    HW2 2917   0.707   3.426   3.101
  968SOL     OW 2918   1.352   1.914   2.030
  968SOL    HW1 2919   1.387   1.873   1.946
  968SOL    HW2 2920   1.262   1.876   2.050
  969SOL     OW 2921   1.300   2.315   2.553
  969SOL    HW1 2922   1.241   2.395   2.557
  969SOL    HW2 2923   1.315   2.280   2.646
  970SOL     OW 2924   1.593   2.083   2.744
  970SOL    HW1 2925   1.509   2.082   2.798
  970SOL    HW2 2926   1.595   2.166   2.688
  971SOL     OW 2927   0.039   2.939   2.162
  971SOL    HW1 2928   0.138   2.928   2.153
  971SOL    HW2 2929  -0.001   2.853   2.194
  972SOL     OW 2930   0.875   3.508   2.199
  972SOL    HW1 2931   0.798   3.473   2.145
  972SOL    HW2 2932   0.843   3.579   2.261
  973SOL     OW 2933   0.230   2.490   3.837
  973SOL    HW1 2934   0.137   2.488   3.874
  973SOL    HW2 2935   0.231   2.451   3.745
  974SOL     OW 2936   0.225   2.137   4.720
  974SOL    HW1 2937   0.260   2.120   4.812
  974SOL    HW2 2938   0.137   2.092   4.708
  975SOL     OW 2939   0.019   2.230   4.371
  975SOL    HW1 2940  -0.063   2.273   4.410
  975SOL    HW2 2941  -0.009   2.157   4.308
  976SOL     OW 2942   1.555   3.373   4.427
  976SOL    HW1 2943   1.498   3.357   4.508
  976SOL    HW2 2944   1.496   3.383   4.347
  977SOL     OW 2945   1.135   2.565   4.441
  977SOL    HW1 2946   1.192   2.643   4.416
  977SOL    HW2 2947   1.075   2.591   4.517
  978SOL     OW 2948   1.755   2.469   3.955
  978SOL    HW1 2949   1.743   2.456   3.856
  978SOL    HW2 2950   1.725   2.388   4.004
  979SOL     OW 2951   0.768   3.006   4.747
  979SOL    HW1 2952   0.690   3.023   4.807
  979SOL    HW2 2953   0.802   3.093   4.711
  980SOL     OW 2954   0.685   2.874   4.389
  980SOL    HW1 2955   0.754   2.858   4.459
  980SOL    HW2 2956   0.612   2.931   4.427
  981SOL     OW 2957   0.335   3.297   4.785
  981SOL    HW1 2958   0.257   3.266   4.732
  981SOL    HW2 2959   0.393   3.355   4.728
  982SOL     OW 2960   1.603   2.309   4.461
  982SOL    HW1 2961   1.529   2.355   4.411
  982SOL    HW2 2962   1.654   2.377   4.514
  983SOL     OW 2963   0.231   3.575   4.207
  983SOL    HW1 2964   0.265   3.652   4.261
  983SOL    HW2 2965   0.275   3.575   4.117
  984SOL     OW 2966   0.230   3.296   4.262
  984SOL    HW1 2967   0.204   3.392   4.262
  984SOL    HW2 2968   0.159   3.242   4.307
  985SOL     OW 2969   0.240   2.953   4.610
  985SOL    HW1 2970   0.254   2.869   4.662
  985SOL    HW2 2971   0.185   3.017   4.665
  986SOL     OW 2972   0.606   2.826   3.847
  986SOL    HW1 2973   0.613   2.910   3.793
  986SOL    HW2 2974   0.652   2.839   3.935
  987SOL     OW 2975   0.122   2.505   4.287
  987SOL    HW1 2976   0.077   2.417   4.304
  987SOL    HW2 2977   0.121   2.559   4.371
  988SOL     OW 2978   1.842   3.629   4.083
  988SOL    HW1 2979   1.896   3.600   4.163
  988SOL    HW2 2980   1.872   3.719   4.054
  989SOL     OW 2981   0.027   3.458   3.841
  989SOL    HW1 2982   0.008   3.362   3.862
  989SOL    HW2 2983  -0.006   3.516   3.916
  990SOL     OW 2984   1.689   2.784   4.336
  990SOL    HW1 2985   1.784   2.755   4.344
  990SOL    HW2 2986   1.681   2.849   4.261
  991SOL     OW 2987   1.641   2.970   4.156
  991SOL    HW1 2988   1.727   2.972   4.104
  991SOL    HW2 2989   1.655   3.017   4.244
  992SOL     OW 2990   0.613   3.227   4.450
  992SOL    HW1 2991   0.564   3.140   4.459
  992SOL    HW2 2992   0.590   3.270   4.363
  993SOL     OW 2993   0.809   1.866   4.226
  993SOL    HW1 2994   0.849   1.957   4.217
  993SOL    HW2 2995   0.709   1.874   4.232
  994SOL     OW 2996   1.525   2.861   3.914
  994SOL    HW1 2997   1.462   2.785   3.927
  994SOL    HW2 2998   1.573   2.879   4.000
  995SOL     OW 2999   1.466   3.279   4.677
  995SOL    HW1 3000   1.407   3.285   4.757
  995SOL    HW2 3001   1.451   3.191   4.631
  996SOL     OW 3002   1.667   3.576   4.296
  996SOL    HW1 3003   1.626   3.553   4.208
  996SOL    HW2 3004   1.649   3.502   4.361
  997SOL     OW 3005   0.598   2.591   3.994
  997SOL    HW1 3006   0.622   2.660   3.926
  997SOL    HW2 3007   0.520   2.624   4.048
  998SOL     OW 3008   1.281   2.207   4.668
  998SOL    HW1 3009   1.195   2.157   4.655
  998SOL    HW2 3010   1.343   2.153   4.724
  999SOL     OW 3011   1.576   3.524   4.031
  999SOL    HW1 3012   1.665   3.570   4.034
  999SOL    HW2 3013   1.555   3.500   3.936
 1000SOL     OW 3014   1.041   2.563   4.153
 1000SOL    HW1 3015   1.067   2.559   4.249
 1000SOL    HW2 3016   0.956   2.512   4.139
 1001SOL     OW 3017   0.076   2.673   4.513
 1001SOL    HW1 3018   0.175   2.661   4.522
 1001SOL    HW2 3019   0.052   2.768   4.534
 1002SOL     OW 3020   0.865   2.210   3.919
 1002SOL    HW1 3021   0.924   2.273   3.870
 1002SOL    HW2 3022   0.884   2.116   3.890
 1003SOL     OW 3023   1.362   3.006   4.269
 1003SOL    HW1 3024   1.445   2.977   4.221
 1003SOL    HW2 3025   1.313   3.073   4.213
 1004SOL     OW 3026   0.550   2.058   4.609
 1004SOL    HW1 3027   0.545   2.053   4.709
 1004SOL    HW2 3028   0.552   2.154   4.580
 1005SOL     OW 3029   1.008   3.318   4.201
 1005SOL    HW1 3030   0.962   3.390   4.149
 1005SOL    HW2 3031   1.004   3.338   4.299
 1006SOL     OW 3032   0.351   3.663   4.577
 1006SOL    HW1 3033   0.401   3.577   4.583
 1006SOL    HW2 3034   0.416   3.740   4.574
 1007SOL     OW 3035   1.795   2.928   4.597
 1007SOL    HW1 3036   1.733   2.913   4.521
 1007SOL    HW2 3037   1.743   2.939   4.682
 1008SOL     OW 3038   0.321   2.805   3.966
 1008SOL    HW1 3039   0.403   2.844   3.924
 1008SOL    HW2 3040   0.294   2.723   3.917
 1009SOL     OW 3041   1.458   2.597   4.452
 1009SOL    HW1 3042   1.453   2.532   4.527
 1009SOL    HW2 3043   1.538   2.656   4.465
 1010SOL     OW 3044   1.111   3.638   3.961
 1010SOL    HW1 3045   1.051   3.576   4.011
 1010SOL    HW2 3046   1.142   3.594   3.876
 1011SOL     OW 3047   1.632   3.239   3.805
 1011SOL    HW1 3048   1.600   3.333   3.795
 1011SOL    HW2 3049   1.556   3.176   3.793
 1012SOL     OW 3050   0.464   3.605   4.047
 1012SOL    HW1 3051   0.497   3.644   4.133
 1012SOL    HW2 3052   0.540   3.598   3.982
 1013SOL     OW 3053   1.400   1.969   4.150
 1013SOL    HW1 3054   1.376   1.932   4.060
 1013SOL    HW2 3055   1.499   1.985   4.154
 1014SOL     OW 3056   0.249   3.647   4.965
 1014SOL    HW1 3057   0.306   3.582   5.015
 1014SOL    HW2 3058   0.233   3.614   4.872
 1015SOL     OW 3059   0.940   3.560   4.628
 1015SOL    HW1 3060   1.020   3.503   4.649
 1015SOL    HW2 3061   0.891   3.520   4.551
 1016SOL     OW 3062   0.382   2.562   4.204
 1016SOL    HW1 3063   0.427   2.472   4.201
 1016SOL    HW2 3064   0.288   2.551   4.237
 1017SOL     OW 3065   0.614   1.984   3.841
 1017SOL    HW1 3066   0.712   1.962   3.848
 1017SOL    HW2 3067   0.583   1.967   3.748
 1018SOL     OW 3068   0.803   3.264   4.648
 1018SOL    HW1 3069   0.893   3.278   4.606
 1018SOL    HW2 3070   0.732   3.266   4.577
 1019SOL     OW 3071   0.922   2.365   4.623
 1019SOL    HW1 3072   0.897   2.356   4.527
 1019SOL    HW2 3073   0.970   2.283   4.654
 1020SOL     OW 3074   0.539   1.926   4.236
 1020SOL    HW1 3075   0.458   1.927   4.294
 1020SOL    HW2 3076   0.542   2.009   4.181
 1021SOL     OW 3077   1.434   3.050   3.765
 1021SOL    HW1 3078   1.466   2.974   3.822
 1021SOL    HW2 3079   1.342   3.077   3.795
 1022SOL     OW 3080   0.297   1.897   3.895
 1022SOL    HW1 3081   0.346   1.981   3.874
 1022SOL    HW2 3082   0.359   1.832   3.940
 1023SOL     OW 3083   0.935   2.098   4.204
 1023SOL    HW1 3084   0.887   2.139   4.126
 1023SOL    HW2 3085   1.034   2.096   4.185
 1024SOL     OW 3086   1.227   3.432   4.517
 1024SOL    HW1 3087   1.248   3.506   4.452
 1024SOL    HW2 3088   1.295   3.432   4.590
 1025SOL     OW 3089   0.459   3.014   4.465
 1025SOL    HW1 3090   0.388   2.987   4.530
 1025SOL    HW2 3091   0.433   2.986   4.372
 1026SOL     OW 3092   1.271   3.659   4.315
 1026SOL    HW1 3093   1.315   3.723   4.251
 1026SOL    HW2 3094   1.221   3.711   4.385
 1027SOL     OW 3095   1.032   2.411   3.740
 1027SOL    HW1 3096   0.991   2.493   3.701
 1027SOL    HW2 3097   1.096   2.437   3.813
 1028SOL     OW 3098   0.866   2.316   4.366
 1028SOL    HW1 3099   0.834   2.388   4.304
 1028SOL    HW2 3100   0.890   2.235   4.313
 1029SOL     OW 3101   1.017   1.901   4.477
 1029SOL    HW1 3102   0.945   1.906   4.408
 1029SOL    HW2 3103   0.993   1.832   4.546
 1030SOL     OW 3104   1.429   3.035   4.591
 1030SOL    HW1 3105   1.374   2.951   4.584
 1030SOL    HW2 3106   1.455   3.064   4.499
 1031SOL     OW 3107   1.466   2.452   4.716
 1031SOL    HW1 3108   1.436   2.357   4.723
 1031SOL    HW2 3109   1.539   2.468   4.782
 1032SOL     OW 3110   1.857   2.695   4.101
 1032SOL    HW1 3111   1.899   2.631   4.165
 1032SOL    HW2 3112   1.819   2.644   4.023
 1033SOL     OW 3113   0.488   3.247   3.898
 1033SOL    HW1 3114   0.401   3.232   3.945
 1033SOL    HW2 3115   0.471   3.273   3.803
 1034SOL     OW 3116   1.664   3.142   4.381
 1034SOL    HW1 3117   1.763   3.150   4.395
 1034SOL    HW2 3118   1.619   3.226   4.412
 1035SOL     OW 3119   1.390   2.437   3.802
 1035SOL    HW1 3120   1.336   2.416   3.883
 1035SOL    HW2 3121   1.481   2.396   3.811
 1036SOL     OW 3122   0.527   2.118   4.052
 1036SOL    HW1 3123   0.554   2.059   3.977
 1036SOL    HW2 3124   0.527   2.213   4.021
 1037SOL     OW 3125   1.638   2.961   4.803
 1037SOL    HW1 3126   1.643   3.042   4.862
 1037SOL    HW2 3127   1.552   2.963   4.752
 1038SOL     OW 3128   0.705   2.912   4.092
 1038SOL    HW1 3129   0.691   2.919   4.191
 1038SOL    HW2 3130   0.789   2.861   4.074
 1039SOL     OW 3131   0.367   2.962   4.225
 1039SOL    HW1 3132   0.360   3.045   4.169
 1039SOL    HW2 3133   0.371   2.882   4.165
 1040SOL     OW 3134   0.566   2.399   4.589
 1040SOL    HW1 3135   0.578   2.465   4.515
 1040SOL    HW2 3136   0.612   2.433   4.672
 1041SOL     OW 3137   1.252   3.210   4.112
 1041SOL    HW1 3138   1.302   3.287   4.152
 1041SOL    HW2 3139   1.157   3.212   4.144
 1042SOL     OW 3140   1.582   2.501   4.196
 1042SOL    HW1 3141   1.551   2.562   4.269
 1042SOL    HW2 3142   1.632   2.553   4.127
 1043SOL     OW 3143   0.573   2.732   4.753
 1043SOL    HW1 3144   0.617   2.821   4.744
 1043SOL    HW2 3145   0.510   2.732   4.830
 1044SOL     OW 3146   1.209   2.387   3.999
 1044SOL    HW1 3147   1.222   2.303   4.053
 1044SOL    HW2 3148   1.180   2.461   4.059
 1045SOL     OW 3149   0.307   2.075   4.955
 1045SOL    HW1 3150   0.284   2.112   5.045
 1045SOL    HW2 3151   0.277   1.980   4.949
 1046SOL     OW 3152   0.732   2.496   4.788
 1046SOL    HW1 3153   0.791   2.470   4.712
 1046SOL    HW2 3154   0.704   2.592   4.777
 1047SOL     OW 3155   0.307   1.925   4.342
 1047SOL    HW1 3156   0.296   2.019   4.375
 1047SOL    HW2 3157   0.302   1.862   4.419
 1048SOL     OW 3158   1.622   2.229   4.098
 1048SOL    HW1 3159   1.624   2.153   4.162
 1048SOL    HW2 3160   1.574   2.306   4.138
 1049SOL     OW 3161   1.540   2.136   3.849
 1049SOL    HW1 3162   1.479   2.061   3.872
 1049SOL    HW2 3163   1.562   2.188   3.932
 1050SOL     OW 3164   1.303   2.700   3.766
 1050SOL    HW1 3165   1.337   2.607   3.781
 1050SOL    HW2 3166   1.321   2.727   3.671
 1051SOL     OW 3167   1.068   3.195   4.573
 1051SOL    HW1 3168   1.075   3.111   4.518
 1051SOL    HW2 3169   1.130   3.264   4.537
 1052SOL     OW 3170   0.319   2.672   4.673
 1052SOL    HW1 3171   0.412   2.708   4.678
 1052SOL    HW2 3172   0.313   2.587   4.725
 1053SOL     OW 3173   0.339   2.371   4.730
 1053SOL    HW1 3174   0.287   2.288   4.713
 1053SOL    HW2 3175   0.416   2.376   4.666
 1054SOL     OW 3176   0.008   3.188   3.924
 1054SOL    HW1 3177  -0.085   3.209   3.893
 1054SOL    HW2 3178   0.018   3.089   3.937
 1055SOL     OW 3179   0.088   3.663   4.651
 1055SOL    HW1 3180   0.046   3.577   4.624
 1055SOL    HW2 3181   0.182   3.666   4.617
 1056SOL     OW 3182   0.504   3.430   4.634
 1056SOL    HW1 3183   0.570   3.504   4.643
 1056SOL    HW2 3184   0.548   3.351   4.592
 1057SOL     OW 3185   0.815   2.434   4.049
 1057SOL    HW1 3186   0.822   2.345   4.003
 1057SOL    HW2 3187   0.721   2.468   4.041
 1058SOL     OW 3188   0.671   2.326   4.993
 1058SOL    HW1 3189   0.637   2.237   4.963
 1058SOL    HW2 3190   0.697   2.380   4.913
 1059SOL     OW 3191   0.473   2.362   3.915
 1059SOL    HW1 3192   0.534   2.442   3.919
 1059SOL    HW2 3193   0.378   2.393   3.922
 1060SOL     OW 3194   1.302   2.717   4.033
 1060SOL    HW1 3195   1.216   2.686   4.075
 1060SOL    HW2 3196   1.298   2.703   3.934
 1061SOL     OW 3197   1.759   3.609   4.878
 1061SOL    HW1 3198   1.820   3.639   4.805
 1061SOL    HW2 3199   1.721   3.520   4.856
 1062SOL     OW 3200   0.083   3.120   4.746
 1062SOL    HW1 3201   0.078   3.119   4.846
 1062SOL    HW2 3202   0.000   3.079   4.708
 1063SOL     OW 3203   1.726   1.997   4.247
 1063SOL    HW1 3204   1.799   1.980   4.180
 1063SOL    HW2 3205   1.695   1.910   4.285
 1064SOL     OW 3206   1.388   3.435   4.201
 1064SOL    HW1 3207   1.455   3.447   4.127
 1064SOL    HW2 3208   1.348   3.524   4.224
 1065SOL     OW 3209   1.280   2.789   4.396
 1065SOL    HW1 3210   1.340   2.708   4.398
 1065SOL    HW2 3211   1.320   2.858   4.336
 1066SOL     OW 3212   0.672   3.478   3.878
 1066SOL    HW1 3213   0.681   3.488   3.779
 1066SOL    HW2 3214   0.632   3.389   3.899
 1067SOL     OW 3215   1.841   2.037   4.687
 1067SOL    HW1 3216   1.880   1.952   4.651
 1067SOL    HW2 3217   1.743   2.039   4.668
 1068SOL     OW 3218   0.263   2.188   4.444
 1068SOL    HW1 3219   0.184   2.239   4.410
 1068SOL    HW2 3220   0.254   2.173   4.542
 1069SOL     OW 3221   1.194   3.474   3.755
 1069SOL    HW1 3222   1.200   3.381   3.792
 1069SOL    HW2 3223   1.135   3.474   3.675
 1070SOL     OW 3224   0.916   2.772   4.015
 1070SOL    HW1 3225   0.979   2.810   3.947
 1070SOL    HW2 3226   0.956   2.689   4.054
 1071SOL     OW 3227   1.504   3.469   3.768
 1071SOL    HW1 3228   1.412   3.506   3.775
 1071SOL    HW2 3229   1.542   3.489   3.678
 1072SOL     OW 3230   1.039   2.960   4.420
 1072SOL    HW1 3231   0.969   2.913   4.474
 1072SOL    HW2 3232   1.098   2.892   4.377
 1073SOL     OW 3233   0.590   3.349   4.215
 1073SOL    HW1 3234   0.632   3.291   4.145
 1073SOL    HW2 3235   0.546   3.428   4.171
 1074SOL     OW 3236   0.255   3.210   4.014
 1074SOL    HW1 3237   0.159   3.211   3.987
 1074SOL    HW2 3238   0.267   3.263   4.098
 1075SOL     OW 3239   0.075   2.207   3.757
 1075SOL    HW1 3240  -0.017   2.179   3.728
 1075SOL    HW2 3241   0.106   2.284   3.701
 1076SOL     OW 3242   0.072   2.028   4.042
 1076SOL    HW1 3243   0.055   2.111   3.988
 1076SOL    HW2 3244   0.162   1.991   4.020
 1077SOL     OW 3245   1.183   3.197   3.843
 1077SOL    HW1 3246   1.084   3.186   3.845
 1077SOL    HW2 3247   1.217   3.212   3.936
 1078SOL     OW 3248   1.674   2.745   4.978
 1078SOL    HW1 3249   1.647   2.656   4.941
 1078SOL    HW2 3250   1.675   2.813   4.905
 1079SOL     OW 3251   1.225   2.187   4.173
 1079SOL    HW1 3252   1.290   2.113   4.162
 1079SOL    HW2 3253   1.245   2.237   4.257
 1080SOL     OW 3254   0.594   2.607   4.376
 1080SOL    HW1 3255   0.644   2.692   4.357
 1080SOL    HW2 3256   0.506   2.609   4.328
 1081SOL     OW 3257   0.859   3.236   3.740
 1081SOL    HW1 3258   0.813   3.251   3.828
 1081SOL    HW2 3259   0.903   3.321   3.710
 1082SOL     OW 3260   0.661   3.652   4.677
 1082SOL    HW1 3261   0.615   3.740   4.664
 1082SOL    HW2 3262   0.760   3.664   4.670
 1083SOL     OW 3263   0.859   2.818   4.585
 1083SOL    HW1 3264   0.913   2.749   4.633
 1083SOL    HW2 3265   0.827   2.887   4.651
 1084SOL     OW 3266   1.083   2.846   3.811
 1084SOL    HW1 3267   1.060   2.899   3.729
 1084SOL    HW2 3268   1.164   2.790   3.792
 1085SOL     OW 3269   1.861   3.431   4.575
 1085SOL    HW1 3270   1.790   3.419   4.505
 1085SOL    HW2 3271   1.862   3.352   4.635
 1086SOL     OW 3272   0.079   3.102   4.377
 1086SOL    HW1 3273   0.078   3.055   4.465
 1086SOL    HW2 3274   0.161   3.074   4.326
 1087SOL     OW 3275   1.824   2.054   4.951
 1087SOL    HW1 3276   1.820   1.964   4.995
 1087SOL    HW2 3277   1.827   2.043   4.852
 1088SOL     OW 3278   0.428   2.286   4.244
 1088SOL    HW1 3279   0.458   2.214   4.182
 1088SOL    HW2 3280   0.389   2.246   4.327
 1089SOL     OW 3281   0.812   3.448   4.411
 1089SOL    HW1 3282   0.844   3.458   4.317
 1089SOL    HW2 3283   0.733   3.386   4.413
 1090SOL     OW 3284   0.770   3.192   4.025
 1090SOL    HW1 3285   0.724   3.105   4.042
 1090SOL    HW2 3286   0.861   3.189   4.066
 1091SOL     OW 3287   1.352   1.914   3.892
 1091SOL    HW1 3288   1.387   1.873   3.808
 1091SOL    HW2 3289   1.262   1.876   3.912
 1092SOL     OW 3290   1.300   2.315   4.415
 1092SOL    HW1 3291   1.241   2.395   4.419
 1092SOL    HW2 3292   1.315   2.280   4.508
 1093SOL     OW 3293   1.593   2.083   4.606
 1093SOL    HW1 3294   1.509   2.082   4.660
 1093SOL    HW2 3295   1.595   2.166   4.550
 1094SOL     OW 3296   0.039   2.939   4.024
 1094SOL    HW1 3297   0.138   2.928   4.015
 1094SOL    HW2 3298  -0.001   2.853   4.056
 1095SOL     OW 3299   0.875   3.508   4.061
 1095SOL    HW1 3300   0.798   3.473   4.007
 1095SOL    HW2 3301   0.843   3.579   4.123
 1096SOL     OW 3302   0.230   4.352   0.113
 1096SOL    HW1 3303   0.137   4.350   0.150
 1096SOL    HW2 3304   0.231   4.313   0.021
 1097SOL     OW 3305   0.225   3.999   0.996
 1097SOL    HW1 3306   0.260   3.982   1.088
 1097SOL    HW2 3307   0.137   3.954   0.984
 1098SOL     OW 3308   0.019   4.092   0.647
 1098SOL    HW1 3309  -0.063   4.135   0.686
 1098SOL    HW2 3310  -0.009   4.019   0.584
 1099SOL     OW 3311   1.135   4.427   0.717
 1099SOL    HW1 3312   1.192   4.505   0.692
 1099SOL    HW2 3313   1.075   4.453   0.793
 1100SOL     OW 3314   1.755   4.331   0.231
 1100SOL    HW1 3315   1.743   4.318   0.132
 1100SOL    HW2 3316   1.725   4.250   0.280
 1101SOL     OW 3317   0.768   4.868   1.023
 1101SOL    HW1 3318   0.690   4.885   1.083
 1101SOL    HW2 3319   0.802   4.955   0.987
 1102SOL     OW 3320   0.850   4.522   1.823
 1102SOL    HW1 3321   0.846   4.598   1.888
 1102SOL    HW2 3322   0.872   4.558   1.732
 1103SOL     OW 3323   0.685   4.736   0.665
 1103SOL    HW1 3324   0.754   4.720   0.735
 1103SOL    HW2 3325   0.612   4.793   0.703
 1104SOL     OW 3326   0.438   4.116   1.499
 1104SOL    HW1 3327   0.520   4.060   1.508
 1104SOL    HW2 3328   0.357   4.058   1.503
 1105SOL     OW 3329   1.603   4.171   0.737
 1105SOL    HW1 3330   1.529   4.217   0.687
 1105SOL    HW2 3331   1.654   4.239   0.790
 1106SOL     OW 3332   0.240   4.815   0.886
 1106SOL    HW1 3333   0.254   4.731   0.938
 1106SOL    HW2 3334   0.185   4.879   0.941
 1107SOL     OW 3335   1.594   3.838   1.480
 1107SOL    HW1 3336   1.576   3.905   1.408
 1107SOL    HW2 3337   1.591   3.884   1.569
 1108SOL     OW 3338   0.122   4.367   0.563
 1108SOL    HW1 3339   0.077   4.279   0.580
 1108SOL    HW2 3340   0.121   4.421   0.647
 1109SOL     OW 3341   0.113   4.461   1.597
 1109SOL    HW1 3342   0.201   4.448   1.642
 1109SOL    HW2 3343   0.100   4.558   1.575
 1110SOL     OW 3344   0.809   3.728   0.502
 1110SOL    HW1 3345   0.849   3.819   0.493
 1110SOL    HW2 3346   0.709   3.736   0.508
 1111SOL     OW 3347   0.197   4.700   1.264
 1111SOL    HW1 3348   0.286   4.655   1.250
 1111SOL    HW2 3349   0.124   4.635   1.245
 1112SOL     OW 3350   1.525   4.723   0.190
 1112SOL    HW1 3351   1.462   4.647   0.203
 1112SOL    HW2 3352   1.573   4.741   0.276
 1113SOL     OW 3353   0.317   3.975   1.801
 1113SOL    HW1 3354   0.388   4.046   1.807
 1113SOL    HW2 3355   0.229   4.014   1.829
 1114SOL     OW 3356   0.598   4.453   0.270
 1114SOL    HW1 3357   0.622   4.522   0.202
 1114SOL    HW2 3358   0.520   4.486   0.324
 1115SOL     OW 3359   1.281   4.069   0.944
 1115SOL    HW1 3360   1.195   4.019   0.931
 1115SOL    HW2 3361   1.343   4.015   1.000
 1116SOL     OW 3362   0.807   4.329   1.465
 1116SOL    HW1 3363   0.760   4.326   1.554
 1116SOL    HW2 3364   0.756   4.274   1.399
 1117SOL     OW 3365   1.394   4.193   1.674
 1117SOL    HW1 3366   1.374   4.236   1.762
 1117SOL    HW2 3367   1.472   4.131   1.683
 1118SOL     OW 3368   0.973   4.614   1.572
 1118SOL    HW1 3369   1.019   4.530   1.543
 1118SOL    HW2 3370   0.917   4.648   1.497
 1119SOL     OW 3371   0.991   4.134   1.242
 1119SOL    HW1 3372   0.914   4.168   1.296
 1119SOL    HW2 3373   0.957   4.083   1.163
 1120SOL     OW 3374   1.041   4.425   0.429
 1120SOL    HW1 3375   1.067   4.421   0.525
 1120SOL    HW2 3376   0.956   4.374   0.415
 1121SOL     OW 3377   0.076   4.535   0.789
 1121SOL    HW1 3378   0.175   4.523   0.798
 1121SOL    HW2 3379   0.052   4.630   0.810
 1122SOL     OW 3380   0.865   4.072   0.195
 1122SOL    HW1 3381   0.924   4.135   0.146
 1122SOL    HW2 3382   0.884   3.978   0.166
 1123SOL     OW 3383   1.719   4.309   1.831
 1123SOL    HW1 3384   1.693   4.398   1.795
 1123SOL    HW2 3385   1.717   4.241   1.758
 1124SOL     OW 3386   0.550   3.920   0.885
 1124SOL    HW1 3387   0.545   3.915   0.985
 1124SOL    HW2 3388   0.552   4.016   0.856
 1125SOL     OW 3389   1.458   4.459   0.728
 1125SOL    HW1 3390   1.453   4.394   0.803
 1125SOL    HW2 3391   1.538   4.518   0.741
 1126SOL     OW 3392   0.202   4.009   1.498
 1126SOL    HW1 3393   0.122   4.069   1.485
 1126SOL    HW2 3394   0.192   3.960   1.584
 1127SOL     OW 3395   1.400   3.831   0.426
 1127SOL    HW1 3396   1.376   3.794   0.336
 1127SOL    HW2 3397   1.499   3.847   0.430
 1128SOL     OW 3398   0.382   4.424   0.480
 1128SOL    HW1 3399   0.427   4.334   0.477
 1128SOL    HW2 3400   0.288   4.413   0.513
 1129SOL     OW 3401   1.547   3.946   1.729
 1129SOL    HW1 3402   1.542   3.983   1.821
 1129SOL    HW2 3403   1.475   3.877   1.717
 1130SOL     OW 3404   0.614   3.846   0.117
 1130SOL    HW1 3405   0.712   3.824   0.124
 1130SOL    HW2 3406   0.583   3.829   0.024
 1131SOL     OW 3407   0.781   3.988   1.749
 1131SOL    HW1 3408   0.848   3.927   1.792
 1131SOL    HW2 3409   0.708   4.007   1.814
 1132SOL     OW 3410   1.351   4.314   1.433
 1132SOL    HW1 3411   1.379   4.271   1.518
 1132SOL    HW2 3412   1.376   4.410   1.434
 1133SOL     OW 3413   0.922   4.227   0.899
 1133SOL    HW1 3414   0.897   4.218   0.803
 1133SOL    HW2 3415   0.970   4.145   0.930
 1134SOL     OW 3416   0.539   3.788   0.512
 1134SOL    HW1 3417   0.458   3.789   0.570
 1134SOL    HW2 3418   0.542   3.871   0.457
 1135SOL     OW 3419   0.935   3.960   0.480
 1135SOL    HW1 3420   0.887   4.001   0.402
 1135SOL    HW2 3421   1.034   3.958   0.461
 1136SOL     OW 3422   1.076   4.407   1.464
 1136SOL    HW1 3423   0.996   4.346   1.467
 1136SOL    HW2 3424   1.157   4.354   1.440
 1137SOL     OW 3425   1.032   4.273   0.016
 1137SOL    HW1 3426   0.991   4.355  -0.023
 1137SOL    HW2 3427   1.096   4.299   0.089
 1138SOL     OW 3428   0.078   4.280   1.386
 1138SOL    HW1 3429   0.170   4.279   1.345
 1138SOL    HW2 3430   0.072   4.354   1.453
 1139SOL     OW 3431   0.561   3.946   1.147
 1139SOL    HW1 3432   0.599   3.862   1.184
 1139SOL    HW2 3433   0.473   3.965   1.191
 1140SOL     OW 3434   0.866   4.178   0.642
 1140SOL    HW1 3435   0.834   4.250   0.580
 1140SOL    HW2 3436   0.890   4.097   0.589
 1141SOL     OW 3437   1.017   3.763   0.753
 1141SOL    HW1 3438   0.945   3.768   0.684
 1141SOL    HW2 3439   0.993   3.694   0.822
 1142SOL     OW 3440   1.429   4.897   0.867
 1142SOL    HW1 3441   1.374   4.813   0.860
 1142SOL    HW2 3442   1.455   4.926   0.775
 1143SOL     OW 3443   1.466   4.314   0.992
 1143SOL    HW1 3444   1.436   4.219   0.999
 1143SOL    HW2 3445   1.539   4.330   1.058
 1144SOL     OW 3446   1.857   4.557   0.377
 1144SOL    HW1 3447   1.899   4.493   0.441
 1144SOL    HW2 3448   1.819   4.506   0.299
 1145SOL     OW 3449   1.390   4.299   0.078
 1145SOL    HW1 3450   1.336   4.278   0.159
 1145SOL    HW2 3451   1.481   4.258   0.087
 1146SOL     OW 3452   0.527   3.980   0.328
 1146SOL    HW1 3453   0.554   3.921   0.253
 1146SOL    HW2 3454   0.527   4.075   0.297
 1147SOL     OW 3455   1.638   4.823   1.079
 1147SOL    HW1 3456   1.643   4.904   1.138
 1147SOL    HW2 3457   1.552   4.825   1.028
 1148SOL     OW 3458   0.915   3.813   1.402
 1148SOL    HW1 3459   0.940   3.793   1.307
 1148SOL    HW2 3460   0.987   3.869   1.444
 1149SOL     OW 3461   0.410   4.537   1.251
 1149SOL    HW1 3462   0.496   4.549   1.301
 1149SOL    HW2 3463   0.368   4.450   1.278
 1150SOL     OW 3464   1.274   4.110   1.262
 1150SOL    HW1 3465   1.295   4.184   1.326
 1150SOL    HW2 3466   1.185   4.127   1.219
 1151SOL     OW 3467   0.566   4.261   0.865
 1151SOL    HW1 3468   0.578   4.327   0.791
 1151SOL    HW2 3469   0.612   4.295   0.948
 1152SOL     OW 3470   1.582   4.363   0.472
 1152SOL    HW1 3471   1.551   4.424   0.545
 1152SOL    HW2 3472   1.632   4.415   0.403
 1153SOL     OW 3473   0.402   4.475   1.598
 1153SOL    HW1 3474   0.470   4.530   1.551
 1153SOL    HW2 3475   0.442   4.387   1.625
 1154SOL     OW 3476   1.587   4.503   1.670
 1154SOL    HW1 3477   1.495   4.541   1.665
 1154SOL    HW2 3478   1.647   4.550   1.605
 1155SOL     OW 3479   1.013   3.829   1.770
 1155SOL    HW1 3480   1.019   3.914   1.718
 1155SOL    HW2 3481   1.045   3.753   1.713
 1156SOL     OW 3482   0.504   3.774   1.740
 1156SOL    HW1 3483   0.462   3.717   1.670
 1156SOL    HW2 3484   0.438   3.843   1.772
 1157SOL     OW 3485   0.573   4.594   1.029
 1157SOL    HW1 3486   0.617   4.683   1.020
 1157SOL    HW2 3487   0.510   4.594   1.106
 1158SOL     OW 3488   1.360   4.586   1.045
 1158SOL    HW1 3489   1.285   4.586   0.979
 1158SOL    HW2 3490   1.397   4.494   1.054
 1159SOL     OW 3491   1.209   4.249   0.275
 1159SOL    HW1 3492   1.222   4.165   0.329
 1159SOL    HW2 3493   1.180   4.323   0.335
 1160SOL     OW 3494   0.307   3.937   1.231
 1160SOL    HW1 3495   0.284   3.974   1.321
 1160SOL    HW2 3496   0.277   3.842   1.225
 1161SOL     OW 3497   0.037   5.034   1.282
 1161SOL    HW1 3498   0.090   4.985   1.350
 1161SOL    HW2 3499   0.059   5.132   1.287
 1162SOL     OW 3500   0.732   4.358   1.064
 1162SOL    HW1 3501   0.791   4.332   0.988
 1162SOL    HW2 3502   0.704   4.454   1.053
 1163SOL     OW 3503   1.728   4.659   1.854
 1163SOL    HW1 3504   1.682   4.652   1.765
 1163SOL    HW2 3505   1.666   4.703   1.920
 1164SOL     OW 3506   0.307   3.787   0.618
 1164SOL    HW1 3507   0.296   3.881   0.651
 1164SOL    HW2 3508   0.302   3.724   0.695
 1165SOL     OW 3509   1.622   4.091   0.374
 1165SOL    HW1 3510   1.624   4.015   0.438
 1165SOL    HW2 3511   1.574   4.168   0.414
 1166SOL     OW 3512   1.023   4.490   0.966
 1166SOL    HW1 3513   1.038   4.511   1.062
 1166SOL    HW2 3514   0.993   4.395   0.957
 1167SOL     OW 3515   0.350   4.622   1.804
 1167SOL    HW1 3516   0.426   4.666   1.852
 1167SOL    HW2 3517   0.385   4.575   1.722
 1168SOL     OW 3518   1.540   3.998   0.125
 1168SOL    HW1 3519   1.479   3.923   0.148
 1168SOL    HW2 3520   1.562   4.050   0.208
 1169SOL     OW 3521   1.303   4.562   0.042
 1169SOL    HW1 3522   1.337   4.469   0.057
 1169SOL    HW2 3523   1.321   4.589  -0.053
 1170SOL     OW 3524   0.319   4.534   0.949
 1170SOL    HW1 3525   0.412   4.570   0.954
 1170SOL    HW2 3526   0.313   4.449   1.001
 1171SOL     OW 3527   0.339   4.233   1.006
 1171SOL    HW1 3528   0.287   4.150   0.989
 1171SOL    HW2 3529   0.416   4.238   0.942
 1172SOL     OW 3530   1.138   4.104   1.678
 1172SOL    HW1 3531   1.093   4.167   1.742
 1172SOL    HW2 3532   1.231   4.135   1.661
 1173SOL     OW 3533   1.160   3.931   1.477
 1173SOL    HW1 3534   1.160   3.995   1.554
 1173SOL    HW2 3535   1.188   3.979   1.394
 1174SOL     OW 3536   1.002   4.520   1.238
 1174SOL    HW1 3537   1.043   4.488   1.324
 1174SOL    HW2 3538   0.906   4.493   1.235
 1175SOL     OW 3539   0.040   4.268   1.114
 1175SOL    HW1 3540   0.125   4.235   1.073
 1175SOL    HW2 3541   0.053   4.283   1.212
 1176SOL     OW 3542   0.189   4.244   1.722
 1176SOL    HW1 3543   0.248   4.204   1.652
 1176SOL    HW2 3544   0.131   4.315   1.681
 1177SOL     OW 3545   1.369   4.674   1.660
 1177SOL    HW1 3546   1.408   4.763   1.680
 1177SOL    HW2 3547   1.379   4.654   1.563
 1178SOL     OW 3548   0.815   4.296   0.325
 1178SOL    HW1 3549   0.822   4.207   0.279
 1178SOL    HW2 3550   0.721   4.330   0.317
 1179SOL     OW 3551   1.657   4.328   1.206
 1179SOL    HW1 3552   1.619   4.259   1.268
 1179SOL    HW2 3553   1.739   4.292   1.162
 1180SOL     OW 3554   0.671   4.188   1.269
 1180SOL    HW1 3555   0.637   4.099   1.239
 1180SOL    HW2 3556   0.697   4.242   1.189
 1181SOL     OW 3557   0.473   4.224   0.191
 1181SOL    HW1 3558   0.534   4.304   0.195
 1181SOL    HW2 3559   0.378   4.255   0.198
 1182SOL     OW 3560   0.159   4.861   1.466
 1182SOL    HW1 3561   0.181   4.800   1.542
 1182SOL    HW2 3562   0.169   4.812   1.380
 1183SOL     OW 3563   1.347   4.783   1.234
 1183SOL    HW1 3564   1.371   4.720   1.160
 1183SOL    HW2 3565   1.257   4.823   1.216
 1184SOL     OW 3566   1.302   4.579   0.309
 1184SOL    HW1 3567   1.216   4.548   0.351
 1184SOL    HW2 3568   1.298   4.565   0.210
 1185SOL     OW 3569   0.903   3.810   0.133
 1185SOL    HW1 3570   0.954   3.811   0.047
 1185SOL    HW2 3571   0.959   3.768   0.204
 1186SOL     OW 3572   1.726   3.859   0.523
 1186SOL    HW1 3573   1.799   3.842   0.456
 1186SOL    HW2 3574   1.695   3.772   0.561
 1187SOL     OW 3575   1.280   4.651   0.672
 1187SOL    HW1 3576   1.340   4.570   0.674
 1187SOL    HW2 3577   1.320   4.720   0.612
 1188SOL     OW 3578   1.841   3.899   0.963
 1188SOL    HW1 3579   1.880   3.814   0.927
 1188SOL    HW2 3580   1.743   3.901   0.944
 1189SOL     OW 3581   0.263   4.050   0.720
 1189SOL    HW1 3582   0.184   4.101   0.686
 1189SOL    HW2 3583   0.254   4.035   0.818
 1190SOL     OW 3584   0.916   4.634   0.291
 1190SOL    HW1 3585   0.979   4.672   0.223
 1190SOL    HW2 3586   0.956   4.551   0.330
 1191SOL     OW 3587   1.014   3.960   0.971
 1191SOL    HW1 3588   1.006   3.924   0.878
 1191SOL    HW2 3589   1.012   3.884   1.036
 1192SOL     OW 3590   1.709   4.109   1.381
 1192SOL    HW1 3591   1.782   4.178   1.385
 1192SOL    HW2 3592   1.737   4.034   1.322
 1193SOL     OW 3593   0.105   4.737   1.726
 1193SOL    HW1 3594   0.028   4.704   1.780
 1193SOL    HW2 3595   0.190   4.707   1.768
 1194SOL     OW 3596   0.672   3.927   1.489
 1194SOL    HW1 3597   0.762   3.911   1.449
 1194SOL    HW2 3598   0.680   3.932   1.588
 1195SOL     OW 3599   0.075   4.069   0.033
 1195SOL    HW1 3600  -0.017   4.041   0.004
 1195SOL    HW2 3601   0.106   4.146  -0.023
 1196SOL     OW 3602   1.440   4.580   1.398
 1196SOL    HW1 3603   1.383   4.632   1.335
 1196SOL    HW2 3604   1.536   4.592   1.374
 1197SOL     OW 3605   0.072   3.890   0.318
 1197SOL    HW1 3606   0.055   3.973   0.264
 1197SOL    HW2 3607   0.162   3.853   0.296
 1198SOL     OW 3608   1.183   5.059   0.119
 1198SOL    HW1 3609   1.084   5.048   0.121
 1198SOL    HW2 3610   1.217   5.074   0.212
 1199SOL     OW 3611   0.613   4.566   1.431
 1199SOL    HW1 3612   0.669   4.647   1.414
 1199SOL    HW2 3613   0.672   4.486   1.434
 1200SOL     OW 3614   0.716   4.289   1.708
 1200SOL    HW1 3615   0.735   4.354   1.782
 1200SOL    HW2 3616   0.776   4.209   1.717
 1201SOL     OW 3617   1.674   4.607   1.254
 1201SOL    HW1 3618   1.647   4.518   1.217
 1201SOL    HW2 3619   1.675   4.675   1.181
 1202SOL     OW 3620   1.225   4.049   0.449
 1202SOL    HW1 3621   1.290   3.975   0.438
 1202SOL    HW2 3622   1.245   4.099   0.533
 1203SOL     OW 3623   0.594   4.469   0.652
 1203SOL    HW1 3624   0.644   4.554   0.633
 1203SOL    HW2 3625   0.506   4.471   0.604
 1204SOL     OW 3626   1.777   4.066   1.642
 1204SOL    HW1 3627   1.760   4.097   1.548
 1204SOL    HW2 3628   1.693   4.029   1.680
 1205SOL     OW 3629   1.730   4.658   1.517
 1205SOL    HW1 3630   1.768   4.749   1.532
 1205SOL    HW2 3631   1.722   4.641   1.418
 1206SOL     OW 3632   0.859   4.680   0.861
 1206SOL    HW1 3633   0.913   4.611   0.909
 1206SOL    HW2 3634   0.827   4.749   0.927
 1207SOL     OW 3635   1.083   4.708   0.087
 1207SOL    HW1 3636   1.060   4.761   0.005
 1207SOL    HW2 3637   1.164   4.652   0.068
 1208SOL     OW 3638   0.079   4.964   0.653
 1208SOL    HW1 3639   0.078   4.917   0.741
 1208SOL    HW2 3640   0.161   4.936   0.602
 1209SOL     OW 3641   1.824   3.916   1.227
 1209SOL    HW1 3642   1.820   3.826   1.271
 1209SOL    HW2 3643   1.827   3.905   1.128
 1210SOL     OW 3644   0.428   4.148   0.520
 1210SOL    HW1 3645   0.458   4.076   0.458
 1210SOL    HW2 3646   0.389   4.108   0.603
 1211SOL     OW 3647   0.317   4.271   1.280
 1211SOL    HW1 3648   0.355   4.212   1.352
 1211SOL    HW2 3649   0.357   4.245   1.192
 1212SOL     OW 3650   1.424   3.938   1.112
 1212SOL    HW1 3651   1.476   3.873   1.167
 1212SOL    HW2 3652   1.375   4.001   1.173
 1213SOL     OW 3653   1.001   3.758   1.154
 1213SOL    HW1 3654   0.938   3.686   1.123
 1213SOL    HW2 3655   1.094   3.722   1.154
 1214SOL     OW 3656   1.352   3.776   0.168
 1214SOL    HW1 3657   1.387   3.735   0.084
 1214SOL    HW2 3658   1.262   3.738   0.188
 1215SOL     OW 3659   1.300   4.177   0.691
 1215SOL    HW1 3660   1.241   4.257   0.695
 1215SOL    HW2 3661   1.315   4.142   0.784
 1216SOL     OW 3662   1.593   3.945   0.882
 1216SOL    HW1 3663   1.509   3.944   0.936
 1216SOL    HW2 3664   1.595   4.028   0.826
 1217SOL     OW 3665   0.230   4.352   1.975
 1217SOL    HW1 3666   0.137   4.350   2.012
 1217SOL    HW2 3667   0.231   4.313   1.883
 1218SOL     OW 3668   0.225   3.999   2.858
 1218SOL    HW1 3669   0.260   3.982   2.950
 1218SOL    HW2 3670   0.137   3.954   2.846
 1219SOL     OW 3671   0.019   4.092   2.509
 1219SOL    HW1 3672  -0.063   4.135   2.548
 1219SOL    HW2 3673  -0.009   4.019   2.446
 1220SOL     OW 3674   1.135   4.427   2.579
 1220SOL    HW1 3675   1.192   4.505   2.554
 1220SOL    HW2 3676   1.075   4.453   2.655
 1221SOL     OW 3677   1.755   4.331   2.093
 1221SOL    HW1 3678   1.743   4.318   1.994
 1221SOL    HW2 3679   1.725   4.250   2.142
 1222SOL     OW 3680   0.768   4.868   2.885
 1222SOL    HW1 3681   0.690   4.885   2.945
 1222SOL    HW2 3682   0.802   4.955   2.849
 1223SOL     OW 3683   0.850   4.522   3.685
 1223SOL    HW1 3684   0.846   4.598   3.750
 1223SOL    HW2 3685   0.872   4.558   3.594
 1224SOL     OW 3686   0.685   4.736   2.527
 1224SOL    HW1 3687   0.754   4.720   2.597
 1224SOL    HW2 3688   0.612   4.793   2.565
 1225SOL     OW 3689   0.438   4.116   3.361
 1225SOL    HW1 3690   0.520   4.060   3.370
 1225SOL    HW2 3691   0.357   4.058   3.365
 1226SOL     OW 3692   1.603   4.171   2.599
 1226SOL    HW1 3693   1.529   4.217   2.549
 1226SOL    HW2 3694   1.654   4.239   2.652
 1227SOL     OW 3695   0.240   4.815   2.748
 1227SOL    HW1 3696   0.254   4.731   2.800
 1227SOL    HW2 3697   0.185   4.879   2.803
 1228SOL     OW 3698   1.594   3.838   3.342
 1228SOL    HW1 3699   1.576   3.905   3.270
 1228SOL    HW2 3700   1.591   3.884   3.431
 1229SOL     OW 3701   0.122   4.367   2.425
 1229SOL    HW1 3702   0.077   4.279   2.442
 1229SOL    HW2 3703   0.121   4.421   2.509
 1230SOL     OW 3704   0.113   4.461   3.459
 1230SOL    HW1 3705   0.201   4.448   3.504
 1230SOL    HW2 3706   0.100   4.558   3.437
 1231SOL     OW 3707   0.809   3.728   2.364
 1231SOL    HW1 3708   0.849   3.819   2.355
 1231SOL    HW2 3709   0.709   3.736   2.370
 1232SOL     OW 3710   0.197   4.700   3.126
 1232SOL    HW1 3711   0.286   4.655   3.112
 1232SOL    HW2 3712   0.124   4.635   3.107
 1233SOL     OW 3713   1.525   4.723   2.052
 1233SOL    HW1 3714   1.462   4.647   2.065
 1233SOL    HW2 3715   1.573   4.741   2.138
 1234SOL     OW 3716   0.317   3.975   3.663
 1234SOL    HW1 3717   0.388   4.046   3.669
 1234SOL    HW2 3718   0.229   4.014   3.691
 1235SOL     OW 3719   0.598   4.453   2.132
 1235SOL    HW1 3720   0.622   4.522   2.064
 1235SOL    HW2 3721   0.520   4.486   2.186
 1236SOL     OW 3722   1.281   4.069   2.806
 1236SOL    HW1 3723   1.195   4.019   2.793
 1236SOL    HW2 3724   1.343   4.015   2.862
 1237SOL     OW 3725   0.807   4.329   3.327
 1237SOL    HW1 3726   0.760   4.326   3.416
 1237SOL    HW2 3727   0.756   4.274   3.261
 1238SOL     OW 3728   1.394   4.193   3.536
 1238SOL    HW1 3729   1.374   4.236   3.624
 1238SOL    HW2 3730   1.472   4.131   3.545
 1239SOL     OW 3731   0.973   4.614   3.434
 1239SOL    HW1 3732   1.019   4.530   3.405
 1239SOL    HW2 3733   0.917   4.648   3.359
 1240SOL     OW 3734   0.991   4.134   3.104
 1240SOL    HW1 3735   0.914   4.168   3.158
 1240SOL    HW2 3736   0.957   4.083   3.025
 1241SOL     OW 3737   1.041   4.425   2.291
 1241SOL    HW1 3738   1.067   4.421   2.387
 1241SOL    HW2 3739   0.956   4.374   2.277
 1242SOL     OW 3740   0.076   4.535   2.651
 1242SOL    HW1 3741   0.175   4.523   2.660
 1242SOL    HW2 3742   0.052   4.630   2.672
 1243SOL     OW 3743   0.865   4.072   2.057
 1243SOL    HW1 3744   0.924   4.135   2.008
 1243SOL    HW2 3745   0.884   3.978   2.028
 1244SOL     OW 3746   1.719   4.309   3.693
 1244SOL    HW1 3747   1.693   4.398   3.657
 1244SOL    HW2 3748   1.717   4.241   3.620
 1245SOL     OW 3749   0.550   3.920   2.747
 1245SOL    HW1 3750   0.545   3.915   2.847
 1245SOL    HW2 3751   0.552   4.016   2.718
 1246SOL     OW 3752   1.458   4.459   2.590
 1246SOL    HW1 3753   1.453   4.394   2.665
 1246SOL    HW2 3754   1.538   4.518   2.603
 1247SOL     OW 3755   0.202   4.009   3.360
 1247SOL    HW1 3756   0.122   4.069   3.347
 1247SOL    HW2 3757   0.192   3.960   3.446
 1248SOL     OW 3758   1.400   3.831   2.288
 1248SOL    HW1 3759   1.376   3.794   2.198
 1248SOL    HW2 3760   1.499   3.847   2.292
 1249SOL     OW 3761   0.382   4.424   2.342
 1249SOL    HW1 3762   0.427   4.334   2.339
 1249SOL    HW2 3763   0.288   4.413   2.375
 1250SOL     OW 3764   1.547   3.946   3.591
 1250SOL    HW1 3765   1.542   3.983   3.683
 1250SOL    HW2 3766   1.475   3.877   3.579
 1251SOL     OW 3767   0.614   3.846   1.979
 1251SOL    HW1 3768   0.712   3.824   1.986
 1251SOL    HW2 3769   0.583   3.829   1.886
 1252SOL     OW 3770   0.781   3.988   3.611
 1252SOL    HW1 3771   0.848   3.927   3.654
 1252SOL    HW2 3772   0.708   4.007   3.676
 1253SOL     OW 3773   1.351   4.314   3.295
 1253SOL    HW1 3774   1.379   4.271   3.380
 1253SOL    HW2 3775   1.376   4.410   3.296
 1254SOL     OW 3776   0.922   4.227   2.761
 1254SOL    HW1 3777   0.897   4.218   2.665
 1254SOL    HW2 3778   0.970   4.145   2.792
 1255SOL     OW 3779   0.539   3.788   2.374
 1255SOL    HW1 3780   0.458   3.789   2.432
 1255SOL    HW2 3781   0.542   3.871   2.319
 1256SOL     OW 3782   0.297   3.759   2.033
 1256SOL    HW1 3783   0.346   3.843   2.012
 1256SOL    HW2 3784   0.359   3.694   2.078
 1257SOL     OW 3785   0.935   3.960   2.342
 1257SOL    HW1 3786   0.887   4.001   2.264
 1257SOL    HW2 3787   1.034   3.958   2.323
 1258SOL     OW 3788   1.076   4.407   3.326
 1258SOL    HW1 3789   0.996   4.346   3.329
 1258SOL    HW2 3790   1.157   4.354   3.302
 1259SOL     OW 3791   1.032   4.273   1.878
 1259SOL    HW1 3792   0.991   4.355   1.839
 1259SOL    HW2 3793   1.096   4.299   1.951
 1260SOL     OW 3794   0.078   4.280   3.248
 1260SOL    HW1 3795   0.170   4.279   3.207
 1260SOL    HW2 3796   0.072   4.354   3.315
 1261SOL     OW 3797   0.561   3.946   3.009
 1261SOL    HW1 3798   0.599   3.862   3.046
 1261SOL    HW2 3799   0.473   3.965   3.053
 1262SOL     OW 3800   0.866   4.178   2.504
 1262SOL    HW1 3801   0.834   4.250   2.442
 1262SOL    HW2 3802   0.890   4.097   2.451
 1263SOL     OW 3803   1.017   3.763   2.615
 1263SOL    HW1 3804   0.945   3.768   2.546
 1263SOL    HW2 3805   0.993   3.694   2.684
 1264SOL     OW 3806   1.429   4.897   2.729
 1264SOL    HW1 3807   1.374   4.813   2.722
 1264SOL    HW2 3808   1.455   4.926   2.637
 1265SOL     OW 3809   1.466   4.314   2.854
 1265SOL    HW1 3810   1.436   4.219   2.861
 1265SOL    HW2 3811   1.539   4.330   2.920
 1266SOL     OW 3812   1.857   4.557   2.239
 1266SOL    HW1 3813   1.899   4.493   2.303
 1266SOL    HW2 3814   1.819   4.506   2.161
 1267SOL     OW 3815   1.390   4.299   1.940
 1267SOL    HW1 3816   1.336   4.278   2.021
 1267SOL    HW2 3817   1.481   4.258   1.949
 1268SOL     OW 3818   0.527   3.980   2.190
 1268SOL    HW1 3819   0.554   3.921   2.115
 1268SOL    HW2 3820   0.527   4.075   2.159
 1269SOL     OW 3821   1.638   4.823   2.941
 1269SOL    HW1 3822   1.643   4.904   3.000
 1269SOL    HW2 3823   1.552   4.825   2.890
 1270SOL     OW 3824   0.915   3.813   3.264
 1270SOL    HW1 3825   0.940   3.793   3.169
 1270SOL    HW2 3826   0.987   3.869   3.306
 1271SOL     OW 3827   0.410   4.537   3.113
 1271SOL    HW1 3828   0.496   4.549   3.163
 1271SOL    HW2 3829   0.368   4.450   3.140
 1272SOL     OW 3830   1.274   4.110   3.124
 1272SOL    HW1 3831   1.295   4.184   3.188
 1272SOL    HW2 3832   1.185   4.127   3.081
 1273SOL     OW 3833   0.566   4.261   2.727
 1273SOL    HW1 3834   0.578   4.327   2.653
 1273SOL    HW2 3835   0.612   4.295   2.810
 1274SOL     OW 3836   1.582   4.363   2.334
 1274SOL    HW1 3837   1.551   4.424   2.407
 1274SOL    HW2 3838   1.632   4.415   2.265
 1275SOL     OW 3839   0.402   4.475   3.460
 1275SOL    HW1 3840   0.470   4.530   3.413
 1275SOL    HW2 3841   0.442   4.387   3.487
 1276SOL     OW 3842   1.587   4.503   3.532
 1276SOL    HW1 3843   1.495   4.541   3.527
 1276SOL    HW2 3844   1.647   4.550   3.467
 1277SOL     OW 3845   1.013   3.829   3.632
 1277SOL    HW1 3846   1.019   3.914   3.580
 1277SOL    HW2 3847   1.045   3.753   3.575
 1278SOL     OW 3848   0.504   3.774   3.602
 1278SOL    HW1 3849   0.462   3.717   3.532
 1278SOL    HW2 3850   0.438   3.843   3.634
 1279SOL     OW 3851   0.573   4.594   2.891
 1279SOL    HW1 3852   0.617   4.683   2.882
 1279SOL    HW2 3853   0.510   4.594   2.968
 1280SOL     OW 3854   1.360   4.586   2.907
 1280SOL    HW1 3855   1.285   4.586   2.841
 1280SOL    HW2 3856   1.397   4.494   2.916
 1281SOL     OW 3857   1.209   4.249   2.137
 1281SOL    HW1 3858   1.222   4.165   2.191
 1281SOL    HW2 3859   1.180   4.323   2.197
 1282SOL     OW 3860   0.307   3.937   3.093
 1282SOL    HW1 3861   0.284   3.974   3.183
 1282SOL    HW2 3862   0.277   3.842   3.087
 1283SOL     OW 3863   0.037   5.034   3.144
 1283SOL    HW1 3864   0.090   4.985   3.212
 1283SOL    HW2 3865   0.059   5.132   3.149
 1284SOL     OW 3866   0.732   4.358   2.926
 1284SOL    HW1 3867   0.791   4.332   2.850
 1284SOL    HW2 3868   0.704   4.454   2.915
 1285SOL     OW 3869   1.728   4.659   3.716
 1285SOL    HW1 3870   1.682   4.652   3.627
 1285SOL    HW2 3871   1.666   4.703   3.782
 1286SOL     OW 3872   0.307   3.787   2.480
 1286SOL    HW1 3873   0.296   3.881   2.513
 1286SOL    HW2 3874   0.302   3.724   2.557
 1287SOL     OW 3875   1.622   4.091   2.236
 1287SOL    HW1 3876   1.624   4.015   2.300
 1287SOL    HW2 3877   1.574   4.168   2.276
 1288SOL     OW 3878   1.023   4.490   2.828
 1288SOL    HW1 3879   1.038   4.511   2.924
 1288SOL    HW2 3880   0.993   4.395   2.819
 1289SOL     OW 3881   0.350   4.622   3.666
 1289SOL    HW1 3882   0.426   4.666   3.714
 1289SOL    HW2 3883   0.385   4.575   3.584
 1290SOL     OW 3884   1.540   3.998   1.987
 1290SOL    HW1 3885   1.479   3.923   2.010
 1290SOL    HW2 3886   1.562   4.050   2.070
 1291SOL     OW 3887   1.303   4.562   1.904
 1291SOL    HW1 3888   1.337   4.469   1.919
 1291SOL    HW2 3889   1.321   4.589   1.809
 1292SOL     OW 3890   0.319   4.534   2.811
 1292SOL    HW1 3891   0.412   4.570   2.816
 1292SOL    HW2 3892   0.313   4.449   2.863
 1293SOL     OW 3893   0.339   4.233   2.868
 1293SOL    HW1 3894   0.287   4.150   2.851
 1293SOL    HW2 3895   0.416   4.238   2.804
 1294SOL     OW 3896   1.138   4.104   3.540
 1294SOL    HW1 3897   1.093   4.167   3.604
 1294SOL    HW2 3898   1.231   4.135   3.523
 1295SOL     OW 3899   1.160   3.931   3.339
 1295SOL    HW1 3900   1.160   3.995   3.416
 1295SOL    HW2 3901   1.188   3.979   3.256
 1296SOL     OW 3902   1.002   4.520   3.100
 1296SOL    HW1 3903   1.043   4.488   3.186
 1296SOL    HW2 3904   0.906   4.493   3.097
 1297SOL     OW 3905   0.040   4.268   2.976
 1297SOL    HW1 3906   0.125   4.235   2.935
 1297SOL    HW2 3907   0.053   4.283   3.074
 1298SOL     OW 3908   0.189   4.244   3.584
 1298SOL    HW1 3909   0.248   4.204   3.514
 1298SOL    HW2 3910   0.131   4.315   3.543
 1299SOL     OW 3911   1.369   4.674   3.522
 1299SOL    HW1 3912   1.408   4.763   3.542
 1299SOL    HW2 3913   1.379   4.654   3.425
 1300SOL     OW 3914   0.815   4.296   2.187
 1300SOL    HW1 3915   0.822   4.207   2.141
 1300SOL    HW2 3916   0.721   4.330   2.179
 1301SOL     OW 3917   1.657   4.328   3.068
 1301SOL    HW1 3918   1.619   4.259   3.130
 1301SOL    HW2 3919   1.739   4.292   3.024
 1302SOL     OW 3920   0.671   4.188   3.131
 1302SOL    HW1 3921   0.637   4.099   3.101
 1302SOL    HW2 3922   0.697   4.242   3.051
 1303SOL     OW 3923   0.473   4.224   2.053
 1303SOL    HW1 3924   0.534   4.304   2.057
 1303SOL    HW2 3925   0.378   4.255   2.060
 1304SOL     OW 3926   0.159   4.861   3.328
 1304SOL    HW1 3927   0.181   4.800   3.404
 1304SOL    HW2 3928   0.169   4.812   3.242
 1305SOL     OW 3929   1.347   4.783   3.096
 1305SOL    HW1 3930   1.371   4.720   3.022
 1305SOL    HW2 3931   1.257   4.823   3.078
 1306SOL     OW 3932   1.302   4.579   2.171
 1306SOL    HW1 3933   1.216   4.548   2.213
 1306SOL    HW2 3934   1.298   4.565   2.072
 1307SOL     OW 3935   1.726   3.859   2.385
 1307SOL    HW1 3936   1.799   3.842   2.318
 1307SOL    HW2 3937   1.695   3.772   2.423
 1308SOL     OW 3938   1.280   4.651   2.534
 1308SOL    HW1 3939   1.340   4.570   2.536
 1308SOL    HW2 3940   1.320   4.720   2.474
 1309SOL     OW 3941   1.841   3.899   2.825
 1309SOL    HW1 3942   1.880   3.814   2.789
 1309SOL    HW2 3943   1.743   3.901   2.806
 1310SOL     OW 3944   0.263   4.050   2.582
 1310SOL    HW1 3945   0.184   4.101   2.548
 1310SOL    HW2 3946   0.254   4.035   2.680
 1311SOL     OW 3947   0.916   4.634   2.153
 1311SOL    HW1 3948   0.979   4.672   2.085
 1311SOL    HW2 3949   0.956   4.551   2.192
 1312SOL     OW 3950   1.014   3.960   2.833
 1312SOL    HW1 3951   1.006   3.924   2.740
 1312SOL    HW2 3952   1.012   3.884   2.898
 1313SOL     OW 3953   1.709   4.109   3.243
 1313SOL    HW1 3954   1.782   4.178   3.247
 1313SOL    HW2 3955   1.737   4.034   3.184
 1314SOL     OW 3956   0.105   4.737   3.588
 1314SOL    HW1 3957   0.028   4.704   3.642
 1314SOL    HW2 3958   0.190   4.707   3.630
 1315SOL     OW 3959   0.672   3.927   3.351
 1315SOL    HW1 3960   0.762   3.911   3.311
 1315SOL    HW2 3961   0.680   3.932   3.450
 1316SOL     OW 3962   0.075   4.069   1.895
 1316SOL    HW1 3963  -0.017   4.041   1.866
 1316SOL    HW2 3964   0.106   4.146   1.839
 1317SOL     OW 3965   1.440   4.580   3.260
 1317SOL    HW1 3966   1.383   4.632   3.197
 1317SOL    HW2 3967   1.536   4.592   3.236
 1318SOL     OW 3968   0.072   3.890   2.180
 1318SOL    HW1 3969   0.055   3.973   2.126
 1318SOL    HW2 3970   0.162   3.853   2.158
 1319SOL     OW 3971   1.183   5.059   1.981
 1319SOL    HW1 3972   1.084   5.048   1.983
 1319SOL    HW2 3973   1.217   5.074   2.074
 1320SOL     OW 3974   0.613   4.566   3.293
 1320SOL    HW1 3975   0.669   4.647   3.276
 1320SOL    HW2 3976   0.672   4.486   3.296
 1321SOL     OW 3977   0.716   4.289   3.570
 1321SOL    HW1 3978   0.735   4.354   3.644
 1321SOL    HW2 3979   0.776   4.209   3.579
 1322SOL     OW 3980   1.674   4.607   3.116
 1322SOL    HW1 3981   1.647   4.518   3.079
 1322SOL    HW2 3982   1.675   4.675   3.043
 1323SOL     OW 3983   1.225   4.049   2.311
 1323SOL    HW1 3984   1.290   3.975   2.300
 1323SOL    HW2 3985   1.245   4.099   2.395
 1324SOL     OW 3986   0.594   4.469   2.514
 1324SOL    HW1 3987   0.644   4.554   2.495
 1324SOL    HW2 3988   0.506   4.471   2.466
 1325SOL     OW 3989   1.777   4.066   3.504
 1325SOL    HW1 3990   1.760   4.097   3.410
 1325SOL    HW2 3991   1.693   4.029   3.542
 1326SOL     OW 3992   1.730   4.658   3.379
 1326SOL    HW1 3993   1.768   4.749   3.394
 1326SOL    HW2 3994   1.722   4.641   3.280
 1327SOL     OW 3995   0.859   4.680   2.723
 1327SOL    HW1 3996   0.913   4.611   2.771
 1327SOL    HW2 3997   0.827   4.749   2.789
 1328SOL     OW 3998   1.083   4.708   1.949
 1328SOL    HW1 3999   1.060   4.761   1.867
 1328SOL    HW2 4000   1.164   4.652   1.930
 1329SOL     OW 4001   0.079   4.964   2.515
 1329SOL    HW1 4002   0.078   4.917   2.603
 1329SOL    HW2 4003   0.161   4.936   2.464
 1330SOL     OW 4004   1.824   3.916   3.089
 1330SOL    HW1 4005   1.820   3.826   3.133
 1330SOL    HW2 4006   1.827   3.905   2.990
 1331SOL     OW 4007   0.428   4.148   2.382
 1331SOL    HW1 4008   0.458   4.076   2.320
 1331SOL    HW2 4009   0.389   4.108   2.465
 1332SOL     OW 4010   0.317   4.271   3.142
 1332SOL    HW1 4011   0.355   4.212   3.214
 1332SOL    HW2 4012   0.357   4.245   3.054
 1333SOL     OW 4013   1.424   3.938   2.974
 1333SOL    HW1 4014   1.476   3.873   3.029
 1333SOL    HW2 4015   1.375   4.001   3.035
 1334SOL     OW 4016   1.001   3.758   3.016
 1334SOL    HW1 4017   0.938   3.686   2.985
 1334SOL    HW2 4018   1.094   3.722   3.016
 1335SOL     OW 4019   1.352   3.776   2.030
 1335SOL    HW1 4020   1.387   3.735   1.946
 1335SOL    HW2 4021   1.262   3.738   2.050
 1336SOL     OW 4022   1.300   4.177   2.553
 1336SOL    HW1 4023   1.241   4.257   2.557
 1336SOL    HW2 4024   1.315   4.142   2.646
 1337SOL     OW 4025   1.593   3.945   2.744
 1337SOL    HW1 4026   1.509   3.944   2.798
 1337SOL    HW2 4027   1.595   4.028   2.688
 1338SOL     OW 4028   0.230   4.352   3.837
 1338SOL    HW1 4029   0.137   4.350   3.874
 1338SOL    HW2 4030   0.231   4.313   3.745
 1339SOL     OW 4031   0.225   3.999   4.720
 1339SOL    HW1 4032   0.260   3.982   4.812
 1339SOL    HW2 4033   0.137   3.954   4.708
 1340SOL     OW 4034   0.019   4.092   4.371
 1340SOL    HW1 4035  -0.063   4.135   4.410
 1340SOL    HW2 4036  -0.009   4.019   4.308
 1341SOL     OW 4037   1.135   4.427   4.441
 1341SOL    HW1 4038   1.192   4.505   4.416
 1341SOL    HW2 4039   1.075   4.453   4.517
 1342SOL     OW 4040   1.755   4.331   3.955
 1342SOL    HW1 4041   1.743   4.318   3.856
 1342SOL    HW2 4042   1.725   4.250   4.004
 1343SOL     OW 4043   0.685   4.736   4.389
 1343SOL    HW1 4044   0.754   4.720   4.459
 1343SOL    HW2 4045   0.612   4.793   4.427
 1344SOL     OW 4046   1.603   4.171   4.461
 1344SOL    HW1 4047   1.529   4.217   4.411
 1344SOL    HW2 4048   1.654   4.239   4.514
 1345SOL     OW 4049   0.240   4.815   4.610
 1345SOL    HW1 4050   0.254   4.731   4.662
 1345SOL    HW2 4051   0.185   4.879   4.665
 1346SOL     OW 4052   0.122   4.367   4.287
 1346SOL    HW1 4053   0.077   4.279   4.304
 1346SOL    HW2 4054   0.121   4.421   4.371
 1347SOL     OW 4055   0.809   3.728   4.226
 1347SOL    HW1 4056   0.849   3.819   4.217
 1347SOL    HW2 4057   0.709   3.736   4.232
 1348SOL     OW 4058   1.525   4.723   3.914
 1348SOL    HW1 4059   1.462   4.647   3.927
 1348SOL    HW2 4060   1.573   4.741   4.000
 1349SOL     OW 4061   0.598   4.453   3.994
 1349SOL    HW1 4062   0.622   4.522   3.926
 1349SOL    HW2 4063   0.520   4.486   4.048
 1350SOL     OW 4064   1.281   4.069   4.668
 1350SOL    HW1 4065   1.195   4.019   4.655
 1350SOL    HW2 4066   1.343   4.015   4.724
 1351SOL     OW 4067   1.041   4.425   4.153
 1351SOL    HW1 4068   1.067   4.421   4.249
 1351SOL    HW2 4069   0.956   4.374   4.139
 1352SOL     OW 4070   0.076   4.535   4.513
 1352SOL    HW1 4071   0.175   4.523   4.522
 1352SOL    HW2 4072   0.052   4.630   4.534
 1353SOL     OW 4073   0.865   4.072   3.919
 1353SOL    HW1 4074   0.924   4.135   3.870
 1353SOL    HW2 4075   0.884   3.978   3.890
 1354SOL     OW 4076   0.550   3.920   4.609
 1354SOL    HW1 4077   0.545   3.915   4.709
 1354SOL    HW2 4078   0.552   4.016   4.580
 1355SOL     OW 4079   1.458   4.459   4.452
 1355SOL    HW1 4080   1.453   4.394   4.527
 1355SOL    HW2 4081   1.538   4.518   4.465
 1356SOL     OW 4082   1.400   3.831   4.150
 1356SOL    HW1 4083   1.376   3.794   4.060
 1356SOL    HW2 4084   1.499   3.847   4.154
 1357SOL     OW 4085   0.382   4.424   4.204
 1357SOL    HW1 4086   0.427   4.334   4.201
 1357SOL    HW2 4087   0.288   4.413   4.237
 1358SOL     OW 4088   0.614   3.846   3.841
 1358SOL    HW1 4089   0.712   3.824   3.848
 1358SOL    HW2 4090   0.583   3.829   3.748
 1359SOL     OW 4091   0.922   4.227   4.623
 1359SOL    HW1 4092   0.897   4.218   4.527
 1359SOL    HW2 4093   0.970   4.145   4.654
 1360SOL     OW 4094   0.539   3.788   4.236
 1360SOL    HW1 4095   0.458   3.789   4.294
 1360SOL    HW2 4096   0.542   3.871   4.181
 1361SOL     OW 4097   0.297   3.759   3.895
 1361SOL    HW1 4098   0.346   3.843   3.874
 1361SOL    HW2 4099   0.359   3.694   3.940
 1362SOL     OW 4100   0.935   3.960   4.204
 1362SOL    HW1 4101   0.887   4.001   4.126
 1362SOL    HW2 4102   1.034   3.958   4.185
 1363SOL     OW 4103   1.032   4.273   3.740
 1363SOL    HW1 4104   0.991   4.355   3.701
 1363SOL    HW2 4105   1.096   4.299   3.813
 1364SOL     OW 4106   0.866   4.178   4.366
 1364SOL    HW1 4107   0.834   4.250   4.304
 1364SOL    HW2 4108   0.890   4.097   4.313
 1365SOL     OW 4109   1.017   3.763   4.477
 1365SOL    HW1 4110   0.945   3.768   4.408
 1365SOL    HW2 4111   0.993   3.694   4.546
 1366SOL     OW 4112   1.429   4.897   4.591
 1366SOL    HW1 4113   1.374   4.813   4.584
 1366SOL    HW2 4114   1.455   4.926   4.499
 1367SOL     OW 4115   1.466   4.314   4.716
 1367SOL    HW1 4116   1.436   4.219   4.723
 1367SOL    HW2 4117   1.539   4.330   4.782
 1368SOL     OW 4118   1.857   4.557   4.101
 1368SOL    HW1 4119   1.899   4.493   4.165
 1368SOL    HW2 4120   1.819   4.506   4.023
 1369SOL     OW 4121   1.390   4.299   3.802
 1369SOL    HW1 4122   1.336   4.278   3.883
 1369SOL    HW2 4123   1.481   4.258   3.811
 1370SOL     OW 4124   0.527   3.980   4.052
 1370SOL    HW1 4125   0.554   3.921   3.977
 1370SOL    HW2 4126   0.527   4.075   4.021
 1371SOL     OW 4127   1.638   4.823   4.803
 1371SOL    HW1 4128   1.643   4.904   4.862
 1371SOL    HW2 4129   1.552   4.825   4.752
 1372SOL     OW 4130   0.566   4.261   4.589
 1372SOL    HW1 4131   0.578   4.327   4.515
 1372SOL    HW2 4132   0.612   4.295   4.672
 1373SOL     OW 4133   1.582   4.363   4.196
 1373SOL    HW1 4134   1.551   4.424   4.269
 1373SOL    HW2 4135   1.632   4.415   4.127
 1374SOL     OW 4136   0.573   4.594   4.753
 1374SOL    HW1 4137   0.617   4.683   4.744
 1374SOL    HW2 4138   0.510   4.594   4.830
 1375SOL     OW 4139   1.209   4.249   3.999
 1375SOL    HW1 4140   1.222   4.165   4.053
 1375SOL    HW2 4141   1.180   4.323   4.059
 1376SOL     OW 4142   0.307   3.937   4.955
 1376SOL    HW1 4143   0.284   3.974   5.045
 1376SOL    HW2 4144   0.277   3.842   4.949
 1377SOL     OW 4145   0.732   4.358   4.788
 1377SOL    HW1 4146   0.791   4.332   4.712
 1377SOL    HW2 4147   0.704   4.454   4.777
 1378SOL     OW 4148   0.307   3.787   4.342
 1378SOL    HW1 4149   0.296   3.881   4.375
 1378SOL    HW2 4150   0.302   3.724   4.419
 1379SOL     OW 4151   1.622   4.091   4.098
 1379SOL    HW1 4152   1.624   4.015   4.162
 1379SOL    HW2 4153   1.574   4.168   4.138
 1380SOL     OW 4154   1.540   3.998   3.849
 1380SOL    HW1 4155   1.479   3.923   3.872
 1380SOL    HW2 4156   1.562   4.050   3.932
 1381SOL     OW 4157   1.303   4.562   3.766
 1381SOL    HW1 4158   1.337   4.469   3.781
 1381SOL    HW2 4159   1.321   4.589   3.671
 1382SOL     OW 4160   0.319   4.534   4.673
 1382SOL    HW1 4161   0.412   4.570   4.678
 1382SOL    HW2 4162   0.313   4.449   4.725
 1383SOL     OW 4163   0.339   4.233   4.730
 1383SOL    HW1 4164   0.287   4.150   4.713
 1383SOL    HW2 4165   0.416   4.238   4.666
 1384SOL     OW 4166   0.815   4.296   4.049
 1384SOL    HW1 4167   0.822   4.207   4.003
 1384SOL    HW2 4168   0.721   4.330   4.041
 1385SOL     OW 4169   0.671   4.188   4.993
 1385SOL    HW1 4170   0.637   4.099   4.963
 1385SOL    HW2 4171   0.697   4.242   4.913
 1386SOL     OW 4172   0.473   4.224   3.915
 1386SOL    HW1 4173   0.534   4.304   3.919
 1386SOL    HW2 4174   0.378   4.255   3.922
 1387SOL     OW 4175   1.302   4.579   4.033
 1387SOL    HW1 4176   1.216   4.548   4.075
 1387SOL    HW2 4177   1.298   4.565   3.934
 1388SOL     OW 4178   1.726   3.859   4.247
 1388SOL    HW1 4179   1.799   3.842   4.180
 1388SOL    HW2 4180   1.695   3.772   4.285
 1389SOL     OW 4181   1.280   4.651   4.396
 1389SOL    HW1 4182   1.340   4.570   4.398
 1389SOL    HW2 4183   1.320   4.720   4.336
 1390SOL     OW 4184   1.841   3.899   4.687
 1390SOL    HW1 4185   1.880   3.814   4.651
 1390SOL    HW2 4186   1.743   3.901   4.668
 1391SOL     OW 4187   0.263   4.050   4.444
 1391SOL    HW1 4188   0.184   4.101   4.410
 1391SOL    HW2 4189   0.254   4.035   4.542
 1392SOL     OW 4190   0.916   4.634   4.015
 1392SOL    HW1 4191   0.979   4.672   3.947
 1392SOL    HW2 4192   0.956   4.551   4.054
 1393SOL     OW 4193   0.075   4.069   3.757
 1393SOL    HW1 4194  -0.017   4.041   3.728
 1393SOL    HW2 4195   0.106   4.146   3.701
 1394SOL     OW 4196   0.072   3.890   4.042
 1394SOL    HW1 4197   0.055   3.973   3.988
 1394SOL    HW2 4198   0.162   3.853   4.020
 1395SOL     OW 4199   1.183   5.059   3.843
 1395SOL    HW1 4200   1.084   5.048   3.845
 1395SOL    HW2 4201   1.217   5.074   3.936
 1396SOL     OW 4202   1.674   4.607   4.978
 1396SOL    HW1 4203   1.647   4.518   4.941
 1396SOL    HW2 4204   1.675   4.675   4.905
 1397SOL     OW 4205   1.225   4.049   4.173
 1397SOL    HW1 4206   1.290   3.975   4.162
 1397SOL    HW2 4207   1.245   4.099   4.257
 1398SOL     OW 4208   0.594   4.469   4.376
 1398SOL    HW1 4209   0.644   4.554   4.357
 1398SOL    HW2 4210   0.506   4.471   4.328
 1399SOL     OW 4211   0.859   4.680   4.585
 1399SOL    HW1 4212   0.913   4.611   4.633
 1399SOL    HW2 4213   0.827   4.749   4.651
 1400SOL     OW 4214   1.083   4.708   3.811
 1400SOL    HW1 4215   1.060   4.761   3.729
 1400SOL    HW2 4216   1.164   4.652   3.792
 1401SOL     OW 4217   0.079   4.964   4.377
 1401SOL    HW1 4218   0.078   4.917   4.465
 1401SOL    HW2 4219   0.161   4.936   4.326
 1402SOL     OW 4220   1.824   3.916   4.951
 1402SOL    HW1 4221   1.820   3.826   4.995
 1402SOL    HW2 4222   1.827   3.905   4.852
 1403SOL     OW 4223   0.428   4.148   4.244
 1403SOL    HW1 4224   0.458   4.076   4.182
 1403SOL    HW2 4225   0.389   4.108   4.327
 1404SOL     OW 4226   1.352   3.776   3.892
 1404SOL    HW1 4227   1.387   3.735   3.808
 1404SOL    HW2 4228   1.262   3.738   3.912
 1405SOL     OW 4229   1.300   4.177   4.415
 1405SOL    HW1 4230   1.241   4.257   4.419
 1405SOL    HW2 4231   1.315   4.142   4.508
 1406SOL     OW 4232   1.593   3.945   4.606
 1406SOL    HW1 4233   1.509   3.944   4.660
 1406SOL    HW2 4234   1.595   4.028   4.550
 1407SOL     OW 4235   2.092   0.628   0.113
 1407SOL    HW1 4236   1.999   0.626   0.150
 1407SOL    HW2 4237   2.093   0.589   0.021
 1408SOL     OW 4238   2.087   0.275   0.996
 1408SOL    HW1 4239   2.122   0.258   1.088
 1408SOL    HW2 4240   1.999   0.230   0.984
 1409SOL     OW 4241   1.881   0.368   0.647
 1409SOL    HW1 4242   1.799   0.411   0.686
 1409SOL    HW2 4243   1.853   0.295   0.584
 1410SOL     OW 4244   2.431   1.275   1.165
 1410SOL    HW1 4245   2.338   1.268   1.128
 1410SOL    HW2 4246   2.442   1.364   1.209
 1411SOL     OW 4247   3.417   1.511   0.703
 1411SOL    HW1 4248   3.360   1.495   0.784
 1411SOL    HW2 4249   3.358   1.521   0.623
 1412SOL     OW 4250   2.997   0.703   0.717
 1412SOL    HW1 4251   3.054   0.781   0.692
 1412SOL    HW2 4252   2.937   0.729   0.793
 1413SOL     OW 4253   3.617   0.607   0.231
 1413SOL    HW1 4254   3.605   0.594   0.132
 1413SOL    HW2 4255   3.587   0.526   0.280
 1414SOL     OW 4256   2.630   1.144   1.023
 1414SOL    HW1 4257   2.552   1.161   1.083
 1414SOL    HW2 4258   2.664   1.231   0.987
 1415SOL     OW 4259   2.712   0.798   1.823
 1415SOL    HW1 4260   2.708   0.874   1.888
 1415SOL    HW2 4261   2.734   0.834   1.732
 1416SOL     OW 4262   2.547   1.012   0.665
 1416SOL    HW1 4263   2.616   0.996   0.735
 1416SOL    HW2 4264   2.474   1.069   0.703
 1417SOL     OW 4265   2.548   1.161   1.803
 1417SOL    HW1 4266   2.608   1.240   1.817
 1417SOL    HW2 4267   2.462   1.192   1.762
 1418SOL     OW 4268   2.197   1.435   1.061
 1418SOL    HW1 4269   2.119   1.404   1.008
 1418SOL    HW2 4270   2.255   1.493   1.004
 1419SOL     OW 4271   3.322   1.505   1.339
 1419SOL    HW1 4272   3.346   1.599   1.365
 1419SOL    HW2 4273   3.306   1.451   1.421
 1420SOL     OW 4274   2.300   0.392   1.499
 1420SOL    HW1 4275   2.382   0.336   1.508
 1420SOL    HW2 4276   2.219   0.334   1.503
 1421SOL     OW 4277   3.465   0.447   0.737
 1421SOL    HW1 4278   3.391   0.493   0.687
 1421SOL    HW2 4279   3.516   0.515   0.790
 1422SOL     OW 4280   2.093   1.713   0.483
 1422SOL    HW1 4281   2.127   1.790   0.537
 1422SOL    HW2 4282   2.137   1.713   0.393
 1423SOL     OW 4283   2.989   1.341   1.690
 1423SOL    HW1 4284   3.036   1.341   1.778
 1423SOL    HW2 4285   2.941   1.254   1.679
 1424SOL     OW 4286   2.092   1.434   0.538
 1424SOL    HW1 4287   2.066   1.530   0.538
 1424SOL    HW2 4288   2.021   1.380   0.583
 1425SOL     OW 4289   2.102   1.091   0.886
 1425SOL    HW1 4290   2.116   1.007   0.938
 1425SOL    HW2 4291   2.047   1.155   0.941
 1426SOL     OW 4292   2.482   1.786   1.439
 1426SOL    HW1 4293   2.390   1.769   1.474
 1426SOL    HW2 4294   2.510   1.878   1.465
 1427SOL     OW 4295   2.468   0.964   0.123
 1427SOL    HW1 4296   2.475   1.048   0.069
 1427SOL    HW2 4297   2.514   0.977   0.211
 1428SOL     OW 4298   3.456   0.114   1.480
 1428SOL    HW1 4299   3.438   0.181   1.408
 1428SOL    HW2 4300   3.453   0.160   1.569
 1429SOL     OW 4301   1.984   0.643   0.563
 1429SOL    HW1 4302   1.939   0.555   0.580
 1429SOL    HW2 4303   1.983   0.697   0.647
 1430SOL     OW 4304   3.704   1.767   0.359
 1430SOL    HW1 4305   3.758   1.738   0.439
 1430SOL    HW2 4306   3.734   1.857   0.330
 1431SOL     OW 4307   1.889   1.596   0.117
 1431SOL    HW1 4308   1.870   1.500   0.138
 1431SOL    HW2 4309   1.856   1.654   0.192
 1432SOL     OW 4310   3.551   0.922   0.612
 1432SOL    HW1 4311   3.646   0.893   0.620
 1432SOL    HW2 4312   3.543   0.987   0.537
 1433SOL     OW 4313   3.503   1.108   0.432
 1433SOL    HW1 4314   3.589   1.110   0.380
 1433SOL    HW2 4315   3.517   1.155   0.520
 1434SOL     OW 4316   1.975   0.737   1.597
 1434SOL    HW1 4317   2.063   0.724   1.642
 1434SOL    HW2 4318   1.962   0.834   1.575
 1435SOL     OW 4319   2.475   1.365   0.726
 1435SOL    HW1 4320   2.426   1.278   0.735
 1435SOL    HW2 4321   2.452   1.408   0.639
 1436SOL     OW 4322   3.155   1.228   1.423
 1436SOL    HW1 4323   3.192   1.155   1.365
 1436SOL    HW2 4324   3.207   1.233   1.508
 1437SOL     OW 4325   2.671   0.004   0.502
 1437SOL    HW1 4326   2.711   0.095   0.493
 1437SOL    HW2 4327   2.571   0.012   0.508
 1438SOL     OW 4328   2.059   0.976   1.264
 1438SOL    HW1 4329   2.148   0.931   1.250
 1438SOL    HW2 4330   1.986   0.911   1.245
 1439SOL     OW 4331   3.387   0.999   0.190
 1439SOL    HW1 4332   3.324   0.923   0.203
 1439SOL    HW2 4333   3.435   1.017   0.276
 1440SOL     OW 4334   3.049   1.792   1.616
 1440SOL    HW1 4335   3.073   1.852   1.540
 1440SOL    HW2 4336   3.056   1.697   1.586
 1441SOL     OW 4337   2.179   0.251   1.801
 1441SOL    HW1 4338   2.250   0.322   1.807
 1441SOL    HW2 4339   2.091   0.290   1.829
 1442SOL     OW 4340   3.328   1.417   0.953
 1442SOL    HW1 4341   3.269   1.423   1.033
 1442SOL    HW2 4342   3.313   1.329   0.907
 1443SOL     OW 4343   3.529   1.714   0.572
 1443SOL    HW1 4344   3.488   1.691   0.484
 1443SOL    HW2 4345   3.511   1.640   0.637
 1444SOL     OW 4346   2.460   0.729   0.270
 1444SOL    HW1 4347   2.484   0.798   0.202
 1444SOL    HW2 4348   2.382   0.762   0.324
 1445SOL     OW 4349   3.143   0.345   0.944
 1445SOL    HW1 4350   3.057   0.295   0.931
 1445SOL    HW2 4351   3.205   0.291   1.000
 1446SOL     OW 4352   3.438   1.662   0.307
 1446SOL    HW1 4353   3.527   1.708   0.310
 1446SOL    HW2 4354   3.417   1.638   0.212
 1447SOL     OW 4355   2.669   0.605   1.465
 1447SOL    HW1 4356   2.622   0.602   1.554
 1447SOL    HW2 4357   2.618   0.550   1.399
 1448SOL     OW 4358   3.256   0.469   1.674
 1448SOL    HW1 4359   3.236   0.512   1.762
 1448SOL    HW2 4360   3.334   0.407   1.683
 1449SOL     OW 4361   2.835   0.890   1.572
 1449SOL    HW1 4362   2.881   0.806   1.543
 1449SOL    HW2 4363   2.779   0.924   1.497
 1450SOL     OW 4364   2.853   0.410   1.242
 1450SOL    HW1 4365   2.776   0.444   1.296
 1450SOL    HW2 4366   2.819   0.359   1.163
 1451SOL     OW 4367   2.903   0.701   0.429
 1451SOL    HW1 4368   2.929   0.697   0.525
 1451SOL    HW2 4369   2.818   0.650   0.415
 1452SOL     OW 4370   1.938   0.811   0.789
 1452SOL    HW1 4371   2.037   0.799   0.798
 1452SOL    HW2 4372   1.914   0.906   0.810
 1453SOL     OW 4373   1.992   1.821   1.571
 1453SOL    HW1 4374   1.982   1.806   1.670
 1453SOL    HW2 4375   1.906   1.857   1.535
 1454SOL     OW 4376   2.727   0.348   0.195
 1454SOL    HW1 4377   2.786   0.411   0.146
 1454SOL    HW2 4378   2.746   0.254   0.166
 1455SOL     OW 4379   3.581   0.585   1.831
 1455SOL    HW1 4380   3.555   0.674   1.795
 1455SOL    HW2 4381   3.579   0.517   1.758
 1456SOL     OW 4382   3.224   1.144   0.545
 1456SOL    HW1 4383   3.307   1.115   0.497
 1456SOL    HW2 4384   3.175   1.211   0.489
 1457SOL     OW 4385   2.412   0.196   0.885
 1457SOL    HW1 4386   2.407   0.191   0.985
 1457SOL    HW2 4387   2.414   0.292   0.856
 1458SOL     OW 4388   2.870   1.456   0.477
 1458SOL    HW1 4389   2.824   1.528   0.425
 1458SOL    HW2 4390   2.866   1.476   0.575
 1459SOL     OW 4391   2.213   1.801   0.853
 1459SOL    HW1 4392   2.263   1.715   0.859
 1459SOL    HW2 4393   2.278   1.878   0.850
 1460SOL     OW 4394   3.657   1.066   0.873
 1460SOL    HW1 4395   3.595   1.051   0.797
 1460SOL    HW2 4396   3.605   1.077   0.958
 1461SOL     OW 4397   3.089   1.550   1.506
 1461SOL    HW1 4398   3.095   1.473   1.570
 1461SOL    HW2 4399   3.037   1.524   1.426
 1462SOL     OW 4400   2.183   0.943   0.242
 1462SOL    HW1 4401   2.265   0.982   0.200
 1462SOL    HW2 4402   2.156   0.861   0.193
 1463SOL     OW 4403   3.320   0.735   0.728
 1463SOL    HW1 4404   3.315   0.670   0.803
 1463SOL    HW2 4405   3.400   0.794   0.741
 1464SOL     OW 4406   2.323   1.266   1.727
 1464SOL    HW1 4407   2.273   1.267   1.641
 1464SOL    HW2 4408   2.260   1.248   1.803
 1465SOL     OW 4409   2.973   1.776   0.237
 1465SOL    HW1 4410   2.913   1.714   0.287
 1465SOL    HW2 4411   3.004   1.732   0.152
 1466SOL     OW 4412   2.064   0.285   1.498
 1466SOL    HW1 4413   1.984   0.345   1.485
 1466SOL    HW2 4414   2.054   0.236   1.584
 1467SOL     OW 4415   3.494   1.377   0.081
 1467SOL    HW1 4416   3.462   1.471   0.071
 1467SOL    HW2 4417   3.418   1.314   0.069
 1468SOL     OW 4418   2.326   1.743   0.323
 1468SOL    HW1 4419   2.359   1.782   0.409
 1468SOL    HW2 4420   2.402   1.736   0.258
 1469SOL     OW 4421   3.262   0.107   0.426
 1469SOL    HW1 4422   3.238   0.070   0.336
 1469SOL    HW2 4423   3.361   0.123   0.430
 1470SOL     OW 4424   2.111   1.785   1.241
 1470SOL    HW1 4425   2.168   1.720   1.291
 1470SOL    HW2 4426   2.095   1.752   1.148
 1471SOL     OW 4427   2.802   1.698   0.904
 1471SOL    HW1 4428   2.882   1.641   0.925
 1471SOL    HW2 4429   2.753   1.658   0.827
 1472SOL     OW 4430   2.244   0.700   0.480
 1472SOL    HW1 4431   2.289   0.610   0.477
 1472SOL    HW2 4432   2.150   0.689   0.513
 1473SOL     OW 4433   3.409   0.222   1.729
 1473SOL    HW1 4434   3.404   0.259   1.821
 1473SOL    HW2 4435   3.337   0.153   1.717
 1474SOL     OW 4436   2.476   0.122   0.117
 1474SOL    HW1 4437   2.574   0.100   0.124
 1474SOL    HW2 4438   2.445   0.105   0.024
 1475SOL     OW 4439   2.643   0.264   1.749
 1475SOL    HW1 4440   2.710   0.203   1.792
 1475SOL    HW2 4441   2.570   0.283   1.814
 1476SOL     OW 4442   2.750   1.514   1.195
 1476SOL    HW1 4443   2.727   1.489   1.101
 1476SOL    HW2 4444   2.811   1.445   1.234
 1477SOL     OW 4445   3.213   0.590   1.433
 1477SOL    HW1 4446   3.241   0.547   1.518
 1477SOL    HW2 4447   3.238   0.686   1.434
 1478SOL     OW 4448   2.665   1.402   0.924
 1478SOL    HW1 4449   2.755   1.416   0.882
 1478SOL    HW2 4450   2.594   1.404   0.853
 1479SOL     OW 4451   2.784   0.503   0.899
 1479SOL    HW1 4452   2.759   0.494   0.803
 1479SOL    HW2 4453   2.832   0.421   0.930
 1480SOL     OW 4454   2.401   0.064   0.512
 1480SOL    HW1 4455   2.320   0.065   0.570
 1480SOL    HW2 4456   2.404   0.147   0.457
 1481SOL     OW 4457   3.296   1.188   0.041
 1481SOL    HW1 4458   3.328   1.112   0.098
 1481SOL    HW2 4459   3.204   1.215   0.071
 1482SOL     OW 4460   2.159   0.035   0.171
 1482SOL    HW1 4461   2.208   0.119   0.150
 1482SOL    HW2 4462   2.221  -0.030   0.216
 1483SOL     OW 4463   2.797   0.236   0.480
 1483SOL    HW1 4464   2.749   0.277   0.402
 1483SOL    HW2 4465   2.896   0.234   0.461
 1484SOL     OW 4466   2.938   0.683   1.464
 1484SOL    HW1 4467   2.858   0.622   1.467
 1484SOL    HW2 4468   3.019   0.630   1.440
 1485SOL     OW 4469   3.089   1.570   0.793
 1485SOL    HW1 4470   3.110   1.644   0.728
 1485SOL    HW2 4471   3.157   1.570   0.866
 1486SOL     OW 4472   2.321   1.152   0.741
 1486SOL    HW1 4473   2.250   1.125   0.806
 1486SOL    HW2 4474   2.295   1.124   0.648
 1487SOL     OW 4475   3.133   1.797   0.591
 1487SOL    HW1 4476   3.177   1.861   0.527
 1487SOL    HW2 4477   3.083   1.849   0.661
 1488SOL     OW 4478   2.894   0.549   0.016
 1488SOL    HW1 4479   2.853   0.631  -0.023
 1488SOL    HW2 4480   2.958   0.575   0.089
 1489SOL     OW 4481   1.940   0.556   1.386
 1489SOL    HW1 4482   2.032   0.555   1.345
 1489SOL    HW2 4483   1.934   0.630   1.453
 1490SOL     OW 4484   2.423   0.222   1.147
 1490SOL    HW1 4485   2.461   0.138   1.184
 1490SOL    HW2 4486   2.335   0.241   1.191
 1491SOL     OW 4487   2.728   0.454   0.642
 1491SOL    HW1 4488   2.696   0.526   0.580
 1491SOL    HW2 4489   2.752   0.373   0.589
 1492SOL     OW 4490   2.879   0.039   0.753
 1492SOL    HW1 4491   2.807   0.044   0.684
 1492SOL    HW2 4492   2.855  -0.030   0.822
 1493SOL     OW 4493   3.291   1.173   0.867
 1493SOL    HW1 4494   3.236   1.089   0.860
 1493SOL    HW2 4495   3.317   1.202   0.775
 1494SOL     OW 4496   3.328   0.590   0.992
 1494SOL    HW1 4497   3.298   0.495   0.999
 1494SOL    HW2 4498   3.401   0.606   1.058
 1495SOL     OW 4499   3.719   0.833   0.377
 1495SOL    HW1 4500   3.761   0.769   0.441
 1495SOL    HW2 4501   3.681   0.782   0.299
 1496SOL     OW 4502   2.350   1.385   0.174
 1496SOL    HW1 4503   2.263   1.370   0.221
 1496SOL    HW2 4504   2.333   1.411   0.079
 1497SOL     OW 4505   3.526   1.280   0.657
 1497SOL    HW1 4506   3.625   1.288   0.671
 1497SOL    HW2 4507   3.481   1.364   0.688
 1498SOL     OW 4508   3.252   0.575   0.078
 1498SOL    HW1 4509   3.198   0.554   0.159
 1498SOL    HW2 4510   3.343   0.534   0.087
 1499SOL     OW 4511   2.389   0.256   0.328
 1499SOL    HW1 4512   2.416   0.197   0.253
 1499SOL    HW2 4513   2.389   0.351   0.297
 1500SOL     OW 4514   3.616   1.223   1.588
 1500SOL    HW1 4515   3.707   1.184   1.575
 1500SOL    HW2 4516   3.624   1.319   1.612
 1501SOL     OW 4517   2.926   1.347   1.340
 1501SOL    HW1 4518   2.846   1.324   1.395
 1501SOL    HW2 4519   3.009   1.321   1.389
 1502SOL     OW 4520   3.454   1.629   1.625
 1502SOL    HW1 4521   3.481   1.663   1.535
 1502SOL    HW2 4522   3.533   1.591   1.671
 1503SOL     OW 4523   2.973   1.195   1.100
 1503SOL    HW1 4524   2.933   1.239   1.181
 1503SOL    HW2 4525   2.932   1.232   1.017
 1504SOL     OW 4526   3.500   1.099   1.079
 1504SOL    HW1 4527   3.505   1.180   1.138
 1504SOL    HW2 4528   3.414   1.101   1.028
 1505SOL     OW 4529   2.777   0.089   1.402
 1505SOL    HW1 4530   2.802   0.069   1.307
 1505SOL    HW2 4531   2.849   0.145   1.444
 1506SOL     OW 4532   2.842   1.116   1.719
 1506SOL    HW1 4533   2.743   1.122   1.729
 1506SOL    HW2 4534   2.865   1.036   1.663
 1507SOL     OW 4535   2.567   1.050   0.368
 1507SOL    HW1 4536   2.553   1.057   0.467
 1507SOL    HW2 4537   2.651   0.999   0.350
 1508SOL     OW 4538   2.272   0.813   1.251
 1508SOL    HW1 4539   2.358   0.825   1.301
 1508SOL    HW2 4540   2.230   0.726   1.278
 1509SOL     OW 4541   3.136   0.386   1.262
 1509SOL    HW1 4542   3.157   0.460   1.326
 1509SOL    HW2 4543   3.047   0.403   1.219
 1510SOL     OW 4544   1.926   1.564   1.331
 1510SOL    HW1 4545   1.880   1.646   1.297
 1510SOL    HW2 4546   2.024   1.583   1.340
 1511SOL     OW 4547   2.229   1.100   0.501
 1511SOL    HW1 4548   2.222   1.183   0.445
 1511SOL    HW2 4549   2.233   1.020   0.441
 1512SOL     OW 4550   2.428   0.537   0.865
 1512SOL    HW1 4551   2.440   0.603   0.791
 1512SOL    HW2 4552   2.474   0.571   0.948
 1513SOL     OW 4553   3.114   1.348   0.388
 1513SOL    HW1 4554   3.164   1.425   0.428
 1513SOL    HW2 4555   3.019   1.350   0.420
 1514SOL     OW 4556   3.134   1.445   1.142
 1514SOL    HW1 4557   3.181   1.458   1.229
 1514SOL    HW2 4558   3.068   1.371   1.151
 1515SOL     OW 4559   3.444   0.639   0.472
 1515SOL    HW1 4560   3.413   0.700   0.545
 1515SOL    HW2 4561   3.494   0.691   0.403
 1516SOL     OW 4562   2.216   1.510   1.329
 1516SOL    HW1 4563   2.195   1.466   1.242
 1516SOL    HW2 4564   2.313   1.536   1.332
 1517SOL     OW 4565   2.264   0.751   1.598
 1517SOL    HW1 4566   2.332   0.806   1.551
 1517SOL    HW2 4567   2.304   0.663   1.625
 1518SOL     OW 4568   3.449   0.779   1.670
 1518SOL    HW1 4569   3.357   0.817   1.665
 1518SOL    HW2 4570   3.509   0.826   1.605
 1519SOL     OW 4571   2.875   0.105   1.770
 1519SOL    HW1 4572   2.881   0.190   1.718
 1519SOL    HW2 4573   2.907   0.029   1.713
 1520SOL     OW 4574   2.366   0.050   1.740
 1520SOL    HW1 4575   2.324  -0.007   1.670
 1520SOL    HW2 4576   2.300   0.119   1.772
 1521SOL     OW 4577   2.435   0.870   1.029
 1521SOL    HW1 4578   2.479   0.959   1.020
 1521SOL    HW2 4579   2.372   0.870   1.106
 1522SOL     OW 4580   3.222   0.862   1.045
 1522SOL    HW1 4581   3.147   0.862   0.979
 1522SOL    HW2 4582   3.259   0.770   1.054
 1523SOL     OW 4583   3.071   0.525   0.275
 1523SOL    HW1 4584   3.084   0.441   0.329
 1523SOL    HW2 4585   3.042   0.599   0.335
 1524SOL     OW 4586   2.169   0.213   1.231
 1524SOL    HW1 4587   2.146   0.250   1.321
 1524SOL    HW2 4588   2.139   0.118   1.225
 1525SOL     OW 4589   1.899   1.310   1.282
 1525SOL    HW1 4590   1.952   1.261   1.350
 1525SOL    HW2 4591   1.921   1.408   1.287
 1526SOL     OW 4592   2.594   0.634   1.064
 1526SOL    HW1 4593   2.653   0.608   0.988
 1526SOL    HW2 4594   2.566   0.730   1.053
 1527SOL     OW 4595   3.590   0.935   1.854
 1527SOL    HW1 4596   3.544   0.928   1.765
 1527SOL    HW2 4597   3.528   0.979   1.920
 1528SOL     OW 4598   2.169   0.063   0.618
 1528SOL    HW1 4599   2.158   0.157   0.651
 1528SOL    HW2 4600   2.164   0.000   0.695
 1529SOL     OW 4601   3.484   0.367   0.374
 1529SOL    HW1 4602   3.486   0.291   0.438
 1529SOL    HW2 4603   3.436   0.444   0.414
 1530SOL     OW 4604   2.885   0.766   0.966
 1530SOL    HW1 4605   2.900   0.787   1.062
 1530SOL    HW2 4606   2.855   0.671   0.957
 1531SOL     OW 4607   2.842   1.573   1.700
 1531SOL    HW1 4608   2.822   1.617   1.612
 1531SOL    HW2 4609   2.881   1.482   1.684
 1532SOL     OW 4610   3.721   1.518   1.605
 1532SOL    HW1 4611   3.735   1.545   1.510
 1532SOL    HW2 4612   3.804   1.540   1.658
 1533SOL     OW 4613   2.212   0.898   1.804
 1533SOL    HW1 4614   2.288   0.942   1.852
 1533SOL    HW2 4615   2.247   0.851   1.722
 1534SOL     OW 4616   3.402   0.274   0.125
 1534SOL    HW1 4617   3.341   0.199   0.148
 1534SOL    HW2 4618   3.424   0.326   0.208
 1535SOL     OW 4619   3.165   0.838   0.042
 1535SOL    HW1 4620   3.199   0.745   0.057
 1535SOL    HW2 4621   3.183   0.865  -0.053
 1536SOL     OW 4622   2.930   1.333   0.849
 1536SOL    HW1 4623   2.937   1.249   0.794
 1536SOL    HW2 4624   2.992   1.402   0.813
 1537SOL     OW 4625   2.181   0.810   0.949
 1537SOL    HW1 4626   2.274   0.846   0.954
 1537SOL    HW2 4627   2.175   0.725   1.001
 1538SOL     OW 4628   2.201   0.509   1.006
 1538SOL    HW1 4629   2.149   0.426   0.989
 1538SOL    HW2 4630   2.278   0.514   0.942
 1539SOL     OW 4631   3.000   0.380   1.678
 1539SOL    HW1 4632   2.955   0.443   1.742
 1539SOL    HW2 4633   3.093   0.411   1.661
 1540SOL     OW 4634   3.022   0.207   1.477
 1540SOL    HW1 4635   3.022   0.271   1.554
 1540SOL    HW2 4636   3.050   0.255   1.394
 1541SOL     OW 4637   1.870   1.326   0.200
 1541SOL    HW1 4638   1.777   1.347   0.169
 1541SOL    HW2 4639   1.880   1.227   0.213
 1542SOL     OW 4640   1.950   1.801   0.927
 1542SOL    HW1 4641   1.908   1.715   0.900
 1542SOL    HW2 4642   2.044   1.804   0.893
 1543SOL     OW 4643   2.366   1.568   0.910
 1543SOL    HW1 4644   2.432   1.642   0.919
 1543SOL    HW2 4645   2.410   1.489   0.868
 1544SOL     OW 4646   2.864   0.796   1.238
 1544SOL    HW1 4647   2.905   0.764   1.324
 1544SOL    HW2 4648   2.768   0.769   1.235
 1545SOL     OW 4649   1.902   0.544   1.114
 1545SOL    HW1 4650   1.987   0.511   1.073
 1545SOL    HW2 4651   1.915   0.559   1.212
 1546SOL     OW 4652   2.051   0.520   1.722
 1546SOL    HW1 4653   2.110   0.480   1.652
 1546SOL    HW2 4654   1.993   0.591   1.681
 1547SOL     OW 4655   3.231   0.950   1.660
 1547SOL    HW1 4656   3.270   1.039   1.680
 1547SOL    HW2 4657   3.241   0.930   1.563
 1548SOL     OW 4658   2.677   0.572   0.325
 1548SOL    HW1 4659   2.684   0.483   0.279
 1548SOL    HW2 4660   2.583   0.606   0.317
 1549SOL     OW 4661   3.519   0.604   1.206
 1549SOL    HW1 4662   3.481   0.535   1.268
 1549SOL    HW2 4663   3.601   0.568   1.162
 1550SOL     OW 4664   2.114   1.564   1.744
 1550SOL    HW1 4665   2.084   1.621   1.820
 1550SOL    HW2 4666   2.107   1.467   1.770
 1551SOL     OW 4667   2.533   0.464   1.269
 1551SOL    HW1 4668   2.499   0.375   1.239
 1551SOL    HW2 4669   2.559   0.518   1.189
 1552SOL     OW 4670   2.792   1.678   1.465
 1552SOL    HW1 4671   2.768   1.660   1.370
 1552SOL    HW2 4672   2.822   1.772   1.475
 1553SOL     OW 4673   2.335   0.500   0.191
 1553SOL    HW1 4674   2.396   0.580   0.195
 1553SOL    HW2 4675   2.240   0.531   0.198
 1554SOL     OW 4676   2.021   1.137   1.466
 1554SOL    HW1 4677   2.043   1.076   1.542
 1554SOL    HW2 4678   2.031   1.088   1.380
 1555SOL     OW 4679   3.209   1.059   1.234
 1555SOL    HW1 4680   3.233   0.996   1.160
 1555SOL    HW2 4681   3.119   1.099   1.216
 1556SOL     OW 4682   3.164   0.855   0.309
 1556SOL    HW1 4683   3.078   0.824   0.351
 1556SOL    HW2 4684   3.160   0.841   0.210
 1557SOL     OW 4685   3.621   1.747   1.154
 1557SOL    HW1 4686   3.682   1.777   1.081
 1557SOL    HW2 4687   3.583   1.658   1.132
 1558SOL     OW 4688   3.114   1.731   1.128
 1558SOL    HW1 4689   3.198   1.736   1.074
 1558SOL    HW2 4690   3.091   1.635   1.146
 1559SOL     OW 4691   1.945   1.258   1.022
 1559SOL    HW1 4692   1.940   1.257   1.122
 1559SOL    HW2 4693   1.862   1.217   0.984
 1560SOL     OW 4694   2.550   1.662   1.716
 1560SOL    HW1 4695   2.494   1.743   1.725
 1560SOL    HW2 4696   2.602   1.666   1.630
 1561SOL     OW 4697   2.765   0.086   0.133
 1561SOL    HW1 4698   2.816   0.087   0.047
 1561SOL    HW2 4699   2.821   0.044   0.204
 1562SOL     OW 4700   3.588   0.135   0.523
 1562SOL    HW1 4701   3.661   0.118   0.456
 1562SOL    HW2 4702   3.557   0.048   0.561
 1563SOL     OW 4703   3.250   1.573   0.477
 1563SOL    HW1 4704   3.317   1.585   0.403
 1563SOL    HW2 4705   3.210   1.662   0.500
 1564SOL     OW 4706   1.992   1.794   1.851
 1564SOL    HW1 4707   1.951   1.720   1.904
 1564SOL    HW2 4708   2.056   1.845   1.909
 1565SOL     OW 4709   3.142   0.927   0.672
 1565SOL    HW1 4710   3.202   0.846   0.674
 1565SOL    HW2 4711   3.182   0.996   0.612
 1566SOL     OW 4712   2.692   1.273   1.422
 1566SOL    HW1 4713   2.687   1.306   1.517
 1566SOL    HW2 4714   2.606   1.292   1.376
 1567SOL     OW 4715   2.534   1.616   0.154
 1567SOL    HW1 4716   2.543   1.626   0.055
 1567SOL    HW2 4717   2.494   1.527   0.175
 1568SOL     OW 4718   3.512   1.720   1.394
 1568SOL    HW1 4719   3.565   1.730   1.310
 1568SOL    HW2 4720   3.485   1.810   1.428
 1569SOL     OW 4721   3.703   0.175   0.963
 1569SOL    HW1 4722   3.742   0.090   0.927
 1569SOL    HW2 4723   3.605   0.177   0.944
 1570SOL     OW 4724   2.125   0.326   0.720
 1570SOL    HW1 4725   2.046   0.377   0.686
 1570SOL    HW2 4726   2.116   0.311   0.818
 1571SOL     OW 4727   3.056   1.612   0.031
 1571SOL    HW1 4728   3.062   1.519   0.068
 1571SOL    HW2 4729   2.997   1.612  -0.049
 1572SOL     OW 4730   2.684   1.002   1.372
 1572SOL    HW1 4731   2.724   1.001   1.280
 1572SOL    HW2 4732   2.694   1.094   1.412
 1573SOL     OW 4733   2.778   0.910   0.291
 1573SOL    HW1 4734   2.841   0.948   0.223
 1573SOL    HW2 4735   2.818   0.827   0.330
 1574SOL     OW 4736   3.366   1.607   0.044
 1574SOL    HW1 4737   3.274   1.644   0.051
 1574SOL    HW2 4738   3.404   1.627  -0.046
 1575SOL     OW 4739   2.234   1.288   1.490
 1575SOL    HW1 4740   2.221   1.381   1.456
 1575SOL    HW2 4741   2.150   1.236   1.477
 1576SOL     OW 4742   3.476   1.292   1.289
 1576SOL    HW1 4743   3.536   1.295   1.369
 1576SOL    HW2 4744   3.401   1.356   1.302
 1577SOL     OW 4745   2.901   1.098   0.696
 1577SOL    HW1 4746   2.831   1.051   0.750
 1577SOL    HW2 4747   2.960   1.030   0.653
 1578SOL     OW 4748   2.876   0.236   0.971
 1578SOL    HW1 4749   2.868   0.200   0.878
 1578SOL    HW2 4750   2.874   0.160   1.036
 1579SOL     OW 4751   2.452   1.487   0.491
 1579SOL    HW1 4752   2.494   1.429   0.421
 1579SOL    HW2 4753   2.408   1.566   0.447
 1580SOL     OW 4754   3.571   0.385   1.381
 1580SOL    HW1 4755   3.644   0.454   1.385
 1580SOL    HW2 4756   3.599   0.310   1.322
 1581SOL     OW 4757   2.117   1.348   0.290
 1581SOL    HW1 4758   2.021   1.349   0.263
 1581SOL    HW2 4759   2.129   1.401   0.374
 1582SOL     OW 4760   1.967   1.013   1.726
 1582SOL    HW1 4761   1.890   0.980   1.780
 1582SOL    HW2 4762   2.052   0.983   1.768
 1583SOL     OW 4763   2.534   0.203   1.489
 1583SOL    HW1 4764   2.624   0.187   1.449
 1583SOL    HW2 4765   2.542   0.208   1.588
 1584SOL     OW 4766   1.937   0.345   0.033
 1584SOL    HW1 4767   1.845   0.317   0.004
 1584SOL    HW2 4768   1.968   0.422  -0.023
 1585SOL     OW 4769   3.302   0.856   1.398
 1585SOL    HW1 4770   3.245   0.908   1.335
 1585SOL    HW2 4771   3.398   0.868   1.374
 1586SOL     OW 4772   3.045   1.335   0.119
 1586SOL    HW1 4773   2.946   1.324   0.121
 1586SOL    HW2 4774   3.079   1.350   0.212
 1587SOL     OW 4775   2.475   0.842   1.431
 1587SOL    HW1 4776   2.531   0.923   1.414
 1587SOL    HW2 4777   2.534   0.762   1.434
 1588SOL     OW 4778   3.355   1.767   0.959
 1588SOL    HW1 4779   3.388   1.831   0.890
 1588SOL    HW2 4780   3.421   1.761   1.034
 1589SOL     OW 4781   2.578   0.565   1.708
 1589SOL    HW1 4782   2.597   0.630   1.782
 1589SOL    HW2 4783   2.638   0.485   1.717
 1590SOL     OW 4784   3.312   1.220   1.633
 1590SOL    HW1 4785   3.303   1.210   1.732
 1590SOL    HW2 4786   3.408   1.213   1.607
 1591SOL     OW 4787   2.252   1.741   1.560
 1591SOL    HW1 4788   2.161   1.782   1.558
 1591SOL    HW2 4789   2.245   1.647   1.592
 1592SOL     OW 4790   3.536   0.883   1.254
 1592SOL    HW1 4791   3.509   0.794   1.217
 1592SOL    HW2 4792   3.537   0.951   1.181
 1593SOL     OW 4793   3.087   0.325   0.449
 1593SOL    HW1 4794   3.152   0.251   0.438
 1593SOL    HW2 4795   3.107   0.375   0.533
 1594SOL     OW 4796   2.456   0.745   0.652
 1594SOL    HW1 4797   2.506   0.830   0.633
 1594SOL    HW2 4798   2.368   0.747   0.604
 1595SOL     OW 4799   3.639   0.342   1.642
 1595SOL    HW1 4800   3.622   0.373   1.548
 1595SOL    HW2 4801   3.555   0.305   1.680
 1596SOL     OW 4802   3.592   0.934   1.517
 1596SOL    HW1 4803   3.630   1.025   1.532
 1596SOL    HW2 4804   3.584   0.917   1.418
 1597SOL     OW 4805   2.721   1.374   0.016
 1597SOL    HW1 4806   2.675   1.389   0.104
 1597SOL    HW2 4807   2.765   1.459  -0.014
 1598SOL     OW 4808   2.523   1.790   0.953
 1598SOL    HW1 4809   2.477   1.878   0.940
 1598SOL    HW2 4810   2.622   1.802   0.946
 1599SOL     OW 4811   2.721   0.956   0.861
 1599SOL    HW1 4812   2.775   0.887   0.909
 1599SOL    HW2 4813   2.689   1.025   0.927
 1600SOL     OW 4814   2.945   0.984   0.087
 1600SOL    HW1 4815   2.922   1.037   0.005
 1600SOL    HW2 4816   3.026   0.928   0.068
 1601SOL     OW 4817   3.723   1.569   0.851
 1601SOL    HW1 4818   3.652   1.557   0.781
 1601SOL    HW2 4819   3.724   1.490   0.911
 1602SOL     OW 4820   2.083   1.314   1.844
 1602SOL    HW1 4821   2.018   1.241   1.823
 1602SOL    HW2 4822   2.087   1.328   1.942
 1603SOL     OW 4823   1.941   1.240   0.653
 1603SOL    HW1 4824   1.940   1.193   0.741
 1603SOL    HW2 4825   2.023   1.212   0.602
 1604SOL     OW 4826   2.534   1.391   1.624
 1604SOL    HW1 4827   2.456   1.341   1.662
 1604SOL    HW2 4828   2.531   1.486   1.655
 1605SOL     OW 4829   3.686   0.192   1.227
 1605SOL    HW1 4830   3.682   0.102   1.271
 1605SOL    HW2 4831   3.689   0.181   1.128
 1606SOL     OW 4832   2.290   0.424   0.520
 1606SOL    HW1 4833   2.320   0.352   0.458
 1606SOL    HW2 4834   2.251   0.384   0.603
 1607SOL     OW 4835   3.567   1.487   1.104
 1607SOL    HW1 4836   3.474   1.462   1.077
 1607SOL    HW2 4837   3.593   1.437   1.186
 1608SOL     OW 4838   2.179   0.547   1.280
 1608SOL    HW1 4839   2.217   0.488   1.352
 1608SOL    HW2 4840   2.219   0.521   1.192
 1609SOL     OW 4841   2.674   1.586   0.687
 1609SOL    HW1 4842   2.706   1.596   0.593
 1609SOL    HW2 4843   2.595   1.524   0.689
 1610SOL     OW 4844   3.286   0.214   1.112
 1610SOL    HW1 4845   3.338   0.149   1.167
 1610SOL    HW2 4846   3.237   0.277   1.173
 1611SOL     OW 4847   2.863   0.034   1.154
 1611SOL    HW1 4848   2.800  -0.038   1.123
 1611SOL    HW2 4849   2.956  -0.002   1.154
 1612SOL     OW 4850   2.632   1.330   0.301
 1612SOL    HW1 4851   2.586   1.243   0.318
 1612SOL    HW2 4852   2.723   1.327   0.342
 1613SOL     OW 4853   2.480   1.567   1.284
 1613SOL    HW1 4854   2.475   1.649   1.341
 1613SOL    HW2 4855   2.569   1.564   1.239
 1614SOL     OW 4856   3.214   0.052   0.168
 1614SOL    HW1 4857   3.249   0.011   0.084
 1614SOL    HW2 4858   3.124   0.014   0.188
 1615SOL     OW 4859   3.162   0.453   0.691
 1615SOL    HW1 4860   3.103   0.533   0.695
 1615SOL    HW2 4861   3.177   0.418   0.784
 1616SOL     OW 4862   3.455   0.221   0.882
 1616SOL    HW1 4863   3.371   0.220   0.936
 1616SOL    HW2 4864   3.457   0.304   0.826
 1617SOL     OW 4865   1.901   1.077   0.300
 1617SOL    HW1 4866   2.000   1.066   0.291
 1617SOL    HW2 4867   1.861   0.991   0.332
 1618SOL     OW 4868   2.737   1.646   0.337
 1618SOL    HW1 4869   2.660   1.611   0.283
 1618SOL    HW2 4870   2.705   1.717   0.399
 1619SOL     OW 4871   2.092   0.628   1.975
 1619SOL    HW1 4872   1.999   0.626   2.012
 1619SOL    HW2 4873   2.093   0.589   1.883
 1620SOL     OW 4874   2.087   0.275   2.858
 1620SOL    HW1 4875   2.122   0.258   2.950
 1620SOL    HW2 4876   1.999   0.230   2.846
 1621SOL     OW 4877   1.881   0.368   2.509
 1621SOL    HW1 4878   1.799   0.411   2.548
 1621SOL    HW2 4879   1.853   0.295   2.446
 1622SOL     OW 4880   2.431   1.275   3.027
 1622SOL    HW1 4881   2.338   1.268   2.990
 1622SOL    HW2 4882   2.442   1.364   3.071
 1623SOL     OW 4883   3.417   1.511   2.565
 1623SOL    HW1 4884   3.360   1.495   2.646
 1623SOL    HW2 4885   3.358   1.521   2.485
 1624SOL     OW 4886   2.997   0.703   2.579
 1624SOL    HW1 4887   3.054   0.781   2.554
 1624SOL    HW2 4888   2.937   0.729   2.655
 1625SOL     OW 4889   3.617   0.607   2.093
 1625SOL    HW1 4890   3.605   0.594   1.994
 1625SOL    HW2 4891   3.587   0.526   2.142
 1626SOL     OW 4892   2.630   1.144   2.885
 1626SOL    HW1 4893   2.552   1.161   2.945
 1626SOL    HW2 4894   2.664   1.231   2.849
 1627SOL     OW 4895   2.712   0.798   3.685
 1627SOL    HW1 4896   2.708   0.874   3.750
 1627SOL    HW2 4897   2.734   0.834   3.594
 1628SOL     OW 4898   2.547   1.012   2.527
 1628SOL    HW1 4899   2.616   0.996   2.597
 1628SOL    HW2 4900   2.474   1.069   2.565
 1629SOL     OW 4901   2.548   1.161   3.665
 1629SOL    HW1 4902   2.608   1.240   3.679
 1629SOL    HW2 4903   2.462   1.192   3.624
 1630SOL     OW 4904   2.197   1.435   2.923
 1630SOL    HW1 4905   2.119   1.404   2.870
 1630SOL    HW2 4906   2.255   1.493   2.866
 1631SOL     OW 4907   3.322   1.505   3.201
 1631SOL    HW1 4908   3.346   1.599   3.227
 1631SOL    HW2 4909   3.306   1.451   3.283
 1632SOL     OW 4910   2.300   0.392   3.361
 1632SOL    HW1 4911   2.382   0.336   3.370
 1632SOL    HW2 4912   2.219   0.334   3.365
 1633SOL     OW 4913   3.465   0.447   2.599
 1633SOL    HW1 4914   3.391   0.493   2.549
 1633SOL    HW2 4915   3.516   0.515   2.652
 1634SOL     OW 4916   2.093   1.713   2.345
 1634SOL    HW1 4917   2.127   1.790   2.399
 1634SOL    HW2 4918   2.137   1.713   2.255
 1635SOL     OW 4919   2.989   1.341   3.552
 1635SOL    HW1 4920   3.036   1.341   3.640
 1635SOL    HW2 4921   2.941   1.254   3.541
 1636SOL     OW 4922   2.092   1.434   2.400
 1636SOL    HW1 4923   2.066   1.530   2.400
 1636SOL    HW2 4924   2.021   1.380   2.445
 1637SOL     OW 4925   2.102   1.091   2.748
 1637SOL    HW1 4926   2.116   1.007   2.800
 1637SOL    HW2 4927   2.047   1.155   2.803
 1638SOL     OW 4928   2.482   1.786   3.301
 1638SOL    HW1 4929   2.390   1.769   3.336
 1638SOL    HW2 4930   2.510   1.878   3.327
 1639SOL     OW 4931   2.468   0.964   1.985
 1639SOL    HW1 4932   2.475   1.048   1.931
 1639SOL    HW2 4933   2.514   0.977   2.073
 1640SOL     OW 4934   3.456   0.114   3.342
 1640SOL    HW1 4935   3.438   0.181   3.270
 1640SOL    HW2 4936   3.453   0.160   3.431
 1641SOL     OW 4937   1.984   0.643   2.425
 1641SOL    HW1 4938   1.939   0.555   2.442
 1641SOL    HW2 4939   1.983   0.697   2.509
 1642SOL     OW 4940   3.704   1.767   2.221
 1642SOL    HW1 4941   3.758   1.738   2.301
 1642SOL    HW2 4942   3.734   1.857   2.192
 1643SOL     OW 4943   1.889   1.596   1.979
 1643SOL    HW1 4944   1.870   1.500   2.000
 1643SOL    HW2 4945   1.856   1.654   2.054
 1644SOL     OW 4946   3.551   0.922   2.474
 1644SOL    HW1 4947   3.646   0.893   2.482
 1644SOL    HW2 4948   3.543   0.987   2.399
 1645SOL     OW 4949   3.503   1.108   2.294
 1645SOL    HW1 4950   3.589   1.110   2.242
 1645SOL    HW2 4951   3.517   1.155   2.382
 1646SOL     OW 4952   1.975   0.737   3.459
 1646SOL    HW1 4953   2.063   0.724   3.504
 1646SOL    HW2 4954   1.962   0.834   3.437
 1647SOL     OW 4955   2.475   1.365   2.588
 1647SOL    HW1 4956   2.426   1.278   2.597
 1647SOL    HW2 4957   2.452   1.408   2.501
 1648SOL     OW 4958   3.155   1.228   3.285
 1648SOL    HW1 4959   3.192   1.155   3.227
 1648SOL    HW2 4960   3.207   1.233   3.370
 1649SOL     OW 4961   2.671   0.004   2.364
 1649SOL    HW1 4962   2.711   0.095   2.355
 1649SOL    HW2 4963   2.571   0.012   2.370
 1650SOL     OW 4964   2.059   0.976   3.126
 1650SOL    HW1 4965   2.148   0.931   3.112
 1650SOL    HW2 4966   1.986   0.911   3.107
 1651SOL     OW 4967   3.387   0.999   2.052
 1651SOL    HW1 4968   3.324   0.923   2.065
 1651SOL    HW2 4969   3.435   1.017   2.138
 1652SOL     OW 4970   3.049   1.792   3.478
 1652SOL    HW1 4971   3.073   1.852   3.402
 1652SOL    HW2 4972   3.056   1.697   3.448
 1653SOL     OW 4973   2.179   0.251   3.663
 1653SOL    HW1 4974   2.250   0.322   3.669
 1653SOL    HW2 4975   2.091   0.290   3.691
 1654SOL     OW 4976   3.328   1.417   2.815
 1654SOL    HW1 4977   3.269   1.423   2.895
 1654SOL    HW2 4978   3.313   1.329   2.769
 1655SOL     OW 4979   3.529   1.714   2.434
 1655SOL    HW1 4980   3.488   1.691   2.346
 1655SOL    HW2 4981   3.511   1.640   2.499
 1656SOL     OW 4982   2.460   0.729   2.132
 1656SOL    HW1 4983   2.484   0.798   2.064
 1656SOL    HW2 4984   2.382   0.762   2.186
 1657SOL     OW 4985   3.143   0.345   2.806
 1657SOL    HW1 4986   3.057   0.295   2.793
 1657SOL    HW2 4987   3.205   0.291   2.862
 1658SOL     OW 4988   3.438   1.662   2.169
 1658SOL    HW1 4989   3.527   1.708   2.172
 1658SOL    HW2 4990   3.417   1.638   2.074
 1659SOL     OW 4991   2.669   0.605   3.327
 1659SOL    HW1 4992   2.622   0.602   3.416
 1659SOL    HW2 4993   2.618   0.550   3.261
 1660SOL     OW 4994   3.256   0.469   3.536
 1660SOL    HW1 4995   3.236   0.512   3.624
 1660SOL    HW2 4996   3.334   0.407   3.545
 1661SOL     OW 4997   2.835   0.890   3.434
 1661SOL    HW1 4998   2.881   0.806   3.405
 1661SOL    HW2 4999   2.779   0.924   3.359
 1662SOL     OW 5000   2.853   0.410   3.104
 1662SOL    HW1 5001   2.776   0.444   3.158
 1662SOL    HW2 5002   2.819   0.359   3.025
 1663SOL     OW 5003   2.903   0.701   2.291
 1663SOL    HW1 5004   2.929   0.697   2.387
 1663SOL    HW2 5005   2.818   0.650   2.277
 1664SOL     OW 5006   1.938   0.811   2.651
 1664SOL    HW1 5007   2.037   0.799   2.660
 1664SOL    HW2 5008   1.914   0.906   2.672
 1665SOL     OW 5009   1.992   1.821   3.433
 1665SOL    HW1 5010   1.982   1.806   3.532
 1665SOL    HW2 5011   1.906   1.857   3.397
 1666SOL     OW 5012   2.727   0.348   2.057
 1666SOL    HW1 5013   2.786   0.411   2.008
 1666SOL    HW2 5014   2.746   0.254   2.028
 1667SOL     OW 5015   3.581   0.585   3.693
 1667SOL    HW1 5016   3.555   0.674   3.657
 1667SOL    HW2 5017   3.579   0.517   3.620
 1668SOL     OW 5018   3.224   1.144   2.407
 1668SOL    HW1 5019   3.307   1.115   2.359
 1668SOL    HW2 5020   3.175   1.211   2.351
 1669SOL     OW 5021   2.412   0.196   2.747
 1669SOL    HW1 5022   2.407   0.191   2.847
 1669SOL    HW2 5023   2.414   0.292   2.718
 1670SOL     OW 5024   2.870   1.456   2.339
 1670SOL    HW1 5025   2.824   1.528   2.287
 1670SOL    HW2 5026   2.866   1.476   2.437
 1671SOL     OW 5027   2.213   1.801   2.715
 1671SOL    HW1 5028   2.263   1.715   2.721
 1671SOL    HW2 5029   2.278   1.878   2.712
 1672SOL     OW 5030   3.657   1.066   2.735
 1672SOL    HW1 5031   3.595   1.051   2.659
 1672SOL    HW2 5032   3.605   1.077   2.820
 1673SOL     OW 5033   3.089   1.550   3.368
 1673SOL    HW1 5034   3.095   1.473   3.432
 1673SOL    HW2 5035   3.037   1.524   3.288
 1674SOL     OW 5036   2.183   0.943   2.104
 1674SOL    HW1 5037   2.265   0.982   2.062
 1674SOL    HW2 5038   2.156   0.861   2.055
 1675SOL     OW 5039   3.320   0.735   2.590
 1675SOL    HW1 5040   3.315   0.670   2.665
 1675SOL    HW2 5041   3.400   0.794   2.603
 1676SOL     OW 5042   2.323   1.266   3.589
 1676SOL    HW1 5043   2.273   1.267   3.503
 1676SOL    HW2 5044   2.260   1.248   3.665
 1677SOL     OW 5045   2.973   1.776   2.099
 1677SOL    HW1 5046   2.913   1.714   2.149
 1677SOL    HW2 5047   3.004   1.732   2.014
 1678SOL     OW 5048   2.064   0.285   3.360
 1678SOL    HW1 5049   1.984   0.345   3.347
 1678SOL    HW2 5050   2.054   0.236   3.446
 1679SOL     OW 5051   3.494   1.377   1.943
 1679SOL    HW1 5052   3.462   1.471   1.933
 1679SOL    HW2 5053   3.418   1.314   1.931
 1680SOL     OW 5054   2.326   1.743   2.185
 1680SOL    HW1 5055   2.359   1.782   2.271
 1680SOL    HW2 5056   2.402   1.736   2.120
 1681SOL     OW 5057   3.262   0.107   2.288
 1681SOL    HW1 5058   3.238   0.070   2.198
 1681SOL    HW2 5059   3.361   0.123   2.292
 1682SOL     OW 5060   2.111   1.785   3.103
 1682SOL    HW1 5061   2.168   1.720   3.153
 1682SOL    HW2 5062   2.095   1.752   3.010
 1683SOL     OW 5063   2.802   1.698   2.766
 1683SOL    HW1 5064   2.882   1.641   2.787
 1683SOL    HW2 5065   2.753   1.658   2.689
 1684SOL     OW 5066   2.244   0.700   2.342
 1684SOL    HW1 5067   2.289   0.610   2.339
 1684SOL    HW2 5068   2.150   0.689   2.375
 1685SOL     OW 5069   3.409   0.222   3.591
 1685SOL    HW1 5070   3.404   0.259   3.683
 1685SOL    HW2 5071   3.337   0.153   3.579
 1686SOL     OW 5072   2.476   0.122   1.979
 1686SOL    HW1 5073   2.574   0.100   1.986
 1686SOL    HW2 5074   2.445   0.105   1.886
 1687SOL     OW 5075   2.643   0.264   3.611
 1687SOL    HW1 5076   2.710   0.203   3.654
 1687SOL    HW2 5077   2.570   0.283   3.676
 1688SOL     OW 5078   2.750   1.514   3.057
 1688SOL    HW1 5079   2.727   1.489   2.963
 1688SOL    HW2 5080   2.811   1.445   3.096
 1689SOL     OW 5081   3.213   0.590   3.295
 1689SOL    HW1 5082   3.241   0.547   3.380
 1689SOL    HW2 5083   3.238   0.686   3.296
 1690SOL     OW 5084   2.665   1.402   2.786
 1690SOL    HW1 5085   2.755   1.416   2.744
 1690SOL    HW2 5086   2.594   1.404   2.715
 1691SOL     OW 5087   2.784   0.503   2.761
 1691SOL    HW1 5088   2.759   0.494   2.665
 1691SOL    HW2 5089   2.832   0.421   2.792
 1692SOL     OW 5090   2.401   0.064   2.374
 1692SOL    HW1 5091   2.320   0.065   2.432
 1692SOL    HW2 5092   2.404   0.147   2.319
 1693SOL     OW 5093   3.296   1.188   1.903
 1693SOL    HW1 5094   3.328   1.112   1.960
 1693SOL    HW2 5095   3.204   1.215   1.933
 1694SOL     OW 5096   2.159   0.035   2.033
 1694SOL    HW1 5097   2.208   0.119   2.012
 1694SOL    HW2 5098   2.221  -0.030   2.078
 1695SOL     OW 5099   2.797   0.236   2.342
 1695SOL    HW1 5100   2.749   0.277   2.264
 1695SOL    HW2 5101   2.896   0.234   2.323
 1696SOL     OW 5102   2.938   0.683   3.326
 1696SOL    HW1 5103   2.858   0.622   3.329
 1696SOL    HW2 5104   3.019   0.630   3.302
 1697SOL     OW 5105   3.089   1.570   2.655
 1697SOL    HW1 5106   3.110   1.644   2.590
 1697SOL    HW2 5107   3.157   1.570   2.728
 1698SOL     OW 5108   2.321   1.152   2.603
 1698SOL    HW1 5109   2.250   1.125   2.668
 1698SOL    HW2 5110   2.295   1.124   2.510
 1699SOL     OW 5111   3.133   1.797   2.453
 1699SOL    HW1 5112   3.177   1.861   2.389
 1699SOL    HW2 5113   3.083   1.849   2.523
 1700SOL     OW 5114   2.894   0.549   1.878
 1700SOL    HW1 5115   2.853   0.631   1.839
 1700SOL    HW2 5116   2.958   0.575   1.951
 1701SOL     OW 5117   1.940   0.556   3.248
 1701SOL    HW1 5118   2.032   0.555   3.207
 1701SOL    HW2 5119   1.934   0.630   3.315
 1702SOL     OW 5120   2.423   0.222   3.009
 1702SOL    HW1 5121   2.461   0.138   3.046
 1702SOL    HW2 5122   2.335   0.241   3.053
 1703SOL     OW 5123   2.728   0.454   2.504
 1703SOL    HW1 5124   2.696   0.526   2.442
 1703SOL    HW2 5125   2.752   0.373   2.451
 1704SOL     OW 5126   2.879   0.039   2.615
 1704SOL    HW1 5127   2.807   0.044   2.546
 1704SOL    HW2 5128   2.855  -0.030   2.684
 1705SOL     OW 5129   3.291   1.173   2.729
 1705SOL    HW1 5130   3.236   1.089   2.722
 1705SOL    HW2 5131   3.317   1.202   2.637
 1706SOL     OW 5132   3.328   0.590   2.854
 1706SOL    HW1 5133   3.298   0.495   2.861
 1706SOL    HW2 5134   3.401   0.606   2.920
 1707SOL     OW 5135   3.719   0.833   2.239
 1707SOL    HW1 5136   3.761   0.769   2.303
 1707SOL    HW2 5137   3.681   0.782   2.161
 1708SOL     OW 5138   2.350   1.385   2.036
 1708SOL    HW1 5139   2.263   1.370   2.083
 1708SOL    HW2 5140   2.333   1.411   1.941
 1709SOL     OW 5141   3.526   1.280   2.519
 1709SOL    HW1 5142   3.625   1.288   2.533
 1709SOL    HW2 5143   3.481   1.364   2.550
 1710SOL     OW 5144   3.252   0.575   1.940
 1710SOL    HW1 5145   3.198   0.554   2.021
 1710SOL    HW2 5146   3.343   0.534   1.949
 1711SOL     OW 5147   2.389   0.256   2.190
 1711SOL    HW1 5148   2.416   0.197   2.115
 1711SOL    HW2 5149   2.389   0.351   2.159
 1712SOL     OW 5150   3.616   1.223   3.450
 1712SOL    HW1 5151   3.707   1.184   3.437
 1712SOL    HW2 5152   3.624   1.319   3.474
 1713SOL     OW 5153   2.926   1.347   3.202
 1713SOL    HW1 5154   2.846   1.324   3.257
 1713SOL    HW2 5155   3.009   1.321   3.251
 1714SOL     OW 5156   3.454   1.629   3.487
 1714SOL    HW1 5157   3.481   1.663   3.397
 1714SOL    HW2 5158   3.533   1.591   3.533
 1715SOL     OW 5159   2.973   1.195   2.962
 1715SOL    HW1 5160   2.933   1.239   3.043
 1715SOL    HW2 5161   2.932   1.232   2.879
 1716SOL     OW 5162   3.500   1.099   2.941
 1716SOL    HW1 5163   3.505   1.180   3.000
 1716SOL    HW2 5164   3.414   1.101   2.890
 1717SOL     OW 5165   2.777   0.089   3.264
 1717SOL    HW1 5166   2.802   0.069   3.169
 1717SOL    HW2 5167   2.849   0.145   3.306
 1718SOL     OW 5168   2.842   1.116   3.581
 1718SOL    HW1 5169   2.743   1.122   3.591
 1718SOL    HW2 5170   2.865   1.036   3.525
 1719SOL     OW 5171   2.567   1.050   2.230
 1719SOL    HW1 5172   2.553   1.057   2.329
 1719SOL    HW2 5173   2.651   0.999   2.212
 1720SOL     OW 5174   2.272   0.813   3.113
 1720SOL    HW1 5175   2.358   0.825   3.163
 1720SOL    HW2 5176   2.230   0.726   3.140
 1721SOL     OW 5177   3.136   0.386   3.124
 1721SOL    HW1 5178   3.157   0.460   3.188
 1721SOL    HW2 5179   3.047   0.403   3.081
 1722SOL     OW 5180   1.926   1.564   3.193
 1722SOL    HW1 5181   1.880   1.646   3.159
 1722SOL    HW2 5182   2.024   1.583   3.202
 1723SOL     OW 5183   2.229   1.100   2.363
 1723SOL    HW1 5184   2.222   1.183   2.307
 1723SOL    HW2 5185   2.233   1.020   2.303
 1724SOL     OW 5186   2.428   0.537   2.727
 1724SOL    HW1 5187   2.440   0.603   2.653
 1724SOL    HW2 5188   2.474   0.571   2.810
 1725SOL     OW 5189   3.114   1.348   2.250
 1725SOL    HW1 5190   3.164   1.425   2.290
 1725SOL    HW2 5191   3.019   1.350   2.282
 1726SOL     OW 5192   3.134   1.445   3.004
 1726SOL    HW1 5193   3.181   1.458   3.091
 1726SOL    HW2 5194   3.068   1.371   3.013
 1727SOL     OW 5195   3.444   0.639   2.334
 1727SOL    HW1 5196   3.413   0.700   2.407
 1727SOL    HW2 5197   3.494   0.691   2.265
 1728SOL     OW 5198   2.216   1.510   3.191
 1728SOL    HW1 5199   2.195   1.466   3.104
 1728SOL    HW2 5200   2.313   1.536   3.194
 1729SOL     OW 5201   2.264   0.751   3.460
 1729SOL    HW1 5202   2.332   0.806   3.413
 1729SOL    HW2 5203   2.304   0.663   3.487
 1730SOL     OW 5204   3.449   0.779   3.532
 1730SOL    HW1 5205   3.357   0.817   3.527
 1730SOL    HW2 5206   3.509   0.826   3.467
 1731SOL     OW 5207   2.875   0.105   3.632
 1731SOL    HW1 5208   2.881   0.190   3.580
 1731SOL    HW2 5209   2.907   0.029   3.575
 1732SOL     OW 5210   2.366   0.050   3.602
 1732SOL    HW1 5211   2.324  -0.007   3.532
 1732SOL    HW2 5212   2.300   0.119   3.634
 1733SOL     OW 5213   2.435   0.870   2.891
 1733SOL    HW1 5214   2.479   0.959   2.882
 1733SOL    HW2 5215   2.372   0.870   2.968
 1734SOL     OW 5216   3.222   0.862   2.907
 1734SOL    HW1 5217   3.147   0.862   2.841
 1734SOL    HW2 5218   3.259   0.770   2.916
 1735SOL     OW 5219   3.071   0.525   2.137
 1735SOL    HW1 5220   3.084   0.441   2.191
 1735SOL    HW2 5221   3.042   0.599   2.197
 1736SOL     OW 5222   2.169   0.213   3.093
 1736SOL    HW1 5223   2.146   0.250   3.183
 1736SOL    HW2 5224   2.139   0.118   3.087
 1737SOL     OW 5225   1.899   1.310   3.144
 1737SOL    HW1 5226   1.952   1.261   3.212
 1737SOL    HW2 5227   1.921   1.408   3.149
 1738SOL     OW 5228   2.594   0.634   2.926
 1738SOL    HW1 5229   2.653   0.608   2.850
 1738SOL    HW2 5230   2.566   0.730   2.915
 1739SOL     OW 5231   3.590   0.935   3.716
 1739SOL    HW1 5232   3.544   0.928   3.627
 1739SOL    HW2 5233   3.528   0.979   3.782
 1740SOL     OW 5234   2.169   0.063   2.480
 1740SOL    HW1 5235   2.158   0.157   2.513
 1740SOL    HW2 5236   2.164   0.000   2.557
 1741SOL     OW 5237   3.484   0.367   2.236
 1741SOL    HW1 5238   3.486   0.291   2.300
 1741SOL    HW2 5239   3.436   0.444   2.276
 1742SOL     OW 5240   2.885   0.766   2.828
 1742SOL    HW1 5241   2.900   0.787   2.924
 1742SOL    HW2 5242   2.855   0.671   2.819
 1743SOL     OW 5243   2.842   1.573   3.562
 1743SOL    HW1 5244   2.822   1.617   3.474
 1743SOL    HW2 5245   2.881   1.482   3.546
 1744SOL     OW 5246   3.721   1.518   3.467
 1744SOL    HW1 5247   3.735   1.545   3.372
 1744SOL    HW2 5248   3.804   1.540   3.520
 1745SOL     OW 5249   2.212   0.898   3.666
 1745SOL    HW1 5250   2.288   0.942   3.714
 1745SOL    HW2 5251   2.247   0.851   3.584
 1746SOL     OW 5252   3.402   0.274   1.987
 1746SOL    HW1 5253   3.341   0.199   2.010
 1746SOL    HW2 5254   3.424   0.326   2.070
 1747SOL     OW 5255   3.165   0.838   1.904
 1747SOL    HW1 5256   3.199   0.745   1.919
 1747SOL    HW2 5257   3.183   0.865   1.809
 1748SOL     OW 5258   2.930   1.333   2.711
 1748SOL    HW1 5259   2.937   1.249   2.656
 1748SOL    HW2 5260   2.992   1.402   2.675
 1749SOL     OW 5261   2.181   0.810   2.811
 1749SOL    HW1 5262   2.274   0.846   2.816
 1749SOL    HW2 5263   2.175   0.725   2.863
 1750SOL     OW 5264   2.201   0.509   2.868
 1750SOL    HW1 5265   2.149   0.426   2.851
 1750SOL    HW2 5266   2.278   0.514   2.804
 1751SOL     OW 5267   3.000   0.380   3.540
 1751SOL    HW1 5268   2.955   0.443   3.604
 1751SOL    HW2 5269   3.093   0.411   3.523
 1752SOL     OW 5270   3.022   0.207   3.339
 1752SOL    HW1 5271   3.022   0.271   3.416
 1752SOL    HW2 5272   3.050   0.255   3.256
 1753SOL     OW 5273   1.870   1.326   2.062
 1753SOL    HW1 5274   1.777   1.347   2.031
 1753SOL    HW2 5275   1.880   1.227   2.075
 1754SOL     OW 5276   1.950   1.801   2.789
 1754SOL    HW1 5277   1.908   1.715   2.762
 1754SOL    HW2 5278   2.044   1.804   2.755
 1755SOL     OW 5279   2.366   1.568   2.772
 1755SOL    HW1 5280   2.432   1.642   2.781
 1755SOL    HW2 5281   2.410   1.489   2.730
 1756SOL     OW 5282   2.864   0.796   3.100
 1756SOL    HW1 5283   2.905   0.764   3.186
 1756SOL    HW2 5284   2.768   0.769   3.097
 1757SOL     OW 5285   1.902   0.544   2.976
 1757SOL    HW1 5286   1.987   0.511   2.935
 1757SOL    HW2 5287   1.915   0.559   3.074
 1758SOL     OW 5288   2.051   0.520   3.584
 1758SOL    HW1 5289   2.110   0.480   3.514
 1758SOL    HW2 5290   1.993   0.591   3.543
 1759SOL     OW 5291   3.231   0.950   3.522
 1759SOL    HW1 5292   3.270   1.039   3.542
 1759SOL    HW2 5293   3.241   0.930   3.425
 1760SOL     OW 5294   2.677   0.572   2.187
 1760SOL    HW1 5295   2.684   0.483   2.141
 1760SOL    HW2 5296   2.583   0.606   2.179
 1761SOL     OW 5297   3.519   0.604   3.068
 1761SOL    HW1 5298   3.481   0.535   3.130
 1761SOL    HW2 5299   3.601   0.568   3.024
 1762SOL     OW 5300   2.114   1.564   3.606
 1762SOL    HW1 5301   2.084   1.621   3.682
 1762SOL    HW2 5302   2.107   1.467   3.632
 1763SOL     OW 5303   2.533   0.464   3.131
 1763SOL    HW1 5304   2.499   0.375   3.101
 1763SOL    HW2 5305   2.559   0.518   3.051
 1764SOL     OW 5306   2.792   1.678   3.327
 1764SOL    HW1 5307   2.768   1.660   3.232
 1764SOL    HW2 5308   2.822   1.772   3.337
 1765SOL     OW 5309   2.335   0.500   2.053
 1765SOL    HW1 5310   2.396   0.580   2.057
 1765SOL    HW2 5311   2.240   0.531   2.060
 1766SOL     OW 5312   2.021   1.137   3.328
 1766SOL    HW1 5313   2.043   1.076   3.404
 1766SOL    HW2 5314   2.031   1.088   3.242
 1767SOL     OW 5315   3.209   1.059   3.096
 1767SOL    HW1 5316   3.233   0.996   3.022
 1767SOL    HW2 5317   3.119   1.099   3.078
 1768SOL     OW 5318   3.164   0.855   2.171
 1768SOL    HW1 5319   3.078   0.824   2.213
 1768SOL    HW2 5320   3.160   0.841   2.072
 1769SOL     OW 5321   3.621   1.747   3.016
 1769SOL    HW1 5322   3.682   1.777   2.943
 1769SOL    HW2 5323   3.583   1.658   2.994
 1770SOL     OW 5324   3.114   1.731   2.990
 1770SOL    HW1 5325   3.198   1.736   2.936
 1770SOL    HW2 5326   3.091   1.635   3.008
 1771SOL     OW 5327   1.945   1.258   2.884
 1771SOL    HW1 5328   1.940   1.257   2.984
 1771SOL    HW2 5329   1.862   1.217   2.846
 1772SOL     OW 5330   2.550   1.662   3.578
 1772SOL    HW1 5331   2.494   1.743   3.587
 1772SOL    HW2 5332   2.602   1.666   3.492
 1773SOL     OW 5333   3.588   0.135   2.385
 1773SOL    HW1 5334   3.661   0.118   2.318
 1773SOL    HW2 5335   3.557   0.048   2.423
 1774SOL     OW 5336   3.250   1.573   2.339
 1774SOL    HW1 5337   3.317   1.585   2.265
 1774SOL    HW2 5338   3.210   1.662   2.362
 1775SOL     OW 5339   1.992   1.794   3.713
 1775SOL    HW1 5340   1.951   1.720   3.766
 1775SOL    HW2 5341   2.056   1.845   3.771
 1776SOL     OW 5342   3.142   0.927   2.534
 1776SOL    HW1 5343   3.202   0.846   2.536
 1776SOL    HW2 5344   3.182   0.996   2.474
 1777SOL     OW 5345   2.692   1.273   3.284
 1777SOL    HW1 5346   2.687   1.306   3.379
 1777SOL    HW2 5347   2.606   1.292   3.238
 1778SOL     OW 5348   2.534   1.616   2.016
 1778SOL    HW1 5349   2.543   1.626   1.917
 1778SOL    HW2 5350   2.494   1.527   2.037
 1779SOL     OW 5351   3.512   1.720   3.256
 1779SOL    HW1 5352   3.565   1.730   3.172
 1779SOL    HW2 5353   3.485   1.810   3.290
 1780SOL     OW 5354   3.703   0.175   2.825
 1780SOL    HW1 5355   3.742   0.090   2.789
 1780SOL    HW2 5356   3.605   0.177   2.806
 1781SOL     OW 5357   2.125   0.326   2.582
 1781SOL    HW1 5358   2.046   0.377   2.548
 1781SOL    HW2 5359   2.116   0.311   2.680
 1782SOL     OW 5360   3.056   1.612   1.893
 1782SOL    HW1 5361   3.062   1.519   1.930
 1782SOL    HW2 5362   2.997   1.612   1.813
 1783SOL     OW 5363   2.684   1.002   3.234
 1783SOL    HW1 5364   2.724   1.001   3.142
 1783SOL    HW2 5365   2.694   1.094   3.274
 1784SOL     OW 5366   2.778   0.910   2.153
 1784SOL    HW1 5367   2.841   0.948   2.085
 1784SOL    HW2 5368   2.818   0.827   2.192
 1785SOL     OW 5369   3.366   1.607   1.906
 1785SOL    HW1 5370   3.274   1.644   1.913
 1785SOL    HW2 5371   3.404   1.627   1.816
 1786SOL     OW 5372   2.234   1.288   3.352
 1786SOL    HW1 5373   2.221   1.381   3.318
 1786SOL    HW2 5374   2.150   1.236   3.339
 1787SOL     OW 5375   3.476   1.292   3.151
 1787SOL    HW1 5376   3.536   1.295   3.231
 1787SOL    HW2 5377   3.401   1.356   3.164
 1788SOL     OW 5378   2.901   1.098   2.558
 1788SOL    HW1 5379   2.831   1.051   2.612
 1788SOL    HW2 5380   2.960   1.030   2.515
 1789SOL     OW 5381   2.876   0.236   2.833
 1789SOL    HW1 5382   2.868   0.200   2.740
 1789SOL    HW2 5383   2.874   0.160   2.898
 1790SOL     OW 5384   2.452   1.487   2.353
 1790SOL    HW1 5385   2.494   1.429   2.283
 1790SOL    HW2 5386   2.408   1.566   2.309
 1791SOL     OW 5387   3.571   0.385   3.243
 1791SOL    HW1 5388   3.644   0.454   3.247
 1791SOL    HW2 5389   3.599   0.310   3.184
 1792SOL     OW 5390   2.117   1.348   2.152
 1792SOL    HW1 5391   2.021   1.349   2.125
 1792SOL    HW2 5392   2.129   1.401   2.236
 1793SOL     OW 5393   1.967   1.013   3.588
 1793SOL    HW1 5394   1.890   0.980   3.642
 1793SOL    HW2 5395   2.052   0.983   3.630
 1794SOL     OW 5396   2.534   0.203   3.351
 1794SOL    HW1 5397   2.624   0.187   3.311
 1794SOL    HW2 5398   2.542   0.208   3.450
 1795SOL     OW 5399   1.937   0.345   1.895
 1795SOL    HW1 5400   1.845   0.317   1.866
 1795SOL    HW2 5401   1.968   0.422   1.839
 1796SOL     OW 5402   3.302   0.856   3.260
 1796SOL    HW1 5403   3.245   0.908   3.197
 1796SOL    HW2 5404   3.398   0.868   3.236
 1797SOL     OW 5405   1.934   0.166   2.180
 1797SOL    HW1 5406   1.917   0.249   2.126
 1797SOL    HW2 5407   2.024   0.129   2.158
 1798SOL     OW 5408   3.045   1.335   1.981
 1798SOL    HW1 5409   2.946   1.324   1.983
 1798SOL    HW2 5410   3.079   1.350   2.074
 1799SOL     OW 5411   2.475   0.842   3.293
 1799SOL    HW1 5412   2.531   0.923   3.276
 1799SOL    HW2 5413   2.534   0.762   3.296
 1800SOL     OW 5414   3.355   1.767   2.821
 1800SOL    HW1 5415   3.388   1.831   2.752
 1800SOL    HW2 5416   3.421   1.761   2.896
 1801SOL     OW 5417   2.578   0.565   3.570
 1801SOL    HW1 5418   2.597   0.630   3.644
 1801SOL    HW2 5419   2.638   0.485   3.579
 1802SOL     OW 5420   3.312   1.220   3.495
 1802SOL    HW1 5421   3.303   1.210   3.594
 1802SOL    HW2 5422   3.408   1.213   3.469
 1803SOL     OW 5423   2.252   1.741   3.422
 1803SOL    HW1 5424   2.161   1.782   3.420
 1803SOL    HW2 5425   2.245   1.647   3.454
 1804SOL     OW 5426   3.536   0.883   3.116
 1804SOL    HW1 5427   3.509   0.794   3.079
 1804SOL    HW2 5428   3.537   0.951   3.043
 1805SOL     OW 5429   3.087   0.325   2.311
 1805SOL    HW1 5430   3.152   0.251   2.300
 1805SOL    HW2 5431   3.107   0.375   2.395
 1806SOL     OW 5432   2.456   0.745   2.514
 1806SOL    HW1 5433   2.506   0.830   2.495
 1806SOL    HW2 5434   2.368   0.747   2.466
 1807SOL     OW 5435   3.639   0.342   3.504
 1807SOL    HW1 5436   3.622   0.373   3.410
 1807SOL    HW2 5437   3.555   0.305   3.542
 1808SOL     OW 5438   3.592   0.934   3.379
 1808SOL    HW1 5439   3.630   1.025   3.394
 1808SOL    HW2 5440   3.584   0.917   3.280
 1809SOL     OW 5441   2.721   1.374   1.878
 1809SOL    HW1 5442   2.675   1.389   1.966
 1809SOL    HW2 5443   2.765   1.459   1.848
 1810SOL     OW 5444   2.523   1.790   2.815
 1810SOL    HW1 5445   2.477   1.878   2.802
 1810SOL    HW2 5446   2.622   1.802   2.808
 1811SOL     OW 5447   2.721   0.956   2.723
 1811SOL    HW1 5448   2.775   0.887   2.771
 1811SOL    HW2 5449   2.689   1.025   2.789
 1812SOL     OW 5450   2.945   0.984   1.949
 1812SOL    HW1 5451   2.922   1.037   1.867
 1812SOL    HW2 5452   3.026   0.928   1.930
 1813SOL     OW 5453   3.723   1.569   2.713
 1813SOL    HW1 5454   3.652   1.557   2.643
 1813SOL    HW2 5455   3.724   1.490   2.773
 1814SOL     OW 5456   2.083   1.314   3.706
 1814SOL    HW1 5457   2.018   1.241   3.685
 1814SOL    HW2 5458   2.087   1.328   3.804
 1815SOL     OW 5459   1.941   1.240   2.515
 1815SOL    HW1 5460   1.940   1.193   2.603
 1815SOL    HW2 5461   2.023   1.212   2.464
 1816SOL     OW 5462   2.534   1.391   3.486
 1816SOL    HW1 5463   2.456   1.341   3.524
 1816SOL    HW2 5464   2.531   1.486   3.517
 1817SOL     OW 5465   3.686   0.192   3.089
 1817SOL    HW1 5466   3.682   0.102   3.133
 1817SOL    HW2 5467   3.689   0.181   2.990
 1818SOL     OW 5468   2.290   0.424   2.382
 1818SOL    HW1 5469   2.320   0.352   2.320
 1818SOL    HW2 5470   2.251   0.384   2.465
 1819SOL     OW 5471   3.567   1.487   2.966
 1819SOL    HW1 5472   3.474   1.462   2.939
 1819SOL    HW2 5473   3.593   1.437   3.048
 1820SOL     OW 5474   2.179   0.547   3.142
 1820SOL    HW1 5475   2.217   0.488   3.214
 1820SOL    HW2 5476   2.219   0.521   3.054
 1821SOL     OW 5477   2.674   1.586   2.549
 1821SOL    HW1 5478   2.706   1.596   2.455
 1821SOL    HW2 5479   2.595   1.524   2.551
 1822SOL     OW 5480   3.286   0.214   2.974
 1822SOL    HW1 5481   3.338   0.149   3.029
 1822SOL    HW2 5482   3.237   0.277   3.035
 1823SOL     OW 5483   2.863   0.034   3.016
 1823SOL    HW1 5484   2.800  -0.038   2.985
 1823SOL    HW2 5485   2.956  -0.002   3.016
 1824SOL     OW 5486   2.632   1.330   2.163
 1824SOL    HW1 5487   2.586   1.243   2.180
 1824SOL    HW2 5488   2.723   1.327   2.204
 1825SOL     OW 5489   2.480   1.567   3.146
 1825SOL    HW1 5490   2.475   1.649   3.203
 1825SOL    HW2 5491   2.569   1.564   3.101
 1826SOL     OW 5492   3.214   0.052   2.030
 1826SOL    HW1 5493   3.249   0.011   1.946
 1826SOL    HW2 5494   3.124   0.014   2.050
 1827SOL     OW 5495   3.162   0.453   2.553
 1827SOL    HW1 5496   3.103   0.533   2.557
 1827SOL    HW2 5497   3.177   0.418   2.646
 1828SOL     OW 5498   3.455   0.221   2.744
 1828SOL    HW1 5499   3.371   0.220   2.798
 1828SOL    HW2 5500   3.457   0.304   2.688
 1829SOL     OW 5501   1.901   1.077   2.162
 1829SOL    HW1 5502   2.000   1.066   2.153
 1829SOL    HW2 5503   1.861   0.991   2.194
 1830SOL     OW 5504   2.737   1.646   2.199
 1830SOL    HW1 5505   2.660   1.611   2.145
 1830SOL    HW2 5506   2.705   1.717   2.261
 1831SOL     OW 5507   2.092   0.628   3.837
 1831SOL    HW1 5508   1.999   0.626   3.874
 1831SOL    HW2 5509   2.093   0.589   3.745
 1832SOL     OW 5510   2.087   0.275   4.720
 1832SOL    HW1 5511   2.122   0.258   4.812
 1832SOL    HW2 5512   1.999   0.230   4.708
 1833SOL     OW 5513   1.881   0.368   4.371
 1833SOL    HW1 5514   1.799   0.411   4.410
 1833SOL    HW2 5515   1.853   0.295   4.308
 1834SOL     OW 5516   3.417   1.511   4.427
 1834SOL    HW1 5517   3.360   1.495   4.508
 1834SOL    HW2 5518   3.358   1.521   4.347
 1835SOL     OW 5519   2.997   0.703   4.441
 1835SOL    HW1 5520   3.054   0.781   4.416
 1835SOL    HW2 5521   2.937   0.729   4.517
 1836SOL     OW 5522   3.617   0.607   3.955
 1836SOL    HW1 5523   3.605   0.594   3.856
 1836SOL    HW2 5524   3.587   0.526   4.004
 1837SOL     OW 5525   2.630   1.144   4.747
 1837SOL    HW1 5526   2.552   1.161   4.807
 1837SOL    HW2 5527   2.664   1.231   4.711
 1838SOL     OW 5528   2.547   1.012   4.389
 1838SOL    HW1 5529   2.616   0.996   4.459
 1838SOL    HW2 5530   2.474   1.069   4.427
 1839SOL     OW 5531   2.197   1.435   4.785
 1839SOL    HW1 5532   2.119   1.404   4.732
 1839SOL    HW2 5533   2.255   1.493   4.728
 1840SOL     OW 5534   3.465   0.447   4.461
 1840SOL    HW1 5535   3.391   0.493   4.411
 1840SOL    HW2 5536   3.516   0.515   4.514
 1841SOL     OW 5537   2.093   1.713   4.207
 1841SOL    HW1 5538   2.127   1.790   4.261
 1841SOL    HW2 5539   2.137   1.713   4.117
 1842SOL     OW 5540   2.092   1.434   4.262
 1842SOL    HW1 5541   2.066   1.530   4.262
 1842SOL    HW2 5542   2.021   1.380   4.307
 1843SOL     OW 5543   2.102   1.091   4.610
 1843SOL    HW1 5544   2.116   1.007   4.662
 1843SOL    HW2 5545   2.047   1.155   4.665
 1844SOL     OW 5546   2.468   0.964   3.847
 1844SOL    HW1 5547   2.475   1.048   3.793
 1844SOL    HW2 5548   2.514   0.977   3.935
 1845SOL     OW 5549   1.984   0.643   4.287
 1845SOL    HW1 5550   1.939   0.555   4.304
 1845SOL    HW2 5551   1.983   0.697   4.371
 1846SOL     OW 5552   3.704   1.767   4.083
 1846SOL    HW1 5553   3.758   1.738   4.163
 1846SOL    HW2 5554   3.734   1.857   4.054
 1847SOL     OW 5555   1.889   1.596   3.841
 1847SOL    HW1 5556   1.870   1.500   3.862
 1847SOL    HW2 5557   1.856   1.654   3.916
 1848SOL     OW 5558   3.551   0.922   4.336
 1848SOL    HW1 5559   3.646   0.893   4.344
 1848SOL    HW2 5560   3.543   0.987   4.261
 1849SOL     OW 5561   3.503   1.108   4.156
 1849SOL    HW1 5562   3.589   1.110   4.104
 1849SOL    HW2 5563   3.517   1.155   4.244
 1850SOL     OW 5564   2.475   1.365   4.450
 1850SOL    HW1 5565   2.426   1.278   4.459
 1850SOL    HW2 5566   2.452   1.408   4.363
 1851SOL     OW 5567   2.671   0.004   4.226
 1851SOL    HW1 5568   2.711   0.095   4.217
 1851SOL    HW2 5569   2.571   0.012   4.232
 1852SOL     OW 5570   3.387   0.999   3.914
 1852SOL    HW1 5571   3.324   0.923   3.927
 1852SOL    HW2 5572   3.435   1.017   4.000
 1853SOL     OW 5573   3.328   1.417   4.677
 1853SOL    HW1 5574   3.269   1.423   4.757
 1853SOL    HW2 5575   3.313   1.329   4.631
 1854SOL     OW 5576   3.529   1.714   4.296
 1854SOL    HW1 5577   3.488   1.691   4.208
 1854SOL    HW2 5578   3.511   1.640   4.361
 1855SOL     OW 5579   2.460   0.729   3.994
 1855SOL    HW1 5580   2.484   0.798   3.926
 1855SOL    HW2 5581   2.382   0.762   4.048
 1856SOL     OW 5582   3.143   0.345   4.668
 1856SOL    HW1 5583   3.057   0.295   4.655
 1856SOL    HW2 5584   3.205   0.291   4.724
 1857SOL     OW 5585   3.438   1.662   4.031
 1857SOL    HW1 5586   3.527   1.708   4.034
 1857SOL    HW2 5587   3.417   1.638   3.936
 1858SOL     OW 5588   2.903   0.701   4.153
 1858SOL    HW1 5589   2.929   0.697   4.249
 1858SOL    HW2 5590   2.818   0.650   4.139
 1859SOL     OW 5591   1.938   0.811   4.513
 1859SOL    HW1 5592   2.037   0.799   4.522
 1859SOL    HW2 5593   1.914   0.906   4.534
 1860SOL     OW 5594   2.727   0.348   3.919
 1860SOL    HW1 5595   2.786   0.411   3.870
 1860SOL    HW2 5596   2.746   0.254   3.890
 1861SOL     OW 5597   3.224   1.144   4.269
 1861SOL    HW1 5598   3.307   1.115   4.221
 1861SOL    HW2 5599   3.175   1.211   4.213
 1862SOL     OW 5600   2.412   0.196   4.609
 1862SOL    HW1 5601   2.407   0.191   4.709
 1862SOL    HW2 5602   2.414   0.292   4.580
 1863SOL     OW 5603   2.870   1.456   4.201
 1863SOL    HW1 5604   2.824   1.528   4.149
 1863SOL    HW2 5605   2.866   1.476   4.299
 1864SOL     OW 5606   2.213   1.801   4.577
 1864SOL    HW1 5607   2.263   1.715   4.583
 1864SOL    HW2 5608   2.278   1.878   4.574
 1865SOL     OW 5609   3.657   1.066   4.597
 1865SOL    HW1 5610   3.595   1.051   4.521
 1865SOL    HW2 5611   3.605   1.077   4.682
 1866SOL     OW 5612   2.183   0.943   3.966
 1866SOL    HW1 5613   2.265   0.982   3.924
 1866SOL    HW2 5614   2.156   0.861   3.917
 1867SOL     OW 5615   3.320   0.735   4.452
 1867SOL    HW1 5616   3.315   0.670   4.527
 1867SOL    HW2 5617   3.400   0.794   4.465
 1868SOL     OW 5618   2.973   1.776   3.961
 1868SOL    HW1 5619   2.913   1.714   4.011
 1868SOL    HW2 5620   3.004   1.732   3.876
 1869SOL     OW 5621   3.494   1.377   3.805
 1869SOL    HW1 5622   3.462   1.471   3.795
 1869SOL    HW2 5623   3.418   1.314   3.793
 1870SOL     OW 5624   2.326   1.743   4.047
 1870SOL    HW1 5625   2.359   1.782   4.133
 1870SOL    HW2 5626   2.402   1.736   3.982
 1871SOL     OW 5627   3.262   0.107   4.150
 1871SOL    HW1 5628   3.238   0.070   4.060
 1871SOL    HW2 5629   3.361   0.123   4.154
 1872SOL     OW 5630   2.111   1.785   4.965
 1872SOL    HW1 5631   2.168   1.720   5.015
 1872SOL    HW2 5632   2.095   1.752   4.872
 1873SOL     OW 5633   2.802   1.698   4.628
 1873SOL    HW1 5634   2.882   1.641   4.649
 1873SOL    HW2 5635   2.753   1.658   4.551
 1874SOL     OW 5636   2.244   0.700   4.204
 1874SOL    HW1 5637   2.289   0.610   4.201
 1874SOL    HW2 5638   2.150   0.689   4.237
 1875SOL     OW 5639   2.476   0.122   3.841
 1875SOL    HW1 5640   2.574   0.100   3.848
 1875SOL    HW2 5641   2.445   0.105   3.748
 1876SOL     OW 5642   2.665   1.402   4.648
 1876SOL    HW1 5643   2.755   1.416   4.606
 1876SOL    HW2 5644   2.594   1.404   4.577
 1877SOL     OW 5645   2.784   0.503   4.623
 1877SOL    HW1 5646   2.759   0.494   4.527
 1877SOL    HW2 5647   2.832   0.421   4.654
 1878SOL     OW 5648   2.401   0.064   4.236
 1878SOL    HW1 5649   2.320   0.065   4.294
 1878SOL    HW2 5650   2.404   0.147   4.181
 1879SOL     OW 5651   3.296   1.188   3.765
 1879SOL    HW1 5652   3.328   1.112   3.822
 1879SOL    HW2 5653   3.204   1.215   3.795
 1880SOL     OW 5654   2.159   0.035   3.895
 1880SOL    HW1 5655   2.208   0.119   3.874
 1880SOL    HW2 5656   2.221  -0.030   3.940
 1881SOL     OW 5657   2.797   0.236   4.204
 1881SOL    HW1 5658   2.749   0.277   4.126
 1881SOL    HW2 5659   2.896   0.234   4.185
 1882SOL     OW 5660   3.089   1.570   4.517
 1882SOL    HW1 5661   3.110   1.644   4.452
 1882SOL    HW2 5662   3.157   1.570   4.590
 1883SOL     OW 5663   2.321   1.152   4.465
 1883SOL    HW1 5664   2.250   1.125   4.530
 1883SOL    HW2 5665   2.295   1.124   4.372
 1884SOL     OW 5666   3.133   1.797   4.315
 1884SOL    HW1 5667   3.177   1.861   4.251
 1884SOL    HW2 5668   3.083   1.849   4.385
 1885SOL     OW 5669   2.894   0.549   3.740
 1885SOL    HW1 5670   2.853   0.631   3.701
 1885SOL    HW2 5671   2.958   0.575   3.813
 1886SOL     OW 5672   2.728   0.454   4.366
 1886SOL    HW1 5673   2.696   0.526   4.304
 1886SOL    HW2 5674   2.752   0.373   4.313
 1887SOL     OW 5675   2.879   0.039   4.477
 1887SOL    HW1 5676   2.807   0.044   4.408
 1887SOL    HW2 5677   2.855  -0.030   4.546
 1888SOL     OW 5678   3.291   1.173   4.591
 1888SOL    HW1 5679   3.236   1.089   4.584
 1888SOL    HW2 5680   3.317   1.202   4.499
 1889SOL     OW 5681   3.328   0.590   4.716
 1889SOL    HW1 5682   3.298   0.495   4.723
 1889SOL    HW2 5683   3.401   0.606   4.782
 1890SOL     OW 5684   3.719   0.833   4.101
 1890SOL    HW1 5685   3.761   0.769   4.165
 1890SOL    HW2 5686   3.681   0.782   4.023
 1891SOL     OW 5687   2.350   1.385   3.898
 1891SOL    HW1 5688   2.263   1.370   3.945
 1891SOL    HW2 5689   2.333   1.411   3.803
 1892SOL     OW 5690   3.526   1.280   4.381
 1892SOL    HW1 5691   3.625   1.288   4.395
 1892SOL    HW2 5692   3.481   1.364   4.412
 1893SOL     OW 5693   3.252   0.575   3.802
 1893SOL    HW1 5694   3.198   0.554   3.883
 1893SOL    HW2 5695   3.343   0.534   3.811
 1894SOL     OW 5696   2.389   0.256   4.052
 1894SOL    HW1 5697   2.416   0.197   3.977
 1894SOL    HW2 5698   2.389   0.351   4.021
 1895SOL     OW 5699   3.500   1.099   4.803
 1895SOL    HW1 5700   3.505   1.180   4.862
 1895SOL    HW2 5701   3.414   1.101   4.752
 1896SOL     OW 5702   2.567   1.050   4.092
 1896SOL    HW1 5703   2.553   1.057   4.191
 1896SOL    HW2 5704   2.651   0.999   4.074
 1897SOL     OW 5705   2.229   1.100   4.225
 1897SOL    HW1 5706   2.222   1.183   4.169
 1897SOL    HW2 5707   2.233   1.020   4.165
 1898SOL     OW 5708   2.428   0.537   4.589
 1898SOL    HW1 5709   2.440   0.603   4.515
 1898SOL    HW2 5710   2.474   0.571   4.672
 1899SOL     OW 5711   3.114   1.348   4.112
 1899SOL    HW1 5712   3.164   1.425   4.152
 1899SOL    HW2 5713   3.019   1.350   4.144
 1900SOL     OW 5714   3.444   0.639   4.196
 1900SOL    HW1 5715   3.413   0.700   4.269
 1900SOL    HW2 5716   3.494   0.691   4.127
 1901SOL     OW 5717   2.435   0.870   4.753
 1901SOL    HW1 5718   2.479   0.959   4.744
 1901SOL    HW2 5719   2.372   0.870   4.830
 1902SOL     OW 5720   3.071   0.525   3.999
 1902SOL    HW1 5721   3.084   0.441   4.053
 1902SOL    HW2 5722   3.042   0.599   4.059
 1903SOL     OW 5723   2.594   0.634   4.788
 1903SOL    HW1 5724   2.653   0.608   4.712
 1903SOL    HW2 5725   2.566   0.730   4.777
 1904SOL     OW 5726   2.169   0.063   4.342
 1904SOL    HW1 5727   2.158   0.157   4.375
 1904SOL    HW2 5728   2.164   0.000   4.419
 1905SOL     OW 5729   3.484   0.367   4.098
 1905SOL    HW1 5730   3.486   0.291   4.162
 1905SOL    HW2 5731   3.436   0.444   4.138
 1906SOL     OW 5732   3.402   0.274   3.849
 1906SOL    HW1 5733   3.341   0.199   3.872
 1906SOL    HW2 5734   3.424   0.326   3.932
 1907SOL     OW 5735   3.165   0.838   3.766
 1907SOL    HW1 5736   3.199   0.745   3.781
 1907SOL    HW2 5737   3.183   0.865   3.671
 1908SOL     OW 5738   2.930   1.333   4.573
 1908SOL    HW1 5739   2.937   1.249   4.518
 1908SOL    HW2 5740   2.992   1.402   4.537
 1909SOL     OW 5741   2.181   0.810   4.673
 1909SOL    HW1 5742   2.274   0.846   4.678
 1909SOL    HW2 5743   2.175   0.725   4.725
 1910SOL     OW 5744   2.201   0.509   4.730
 1910SOL    HW1 5745   2.149   0.426   4.713
 1910SOL    HW2 5746   2.278   0.514   4.666
 1911SOL     OW 5747   1.870   1.326   3.924
 1911SOL    HW1 5748   1.777   1.347   3.893
 1911SOL    HW2 5749   1.880   1.227   3.937
 1912SOL     OW 5750   1.950   1.801   4.651
 1912SOL    HW1 5751   1.908   1.715   4.624
 1912SOL    HW2 5752   2.044   1.804   4.617
 1913SOL     OW 5753   2.366   1.568   4.634
 1913SOL    HW1 5754   2.432   1.642   4.643
 1913SOL    HW2 5755   2.410   1.489   4.592
 1914SOL     OW 5756   2.677   0.572   4.049
 1914SOL    HW1 5757   2.684   0.483   4.003
 1914SOL    HW2 5758   2.583   0.606   4.041
 1915SOL     OW 5759   2.533   0.464   4.993
 1915SOL    HW1 5760   2.499   0.375   4.963
 1915SOL    HW2 5761   2.559   0.518   4.913
 1916SOL     OW 5762   2.335   0.500   3.915
 1916SOL    HW1 5763   2.396   0.580   3.919
 1916SOL    HW2 5764   2.240   0.531   3.922
 1917SOL     OW 5765   3.164   0.855   4.033
 1917SOL    HW1 5766   3.078   0.824   4.075
 1917SOL    HW2 5767   3.160   0.841   3.934
 1918SOL     OW 5768   3.621   1.747   4.878
 1918SOL    HW1 5769   3.682   1.777   4.805
 1918SOL    HW2 5770   3.583   1.658   4.856
 1919SOL     OW 5771   1.945   1.258   4.746
 1919SOL    HW1 5772   1.940   1.257   4.846
 1919SOL    HW2 5773   1.862   1.217   4.708
 1920SOL     OW 5774   3.588   0.135   4.247
 1920SOL    HW1 5775   3.661   0.118   4.180
 1920SOL    HW2 5776   3.557   0.048   4.285
 1921SOL     OW 5777   3.250   1.573   4.201
 1921SOL    HW1 5778   3.317   1.585   4.127
 1921SOL    HW2 5779   3.210   1.662   4.224
 1922SOL     OW 5780   3.142   0.927   4.396
 1922SOL    HW1 5781   3.202   0.846   4.398
 1922SOL    HW2 5782   3.182   0.996   4.336
 1923SOL     OW 5783   2.534   1.616   3.878
 1923SOL    HW1 5784   2.543   1.626   3.779
 1923SOL    HW2 5785   2.494   1.527   3.899
 1924SOL     OW 5786   3.703   0.175   4.687
 1924SOL    HW1 5787   3.742   0.090   4.651
 1924SOL    HW2 5788   3.605   0.177   4.668
 1925SOL     OW 5789   2.125   0.326   4.444
 1925SOL    HW1 5790   2.046   0.377   4.410
 1925SOL    HW2 5791   2.116   0.311   4.542
 1926SOL     OW 5792   3.056   1.612   3.755
 1926SOL    HW1 5793   3.062   1.519   3.792
 1926SOL    HW2 5794   2.997   1.612   3.675
 1927SOL     OW 5795   2.778   0.910   4.015
 1927SOL    HW1 5796   2.841   0.948   3.947
 1927SOL    HW2 5797   2.818   0.827   4.054
 1928SOL     OW 5798   3.366   1.607   3.768
 1928SOL    HW1 5799   3.274   1.644   3.775
 1928SOL    HW2 5800   3.404   1.627   3.678
 1929SOL     OW 5801   2.901   1.098   4.420
 1929SOL    HW1 5802   2.831   1.051   4.474
 1929SOL    HW2 5803   2.960   1.030   4.377
 1930SOL     OW 5804   2.452   1.487   4.215
 1930SOL    HW1 5805   2.494   1.429   4.145
 1930SOL    HW2 5806   2.408   1.566   4.171
 1931SOL     OW 5807   2.117   1.348   4.014
 1931SOL    HW1 5808   2.021   1.349   3.987
 1931SOL    HW2 5809   2.129   1.401   4.098
 1932SOL     OW 5810   1.937   0.345   3.757
 1932SOL    HW1 5811   1.845   0.317   3.728
 1932SOL    HW2 5812   1.968   0.422   3.701
 1933SOL     OW 5813   1.934   0.166   4.042
 1933SOL    HW1 5814   1.917   0.249   3.988
 1933SOL    HW2 5815   2.024   0.129   4.020
 1934SOL     OW 5816   3.045   1.335   3.843
 1934SOL    HW1 5817   2.946   1.324   3.845
 1934SOL    HW2 5818   3.079   1.350   3.936
 1935SOL     OW 5819   3.536   0.883   4.978
 1935SOL    HW1 5820   3.509   0.794   4.941
 1935SOL    HW2 5821   3.537   0.951   4.905
 1936SOL     OW 5822   3.087   0.325   4.173
 1936SOL    HW1 5823   3.152   0.251   4.162
 1936SOL    HW2 5824   3.107   0.375   4.257
 1937SOL     OW 5825   2.456   0.745   4.376
 1937SOL    HW1 5826   2.506   0.830   4.357
 1937SOL    HW2 5827   2.368   0.747   4.328
 1938SOL     OW 5828   2.721   1.374   3.740
 1938SOL    HW1 5829   2.675   1.389   3.828
 1938SOL    HW2 5830   2.765   1.459   3.710
 1939SOL     OW 5831   2.523   1.790   4.677
 1939SOL    HW1 5832   2.477   1.878   4.664
 1939SOL    HW2 5833   2.622   1.802   4.670
 1940SOL     OW 5834   2.721   0.956   4.585
 1940SOL    HW1 5835   2.775   0.887   4.633
 1940SOL    HW2 5836   2.689   1.025   4.651
 1941SOL     OW 5837   2.945   0.984   3.811
 1941SOL    HW1 5838   2.922   1.037   3.729
 1941SOL    HW2 5839   3.026   0.928   3.792
 1942SOL     OW 5840   3.723   1.569   4.575
 1942SOL    HW1 5841   3.652   1.557   4.505
 1942SOL    HW2 5842   3.724   1.490   4.635
 1943SOL     OW 5843   1.941   1.240   4.377
 1943SOL    HW1 5844   1.940   1.193   4.465
 1943SOL    HW2 5845   2.023   1.212   4.326
 1944SOL     OW 5846   3.686   0.192   4.951
 1944SOL    HW1 5847   3.682   0.102   4.995
 1944SOL    HW2 5848   3.689   0.181   4.852
 1945SOL     OW 5849   2.290   0.424   4.244
 1945SOL    HW1 5850   2.320   0.352   4.182
 1945SOL    HW2 5851   2.251   0.384   4.327
 1946SOL     OW 5852   2.674   1.586   4.411
 1946SOL    HW1 5853   2.706   1.596   4.317
 1946SOL    HW2 5854   2.595   1.524   4.413
 1947SOL     OW 5855   2.632   1.330   4.025
 1947SOL    HW1 5856   2.586   1.243   4.042
 1947SOL    HW2 5857   2.723   1.327   4.066
 1948SOL     OW 5858   3.214   0.052   3.892
 1948SOL    HW1 5859   3.249   0.011   3.808
 1948SOL    HW2 5860   3.124   0.014   3.912
 1949SOL     OW 5861   3.162   0.453   4.415
 1949SOL    HW1 5862   3.103   0.533   4.419
 1949SOL    HW2 5863   3.177   0.418   4.508
 1950SOL     OW 5864   3.455   0.221   4.606
 1950SOL    HW1 5865   3.371   0.220   4.660
 1950SOL    HW2 5866   3.457   0.304   4.550
 1951SOL     OW 5867   1.901   1.077   4.024
 1951SOL    HW1 5868   2.000   1.066   4.015
 1951SOL    HW2 5869   1.861   0.991   4.056
 1952SOL     OW 5870   2.737   1.646   4.061
 1952SOL    HW1 5871   2.660   1.611   4.007
 1952SOL    HW2 5872   2.705   1.717   4.123
 1953SOL     OW 5873   2.092   2.490   0.113
 1953SOL    HW1 5874   1.999   2.488   0.150
 1953SOL    HW2 5875   2.093   2.451   0.021
 1954SOL     OW 5876   2.087   2.137   0.996
 1954SOL    HW1 5877   2.122   2.120   1.088
 1954SOL    HW2 5878   1.999   2.092   0.984
 1955SOL     OW 5879   1.881   2.230   0.647
 1955SOL    HW1 5880   1.799   2.273   0.686
 1955SOL    HW2 5881   1.853   2.157   0.584
 1956SOL     OW 5882   2.431   3.137   1.165
 1956SOL    HW1 5883   2.338   3.130   1.128
 1956SOL    HW2 5884   2.442   3.226   1.209
 1957SOL     OW 5885   3.417   3.373   0.703
 1957SOL    HW1 5886   3.360   3.357   0.784
 1957SOL    HW2 5887   3.358   3.383   0.623
 1958SOL     OW 5888   2.997   2.565   0.717
 1958SOL    HW1 5889   3.054   2.643   0.692
 1958SOL    HW2 5890   2.937   2.591   0.793
 1959SOL     OW 5891   3.617   2.469   0.231
 1959SOL    HW1 5892   3.605   2.456   0.132
 1959SOL    HW2 5893   3.587   2.388   0.280
 1960SOL     OW 5894   2.630   3.006   1.023
 1960SOL    HW1 5895   2.552   3.023   1.083
 1960SOL    HW2 5896   2.664   3.093   0.987
 1961SOL     OW 5897   2.712   2.660   1.823
 1961SOL    HW1 5898   2.708   2.736   1.888
 1961SOL    HW2 5899   2.734   2.696   1.732
 1962SOL     OW 5900   2.547   2.874   0.665
 1962SOL    HW1 5901   2.616   2.858   0.735
 1962SOL    HW2 5902   2.474   2.931   0.703
 1963SOL     OW 5903   2.548   3.023   1.803
 1963SOL    HW1 5904   2.608   3.102   1.817
 1963SOL    HW2 5905   2.462   3.054   1.762
 1964SOL     OW 5906   2.197   3.297   1.061
 1964SOL    HW1 5907   2.119   3.266   1.008
 1964SOL    HW2 5908   2.255   3.355   1.004
 1965SOL     OW 5909   3.322   3.367   1.339
 1965SOL    HW1 5910   3.346   3.461   1.365
 1965SOL    HW2 5911   3.306   3.313   1.421
 1966SOL     OW 5912   2.300   2.254   1.499
 1966SOL    HW1 5913   2.382   2.198   1.508
 1966SOL    HW2 5914   2.219   2.196   1.503
 1967SOL     OW 5915   3.465   2.309   0.737
 1967SOL    HW1 5916   3.391   2.355   0.687
 1967SOL    HW2 5917   3.516   2.377   0.790
 1968SOL     OW 5918   2.093   3.575   0.483
 1968SOL    HW1 5919   2.127   3.652   0.537
 1968SOL    HW2 5920   2.137   3.575   0.393
 1969SOL     OW 5921   2.989   3.203   1.690
 1969SOL    HW1 5922   3.036   3.203   1.778
 1969SOL    HW2 5923   2.941   3.116   1.679
 1970SOL     OW 5924   2.092   3.296   0.538
 1970SOL    HW1 5925   2.066   3.392   0.538
 1970SOL    HW2 5926   2.021   3.242   0.583
 1971SOL     OW 5927   2.102   2.953   0.886
 1971SOL    HW1 5928   2.116   2.869   0.938
 1971SOL    HW2 5929   2.047   3.017   0.941
 1972SOL     OW 5930   2.482   3.648   1.439
 1972SOL    HW1 5931   2.390   3.631   1.474
 1972SOL    HW2 5932   2.510   3.740   1.465
 1973SOL     OW 5933   2.468   2.826   0.123
 1973SOL    HW1 5934   2.475   2.910   0.069
 1973SOL    HW2 5935   2.514   2.839   0.211
 1974SOL     OW 5936   3.456   1.976   1.480
 1974SOL    HW1 5937   3.438   2.043   1.408
 1974SOL    HW2 5938   3.453   2.022   1.569
 1975SOL     OW 5939   1.984   2.505   0.563
 1975SOL    HW1 5940   1.939   2.417   0.580
 1975SOL    HW2 5941   1.983   2.559   0.647
 1976SOL     OW 5942   3.704   3.629   0.359
 1976SOL    HW1 5943   3.758   3.600   0.439
 1976SOL    HW2 5944   3.734   3.719   0.330
 1977SOL     OW 5945   1.889   3.458   0.117
 1977SOL    HW1 5946   1.870   3.362   0.138
 1977SOL    HW2 5947   1.856   3.516   0.192
 1978SOL     OW 5948   3.551   2.784   0.612
 1978SOL    HW1 5949   3.646   2.755   0.620
 1978SOL    HW2 5950   3.543   2.849   0.537
 1979SOL     OW 5951   3.503   2.970   0.432
 1979SOL    HW1 5952   3.589   2.972   0.380
 1979SOL    HW2 5953   3.517   3.017   0.520
 1980SOL     OW 5954   1.975   2.599   1.597
 1980SOL    HW1 5955   2.063   2.586   1.642
 1980SOL    HW2 5956   1.962   2.696   1.575
 1981SOL     OW 5957   2.475   3.227   0.726
 1981SOL    HW1 5958   2.426   3.140   0.735
 1981SOL    HW2 5959   2.452   3.270   0.639
 1982SOL     OW 5960   3.155   3.090   1.423
 1982SOL    HW1 5961   3.192   3.017   1.365
 1982SOL    HW2 5962   3.207   3.095   1.508
 1983SOL     OW 5963   2.671   1.866   0.502
 1983SOL    HW1 5964   2.711   1.957   0.493
 1983SOL    HW2 5965   2.571   1.874   0.508
 1984SOL     OW 5966   2.059   2.838   1.264
 1984SOL    HW1 5967   2.148   2.793   1.250
 1984SOL    HW2 5968   1.986   2.773   1.245
 1985SOL     OW 5969   3.387   2.861   0.190
 1985SOL    HW1 5970   3.324   2.785   0.203
 1985SOL    HW2 5971   3.435   2.879   0.276
 1986SOL     OW 5972   3.049   3.654   1.616
 1986SOL    HW1 5973   3.073   3.714   1.540
 1986SOL    HW2 5974   3.056   3.559   1.586
 1987SOL     OW 5975   2.179   2.113   1.801
 1987SOL    HW1 5976   2.250   2.184   1.807
 1987SOL    HW2 5977   2.091   2.152   1.829
 1988SOL     OW 5978   3.328   3.279   0.953
 1988SOL    HW1 5979   3.269   3.285   1.033
 1988SOL    HW2 5980   3.313   3.191   0.907
 1989SOL     OW 5981   3.529   3.576   0.572
 1989SOL    HW1 5982   3.488   3.553   0.484
 1989SOL    HW2 5983   3.511   3.502   0.637
 1990SOL     OW 5984   2.460   2.591   0.270
 1990SOL    HW1 5985   2.484   2.660   0.202
 1990SOL    HW2 5986   2.382   2.624   0.324
 1991SOL     OW 5987   3.143   2.207   0.944
 1991SOL    HW1 5988   3.057   2.157   0.931
 1991SOL    HW2 5989   3.205   2.153   1.000
 1992SOL     OW 5990   3.438   3.524   0.307
 1992SOL    HW1 5991   3.527   3.570   0.310
 1992SOL    HW2 5992   3.417   3.500   0.212
 1993SOL     OW 5993   2.669   2.467   1.465
 1993SOL    HW1 5994   2.622   2.464   1.554
 1993SOL    HW2 5995   2.618   2.412   1.399
 1994SOL     OW 5996   3.256   2.331   1.674
 1994SOL    HW1 5997   3.236   2.374   1.762
 1994SOL    HW2 5998   3.334   2.269   1.683
 1995SOL     OW 5999   2.835   2.752   1.572
 1995SOL    HW1 6000   2.881   2.668   1.543
 1995SOL    HW2 6001   2.779   2.786   1.497
 1996SOL     OW 6002   2.853   2.272   1.242
 1996SOL    HW1 6003   2.776   2.306   1.296
 1996SOL    HW2 6004   2.819   2.221   1.163
 1997SOL     OW 6005   2.903   2.563   0.429
 1997SOL    HW1 6006   2.929   2.559   0.525
 1997SOL    HW2 6007   2.818   2.512   0.415
 1998SOL     OW 6008   1.938   2.673   0.789
 1998SOL    HW1 6009   2.037   2.661   0.798
 1998SOL    HW2 6010   1.914   2.768   0.810
 1999SOL     OW 6011   1.992   3.683   1.571
 1999SOL    HW1 6012   1.982   3.668   1.670
 1999SOL    HW2 6013   1.906   3.719   1.535
 2000SOL     OW 6014   2.727   2.210   0.195
 2000SOL    HW1 6015   2.786   2.273   0.146
 2000SOL    HW2 6016   2.746   2.116   0.166
 2001SOL     OW 6017   3.581   2.447   1.831
 2001SOL    HW1 6018   3.555   2.536   1.795
 2001SOL    HW2 6019   3.579   2.379   1.758
 2002SOL     OW 6020   3.224   3.006   0.545
 2002SOL    HW1 6021   3.307   2.977   0.497
 2002SOL    HW2 6022   3.175   3.073   0.489
 2003SOL     OW 6023   2.412   2.058   0.885
 2003SOL    HW1 6024   2.407   2.053   0.985
 2003SOL    HW2 6025   2.414   2.154   0.856
 2004SOL     OW 6026   2.870   3.318   0.477
 2004SOL    HW1 6027   2.824   3.390   0.425
 2004SOL    HW2 6028   2.866   3.338   0.575
 2005SOL     OW 6029   2.213   3.663   0.853
 2005SOL    HW1 6030   2.263   3.577   0.859
 2005SOL    HW2 6031   2.278   3.740   0.850
 2006SOL     OW 6032   3.657   2.928   0.873
 2006SOL    HW1 6033   3.595   2.913   0.797
 2006SOL    HW2 6034   3.605   2.939   0.958
 2007SOL     OW 6035   3.089   3.412   1.506
 2007SOL    HW1 6036   3.095   3.335   1.570
 2007SOL    HW2 6037   3.037   3.386   1.426
 2008SOL     OW 6038   2.183   2.805   0.242
 2008SOL    HW1 6039   2.265   2.844   0.200
 2008SOL    HW2 6040   2.156   2.723   0.193
 2009SOL     OW 6041   3.320   2.597   0.728
 2009SOL    HW1 6042   3.315   2.532   0.803
 2009SOL    HW2 6043   3.400   2.656   0.741
 2010SOL     OW 6044   2.323   3.128   1.727
 2010SOL    HW1 6045   2.273   3.129   1.641
 2010SOL    HW2 6046   2.260   3.110   1.803
 2011SOL     OW 6047   2.973   3.638   0.237
 2011SOL    HW1 6048   2.913   3.576   0.287
 2011SOL    HW2 6049   3.004   3.594   0.152
 2012SOL     OW 6050   2.064   2.147   1.498
 2012SOL    HW1 6051   1.984   2.207   1.485
 2012SOL    HW2 6052   2.054   2.098   1.584
 2013SOL     OW 6053   3.494   3.239   0.081
 2013SOL    HW1 6054   3.462   3.333   0.071
 2013SOL    HW2 6055   3.418   3.176   0.069
 2014SOL     OW 6056   2.326   3.605   0.323
 2014SOL    HW1 6057   2.359   3.644   0.409
 2014SOL    HW2 6058   2.402   3.598   0.258
 2015SOL     OW 6059   3.262   1.969   0.426
 2015SOL    HW1 6060   3.238   1.932   0.336
 2015SOL    HW2 6061   3.361   1.985   0.430
 2016SOL     OW 6062   2.111   3.647   1.241
 2016SOL    HW1 6063   2.168   3.582   1.291
 2016SOL    HW2 6064   2.095   3.614   1.148
 2017SOL     OW 6065   2.802   3.560   0.904
 2017SOL    HW1 6066   2.882   3.503   0.925
 2017SOL    HW2 6067   2.753   3.520   0.827
 2018SOL     OW 6068   2.244   2.562   0.480
 2018SOL    HW1 6069   2.289   2.472   0.477
 2018SOL    HW2 6070   2.150   2.551   0.513
 2019SOL     OW 6071   3.409   2.084   1.729
 2019SOL    HW1 6072   3.404   2.121   1.821
 2019SOL    HW2 6073   3.337   2.015   1.717
 2020SOL     OW 6074   2.476   1.984   0.117
 2020SOL    HW1 6075   2.574   1.962   0.124
 2020SOL    HW2 6076   2.445   1.967   0.024
 2021SOL     OW 6077   2.643   2.126   1.749
 2021SOL    HW1 6078   2.710   2.065   1.792
 2021SOL    HW2 6079   2.570   2.145   1.814
 2022SOL     OW 6080   2.750   3.376   1.195
 2022SOL    HW1 6081   2.727   3.351   1.101
 2022SOL    HW2 6082   2.811   3.307   1.234
 2023SOL     OW 6083   3.213   2.452   1.433
 2023SOL    HW1 6084   3.241   2.409   1.518
 2023SOL    HW2 6085   3.238   2.548   1.434
 2024SOL     OW 6086   2.665   3.264   0.924
 2024SOL    HW1 6087   2.755   3.278   0.882
 2024SOL    HW2 6088   2.594   3.266   0.853
 2025SOL     OW 6089   2.784   2.365   0.899
 2025SOL    HW1 6090   2.759   2.356   0.803
 2025SOL    HW2 6091   2.832   2.283   0.930
 2026SOL     OW 6092   2.401   1.926   0.512
 2026SOL    HW1 6093   2.320   1.927   0.570
 2026SOL    HW2 6094   2.404   2.009   0.457
 2027SOL     OW 6095   3.296   3.050   0.041
 2027SOL    HW1 6096   3.328   2.974   0.098
 2027SOL    HW2 6097   3.204   3.077   0.071
 2028SOL     OW 6098   2.797   2.098   0.480
 2028SOL    HW1 6099   2.749   2.139   0.402
 2028SOL    HW2 6100   2.896   2.096   0.461
 2029SOL     OW 6101   2.938   2.545   1.464
 2029SOL    HW1 6102   2.858   2.484   1.467
 2029SOL    HW2 6103   3.019   2.492   1.440
 2030SOL     OW 6104   3.089   3.432   0.793
 2030SOL    HW1 6105   3.110   3.506   0.728
 2030SOL    HW2 6106   3.157   3.432   0.866
 2031SOL     OW 6107   2.321   3.014   0.741
 2031SOL    HW1 6108   2.250   2.987   0.806
 2031SOL    HW2 6109   2.295   2.986   0.648
 2032SOL     OW 6110   3.133   3.659   0.591
 2032SOL    HW1 6111   3.177   3.723   0.527
 2032SOL    HW2 6112   3.083   3.711   0.661
 2033SOL     OW 6113   2.894   2.411   0.016
 2033SOL    HW1 6114   2.853   2.493  -0.023
 2033SOL    HW2 6115   2.958   2.437   0.089
 2034SOL     OW 6116   1.940   2.418   1.386
 2034SOL    HW1 6117   2.032   2.417   1.345
 2034SOL    HW2 6118   1.934   2.492   1.453
 2035SOL     OW 6119   2.423   2.084   1.147
 2035SOL    HW1 6120   2.461   2.000   1.184
 2035SOL    HW2 6121   2.335   2.103   1.191
 2036SOL     OW 6122   2.728   2.316   0.642
 2036SOL    HW1 6123   2.696   2.388   0.580
 2036SOL    HW2 6124   2.752   2.235   0.589
 2037SOL     OW 6125   2.879   1.901   0.753
 2037SOL    HW1 6126   2.807   1.906   0.684
 2037SOL    HW2 6127   2.855   1.832   0.822
 2038SOL     OW 6128   3.291   3.035   0.867
 2038SOL    HW1 6129   3.236   2.951   0.860
 2038SOL    HW2 6130   3.317   3.064   0.775
 2039SOL     OW 6131   3.328   2.452   0.992
 2039SOL    HW1 6132   3.298   2.357   0.999
 2039SOL    HW2 6133   3.401   2.468   1.058
 2040SOL     OW 6134   3.719   2.695   0.377
 2040SOL    HW1 6135   3.761   2.631   0.441
 2040SOL    HW2 6136   3.681   2.644   0.299
 2041SOL     OW 6137   2.350   3.247   0.174
 2041SOL    HW1 6138   2.263   3.232   0.221
 2041SOL    HW2 6139   2.333   3.273   0.079
 2042SOL     OW 6140   3.526   3.142   0.657
 2042SOL    HW1 6141   3.625   3.150   0.671
 2042SOL    HW2 6142   3.481   3.226   0.688
 2043SOL     OW 6143   3.252   2.437   0.078
 2043SOL    HW1 6144   3.198   2.416   0.159
 2043SOL    HW2 6145   3.343   2.396   0.087
 2044SOL     OW 6146   2.389   2.118   0.328
 2044SOL    HW1 6147   2.416   2.059   0.253
 2044SOL    HW2 6148   2.389   2.213   0.297
 2045SOL     OW 6149   3.616   3.085   1.588
 2045SOL    HW1 6150   3.707   3.046   1.575
 2045SOL    HW2 6151   3.624   3.181   1.612
 2046SOL     OW 6152   2.926   3.209   1.340
 2046SOL    HW1 6153   2.846   3.186   1.395
 2046SOL    HW2 6154   3.009   3.183   1.389
 2047SOL     OW 6155   3.454   3.491   1.625
 2047SOL    HW1 6156   3.481   3.525   1.535
 2047SOL    HW2 6157   3.533   3.453   1.671
 2048SOL     OW 6158   2.973   3.057   1.100
 2048SOL    HW1 6159   2.933   3.101   1.181
 2048SOL    HW2 6160   2.932   3.094   1.017
 2049SOL     OW 6161   3.500   2.961   1.079
 2049SOL    HW1 6162   3.505   3.042   1.138
 2049SOL    HW2 6163   3.414   2.963   1.028
 2050SOL     OW 6164   2.777   1.951   1.402
 2050SOL    HW1 6165   2.802   1.931   1.307
 2050SOL    HW2 6166   2.849   2.007   1.444
 2051SOL     OW 6167   2.842   2.978   1.719
 2051SOL    HW1 6168   2.743   2.984   1.729
 2051SOL    HW2 6169   2.865   2.898   1.663
 2052SOL     OW 6170   2.567   2.912   0.368
 2052SOL    HW1 6171   2.553   2.919   0.467
 2052SOL    HW2 6172   2.651   2.861   0.350
 2053SOL     OW 6173   2.272   2.675   1.251
 2053SOL    HW1 6174   2.358   2.687   1.301
 2053SOL    HW2 6175   2.230   2.588   1.278
 2054SOL     OW 6176   3.136   2.248   1.262
 2054SOL    HW1 6177   3.157   2.322   1.326
 2054SOL    HW2 6178   3.047   2.265   1.219
 2055SOL     OW 6179   1.926   3.426   1.331
 2055SOL    HW1 6180   1.880   3.508   1.297
 2055SOL    HW2 6181   2.024   3.445   1.340
 2056SOL     OW 6182   2.229   2.962   0.501
 2056SOL    HW1 6183   2.222   3.045   0.445
 2056SOL    HW2 6184   2.233   2.882   0.441
 2057SOL     OW 6185   2.428   2.399   0.865
 2057SOL    HW1 6186   2.440   2.465   0.791
 2057SOL    HW2 6187   2.474   2.433   0.948
 2058SOL     OW 6188   3.114   3.210   0.388
 2058SOL    HW1 6189   3.164   3.287   0.428
 2058SOL    HW2 6190   3.019   3.212   0.420
 2059SOL     OW 6191   3.134   3.307   1.142
 2059SOL    HW1 6192   3.181   3.320   1.229
 2059SOL    HW2 6193   3.068   3.233   1.151
 2060SOL     OW 6194   3.444   2.501   0.472
 2060SOL    HW1 6195   3.413   2.562   0.545
 2060SOL    HW2 6196   3.494   2.553   0.403
 2061SOL     OW 6197   2.216   3.372   1.329
 2061SOL    HW1 6198   2.195   3.328   1.242
 2061SOL    HW2 6199   2.313   3.398   1.332
 2062SOL     OW 6200   2.264   2.613   1.598
 2062SOL    HW1 6201   2.332   2.668   1.551
 2062SOL    HW2 6202   2.304   2.525   1.625
 2063SOL     OW 6203   3.449   2.641   1.670
 2063SOL    HW1 6204   3.357   2.679   1.665
 2063SOL    HW2 6205   3.509   2.688   1.605
 2064SOL     OW 6206   2.875   1.967   1.770
 2064SOL    HW1 6207   2.881   2.052   1.718
 2064SOL    HW2 6208   2.907   1.891   1.713
 2065SOL     OW 6209   2.366   1.912   1.740
 2065SOL    HW1 6210   2.324   1.855   1.670
 2065SOL    HW2 6211   2.300   1.981   1.772
 2066SOL     OW 6212   2.435   2.732   1.029
 2066SOL    HW1 6213   2.479   2.821   1.020
 2066SOL    HW2 6214   2.372   2.732   1.106
 2067SOL     OW 6215   3.222   2.724   1.045
 2067SOL    HW1 6216   3.147   2.724   0.979
 2067SOL    HW2 6217   3.259   2.632   1.054
 2068SOL     OW 6218   3.071   2.387   0.275
 2068SOL    HW1 6219   3.084   2.303   0.329
 2068SOL    HW2 6220   3.042   2.461   0.335
 2069SOL     OW 6221   2.169   2.075   1.231
 2069SOL    HW1 6222   2.146   2.112   1.321
 2069SOL    HW2 6223   2.139   1.980   1.225
 2070SOL     OW 6224   1.899   3.172   1.282
 2070SOL    HW1 6225   1.952   3.123   1.350
 2070SOL    HW2 6226   1.921   3.270   1.287
 2071SOL     OW 6227   2.594   2.496   1.064
 2071SOL    HW1 6228   2.653   2.470   0.988
 2071SOL    HW2 6229   2.566   2.592   1.053
 2072SOL     OW 6230   3.590   2.797   1.854
 2072SOL    HW1 6231   3.544   2.790   1.765
 2072SOL    HW2 6232   3.528   2.841   1.920
 2073SOL     OW 6233   2.169   1.925   0.618
 2073SOL    HW1 6234   2.158   2.019   0.651
 2073SOL    HW2 6235   2.164   1.862   0.695
 2074SOL     OW 6236   3.484   2.229   0.374
 2074SOL    HW1 6237   3.486   2.153   0.438
 2074SOL    HW2 6238   3.436   2.306   0.414
 2075SOL     OW 6239   2.885   2.628   0.966
 2075SOL    HW1 6240   2.900   2.649   1.062
 2075SOL    HW2 6241   2.855   2.533   0.957
 2076SOL     OW 6242   2.842   3.435   1.700
 2076SOL    HW1 6243   2.822   3.479   1.612
 2076SOL    HW2 6244   2.881   3.344   1.684
 2077SOL     OW 6245   3.721   3.380   1.605
 2077SOL    HW1 6246   3.735   3.407   1.510
 2077SOL    HW2 6247   3.804   3.402   1.658
 2078SOL     OW 6248   2.212   2.760   1.804
 2078SOL    HW1 6249   2.288   2.804   1.852
 2078SOL    HW2 6250   2.247   2.713   1.722
 2079SOL     OW 6251   3.402   2.136   0.125
 2079SOL    HW1 6252   3.341   2.061   0.148
 2079SOL    HW2 6253   3.424   2.188   0.208
 2080SOL     OW 6254   3.165   2.700   0.042
 2080SOL    HW1 6255   3.199   2.607   0.057
 2080SOL    HW2 6256   3.183   2.727  -0.053
 2081SOL     OW 6257   2.930   3.195   0.849
 2081SOL    HW1 6258   2.937   3.111   0.794
 2081SOL    HW2 6259   2.992   3.264   0.813
 2082SOL     OW 6260   2.181   2.672   0.949
 2082SOL    HW1 6261   2.274   2.708   0.954
 2082SOL    HW2 6262   2.175   2.587   1.001
 2083SOL     OW 6263   2.201   2.371   1.006
 2083SOL    HW1 6264   2.149   2.288   0.989
 2083SOL    HW2 6265   2.278   2.376   0.942
 2084SOL     OW 6266   3.000   2.242   1.678
 2084SOL    HW1 6267   2.955   2.305   1.742
 2084SOL    HW2 6268   3.093   2.273   1.661
 2085SOL     OW 6269   3.022   2.069   1.477
 2085SOL    HW1 6270   3.022   2.133   1.554
 2085SOL    HW2 6271   3.050   2.117   1.394
 2086SOL     OW 6272   1.870   3.188   0.200
 2086SOL    HW1 6273   1.777   3.209   0.169
 2086SOL    HW2 6274   1.880   3.089   0.213
 2087SOL     OW 6275   1.950   3.663   0.927
 2087SOL    HW1 6276   1.908   3.577   0.900
 2087SOL    HW2 6277   2.044   3.666   0.893
 2088SOL     OW 6278   2.366   3.430   0.910
 2088SOL    HW1 6279   2.432   3.504   0.919
 2088SOL    HW2 6280   2.410   3.351   0.868
 2089SOL     OW 6281   2.864   2.658   1.238
 2089SOL    HW1 6282   2.905   2.626   1.324
 2089SOL    HW2 6283   2.768   2.631   1.235
 2090SOL     OW 6284   1.902   2.406   1.114
 2090SOL    HW1 6285   1.987   2.373   1.073
 2090SOL    HW2 6286   1.915   2.421   1.212
 2091SOL     OW 6287   2.051   2.382   1.722
 2091SOL    HW1 6288   2.110   2.342   1.652
 2091SOL    HW2 6289   1.993   2.453   1.681
 2092SOL     OW 6290   3.231   2.812   1.660
 2092SOL    HW1 6291   3.270   2.901   1.680
 2092SOL    HW2 6292   3.241   2.792   1.563
 2093SOL     OW 6293   2.677   2.434   0.325
 2093SOL    HW1 6294   2.684   2.345   0.279
 2093SOL    HW2 6295   2.583   2.468   0.317
 2094SOL     OW 6296   3.519   2.466   1.206
 2094SOL    HW1 6297   3.481   2.397   1.268
 2094SOL    HW2 6298   3.601   2.430   1.162
 2095SOL     OW 6299   2.114   3.426   1.744
 2095SOL    HW1 6300   2.084   3.483   1.820
 2095SOL    HW2 6301   2.107   3.329   1.770
 2096SOL     OW 6302   2.533   2.326   1.269
 2096SOL    HW1 6303   2.499   2.237   1.239
 2096SOL    HW2 6304   2.559   2.380   1.189
 2097SOL     OW 6305   2.792   3.540   1.465
 2097SOL    HW1 6306   2.768   3.522   1.370
 2097SOL    HW2 6307   2.822   3.634   1.475
 2098SOL     OW 6308   2.335   2.362   0.191
 2098SOL    HW1 6309   2.396   2.442   0.195
 2098SOL    HW2 6310   2.240   2.393   0.198
 2099SOL     OW 6311   2.021   2.999   1.466
 2099SOL    HW1 6312   2.043   2.938   1.542
 2099SOL    HW2 6313   2.031   2.950   1.380
 2100SOL     OW 6314   3.209   2.921   1.234
 2100SOL    HW1 6315   3.233   2.858   1.160
 2100SOL    HW2 6316   3.119   2.961   1.216
 2101SOL     OW 6317   3.164   2.717   0.309
 2101SOL    HW1 6318   3.078   2.686   0.351
 2101SOL    HW2 6319   3.160   2.703   0.210
 2102SOL     OW 6320   3.621   3.609   1.154
 2102SOL    HW1 6321   3.682   3.639   1.081
 2102SOL    HW2 6322   3.583   3.520   1.132
 2103SOL     OW 6323   3.114   3.593   1.128
 2103SOL    HW1 6324   3.198   3.598   1.074
 2103SOL    HW2 6325   3.091   3.497   1.146
 2104SOL     OW 6326   1.945   3.120   1.022
 2104SOL    HW1 6327   1.940   3.119   1.122
 2104SOL    HW2 6328   1.862   3.079   0.984
 2105SOL     OW 6329   2.550   3.524   1.716
 2105SOL    HW1 6330   2.494   3.605   1.725
 2105SOL    HW2 6331   2.602   3.528   1.630
 2106SOL     OW 6332   2.765   1.948   0.133
 2106SOL    HW1 6333   2.816   1.949   0.047
 2106SOL    HW2 6334   2.821   1.906   0.204
 2107SOL     OW 6335   3.588   1.997   0.523
 2107SOL    HW1 6336   3.661   1.980   0.456
 2107SOL    HW2 6337   3.557   1.910   0.561
 2108SOL     OW 6338   3.250   3.435   0.477
 2108SOL    HW1 6339   3.317   3.447   0.403
 2108SOL    HW2 6340   3.210   3.524   0.500
 2109SOL     OW 6341   1.992   3.656   1.851
 2109SOL    HW1 6342   1.951   3.582   1.904
 2109SOL    HW2 6343   2.056   3.707   1.909
 2110SOL     OW 6344   3.142   2.789   0.672
 2110SOL    HW1 6345   3.202   2.708   0.674
 2110SOL    HW2 6346   3.182   2.858   0.612
 2111SOL     OW 6347   2.692   3.135   1.422
 2111SOL    HW1 6348   2.687   3.168   1.517
 2111SOL    HW2 6349   2.606   3.154   1.376
 2112SOL     OW 6350   2.534   3.478   0.154
 2112SOL    HW1 6351   2.543   3.488   0.055
 2112SOL    HW2 6352   2.494   3.389   0.175
 2113SOL     OW 6353   3.512   3.582   1.394
 2113SOL    HW1 6354   3.565   3.592   1.310
 2113SOL    HW2 6355   3.485   3.672   1.428
 2114SOL     OW 6356   3.703   2.037   0.963
 2114SOL    HW1 6357   3.742   1.952   0.927
 2114SOL    HW2 6358   3.605   2.039   0.944
 2115SOL     OW 6359   2.125   2.188   0.720
 2115SOL    HW1 6360   2.046   2.239   0.686
 2115SOL    HW2 6361   2.116   2.173   0.818
 2116SOL     OW 6362   3.056   3.474   0.031
 2116SOL    HW1 6363   3.062   3.381   0.068
 2116SOL    HW2 6364   2.997   3.474  -0.049
 2117SOL     OW 6365   2.684   2.864   1.372
 2117SOL    HW1 6366   2.724   2.863   1.280
 2117SOL    HW2 6367   2.694   2.956   1.412
 2118SOL     OW 6368   2.778   2.772   0.291
 2118SOL    HW1 6369   2.841   2.810   0.223
 2118SOL    HW2 6370   2.818   2.689   0.330
 2119SOL     OW 6371   3.366   3.469   0.044
 2119SOL    HW1 6372   3.274   3.506   0.051
 2119SOL    HW2 6373   3.404   3.489  -0.046
 2120SOL     OW 6374   2.234   3.150   1.490
 2120SOL    HW1 6375   2.221   3.243   1.456
 2120SOL    HW2 6376   2.150   3.098   1.477
 2121SOL     OW 6377   3.476   3.154   1.289
 2121SOL    HW1 6378   3.536   3.157   1.369
 2121SOL    HW2 6379   3.401   3.218   1.302
 2122SOL     OW 6380   2.901   2.960   0.696
 2122SOL    HW1 6381   2.831   2.913   0.750
 2122SOL    HW2 6382   2.960   2.892   0.653
 2123SOL     OW 6383   2.876   2.098   0.971
 2123SOL    HW1 6384   2.868   2.062   0.878
 2123SOL    HW2 6385   2.874   2.022   1.036
 2124SOL     OW 6386   2.452   3.349   0.491
 2124SOL    HW1 6387   2.494   3.291   0.421
 2124SOL    HW2 6388   2.408   3.428   0.447
 2125SOL     OW 6389   3.571   2.247   1.381
 2125SOL    HW1 6390   3.644   2.316   1.385
 2125SOL    HW2 6391   3.599   2.172   1.322
 2126SOL     OW 6392   2.117   3.210   0.290
 2126SOL    HW1 6393   2.021   3.211   0.263
 2126SOL    HW2 6394   2.129   3.263   0.374
 2127SOL     OW 6395   1.967   2.875   1.726
 2127SOL    HW1 6396   1.890   2.842   1.780
 2127SOL    HW2 6397   2.052   2.845   1.768
 2128SOL     OW 6398   2.534   2.065   1.489
 2128SOL    HW1 6399   2.624   2.049   1.449
 2128SOL    HW2 6400   2.542   2.070   1.588
 2129SOL     OW 6401   1.937   2.207   0.033
 2129SOL    HW1 6402   1.845   2.179   0.004
 2129SOL    HW2 6403   1.968   2.284  -0.023
 2130SOL     OW 6404   3.302   2.718   1.398
 2130SOL    HW1 6405   3.245   2.770   1.335
 2130SOL    HW2 6406   3.398   2.730   1.374
 2131SOL     OW 6407   3.045   3.197   0.119
 2131SOL    HW1 6408   2.946   3.186   0.121
 2131SOL    HW2 6409   3.079   3.212   0.212
 2132SOL     OW 6410   2.475   2.704   1.431
 2132SOL    HW1 6411   2.531   2.785   1.414
 2132SOL    HW2 6412   2.534   2.624   1.434
 2133SOL     OW 6413   3.355   3.629   0.959
 2133SOL    HW1 6414   3.388   3.693   0.890
 2133SOL    HW2 6415   3.421   3.623   1.034
 2134SOL     OW 6416   2.578   2.427   1.708
 2134SOL    HW1 6417   2.597   2.492   1.782
 2134SOL    HW2 6418   2.638   2.347   1.717
 2135SOL     OW 6419   3.312   3.082   1.633
 2135SOL    HW1 6420   3.303   3.072   1.732
 2135SOL    HW2 6421   3.408   3.075   1.607
 2136SOL     OW 6422   2.252   3.603   1.560
 2136SOL    HW1 6423   2.161   3.644   1.558
 2136SOL    HW2 6424   2.245   3.509   1.592
 2137SOL     OW 6425   3.536   2.745   1.254
 2137SOL    HW1 6426   3.509   2.656   1.217
 2137SOL    HW2 6427   3.537   2.813   1.181
 2138SOL     OW 6428   3.087   2.187   0.449
 2138SOL    HW1 6429   3.152   2.113   0.438
 2138SOL    HW2 6430   3.107   2.237   0.533
 2139SOL     OW 6431   2.456   2.607   0.652
 2139SOL    HW1 6432   2.506   2.692   0.633
 2139SOL    HW2 6433   2.368   2.609   0.604
 2140SOL     OW 6434   3.639   2.204   1.642
 2140SOL    HW1 6435   3.622   2.235   1.548
 2140SOL    HW2 6436   3.555   2.167   1.680
 2141SOL     OW 6437   3.592   2.796   1.517
 2141SOL    HW1 6438   3.630   2.887   1.532
 2141SOL    HW2 6439   3.584   2.779   1.418
 2142SOL     OW 6440   2.721   3.236   0.016
 2142SOL    HW1 6441   2.675   3.251   0.104
 2142SOL    HW2 6442   2.765   3.321  -0.014
 2143SOL     OW 6443   2.523   3.652   0.953
 2143SOL    HW1 6444   2.477   3.740   0.940
 2143SOL    HW2 6445   2.622   3.664   0.946
 2144SOL     OW 6446   2.721   2.818   0.861
 2144SOL    HW1 6447   2.775   2.749   0.909
 2144SOL    HW2 6448   2.689   2.887   0.927
 2145SOL     OW 6449   2.945   2.846   0.087
 2145SOL    HW1 6450   2.922   2.899   0.005
 2145SOL    HW2 6451   3.026   2.790   0.068
 2146SOL     OW 6452   3.723   3.431   0.851
 2146SOL    HW1 6453   3.652   3.419   0.781
 2146SOL    HW2 6454   3.724   3.352   0.911
 2147SOL     OW 6455   2.083   3.176   1.844
 2147SOL    HW1 6456   2.018   3.103   1.823
 2147SOL    HW2 6457   2.087   3.190   1.942
 2148SOL     OW 6458   1.941   3.102   0.653
 2148SOL    HW1 6459   1.940   3.055   0.741
 2148SOL    HW2 6460   2.023   3.074   0.602
 2149SOL     OW 6461   2.534   3.253   1.624
 2149SOL    HW1 6462   2.456   3.203   1.662
 2149SOL    HW2 6463   2.531   3.348   1.655
 2150SOL     OW 6464   3.686   2.054   1.227
 2150SOL    HW1 6465   3.682   1.964   1.271
 2150SOL    HW2 6466   3.689   2.043   1.128
 2151SOL     OW 6467   2.290   2.286   0.520
 2151SOL    HW1 6468   2.320   2.214   0.458
 2151SOL    HW2 6469   2.251   2.246   0.603
 2152SOL     OW 6470   3.567   3.349   1.104
 2152SOL    HW1 6471   3.474   3.324   1.077
 2152SOL    HW2 6472   3.593   3.299   1.186
 2153SOL     OW 6473   2.179   2.409   1.280
 2153SOL    HW1 6474   2.217   2.350   1.352
 2153SOL    HW2 6475   2.219   2.383   1.192
 2154SOL     OW 6476   2.674   3.448   0.687
 2154SOL    HW1 6477   2.706   3.458   0.593
 2154SOL    HW2 6478   2.595   3.386   0.689
 2155SOL     OW 6479   3.286   2.076   1.112
 2155SOL    HW1 6480   3.338   2.011   1.167
 2155SOL    HW2 6481   3.237   2.139   1.173
 2156SOL     OW 6482   2.863   1.896   1.154
 2156SOL    HW1 6483   2.800   1.824   1.123
 2156SOL    HW2 6484   2.956   1.860   1.154
 2157SOL     OW 6485   2.632   3.192   0.301
 2157SOL    HW1 6486   2.586   3.105   0.318
 2157SOL    HW2 6487   2.723   3.189   0.342
 2158SOL     OW 6488   2.480   3.429   1.284
 2158SOL    HW1 6489   2.475   3.511   1.341
 2158SOL    HW2 6490   2.569   3.426   1.239
 2159SOL     OW 6491   3.214   1.914   0.168
 2159SOL    HW1 6492   3.249   1.873   0.084
 2159SOL    HW2 6493   3.124   1.876   0.188
 2160SOL     OW 6494   3.162   2.315   0.691
 2160SOL    HW1 6495   3.103   2.395   0.695
 2160SOL    HW2 6496   3.177   2.280   0.784
 2161SOL     OW 6497   3.455   2.083   0.882
 2161SOL    HW1 6498   3.371   2.082   0.936
 2161SOL    HW2 6499   3.457   2.166   0.826
 2162SOL     OW 6500   1.901   2.939   0.300
 2162SOL    HW1 6501   2.000   2.928   0.291
 2162SOL    HW2 6502   1.861   2.853   0.332
 2163SOL     OW 6503   2.737   3.508   0.337
 2163SOL    HW1 6504   2.660   3.473   0.283
 2163SOL    HW2 6505   2.705   3.579   0.399
 2164SOL     OW 6506   2.087   2.137   2.858
 2164SOL    HW1 6507   2.122   2.120   2.950
 2164SOL    HW2 6508   1.999   2.092   2.846
 2165SOL     OW 6509   1.881   2.230   2.509
 2165SOL    HW1 6510   1.799   2.273   2.548
 2165SOL    HW2 6511   1.853   2.157   2.446
 2166SOL     OW 6512   2.431   3.137   3.027
 2166SOL    HW1 6513   2.338   3.130   2.990
 2166SOL    HW2 6514   2.442   3.226   3.071
 2167SOL     OW 6515   3.417   3.373   2.565
 2167SOL    HW1 6516   3.360   3.357   2.646
 2167SOL    HW2 6517   3.358   3.383   2.485
 2168SOL     OW 6518   2.997   2.565   2.579
 2168SOL    HW1 6519   3.054   2.643   2.554
 2168SOL    HW2 6520   2.937   2.591   2.655
 2169SOL     OW 6521   3.617   2.469   2.093
 2169SOL    HW1 6522   3.605   2.456   1.994
 2169SOL    HW2 6523   3.587   2.388   2.142
 2170SOL     OW 6524   2.630   3.006   2.885
 2170SOL    HW1 6525   2.552   3.023   2.945
 2170SOL    HW2 6526   2.664   3.093   2.849
 2171SOL     OW 6527   2.712   2.660   3.685
 2171SOL    HW1 6528   2.708   2.736   3.750
 2171SOL    HW2 6529   2.734   2.696   3.594
 2172SOL     OW 6530   2.547   2.874   2.527
 2172SOL    HW1 6531   2.616   2.858   2.597
 2172SOL    HW2 6532   2.474   2.931   2.565
 2173SOL     OW 6533   2.548   3.023   3.665
 2173SOL    HW1 6534   2.608   3.102   3.679
 2173SOL    HW2 6535   2.462   3.054   3.624
 2174SOL     OW 6536   2.197   3.297   2.923
 2174SOL    HW1 6537   2.119   3.266   2.870
 2174SOL    HW2 6538   2.255   3.355   2.866
 2175SOL     OW 6539   3.322   3.367   3.201
 2175SOL    HW1 6540   3.346   3.461   3.227
 2175SOL    HW2 6541   3.306   3.313   3.283
 2176SOL     OW 6542   2.300   2.254   3.361
 2176SOL    HW1 6543   2.382   2.198   3.370
 2176SOL    HW2 6544   2.219   2.196   3.365
 2177SOL     OW 6545   3.465   2.309   2.599
 2177SOL    HW1 6546   3.391   2.355   2.549
 2177SOL    HW2 6547   3.516   2.377   2.652
 2178SOL     OW 6548   2.093   3.575   2.345
 2178SOL    HW1 6549   2.127   3.652   2.399
 2178SOL    HW2 6550   2.137   3.575   2.255
 2179SOL     OW 6551   2.989   3.203   3.552
 2179SOL    HW1 6552   3.036   3.203   3.640
 2179SOL    HW2 6553   2.941   3.116   3.541
 2180SOL     OW 6554   2.092   3.296   2.400
 2180SOL    HW1 6555   2.066   3.392   2.400
 2180SOL    HW2 6556   2.021   3.242   2.445
 2181SOL     OW 6557   2.102   2.953   2.748
 2181SOL    HW1 6558   2.116   2.869   2.800
 2181SOL    HW2 6559   2.047   3.017   2.803
 2182SOL     OW 6560   2.482   3.648   3.301
 2182SOL    HW1 6561   2.390   3.631   3.336
 2182SOL    HW2 6562   2.510   3.740   3.327
 2183SOL     OW 6563   2.468   2.826   1.985
 2183SOL    HW1 6564   2.475   2.910   1.931
 2183SOL    HW2 6565   2.514   2.839   2.073
 2184SOL     OW 6566   3.456   1.976   3.342
 2184SOL    HW1 6567   3.438   2.043   3.270
 2184SOL    HW2 6568   3.453   2.022   3.431
 2185SOL     OW 6569   1.984   2.505   2.425
 2185SOL    HW1 6570   1.939   2.417   2.442
 2185SOL    HW2 6571   1.983   2.559   2.509
 2186SOL     OW 6572   3.704   3.629   2.221
 2186SOL    HW1 6573   3.758   3.600   2.301
 2186SOL    HW2 6574   3.734   3.719   2.192
 2187SOL     OW 6575   1.889   3.458   1.979
 2187SOL    HW1 6576   1.870   3.362   2.000
 2187SOL    HW2 6577   1.856   3.516   2.054
 2188SOL     OW 6578   3.551   2.784   2.474
 2188SOL    HW1 6579   3.646   2.755   2.482
 2188SOL    HW2 6580   3.543   2.849   2.399
 2189SOL     OW 6581   3.503   2.970   2.294
 2189SOL    HW1 6582   3.589   2.972   2.242
 2189SOL    HW2 6583   3.517   3.017   2.382
 2190SOL     OW 6584   1.975   2.599   3.459
 2190SOL    HW1 6585   2.063   2.586   3.504
 2190SOL    HW2 6586   1.962   2.696   3.437
 2191SOL     OW 6587   2.475   3.227   2.588
 2191SOL    HW1 6588   2.426   3.140   2.597
 2191SOL    HW2 6589   2.452   3.270   2.501
 2192SOL     OW 6590   3.155   3.090   3.285
 2192SOL    HW1 6591   3.192   3.017   3.227
 2192SOL    HW2 6592   3.207   3.095   3.370
 2193SOL     OW 6593   2.671   1.866   2.364
 2193SOL    HW1 6594   2.711   1.957   2.355
 2193SOL    HW2 6595   2.571   1.874   2.370
 2194SOL     OW 6596   2.059   2.838   3.126
 2194SOL    HW1 6597   2.148   2.793   3.112
 2194SOL    HW2 6598   1.986   2.773   3.107
 2195SOL     OW 6599   3.387   2.861   2.052
 2195SOL    HW1 6600   3.324   2.785   2.065
 2195SOL    HW2 6601   3.435   2.879   2.138
 2196SOL     OW 6602   3.049   3.654   3.478
 2196SOL    HW1 6603   3.073   3.714   3.402
 2196SOL    HW2 6604   3.056   3.559   3.448
 2197SOL     OW 6605   2.179   2.113   3.663
 2197SOL    HW1 6606   2.250   2.184   3.669
 2197SOL    HW2 6607   2.091   2.152   3.691
 2198SOL     OW 6608   3.328   3.279   2.815
 2198SOL    HW1 6609   3.269   3.285   2.895
 2198SOL    HW2 6610   3.313   3.191   2.769
 2199SOL     OW 6611   3.529   3.576   2.434
 2199SOL    HW1 6612   3.488   3.553   2.346
 2199SOL    HW2 6613   3.511   3.502   2.499
 2200SOL     OW 6614   3.143   2.207   2.806
 2200SOL    HW1 6615   3.057   2.157   2.793
 2200SOL    HW2 6616   3.205   2.153   2.862
 2201SOL     OW 6617   3.438   3.524   2.169
 2201SOL    HW1 6618   3.527   3.570   2.172
 2201SOL    HW2 6619   3.417   3.500   2.074
 2202SOL     OW 6620   2.669   2.467   3.327
 2202SOL    HW1 6621   2.622   2.464   3.416
 2202SOL    HW2 6622   2.618   2.412   3.261
 2203SOL     OW 6623   3.256   2.331   3.536
 2203SOL    HW1 6624   3.236   2.374   3.624
 2203SOL    HW2 6625   3.334   2.269   3.545
 2204SOL     OW 6626   2.835   2.752   3.434
 2204SOL    HW1 6627   2.881   2.668   3.405
 2204SOL    HW2 6628   2.779   2.786   3.359
 2205SOL     OW 6629   2.853   2.272   3.104
 2205SOL    HW1 6630   2.776   2.306   3.158
 2205SOL    HW2 6631   2.819   2.221   3.025
 2206SOL     OW 6632   2.903   2.563   2.291
 2206SOL    HW1 6633   2.929   2.559   2.387
 2206SOL    HW2 6634   2.818   2.512   2.277
 2207SOL     OW 6635   1.938   2.673   2.651
 2207SOL    HW1 6636   2.037   2.661   2.660
 2207SOL    HW2 6637   1.914   2.768   2.672
 2208SOL     OW 6638   1.992   3.683   3.433
 2208SOL    HW1 6639   1.982   3.668   3.532
 2208SOL    HW2 6640   1.906   3.719   3.397
 2209SOL     OW 6641   2.727   2.210   2.057
 2209SOL    HW1 6642   2.786   2.273   2.008
 2209SOL    HW2 6643   2.746   2.116   2.028
 2210SOL     OW 6644   3.581   2.447   3.693
 2210SOL    HW1 6645   3.555   2.536   3.657
 2210SOL    HW2 6646   3.579   2.379   3.620
 2211SOL     OW 6647   3.224   3.006   2.407
 2211SOL    HW1 6648   3.307   2.977   2.359
 2211SOL    HW2 6649   3.175   3.073   2.351
 2212SOL     OW 6650   2.412   2.058   2.747
 2212SOL    HW1 6651   2.407   2.053   2.847
 2212SOL    HW2 6652   2.414   2.154   2.718
 2213SOL     OW 6653   2.870   3.318   2.339
 2213SOL    HW1 6654   2.824   3.390   2.287
 2213SOL    HW2 6655   2.866   3.338   2.437
 2214SOL     OW 6656   2.213   3.663   2.715
 2214SOL    HW1 6657   2.263   3.577   2.721
 2214SOL    HW2 6658   2.278   3.740   2.712
 2215SOL     OW 6659   3.657   2.928   2.735
 2215SOL    HW1 6660   3.595   2.913   2.659
 2215SOL    HW2 6661   3.605   2.939   2.820
 2216SOL     OW 6662   3.089   3.412   3.368
 2216SOL    HW1 6663   3.095   3.335   3.432
 2216SOL    HW2 6664   3.037   3.386   3.288
 2217SOL     OW 6665   2.183   2.805   2.104
 2217SOL    HW1 6666   2.265   2.844   2.062
 2217SOL    HW2 6667   2.156   2.723   2.055
 2218SOL     OW 6668   3.320   2.597   2.590
 2218SOL    HW1 6669   3.315   2.532   2.665
 2218SOL    HW2 6670   3.400   2.656   2.603
 2219SOL     OW 6671   2.323   3.128   3.589
 2219SOL    HW1 6672   2.273   3.129   3.503
 2219SOL    HW2 6673   2.260   3.110   3.665
 2220SOL     OW 6674   2.973   3.638   2.099
 2220SOL    HW1 6675   2.913   3.576   2.149
 2220SOL    HW2 6676   3.004   3.594   2.014
 2221SOL     OW 6677   2.064   2.147   3.360
 2221SOL    HW1 6678   1.984   2.207   3.347
 2221SOL    HW2 6679   2.054   2.098   3.446
 2222SOL     OW 6680   3.494   3.239   1.943
 2222SOL    HW1 6681   3.462   3.333   1.933
 2222SOL    HW2 6682   3.418   3.176   1.931
 2223SOL     OW 6683   2.326   3.605   2.185
 2223SOL    HW1 6684   2.359   3.644   2.271
 2223SOL    HW2 6685   2.402   3.598   2.120
 2224SOL     OW 6686   3.262   1.969   2.288
 2224SOL    HW1 6687   3.238   1.932   2.198
 2224SOL    HW2 6688   3.361   1.985   2.292
 2225SOL     OW 6689   2.111   3.647   3.103
 2225SOL    HW1 6690   2.168   3.582   3.153
 2225SOL    HW2 6691   2.095   3.614   3.010
 2226SOL     OW 6692   2.802   3.560   2.766
 2226SOL    HW1 6693   2.882   3.503   2.787
 2226SOL    HW2 6694   2.753   3.520   2.689
 2227SOL     OW 6695   3.409   2.084   3.591
 2227SOL    HW1 6696   3.404   2.121   3.683
 2227SOL    HW2 6697   3.337   2.015   3.579
 2228SOL     OW 6698   2.476   1.984   1.979
 2228SOL    HW1 6699   2.574   1.962   1.986
 2228SOL    HW2 6700   2.445   1.967   1.886
 2229SOL     OW 6701   2.643   2.126   3.611
 2229SOL    HW1 6702   2.710   2.065   3.654
 2229SOL    HW2 6703   2.570   2.145   3.676
 2230SOL     OW 6704   2.750   3.376   3.057
 2230SOL    HW1 6705   2.727   3.351   2.963
 2230SOL    HW2 6706   2.811   3.307   3.096
 2231SOL     OW 6707   3.213   2.452   3.295
 2231SOL    HW1 6708   3.241   2.409   3.380
 2231SOL    HW2 6709   3.238   2.548   3.296
 2232SOL     OW 6710   2.665   3.264   2.786
 2232SOL    HW1 6711   2.755   3.278   2.744
 2232SOL    HW2 6712   2.594   3.266   2.715
 2233SOL     OW 6713   2.401   1.926   2.374
 2233SOL    HW1 6714   2.320   1.927   2.432
 2233SOL    HW2 6715   2.404   2.009   2.319
 2234SOL     OW 6716   3.296   3.050   1.903
 2234SOL    HW1 6717   3.328   2.974   1.960
 2234SOL    HW2 6718   3.204   3.077   1.933
 2235SOL     OW 6719   2.159   1.897   2.033
 2235SOL    HW1 6720   2.208   1.981   2.012
 2235SOL    HW2 6721   2.221   1.832   2.078
 2236SOL     OW 6722   2.797   2.098   2.342
 2236SOL    HW1 6723   2.749   2.139   2.264
 2236SOL    HW2 6724   2.896   2.096   2.323
 2237SOL     OW 6725   2.938   2.545   3.326
 2237SOL    HW1 6726   2.858   2.484   3.329
 2237SOL    HW2 6727   3.019   2.492   3.302
 2238SOL     OW 6728   3.089   3.432   2.655
 2238SOL    HW1 6729   3.110   3.506   2.590
 2238SOL    HW2 6730   3.157   3.432   2.728
 2239SOL     OW 6731   2.321   3.014   2.603
 2239SOL    HW1 6732   2.250   2.987   2.668
 2239SOL    HW2 6733   2.295   2.986   2.510
 2240SOL     OW 6734   3.133   3.659   2.453
 2240SOL    HW1 6735   3.177   3.723   2.389
 2240SOL    HW2 6736   3.083   3.711   2.523
 2241SOL     OW 6737   2.894   2.411   1.878
 2241SOL    HW1 6738   2.853   2.493   1.839
 2241SOL    HW2 6739   2.958   2.437   1.951
 2242SOL     OW 6740   1.940   2.418   3.248
 2242SOL    HW1 6741   2.032   2.417   3.207
 2242SOL    HW2 6742   1.934   2.492   3.315
 2243SOL     OW 6743   2.423   2.084   3.009
 2243SOL    HW1 6744   2.461   2.000   3.046
 2243SOL    HW2 6745   2.335   2.103   3.053
 2244SOL     OW 6746   2.879   1.901   2.615
 2244SOL    HW1 6747   2.807   1.906   2.546
 2244SOL    HW2 6748   2.855   1.832   2.684
 2245SOL     OW 6749   3.291   3.035   2.729
 2245SOL    HW1 6750   3.236   2.951   2.722
 2245SOL    HW2 6751   3.317   3.064   2.637
 2246SOL     OW 6752   3.328   2.452   2.854
 2246SOL    HW1 6753   3.298   2.357   2.861
 2246SOL    HW2 6754   3.401   2.468   2.920
 2247SOL     OW 6755   3.719   2.695   2.239
 2247SOL    HW1 6756   3.761   2.631   2.303
 2247SOL    HW2 6757   3.681   2.644   2.161
 2248SOL     OW 6758   2.350   3.247   2.036
 2248SOL    HW1 6759   2.263   3.232   2.083
 2248SOL    HW2 6760   2.333   3.273   1.941
 2249SOL     OW 6761   3.526   3.142   2.519
 2249SOL    HW1 6762   3.625   3.150   2.533
 2249SOL    HW2 6763   3.481   3.226   2.550
 2250SOL     OW 6764   3.252   2.437   1.940
 2250SOL    HW1 6765   3.198   2.416   2.021
 2250SOL    HW2 6766   3.343   2.396   1.949
 2251SOL     OW 6767   2.389   2.118   2.190
 2251SOL    HW1 6768   2.416   2.059   2.115
 2251SOL    HW2 6769   2.389   2.213   2.159
 2252SOL     OW 6770   3.616   3.085   3.450
 2252SOL    HW1 6771   3.707   3.046   3.437
 2252SOL    HW2 6772   3.624   3.181   3.474
 2253SOL     OW 6773   2.926   3.209   3.202
 2253SOL    HW1 6774   2.846   3.186   3.257
 2253SOL    HW2 6775   3.009   3.183   3.251
 2254SOL     OW 6776   3.454   3.491   3.487
 2254SOL    HW1 6777   3.481   3.525   3.397
 2254SOL    HW2 6778   3.533   3.453   3.533
 2255SOL     OW 6779   2.973   3.057   2.962
 2255SOL    HW1 6780   2.933   3.101   3.043
 2255SOL    HW2 6781   2.932   3.094   2.879
 2256SOL     OW 6782   3.500   2.961   2.941
 2256SOL    HW1 6783   3.505   3.042   3.000
 2256SOL    HW2 6784   3.414   2.963   2.890
 2257SOL     OW 6785   2.777   1.951   3.264
 2257SOL    HW1 6786   2.802   1.931   3.169
 2257SOL    HW2 6787   2.849   2.007   3.306
 2258SOL     OW 6788   2.842   2.978   3.581
 2258SOL    HW1 6789   2.743   2.984   3.591
 2258SOL    HW2 6790   2.865   2.898   3.525
 2259SOL     OW 6791   2.567   2.912   2.230
 2259SOL    HW1 6792   2.553   2.919   2.329
 2259SOL    HW2 6793   2.651   2.861   2.212
 2260SOL     OW 6794   2.272   2.675   3.113
 2260SOL    HW1 6795   2.358   2.687   3.163
 2260SOL    HW2 6796   2.230   2.588   3.140
 2261SOL     OW 6797   3.136   2.248   3.124
 2261SOL    HW1 6798   3.157   2.322   3.188
 2261SOL    HW2 6799   3.047   2.265   3.081
 2262SOL     OW 6800   1.926   3.426   3.193
 2262SOL    HW1 6801   1.880   3.508   3.159
 2262SOL    HW2 6802   2.024   3.445   3.202
 2263SOL     OW 6803   2.229   2.962   2.363
 2263SOL    HW1 6804   2.222   3.045   2.307
 2263SOL    HW2 6805   2.233   2.882   2.303
 2264SOL     OW 6806   3.114   3.210   2.250
 2264SOL    HW1 6807   3.164   3.287   2.290
 2264SOL    HW2 6808   3.019   3.212   2.282
 2265SOL     OW 6809   3.134   3.307   3.004
 2265SOL    HW1 6810   3.181   3.320   3.091
 2265SOL    HW2 6811   3.068   3.233   3.013
 2266SOL     OW 6812   3.444   2.501   2.334
 2266SOL    HW1 6813   3.413   2.562   2.407
 2266SOL    HW2 6814   3.494   2.553   2.265
 2267SOL     OW 6815   2.216   3.372   3.191
 2267SOL    HW1 6816   2.195   3.328   3.104
 2267SOL    HW2 6817   2.313   3.398   3.194
 2268SOL     OW 6818   2.264   2.613   3.460
 2268SOL    HW1 6819   2.332   2.668   3.413
 2268SOL    HW2 6820   2.304   2.525   3.487
 2269SOL     OW 6821   3.449   2.641   3.532
 2269SOL    HW1 6822   3.357   2.679   3.527
 2269SOL    HW2 6823   3.509   2.688   3.467
 2270SOL     OW 6824   2.875   1.967   3.632
 2270SOL    HW1 6825   2.881   2.052   3.580
 2270SOL    HW2 6826   2.907   1.891   3.575
 2271SOL     OW 6827   2.366   1.912   3.602
 2271SOL    HW1 6828   2.324   1.855   3.532
 2271SOL    HW2 6829   2.300   1.981   3.634
 2272SOL     OW 6830   2.435   2.732   2.891
 2272SOL    HW1 6831   2.479   2.821   2.882
 2272SOL    HW2 6832   2.372   2.732   2.968
 2273SOL     OW 6833   3.222   2.724   2.907
 2273SOL    HW1 6834   3.147   2.724   2.841
 2273SOL    HW2 6835   3.259   2.632   2.916
 2274SOL     OW 6836   3.071   2.387   2.137
 2274SOL    HW1 6837   3.084   2.303   2.191
 2274SOL    HW2 6838   3.042   2.461   2.197
 2275SOL     OW 6839   2.169   2.075   3.093
 2275SOL    HW1 6840   2.146   2.112   3.183
 2275SOL    HW2 6841   2.139   1.980   3.087
 2276SOL     OW 6842   1.899   3.172   3.144
 2276SOL    HW1 6843   1.952   3.123   3.212
 2276SOL    HW2 6844   1.921   3.270   3.149
 2277SOL     OW 6845   2.594   2.496   2.926
 2277SOL    HW1 6846   2.653   2.470   2.850
 2277SOL    HW2 6847   2.566   2.592   2.915
 2278SOL     OW 6848   3.590   2.797   3.716
 2278SOL    HW1 6849   3.544   2.790   3.627
 2278SOL    HW2 6850   3.528   2.841   3.782
 2279SOL     OW 6851   2.169   1.925   2.480
 2279SOL    HW1 6852   2.158   2.019   2.513
 2279SOL    HW2 6853   2.164   1.862   2.557
 2280SOL     OW 6854   3.484   2.229   2.236
 2280SOL    HW1 6855   3.486   2.153   2.300
 2280SOL    HW2 6856   3.436   2.306   2.276
 2281SOL     OW 6857   2.885   2.628   2.828
 2281SOL    HW1 6858   2.900   2.649   2.924
 2281SOL    HW2 6859   2.855   2.533   2.819
 2282SOL     OW 6860   2.842   3.435   3.562
 2282SOL    HW1 6861   2.822   3.479   3.474
 2282SOL    HW2 6862   2.881   3.344   3.546
 2283SOL     OW 6863   3.721   3.380   3.467
 2283SOL    HW1 6864   3.735   3.407   3.372
 2283SOL    HW2 6865   3.804   3.402   3.520
 2284SOL     OW 6866   2.212   2.760   3.666
 2284SOL    HW1 6867   2.288   2.804   3.714
 2284SOL    HW2 6868   2.247   2.713   3.584
 2285SOL     OW 6869   3.402   2.136   1.987
 2285SOL    HW1 6870   3.341   2.061   2.010
 2285SOL    HW2 6871   3.424   2.188   2.070
 2286SOL     OW 6872   3.165   2.700   1.904
 2286SOL    HW1 6873   3.199   2.607   1.919
 2286SOL    HW2 6874   3.183   2.727   1.809
 2287SOL     OW 6875   2.930   3.195   2.711
 2287SOL    HW1 6876   2.937   3.111   2.656
 2287SOL    HW2 6877   2.992   3.264   2.675
 2288SOL     OW 6878   2.181   2.672   2.811
 2288SOL    HW1 6879   2.274   2.708   2.816
 2288SOL    HW2 6880   2.175   2.587   2.863
 2289SOL     OW 6881   2.201   2.371   2.868
 2289SOL    HW1 6882   2.149   2.288   2.851
 2289SOL    HW2 6883   2.278   2.376   2.804
 2290SOL     OW 6884   3.000   2.242   3.540
 2290SOL    HW1 6885   2.955   2.305   3.604
 2290SOL    HW2 6886   3.093   2.273   3.523
 2291SOL     OW 6887   3.022   2.069   3.339
 2291SOL    HW1 6888   3.022   2.133   3.416
 2291SOL    HW2 6889   3.050   2.117   3.256
 2292SOL     OW 6890   1.870   3.188   2.062
 2292SOL    HW1 6891   1.777   3.209   2.031
 2292SOL    HW2 6892   1.880   3.089   2.075
 2293SOL     OW 6893   1.950   3.663   2.789
 2293SOL    HW1 6894   1.908   3.577   2.762
 2293SOL    HW2 6895   2.044   3.666   2.755
 2294SOL     OW 6896   2.366   3.430   2.772
 2294SOL    HW1 6897   2.432   3.504   2.781
 2294SOL    HW2 6898   2.410   3.351   2.730
 2295SOL     OW 6899   2.864   2.658   3.100
 2295SOL    HW1 6900   2.905   2.626   3.186
 2295SOL    HW2 6901   2.768   2.631   3.097
 2296SOL     OW 6902   1.902   2.406   2.976
 2296SOL    HW1 6903   1.987   2.373   2.935
 2296SOL    HW2 6904   1.915   2.421   3.074
 2297SOL     OW 6905   2.051   2.382   3.584
 2297SOL    HW1 6906   2.110   2.342   3.514
 2297SOL    HW2 6907   1.993   2.453   3.543
 2298SOL     OW 6908   3.231   2.812   3.522
 2298SOL    HW1 6909   3.270   2.901   3.542
 2298SOL    HW2 6910   3.241   2.792   3.425
 2299SOL     OW 6911   2.677   2.434   2.187
 2299SOL    HW1 6912   2.684   2.345   2.141
 2299SOL    HW2 6913   2.583   2.468   2.179
 2300SOL     OW 6914   3.519   2.466   3.068
 2300SOL    HW1 6915   3.481   2.397   3.130
 2300SOL    HW2 6916   3.601   2.430   3.024
 2301SOL     OW 6917   2.114   3.426   3.606
 2301SOL    HW1 6918   2.084   3.483   3.682
 2301SOL    HW2 6919   2.107   3.329   3.632
 2302SOL     OW 6920   2.533   2.326   3.131
 2302SOL    HW1 6921   2.499   2.237   3.101
 2302SOL    HW2 6922   2.559   2.380   3.051
 2303SOL     OW 6923   2.792   3.540   3.327
 2303SOL    HW1 6924   2.768   3.522   3.232
 2303SOL    HW2 6925   2.822   3.634   3.337
 2304SOL     OW 6926   2.021   2.999   3.328
 2304SOL    HW1 6927   2.043   2.938   3.404
 2304SOL    HW2 6928   2.031   2.950   3.242
 2305SOL     OW 6929   3.209   2.921   3.096
 2305SOL    HW1 6930   3.233   2.858   3.022
 2305SOL    HW2 6931   3.119   2.961   3.078
 2306SOL     OW 6932   3.164   2.717   2.171
 2306SOL    HW1 6933   3.078   2.686   2.213
 2306SOL    HW2 6934   3.160   2.703   2.072
 2307SOL     OW 6935   3.621   3.609   3.016
 2307SOL    HW1 6936   3.682   3.639   2.943
 2307SOL    HW2 6937   3.583   3.520   2.994
 2308SOL     OW 6938   3.114   3.593   2.990
 2308SOL    HW1 6939   3.198   3.598   2.936
 2308SOL    HW2 6940   3.091   3.497   3.008
 2309SOL     OW 6941   1.945   3.120   2.884
 2309SOL    HW1 6942   1.940   3.119   2.984
 2309SOL    HW2 6943   1.862   3.079   2.846
 2310SOL     OW 6944   2.550   3.524   3.578
 2310SOL    HW1 6945   2.494   3.605   3.587
 2310SOL    HW2 6946   2.602   3.528   3.492
 2311SOL     OW 6947   3.588   1.997   2.385
 2311SOL    HW1 6948   3.661   1.980   2.318
 2311SOL    HW2 6949   3.557   1.910   2.423
 2312SOL     OW 6950   3.250   3.435   2.339
 2312SOL    HW1 6951   3.317   3.447   2.265
 2312SOL    HW2 6952   3.210   3.524   2.362
 2313SOL     OW 6953   1.992   3.656   3.713
 2313SOL    HW1 6954   1.951   3.582   3.766
 2313SOL    HW2 6955   2.056   3.707   3.771
 2314SOL     OW 6956   3.142   2.789   2.534
 2314SOL    HW1 6957   3.202   2.708   2.536
 2314SOL    HW2 6958   3.182   2.858   2.474
 2315SOL     OW 6959   2.692   3.135   3.284
 2315SOL    HW1 6960   2.687   3.168   3.379
 2315SOL    HW2 6961   2.606   3.154   3.238
 2316SOL     OW 6962   2.534   3.478   2.016
 2316SOL    HW1 6963   2.543   3.488   1.917
 2316SOL    HW2 6964   2.494   3.389   2.037
 2317SOL     OW 6965   3.512   3.582   3.256
 2317SOL    HW1 6966   3.565   3.592   3.172
 2317SOL    HW2 6967   3.485   3.672   3.290
 2318SOL     OW 6968   3.703   2.037   2.825
 2318SOL    HW1 6969   3.742   1.952   2.789
 2318SOL    HW2 6970   3.605   2.039   2.806
 2319SOL     OW 6971   2.125   2.188   2.582
 2319SOL    HW1 6972   2.046   2.239   2.548
 2319SOL    HW2 6973   2.116   2.173   2.680
 2320SOL     OW 6974   3.056   3.474   1.893
 2320SOL    HW1 6975   3.062   3.381   1.930
 2320SOL    HW2 6976   2.997   3.474   1.813
 2321SOL     OW 6977   2.684   2.864   3.234
 2321SOL    HW1 6978   2.724   2.863   3.142
 2321SOL    HW2 6979   2.694   2.956   3.274
 2322SOL     OW 6980   2.778   2.772   2.153
 2322SOL    HW1 6981   2.841   2.810   2.085
 2322SOL    HW2 6982   2.818   2.689   2.192
 2323SOL     OW 6983   3.366   3.469   1.906
 2323SOL    HW1 6984   3.274   3.506   1.913
 2323SOL    HW2 6985   3.404   3.489   1.816
 2324SOL     OW 6986   2.234   3.150   3.352
 2324SOL    HW1 6987   2.221   3.243   3.318
 2324SOL    HW2 6988   2.150   3.098   3.339
 2325SOL     OW 6989   3.476   3.154   3.151
 2325SOL    HW1 6990   3.536   3.157   3.231
 2325SOL    HW2 6991   3.401   3.218   3.164
 2326SOL     OW 6992   2.901   2.960   2.558
 2326SOL    HW1 6993   2.831   2.913   2.612
 2326SOL    HW2 6994   2.960   2.892   2.515
 2327SOL     OW 6995   2.876   2.098   2.833
 2327SOL    HW1 6996   2.868   2.062   2.740
 2327SOL    HW2 6997   2.874   2.022   2.898
 2328SOL     OW 6998   2.452   3.349   2.353
 2328SOL    HW1 6999   2.494   3.291   2.283
 2328SOL    HW2 7000   2.408   3.428   2.309
 2329SOL     OW 7001   3.571   2.247   3.243
 2329SOL    HW1 7002   3.644   2.316   3.247
 2329SOL    HW2 7003   3.599   2.172   3.184
 2330SOL     OW 7004   2.117   3.210   2.152
 2330SOL    HW1 7005   2.021   3.211   2.125
 2330SOL    HW2 7006   2.129   3.263   2.236
 2331SOL     OW 7007   1.967   2.875   3.588
 2331SOL    HW1 7008   1.890   2.842   3.642
 2331SOL    HW2 7009   2.052   2.845   3.630
 2332SOL     OW 7010   2.534   2.065   3.351
 2332SOL    HW1 7011   2.624   2.049   3.311
 2332SOL    HW2 7012   2.542   2.070   3.450
 2333SOL     OW 7013   1.937   2.207   1.895
 2333SOL    HW1 7014   1.845   2.179   1.866
 2333SOL    HW2 7015   1.968   2.284   1.839
 2334SOL     OW 7016   3.302   2.718   3.260
 2334SOL    HW1 7017   3.245   2.770   3.197
 2334SOL    HW2 7018   3.398   2.730   3.236
 2335SOL     OW 7019   1.934   2.028   2.180
 2335SOL    HW1 7020   1.917   2.111   2.126
 2335SOL    HW2 7021   2.024   1.991   2.158
 2336SOL     OW 7022   3.045   3.197   1.981
 2336SOL    HW1 7023   2.946   3.186   1.983
 2336SOL    HW2 7024   3.079   3.212   2.074
 2337SOL     OW 7025   2.475   2.704   3.293
 2337SOL    HW1 7026   2.531   2.785   3.276
 2337SOL    HW2 7027   2.534   2.624   3.296
 2338SOL     OW 7028   3.355   3.629   2.821
 2338SOL    HW1 7029   3.388   3.693   2.752
 2338SOL    HW2 7030   3.421   3.623   2.896
 2339SOL     OW 7031   2.578   2.427   3.570
 2339SOL    HW1 7032   2.597   2.492   3.644
 2339SOL    HW2 7033   2.638   2.347   3.579
 2340SOL     OW 7034   3.312   3.082   3.495
 2340SOL    HW1 7035   3.303   3.072   3.594
 2340SOL    HW2 7036   3.408   3.075   3.469
 2341SOL     OW 7037   2.252   3.603   3.422
 2341SOL    HW1 7038   2.161   3.644   3.420
 2341SOL    HW2 7039   2.245   3.509   3.454
 2342SOL     OW 7040   3.536   2.745   3.116
 2342SOL    HW1 7041   3.509   2.656   3.079
 2342SOL    HW2 7042   3.537   2.813   3.043
 2343SOL     OW 7043   3.087   2.187   2.311
 2343SOL    HW1 7044   3.152   2.113   2.300
 2343SOL    HW2 7045   3.107   2.237   2.395
 2344SOL     OW 7046   2.456   2.607   2.514
 2344SOL    HW1 7047   2.506   2.692   2.495
 2344SOL    HW2 7048   2.368   2.609   2.466
 2345SOL     OW 7049   3.639   2.204   3.504
 2345SOL    HW1 7050   3.622   2.235   3.410
 2345SOL    HW2 7051   3.555   2.167   3.542
 2346SOL     OW 7052   3.592   2.796   3.379
 2346SOL    HW1 7053   3.630   2.887   3.394
 2346SOL    HW2 7054   3.584   2.779   3.280
 2347SOL     OW 7055   2.721   3.236   1.878
 2347SOL    HW1 7056   2.675   3.251   1.966
 2347SOL    HW2 7057   2.765   3.321   1.848
 2348SOL     OW 7058   2.523   3.652   2.815
 2348SOL    HW1 7059   2.477   3.740   2.802
 2348SOL    HW2 7060   2.622   3.664   2.808
 2349SOL     OW 7061   2.721   2.818   2.723
 2349SOL    HW1 7062   2.775   2.749   2.771
 2349SOL    HW2 7063   2.689   2.887   2.789
 2350SOL     OW 7064   2.945   2.846   1.949
 2350SOL    HW1 7065   2.922   2.899   1.867
 2350SOL    HW2 7066   3.026   2.790   1.930
 2351SOL     OW 7067   3.723   3.431   2.713
 2351SOL    HW1 7068   3.652   3.419   2.643
 2351SOL    HW2 7069   3.724   3.352   2.773
 2352SOL     OW 7070   2.083   3.176   3.706
 2352SOL    HW1 7071   2.018   3.103   3.685
 2352SOL    HW2 7072   2.087   3.190   3.804
 2353SOL     OW 7073   1.941   3.102   2.515
 2353SOL    HW1 7074   1.940   3.055   2.603
 2353SOL    HW2 7075   2.023   3.074   2.464
 2354SOL     OW 7076   2.534   3.253   3.486
 2354SOL    HW1 7077   2.456   3.203   3.524
 2354SOL    HW2 7078   2.531   3.348   3.517
 2355SOL     OW 7079   3.686   2.054   3.089
 2355SOL    HW1 7080   3.682   1.964   3.133
 2355SOL    HW2 7081   3.689   2.043   2.990
 2356SOL     OW 7082   3.567   3.349   2.966
 2356SOL    HW1 7083   3.474   3.324   2.939
 2356SOL    HW2 7084   3.593   3.299   3.048
 2357SOL     OW 7085   2.179   2.409   3.142
 2357SOL    HW1 7086   2.217   2.350   3.214
 2357SOL    HW2 7087   2.219   2.383   3.054
 2358SOL     OW 7088   2.674   3.448   2.549
 2358SOL    HW1 7089   2.706   3.458   2.455
 2358SOL    HW2 7090   2.595   3.386   2.551
 2359SOL     OW 7091   3.286   2.076   2.974
 2359SOL    HW1 7092   3.338   2.011   3.029
 2359SOL    HW2 7093   3.237   2.139   3.035
 2360SOL     OW 7094   2.863   1.896   3.016
 2360SOL    HW1 7095   2.800   1.824   2.985
 2360SOL    HW2 7096   2.956   1.860   3.016
 2361SOL     OW 7097   2.632   3.192   2.163
 2361SOL    HW1 7098   2.586   3.105   2.180
 2361SOL    HW2 7099   2.723   3.189   2.204
 2362SOL     OW 7100   2.480   3.429   3.146
 2362SOL    HW1 7101   2.475   3.511   3.203
 2362SOL    HW2 7102   2.569   3.426   3.101
 2363SOL     OW 7103   3.214   1.914   2.030
 2363SOL    HW1 7104   3.249   1.873   1.946
 2363SOL    HW2 7105   3.124   1.876   2.050
 2364SOL     OW 7106   3.162   2.315   2.553
 2364SOL    HW1 7107   3.103   2.395   2.557
 2364SOL    HW2 7108   3.177   2.280   2.646
 2365SOL     OW 7109   3.455   2.083   2.744
 2365SOL    HW1 7110   3.371   2.082   2.798
 2365SOL    HW2 7111   3.457   2.166   2.688
 2366SOL     OW 7112   1.901   2.939   2.162
 2366SOL    HW1 7113   2.000   2.928   2.153
 2366SOL    HW2 7114   1.861   2.853   2.194
 2367SOL     OW 7115   2.737   3.508   2.199
 2367SOL    HW1 7116   2.660   3.473   2.145
 2367SOL    HW2 7117   2.705   3.579   2.261
 2368SOL     OW 7118   2.092   2.490   3.837
 2368SOL    HW1 7119   1.999   2.488   3.874
 2368SOL    HW2 7120   2.093   2.451   3.745
 2369SOL     OW 7121   2.087   2.137   4.720
 2369SOL    HW1 7122   2.122   2.120   4.812
 2369SOL    HW2 7123   1.999   2.092   4.708
 2370SOL     OW 7124   1.881   2.230   4.371
 2370SOL    HW1 7125   1.799   2.273   4.410
 2370SOL    HW2 7126   1.853   2.157   4.308
 2371SOL     OW 7127   3.417   3.373   4.427
 2371SOL    HW1 7128   3.360   3.357   4.508
 2371SOL    HW2 7129   3.358   3.383   4.347
 2372SOL     OW 7130   2.997   2.565   4.441
 2372SOL    HW1 7131   3.054   2.643   4.416
 2372SOL    HW2 7132   2.937   2.591   4.517
 2373SOL     OW 7133   3.617   2.469   3.955
 2373SOL    HW1 7134   3.605   2.456   3.856
 2373SOL    HW2 7135   3.587   2.388   4.004
 2374SOL     OW 7136   2.630   3.006   4.747
 2374SOL    HW1 7137   2.552   3.023   4.807
 2374SOL    HW2 7138   2.664   3.093   4.711
 2375SOL     OW 7139   2.547   2.874   4.389
 2375SOL    HW1 7140   2.616   2.858   4.459
 2375SOL    HW2 7141   2.474   2.931   4.427
 2376SOL     OW 7142   2.197   3.297   4.785
 2376SOL    HW1 7143   2.119   3.266   4.732
 2376SOL    HW2 7144   2.255   3.355   4.728
 2377SOL     OW 7145   3.465   2.309   4.461
 2377SOL    HW1 7146   3.391   2.355   4.411
 2377SOL    HW2 7147   3.516   2.377   4.514
 2378SOL     OW 7148   2.093   3.575   4.207
 2378SOL    HW1 7149   2.127   3.652   4.261
 2378SOL    HW2 7150   2.137   3.575   4.117
 2379SOL     OW 7151   2.092   3.296   4.262
 2379SOL    HW1 7152   2.066   3.392   4.262
 2379SOL    HW2 7153   2.021   3.242   4.307
 2380SOL     OW 7154   2.102   2.953   4.610
 2380SOL    HW1 7155   2.116   2.869   4.662
 2380SOL    HW2 7156   2.047   3.017   4.665
 2381SOL     OW 7157   2.468   2.826   3.847
 2381SOL    HW1 7158   2.475   2.910   3.793
 2381SOL    HW2 7159   2.514   2.839   3.935
 2382SOL     OW 7160   1.984   2.505   4.287
 2382SOL    HW1 7161   1.939   2.417   4.304
 2382SOL    HW2 7162   1.983   2.559   4.371
 2383SOL     OW 7163   3.704   3.629   4.083
 2383SOL    HW1 7164   3.758   3.600   4.163
 2383SOL    HW2 7165   3.734   3.719   4.054
 2384SOL     OW 7166   1.889   3.458   3.841
 2384SOL    HW1 7167   1.870   3.362   3.862
 2384SOL    HW2 7168   1.856   3.516   3.916
 2385SOL     OW 7169   3.551   2.784   4.336
 2385SOL    HW1 7170   3.646   2.755   4.344
 2385SOL    HW2 7171   3.543   2.849   4.261
 2386SOL     OW 7172   3.503   2.970   4.156
 2386SOL    HW1 7173   3.589   2.972   4.104
 2386SOL    HW2 7174   3.517   3.017   4.244
 2387SOL     OW 7175   2.475   3.227   4.450
 2387SOL    HW1 7176   2.426   3.140   4.459
 2387SOL    HW2 7177   2.452   3.270   4.363
 2388SOL     OW 7178   2.671   1.866   4.226
 2388SOL    HW1 7179   2.711   1.957   4.217
 2388SOL    HW2 7180   2.571   1.874   4.232
 2389SOL     OW 7181   3.387   2.861   3.914
 2389SOL    HW1 7182   3.324   2.785   3.927
 2389SOL    HW2 7183   3.435   2.879   4.000
 2390SOL     OW 7184   3.328   3.279   4.677
 2390SOL    HW1 7185   3.269   3.285   4.757
 2390SOL    HW2 7186   3.313   3.191   4.631
 2391SOL     OW 7187   3.529   3.576   4.296
 2391SOL    HW1 7188   3.488   3.553   4.208
 2391SOL    HW2 7189   3.511   3.502   4.361
 2392SOL     OW 7190   2.460   2.591   3.994
 2392SOL    HW1 7191   2.484   2.660   3.926
 2392SOL    HW2 7192   2.382   2.624   4.048
 2393SOL     OW 7193   3.143   2.207   4.668
 2393SOL    HW1 7194   3.057   2.157   4.655
 2393SOL    HW2 7195   3.205   2.153   4.724
 2394SOL     OW 7196   3.438   3.524   4.031
 2394SOL    HW1 7197   3.527   3.570   4.034
 2394SOL    HW2 7198   3.417   3.500   3.936
 2395SOL     OW 7199   2.903   2.563   4.153
 2395SOL    HW1 7200   2.929   2.559   4.249
 2395SOL    HW2 7201   2.818   2.512   4.139
 2396SOL     OW 7202   1.938   2.673   4.513
 2396SOL    HW1 7203   2.037   2.661   4.522
 2396SOL    HW2 7204   1.914   2.768   4.534
 2397SOL     OW 7205   2.727   2.210   3.919
 2397SOL    HW1 7206   2.786   2.273   3.870
 2397SOL    HW2 7207   2.746   2.116   3.890
 2398SOL     OW 7208   3.224   3.006   4.269
 2398SOL    HW1 7209   3.307   2.977   4.221
 2398SOL    HW2 7210   3.175   3.073   4.213
 2399SOL     OW 7211   2.412   2.058   4.609
 2399SOL    HW1 7212   2.407   2.053   4.709
 2399SOL    HW2 7213   2.414   2.154   4.580
 2400SOL     OW 7214   2.870   3.318   4.201
 2400SOL    HW1 7215   2.824   3.390   4.149
 2400SOL    HW2 7216   2.866   3.338   4.299
 2401SOL     OW 7217   2.213   3.663   4.577
 2401SOL    HW1 7218   2.263   3.577   4.583
 2401SOL    HW2 7219   2.278   3.740   4.574
 2402SOL     OW 7220   3.657   2.928   4.597
 2402SOL    HW1 7221   3.595   2.913   4.521
 2402SOL    HW2 7222   3.605   2.939   4.682
 2403SOL     OW 7223   2.183   2.805   3.966
 2403SOL    HW1 7224   2.265   2.844   3.924
 2403SOL    HW2 7225   2.156   2.723   3.917
 2404SOL     OW 7226   3.320   2.597   4.452
 2404SOL    HW1 7227   3.315   2.532   4.527
 2404SOL    HW2 7228   3.400   2.656   4.465
 2405SOL     OW 7229   2.973   3.638   3.961
 2405SOL    HW1 7230   2.913   3.576   4.011
 2405SOL    HW2 7231   3.004   3.594   3.876
 2406SOL     OW 7232   3.494   3.239   3.805
 2406SOL    HW1 7233   3.462   3.333   3.795
 2406SOL    HW2 7234   3.418   3.176   3.793
 2407SOL     OW 7235   2.326   3.605   4.047
 2407SOL    HW1 7236   2.359   3.644   4.133
 2407SOL    HW2 7237   2.402   3.598   3.982
 2408SOL     OW 7238   3.262   1.969   4.150
 2408SOL    HW1 7239   3.238   1.932   4.060
 2408SOL    HW2 7240   3.361   1.985   4.154
 2409SOL     OW 7241   2.111   3.647   4.965
 2409SOL    HW1 7242   2.168   3.582   5.015
 2409SOL    HW2 7243   2.095   3.614   4.872
 2410SOL     OW 7244   2.802   3.560   4.628
 2410SOL    HW1 7245   2.882   3.503   4.649
 2410SOL    HW2 7246   2.753   3.520   4.551
 2411SOL     OW 7247   2.244   2.562   4.204
 2411SOL    HW1 7248   2.289   2.472   4.201
 2411SOL    HW2 7249   2.150   2.551   4.237
 2412SOL     OW 7250   2.476   1.984   3.841
 2412SOL    HW1 7251   2.574   1.962   3.848
 2412SOL    HW2 7252   2.445   1.967   3.748
 2413SOL     OW 7253   2.665   3.264   4.648
 2413SOL    HW1 7254   2.755   3.278   4.606
 2413SOL    HW2 7255   2.594   3.266   4.577
 2414SOL     OW 7256   2.784   2.365   4.623
 2414SOL    HW1 7257   2.759   2.356   4.527
 2414SOL    HW2 7258   2.832   2.283   4.654
 2415SOL     OW 7259   2.401   1.926   4.236
 2415SOL    HW1 7260   2.320   1.927   4.294
 2415SOL    HW2 7261   2.404   2.009   4.181
 2416SOL     OW 7262   3.296   3.050   3.765
 2416SOL    HW1 7263   3.328   2.974   3.822
 2416SOL    HW2 7264   3.204   3.077   3.795
 2417SOL     OW 7265   2.159   1.897   3.895
 2417SOL    HW1 7266   2.208   1.981   3.874
 2417SOL    HW2 7267   2.221   1.832   3.940
 2418SOL     OW 7268   2.797   2.098   4.204
 2418SOL    HW1 7269   2.749   2.139   4.126
 2418SOL    HW2 7270   2.896   2.096   4.185
 2419SOL     OW 7271   3.089   3.432   4.517
 2419SOL    HW1 7272   3.110   3.506   4.452
 2419SOL    HW2 7273   3.157   3.432   4.590
 2420SOL     OW 7274   2.321   3.014   4.465
 2420SOL    HW1 7275   2.250   2.987   4.530
 2420SOL    HW2 7276   2.295   2.986   4.372
 2421SOL     OW 7277   3.133   3.659   4.315
 2421SOL    HW1 7278   3.177   3.723   4.251
 2421SOL    HW2 7279   3.083   3.711   4.385
 2422SOL     OW 7280   2.894   2.411   3.740
 2422SOL    HW1 7281   2.853   2.493   3.701
 2422SOL    HW2 7282   2.958   2.437   3.813
 2423SOL     OW 7283   2.728   2.316   4.366
 2423SOL    HW1 7284   2.696   2.388   4.304
 2423SOL    HW2 7285   2.752   2.235   4.313
 2424SOL     OW 7286   2.879   1.901   4.477
 2424SOL    HW1 7287   2.807   1.906   4.408
 2424SOL    HW2 7288   2.855   1.832   4.546
 2425SOL     OW 7289   3.291   3.035   4.591
 2425SOL    HW1 7290   3.236   2.951   4.584
 2425SOL    HW2 7291   3.317   3.064   4.499
 2426SOL     OW 7292   3.328   2.452   4.716
 2426SOL    HW1 7293   3.298   2.357   4.723
 2426SOL    HW2 7294   3.401   2.468   4.782
 2427SOL     OW 7295   3.719   2.695   4.101
 2427SOL    HW1 7296   3.761   2.631   4.165
 2427SOL    HW2 7297   3.681   2.644   4.023
 2428SOL     OW 7298   2.350   3.247   3.898
 2428SOL    HW1 7299   2.263   3.232   3.945
 2428SOL    HW2 7300   2.333   3.273   3.803
 2429SOL     OW 7301   3.526   3.142   4.381
 2429SOL    HW1 7302   3.625   3.150   4.395
 2429SOL    HW2 7303   3.481   3.226   4.412
 2430SOL     OW 7304   3.252   2.437   3.802
 2430SOL    HW1 7305   3.198   2.416   3.883
 2430SOL    HW2 7306   3.343   2.396   3.811
 2431SOL     OW 7307   2.389   2.118   4.052
 2431SOL    HW1 7308   2.416   2.059   3.977
 2431SOL    HW2 7309   2.389   2.213   4.021
 2432SOL     OW 7310   3.500   2.961   4.803
 2432SOL    HW1 7311   3.505   3.042   4.862
 2432SOL    HW2 7312   3.414   2.963   4.752
 2433SOL     OW 7313   2.567   2.912   4.092
 2433SOL    HW1 7314   2.553   2.919   4.191
 2433SOL    HW2 7315   2.651   2.861   4.074
 2434SOL     OW 7316   2.229   2.962   4.225
 2434SOL    HW1 7317   2.222   3.045   4.169
 2434SOL    HW2 7318   2.233   2.882   4.165
 2435SOL     OW 7319   2.428   2.399   4.589
 2435SOL    HW1 7320   2.440   2.465   4.515
 2435SOL    HW2 7321   2.474   2.433   4.672
 2436SOL     OW 7322   3.114   3.210   4.112
 2436SOL    HW1 7323   3.164   3.287   4.152
 2436SOL    HW2 7324   3.019   3.212   4.144
 2437SOL     OW 7325   3.444   2.501   4.196
 2437SOL    HW1 7326   3.413   2.562   4.269
 2437SOL    HW2 7327   3.494   2.553   4.127
 2438SOL     OW 7328   2.435   2.732   4.753
 2438SOL    HW1 7329   2.479   2.821   4.744
 2438SOL    HW2 7330   2.372   2.732   4.830
 2439SOL     OW 7331   3.071   2.387   3.999
 2439SOL    HW1 7332   3.084   2.303   4.053
 2439SOL    HW2 7333   3.042   2.461   4.059
 2440SOL     OW 7334   2.169   2.075   4.955
 2440SOL    HW1 7335   2.146   2.112   5.045
 2440SOL    HW2 7336   2.139   1.980   4.949
 2441SOL     OW 7337   2.594   2.496   4.788
 2441SOL    HW1 7338   2.653   2.470   4.712
 2441SOL    HW2 7339   2.566   2.592   4.777
 2442SOL     OW 7340   2.169   1.925   4.342
 2442SOL    HW1 7341   2.158   2.019   4.375
 2442SOL    HW2 7342   2.164   1.862   4.419
 2443SOL     OW 7343   3.484   2.229   4.098
 2443SOL    HW1 7344   3.486   2.153   4.162
 2443SOL    HW2 7345   3.436   2.306   4.138
 2444SOL     OW 7346   3.402   2.136   3.849
 2444SOL    HW1 7347   3.341   2.061   3.872
 2444SOL    HW2 7348   3.424   2.188   3.932
 2445SOL     OW 7349   3.165   2.700   3.766
 2445SOL    HW1 7350   3.199   2.607   3.781
 2445SOL    HW2 7351   3.183   2.727   3.671
 2446SOL     OW 7352   2.930   3.195   4.573
 2446SOL    HW1 7353   2.937   3.111   4.518
 2446SOL    HW2 7354   2.992   3.264   4.537
 2447SOL     OW 7355   2.181   2.672   4.673
 2447SOL    HW1 7356   2.274   2.708   4.678
 2447SOL    HW2 7357   2.175   2.587   4.725
 2448SOL     OW 7358   2.201   2.371   4.730
 2448SOL    HW1 7359   2.149   2.288   4.713
 2448SOL    HW2 7360   2.278   2.376   4.666
 2449SOL     OW 7361   1.870   3.188   3.924
 2449SOL    HW1 7362   1.777   3.209   3.893
 2449SOL    HW2 7363   1.880   3.089   3.937
 2450SOL     OW 7364   1.950   3.663   4.651
 2450SOL    HW1 7365   1.908   3.577   4.624
 2450SOL    HW2 7366   2.044   3.666   4.617
 2451SOL     OW 7367   2.366   3.430   4.634
 2451SOL    HW1 7368   2.432   3.504   4.643
 2451SOL    HW2 7369   2.410   3.351   4.592
 2452SOL     OW 7370   2.677   2.434   4.049
 2452SOL    HW1 7371   2.684   2.345   4.003
 2452SOL    HW2 7372   2.583   2.468   4.041
 2453SOL     OW 7373   2.533   2.326   4.993
 2453SOL    HW1 7374   2.499   2.237   4.963
 2453SOL    HW2 7375   2.559   2.380   4.913
 2454SOL     OW 7376   2.335   2.362   3.915
 2454SOL    HW1 7377   2.396   2.442   3.919
 2454SOL    HW2 7378   2.240   2.393   3.922
 2455SOL     OW 7379   3.164   2.717   4.033
 2455SOL    HW1 7380   3.078   2.686   4.075
 2455SOL    HW2 7381   3.160   2.703   3.934
 2456SOL     OW 7382   3.621   3.609   4.878
 2456SOL    HW1 7383   3.682   3.639   4.805
 2456SOL    HW2 7384   3.583   3.520   4.856
 2457SOL     OW 7385   1.945   3.120   4.746
 2457SOL    HW1 7386   1.940   3.119   4.846
 2457SOL    HW2 7387   1.862   3.079   4.708
 2458SOL     OW 7388   3.588   1.997   4.247
 2458SOL    HW1 7389   3.661   1.980   4.180
 2458SOL    HW2 7390   3.557   1.910   4.285
 2459SOL     OW 7391   3.250   3.435   4.201
 2459SOL    HW1 7392   3.317   3.447   4.127
 2459SOL    HW2 7393   3.210   3.524   4.224
 2460SOL     OW 7394   3.142   2.789   4.396
 2460SOL    HW1 7395   3.202   2.708   4.398
 2460SOL    HW2 7396   3.182   2.858   4.336
 2461SOL     OW 7397   2.534   3.478   3.878
 2461SOL    HW1 7398   2.543   3.488   3.779
 2461SOL    HW2 7399   2.494   3.389   3.899
 2462SOL     OW 7400   3.703   2.037   4.687
 2462SOL    HW1 7401   3.742   1.952   4.651
 2462SOL    HW2 7402   3.605   2.039   4.668
 2463SOL     OW 7403   2.125   2.188   4.444
 2463SOL    HW1 7404   2.046   2.239   4.410
 2463SOL    HW2 7405   2.116   2.173   4.542
 2464SOL     OW 7406   3.056   3.474   3.755
 2464SOL    HW1 7407   3.062   3.381   3.792
 2464SOL    HW2 7408   2.997   3.474   3.675
 2465SOL     OW 7409   2.778   2.772   4.015
 2465SOL    HW1 7410   2.841   2.810   3.947
 2465SOL    HW2 7411   2.818   2.689   4.054
 2466SOL     OW 7412   3.366   3.469   3.768
 2466SOL    HW1 7413   3.274   3.506   3.775
 2466SOL    HW2 7414   3.404   3.489   3.678
 2467SOL     OW 7415   2.901   2.960   4.420
 2467SOL    HW1 7416   2.831   2.913   4.474
 2467SOL    HW2 7417   2.960   2.892   4.377
 2468SOL     OW 7418   2.452   3.349   4.215
 2468SOL    HW1 7419   2.494   3.291   4.145
 2468SOL    HW2 7420   2.408   3.428   4.171
 2469SOL     OW 7421   2.117   3.210   4.014
 2469SOL    HW1 7422   2.021   3.211   3.987
 2469SOL    HW2 7423   2.129   3.263   4.098
 2470SOL     OW 7424   1.937   2.207   3.757
 2470SOL    HW1 7425   1.845   2.179   3.728
 2470SOL    HW2 7426   1.968   2.284   3.701
 2471SOL     OW 7427   1.934   2.028   4.042
 2471SOL    HW1 7428   1.917   2.111   3.988
 2471SOL    HW2 7429   2.024   1.991   4.020
 2472SOL     OW 7430   3.045   3.197   3.843
 2472SOL    HW1 7431   2.946   3.186   3.845
 2472SOL    HW2 7432   3.079   3.212   3.936
 2473SOL     OW 7433   3.536   2.745   4.978
 2473SOL    HW1 7434   3.509   2.656   4.941
 2473SOL    HW2 7435   3.537   2.813   4.905
 2474SOL     OW 7436   3.087   2.187   4.173
 2474SOL    HW1 7437   3.152   2.113   4.162
 2474SOL    HW2 7438   3.107   2.237   4.257
 2475SOL     OW 7439   2.456   2.607   4.376
 2475SOL    HW1 7440   2.506   2.692   4.357
 2475SOL    HW2 7441   2.368   2.609   4.328
 2476SOL     OW 7442   2.721   3.236   3.740
 2476SOL    HW1 7443   2.675   3.251   3.828
 2476SOL    HW2 7444   2.765   3.321   3.710
 2477SOL     OW 7445   2.523   3.652   4.677
 2477SOL    HW1 7446   2.477   3.740   4.664
 2477SOL    HW2 7447   2.622   3.664   4.670
 2478SOL     OW 7448   2.721   2.818   4.585
 2478SOL    HW1 7449   2.775   2.749   4.633
 2478SOL    HW2 7450   2.689   2.887   4.651
 2479SOL     OW 7451   2.945   2.846   3.811
 2479SOL    HW1 7452   2.922   2.899   3.729
 2479SOL    HW2 7453   3.026   2.790   3.792
 2480SOL     OW 7454   3.723   3.431   4.575
 2480SOL    HW1 7455   3.652   3.419   4.505
 2480SOL    HW2 7456   3.724   3.352   4.635
 2481SOL     OW 7457   1.941   3.102   4.377
 2481SOL    HW1 7458   1.940   3.055   4.465
 2481SOL    HW2 7459   2.023   3.074   4.326
 2482SOL     OW 7460   3.686   2.054   4.951
 2482SOL    HW1 7461   3.682   1.964   4.995
 2482SOL    HW2 7462   3.689   2.043   4.852
 2483SOL     OW 7463   2.290   2.286   4.244
 2483SOL    HW1 7464   2.320   2.214   4.182
 2483SOL    HW2 7465   2.251   2.246   4.327
 2484SOL     OW 7466   2.674   3.448   4.411
 2484SOL    HW1 7467   2.706   3.458   4.317
 2484SOL    HW2 7468   2.595   3.386   4.413
 2485SOL     OW 7469   2.632   3.192   4.025
 2485SOL    HW1 7470   2.586   3.105   4.042
 2485SOL    HW2 7471   2.723   3.189   4.066
 2486SOL     OW 7472   3.214   1.914   3.892
 2486SOL    HW1 7473   3.249   1.873   3.808
 2486SOL    HW2 7474   3.124   1.876   3.912
 2487SOL     OW 7475   3.162   2.315   4.415
 2487SOL    HW1 7476   3.103   2.395   4.419
 2487SOL    HW2 7477   3.177   2.280   4.508
 2488SOL     OW 7478   3.455   2.083   4.606
 2488SOL    HW1 7479   3.371   2.082   4.660
 2488SOL    HW2 7480   3.457   2.166   4.550
 2489SOL     OW 7481   1.901   2.939   4.024
 2489SOL    HW1 7482   2.000   2.928   4.015
 2489SOL    HW2 7483   1.861   2.853   4.056
 2490SOL     OW 7484   2.737   3.508   4.061
 2490SOL    HW1 7485   2.660   3.473   4.007
 2490SOL    HW2 7486   2.705   3.579   4.123
 2491SOL     OW 7487   2.092   4.352   0.113
 2491SOL    HW1 7488   1.999   4.350   0.150
 2491SOL    HW2 7489   2.093   4.313   0.021
 2492SOL     OW 7490   2.087   3.999   0.996
 2492SOL    HW1 7491   2.122   3.982   1.088
 2492SOL    HW2 7492   1.999   3.954   0.984
 2493SOL     OW 7493   1.881   4.092   0.647
 2493SOL    HW1 7494   1.799   4.135   0.686
 2493SOL    HW2 7495   1.853   4.019   0.584
 2494SOL     OW 7496   2.997   4.427   0.717
 2494SOL    HW1 7497   3.054   4.505   0.692
 2494SOL    HW2 7498   2.937   4.453   0.793
 2495SOL     OW 7499   3.617   4.331   0.231
 2495SOL    HW1 7500   3.605   4.318   0.132
 2495SOL    HW2 7501   3.587   4.250   0.280
 2496SOL     OW 7502   2.630   4.868   1.023
 2496SOL    HW1 7503   2.552   4.885   1.083
 2496SOL    HW2 7504   2.664   4.955   0.987
 2497SOL     OW 7505   2.712   4.522   1.823
 2497SOL    HW1 7506   2.708   4.598   1.888
 2497SOL    HW2 7507   2.734   4.558   1.732
 2498SOL     OW 7508   2.547   4.736   0.665
 2498SOL    HW1 7509   2.616   4.720   0.735
 2498SOL    HW2 7510   2.474   4.793   0.703
 2499SOL     OW 7511   2.300   4.116   1.499
 2499SOL    HW1 7512   2.382   4.060   1.508
 2499SOL    HW2 7513   2.219   4.058   1.503
 2500SOL     OW 7514   3.465   4.171   0.737
 2500SOL    HW1 7515   3.391   4.217   0.687
 2500SOL    HW2 7516   3.516   4.239   0.790
 2501SOL     OW 7517   2.102   4.815   0.886
 2501SOL    HW1 7518   2.116   4.731   0.938
 2501SOL    HW2 7519   2.047   4.879   0.941
 2502SOL     OW 7520   3.456   3.838   1.480
 2502SOL    HW1 7521   3.438   3.905   1.408
 2502SOL    HW2 7522   3.453   3.884   1.569
 2503SOL     OW 7523   1.984   4.367   0.563
 2503SOL    HW1 7524   1.939   4.279   0.580
 2503SOL    HW2 7525   1.983   4.421   0.647
 2504SOL     OW 7526   1.975   4.461   1.597
 2504SOL    HW1 7527   2.063   4.448   1.642
 2504SOL    HW2 7528   1.962   4.558   1.575
 2505SOL     OW 7529   2.671   3.728   0.502
 2505SOL    HW1 7530   2.711   3.819   0.493
 2505SOL    HW2 7531   2.571   3.736   0.508
 2506SOL     OW 7532   2.059   4.700   1.264
 2506SOL    HW1 7533   2.148   4.655   1.250
 2506SOL    HW2 7534   1.986   4.635   1.245
 2507SOL     OW 7535   3.387   4.723   0.190
 2507SOL    HW1 7536   3.324   4.647   0.203
 2507SOL    HW2 7537   3.435   4.741   0.276
 2508SOL     OW 7538   2.179   3.975   1.801
 2508SOL    HW1 7539   2.250   4.046   1.807
 2508SOL    HW2 7540   2.091   4.014   1.829
 2509SOL     OW 7541   2.460   4.453   0.270
 2509SOL    HW1 7542   2.484   4.522   0.202
 2509SOL    HW2 7543   2.382   4.486   0.324
 2510SOL     OW 7544   3.143   4.069   0.944
 2510SOL    HW1 7545   3.057   4.019   0.931
 2510SOL    HW2 7546   3.205   4.015   1.000
 2511SOL     OW 7547   2.669   4.329   1.465
 2511SOL    HW1 7548   2.622   4.326   1.554
 2511SOL    HW2 7549   2.618   4.274   1.399
 2512SOL     OW 7550   3.256   4.193   1.674
 2512SOL    HW1 7551   3.236   4.236   1.762
 2512SOL    HW2 7552   3.334   4.131   1.683
 2513SOL     OW 7553   2.835   4.614   1.572
 2513SOL    HW1 7554   2.881   4.530   1.543
 2513SOL    HW2 7555   2.779   4.648   1.497
 2514SOL     OW 7556   2.853   4.134   1.242
 2514SOL    HW1 7557   2.776   4.168   1.296
 2514SOL    HW2 7558   2.819   4.083   1.163
 2515SOL     OW 7559   2.903   4.425   0.429
 2515SOL    HW1 7560   2.929   4.421   0.525
 2515SOL    HW2 7561   2.818   4.374   0.415
 2516SOL     OW 7562   1.938   4.535   0.789
 2516SOL    HW1 7563   2.037   4.523   0.798
 2516SOL    HW2 7564   1.914   4.630   0.810
 2517SOL     OW 7565   2.727   4.072   0.195
 2517SOL    HW1 7566   2.786   4.135   0.146
 2517SOL    HW2 7567   2.746   3.978   0.166
 2518SOL     OW 7568   3.581   4.309   1.831
 2518SOL    HW1 7569   3.555   4.398   1.795
 2518SOL    HW2 7570   3.579   4.241   1.758
 2519SOL     OW 7571   2.412   3.920   0.885
 2519SOL    HW1 7572   2.407   3.915   0.985
 2519SOL    HW2 7573   2.414   4.016   0.856
 2520SOL     OW 7574   3.320   4.459   0.728
 2520SOL    HW1 7575   3.315   4.394   0.803
 2520SOL    HW2 7576   3.400   4.518   0.741
 2521SOL     OW 7577   2.064   4.009   1.498
 2521SOL    HW1 7578   1.984   4.069   1.485
 2521SOL    HW2 7579   2.054   3.960   1.584
 2522SOL     OW 7580   3.262   3.831   0.426
 2522SOL    HW1 7581   3.238   3.794   0.336
 2522SOL    HW2 7582   3.361   3.847   0.430
 2523SOL     OW 7583   2.244   4.424   0.480
 2523SOL    HW1 7584   2.289   4.334   0.477
 2523SOL    HW2 7585   2.150   4.413   0.513
 2524SOL     OW 7586   3.409   3.946   1.729
 2524SOL    HW1 7587   3.404   3.983   1.821
 2524SOL    HW2 7588   3.337   3.877   1.717
 2525SOL     OW 7589   2.476   3.846   0.117
 2525SOL    HW1 7590   2.574   3.824   0.124
 2525SOL    HW2 7591   2.445   3.829   0.024
 2526SOL     OW 7592   2.643   3.988   1.749
 2526SOL    HW1 7593   2.710   3.927   1.792
 2526SOL    HW2 7594   2.570   4.007   1.814
 2527SOL     OW 7595   3.213   4.314   1.433
 2527SOL    HW1 7596   3.241   4.271   1.518
 2527SOL    HW2 7597   3.238   4.410   1.434
 2528SOL     OW 7598   2.784   4.227   0.899
 2528SOL    HW1 7599   2.759   4.218   0.803
 2528SOL    HW2 7600   2.832   4.145   0.930
 2529SOL     OW 7601   2.401   3.788   0.512
 2529SOL    HW1 7602   2.320   3.789   0.570
 2529SOL    HW2 7603   2.404   3.871   0.457
 2530SOL     OW 7604   2.797   3.960   0.480
 2530SOL    HW1 7605   2.749   4.001   0.402
 2530SOL    HW2 7606   2.896   3.958   0.461
 2531SOL     OW 7607   2.938   4.407   1.464
 2531SOL    HW1 7608   2.858   4.346   1.467
 2531SOL    HW2 7609   3.019   4.354   1.440
 2532SOL     OW 7610   2.894   4.273   0.016
 2532SOL    HW1 7611   2.853   4.355  -0.023
 2532SOL    HW2 7612   2.958   4.299   0.089
 2533SOL     OW 7613   1.940   4.280   1.386
 2533SOL    HW1 7614   2.032   4.279   1.345
 2533SOL    HW2 7615   1.934   4.354   1.453
 2534SOL     OW 7616   2.423   3.946   1.147
 2534SOL    HW1 7617   2.461   3.862   1.184
 2534SOL    HW2 7618   2.335   3.965   1.191
 2535SOL     OW 7619   2.728   4.178   0.642
 2535SOL    HW1 7620   2.696   4.250   0.580
 2535SOL    HW2 7621   2.752   4.097   0.589
 2536SOL     OW 7622   2.879   3.763   0.753
 2536SOL    HW1 7623   2.807   3.768   0.684
 2536SOL    HW2 7624   2.855   3.694   0.822
 2537SOL     OW 7625   3.291   4.897   0.867
 2537SOL    HW1 7626   3.236   4.813   0.860
 2537SOL    HW2 7627   3.317   4.926   0.775
 2538SOL     OW 7628   3.328   4.314   0.992
 2538SOL    HW1 7629   3.298   4.219   0.999
 2538SOL    HW2 7630   3.401   4.330   1.058
 2539SOL     OW 7631   3.719   4.557   0.377
 2539SOL    HW1 7632   3.761   4.493   0.441
 2539SOL    HW2 7633   3.681   4.506   0.299
 2540SOL     OW 7634   3.252   4.299   0.078
 2540SOL    HW1 7635   3.198   4.278   0.159
 2540SOL    HW2 7636   3.343   4.258   0.087
 2541SOL     OW 7637   2.389   3.980   0.328
 2541SOL    HW1 7638   2.416   3.921   0.253
 2541SOL    HW2 7639   2.389   4.075   0.297
 2542SOL     OW 7640   3.500   4.823   1.079
 2542SOL    HW1 7641   3.505   4.904   1.138
 2542SOL    HW2 7642   3.414   4.825   1.028
 2543SOL     OW 7643   2.777   3.813   1.402
 2543SOL    HW1 7644   2.802   3.793   1.307
 2543SOL    HW2 7645   2.849   3.869   1.444
 2544SOL     OW 7646   2.272   4.537   1.251
 2544SOL    HW1 7647   2.358   4.549   1.301
 2544SOL    HW2 7648   2.230   4.450   1.278
 2545SOL     OW 7649   3.136   4.110   1.262
 2545SOL    HW1 7650   3.157   4.184   1.326
 2545SOL    HW2 7651   3.047   4.127   1.219
 2546SOL     OW 7652   2.428   4.261   0.865
 2546SOL    HW1 7653   2.440   4.327   0.791
 2546SOL    HW2 7654   2.474   4.295   0.948
 2547SOL     OW 7655   3.444   4.363   0.472
 2547SOL    HW1 7656   3.413   4.424   0.545
 2547SOL    HW2 7657   3.494   4.415   0.403
 2548SOL     OW 7658   2.264   4.475   1.598
 2548SOL    HW1 7659   2.332   4.530   1.551
 2548SOL    HW2 7660   2.304   4.387   1.625
 2549SOL     OW 7661   3.449   4.503   1.670
 2549SOL    HW1 7662   3.357   4.541   1.665
 2549SOL    HW2 7663   3.509   4.550   1.605
 2550SOL     OW 7664   2.875   3.829   1.770
 2550SOL    HW1 7665   2.881   3.914   1.718
 2550SOL    HW2 7666   2.907   3.753   1.713
 2551SOL     OW 7667   2.366   3.774   1.740
 2551SOL    HW1 7668   2.324   3.717   1.670
 2551SOL    HW2 7669   2.300   3.843   1.772
 2552SOL     OW 7670   2.435   4.594   1.029
 2552SOL    HW1 7671   2.479   4.683   1.020
 2552SOL    HW2 7672   2.372   4.594   1.106
 2553SOL     OW 7673   3.222   4.586   1.045
 2553SOL    HW1 7674   3.147   4.586   0.979
 2553SOL    HW2 7675   3.259   4.494   1.054
 2554SOL     OW 7676   3.071   4.249   0.275
 2554SOL    HW1 7677   3.084   4.165   0.329
 2554SOL    HW2 7678   3.042   4.323   0.335
 2555SOL     OW 7679   2.169   3.937   1.231
 2555SOL    HW1 7680   2.146   3.974   1.321
 2555SOL    HW2 7681   2.139   3.842   1.225
 2556SOL     OW 7682   2.594   4.358   1.064
 2556SOL    HW1 7683   2.653   4.332   0.988
 2556SOL    HW2 7684   2.566   4.454   1.053
 2557SOL     OW 7685   3.590   4.659   1.854
 2557SOL    HW1 7686   3.544   4.652   1.765
 2557SOL    HW2 7687   3.528   4.703   1.920
 2558SOL     OW 7688   2.169   3.787   0.618
 2558SOL    HW1 7689   2.158   3.881   0.651
 2558SOL    HW2 7690   2.164   3.724   0.695
 2559SOL     OW 7691   3.484   4.091   0.374
 2559SOL    HW1 7692   3.486   4.015   0.438
 2559SOL    HW2 7693   3.436   4.168   0.414
 2560SOL     OW 7694   2.885   4.490   0.966
 2560SOL    HW1 7695   2.900   4.511   1.062
 2560SOL    HW2 7696   2.855   4.395   0.957
 2561SOL     OW 7697   2.212   4.622   1.804
 2561SOL    HW1 7698   2.288   4.666   1.852
 2561SOL    HW2 7699   2.247   4.575   1.722
 2562SOL     OW 7700   3.402   3.998   0.125
 2562SOL    HW1 7701   3.341   3.923   0.148
 2562SOL    HW2 7702   3.424   4.050   0.208
 2563SOL     OW 7703   3.165   4.562   0.042
 2563SOL    HW1 7704   3.199   4.469   0.057
 2563SOL    HW2 7705   3.183   4.589  -0.053
 2564SOL     OW 7706   2.181   4.534   0.949
 2564SOL    HW1 7707   2.274   4.570   0.954
 2564SOL    HW2 7708   2.175   4.449   1.001
 2565SOL     OW 7709   2.201   4.233   1.006
 2565SOL    HW1 7710   2.149   4.150   0.989
 2565SOL    HW2 7711   2.278   4.238   0.942
 2566SOL     OW 7712   3.000   4.104   1.678
 2566SOL    HW1 7713   2.955   4.167   1.742
 2566SOL    HW2 7714   3.093   4.135   1.661
 2567SOL     OW 7715   3.022   3.931   1.477
 2567SOL    HW1 7716   3.022   3.995   1.554
 2567SOL    HW2 7717   3.050   3.979   1.394
 2568SOL     OW 7718   2.864   4.520   1.238
 2568SOL    HW1 7719   2.905   4.488   1.324
 2568SOL    HW2 7720   2.768   4.493   1.235
 2569SOL     OW 7721   1.902   4.268   1.114
 2569SOL    HW1 7722   1.987   4.235   1.073
 2569SOL    HW2 7723   1.915   4.283   1.212
 2570SOL     OW 7724   2.051   4.244   1.722
 2570SOL    HW1 7725   2.110   4.204   1.652
 2570SOL    HW2 7726   1.993   4.315   1.681
 2571SOL     OW 7727   3.231   4.674   1.660
 2571SOL    HW1 7728   3.270   4.763   1.680
 2571SOL    HW2 7729   3.241   4.654   1.563
 2572SOL     OW 7730   2.677   4.296   0.325
 2572SOL    HW1 7731   2.684   4.207   0.279
 2572SOL    HW2 7732   2.583   4.330   0.317
 2573SOL     OW 7733   3.519   4.328   1.206
 2573SOL    HW1 7734   3.481   4.259   1.268
 2573SOL    HW2 7735   3.601   4.292   1.162
 2574SOL     OW 7736   2.533   4.188   1.269
 2574SOL    HW1 7737   2.499   4.099   1.239
 2574SOL    HW2 7738   2.559   4.242   1.189
 2575SOL     OW 7739   2.335   4.224   0.191
 2575SOL    HW1 7740   2.396   4.304   0.195
 2575SOL    HW2 7741   2.240   4.255   0.198
 2576SOL     OW 7742   2.021   4.861   1.466
 2576SOL    HW1 7743   2.043   4.800   1.542
 2576SOL    HW2 7744   2.031   4.812   1.380
 2577SOL     OW 7745   3.209   4.783   1.234
 2577SOL    HW1 7746   3.233   4.720   1.160
 2577SOL    HW2 7747   3.119   4.823   1.216
 2578SOL     OW 7748   3.164   4.579   0.309
 2578SOL    HW1 7749   3.078   4.548   0.351
 2578SOL    HW2 7750   3.160   4.565   0.210
 2579SOL     OW 7751   2.765   3.810   0.133
 2579SOL    HW1 7752   2.816   3.811   0.047
 2579SOL    HW2 7753   2.821   3.768   0.204
 2580SOL     OW 7754   3.588   3.859   0.523
 2580SOL    HW1 7755   3.661   3.842   0.456
 2580SOL    HW2 7756   3.557   3.772   0.561
 2581SOL     OW 7757   3.142   4.651   0.672
 2581SOL    HW1 7758   3.202   4.570   0.674
 2581SOL    HW2 7759   3.182   4.720   0.612
 2582SOL     OW 7760   3.703   3.899   0.963
 2582SOL    HW1 7761   3.742   3.814   0.927
 2582SOL    HW2 7762   3.605   3.901   0.944
 2583SOL     OW 7763   2.125   4.050   0.720
 2583SOL    HW1 7764   2.046   4.101   0.686
 2583SOL    HW2 7765   2.116   4.035   0.818
 2584SOL     OW 7766   2.778   4.634   0.291
 2584SOL    HW1 7767   2.841   4.672   0.223
 2584SOL    HW2 7768   2.818   4.551   0.330
 2585SOL     OW 7769   2.876   3.960   0.971
 2585SOL    HW1 7770   2.868   3.924   0.878
 2585SOL    HW2 7771   2.874   3.884   1.036
 2586SOL     OW 7772   3.571   4.109   1.381
 2586SOL    HW1 7773   3.644   4.178   1.385
 2586SOL    HW2 7774   3.599   4.034   1.322
 2587SOL     OW 7775   1.967   4.737   1.726
 2587SOL    HW1 7776   1.890   4.704   1.780
 2587SOL    HW2 7777   2.052   4.707   1.768
 2588SOL     OW 7778   2.534   3.927   1.489
 2588SOL    HW1 7779   2.624   3.911   1.449
 2588SOL    HW2 7780   2.542   3.932   1.588
 2589SOL     OW 7781   1.937   4.069   0.033
 2589SOL    HW1 7782   1.845   4.041   0.004
 2589SOL    HW2 7783   1.968   4.146  -0.023
 2590SOL     OW 7784   3.302   4.580   1.398
 2590SOL    HW1 7785   3.245   4.632   1.335
 2590SOL    HW2 7786   3.398   4.592   1.374
 2591SOL     OW 7787   3.045   5.059   0.119
 2591SOL    HW1 7788   2.946   5.048   0.121
 2591SOL    HW2 7789   3.079   5.074   0.212
 2592SOL     OW 7790   2.475   4.566   1.431
 2592SOL    HW1 7791   2.531   4.647   1.414
 2592SOL    HW2 7792   2.534   4.486   1.434
 2593SOL     OW 7793   2.578   4.289   1.708
 2593SOL    HW1 7794   2.597   4.354   1.782
 2593SOL    HW2 7795   2.638   4.209   1.717
 2594SOL     OW 7796   3.536   4.607   1.254
 2594SOL    HW1 7797   3.509   4.518   1.217
 2594SOL    HW2 7798   3.537   4.675   1.181
 2595SOL     OW 7799   3.087   4.049   0.449
 2595SOL    HW1 7800   3.152   3.975   0.438
 2595SOL    HW2 7801   3.107   4.099   0.533
 2596SOL     OW 7802   2.456   4.469   0.652
 2596SOL    HW1 7803   2.506   4.554   0.633
 2596SOL    HW2 7804   2.368   4.471   0.604
 2597SOL     OW 7805   3.639   4.066   1.642
 2597SOL    HW1 7806   3.622   4.097   1.548
 2597SOL    HW2 7807   3.555   4.029   1.680
 2598SOL     OW 7808   3.592   4.658   1.517
 2598SOL    HW1 7809   3.630   4.749   1.532
 2598SOL    HW2 7810   3.584   4.641   1.418
 2599SOL     OW 7811   2.721   4.680   0.861
 2599SOL    HW1 7812   2.775   4.611   0.909
 2599SOL    HW2 7813   2.689   4.749   0.927
 2600SOL     OW 7814   2.945   4.708   0.087
 2600SOL    HW1 7815   2.922   4.761   0.005
 2600SOL    HW2 7816   3.026   4.652   0.068
 2601SOL     OW 7817   1.941   4.964   0.653
 2601SOL    HW1 7818   1.940   4.917   0.741
 2601SOL    HW2 7819   2.023   4.936   0.602
 2602SOL     OW 7820   3.686   3.916   1.227
 2602SOL    HW1 7821   3.682   3.826   1.271
 2602SOL    HW2 7822   3.689   3.905   1.128
 2603SOL     OW 7823   2.290   4.148   0.520
 2603SOL    HW1 7824   2.320   4.076   0.458
 2603SOL    HW2 7825   2.251   4.108   0.603
 2604SOL     OW 7826   2.179   4.271   1.280
 2604SOL    HW1 7827   2.217   4.212   1.352
 2604SOL    HW2 7828   2.219   4.245   1.192
 2605SOL     OW 7829   3.286   3.938   1.112
 2605SOL    HW1 7830   3.338   3.873   1.167
 2605SOL    HW2 7831   3.237   4.001   1.173
 2606SOL     OW 7832   2.863   3.758   1.154
 2606SOL    HW1 7833   2.800   3.686   1.123
 2606SOL    HW2 7834   2.956   3.722   1.154
 2607SOL     OW 7835   3.214   3.776   0.168
 2607SOL    HW1 7836   3.249   3.735   0.084
 2607SOL    HW2 7837   3.124   3.738   0.188
 2608SOL     OW 7838   3.162   4.177   0.691
 2608SOL    HW1 7839   3.103   4.257   0.695
 2608SOL    HW2 7840   3.177   4.142   0.784
 2609SOL     OW 7841   3.455   3.945   0.882
 2609SOL    HW1 7842   3.371   3.944   0.936
 2609SOL    HW2 7843   3.457   4.028   0.826
 2610SOL     OW 7844   1.901   4.801   0.300
 2610SOL    HW1 7845   2.000   4.790   0.291
 2610SOL    HW2 7846   1.861   4.715   0.332
 2611SOL     OW 7847   2.092   4.352   1.975
 2611SOL    HW1 7848   1.999   4.350   2.012
 2611SOL    HW2 7849   2.093   4.313   1.883
 2612SOL     OW 7850   2.087   3.999   2.858
 2612SOL    HW1 7851   2.122   3.982   2.950
 2612SOL    HW2 7852   1.999   3.954   2.846
 2613SOL     OW 7853   1.881   4.092   2.509
 2613SOL    HW1 7854   1.799   4.135   2.548
 2613SOL    HW2 7855   1.853   4.019   2.446
 2614SOL     OW 7856   2.997   4.427   2.579
 2614SOL    HW1 7857   3.054   4.505   2.554
 2614SOL    HW2 7858   2.937   4.453   2.655
 2615SOL     OW 7859   3.617   4.331   2.093
 2615SOL    HW1 7860   3.605   4.318   1.994
 2615SOL    HW2 7861   3.587   4.250   2.142
 2616SOL     OW 7862   2.630   4.868   2.885
 2616SOL    HW1 7863   2.552   4.885   2.945
 2616SOL    HW2 7864   2.664   4.955   2.849
 2617SOL     OW 7865   2.712   4.522   3.685
 2617SOL    HW1 7866   2.708   4.598   3.750
 2617SOL    HW2 7867   2.734   4.558   3.594
 2618SOL     OW 7868   2.547   4.736   2.527
 2618SOL    HW1 7869   2.616   4.720   2.597
 2618SOL    HW2 7870   2.474   4.793   2.565
 2619SOL     OW 7871   2.300   4.116   3.361
 2619SOL    HW1 7872   2.382   4.060   3.370
 2619SOL    HW2 7873   2.219   4.058   3.365
 2620SOL     OW 7874   3.465   4.171   2.599
 2620SOL    HW1 7875   3.391   4.217   2.549
 2620SOL    HW2 7876   3.516   4.239   2.652
 2621SOL     OW 7877   2.102   4.815   2.748
 2621SOL    HW1 7878   2.116   4.731   2.800
 2621SOL    HW2 7879   2.047   4.879   2.803
 2622SOL     OW 7880   3.456   3.838   3.342
 2622SOL    HW1 7881   3.438   3.905   3.270
 2622SOL    HW2 7882   3.453   3.884   3.431
 2623SOL     OW 7883   1.984   4.367   2.425
 2623SOL    HW1 7884   1.939   4.279   2.442
 2623SOL    HW2 7885   1.983   4.421   2.509
 2624SOL     OW 7886   1.975   4.461   3.459
 2624SOL    HW1 7887   2.063   4.448   3.504
 2624SOL    HW2 7888   1.962   4.558   3.437
 2625SOL     OW 7889   2.671   3.728   2.364
 2625SOL    HW1 7890   2.711   3.819   2.355
 2625SOL    HW2 7891   2.571   3.736   2.370
 2626SOL     OW 7892   2.059   4.700   3.126
 2626SOL    HW1 7893   2.148   4.655   3.112
 2626SOL    HW2 7894   1.986   4.635   3.107
 2627SOL     OW 7895   3.387   4.723   2.052
 2627SOL    HW1 7896   3.324   4.647   2.065
 2627SOL    HW2 7897   3.435   4.741   2.138
 2628SOL     OW 7898   2.179   3.975   3.663
 2628SOL    HW1 7899   2.250   4.046   3.669
 2628SOL    HW2 7900   2.091   4.014   3.691
 2629SOL     OW 7901   2.460   4.453   2.132
 2629SOL    HW1 7902   2.484   4.522   2.064
 2629SOL    HW2 7903   2.382   4.486   2.186
 2630SOL     OW 7904   3.143   4.069   2.806
 2630SOL    HW1 7905   3.057   4.019   2.793
 2630SOL    HW2 7906   3.205   4.015   2.862
 2631SOL     OW 7907   2.669   4.329   3.327
 2631SOL    HW1 7908   2.622   4.326   3.416
 2631SOL    HW2 7909   2.618   4.274   3.261
 2632SOL     OW 7910   3.256   4.193   3.536
 2632SOL    HW1 7911   3.236   4.236   3.624
 2632SOL    HW2 7912   3.334   4.131   3.545
 2633SOL     OW 7913   2.835   4.614   3.434
 2633SOL    HW1 7914   2.881   4.530   3.405
 2633SOL    HW2 7915   2.779   4.648   3.359
 2634SOL     OW 7916   2.853   4.134   3.104
 2634SOL    HW1 7917   2.776   4.168   3.158
 2634SOL    HW2 7918   2.819   4.083   3.025
 2635SOL     OW 7919   2.903   4.425   2.291
 2635SOL    HW1 7920   2.929   4.421   2.387
 2635SOL    HW2 7921   2.818   4.374   2.277
 2636SOL     OW 7922   1.938   4.535   2.651
 2636SOL    HW1 7923   2.037   4.523   2.660
 2636SOL    HW2 7924   1.914   4.630   2.672
 2637SOL     OW 7925   2.727   4.072   2.057
 2637SOL    HW1 7926   2.786   4.135   2.008
 2637SOL    HW2 7927   2.746   3.978   2.028
 2638SOL     OW 7928   3.581   4.309   3.693
 2638SOL    HW1 7929   3.555   4.398   3.657
 2638SOL    HW2 7930   3.579   4.241   3.620
 2639SOL     OW 7931   2.412   3.920   2.747
 2639SOL    HW1 7932   2.407   3.915   2.847
 2639SOL    HW2 7933   2.414   4.016   2.718
 2640SOL     OW 7934   3.320   4.459   2.590
 2640SOL    HW1 7935   3.315   4.394   2.665
 2640SOL    HW2 7936   3.400   4.518   2.603
 2641SOL     OW 7937   2.064   4.009   3.360
 2641SOL    HW1 7938   1.984   4.069   3.347
 2641SOL    HW2 7939   2.054   3.960   3.446
 2642SOL     OW 7940   3.262   3.831   2.288
 2642SOL    HW1 7941   3.238   3.794   2.198
 2642SOL    HW2 7942   3.361   3.847   2.292
 2643SOL     OW 7943   2.244   4.424   2.342
 2643SOL    HW1 7944   2.289   4.334   2.339
 2643SOL    HW2 7945   2.150   4.413   2.375
 2644SOL     OW 7946   3.409   3.946   3.591
 2644SOL    HW1 7947   3.404   3.983   3.683
 2644SOL    HW2 7948   3.337   3.877   3.579
 2645SOL     OW 7949   2.476   3.846   1.979
 2645SOL    HW1 7950   2.574   3.824   1.986
 2645SOL    HW2 7951   2.445   3.829   1.886
 2646SOL     OW 7952   2.643   3.988   3.611
 2646SOL    HW1 7953   2.710   3.927   3.654
 2646SOL    HW2 7954   2.570   4.007   3.676
 2647SOL     OW 7955   3.213   4.314   3.295
 2647SOL    HW1 7956   3.241   4.271   3.380
 2647SOL    HW2 7957   3.238   4.410   3.296
 2648SOL     OW 7958   2.784   4.227   2.761
 2648SOL    HW1 7959   2.759   4.218   2.665
 2648SOL    HW2 7960   2.832   4.145   2.792
 2649SOL     OW 7961   2.401   3.788   2.374
 2649SOL    HW1 7962   2.320   3.789   2.432
 2649SOL    HW2 7963   2.404   3.871   2.319
 2650SOL     OW 7964   2.159   3.759   2.033
 2650SOL    HW1 7965   2.208   3.843   2.012
 2650SOL    HW2 7966   2.221   3.694   2.078
 2651SOL     OW 7967   2.797   3.960   2.342
 2651SOL    HW1 7968   2.749   4.001   2.264
 2651SOL    HW2 7969   2.896   3.958   2.323
 2652SOL     OW 7970   2.938   4.407   3.326
 2652SOL    HW1 7971   2.858   4.346   3.329
 2652SOL    HW2 7972   3.019   4.354   3.302
 2653SOL     OW 7973   2.894   4.273   1.878
 2653SOL    HW1 7974   2.853   4.355   1.839
 2653SOL    HW2 7975   2.958   4.299   1.951
 2654SOL     OW 7976   1.940   4.280   3.248
 2654SOL    HW1 7977   2.032   4.279   3.207
 2654SOL    HW2 7978   1.934   4.354   3.315
 2655SOL     OW 7979   2.423   3.946   3.009
 2655SOL    HW1 7980   2.461   3.862   3.046
 2655SOL    HW2 7981   2.335   3.965   3.053
 2656SOL     OW 7982   2.728   4.178   2.504
 2656SOL    HW1 7983   2.696   4.250   2.442
 2656SOL    HW2 7984   2.752   4.097   2.451
 2657SOL     OW 7985   2.879   3.763   2.615
 2657SOL    HW1 7986   2.807   3.768   2.546
 2657SOL    HW2 7987   2.855   3.694   2.684
 2658SOL     OW 7988   3.291   4.897   2.729
 2658SOL    HW1 7989   3.236   4.813   2.722
 2658SOL    HW2 7990   3.317   4.926   2.637
 2659SOL     OW 7991   3.328   4.314   2.854
 2659SOL    HW1 7992   3.298   4.219   2.861
 2659SOL    HW2 7993   3.401   4.330   2.920
 2660SOL     OW 7994   3.719   4.557   2.239
 2660SOL    HW1 7995   3.761   4.493   2.303
 2660SOL    HW2 7996   3.681   4.506   2.161
 2661SOL     OW 7997   3.252   4.299   1.940
 2661SOL    HW1 7998   3.198   4.278   2.021
 2661SOL    HW2 7999   3.343   4.258   1.949
 2662SOL     OW 8000   2.389   3.980   2.190
 2662SOL    HW1 8001   2.416   3.921   2.115
 2662SOL    HW2 8002   2.389   4.075   2.159
 2663SOL     OW 8003   3.500   4.823   2.941
 2663SOL    HW1 8004   3.505   4.904   3.000
 2663SOL    HW2 8005   3.414   4.825   2.890
 2664SOL     OW 8006   2.777   3.813   3.264
 2664SOL    HW1 8007   2.802   3.793   3.169
 2664SOL    HW2 8008   2.849   3.869   3.306
 2665SOL     OW 8009   2.272   4.537   3.113
 2665SOL    HW1 8010   2.358   4.549   3.163
 2665SOL    HW2 8011   2.230   4.450   3.140
 2666SOL     OW 8012   3.136   4.110   3.124
 2666SOL    HW1 8013   3.157   4.184   3.188
 2666SOL    HW2 8014   3.047   4.127   3.081
 2667SOL     OW 8015   2.428   4.261   2.727
 2667SOL    HW1 8016   2.440   4.327   2.653
 2667SOL    HW2 8017   2.474   4.295   2.810
 2668SOL     OW 8018   3.444   4.363   2.334
 2668SOL    HW1 8019   3.413   4.424   2.407
 2668SOL    HW2 8020   3.494   4.415   2.265
 2669SOL     OW 8021   2.264   4.475   3.460
 2669SOL    HW1 8022   2.332   4.530   3.413
 2669SOL    HW2 8023   2.304   4.387   3.487
 2670SOL     OW 8024   3.449   4.503   3.532
 2670SOL    HW1 8025   3.357   4.541   3.527
 2670SOL    HW2 8026   3.509   4.550   3.467
 2671SOL     OW 8027   2.875   3.829   3.632
 2671SOL    HW1 8028   2.881   3.914   3.580
 2671SOL    HW2 8029   2.907   3.753   3.575
 2672SOL     OW 8030   2.366   3.774   3.602
 2672SOL    HW1 8031   2.324   3.717   3.532
 2672SOL    HW2 8032   2.300   3.843   3.634
 2673SOL     OW 8033   2.435   4.594   2.891
 2673SOL    HW1 8034   2.479   4.683   2.882
 2673SOL    HW2 8035   2.372   4.594   2.968
 2674SOL     OW 8036   3.222   4.586   2.907
 2674SOL    HW1 8037   3.147   4.586   2.841
 2674SOL    HW2 8038   3.259   4.494   2.916
 2675SOL     OW 8039   3.071   4.249   2.137
 2675SOL    HW1 8040   3.084   4.165   2.191
 2675SOL    HW2 8041   3.042   4.323   2.197
 2676SOL     OW 8042   2.169   3.937   3.093
 2676SOL    HW1 8043   2.146   3.974   3.183
 2676SOL    HW2 8044   2.139   3.842   3.087
 2677SOL     OW 8045   2.594   4.358   2.926
 2677SOL    HW1 8046   2.653   4.332   2.850
 2677SOL    HW2 8047   2.566   4.454   2.915
 2678SOL     OW 8048   3.590   4.659   3.716
 2678SOL    HW1 8049   3.544   4.652   3.627
 2678SOL    HW2 8050   3.528   4.703   3.782
 2679SOL     OW 8051   2.169   3.787   2.480
 2679SOL    HW1 8052   2.158   3.881   2.513
 2679SOL    HW2 8053   2.164   3.724   2.557
 2680SOL     OW 8054   3.484   4.091   2.236
 2680SOL    HW1 8055   3.486   4.015   2.300
 2680SOL    HW2 8056   3.436   4.168   2.276
 2681SOL     OW 8057   2.885   4.490   2.828
 2681SOL    HW1 8058   2.900   4.511   2.924
 2681SOL    HW2 8059   2.855   4.395   2.819
 2682SOL     OW 8060   2.212   4.622   3.666
 2682SOL    HW1 8061   2.288   4.666   3.714
 2682SOL    HW2 8062   2.247   4.575   3.584
 2683SOL     OW 8063   3.402   3.998   1.987
 2683SOL    HW1 8064   3.341   3.923   2.010
 2683SOL    HW2 8065   3.424   4.050   2.070
 2684SOL     OW 8066   3.165   4.562   1.904
 2684SOL    HW1 8067   3.199   4.469   1.919
 2684SOL    HW2 8068   3.183   4.589   1.809
 2685SOL     OW 8069   2.181   4.534   2.811
 2685SOL    HW1 8070   2.274   4.570   2.816
 2685SOL    HW2 8071   2.175   4.449   2.863
 2686SOL     OW 8072   2.201   4.233   2.868
 2686SOL    HW1 8073   2.149   4.150   2.851
 2686SOL    HW2 8074   2.278   4.238   2.804
 2687SOL     OW 8075   3.000   4.104   3.540
 2687SOL    HW1 8076   2.955   4.167   3.604
 2687SOL    HW2 8077   3.093   4.135   3.523
 2688SOL     OW 8078   3.022   3.931   3.339
 2688SOL    HW1 8079   3.022   3.995   3.416
 2688SOL    HW2 8080   3.050   3.979   3.256
 2689SOL     OW 8081   2.864   4.520   3.100
 2689SOL    HW1 8082   2.905   4.488   3.186
 2689SOL    HW2 8083   2.768   4.493   3.097
 2690SOL     OW 8084   1.902   4.268   2.976
 2690SOL    HW1 8085   1.987   4.235   2.935
 2690SOL    HW2 8086   1.915   4.283   3.074
 2691SOL     OW 8087   2.051   4.244   3.584
 2691SOL    HW1 8088   2.110   4.204   3.514
 2691SOL    HW2 8089   1.993   4.315   3.543
 2692SOL     OW 8090   3.231   4.674   3.522
 2692SOL    HW1 8091   3.270   4.763   3.542
 2692SOL    HW2 8092   3.241   4.654   3.425
 2693SOL     OW 8093   2.677   4.296   2.187
 2693SOL    HW1 8094   2.684   4.207   2.141
 2693SOL    HW2 8095   2.583   4.330   2.179
 2694SOL     OW 8096   3.519   4.328   3.068
 2694SOL    HW1 8097   3.481   4.259   3.130
 2694SOL    HW2 8098   3.601   4.292   3.024
 2695SOL     OW 8099   2.533   4.188   3.131
 2695SOL    HW1 8100   2.499   4.099   3.101
 2695SOL    HW2 8101   2.559   4.242   3.051
 2696SOL     OW 8102   2.335   4.224   2.053
 2696SOL    HW1 8103   2.396   4.304   2.057
 2696SOL    HW2 8104   2.240   4.255   2.060
 2697SOL     OW 8105   2.021   4.861   3.328
 2697SOL    HW1 8106   2.043   4.800   3.404
 2697SOL    HW2 8107   2.031   4.812   3.242
 2698SOL     OW 8108   3.209   4.783   3.096
 2698SOL    HW1 8109   3.233   4.720   3.022
 2698SOL    HW2 8110   3.119   4.823   3.078
 2699SOL     OW 8111   3.164   4.579   2.171
 2699SOL    HW1 8112   3.078   4.548   2.213
 2699SOL    HW2 8113   3.160   4.565   2.072
 2700SOL     OW 8114   3.588   3.859   2.385
 2700SOL    HW1 8115   3.661   3.842   2.318
 2700SOL    HW2 8116   3.557   3.772   2.423
 2701SOL     OW 8117   3.142   4.651   2.534
 2701SOL    HW1 8118   3.202   4.570   2.536
 2701SOL    HW2 8119   3.182   4.720   2.474
 2702SOL     OW 8120   3.703   3.899   2.825
 2702SOL    HW1 8121   3.742   3.814   2.789
 2702SOL    HW2 8122   3.605   3.901   2.806
 2703SOL     OW 8123   2.125   4.050   2.582
 2703SOL    HW1 8124   2.046   4.101   2.548
 2703SOL    HW2 8125   2.116   4.035   2.680
 2704SOL     OW 8126   2.778   4.634   2.153
 2704SOL    HW1 8127   2.841   4.672   2.085
 2704SOL    HW2 8128   2.818   4.551   2.192
 2705SOL     OW 8129   2.876   3.960   2.833
 2705SOL    HW1 8130   2.868   3.924   2.740
 2705SOL    HW2 8131   2.874   3.884   2.898
 2706SOL     OW 8132   3.571   4.109   3.243
 2706SOL    HW1 8133   3.644   4.178   3.247
 2706SOL    HW2 8134   3.599   4.034   3.184
 2707SOL     OW 8135   1.967   4.737   3.588
 2707SOL    HW1 8136   1.890   4.704   3.642
 2707SOL    HW2 8137   2.052   4.707   3.630
 2708SOL     OW 8138   2.534   3.927   3.351
 2708SOL    HW1 8139   2.624   3.911   3.311
 2708SOL    HW2 8140   2.542   3.932   3.450
 2709SOL     OW 8141   1.937   4.069   1.895
 2709SOL    HW1 8142   1.845   4.041   1.866
 2709SOL    HW2 8143   1.968   4.146   1.839
 2710SOL     OW 8144   3.302   4.580   3.260
 2710SOL    HW1 8145   3.245   4.632   3.197
 2710SOL    HW2 8146   3.398   4.592   3.236
 2711SOL     OW 8147   1.934   3.890   2.180
 2711SOL    HW1 8148   1.917   3.973   2.126
 2711SOL    HW2 8149   2.024   3.853   2.158
 2712SOL     OW 8150   3.045   5.059   1.981
 2712SOL    HW1 8151   2.946   5.048   1.983
 2712SOL    HW2 8152   3.079   5.074   2.074
 2713SOL     OW 8153   2.475   4.566   3.293
 2713SOL    HW1 8154   2.531   4.647   3.276
 2713SOL    HW2 8155   2.534   4.486   3.296
 2714SOL     OW 8156   2.578   4.289   3.570
 2714SOL    HW1 8157   2.597   4.354   3.644
 2714SOL    HW2 8158   2.638   4.209   3.579
 2715SOL     OW 8159   3.536   4.607   3.116
 2715SOL    HW1 8160   3.509   4.518   3.079
 2715SOL    HW2 8161   3.537   4.675   3.043
 2716SOL     OW 8162   3.087   4.049   2.311
 2716SOL    HW1 8163   3.152   3.975   2.300
 2716SOL    HW2 8164   3.107   4.099   2.395
 2717SOL     OW 8165   2.456   4.469   2.514
 2717SOL    HW1 8166   2.506   4.554   2.495
 2717SOL    HW2 8167   2.368   4.471   2.466
 2718SOL     OW 8168   3.639   4.066   3.504
 2718SOL    HW1 8169   3.622   4.097   3.410
 2718SOL    HW2 8170   3.555   4.029   3.542
 2719SOL     OW 8171   3.592   4.658   3.379
 2719SOL    HW1 8172   3.630   4.749   3.394
 2719SOL    HW2 8173   3.584   4.641   3.280
 2720SOL     OW 8174   2.721   4.680   2.723
 2720SOL    HW1 8175   2.775   4.611   2.771
 2720SOL    HW2 8176   2.689   4.749   2.789
 2721SOL     OW 8177   2.945   4.708   1.949
 2721SOL    HW1 8178   2.922   4.761   1.867
 2721SOL    HW2 8179   3.026   4.652   1.930
 2722SOL     OW 8180   1.941   4.964   2.515
 2722SOL    HW1 8181   1.940   4.917   2.603
 2722SOL    HW2 8182   2.023   4.936   2.464
 2723SOL     OW 8183   3.686   3.916   3.089
 2723SOL    HW1 8184   3.682   3.826   3.133
 2723SOL    HW2 8185   3.689   3.905   2.990
 2724SOL     OW 8186   2.290   4.148   2.382
 2724SOL    HW1 8187   2.320   4.076   2.320
 2724SOL    HW2 8188   2.251   4.108   2.465
 2725SOL     OW 8189   2.179   4.271   3.142
 2725SOL    HW1 8190   2.217   4.212   3.214
 2725SOL    HW2 8191   2.219   4.245   3.054
 2726SOL     OW 8192   3.286   3.938   2.974
 2726SOL    HW1 8193   3.338   3.873   3.029
 2726SOL    HW2 8194   3.237   4.001   3.035
 2727SOL     OW 8195   2.863   3.758   3.016
 2727SOL    HW1 8196   2.800   3.686   2.985
 2727SOL    HW2 8197   2.956   3.722   3.016
 2728SOL     OW 8198   3.214   3.776   2.030
 2728SOL    HW1 8199   3.249   3.735   1.946
 2728SOL    HW2 8200   3.124   3.738   2.050
 2729SOL     OW 8201   3.162   4.177   2.553
 2729SOL    HW1 8202   3.103   4.257   2.557
 2729SOL    HW2 8203   3.177   4.142   2.646
 2730SOL     OW 8204   3.455   3.945   2.744
 2730SOL    HW1 8205   3.371   3.944   2.798
 2730SOL    HW2 8206   3.457   4.028   2.688
 2731SOL     OW 8207   2.092   4.352   3.837
 2731SOL    HW1 8208   1.999   4.350   3.874
 2731SOL    HW2 8209   2.093   4.313   3.745
 2732SOL     OW 8210   2.087   3.999   4.720
 2732SOL    HW1 8211   2.122   3.982   4.812
 2732SOL    HW2 8212   1.999   3.954   4.708
 2733SOL     OW 8213   1.881   4.092   4.371
 2733SOL    HW1 8214   1.799   4.135   4.410
 2733SOL    HW2 8215   1.853   4.019   4.308
 2734SOL     OW 8216   2.997   4.427   4.441
 2734SOL    HW1 8217   3.054   4.505   4.416
 2734SOL    HW2 8218   2.937   4.453   4.517
 2735SOL     OW 8219   3.617   4.331   3.955
 2735SOL    HW1 8220   3.605   4.318   3.856
 2735SOL    HW2 8221   3.587   4.250   4.004
 2736SOL     OW 8222   2.547   4.736   4.389
 2736SOL    HW1 8223   2.616   4.720   4.459
 2736SOL    HW2 8224   2.474   4.793   4.427
 2737SOL     OW 8225   3.465   4.171   4.461
 2737SOL    HW1 8226   3.391   4.217   4.411
 2737SOL    HW2 8227   3.516   4.239   4.514
 2738SOL     OW 8228   2.102   4.815   4.610
 2738SOL    HW1 8229   2.116   4.731   4.662
 2738SOL    HW2 8230   2.047   4.879   4.665
 2739SOL     OW 8231   1.984   4.367   4.287
 2739SOL    HW1 8232   1.939   4.279   4.304
 2739SOL    HW2 8233   1.983   4.421   4.371
 2740SOL     OW 8234   2.671   3.728   4.226
 2740SOL    HW1 8235   2.711   3.819   4.217
 2740SOL    HW2 8236   2.571   3.736   4.232
 2741SOL     OW 8237   3.387   4.723   3.914
 2741SOL    HW1 8238   3.324   4.647   3.927
 2741SOL    HW2 8239   3.435   4.741   4.000
 2742SOL     OW 8240   2.460   4.453   3.994
 2742SOL    HW1 8241   2.484   4.522   3.926
 2742SOL    HW2 8242   2.382   4.486   4.048
 2743SOL     OW 8243   3.143   4.069   4.668
 2743SOL    HW1 8244   3.057   4.019   4.655
 2743SOL    HW2 8245   3.205   4.015   4.724
 2744SOL     OW 8246   2.903   4.425   4.153
 2744SOL    HW1 8247   2.929   4.421   4.249
 2744SOL    HW2 8248   2.818   4.374   4.139
 2745SOL     OW 8249   1.938   4.535   4.513
 2745SOL    HW1 8250   2.037   4.523   4.522
 2745SOL    HW2 8251   1.914   4.630   4.534
 2746SOL     OW 8252   2.727   4.072   3.919
 2746SOL    HW1 8253   2.786   4.135   3.870
 2746SOL    HW2 8254   2.746   3.978   3.890
 2747SOL     OW 8255   2.412   3.920   4.609
 2747SOL    HW1 8256   2.407   3.915   4.709
 2747SOL    HW2 8257   2.414   4.016   4.580
 2748SOL     OW 8258   3.320   4.459   4.452
 2748SOL    HW1 8259   3.315   4.394   4.527
 2748SOL    HW2 8260   3.400   4.518   4.465
 2749SOL     OW 8261   3.262   3.831   4.150
 2749SOL    HW1 8262   3.238   3.794   4.060
 2749SOL    HW2 8263   3.361   3.847   4.154
 2750SOL     OW 8264   2.244   4.424   4.204
 2750SOL    HW1 8265   2.289   4.334   4.201
 2750SOL    HW2 8266   2.150   4.413   4.237
 2751SOL     OW 8267   2.476   3.846   3.841
 2751SOL    HW1 8268   2.574   3.824   3.848
 2751SOL    HW2 8269   2.445   3.829   3.748
 2752SOL     OW 8270   2.784   4.227   4.623
 2752SOL    HW1 8271   2.759   4.218   4.527
 2752SOL    HW2 8272   2.832   4.145   4.654
 2753SOL     OW 8273   2.401   3.788   4.236
 2753SOL    HW1 8274   2.320   3.789   4.294
 2753SOL    HW2 8275   2.404   3.871   4.181
 2754SOL     OW 8276   2.159   3.759   3.895
 2754SOL    HW1 8277   2.208   3.843   3.874
 2754SOL    HW2 8278   2.221   3.694   3.940
 2755SOL     OW 8279   2.797   3.960   4.204
 2755SOL    HW1 8280   2.749   4.001   4.126
 2755SOL    HW2 8281   2.896   3.958   4.185
 2756SOL     OW 8282   2.894   4.273   3.740
 2756SOL    HW1 8283   2.853   4.355   3.701
 2756SOL    HW2 8284   2.958   4.299   3.813
 2757SOL     OW 8285   2.728   4.178   4.366
 2757SOL    HW1 8286   2.696   4.250   4.304
 2757SOL    HW2 8287   2.752   4.097   4.313
 2758SOL     OW 8288   2.879   3.763   4.477
 2758SOL    HW1 8289   2.807   3.768   4.408
 2758SOL    HW2 8290   2.855   3.694   4.546
 2759SOL     OW 8291   3.291   4.897   4.591
 2759SOL    HW1 8292   3.236   4.813   4.584
 2759SOL    HW2 8293   3.317   4.926   4.499
 2760SOL     OW 8294   3.328   4.314   4.716
 2760SOL    HW1 8295   3.298   4.219   4.723
 2760SOL    HW2 8296   3.401   4.330   4.782
 2761SOL     OW 8297   3.719   4.557   4.101
 2761SOL    HW1 8298   3.761   4.493   4.165
 2761SOL    HW2 8299   3.681   4.506   4.023
 2762SOL     OW 8300   3.252   4.299   3.802
 2762SOL    HW1 8301   3.198   4.278   3.883
 2762SOL    HW2 8302   3.343   4.258   3.811
 2763SOL     OW 8303   2.389   3.980   4.052
 2763SOL    HW1 8304   2.416   3.921   3.977
 2763SOL    HW2 8305   2.389   4.075   4.021
 2764SOL     OW 8306   3.500   4.823   4.803
 2764SOL    HW1 8307   3.505   4.904   4.862
 2764SOL    HW2 8308   3.414   4.825   4.752
 2765SOL     OW 8309   2.428   4.261   4.589
 2765SOL    HW1 8310   2.440   4.327   4.515
 2765SOL    HW2 8311   2.474   4.295   4.672
 2766SOL     OW 8312   3.444   4.363   4.196
 2766SOL    HW1 8313   3.413   4.424   4.269
 2766SOL    HW2 8314   3.494   4.415   4.127
 2767SOL     OW 8315   2.435   4.594   4.753
 2767SOL    HW1 8316   2.479   4.683   4.744
 2767SOL    HW2 8317   2.372   4.594   4.830
 2768SOL     OW 8318   3.071   4.249   3.999
 2768SOL    HW1 8319   3.084   4.165   4.053
 2768SOL    HW2 8320   3.042   4.323   4.059
 2769SOL     OW 8321   2.169   3.937   4.955
 2769SOL    HW1 8322   2.146   3.974   5.045
 2769SOL    HW2 8323   2.139   3.842   4.949
 2770SOL     OW 8324   2.594   4.358   4.788
 2770SOL    HW1 8325   2.653   4.332   4.712
 2770SOL    HW2 8326   2.566   4.454   4.777
 2771SOL     OW 8327   2.169   3.787   4.342
 2771SOL    HW1 8328   2.158   3.881   4.375
 2771SOL    HW2 8329   2.164   3.724   4.419
 2772SOL     OW 8330   3.484   4.091   4.098
 2772SOL    HW1 8331   3.486   4.015   4.162
 2772SOL    HW2 8332   3.436   4.168   4.138
 2773SOL     OW 8333   3.402   3.998   3.849
 2773SOL    HW1 8334   3.341   3.923   3.872
 2773SOL    HW2 8335   3.424   4.050   3.932
 2774SOL     OW 8336   3.165   4.562   3.766
 2774SOL    HW1 8337   3.199   4.469   3.781
 2774SOL    HW2 8338   3.183   4.589   3.671
 2775SOL     OW 8339   2.181   4.534   4.673
 2775SOL    HW1 8340   2.274   4.570   4.678
 2775SOL    HW2 8341   2.175   4.449   4.725
 2776SOL     OW 8342   2.201   4.233   4.730
 2776SOL    HW1 8343   2.149   4.150   4.713
 2776SOL    HW2 8344   2.278   4.238   4.666
 2777SOL     OW 8345   2.677   4.296   4.049
 2777SOL    HW1 8346   2.684   4.207   4.003
 2777SOL    HW2 8347   2.583   4.330   4.041
 2778SOL     OW 8348   2.533   4.188   4.993
 2778SOL    HW1 8349   2.499   4.099   4.963
 2778SOL    HW2 8350   2.559   4.242   4.913
 2779SOL     OW 8351   2.335   4.224   3.915
 2779SOL    HW1 8352   2.396   4.304   3.919
 2779SOL    HW2 8353   2.240   4.255   3.922
 2780SOL     OW 8354   3.164   4.579   4.033
 2780SOL    HW1 8355   3.078   4.548   4.075
 2780SOL    HW2 8356   3.160   4.565   3.934
 2781SOL     OW 8357   3.588   3.859   4.247
 2781SOL    HW1 8358   3.661   3.842   4.180
 2781SOL    HW2 8359   3.557   3.772   4.285
 2782SOL     OW 8360   3.142   4.651   4.396
 2782SOL    HW1 8361   3.202   4.570   4.398
 2782SOL    HW2 8362   3.182   4.720   4.336
 2783SOL     OW 8363   3.703   3.899   4.687
 2783SOL    HW1 8364   3.742   3.814   4.651
 2783SOL    HW2 8365   3.605   3.901   4.668
 2784SOL     OW 8366   2.125   4.050   4.444
 2784SOL    HW1 8367   2.046   4.101   4.410
 2784SOL    HW2 8368   2.116   4.035   4.542
 2785SOL     OW 8369   2.778   4.634   4.015
 2785SOL    HW1 8370   2.841   4.672   3.947
 2785SOL    HW2 8371   2.818   4.551   4.054
 2786SOL     OW 8372   1.937   4.069   3.757
 2786SOL    HW1 8373   1.845   4.041   3.728
 2786SOL    HW2 8374   1.968   4.146   3.701
 2787SOL     OW 8375   1.934   3.890   4.042
 2787SOL    HW1 8376   1.917   3.973   3.988
 2787SOL    HW2 8377   2.024   3.853   4.020
 2788SOL     OW 8378   3.045   5.059   3.843
 2788SOL    HW1 8379   2.946   5.048   3.845
 2788SOL    HW2 8380   3.079   5.074   3.936
 2789SOL     OW 8381   3.536   4.607   4.978
 2789SOL    HW1 8382   3.509   4.518   4.941
 2789SOL    HW2 8383   3.537   4.675   4.905
 2790SOL     OW 8384   3.087   4.049   4.173
 2790SOL    HW1 8385   3.152   3.975   4.162
 2790SOL    HW2 8386   3.107   4.099   4.257
 2791SOL     OW 8387   2.456   4.469   4.376
 2791SOL    HW1 8388   2.506   4.554   4.357
 2791SOL    HW2 8389   2.368   4.471   4.328
 2792SOL     OW 8390   2.721   4.680   4.585
 2792SOL    HW1 8391   2.775   4.611   4.633
 2792SOL    HW2 8392   2.689   4.749   4.651
 2793SOL     OW 8393   2.945   4.708   3.811
 2793SOL    HW1 8394   2.922   4.761   3.729
 2793SOL    HW2 8395   3.026   4.652   3.792
 2794SOL     OW 8396   1.941   4.964   4.377
 2794SOL    HW1 8397   1.940   4.917   4.465
 2794SOL    HW2 8398   2.023   4.936   4.326
 2795SOL     OW 8399   3.686   3.916   4.951
 2795SOL    HW1 8400   3.682   3.826   4.995
 2795SOL    HW2 8401   3.689   3.905   4.852
 2796SOL     OW 8402   2.290   4.148   4.244
 2796SOL    HW1 8403   2.320   4.076   4.182
 2796SOL    HW2 8404   2.251   4.108   4.327
 2797SOL     OW 8405   3.214   3.776   3.892
 2797SOL    HW1 8406   3.249   3.735   3.808
 2797SOL    HW2 8407   3.124   3.738   3.912
 2798SOL     OW 8408   3.162   4.177   4.415
 2798SOL    HW1 8409   3.103   4.257   4.419
 2798SOL    HW2 8410   3.177   4.142   4.508
 2799SOL     OW 8411   3.455   3.945   4.606
 2799SOL    HW1 8412   3.371   3.944   4.660
 2799SOL    HW2 8413   3.457   4.028   4.550
 2800SOL     OW 8414   3.954   0.628   0.113
 2800SOL    HW1 8415   3.861   0.626   0.150
 2800SOL    HW2 8416   3.955   0.589   0.021
 2801SOL     OW 8417   3.949   0.275   0.996
 2801SOL    HW1 8418   3.984   0.258   1.088
 2801SOL    HW2 8419   3.861   0.230   0.984
 2802SOL     OW 8420   3.743   0.368   0.647
 2802SOL    HW1 8421   3.661   0.411   0.686
 2802SOL    HW2 8422   3.715   0.295   0.584
 2803SOL     OW 8423   4.293   1.275   1.165
 2803SOL    HW1 8424   4.200   1.268   1.128
 2803SOL    HW2 8425   4.304   1.364   1.209
 2804SOL     OW 8426   4.492   1.144   1.023
 2804SOL    HW1 8427   4.414   1.161   1.083
 2804SOL    HW2 8428   4.526   1.231   0.987
 2805SOL     OW 8429   4.574   0.798   1.823
 2805SOL    HW1 8430   4.570   0.874   1.888
 2805SOL    HW2 8431   4.596   0.834   1.732
 2806SOL     OW 8432   4.409   1.012   0.665
 2806SOL    HW1 8433   4.478   0.996   0.735
 2806SOL    HW2 8434   4.336   1.069   0.703
 2807SOL     OW 8435   4.410   1.161   1.803
 2807SOL    HW1 8436   4.470   1.240   1.817
 2807SOL    HW2 8437   4.324   1.192   1.762
 2808SOL     OW 8438   4.059   1.435   1.061
 2808SOL    HW1 8439   3.981   1.404   1.008
 2808SOL    HW2 8440   4.117   1.493   1.004
 2809SOL     OW 8441   4.162   0.392   1.499
 2809SOL    HW1 8442   4.244   0.336   1.508
 2809SOL    HW2 8443   4.081   0.334   1.503
 2810SOL     OW 8444   3.955   1.713   0.483
 2810SOL    HW1 8445   3.989   1.790   0.537
 2810SOL    HW2 8446   3.999   1.713   0.393
 2811SOL     OW 8447   3.954   1.434   0.538
 2811SOL    HW1 8448   3.928   1.530   0.538
 2811SOL    HW2 8449   3.883   1.380   0.583
 2812SOL     OW 8450   3.964   1.091   0.886
 2812SOL    HW1 8451   3.978   1.007   0.938
 2812SOL    HW2 8452   3.909   1.155   0.941
 2813SOL     OW 8453   4.344   1.786   1.439
 2813SOL    HW1 8454   4.252   1.769   1.474
 2813SOL    HW2 8455   4.372   1.878   1.465
 2814SOL     OW 8456   4.330   0.964   0.123
 2814SOL    HW1 8457   4.337   1.048   0.069
 2814SOL    HW2 8458   4.376   0.977   0.211
 2815SOL     OW 8459   3.846   0.643   0.563
 2815SOL    HW1 8460   3.801   0.555   0.580
 2815SOL    HW2 8461   3.845   0.697   0.647
 2816SOL     OW 8462   3.751   1.596   0.117
 2816SOL    HW1 8463   3.732   1.500   0.138
 2816SOL    HW2 8464   3.718   1.654   0.192
 2817SOL     OW 8465   3.837   0.737   1.597
 2817SOL    HW1 8466   3.925   0.724   1.642
 2817SOL    HW2 8467   3.824   0.834   1.575
 2818SOL     OW 8468   4.337   1.365   0.726
 2818SOL    HW1 8469   4.288   1.278   0.735
 2818SOL    HW2 8470   4.314   1.408   0.639
 2819SOL     OW 8471   4.533   0.004   0.502
 2819SOL    HW1 8472   4.573   0.095   0.493
 2819SOL    HW2 8473   4.433   0.012   0.508
 2820SOL     OW 8474   3.921   0.976   1.264
 2820SOL    HW1 8475   4.010   0.931   1.250
 2820SOL    HW2 8476   3.848   0.911   1.245
 2821SOL     OW 8477   4.041   0.251   1.801
 2821SOL    HW1 8478   4.112   0.322   1.807
 2821SOL    HW2 8479   3.953   0.290   1.829
 2822SOL     OW 8480   4.322   0.729   0.270
 2822SOL    HW1 8481   4.346   0.798   0.202
 2822SOL    HW2 8482   4.244   0.762   0.324
 2823SOL     OW 8483   4.531   0.605   1.465
 2823SOL    HW1 8484   4.484   0.602   1.554
 2823SOL    HW2 8485   4.480   0.550   1.399
 2824SOL     OW 8486   4.697   0.890   1.572
 2824SOL    HW1 8487   4.743   0.806   1.543
 2824SOL    HW2 8488   4.641   0.924   1.497
 2825SOL     OW 8489   4.715   0.410   1.242
 2825SOL    HW1 8490   4.638   0.444   1.296
 2825SOL    HW2 8491   4.681   0.359   1.163
 2826SOL     OW 8492   3.800   0.811   0.789
 2826SOL    HW1 8493   3.899   0.799   0.798
 2826SOL    HW2 8494   3.776   0.906   0.810
 2827SOL     OW 8495   3.854   1.821   1.571
 2827SOL    HW1 8496   3.844   1.806   1.670
 2827SOL    HW2 8497   3.768   1.857   1.535
 2828SOL     OW 8498   4.589   0.348   0.195
 2828SOL    HW1 8499   4.648   0.411   0.146
 2828SOL    HW2 8500   4.608   0.254   0.166
 2829SOL     OW 8501   4.274   0.196   0.885
 2829SOL    HW1 8502   4.269   0.191   0.985
 2829SOL    HW2 8503   4.276   0.292   0.856
 2830SOL     OW 8504   4.732   1.456   0.477
 2830SOL    HW1 8505   4.686   1.528   0.425
 2830SOL    HW2 8506   4.728   1.476   0.575
 2831SOL     OW 8507   4.075   1.801   0.853
 2831SOL    HW1 8508   4.125   1.715   0.859
 2831SOL    HW2 8509   4.140   1.878   0.850
 2832SOL     OW 8510   4.045   0.943   0.242
 2832SOL    HW1 8511   4.127   0.982   0.200
 2832SOL    HW2 8512   4.018   0.861   0.193
 2833SOL     OW 8513   4.185   1.266   1.727
 2833SOL    HW1 8514   4.135   1.267   1.641
 2833SOL    HW2 8515   4.122   1.248   1.803
 2834SOL     OW 8516   3.926   0.285   1.498
 2834SOL    HW1 8517   3.846   0.345   1.485
 2834SOL    HW2 8518   3.916   0.236   1.584
 2835SOL     OW 8519   4.188   1.743   0.323
 2835SOL    HW1 8520   4.221   1.782   0.409
 2835SOL    HW2 8521   4.264   1.736   0.258
 2836SOL     OW 8522   3.973   1.785   1.241
 2836SOL    HW1 8523   4.030   1.720   1.291
 2836SOL    HW2 8524   3.957   1.752   1.148
 2837SOL     OW 8525   4.106   0.700   0.480
 2837SOL    HW1 8526   4.151   0.610   0.477
 2837SOL    HW2 8527   4.012   0.689   0.513
 2838SOL     OW 8528   4.338   0.122   0.117
 2838SOL    HW1 8529   4.436   0.100   0.124
 2838SOL    HW2 8530   4.307   0.105   0.024
 2839SOL     OW 8531   4.505   0.264   1.749
 2839SOL    HW1 8532   4.572   0.203   1.792
 2839SOL    HW2 8533   4.432   0.283   1.814
 2840SOL     OW 8534   4.612   1.514   1.195
 2840SOL    HW1 8535   4.589   1.489   1.101
 2840SOL    HW2 8536   4.673   1.445   1.234
 2841SOL     OW 8537   4.527   1.402   0.924
 2841SOL    HW1 8538   4.617   1.416   0.882
 2841SOL    HW2 8539   4.456   1.404   0.853
 2842SOL     OW 8540   4.646   0.503   0.899
 2842SOL    HW1 8541   4.621   0.494   0.803
 2842SOL    HW2 8542   4.694   0.421   0.930
 2843SOL     OW 8543   4.263   0.064   0.512
 2843SOL    HW1 8544   4.182   0.065   0.570
 2843SOL    HW2 8545   4.266   0.147   0.457
 2844SOL     OW 8546   4.021   0.035   0.171
 2844SOL    HW1 8547   4.070   0.119   0.150
 2844SOL    HW2 8548   4.083  -0.030   0.216
 2845SOL     OW 8549   4.659   0.236   0.480
 2845SOL    HW1 8550   4.611   0.277   0.402
 2845SOL    HW2 8551   4.758   0.234   0.461
 2846SOL     OW 8552   4.951   1.570   0.793
 2846SOL    HW1 8553   4.972   1.644   0.728
 2846SOL    HW2 8554   5.019   1.570   0.866
 2847SOL     OW 8555   4.183   1.152   0.741
 2847SOL    HW1 8556   4.112   1.125   0.806
 2847SOL    HW2 8557   4.157   1.124   0.648
 2848SOL     OW 8558   4.756   0.549   0.016
 2848SOL    HW1 8559   4.715   0.631  -0.023
 2848SOL    HW2 8560   4.820   0.575   0.089
 2849SOL     OW 8561   3.802   0.556   1.386
 2849SOL    HW1 8562   3.894   0.555   1.345
 2849SOL    HW2 8563   3.796   0.630   1.453
 2850SOL     OW 8564   4.285   0.222   1.147
 2850SOL    HW1 8565   4.323   0.138   1.184
 2850SOL    HW2 8566   4.197   0.241   1.191
 2851SOL     OW 8567   4.590   0.454   0.642
 2851SOL    HW1 8568   4.558   0.526   0.580
 2851SOL    HW2 8569   4.614   0.373   0.589
 2852SOL     OW 8570   4.741   0.039   0.753
 2852SOL    HW1 8571   4.669   0.044   0.684
 2852SOL    HW2 8572   4.717  -0.030   0.822
 2853SOL     OW 8573   4.212   1.385   0.174
 2853SOL    HW1 8574   4.125   1.370   0.221
 2853SOL    HW2 8575   4.195   1.411   0.079
 2854SOL     OW 8576   4.251   0.256   0.328
 2854SOL    HW1 8577   4.278   0.197   0.253
 2854SOL    HW2 8578   4.251   0.351   0.297
 2855SOL     OW 8579   4.639   0.089   1.402
 2855SOL    HW1 8580   4.664   0.069   1.307
 2855SOL    HW2 8581   4.711   0.145   1.444
 2856SOL     OW 8582   4.704   1.116   1.719
 2856SOL    HW1 8583   4.605   1.122   1.729
 2856SOL    HW2 8584   4.727   1.036   1.663
 2857SOL     OW 8585   4.429   1.050   0.368
 2857SOL    HW1 8586   4.415   1.057   0.467
 2857SOL    HW2 8587   4.513   0.999   0.350
 2858SOL     OW 8588   4.134   0.813   1.251
 2858SOL    HW1 8589   4.220   0.825   1.301
 2858SOL    HW2 8590   4.092   0.726   1.278
 2859SOL     OW 8591   3.788   1.564   1.331
 2859SOL    HW1 8592   3.742   1.646   1.297
 2859SOL    HW2 8593   3.886   1.583   1.340
 2860SOL     OW 8594   4.091   1.100   0.501
 2860SOL    HW1 8595   4.084   1.183   0.445
 2860SOL    HW2 8596   4.095   1.020   0.441
 2861SOL     OW 8597   4.290   0.537   0.865
 2861SOL    HW1 8598   4.302   0.603   0.791
 2861SOL    HW2 8599   4.336   0.571   0.948
 2862SOL     OW 8600   4.078   1.510   1.329
 2862SOL    HW1 8601   4.057   1.466   1.242
 2862SOL    HW2 8602   4.175   1.536   1.332
 2863SOL     OW 8603   4.126   0.751   1.598
 2863SOL    HW1 8604   4.194   0.806   1.551
 2863SOL    HW2 8605   4.166   0.663   1.625
 2864SOL     OW 8606   4.737   0.105   1.770
 2864SOL    HW1 8607   4.743   0.190   1.718
 2864SOL    HW2 8608   4.769   0.029   1.713
 2865SOL     OW 8609   4.228   0.050   1.740
 2865SOL    HW1 8610   4.186  -0.007   1.670
 2865SOL    HW2 8611   4.162   0.119   1.772
 2866SOL     OW 8612   4.297   0.870   1.029
 2866SOL    HW1 8613   4.341   0.959   1.020
 2866SOL    HW2 8614   4.234   0.870   1.106
 2867SOL     OW 8615   4.933   0.525   0.275
 2867SOL    HW1 8616   4.946   0.441   0.329
 2867SOL    HW2 8617   4.904   0.599   0.335
 2868SOL     OW 8618   4.031   0.213   1.231
 2868SOL    HW1 8619   4.008   0.250   1.321
 2868SOL    HW2 8620   4.001   0.118   1.225
 2869SOL     OW 8621   3.761   1.310   1.282
 2869SOL    HW1 8622   3.814   1.261   1.350
 2869SOL    HW2 8623   3.783   1.408   1.287
 2870SOL     OW 8624   4.456   0.634   1.064
 2870SOL    HW1 8625   4.515   0.608   0.988
 2870SOL    HW2 8626   4.428   0.730   1.053
 2871SOL     OW 8627   4.031   0.063   0.618
 2871SOL    HW1 8628   4.020   0.157   0.651
 2871SOL    HW2 8629   4.026   0.000   0.695
 2872SOL     OW 8630   4.747   0.766   0.966
 2872SOL    HW1 8631   4.762   0.787   1.062
 2872SOL    HW2 8632   4.717   0.671   0.957
 2873SOL     OW 8633   4.704   1.573   1.700
 2873SOL    HW1 8634   4.684   1.617   1.612
 2873SOL    HW2 8635   4.743   1.482   1.684
 2874SOL     OW 8636   4.074   0.898   1.804
 2874SOL    HW1 8637   4.150   0.942   1.852
 2874SOL    HW2 8638   4.109   0.851   1.722
 2875SOL     OW 8639   4.043   0.810   0.949
 2875SOL    HW1 8640   4.136   0.846   0.954
 2875SOL    HW2 8641   4.037   0.725   1.001
 2876SOL     OW 8642   4.063   0.509   1.006
 2876SOL    HW1 8643   4.011   0.426   0.989
 2876SOL    HW2 8644   4.140   0.514   0.942
 2877SOL     OW 8645   3.732   1.326   0.200
 2877SOL    HW1 8646   3.639   1.347   0.169
 2877SOL    HW2 8647   3.742   1.227   0.213
 2878SOL     OW 8648   3.812   1.801   0.927
 2878SOL    HW1 8649   3.770   1.715   0.900
 2878SOL    HW2 8650   3.906   1.804   0.893
 2879SOL     OW 8651   4.228   1.568   0.910
 2879SOL    HW1 8652   4.294   1.642   0.919
 2879SOL    HW2 8653   4.272   1.489   0.868
 2880SOL     OW 8654   4.726   0.796   1.238
 2880SOL    HW1 8655   4.767   0.764   1.324
 2880SOL    HW2 8656   4.630   0.769   1.235
 2881SOL     OW 8657   3.764   0.544   1.114
 2881SOL    HW1 8658   3.849   0.511   1.073
 2881SOL    HW2 8659   3.777   0.559   1.212
 2882SOL     OW 8660   3.913   0.520   1.722
 2882SOL    HW1 8661   3.972   0.480   1.652
 2882SOL    HW2 8662   3.855   0.591   1.681
 2883SOL     OW 8663   4.539   0.572   0.325
 2883SOL    HW1 8664   4.546   0.483   0.279
 2883SOL    HW2 8665   4.445   0.606   0.317
 2884SOL     OW 8666   3.976   1.564   1.744
 2884SOL    HW1 8667   3.946   1.621   1.820
 2884SOL    HW2 8668   3.969   1.467   1.770
 2885SOL     OW 8669   4.395   0.464   1.269
 2885SOL    HW1 8670   4.361   0.375   1.239
 2885SOL    HW2 8671   4.421   0.518   1.189
 2886SOL     OW 8672   4.654   1.678   1.465
 2886SOL    HW1 8673   4.630   1.660   1.370
 2886SOL    HW2 8674   4.684   1.772   1.475
 2887SOL     OW 8675   4.197   0.500   0.191
 2887SOL    HW1 8676   4.258   0.580   0.195
 2887SOL    HW2 8677   4.102   0.531   0.198
 2888SOL     OW 8678   3.883   1.137   1.466
 2888SOL    HW1 8679   3.905   1.076   1.542
 2888SOL    HW2 8680   3.893   1.088   1.380
 2889SOL     OW 8681   3.807   1.258   1.022
 2889SOL    HW1 8682   3.802   1.257   1.122
 2889SOL    HW2 8683   3.724   1.217   0.984
 2890SOL     OW 8684   4.412   1.662   1.716
 2890SOL    HW1 8685   4.356   1.743   1.725
 2890SOL    HW2 8686   4.464   1.666   1.630
 2891SOL     OW 8687   4.627   0.086   0.133
 2891SOL    HW1 8688   4.678   0.087   0.047
 2891SOL    HW2 8689   4.683   0.044   0.204
 2892SOL     OW 8690   3.854   1.794   1.851
 2892SOL    HW1 8691   3.813   1.720   1.904
 2892SOL    HW2 8692   3.918   1.845   1.909
 2893SOL     OW 8693   5.004   0.927   0.672
 2893SOL    HW1 8694   5.064   0.846   0.674
 2893SOL    HW2 8695   5.044   0.996   0.612
 2894SOL     OW 8696   4.554   1.273   1.422
 2894SOL    HW1 8697   4.549   1.306   1.517
 2894SOL    HW2 8698   4.468   1.292   1.376
 2895SOL     OW 8699   4.396   1.616   0.154
 2895SOL    HW1 8700   4.405   1.626   0.055
 2895SOL    HW2 8701   4.356   1.527   0.175
 2896SOL     OW 8702   3.987   0.326   0.720
 2896SOL    HW1 8703   3.908   0.377   0.686
 2896SOL    HW2 8704   3.978   0.311   0.818
 2897SOL     OW 8705   4.546   1.002   1.372
 2897SOL    HW1 8706   4.586   1.001   1.280
 2897SOL    HW2 8707   4.556   1.094   1.412
 2898SOL     OW 8708   4.640   0.910   0.291
 2898SOL    HW1 8709   4.703   0.948   0.223
 2898SOL    HW2 8710   4.680   0.827   0.330
 2899SOL     OW 8711   4.096   1.288   1.490
 2899SOL    HW1 8712   4.083   1.381   1.456
 2899SOL    HW2 8713   4.012   1.236   1.477
 2900SOL     OW 8714   4.738   0.236   0.971
 2900SOL    HW1 8715   4.730   0.200   0.878
 2900SOL    HW2 8716   4.736   0.160   1.036
 2901SOL     OW 8717   4.314   1.487   0.491
 2901SOL    HW1 8718   4.356   1.429   0.421
 2901SOL    HW2 8719   4.270   1.566   0.447
 2902SOL     OW 8720   3.979   1.348   0.290
 2902SOL    HW1 8721   3.883   1.349   0.263
 2902SOL    HW2 8722   3.991   1.401   0.374
 2903SOL     OW 8723   3.829   1.013   1.726
 2903SOL    HW1 8724   3.752   0.980   1.780
 2903SOL    HW2 8725   3.914   0.983   1.768
 2904SOL     OW 8726   4.396   0.203   1.489
 2904SOL    HW1 8727   4.486   0.187   1.449
 2904SOL    HW2 8728   4.404   0.208   1.588
 2905SOL     OW 8729   3.799   0.345   0.033
 2905SOL    HW1 8730   3.707   0.317   0.004
 2905SOL    HW2 8731   3.830   0.422  -0.023
 2906SOL     OW 8732   4.337   0.842   1.431
 2906SOL    HW1 8733   4.393   0.923   1.414
 2906SOL    HW2 8734   4.396   0.762   1.434
 2907SOL     OW 8735   4.440   0.565   1.708
 2907SOL    HW1 8736   4.459   0.630   1.782
 2907SOL    HW2 8737   4.500   0.485   1.717
 2908SOL     OW 8738   4.114   1.741   1.560
 2908SOL    HW1 8739   4.023   1.782   1.558
 2908SOL    HW2 8740   4.107   1.647   1.592
 2909SOL     OW 8741   4.949   0.325   0.449
 2909SOL    HW1 8742   5.014   0.251   0.438
 2909SOL    HW2 8743   4.969   0.375   0.533
 2910SOL     OW 8744   4.318   0.745   0.652
 2910SOL    HW1 8745   4.368   0.830   0.633
 2910SOL    HW2 8746   4.230   0.747   0.604
 2911SOL     OW 8747   4.583   1.374   0.016
 2911SOL    HW1 8748   4.537   1.389   0.104
 2911SOL    HW2 8749   4.627   1.459  -0.014
 2912SOL     OW 8750   4.385   1.790   0.953
 2912SOL    HW1 8751   4.339   1.878   0.940
 2912SOL    HW2 8752   4.484   1.802   0.946
 2913SOL     OW 8753   4.583   0.956   0.861
 2913SOL    HW1 8754   4.637   0.887   0.909
 2913SOL    HW2 8755   4.551   1.025   0.927
 2914SOL     OW 8756   4.807   0.984   0.087
 2914SOL    HW1 8757   4.784   1.037   0.005
 2914SOL    HW2 8758   4.888   0.928   0.068
 2915SOL     OW 8759   3.945   1.314   1.844
 2915SOL    HW1 8760   3.880   1.241   1.823
 2915SOL    HW2 8761   3.949   1.328   1.942
 2916SOL     OW 8762   3.803   1.240   0.653
 2916SOL    HW1 8763   3.802   1.193   0.741
 2916SOL    HW2 8764   3.885   1.212   0.602
 2917SOL     OW 8765   4.396   1.391   1.624
 2917SOL    HW1 8766   4.318   1.341   1.662
 2917SOL    HW2 8767   4.393   1.486   1.655
 2918SOL     OW 8768   4.152   0.424   0.520
 2918SOL    HW1 8769   4.182   0.352   0.458
 2918SOL    HW2 8770   4.113   0.384   0.603
 2919SOL     OW 8771   4.041   0.547   1.280
 2919SOL    HW1 8772   4.079   0.488   1.352
 2919SOL    HW2 8773   4.081   0.521   1.192
 2920SOL     OW 8774   4.536   1.586   0.687
 2920SOL    HW1 8775   4.568   1.596   0.593
 2920SOL    HW2 8776   4.457   1.524   0.689
 2921SOL     OW 8777   4.725   0.034   1.154
 2921SOL    HW1 8778   4.662  -0.038   1.123
 2921SOL    HW2 8779   4.818  -0.002   1.154
 2922SOL     OW 8780   4.494   1.330   0.301
 2922SOL    HW1 8781   4.448   1.243   0.318
 2922SOL    HW2 8782   4.585   1.327   0.342
 2923SOL     OW 8783   4.342   1.567   1.284
 2923SOL    HW1 8784   4.337   1.649   1.341
 2923SOL    HW2 8785   4.431   1.564   1.239
 2924SOL     OW 8786   3.763   1.077   0.300
 2924SOL    HW1 8787   3.862   1.066   0.291
 2924SOL    HW2 8788   3.723   0.991   0.332
 2925SOL     OW 8789   4.599   1.646   0.337
 2925SOL    HW1 8790   4.522   1.611   0.283
 2925SOL    HW2 8791   4.567   1.717   0.399
 2926SOL     OW 8792   3.954   0.628   1.975
 2926SOL    HW1 8793   3.861   0.626   2.012
 2926SOL    HW2 8794   3.955   0.589   1.883
 2927SOL     OW 8795   3.949   0.275   2.858
 2927SOL    HW1 8796   3.984   0.258   2.950
 2927SOL    HW2 8797   3.861   0.230   2.846
 2928SOL     OW 8798   3.743   0.368   2.509
 2928SOL    HW1 8799   3.661   0.411   2.548
 2928SOL    HW2 8800   3.715   0.295   2.446
 2929SOL     OW 8801   4.293   1.275   3.027
 2929SOL    HW1 8802   4.200   1.268   2.990
 2929SOL    HW2 8803   4.304   1.364   3.071
 2930SOL     OW 8804   4.492   1.144   2.885
 2930SOL    HW1 8805   4.414   1.161   2.945
 2930SOL    HW2 8806   4.526   1.231   2.849
 2931SOL     OW 8807   4.574   0.798   3.685
 2931SOL    HW1 8808   4.570   0.874   3.750
 2931SOL    HW2 8809   4.596   0.834   3.594
 2932SOL     OW 8810   4.409   1.012   2.527
 2932SOL    HW1 8811   4.478   0.996   2.597
 2932SOL    HW2 8812   4.336   1.069   2.565
 2933SOL     OW 8813   4.410   1.161   3.665
 2933SOL    HW1 8814   4.470   1.240   3.679
 2933SOL    HW2 8815   4.324   1.192   3.624
 2934SOL     OW 8816   4.059   1.435   2.923
 2934SOL    HW1 8817   3.981   1.404   2.870
 2934SOL    HW2 8818   4.117   1.493   2.866
 2935SOL     OW 8819   4.162   0.392   3.361
 2935SOL    HW1 8820   4.244   0.336   3.370
 2935SOL    HW2 8821   4.081   0.334   3.365
 2936SOL     OW 8822   3.955   1.713   2.345
 2936SOL    HW1 8823   3.989   1.790   2.399
 2936SOL    HW2 8824   3.999   1.713   2.255
 2937SOL     OW 8825   3.954   1.434   2.400
 2937SOL    HW1 8826   3.928   1.530   2.400
 2937SOL    HW2 8827   3.883   1.380   2.445
 2938SOL     OW 8828   3.964   1.091   2.748
 2938SOL    HW1 8829   3.978   1.007   2.800
 2938SOL    HW2 8830   3.909   1.155   2.803
 2939SOL     OW 8831   4.344   1.786   3.301
 2939SOL    HW1 8832   4.252   1.769   3.336
 2939SOL    HW2 8833   4.372   1.878   3.327
 2940SOL     OW 8834   4.330   0.964   1.985
 2940SOL    HW1 8835   4.337   1.048   1.931
 2940SOL    HW2 8836   4.376   0.977   2.073
 2941SOL     OW 8837   3.846   0.643   2.425
 2941SOL    HW1 8838   3.801   0.555   2.442
 2941SOL    HW2 8839   3.845   0.697   2.509
 2942SOL     OW 8840   3.751   1.596   1.979
 2942SOL    HW1 8841   3.732   1.500   2.000
 2942SOL    HW2 8842   3.718   1.654   2.054
 2943SOL     OW 8843   3.837   0.737   3.459
 2943SOL    HW1 8844   3.925   0.724   3.504
 2943SOL    HW2 8845   3.824   0.834   3.437
 2944SOL     OW 8846   4.337   1.365   2.588
 2944SOL    HW1 8847   4.288   1.278   2.597
 2944SOL    HW2 8848   4.314   1.408   2.501
 2945SOL     OW 8849   4.533   0.004   2.364
 2945SOL    HW1 8850   4.573   0.095   2.355
 2945SOL    HW2 8851   4.433   0.012   2.370
 2946SOL     OW 8852   3.921   0.976   3.126
 2946SOL    HW1 8853   4.010   0.931   3.112
 2946SOL    HW2 8854   3.848   0.911   3.107
 2947SOL     OW 8855   4.041   0.251   3.663
 2947SOL    HW1 8856   4.112   0.322   3.669
 2947SOL    HW2 8857   3.953   0.290   3.691
 2948SOL     OW 8858   4.322   0.729   2.132
 2948SOL    HW1 8859   4.346   0.798   2.064
 2948SOL    HW2 8860   4.244   0.762   2.186
 2949SOL     OW 8861   4.531   0.605   3.327
 2949SOL    HW1 8862   4.484   0.602   3.416
 2949SOL    HW2 8863   4.480   0.550   3.261
 2950SOL     OW 8864   4.697   0.890   3.434
 2950SOL    HW1 8865   4.743   0.806   3.405
 2950SOL    HW2 8866   4.641   0.924   3.359
 2951SOL     OW 8867   4.715   0.410   3.104
 2951SOL    HW1 8868   4.638   0.444   3.158
 2951SOL    HW2 8869   4.681   0.359   3.025
 2952SOL     OW 8870   3.800   0.811   2.651
 2952SOL    HW1 8871   3.899   0.799   2.660
 2952SOL    HW2 8872   3.776   0.906   2.672
 2953SOL     OW 8873   3.854   1.821   3.433
 2953SOL    HW1 8874   3.844   1.806   3.532
 2953SOL    HW2 8875   3.768   1.857   3.397
 2954SOL     OW 8876   4.589   0.348   2.057
 2954SOL    HW1 8877   4.648   0.411   2.008
 2954SOL    HW2 8878   4.608   0.254   2.028
 2955SOL     OW 8879   4.274   0.196   2.747
 2955SOL    HW1 8880   4.269   0.191   2.847
 2955SOL    HW2 8881   4.276   0.292   2.718
 2956SOL     OW 8882   4.732   1.456   2.339
 2956SOL    HW1 8883   4.686   1.528   2.287
 2956SOL    HW2 8884   4.728   1.476   2.437
 2957SOL     OW 8885   4.075   1.801   2.715
 2957SOL    HW1 8886   4.125   1.715   2.721
 2957SOL    HW2 8887   4.140   1.878   2.712
 2958SOL     OW 8888   4.045   0.943   2.104
 2958SOL    HW1 8889   4.127   0.982   2.062
 2958SOL    HW2 8890   4.018   0.861   2.055
 2959SOL     OW 8891   4.185   1.266   3.589
 2959SOL    HW1 8892   4.135   1.267   3.503
 2959SOL    HW2 8893   4.122   1.248   3.665
 2960SOL     OW 8894   3.926   0.285   3.360
 2960SOL    HW1 8895   3.846   0.345   3.347
 2960SOL    HW2 8896   3.916   0.236   3.446
 2961SOL     OW 8897   4.188   1.743   2.185
 2961SOL    HW1 8898   4.221   1.782   2.271
 2961SOL    HW2 8899   4.264   1.736   2.120
 2962SOL     OW 8900   3.973   1.785   3.103
 2962SOL    HW1 8901   4.030   1.720   3.153
 2962SOL    HW2 8902   3.957   1.752   3.010
 2963SOL     OW 8903   4.106   0.700   2.342
 2963SOL    HW1 8904   4.151   0.610   2.339
 2963SOL    HW2 8905   4.012   0.689   2.375
 2964SOL     OW 8906   4.338   0.122   1.979
 2964SOL    HW1 8907   4.436   0.100   1.986
 2964SOL    HW2 8908   4.307   0.105   1.886
 2965SOL     OW 8909   4.505   0.264   3.611
 2965SOL    HW1 8910   4.572   0.203   3.654
 2965SOL    HW2 8911   4.432   0.283   3.676
 2966SOL     OW 8912   4.612   1.514   3.057
 2966SOL    HW1 8913   4.589   1.489   2.963
 2966SOL    HW2 8914   4.673   1.445   3.096
 2967SOL     OW 8915   4.527   1.402   2.786
 2967SOL    HW1 8916   4.617   1.416   2.744
 2967SOL    HW2 8917   4.456   1.404   2.715
 2968SOL     OW 8918   4.646   0.503   2.761
 2968SOL    HW1 8919   4.621   0.494   2.665
 2968SOL    HW2 8920   4.694   0.421   2.792
 2969SOL     OW 8921   4.263   0.064   2.374
 2969SOL    HW1 8922   4.182   0.065   2.432
 2969SOL    HW2 8923   4.266   0.147   2.319
 2970SOL     OW 8924   4.021   0.035   2.033
 2970SOL    HW1 8925   4.070   0.119   2.012
 2970SOL    HW2 8926   4.083  -0.030   2.078
 2971SOL     OW 8927   4.659   0.236   2.342
 2971SOL    HW1 8928   4.611   0.277   2.264
 2971SOL    HW2 8929   4.758   0.234   2.323
 2972SOL     OW 8930   4.951   1.570   2.655
 2972SOL    HW1 8931   4.972   1.644   2.590
 2972SOL    HW2 8932   5.019   1.570   2.728
 2973SOL     OW 8933   4.183   1.152   2.603
 2973SOL    HW1 8934   4.112   1.125   2.668
 2973SOL    HW2 8935   4.157   1.124   2.510
 2974SOL     OW 8936   4.756   0.549   1.878
 2974SOL    HW1 8937   4.715   0.631   1.839
 2974SOL    HW2 8938   4.820   0.575   1.951
 2975SOL     OW 8939   3.802   0.556   3.248
 2975SOL    HW1 8940   3.894   0.555   3.207
 2975SOL    HW2 8941   3.796   0.630   3.315
 2976SOL     OW 8942   4.285   0.222   3.009
 2976SOL    HW1 8943   4.323   0.138   3.046
 2976SOL    HW2 8944   4.197   0.241   3.053
 2977SOL     OW 8945   4.590   0.454   2.504
 2977SOL    HW1 8946   4.558   0.526   2.442
 2977SOL    HW2 8947   4.614   0.373   2.451
 2978SOL     OW 8948   4.741   0.039   2.615
 2978SOL    HW1 8949   4.669   0.044   2.546
 2978SOL    HW2 8950   4.717  -0.030   2.684
 2979SOL     OW 8951   4.212   1.385   2.036
 2979SOL    HW1 8952   4.125   1.370   2.083
 2979SOL    HW2 8953   4.195   1.411   1.941
 2980SOL     OW 8954   4.251   0.256   2.190
 2980SOL    HW1 8955   4.278   0.197   2.115
 2980SOL    HW2 8956   4.251   0.351   2.159
 2981SOL     OW 8957   4.639   0.089   3.264
 2981SOL    HW1 8958   4.664   0.069   3.169
 2981SOL    HW2 8959   4.711   0.145   3.306
 2982SOL     OW 8960   4.704   1.116   3.581
 2982SOL    HW1 8961   4.605   1.122   3.591
 2982SOL    HW2 8962   4.727   1.036   3.525
 2983SOL     OW 8963   4.429   1.050   2.230
 2983SOL    HW1 8964   4.415   1.057   2.329
 2983SOL    HW2 8965   4.513   0.999   2.212
 2984SOL     OW 8966   4.134   0.813   3.113
 2984SOL    HW1 8967   4.220   0.825   3.163
 2984SOL    HW2 8968   4.092   0.726   3.140
 2985SOL     OW 8969   3.788   1.564   3.193
 2985SOL    HW1 8970   3.742   1.646   3.159
 2985SOL    HW2 8971   3.886   1.583   3.202
 2986SOL     OW 8972   4.091   1.100   2.363
 2986SOL    HW1 8973   4.084   1.183   2.307
 2986SOL    HW2 8974   4.095   1.020   2.303
 2987SOL     OW 8975   4.290   0.537   2.727
 2987SOL    HW1 8976   4.302   0.603   2.653
 2987SOL    HW2 8977   4.336   0.571   2.810
 2988SOL     OW 8978   4.078   1.510   3.191
 2988SOL    HW1 8979   4.057   1.466   3.104
 2988SOL    HW2 8980   4.175   1.536   3.194
 2989SOL     OW 8981   4.126   0.751   3.460
 2989SOL    HW1 8982   4.194   0.806   3.413
 2989SOL    HW2 8983   4.166   0.663   3.487
 2990SOL     OW 8984   4.737   0.105   3.632
 2990SOL    HW1 8985   4.743   0.190   3.580
 2990SOL    HW2 8986   4.769   0.029   3.575
 2991SOL     OW 8987   4.228   0.050   3.602
 2991SOL    HW1 8988   4.186  -0.007   3.532
 2991SOL    HW2 8989   4.162   0.119   3.634
 2992SOL     OW 8990   4.297   0.870   2.891
 2992SOL    HW1 8991   4.341   0.959   2.882
 2992SOL    HW2 8992   4.234   0.870   2.968
 2993SOL     OW 8993   4.933   0.525   2.137
 2993SOL    HW1 8994   4.946   0.441   2.191
 2993SOL    HW2 8995   4.904   0.599   2.197
 2994SOL     OW 8996   4.031   0.213   3.093
 2994SOL    HW1 8997   4.008   0.250   3.183
 2994SOL    HW2 8998   4.001   0.118   3.087
 2995SOL     OW 8999   3.761   1.310   3.144
 2995SOL    HW1 9000   3.814   1.261   3.212
 2995SOL    HW2 9001   3.783   1.408   3.149
 2996SOL     OW 9002   4.456   0.634   2.926
 2996SOL    HW1 9003   4.515   0.608   2.850
 2996SOL    HW2 9004   4.428   0.730   2.915
 2997SOL     OW 9005   4.031   0.063   2.480
 2997SOL    HW1 9006   4.020   0.157   2.513
 2997SOL    HW2 9007   4.026   0.000   2.557
 2998SOL     OW 9008   4.747   0.766   2.828
 2998SOL    HW1 9009   4.762   0.787   2.924
 2998SOL    HW2 9010   4.717   0.671   2.819
 2999SOL     OW 9011   4.704   1.573   3.562
 2999SOL    HW1 9012   4.684   1.617   3.474
 2999SOL    HW2 9013   4.743   1.482   3.546
 3000SOL     OW 9014   4.074   0.898   3.666
 3000SOL    HW1 9015   4.150   0.942   3.714
 3000SOL    HW2 9016   4.109   0.851   3.584
 3001SOL     OW 9017   4.043   0.810   2.811
 3001SOL    HW1 9018   4.136   0.846   2.816
 3001SOL    HW2 9019   4.037   0.725   2.863
 3002SOL     OW 9020   4.063   0.509   2.868
 3002SOL    HW1 9021   4.011   0.426   2.851
 3002SOL    HW2 9022   4.140   0.514   2.804
 3003SOL     OW 9023   3.732   1.326   2.062
 3003SOL    HW1 9024   3.639   1.347   2.031
 3003SOL    HW2 9025   3.742   1.227   2.075
 3004SOL     OW 9026   3.812   1.801   2.789
 3004SOL    HW1 9027   3.770   1.715   2.762
 3004SOL    HW2 9028   3.906   1.804   2.755
 3005SOL     OW 9029   4.228   1.568   2.772
 3005SOL    HW1 9030   4.294   1.642   2.781
 3005SOL    HW2 9031   4.272   1.489   2.730
 3006SOL     OW 9032   4.726   0.796   3.100
 3006SOL    HW1 9033   4.767   0.764   3.186
 3006SOL    HW2 9034   4.630   0.769   3.097
 3007SOL     OW 9035   3.764   0.544   2.976
 3007SOL    HW1 9036   3.849   0.511   2.935
 3007SOL    HW2 9037   3.777   0.559   3.074
 3008SOL     OW 9038   3.913   0.520   3.584
 3008SOL    HW1 9039   3.972   0.480   3.514
 3008SOL    HW2 9040   3.855   0.591   3.543
 3009SOL     OW 9041   4.539   0.572   2.187
 3009SOL    HW1 9042   4.546   0.483   2.141
 3009SOL    HW2 9043   4.445   0.606   2.179
 3010SOL     OW 9044   3.976   1.564   3.606
 3010SOL    HW1 9045   3.946   1.621   3.682
 3010SOL    HW2 9046   3.969   1.467   3.632
 3011SOL     OW 9047   4.395   0.464   3.131
 3011SOL    HW1 9048   4.361   0.375   3.101
 3011SOL    HW2 9049   4.421   0.518   3.051
 3012SOL     OW 9050   4.654   1.678   3.327
 3012SOL    HW1 9051   4.630   1.660   3.232
 3012SOL    HW2 9052   4.684   1.772   3.337
 3013SOL     OW 9053   4.197   0.500   2.053
 3013SOL    HW1 9054   4.258   0.580   2.057
 3013SOL    HW2 9055   4.102   0.531   2.060
 3014SOL     OW 9056   3.883   1.137   3.328
 3014SOL    HW1 9057   3.905   1.076   3.404
 3014SOL    HW2 9058   3.893   1.088   3.242
 3015SOL     OW 9059   3.807   1.258   2.884
 3015SOL    HW1 9060   3.802   1.257   2.984
 3015SOL    HW2 9061   3.724   1.217   2.846
 3016SOL     OW 9062   4.412   1.662   3.578
 3016SOL    HW1 9063   4.356   1.743   3.587
 3016SOL    HW2 9064   4.464   1.666   3.492
 3017SOL     OW 9065   3.854   1.794   3.713
 3017SOL    HW1 9066   3.813   1.720   3.766
 3017SOL    HW2 9067   3.918   1.845   3.771
 3018SOL     OW 9068   5.004   0.927   2.534
 3018SOL    HW1 9069   5.064   0.846   2.536
 3018SOL    HW2 9070   5.044   0.996   2.474
 3019SOL     OW 9071   4.554   1.273   3.284
 3019SOL    HW1 9072   4.549   1.306   3.379
 3019SOL    HW2 9073   4.468   1.292   3.238
 3020SOL     OW 9074   4.396   1.616   2.016
 3020SOL    HW1 9075   4.405   1.626   1.917
 3020SOL    HW2 9076   4.356   1.527   2.037
 3021SOL     OW 9077   3.987   0.326   2.582
 3021SOL    HW1 9078   3.908   0.377   2.548
 3021SOL    HW2 9079   3.978   0.311   2.680
 3022SOL     OW 9080   4.546   1.002   3.234
 3022SOL    HW1 9081   4.586   1.001   3.142
 3022SOL    HW2 9082   4.556   1.094   3.274
 3023SOL     OW 9083   4.640   0.910   2.153
 3023SOL    HW1 9084   4.703   0.948   2.085
 3023SOL    HW2 9085   4.680   0.827   2.192
 3024SOL     OW 9086   4.096   1.288   3.352
 3024SOL    HW1 9087   4.083   1.381   3.318
 3024SOL    HW2 9088   4.012   1.236   3.339
 3025SOL     OW 9089   4.738   0.236   2.833
 3025SOL    HW1 9090   4.730   0.200   2.740
 3025SOL    HW2 9091   4.736   0.160   2.898
 3026SOL     OW 9092   4.314   1.487   2.353
 3026SOL    HW1 9093   4.356   1.429   2.283
 3026SOL    HW2 9094   4.270   1.566   2.309
 3027SOL     OW 9095   3.979   1.348   2.152
 3027SOL    HW1 9096   3.883   1.349   2.125
 3027SOL    HW2 9097   3.991   1.401   2.236
 3028SOL     OW 9098   3.829   1.013   3.588
 3028SOL    HW1 9099   3.752   0.980   3.642
 3028SOL    HW2 9100   3.914   0.983   3.630
 3029SOL     OW 9101   4.396   0.203   3.351
 3029SOL    HW1 9102   4.486   0.187   3.311
 3029SOL    HW2 9103   4.404   0.208   3.450
 3030SOL     OW 9104   3.799   0.345   1.895
 3030SOL    HW1 9105   3.707   0.317   1.866
 3030SOL    HW2 9106   3.830   0.422   1.839
 3031SOL     OW 9107   3.796   0.166   2.180
 3031SOL    HW1 9108   3.779   0.249   2.126
 3031SOL    HW2 9109   3.886   0.129   2.158
 3032SOL     OW 9110   4.337   0.842   3.293
 3032SOL    HW1 9111   4.393   0.923   3.276
 3032SOL    HW2 9112   4.396   0.762   3.296
 3033SOL     OW 9113   4.440   0.565   3.570
 3033SOL    HW1 9114   4.459   0.630   3.644
 3033SOL    HW2 9115   4.500   0.485   3.579
 3034SOL     OW 9116   4.114   1.741   3.422
 3034SOL    HW1 9117   4.023   1.782   3.420
 3034SOL    HW2 9118   4.107   1.647   3.454
 3035SOL     OW 9119   4.949   0.325   2.311
 3035SOL    HW1 9120   5.014   0.251   2.300
 3035SOL    HW2 9121   4.969   0.375   2.395
 3036SOL     OW 9122   4.318   0.745   2.514
 3036SOL    HW1 9123   4.368   0.830   2.495
 3036SOL    HW2 9124   4.230   0.747   2.466
 3037SOL     OW 9125   4.583   1.374   1.878
 3037SOL    HW1 9126   4.537   1.389   1.966
 3037SOL    HW2 9127   4.627   1.459   1.848
 3038SOL     OW 9128   4.385   1.790   2.815
 3038SOL    HW1 9129   4.339   1.878   2.802
 3038SOL    HW2 9130   4.484   1.802   2.808
 3039SOL     OW 9131   4.583   0.956   2.723
 3039SOL    HW1 9132   4.637   0.887   2.771
 3039SOL    HW2 9133   4.551   1.025   2.789
 3040SOL     OW 9134   3.945   1.314   3.706
 3040SOL    HW1 9135   3.880   1.241   3.685
 3040SOL    HW2 9136   3.949   1.328   3.804
 3041SOL     OW 9137   3.803   1.240   2.515
 3041SOL    HW1 9138   3.802   1.193   2.603
 3041SOL    HW2 9139   3.885   1.212   2.464
 3042SOL     OW 9140   4.396   1.391   3.486
 3042SOL    HW1 9141   4.318   1.341   3.524
 3042SOL    HW2 9142   4.393   1.486   3.517
 3043SOL     OW 9143   4.152   0.424   2.382
 3043SOL    HW1 9144   4.182   0.352   2.320
 3043SOL    HW2 9145   4.113   0.384   2.465
 3044SOL     OW 9146   4.041   0.547   3.142
 3044SOL    HW1 9147   4.079   0.488   3.214
 3044SOL    HW2 9148   4.081   0.521   3.054
 3045SOL     OW 9149   4.536   1.586   2.549
 3045SOL    HW1 9150   4.568   1.596   2.455
 3045SOL    HW2 9151   4.457   1.524   2.551
 3046SOL     OW 9152   4.725   0.034   3.016
 3046SOL    HW1 9153   4.662  -0.038   2.985
 3046SOL    HW2 9154   4.818  -0.002   3.016
 3047SOL     OW 9155   4.494   1.330   2.163
 3047SOL    HW1 9156   4.448   1.243   2.180
 3047SOL    HW2 9157   4.585   1.327   2.204
 3048SOL     OW 9158   4.342   1.567   3.146
 3048SOL    HW1 9159   4.337   1.649   3.203
 3048SOL    HW2 9160   4.431   1.564   3.101
 3049SOL     OW 9161   3.763   1.077   2.162
 3049SOL    HW1 9162   3.862   1.066   2.153
 3049SOL    HW2 9163   3.723   0.991   2.194
 3050SOL     OW 9164   4.599   1.646   2.199
 3050SOL    HW1 9165   4.522   1.611   2.145
 3050SOL    HW2 9166   4.567   1.717   2.261
 3051SOL     OW 9167   3.954   0.628   3.837
 3051SOL    HW1 9168   3.861   0.626   3.874
 3051SOL    HW2 9169   3.955   0.589   3.745
 3052SOL     OW 9170   3.949   0.275   4.720
 3052SOL    HW1 9171   3.984   0.258   4.812
 3052SOL    HW2 9172   3.861   0.230   4.708
 3053SOL     OW 9173   3.743   0.368   4.371
 3053SOL    HW1 9174   3.661   0.411   4.410
 3053SOL    HW2 9175   3.715   0.295   4.308
 3054SOL     OW 9176   4.492   1.144   4.747
 3054SOL    HW1 9177   4.414   1.161   4.807
 3054SOL    HW2 9178   4.526   1.231   4.711
 3055SOL     OW 9179   4.409   1.012   4.389
 3055SOL    HW1 9180   4.478   0.996   4.459
 3055SOL    HW2 9181   4.336   1.069   4.427
 3056SOL     OW 9182   4.059   1.435   4.785
 3056SOL    HW1 9183   3.981   1.404   4.732
 3056SOL    HW2 9184   4.117   1.493   4.728
 3057SOL     OW 9185   3.955   1.713   4.207
 3057SOL    HW1 9186   3.989   1.790   4.261
 3057SOL    HW2 9187   3.999   1.713   4.117
 3058SOL     OW 9188   3.954   1.434   4.262
 3058SOL    HW1 9189   3.928   1.530   4.262
 3058SOL    HW2 9190   3.883   1.380   4.307
 3059SOL     OW 9191   3.964   1.091   4.610
 3059SOL    HW1 9192   3.978   1.007   4.662
 3059SOL    HW2 9193   3.909   1.155   4.665
 3060SOL     OW 9194   4.330   0.964   3.847
 3060SOL    HW1 9195   4.337   1.048   3.793
 3060SOL    HW2 9196   4.376   0.977   3.935
 3061SOL     OW 9197   3.846   0.643   4.287
 3061SOL    HW1 9198   3.801   0.555   4.304
 3061SOL    HW2 9199   3.845   0.697   4.371
 3062SOL     OW 9200   3.751   1.596   3.841
 3062SOL    HW1 9201   3.732   1.500   3.862
 3062SOL    HW2 9202   3.718   1.654   3.916
 3063SOL     OW 9203   4.337   1.365   4.450
 3063SOL    HW1 9204   4.288   1.278   4.459
 3063SOL    HW2 9205   4.314   1.408   4.363
 3064SOL     OW 9206   4.533   0.004   4.226
 3064SOL    HW1 9207   4.573   0.095   4.217
 3064SOL    HW2 9208   4.433   0.012   4.232
 3065SOL     OW 9209   4.322   0.729   3.994
 3065SOL    HW1 9210   4.346   0.798   3.926
 3065SOL    HW2 9211   4.244   0.762   4.048
 3066SOL     OW 9212   3.800   0.811   4.513
 3066SOL    HW1 9213   3.899   0.799   4.522
 3066SOL    HW2 9214   3.776   0.906   4.534
 3067SOL     OW 9215   4.589   0.348   3.919
 3067SOL    HW1 9216   4.648   0.411   3.870
 3067SOL    HW2 9217   4.608   0.254   3.890
 3068SOL     OW 9218   4.274   0.196   4.609
 3068SOL    HW1 9219   4.269   0.191   4.709
 3068SOL    HW2 9220   4.276   0.292   4.580
 3069SOL     OW 9221   4.732   1.456   4.201
 3069SOL    HW1 9222   4.686   1.528   4.149
 3069SOL    HW2 9223   4.728   1.476   4.299
 3070SOL     OW 9224   4.075   1.801   4.577
 3070SOL    HW1 9225   4.125   1.715   4.583
 3070SOL    HW2 9226   4.140   1.878   4.574
 3071SOL     OW 9227   4.045   0.943   3.966
 3071SOL    HW1 9228   4.127   0.982   3.924
 3071SOL    HW2 9229   4.018   0.861   3.917
 3072SOL     OW 9230   4.188   1.743   4.047
 3072SOL    HW1 9231   4.221   1.782   4.133
 3072SOL    HW2 9232   4.264   1.736   3.982
 3073SOL     OW 9233   3.973   1.785   4.965
 3073SOL    HW1 9234   4.030   1.720   5.015
 3073SOL    HW2 9235   3.957   1.752   4.872
 3074SOL     OW 9236   4.106   0.700   4.204
 3074SOL    HW1 9237   4.151   0.610   4.201
 3074SOL    HW2 9238   4.012   0.689   4.237
 3075SOL     OW 9239   4.338   0.122   3.841
 3075SOL    HW1 9240   4.436   0.100   3.848
 3075SOL    HW2 9241   4.307   0.105   3.748
 3076SOL     OW 9242   4.527   1.402   4.648
 3076SOL    HW1 9243   4.617   1.416   4.606
 3076SOL    HW2 9244   4.456   1.404   4.577
 3077SOL     OW 9245   4.646   0.503   4.623
 3077SOL    HW1 9246   4.621   0.494   4.527
 3077SOL    HW2 9247   4.694   0.421   4.654
 3078SOL     OW 9248   4.263   0.064   4.236
 3078SOL    HW1 9249   4.182   0.065   4.294
 3078SOL    HW2 9250   4.266   0.147   4.181
 3079SOL     OW 9251   4.021   0.035   3.895
 3079SOL    HW1 9252   4.070   0.119   3.874
 3079SOL    HW2 9253   4.083  -0.030   3.940
 3080SOL     OW 9254   4.659   0.236   4.204
 3080SOL    HW1 9255   4.611   0.277   4.126
 3080SOL    HW2 9256   4.758   0.234   4.185
 3081SOL     OW 9257   4.951   1.570   4.517
 3081SOL    HW1 9258   4.972   1.644   4.452
 3081SOL    HW2 9259   5.019   1.570   4.590
 3082SOL     OW 9260   4.183   1.152   4.465
 3082SOL    HW1 9261   4.112   1.125   4.530
 3082SOL    HW2 9262   4.157   1.124   4.372
 3083SOL     OW 9263   4.756   0.549   3.740
 3083SOL    HW1 9264   4.715   0.631   3.701
 3083SOL    HW2 9265   4.820   0.575   3.813
 3084SOL     OW 9266   4.590   0.454   4.366
 3084SOL    HW1 9267   4.558   0.526   4.304
 3084SOL    HW2 9268   4.614   0.373   4.313
 3085SOL     OW 9269   4.741   0.039   4.477
 3085SOL    HW1 9270   4.669   0.044   4.408
 3085SOL    HW2 9271   4.717  -0.030   4.546
 3086SOL     OW 9272   4.212   1.385   3.898
 3086SOL    HW1 9273   4.125   1.370   3.945
 3086SOL    HW2 9274   4.195   1.411   3.803
 3087SOL     OW 9275   4.251   0.256   4.052
 3087SOL    HW1 9276   4.278   0.197   3.977
 3087SOL    HW2 9277   4.251   0.351   4.021
 3088SOL     OW 9278   4.429   1.050   4.092
 3088SOL    HW1 9279   4.415   1.057   4.191
 3088SOL    HW2 9280   4.513   0.999   4.074
 3089SOL     OW 9281   4.091   1.100   4.225
 3089SOL    HW1 9282   4.084   1.183   4.169
 3089SOL    HW2 9283   4.095   1.020   4.165
 3090SOL     OW 9284   4.290   0.537   4.589
 3090SOL    HW1 9285   4.302   0.603   4.515
 3090SOL    HW2 9286   4.336   0.571   4.672
 3091SOL     OW 9287   4.297   0.870   4.753
 3091SOL    HW1 9288   4.341   0.959   4.744
 3091SOL    HW2 9289   4.234   0.870   4.830
 3092SOL     OW 9290   4.933   0.525   3.999
 3092SOL    HW1 9291   4.946   0.441   4.053
 3092SOL    HW2 9292   4.904   0.599   4.059
 3093SOL     OW 9293   4.456   0.634   4.788
 3093SOL    HW1 9294   4.515   0.608   4.712
 3093SOL    HW2 9295   4.428   0.730   4.777
 3094SOL     OW 9296   4.031   0.063   4.342
 3094SOL    HW1 9297   4.020   0.157   4.375
 3094SOL    HW2 9298   4.026   0.000   4.419
 3095SOL     OW 9299   4.043   0.810   4.673
 3095SOL    HW1 9300   4.136   0.846   4.678
 3095SOL    HW2 9301   4.037   0.725   4.725
 3096SOL     OW 9302   4.063   0.509   4.730
 3096SOL    HW1 9303   4.011   0.426   4.713
 3096SOL    HW2 9304   4.140   0.514   4.666
 3097SOL     OW 9305   3.732   1.326   3.924
 3097SOL    HW1 9306   3.639   1.347   3.893
 3097SOL    HW2 9307   3.742   1.227   3.937
 3098SOL     OW 9308   3.812   1.801   4.651
 3098SOL    HW1 9309   3.770   1.715   4.624
 3098SOL    HW2 9310   3.906   1.804   4.617
 3099SOL     OW 9311   4.228   1.568   4.634
 3099SOL    HW1 9312   4.294   1.642   4.643
 3099SOL    HW2 9313   4.272   1.489   4.592
 3100SOL     OW 9314   4.539   0.572   4.049
 3100SOL    HW1 9315   4.546   0.483   4.003
 3100SOL    HW2 9316   4.445   0.606   4.041
 3101SOL     OW 9317   4.395   0.464   4.993
 3101SOL    HW1 9318   4.361   0.375   4.963
 3101SOL    HW2 9319   4.421   0.518   4.913
 3102SOL     OW 9320   4.197   0.500   3.915
 3102SOL    HW1 9321   4.258   0.580   3.919
 3102SOL    HW2 9322   4.102   0.531   3.922
 3103SOL     OW 9323   3.807   1.258   4.746
 3103SOL    HW1 9324   3.802   1.257   4.846
 3103SOL    HW2 9325   3.724   1.217   4.708
 3104SOL     OW 9326   5.004   0.927   4.396
 3104SOL    HW1 9327   5.064   0.846   4.398
 3104SOL    HW2 9328   5.044   0.996   4.336
 3105SOL     OW 9329   4.396   1.616   3.878
 3105SOL    HW1 9330   4.405   1.626   3.779
 3105SOL    HW2 9331   4.356   1.527   3.899
 3106SOL     OW 9332   3.987   0.326   4.444
 3106SOL    HW1 9333   3.908   0.377   4.410
 3106SOL    HW2 9334   3.978   0.311   4.542
 3107SOL     OW 9335   4.640   0.910   4.015
 3107SOL    HW1 9336   4.703   0.948   3.947
 3107SOL    HW2 9337   4.680   0.827   4.054
 3108SOL     OW 9338   4.314   1.487   4.215
 3108SOL    HW1 9339   4.356   1.429   4.145
 3108SOL    HW2 9340   4.270   1.566   4.171
 3109SOL     OW 9341   3.979   1.348   4.014
 3109SOL    HW1 9342   3.883   1.349   3.987
 3109SOL    HW2 9343   3.991   1.401   4.098
 3110SOL     OW 9344   3.799   0.345   3.757
 3110SOL    HW1 9345   3.707   0.317   3.728
 3110SOL    HW2 9346   3.830   0.422   3.701
 3111SOL     OW 9347   3.796   0.166   4.042
 3111SOL    HW1 9348   3.779   0.249   3.988
 3111SOL    HW2 9349   3.886   0.129   4.020
 3112SOL     OW 9350   4.949   0.325   4.173
 3112SOL    HW1 9351   5.014   0.251   4.162
 3112SOL    HW2 9352   4.969   0.375   4.257
 3113SOL     OW 9353   4.318   0.745   4.376
 3113SOL    HW1 9354   4.368   0.830   4.357
 3113SOL    HW2 9355   4.230   0.747   4.328
 3114SOL     OW 9356   4.583   1.374   3.740
 3114SOL    HW1 9357   4.537   1.389   3.828
 3114SOL    HW2 9358   4.627   1.459   3.710
 3115SOL     OW 9359   4.385   1.790   4.677
 3115SOL    HW1 9360   4.339   1.878   4.664
 3115SOL    HW2 9361   4.484   1.802   4.670
 3116SOL     OW 9362   4.583   0.956   4.585
 3116SOL    HW1 9363   4.637   0.887   4.633
 3116SOL    HW2 9364   4.551   1.025   4.651
 3117SOL     OW 9365   3.803   1.240   4.377
 3117SOL    HW1 9366   3.802   1.193   4.465
 3117SOL    HW2 9367   3.885   1.212   4.326
 3118SOL     OW 9368   4.152   0.424   4.244
 3118SOL    HW1 9369   4.182   0.352   4.182
 3118SOL    HW2 9370   4.113   0.384   4.327
 3119SOL     OW 9371   4.536   1.586   4.411
 3119SOL    HW1 9372   4.568   1.596   4.317
 3119SOL    HW2 9373   4.457   1.524   4.413
 3120SOL     OW 9374   4.494   1.330   4.025
 3120SOL    HW1 9375   4.448   1.243   4.042
 3120SOL    HW2 9376   4.585   1.327   4.066
 3121SOL     OW 9377   3.763   1.077   4.024
 3121SOL    HW1 9378   3.862   1.066   4.015
 3121SOL    HW2 9379   3.723   0.991   4.056
 3122SOL     OW 9380   4.599   1.646   4.061
 3122SOL    HW1 9381   4.522   1.611   4.007
 3122SOL    HW2 9382   4.567   1.717   4.123
 3123SOL     OW 9383   3.954   2.490   0.113
 3123SOL    HW1 9384   3.861   2.488   0.150
 3123SOL    HW2 9385   3.955   2.451   0.021
 3124SOL     OW 9386   3.949   2.137   0.996
 3124SOL    HW1 9387   3.984   2.120   1.088
 3124SOL    HW2 9388   3.861   2.092   0.984
 3125SOL     OW 9389   3.743   2.230   0.647
 3125SOL    HW1 9390   3.661   2.273   0.686
 3125SOL    HW2 9391   3.715   2.157   0.584
 3126SOL     OW 9392   4.293   3.137   1.165
 3126SOL    HW1 9393   4.200   3.130   1.128
 3126SOL    HW2 9394   4.304   3.226   1.209
 3127SOL     OW 9395   4.492   3.006   1.023
 3127SOL    HW1 9396   4.414   3.023   1.083
 3127SOL    HW2 9397   4.526   3.093   0.987
 3128SOL     OW 9398   4.574   2.660   1.823
 3128SOL    HW1 9399   4.570   2.736   1.888
 3128SOL    HW2 9400   4.596   2.696   1.732
 3129SOL     OW 9401   4.409   2.874   0.665
 3129SOL    HW1 9402   4.478   2.858   0.735
 3129SOL    HW2 9403   4.336   2.931   0.703
 3130SOL     OW 9404   4.410   3.023   1.803
 3130SOL    HW1 9405   4.470   3.102   1.817
 3130SOL    HW2 9406   4.324   3.054   1.762
 3131SOL     OW 9407   4.059   3.297   1.061
 3131SOL    HW1 9408   3.981   3.266   1.008
 3131SOL    HW2 9409   4.117   3.355   1.004
 3132SOL     OW 9410   4.162   2.254   1.499
 3132SOL    HW1 9411   4.244   2.198   1.508
 3132SOL    HW2 9412   4.081   2.196   1.503
 3133SOL     OW 9413   3.955   3.575   0.483
 3133SOL    HW1 9414   3.989   3.652   0.537
 3133SOL    HW2 9415   3.999   3.575   0.393
 3134SOL     OW 9416   3.954   3.296   0.538
 3134SOL    HW1 9417   3.928   3.392   0.538
 3134SOL    HW2 9418   3.883   3.242   0.583
 3135SOL     OW 9419   3.964   2.953   0.886
 3135SOL    HW1 9420   3.978   2.869   0.938
 3135SOL    HW2 9421   3.909   3.017   0.941
 3136SOL     OW 9422   4.344   3.648   1.439
 3136SOL    HW1 9423   4.252   3.631   1.474
 3136SOL    HW2 9424   4.372   3.740   1.465
 3137SOL     OW 9425   4.330   2.826   0.123
 3137SOL    HW1 9426   4.337   2.910   0.069
 3137SOL    HW2 9427   4.376   2.839   0.211
 3138SOL     OW 9428   3.846   2.505   0.563
 3138SOL    HW1 9429   3.801   2.417   0.580
 3138SOL    HW2 9430   3.845   2.559   0.647
 3139SOL     OW 9431   3.751   3.458   0.117
 3139SOL    HW1 9432   3.732   3.362   0.138
 3139SOL    HW2 9433   3.718   3.516   0.192
 3140SOL     OW 9434   3.837   2.599   1.597
 3140SOL    HW1 9435   3.925   2.586   1.642
 3140SOL    HW2 9436   3.824   2.696   1.575
 3141SOL     OW 9437   4.337   3.227   0.726
 3141SOL    HW1 9438   4.288   3.140   0.735
 3141SOL    HW2 9439   4.314   3.270   0.639
 3142SOL     OW 9440   4.533   1.866   0.502
 3142SOL    HW1 9441   4.573   1.957   0.493
 3142SOL    HW2 9442   4.433   1.874   0.508
 3143SOL     OW 9443   3.921   2.838   1.264
 3143SOL    HW1 9444   4.010   2.793   1.250
 3143SOL    HW2 9445   3.848   2.773   1.245
 3144SOL     OW 9446   4.041   2.113   1.801
 3144SOL    HW1 9447   4.112   2.184   1.807
 3144SOL    HW2 9448   3.953   2.152   1.829
 3145SOL     OW 9449   4.322   2.591   0.270
 3145SOL    HW1 9450   4.346   2.660   0.202
 3145SOL    HW2 9451   4.244   2.624   0.324
 3146SOL     OW 9452   4.531   2.467   1.465
 3146SOL    HW1 9453   4.484   2.464   1.554
 3146SOL    HW2 9454   4.480   2.412   1.399
 3147SOL     OW 9455   4.697   2.752   1.572
 3147SOL    HW1 9456   4.743   2.668   1.543
 3147SOL    HW2 9457   4.641   2.786   1.497
 3148SOL     OW 9458   4.715   2.272   1.242
 3148SOL    HW1 9459   4.638   2.306   1.296
 3148SOL    HW2 9460   4.681   2.221   1.163
 3149SOL     OW 9461   3.800   2.673   0.789
 3149SOL    HW1 9462   3.899   2.661   0.798
 3149SOL    HW2 9463   3.776   2.768   0.810
 3150SOL     OW 9464   3.854   3.683   1.571
 3150SOL    HW1 9465   3.844   3.668   1.670
 3150SOL    HW2 9466   3.768   3.719   1.535
 3151SOL     OW 9467   4.589   2.210   0.195
 3151SOL    HW1 9468   4.648   2.273   0.146
 3151SOL    HW2 9469   4.608   2.116   0.166
 3152SOL     OW 9470   4.274   2.058   0.885
 3152SOL    HW1 9471   4.269   2.053   0.985
 3152SOL    HW2 9472   4.276   2.154   0.856
 3153SOL     OW 9473   4.732   3.318   0.477
 3153SOL    HW1 9474   4.686   3.390   0.425
 3153SOL    HW2 9475   4.728   3.338   0.575
 3154SOL     OW 9476   4.075   3.663   0.853
 3154SOL    HW1 9477   4.125   3.577   0.859
 3154SOL    HW2 9478   4.140   3.740   0.850
 3155SOL     OW 9479   4.045   2.805   0.242
 3155SOL    HW1 9480   4.127   2.844   0.200
 3155SOL    HW2 9481   4.018   2.723   0.193
 3156SOL     OW 9482   4.185   3.128   1.727
 3156SOL    HW1 9483   4.135   3.129   1.641
 3156SOL    HW2 9484   4.122   3.110   1.803
 3157SOL     OW 9485   3.926   2.147   1.498
 3157SOL    HW1 9486   3.846   2.207   1.485
 3157SOL    HW2 9487   3.916   2.098   1.584
 3158SOL     OW 9488   4.188   3.605   0.323
 3158SOL    HW1 9489   4.221   3.644   0.409
 3158SOL    HW2 9490   4.264   3.598   0.258
 3159SOL     OW 9491   3.973   3.647   1.241
 3159SOL    HW1 9492   4.030   3.582   1.291
 3159SOL    HW2 9493   3.957   3.614   1.148
 3160SOL     OW 9494   4.106   2.562   0.480
 3160SOL    HW1 9495   4.151   2.472   0.477
 3160SOL    HW2 9496   4.012   2.551   0.513
 3161SOL     OW 9497   4.338   1.984   0.117
 3161SOL    HW1 9498   4.436   1.962   0.124
 3161SOL    HW2 9499   4.307   1.967   0.024
 3162SOL     OW 9500   4.505   2.126   1.749
 3162SOL    HW1 9501   4.572   2.065   1.792
 3162SOL    HW2 9502   4.432   2.145   1.814
 3163SOL     OW 9503   4.612   3.376   1.195
 3163SOL    HW1 9504   4.589   3.351   1.101
 3163SOL    HW2 9505   4.673   3.307   1.234
 3164SOL     OW 9506   4.527   3.264   0.924
 3164SOL    HW1 9507   4.617   3.278   0.882
 3164SOL    HW2 9508   4.456   3.266   0.853
 3165SOL     OW 9509   4.646   2.365   0.899
 3165SOL    HW1 9510   4.621   2.356   0.803
 3165SOL    HW2 9511   4.694   2.283   0.930
 3166SOL     OW 9512   4.263   1.926   0.512
 3166SOL    HW1 9513   4.182   1.927   0.570
 3166SOL    HW2 9514   4.266   2.009   0.457
 3167SOL     OW 9515   4.659   2.098   0.480
 3167SOL    HW1 9516   4.611   2.139   0.402
 3167SOL    HW2 9517   4.758   2.096   0.461
 3168SOL     OW 9518   4.951   3.432   0.793
 3168SOL    HW1 9519   4.972   3.506   0.728
 3168SOL    HW2 9520   5.019   3.432   0.866
 3169SOL     OW 9521   4.183   3.014   0.741
 3169SOL    HW1 9522   4.112   2.987   0.806
 3169SOL    HW2 9523   4.157   2.986   0.648
 3170SOL     OW 9524   4.756   2.411   0.016
 3170SOL    HW1 9525   4.715   2.493  -0.023
 3170SOL    HW2 9526   4.820   2.437   0.089
 3171SOL     OW 9527   3.802   2.418   1.386
 3171SOL    HW1 9528   3.894   2.417   1.345
 3171SOL    HW2 9529   3.796   2.492   1.453
 3172SOL     OW 9530   4.285   2.084   1.147
 3172SOL    HW1 9531   4.323   2.000   1.184
 3172SOL    HW2 9532   4.197   2.103   1.191
 3173SOL     OW 9533   4.590   2.316   0.642
 3173SOL    HW1 9534   4.558   2.388   0.580
 3173SOL    HW2 9535   4.614   2.235   0.589
 3174SOL     OW 9536   4.741   1.901   0.753
 3174SOL    HW1 9537   4.669   1.906   0.684
 3174SOL    HW2 9538   4.717   1.832   0.822
 3175SOL     OW 9539   4.212   3.247   0.174
 3175SOL    HW1 9540   4.125   3.232   0.221
 3175SOL    HW2 9541   4.195   3.273   0.079
 3176SOL     OW 9542   4.251   2.118   0.328
 3176SOL    HW1 9543   4.278   2.059   0.253
 3176SOL    HW2 9544   4.251   2.213   0.297
 3177SOL     OW 9545   4.639   1.951   1.402
 3177SOL    HW1 9546   4.664   1.931   1.307
 3177SOL    HW2 9547   4.711   2.007   1.444
 3178SOL     OW 9548   4.704   2.978   1.719
 3178SOL    HW1 9549   4.605   2.984   1.729
 3178SOL    HW2 9550   4.727   2.898   1.663
 3179SOL     OW 9551   4.429   2.912   0.368
 3179SOL    HW1 9552   4.415   2.919   0.467
 3179SOL    HW2 9553   4.513   2.861   0.350
 3180SOL     OW 9554   4.134   2.675   1.251
 3180SOL    HW1 9555   4.220   2.687   1.301
 3180SOL    HW2 9556   4.092   2.588   1.278
 3181SOL     OW 9557   3.788   3.426   1.331
 3181SOL    HW1 9558   3.742   3.508   1.297
 3181SOL    HW2 9559   3.886   3.445   1.340
 3182SOL     OW 9560   4.091   2.962   0.501
 3182SOL    HW1 9561   4.084   3.045   0.445
 3182SOL    HW2 9562   4.095   2.882   0.441
 3183SOL     OW 9563   4.290   2.399   0.865
 3183SOL    HW1 9564   4.302   2.465   0.791
 3183SOL    HW2 9565   4.336   2.433   0.948
 3184SOL     OW 9566   4.078   3.372   1.329
 3184SOL    HW1 9567   4.057   3.328   1.242
 3184SOL    HW2 9568   4.175   3.398   1.332
 3185SOL     OW 9569   4.126   2.613   1.598
 3185SOL    HW1 9570   4.194   2.668   1.551
 3185SOL    HW2 9571   4.166   2.525   1.625
 3186SOL     OW 9572   4.737   1.967   1.770
 3186SOL    HW1 9573   4.743   2.052   1.718
 3186SOL    HW2 9574   4.769   1.891   1.713
 3187SOL     OW 9575   4.228   1.912   1.740
 3187SOL    HW1 9576   4.186   1.855   1.670
 3187SOL    HW2 9577   4.162   1.981   1.772
 3188SOL     OW 9578   4.297   2.732   1.029
 3188SOL    HW1 9579   4.341   2.821   1.020
 3188SOL    HW2 9580   4.234   2.732   1.106
 3189SOL     OW 9581   4.933   2.387   0.275
 3189SOL    HW1 9582   4.946   2.303   0.329
 3189SOL    HW2 9583   4.904   2.461   0.335
 3190SOL     OW 9584   4.031   2.075   1.231
 3190SOL    HW1 9585   4.008   2.112   1.321
 3190SOL    HW2 9586   4.001   1.980   1.225
 3191SOL     OW 9587   3.761   3.172   1.282
 3191SOL    HW1 9588   3.814   3.123   1.350
 3191SOL    HW2 9589   3.783   3.270   1.287
 3192SOL     OW 9590   4.456   2.496   1.064
 3192SOL    HW1 9591   4.515   2.470   0.988
 3192SOL    HW2 9592   4.428   2.592   1.053
 3193SOL     OW 9593   4.031   1.925   0.618
 3193SOL    HW1 9594   4.020   2.019   0.651
 3193SOL    HW2 9595   4.026   1.862   0.695
 3194SOL     OW 9596   4.747   2.628   0.966
 3194SOL    HW1 9597   4.762   2.649   1.062
 3194SOL    HW2 9598   4.717   2.533   0.957
 3195SOL     OW 9599   4.704   3.435   1.700
 3195SOL    HW1 9600   4.684   3.479   1.612
 3195SOL    HW2 9601   4.743   3.344   1.684
 3196SOL     OW 9602   4.074   2.760   1.804
 3196SOL    HW1 9603   4.150   2.804   1.852
 3196SOL    HW2 9604   4.109   2.713   1.722
 3197SOL     OW 9605   4.043   2.672   0.949
 3197SOL    HW1 9606   4.136   2.708   0.954
 3197SOL    HW2 9607   4.037   2.587   1.001
 3198SOL     OW 9608   4.063   2.371   1.006
 3198SOL    HW1 9609   4.011   2.288   0.989
 3198SOL    HW2 9610   4.140   2.376   0.942
 3199SOL     OW 9611   3.732   3.188   0.200
 3199SOL    HW1 9612   3.639   3.209   0.169
 3199SOL    HW2 9613   3.742   3.089   0.213
 3200SOL     OW 9614   3.812   3.663   0.927
 3200SOL    HW1 9615   3.770   3.577   0.900
 3200SOL    HW2 9616   3.906   3.666   0.893
 3201SOL     OW 9617   4.228   3.430   0.910
 3201SOL    HW1 9618   4.294   3.504   0.919
 3201SOL    HW2 9619   4.272   3.351   0.868
 3202SOL     OW 9620   4.726   2.658   1.238
 3202SOL    HW1 9621   4.767   2.626   1.324
 3202SOL    HW2 9622   4.630   2.631   1.235
 3203SOL     OW 9623   3.764   2.406   1.114
 3203SOL    HW1 9624   3.849   2.373   1.073
 3203SOL    HW2 9625   3.777   2.421   1.212
 3204SOL     OW 9626   3.913   2.382   1.722
 3204SOL    HW1 9627   3.972   2.342   1.652
 3204SOL    HW2 9628   3.855   2.453   1.681
 3205SOL     OW 9629   4.539   2.434   0.325
 3205SOL    HW1 9630   4.546   2.345   0.279
 3205SOL    HW2 9631   4.445   2.468   0.317
 3206SOL     OW 9632   3.976   3.426   1.744
 3206SOL    HW1 9633   3.946   3.483   1.820
 3206SOL    HW2 9634   3.969   3.329   1.770
 3207SOL     OW 9635   4.395   2.326   1.269
 3207SOL    HW1 9636   4.361   2.237   1.239
 3207SOL    HW2 9637   4.421   2.380   1.189
 3208SOL     OW 9638   4.654   3.540   1.465
 3208SOL    HW1 9639   4.630   3.522   1.370
 3208SOL    HW2 9640   4.684   3.634   1.475
 3209SOL     OW 9641   4.197   2.362   0.191
 3209SOL    HW1 9642   4.258   2.442   0.195
 3209SOL    HW2 9643   4.102   2.393   0.198
 3210SOL     OW 9644   3.883   2.999   1.466
 3210SOL    HW1 9645   3.905   2.938   1.542
 3210SOL    HW2 9646   3.893   2.950   1.380
 3211SOL     OW 9647   3.807   3.120   1.022
 3211SOL    HW1 9648   3.802   3.119   1.122
 3211SOL    HW2 9649   3.724   3.079   0.984
 3212SOL     OW 9650   4.412   3.524   1.716
 3212SOL    HW1 9651   4.356   3.605   1.725
 3212SOL    HW2 9652   4.464   3.528   1.630
 3213SOL     OW 9653   4.627   1.948   0.133
 3213SOL    HW1 9654   4.678   1.949   0.047
 3213SOL    HW2 9655   4.683   1.906   0.204
 3214SOL     OW 9656   3.854   3.656   1.851
 3214SOL    HW1 9657   3.813   3.582   1.904
 3214SOL    HW2 9658   3.918   3.707   1.909
 3215SOL     OW 9659   5.004   2.789   0.672
 3215SOL    HW1 9660   5.064   2.708   0.674
 3215SOL    HW2 9661   5.044   2.858   0.612
 3216SOL     OW 9662   4.554   3.135   1.422
 3216SOL    HW1 9663   4.549   3.168   1.517
 3216SOL    HW2 9664   4.468   3.154   1.376
 3217SOL     OW 9665   4.396   3.478   0.154
 3217SOL    HW1 9666   4.405   3.488   0.055
 3217SOL    HW2 9667   4.356   3.389   0.175
 3218SOL     OW 9668   3.987   2.188   0.720
 3218SOL    HW1 9669   3.908   2.239   0.686
 3218SOL    HW2 9670   3.978   2.173   0.818
 3219SOL     OW 9671   4.546   2.864   1.372
 3219SOL    HW1 9672   4.586   2.863   1.280
 3219SOL    HW2 9673   4.556   2.956   1.412
 3220SOL     OW 9674   4.640   2.772   0.291
 3220SOL    HW1 9675   4.703   2.810   0.223
 3220SOL    HW2 9676   4.680   2.689   0.330
 3221SOL     OW 9677   4.096   3.150   1.490
 3221SOL    HW1 9678   4.083   3.243   1.456
 3221SOL    HW2 9679   4.012   3.098   1.477
 3222SOL     OW 9680   4.738   2.098   0.971
 3222SOL    HW1 9681   4.730   2.062   0.878
 3222SOL    HW2 9682   4.736   2.022   1.036
 3223SOL     OW 9683   4.314   3.349   0.491
 3223SOL    HW1 9684   4.356   3.291   0.421
 3223SOL    HW2 9685   4.270   3.428   0.447
 3224SOL     OW 9686   3.979   3.210   0.290
 3224SOL    HW1 9687   3.883   3.211   0.263
 3224SOL    HW2 9688   3.991   3.263   0.374
 3225SOL     OW 9689   3.829   2.875   1.726
 3225SOL    HW1 9690   3.752   2.842   1.780
 3225SOL    HW2 9691   3.914   2.845   1.768
 3226SOL     OW 9692   4.396   2.065   1.489
 3226SOL    HW1 9693   4.486   2.049   1.449
 3226SOL    HW2 9694   4.404   2.070   1.588
 3227SOL     OW 9695   3.799   2.207   0.033
 3227SOL    HW1 9696   3.707   2.179   0.004
 3227SOL    HW2 9697   3.830   2.284  -0.023
 3228SOL     OW 9698   4.337   2.704   1.431
 3228SOL    HW1 9699   4.393   2.785   1.414
 3228SOL    HW2 9700   4.396   2.624   1.434
 3229SOL     OW 9701   4.440   2.427   1.708
 3229SOL    HW1 9702   4.459   2.492   1.782
 3229SOL    HW2 9703   4.500   2.347   1.717
 3230SOL     OW 9704   4.114   3.603   1.560
 3230SOL    HW1 9705   4.023   3.644   1.558
 3230SOL    HW2 9706   4.107   3.509   1.592
 3231SOL     OW 9707   4.949   2.187   0.449
 3231SOL    HW1 9708   5.014   2.113   0.438
 3231SOL    HW2 9709   4.969   2.237   0.533
 3232SOL     OW 9710   4.318   2.607   0.652
 3232SOL    HW1 9711   4.368   2.692   0.633
 3232SOL    HW2 9712   4.230   2.609   0.604
 3233SOL     OW 9713   4.583   3.236   0.016
 3233SOL    HW1 9714   4.537   3.251   0.104
 3233SOL    HW2 9715   4.627   3.321  -0.014
 3234SOL     OW 9716   4.385   3.652   0.953
 3234SOL    HW1 9717   4.339   3.740   0.940
 3234SOL    HW2 9718   4.484   3.664   0.946
 3235SOL     OW 9719   4.583   2.818   0.861
 3235SOL    HW1 9720   4.637   2.749   0.909
 3235SOL    HW2 9721   4.551   2.887   0.927
 3236SOL     OW 9722   4.807   2.846   0.087
 3236SOL    HW1 9723   4.784   2.899   0.005
 3236SOL    HW2 9724   4.888   2.790   0.068
 3237SOL     OW 9725   3.945   3.176   1.844
 3237SOL    HW1 9726   3.880   3.103   1.823
 3237SOL    HW2 9727   3.949   3.190   1.942
 3238SOL     OW 9728   3.803   3.102   0.653
 3238SOL    HW1 9729   3.802   3.055   0.741
 3238SOL    HW2 9730   3.885   3.074   0.602
 3239SOL     OW 9731   4.396   3.253   1.624
 3239SOL    HW1 9732   4.318   3.203   1.662
 3239SOL    HW2 9733   4.393   3.348   1.655
 3240SOL     OW 9734   4.152   2.286   0.520
 3240SOL    HW1 9735   4.182   2.214   0.458
 3240SOL    HW2 9736   4.113   2.246   0.603
 3241SOL     OW 9737   4.041   2.409   1.280
 3241SOL    HW1 9738   4.079   2.350   1.352
 3241SOL    HW2 9739   4.081   2.383   1.192
 3242SOL     OW 9740   4.536   3.448   0.687
 3242SOL    HW1 9741   4.568   3.458   0.593
 3242SOL    HW2 9742   4.457   3.386   0.689
 3243SOL     OW 9743   4.725   1.896   1.154
 3243SOL    HW1 9744   4.662   1.824   1.123
 3243SOL    HW2 9745   4.818   1.860   1.154
 3244SOL     OW 9746   4.494   3.192   0.301
 3244SOL    HW1 9747   4.448   3.105   0.318
 3244SOL    HW2 9748   4.585   3.189   0.342
 3245SOL     OW 9749   4.342   3.429   1.284
 3245SOL    HW1 9750   4.337   3.511   1.341
 3245SOL    HW2 9751   4.431   3.426   1.239
 3246SOL     OW 9752   3.763   2.939   0.300
 3246SOL    HW1 9753   3.862   2.928   0.291
 3246SOL    HW2 9754   3.723   2.853   0.332
 3247SOL     OW 9755   4.599   3.508   0.337
 3247SOL    HW1 9756   4.522   3.473   0.283
 3247SOL    HW2 9757   4.567   3.579   0.399
 3248SOL     OW 9758   3.954   2.490   1.975
 3248SOL    HW1 9759   3.861   2.488   2.012
 3248SOL    HW2 9760   3.955   2.451   1.883
 3249SOL     OW 9761   3.949   2.137   2.858
 3249SOL    HW1 9762   3.984   2.120   2.950
 3249SOL    HW2 9763   3.861   2.092   2.846
 3250SOL     OW 9764   3.743   2.230   2.509
 3250SOL    HW1 9765   3.661   2.273   2.548
 3250SOL    HW2 9766   3.715   2.157   2.446
 3251SOL     OW 9767   4.293   3.137   3.027
 3251SOL    HW1 9768   4.200   3.130   2.990
 3251SOL    HW2 9769   4.304   3.226   3.071
 3252SOL     OW 9770   4.492   3.006   2.885
 3252SOL    HW1 9771   4.414   3.023   2.945
 3252SOL    HW2 9772   4.526   3.093   2.849
 3253SOL     OW 9773   4.574   2.660   3.685
 3253SOL    HW1 9774   4.570   2.736   3.750
 3253SOL    HW2 9775   4.596   2.696   3.594
 3254SOL     OW 9776   4.409   2.874   2.527
 3254SOL    HW1 9777   4.478   2.858   2.597
 3254SOL    HW2 9778   4.336   2.931   2.565
 3255SOL     OW 9779   4.410   3.023   3.665
 3255SOL    HW1 9780   4.470   3.102   3.679
 3255SOL    HW2 9781   4.324   3.054   3.624
 3256SOL     OW 9782   4.059   3.297   2.923
 3256SOL    HW1 9783   3.981   3.266   2.870
 3256SOL    HW2 9784   4.117   3.355   2.866
 3257SOL     OW 9785   4.162   2.254   3.361
 3257SOL    HW1 9786   4.244   2.198   3.370
 3257SOL    HW2 9787   4.081   2.196   3.365
 3258SOL     OW 9788   3.955   3.575   2.345
 3258SOL    HW1 9789   3.989   3.652   2.399
 3258SOL    HW2 9790   3.999   3.575   2.255
 3259SOL     OW 9791   3.954   3.296   2.400
 3259SOL    HW1 9792   3.928   3.392   2.400
 3259SOL    HW2 9793   3.883   3.242   2.445
 3260SOL     OW 9794   3.964   2.953   2.748
 3260SOL    HW1 9795   3.978   2.869   2.800
 3260SOL    HW2 9796   3.909   3.017   2.803
 3261SOL     OW 9797   4.344   3.648   3.301
 3261SOL    HW1 9798   4.252   3.631   3.336
 3261SOL    HW2 9799   4.372   3.740   3.327
 3262SOL     OW 9800   4.330   2.826   1.985
 3262SOL    HW1 9801   4.337   2.910   1.931
 3262SOL    HW2 9802   4.376   2.839   2.073
 3263SOL     OW 9803   3.846   2.505   2.425
 3263SOL    HW1 9804   3.801   2.417   2.442
 3263SOL    HW2 9805   3.845   2.559   2.509
 3264SOL     OW 9806   3.751   3.458   1.979
 3264SOL    HW1 9807   3.732   3.362   2.000
 3264SOL    HW2 9808   3.718   3.516   2.054
 3265SOL     OW 9809   3.837   2.599   3.459
 3265SOL    HW1 9810   3.925   2.586   3.504
 3265SOL    HW2 9811   3.824   2.696   3.437
 3266SOL     OW 9812   4.337   3.227   2.588
 3266SOL    HW1 9813   4.288   3.140   2.597
 3266SOL    HW2 9814   4.314   3.270   2.501
 3267SOL     OW 9815   4.533   1.866   2.364
 3267SOL    HW1 9816   4.573   1.957   2.355
 3267SOL    HW2 9817   4.433   1.874   2.370
 3268SOL     OW 9818   3.921   2.838   3.126
 3268SOL    HW1 9819   4.010   2.793   3.112
 3268SOL    HW2 9820   3.848   2.773   3.107
 3269SOL     OW 9821   4.041   2.113   3.663
 3269SOL    HW1 9822   4.112   2.184   3.669
 3269SOL    HW2 9823   3.953   2.152   3.691
 3270SOL     OW 9824   4.322   2.591   2.132
 3270SOL    HW1 9825   4.346   2.660   2.064
 3270SOL    HW2 9826   4.244   2.624   2.186
 3271SOL     OW 9827   4.531   2.467   3.327
 3271SOL    HW1 9828   4.484   2.464   3.416
 3271SOL    HW2 9829   4.480   2.412   3.261
 3272SOL     OW 9830   4.697   2.752   3.434
 3272SOL    HW1 9831   4.743   2.668   3.405
 3272SOL    HW2 9832   4.641   2.786   3.359
 3273SOL     OW 9833   4.715   2.272   3.104
 3273SOL    HW1 9834   4.638   2.306   3.158
 3273SOL    HW2 9835   4.681   2.221   3.025
 3274SOL     OW 9836   3.800   2.673   2.651
 3274SOL    HW1 9837   3.899   2.661   2.660
 3274SOL    HW2 9838   3.776   2.768   2.672
 3275SOL     OW 9839   3.854   3.683   3.433
 3275SOL    HW1 9840   3.844   3.668   3.532
 3275SOL    HW2 9841   3.768   3.719   3.397
 3276SOL     OW 9842   4.589   2.210   2.057
 3276SOL    HW1 9843   4.648   2.273   2.008
 3276SOL    HW2 9844   4.608   2.116   2.028
 3277SOL     OW 9845   4.274   2.058   2.747
 3277SOL    HW1 9846   4.269   2.053   2.847
 3277SOL    HW2 9847   4.276   2.154   2.718
 3278SOL     OW 9848   4.732   3.318   2.339
 3278SOL    HW1 9849   4.686   3.390   2.287
 3278SOL    HW2 9850   4.728   3.338   2.437
 3279SOL     OW 9851   4.075   3.663   2.715
 3279SOL    HW1 9852   4.125   3.577   2.721
 3279SOL    HW2 9853   4.140   3.740   2.712
 3280SOL     OW 9854   4.045   2.805   2.104
 3280SOL    HW1 9855   4.127   2.844   2.062
 3280SOL    HW2 9856   4.018   2.723   2.055
 3281SOL     OW 9857   4.185   3.128   3.589
 3281SOL    HW1 9858   4.135   3.129   3.503
 3281SOL    HW2 9859   4.122   3.110   3.665
 3282SOL     OW 9860   3.926   2.147   3.360
 3282SOL    HW1 9861   3.846   2.207   3.347
 3282SOL    HW2 9862   3.916   2.098   3.446
 3283SOL     OW 9863   4.188   3.605   2.185
 3283SOL    HW1 9864   4.221   3.644   2.271
 3283SOL    HW2 9865   4.264   3.598   2.120
 3284SOL     OW 9866   3.973   3.647   3.103
 3284SOL    HW1 9867   4.030   3.582   3.153
 3284SOL    HW2 9868   3.957   3.614   3.010
 3285SOL     OW 9869   4.106   2.562   2.342
 3285SOL    HW1 9870   4.151   2.472   2.339
 3285SOL    HW2 9871   4.012   2.551   2.375
 3286SOL     OW 9872   4.338   1.984   1.979
 3286SOL    HW1 9873   4.436   1.962   1.986
 3286SOL    HW2 9874   4.307   1.967   1.886
 3287SOL     OW 9875   4.505   2.126   3.611
 3287SOL    HW1 9876   4.572   2.065   3.654
 3287SOL    HW2 9877   4.432   2.145   3.676
 3288SOL     OW 9878   4.612   3.376   3.057
 3288SOL    HW1 9879   4.589   3.351   2.963
 3288SOL    HW2 9880   4.673   3.307   3.096
 3289SOL     OW 9881   4.527   3.264   2.786
 3289SOL    HW1 9882   4.617   3.278   2.744
 3289SOL    HW2 9883   4.456   3.266   2.715
 3290SOL     OW 9884   4.646   2.365   2.761
 3290SOL    HW1 9885   4.621   2.356   2.665
 3290SOL    HW2 9886   4.694   2.283   2.792
 3291SOL     OW 9887   4.263   1.926   2.374
 3291SOL    HW1 9888   4.182   1.927   2.432
 3291SOL    HW2 9889   4.266   2.009   2.319
 3292SOL     OW 9890   4.021   1.897   2.033
 3292SOL    HW1 9891   4.070   1.981   2.012
 3292SOL    HW2 9892   4.083   1.832   2.078
 3293SOL     OW 9893   4.659   2.098   2.342
 3293SOL    HW1 9894   4.611   2.139   2.264
 3293SOL    HW2 9895   4.758   2.096   2.323
 3294SOL     OW 9896   4.951   3.432   2.655
 3294SOL    HW1 9897   4.972   3.506   2.590
 3294SOL    HW2 9898   5.019   3.432   2.728
 3295SOL     OW 9899   4.183   3.014   2.603
 3295SOL    HW1 9900   4.112   2.987   2.668
 3295SOL    HW2 9901   4.157   2.986   2.510
 3296SOL     OW 9902   4.756   2.411   1.878
 3296SOL    HW1 9903   4.715   2.493   1.839
 3296SOL    HW2 9904   4.820   2.437   1.951
 3297SOL     OW 9905   3.802   2.418   3.248
 3297SOL    HW1 9906   3.894   2.417   3.207
 3297SOL    HW2 9907   3.796   2.492   3.315
 3298SOL     OW 9908   4.285   2.084   3.009
 3298SOL    HW1 9909   4.323   2.000   3.046
 3298SOL    HW2 9910   4.197   2.103   3.053
 3299SOL     OW 9911   4.590   2.316   2.504
 3299SOL    HW1 9912   4.558   2.388   2.442
 3299SOL    HW2 9913   4.614   2.235   2.451
 3300SOL     OW 9914   4.741   1.901   2.615
 3300SOL    HW1 9915   4.669   1.906   2.546
 3300SOL    HW2 9916   4.717   1.832   2.684
 3301SOL     OW 9917   4.212   3.247   2.036
 3301SOL    HW1 9918   4.125   3.232   2.083
 3301SOL    HW2 9919   4.195   3.273   1.941
 3302SOL     OW 9920   4.251   2.118   2.190
 3302SOL    HW1 9921   4.278   2.059   2.115
 3302SOL    HW2 9922   4.251   2.213   2.159
 3303SOL     OW 9923   4.639   1.951   3.264
 3303SOL    HW1 9924   4.664   1.931   3.169
 3303SOL    HW2 9925   4.711   2.007   3.306
 3304SOL     OW 9926   4.704   2.978   3.581
 3304SOL    HW1 9927   4.605   2.984   3.591
 3304SOL    HW2 9928   4.727   2.898   3.525
 3305SOL     OW 9929   4.429   2.912   2.230
 3305SOL    HW1 9930   4.415   2.919   2.329
 3305SOL    HW2 9931   4.513   2.861   2.212
 3306SOL     OW 9932   4.134   2.675   3.113
 3306SOL    HW1 9933   4.220   2.687   3.163
 3306SOL    HW2 9934   4.092   2.588   3.140
 3307SOL     OW 9935   3.788   3.426   3.193
 3307SOL    HW1 9936   3.742   3.508   3.159
 3307SOL    HW2 9937   3.886   3.445   3.202
 3308SOL     OW 9938   4.091   2.962   2.363
 3308SOL    HW1 9939   4.084   3.045   2.307
 3308SOL    HW2 9940   4.095   2.882   2.303
 3309SOL     OW 9941   4.290   2.399   2.727
 3309SOL    HW1 9942   4.302   2.465   2.653
 3309SOL    HW2 9943   4.336   2.433   2.810
 3310SOL     OW 9944   4.078   3.372   3.191
 3310SOL    HW1 9945   4.057   3.328   3.104
 3310SOL    HW2 9946   4.175   3.398   3.194
 3311SOL     OW 9947   4.126   2.613   3.460
 3311SOL    HW1 9948   4.194   2.668   3.413
 3311SOL    HW2 9949   4.166   2.525   3.487
 3312SOL     OW 9950   4.737   1.967   3.632
 3312SOL    HW1 9951   4.743   2.052   3.580
 3312SOL    HW2 9952   4.769   1.891   3.575
 3313SOL     OW 9953   4.228   1.912   3.602
 3313SOL    HW1 9954   4.186   1.855   3.532
 3313SOL    HW2 9955   4.162   1.981   3.634
 3314SOL     OW 9956   4.297   2.732   2.891
 3314SOL    HW1 9957   4.341   2.821   2.882
 3314SOL    HW2 9958   4.234   2.732   2.968
 3315SOL     OW 9959   4.933   2.387   2.137
 3315SOL    HW1 9960   4.946   2.303   2.191
 3315SOL    HW2 9961   4.904   2.461   2.197
 3316SOL     OW 9962   4.031   2.075   3.093
 3316SOL    HW1 9963   4.008   2.112   3.183
 3316SOL    HW2 9964   4.001   1.980   3.087
 3317SOL     OW 9965   3.761   3.172   3.144
 3317SOL    HW1 9966   3.814   3.123   3.212
 3317SOL    HW2 9967   3.783   3.270   3.149
 3318SOL     OW 9968   4.456   2.496   2.926
 3318SOL    HW1 9969   4.515   2.470   2.850
 3318SOL    HW2 9970   4.428   2.592   2.915
 3319SOL     OW 9971   4.031   1.925   2.480
 3319SOL    HW1 9972   4.020   2.019   2.513
 3319SOL    HW2 9973   4.026   1.862   2.557
 3320SOL     OW 9974   4.747   2.628   2.828
 3320SOL    HW1 9975   4.762   2.649   2.924
 3320SOL    HW2 9976   4.717   2.533   2.819
 3321SOL     OW 9977   4.704   3.435   3.562
 3321SOL    HW1 9978   4.684   3.479   3.474
 3321SOL    HW2 9979   4.743   3.344   3.546
 3322SOL     OW 9980   4.074   2.760   3.666
 3322SOL    HW1 9981   4.150   2.804   3.714
 3322SOL    HW2 9982   4.109   2.713   3.584
 3323SOL     OW 9983   4.043   2.672   2.811
 3323SOL    HW1 9984   4.136   2.708   2.816
 3323SOL    HW2 9985   4.037   2.587   2.863
 3324SOL     OW 9986   4.063   2.371   2.868
 3324SOL    HW1 9987   4.011   2.288   2.851
 3324SOL    HW2 9988   4.140   2.376   2.804
 3325SOL     OW 9989   3.732   3.188   2.062
 3325SOL    HW1 9990   3.639   3.209   2.031
 3325SOL    HW2 9991   3.742   3.089   2.075
 3326SOL     OW 9992   3.812   3.663   2.789
 3326SOL    HW1 9993   3.770   3.577   2.762
 3326SOL    HW2 9994   3.906   3.666   2.755
 3327SOL     OW 9995   4.228   3.430   2.772
 3327SOL    HW1 9996   4.294   3.504   2.781
 3327SOL    HW2 9997   4.272   3.351   2.730
 3328SOL     OW 9998   4.726   2.658   3.100
 3328SOL    HW1 9999   4.767   2.626   3.186
 3328SOL    HW210000   4.630   2.631   3.097
 3329SOL     OW10001   3.764   2.406   2.976
 3329SOL    HW110002   3.849   2.373   2.935
 3329SOL    HW210003   3.777   2.421   3.074
 3330SOL     OW10004   3.913   2.382   3.584
 3330SOL    HW110005   3.972   2.342   3.514
 3330SOL    HW210006   3.855   2.453   3.543
 3331SOL     OW10007   4.539   2.434   2.187
 3331SOL    HW110008   4.546   2.345   2.141
 3331SOL    HW210009   4.445   2.468   2.179
 3332SOL     OW10010   3.976   3.426   3.606
 3332SOL    HW110011   3.946   3.483   3.682
 3332SOL    HW210012   3.969   3.329   3.632
 3333SOL     OW10013   4.395   2.326   3.131
 3333SOL    HW110014   4.361   2.237   3.101
 3333SOL    HW210015   4.421   2.380   3.051
 3334SOL     OW10016   4.654   3.540   3.327
 3334SOL    HW110017   4.630   3.522   3.232
 3334SOL    HW210018   4.684   3.634   3.337
 3335SOL     OW10019   4.197   2.362   2.053
 3335SOL    HW110020   4.258   2.442   2.057
 3335SOL    HW210021   4.102   2.393   2.060
 3336SOL     OW10022   3.883   2.999   3.328
 3336SOL    HW110023   3.905   2.938   3.404
 3336SOL    HW210024   3.893   2.950   3.242
 3337SOL     OW10025   3.807   3.120   2.884
 3337SOL    HW110026   3.802   3.119   2.984
 3337SOL    HW210027   3.724   3.079   2.846
 3338SOL     OW10028   4.412   3.524   3.578
 3338SOL    HW110029   4.356   3.605   3.587
 3338SOL    HW210030   4.464   3.528   3.492
 3339SOL     OW10031   3.854   3.656   3.713
 3339SOL    HW110032   3.813   3.582   3.766
 3339SOL    HW210033   3.918   3.707   3.771
 3340SOL     OW10034   5.004   2.789   2.534
 3340SOL    HW110035   5.064   2.708   2.536
 3340SOL    HW210036   5.044   2.858   2.474
 3341SOL     OW10037   4.554   3.135   3.284
 3341SOL    HW110038   4.549   3.168   3.379
 3341SOL    HW210039   4.468   3.154   3.238
 3342SOL     OW10040   4.396   3.478   2.016
 3342SOL    HW110041   4.405   3.488   1.917
 3342SOL    HW210042   4.356   3.389   2.037
 3343SOL     OW10043   3.987   2.188   2.582
 3343SOL    HW110044   3.908   2.239   2.548
 3343SOL    HW210045   3.978   2.173   2.680
 3344SOL     OW10046   4.546   2.864   3.234
 3344SOL    HW110047   4.586   2.863   3.142
 3344SOL    HW210048   4.556   2.956   3.274
 3345SOL     OW10049   4.640   2.772   2.153
 3345SOL    HW110050   4.703   2.810   2.085
 3345SOL    HW210051   4.680   2.689   2.192
 3346SOL     OW10052   4.096   3.150   3.352
 3346SOL    HW110053   4.083   3.243   3.318
 3346SOL    HW210054   4.012   3.098   3.339
 3347SOL     OW10055   4.738   2.098   2.833
 3347SOL    HW110056   4.730   2.062   2.740
 3347SOL    HW210057   4.736   2.022   2.898
 3348SOL     OW10058   4.314   3.349   2.353
 3348SOL    HW110059   4.356   3.291   2.283
 3348SOL    HW210060   4.270   3.428   2.309
 3349SOL     OW10061   3.979   3.210   2.152
 3349SOL    HW110062   3.883   3.211   2.125
 3349SOL    HW210063   3.991   3.263   2.236
 3350SOL     OW10064   3.829   2.875   3.588
 3350SOL    HW110065   3.752   2.842   3.642
 3350SOL    HW210066   3.914   2.845   3.630
 3351SOL     OW10067   4.396   2.065   3.351
 3351SOL    HW110068   4.486   2.049   3.311
 3351SOL    HW210069   4.404   2.070   3.450
 3352SOL     OW10070   3.799   2.207   1.895
 3352SOL    HW110071   3.707   2.179   1.866
 3352SOL    HW210072   3.830   2.284   1.839
 3353SOL     OW10073   3.796   2.028   2.180
 3353SOL    HW110074   3.779   2.111   2.126
 3353SOL    HW210075   3.886   1.991   2.158
 3354SOL     OW10076   4.337   2.704   3.293
 3354SOL    HW110077   4.393   2.785   3.276
 3354SOL    HW210078   4.396   2.624   3.296
 3355SOL     OW10079   4.440   2.427   3.570
 3355SOL    HW110080   4.459   2.492   3.644
 3355SOL    HW210081   4.500   2.347   3.579
 3356SOL     OW10082   4.114   3.603   3.422
 3356SOL    HW110083   4.023   3.644   3.420
 3356SOL    HW210084   4.107   3.509   3.454
 3357SOL     OW10085   4.949   2.187   2.311
 3357SOL    HW110086   5.014   2.113   2.300
 3357SOL    HW210087   4.969   2.237   2.395
 3358SOL     OW10088   4.318   2.607   2.514
 3358SOL    HW110089   4.368   2.692   2.495
 3358SOL    HW210090   4.230   2.609   2.466
 3359SOL     OW10091   4.583   3.236   1.878
 3359SOL    HW110092   4.537   3.251   1.966
 3359SOL    HW210093   4.627   3.321   1.848
 3360SOL     OW10094   4.385   3.652   2.815
 3360SOL    HW110095   4.339   3.740   2.802
 3360SOL    HW210096   4.484   3.664   2.808
 3361SOL     OW10097   4.583   2.818   2.723
 3361SOL    HW110098   4.637   2.749   2.771
 3361SOL    HW210099   4.551   2.887   2.789
 3362SOL     OW10100   3.945   3.176   3.706
 3362SOL    HW110101   3.880   3.103   3.685
 3362SOL    HW210102   3.949   3.190   3.804
 3363SOL     OW10103   3.803   3.102   2.515
 3363SOL    HW110104   3.802   3.055   2.603
 3363SOL    HW210105   3.885   3.074   2.464
 3364SOL     OW10106   4.396   3.253   3.486
 3364SOL    HW110107   4.318   3.203   3.524
 3364SOL    HW210108   4.393   3.348   3.517
 3365SOL     OW10109   4.152   2.286   2.382
 3365SOL    HW110110   4.182   2.214   2.320
 3365SOL    HW210111   4.113   2.246   2.465
 3366SOL     OW10112   4.041   2.409   3.142
 3366SOL    HW110113   4.079   2.350   3.214
 3366SOL    HW210114   4.081   2.383   3.054
 3367SOL     OW10115   4.536   3.448   2.549
 3367SOL    HW110116   4.568   3.458   2.455
 3367SOL    HW210117   4.457   3.386   2.551
 3368SOL     OW10118   4.725   1.896   3.016
 3368SOL    HW110119   4.662   1.824   2.985
 3368SOL    HW210120   4.818   1.860   3.016
 3369SOL     OW10121   4.494   3.192   2.163
 3369SOL    HW110122   4.448   3.105   2.180
 3369SOL    HW210123   4.585   3.189   2.204
 3370SOL     OW10124   4.342   3.429   3.146
 3370SOL    HW110125   4.337   3.511   3.203
 3370SOL    HW210126   4.431   3.426   3.101
 3371SOL     OW10127   3.763   2.939   2.162
 3371SOL    HW110128   3.862   2.928   2.153
 3371SOL    HW210129   3.723   2.853   2.194
 3372SOL     OW10130   4.599   3.508   2.199
 3372SOL    HW110131   4.522   3.473   2.145
 3372SOL    HW210132   4.567   3.579   2.261
 3373SOL     OW10133   3.954   2.490   3.837
 3373SOL    HW110134   3.861   2.488   3.874
 3373SOL    HW210135   3.955   2.451   3.745
 3374SOL     OW10136   3.949   2.137   4.720
 3374SOL    HW110137   3.984   2.120   4.812
 3374SOL    HW210138   3.861   2.092   4.708
 3375SOL     OW10139   3.743   2.230   4.371
 3375SOL    HW110140   3.661   2.273   4.410
 3375SOL    HW210141   3.715   2.157   4.308
 3376SOL     OW10142   4.492   3.006   4.747
 3376SOL    HW110143   4.414   3.023   4.807
 3376SOL    HW210144   4.526   3.093   4.711
 3377SOL     OW10145   4.409   2.874   4.389
 3377SOL    HW110146   4.478   2.858   4.459
 3377SOL    HW210147   4.336   2.931   4.427
 3378SOL     OW10148   4.059   3.297   4.785
 3378SOL    HW110149   3.981   3.266   4.732
 3378SOL    HW210150   4.117   3.355   4.728
 3379SOL     OW10151   3.955   3.575   4.207
 3379SOL    HW110152   3.989   3.652   4.261
 3379SOL    HW210153   3.999   3.575   4.117
 3380SOL     OW10154   3.954   3.296   4.262
 3380SOL    HW110155   3.928   3.392   4.262
 3380SOL    HW210156   3.883   3.242   4.307
 3381SOL     OW10157   3.964   2.953   4.610
 3381SOL    HW110158   3.978   2.869   4.662
 3381SOL    HW210159   3.909   3.017   4.665
 3382SOL     OW10160   4.330   2.826   3.847
 3382SOL    HW110161   4.337   2.910   3.793
 3382SOL    HW210162   4.376   2.839   3.935
 3383SOL     OW10163   3.846   2.505   4.287
 3383SOL    HW110164   3.801   2.417   4.304
 3383SOL    HW210165   3.845   2.559   4.371
 3384SOL     OW10166   3.751   3.458   3.841
 3384SOL    HW110167   3.732   3.362   3.862
 3384SOL    HW210168   3.718   3.516   3.916
 3385SOL     OW10169   4.337   3.227   4.450
 3385SOL    HW110170   4.288   3.140   4.459
 3385SOL    HW210171   4.314   3.270   4.363
 3386SOL     OW10172   4.533   1.866   4.226
 3386SOL    HW110173   4.573   1.957   4.217
 3386SOL    HW210174   4.433   1.874   4.232
 3387SOL     OW10175   4.322   2.591   3.994
 3387SOL    HW110176   4.346   2.660   3.926
 3387SOL    HW210177   4.244   2.624   4.048
 3388SOL     OW10178   3.800   2.673   4.513
 3388SOL    HW110179   3.899   2.661   4.522
 3388SOL    HW210180   3.776   2.768   4.534
 3389SOL     OW10181   4.589   2.210   3.919
 3389SOL    HW110182   4.648   2.273   3.870
 3389SOL    HW210183   4.608   2.116   3.890
 3390SOL     OW10184   4.274   2.058   4.609
 3390SOL    HW110185   4.269   2.053   4.709
 3390SOL    HW210186   4.276   2.154   4.580
 3391SOL     OW10187   4.732   3.318   4.201
 3391SOL    HW110188   4.686   3.390   4.149
 3391SOL    HW210189   4.728   3.338   4.299
 3392SOL     OW10190   4.075   3.663   4.577
 3392SOL    HW110191   4.125   3.577   4.583
 3392SOL    HW210192   4.140   3.740   4.574
 3393SOL     OW10193   4.045   2.805   3.966
 3393SOL    HW110194   4.127   2.844   3.924
 3393SOL    HW210195   4.018   2.723   3.917
 3394SOL     OW10196   4.188   3.605   4.047
 3394SOL    HW110197   4.221   3.644   4.133
 3394SOL    HW210198   4.264   3.598   3.982
 3395SOL     OW10199   3.973   3.647   4.965
 3395SOL    HW110200   4.030   3.582   5.015
 3395SOL    HW210201   3.957   3.614   4.872
 3396SOL     OW10202   4.106   2.562   4.204
 3396SOL    HW110203   4.151   2.472   4.201
 3396SOL    HW210204   4.012   2.551   4.237
 3397SOL     OW10205   4.338   1.984   3.841
 3397SOL    HW110206   4.436   1.962   3.848
 3397SOL    HW210207   4.307   1.967   3.748
 3398SOL     OW10208   4.527   3.264   4.648
 3398SOL    HW110209   4.617   3.278   4.606
 3398SOL    HW210210   4.456   3.266   4.577
 3399SOL     OW10211   4.646   2.365   4.623
 3399SOL    HW110212   4.621   2.356   4.527
 3399SOL    HW210213   4.694   2.283   4.654
 3400SOL     OW10214   4.263   1.926   4.236
 3400SOL    HW110215   4.182   1.927   4.294
 3400SOL    HW210216   4.266   2.009   4.181
 3401SOL     OW10217   4.021   1.897   3.895
 3401SOL    HW110218   4.070   1.981   3.874
 3401SOL    HW210219   4.083   1.832   3.940
 3402SOL     OW10220   4.659   2.098   4.204
 3402SOL    HW110221   4.611   2.139   4.126
 3402SOL    HW210222   4.758   2.096   4.185
 3403SOL     OW10223   4.951   3.432   4.517
 3403SOL    HW110224   4.972   3.506   4.452
 3403SOL    HW210225   5.019   3.432   4.590
 3404SOL     OW10226   4.183   3.014   4.465
 3404SOL    HW110227   4.112   2.987   4.530
 3404SOL    HW210228   4.157   2.986   4.372
 3405SOL     OW10229   4.756   2.411   3.740
 3405SOL    HW110230   4.715   2.493   3.701
 3405SOL    HW210231   4.820   2.437   3.813
 3406SOL     OW10232   4.590   2.316   4.366
 3406SOL    HW110233   4.558   2.388   4.304
 3406SOL    HW210234   4.614   2.235   4.313
 3407SOL     OW10235   4.741   1.901   4.477
 3407SOL    HW110236   4.669   1.906   4.408
 3407SOL    HW210237   4.717   1.832   4.546
 3408SOL     OW10238   4.212   3.247   3.898
 3408SOL    HW110239   4.125   3.232   3.945
 3408SOL    HW210240   4.195   3.273   3.803
 3409SOL     OW10241   4.251   2.118   4.052
 3409SOL    HW110242   4.278   2.059   3.977
 3409SOL    HW210243   4.251   2.213   4.021
 3410SOL     OW10244   4.429   2.912   4.092
 3410SOL    HW110245   4.415   2.919   4.191
 3410SOL    HW210246   4.513   2.861   4.074
 3411SOL     OW10247   4.091   2.962   4.225
 3411SOL    HW110248   4.084   3.045   4.169
 3411SOL    HW210249   4.095   2.882   4.165
 3412SOL     OW10250   4.290   2.399   4.589
 3412SOL    HW110251   4.302   2.465   4.515
 3412SOL    HW210252   4.336   2.433   4.672
 3413SOL     OW10253   4.297   2.732   4.753
 3413SOL    HW110254   4.341   2.821   4.744
 3413SOL    HW210255   4.234   2.732   4.830
 3414SOL     OW10256   4.933   2.387   3.999
 3414SOL    HW110257   4.946   2.303   4.053
 3414SOL    HW210258   4.904   2.461   4.059
 3415SOL     OW10259   4.031   2.075   4.955
 3415SOL    HW110260   4.008   2.112   5.045
 3415SOL    HW210261   4.001   1.980   4.949
 3416SOL     OW10262   4.456   2.496   4.788
 3416SOL    HW110263   4.515   2.470   4.712
 3416SOL    HW210264   4.428   2.592   4.777
 3417SOL     OW10265   4.031   1.925   4.342
 3417SOL    HW110266   4.020   2.019   4.375
 3417SOL    HW210267   4.026   1.862   4.419
 3418SOL     OW10268   4.043   2.672   4.673
 3418SOL    HW110269   4.136   2.708   4.678
 3418SOL    HW210270   4.037   2.587   4.725
 3419SOL     OW10271   4.063   2.371   4.730
 3419SOL    HW110272   4.011   2.288   4.713
 3419SOL    HW210273   4.140   2.376   4.666
 3420SOL     OW10274   3.732   3.188   3.924
 3420SOL    HW110275   3.639   3.209   3.893
 3420SOL    HW210276   3.742   3.089   3.937
 3421SOL     OW10277   3.812   3.663   4.651
 3421SOL    HW110278   3.770   3.577   4.624
 3421SOL    HW210279   3.906   3.666   4.617
 3422SOL     OW10280   4.228   3.430   4.634
 3422SOL    HW110281   4.294   3.504   4.643
 3422SOL    HW210282   4.272   3.351   4.592
 3423SOL     OW10283   4.539   2.434   4.049
 3423SOL    HW110284   4.546   2.345   4.003
 3423SOL    HW210285   4.445   2.468   4.041
 3424SOL     OW10286   4.395   2.326   4.993
 3424SOL    HW110287   4.361   2.237   4.963
 3424SOL    HW210288   4.421   2.380   4.913
 3425SOL     OW10289   4.197   2.362   3.915
 3425SOL    HW110290   4.258   2.442   3.919
 3425SOL    HW210291   4.102   2.393   3.922
 3426SOL     OW10292   3.807   3.120   4.746
 3426SOL    HW110293   3.802   3.119   4.846
 3426SOL    HW210294   3.724   3.079   4.708
 3427SOL     OW10295   5.004   2.789   4.396
 3427SOL    HW110296   5.064   2.708   4.398
 3427SOL    HW210297   5.044   2.858   4.336
 3428SOL     OW10298   4.396   3.478   3.878
 3428SOL    HW110299   4.405   3.488   3.779
 3428SOL    HW210300   4.356   3.389   3.899
 3429SOL     OW10301   3.987   2.188   4.444
 3429SOL    HW110302   3.908   2.239   4.410
 3429SOL    HW210303   3.978   2.173   4.542
 3430SOL     OW10304   4.640   2.772   4.015
 3430SOL    HW110305   4.703   2.810   3.947
 3430SOL    HW210306   4.680   2.689   4.054
 3431SOL     OW10307   4.314   3.349   4.215
 3431SOL    HW110308   4.356   3.291   4.145
 3431SOL    HW210309   4.270   3.428   4.171
 3432SOL     OW10310   3.979   3.210   4.014
 3432SOL    HW110311   3.883   3.211   3.987
 3432SOL    HW210312   3.991   3.263   4.098
 3433SOL     OW10313   3.799   2.207   3.757
 3433SOL    HW110314   3.707   2.179   3.728
 3433SOL    HW210315   3.830   2.284   3.701
 3434SOL     OW10316   3.796   2.028   4.042
 3434SOL    HW110317   3.779   2.111   3.988
 3434SOL    HW210318   3.886   1.991   4.020
 3435SOL     OW10319   4.949   2.187   4.173
 3435SOL    HW110320   5.014   2.113   4.162
 3435SOL    HW210321   4.969   2.237   4.257
 3436SOL     OW10322   4.318   2.607   4.376
 3436SOL    HW110323   4.368   2.692   4.357
 3436SOL    HW210324   4.230   2.609   4.328
 3437SOL     OW10325   4.583   3.236   3.740
 3437SOL    HW110326   4.537   3.251   3.828
 3437SOL    HW210327   4.627   3.321   3.710
 3438SOL     OW10328   4.385   3.652   4.677
 3438SOL    HW110329   4.339   3.740   4.664
 3438SOL    HW210330   4.484   3.664   4.670
 3439SOL     OW10331   4.583   2.818   4.585
 3439SOL    HW110332   4.637   2.749   4.633
 3439SOL    HW210333   4.551   2.887   4.651
 3440SOL     OW10334   3.803   3.102   4.377
 3440SOL    HW110335   3.802   3.055   4.465
 3440SOL    HW210336   3.885   3.074   4.326
 3441SOL     OW10337   4.152   2.286   4.244
 3441SOL    HW110338   4.182   2.214   4.182
 3441SOL    HW210339   4.113   2.246   4.327
 3442SOL     OW10340   4.536   3.448   4.411
 3442SOL    HW110341   4.568   3.458   4.317
 3442SOL    HW210342   4.457   3.386   4.413
 3443SOL     OW10343   4.494   3.192   4.025
 3443SOL    HW110344   4.448   3.105   4.042
 3443SOL    HW210345   4.585   3.189   4.066
 3444SOL     OW10346   3.763   2.939   4.024
 3444SOL    HW110347   3.862   2.928   4.015
 3444SOL    HW210348   3.723   2.853   4.056
 3445SOL     OW10349   4.599   3.508   4.061
 3445SOL    HW110350   4.522   3.473   4.007
 3445SOL    HW210351   4.567   3.579   4.123
 3446SOL     OW10352   3.954   4.352   0.113
 3446SOL    HW110353   3.861   4.350   0.150
 3446SOL    HW210354   3.955   4.313   0.021
 3447SOL     OW10355   3.949   3.999   0.996
 3447SOL    HW110356   3.984   3.982   1.088
 3447SOL    HW210357   3.861   3.954   0.984
 3448SOL     OW10358   3.743   4.092   0.647
 3448SOL    HW110359   3.661   4.135   0.686
 3448SOL    HW210360   3.715   4.019   0.584
 3449SOL     OW10361   4.492   4.868   1.023
 3449SOL    HW110362   4.414   4.885   1.083
 3449SOL    HW210363   4.526   4.955   0.987
 3450SOL     OW10364   4.574   4.522   1.823
 3450SOL    HW110365   4.570   4.598   1.888
 3450SOL    HW210366   4.596   4.558   1.732
 3451SOL     OW10367   4.409   4.736   0.665
 3451SOL    HW110368   4.478   4.720   0.735
 3451SOL    HW210369   4.336   4.793   0.703
 3452SOL     OW10370   4.162   4.116   1.499
 3452SOL    HW110371   4.244   4.060   1.508
 3452SOL    HW210372   4.081   4.058   1.503
 3453SOL     OW10373   3.964   4.815   0.886
 3453SOL    HW110374   3.978   4.731   0.938
 3453SOL    HW210375   3.909   4.879   0.941
 3454SOL     OW10376   3.846   4.367   0.563
 3454SOL    HW110377   3.801   4.279   0.580
 3454SOL    HW210378   3.845   4.421   0.647
 3455SOL     OW10379   3.837   4.461   1.597
 3455SOL    HW110380   3.925   4.448   1.642
 3455SOL    HW210381   3.824   4.558   1.575
 3456SOL     OW10382   4.533   3.728   0.502
 3456SOL    HW110383   4.573   3.819   0.493
 3456SOL    HW210384   4.433   3.736   0.508
 3457SOL     OW10385   3.921   4.700   1.264
 3457SOL    HW110386   4.010   4.655   1.250
 3457SOL    HW210387   3.848   4.635   1.245
 3458SOL     OW10388   4.041   3.975   1.801
 3458SOL    HW110389   4.112   4.046   1.807
 3458SOL    HW210390   3.953   4.014   1.829
 3459SOL     OW10391   4.322   4.453   0.270
 3459SOL    HW110392   4.346   4.522   0.202
 3459SOL    HW210393   4.244   4.486   0.324
 3460SOL     OW10394   4.531   4.329   1.465
 3460SOL    HW110395   4.484   4.326   1.554
 3460SOL    HW210396   4.480   4.274   1.399
 3461SOL     OW10397   4.697   4.614   1.572
 3461SOL    HW110398   4.743   4.530   1.543
 3461SOL    HW210399   4.641   4.648   1.497
 3462SOL     OW10400   4.715   4.134   1.242
 3462SOL    HW110401   4.638   4.168   1.296
 3462SOL    HW210402   4.681   4.083   1.163
 3463SOL     OW10403   3.800   4.535   0.789
 3463SOL    HW110404   3.899   4.523   0.798
 3463SOL    HW210405   3.776   4.630   0.810
 3464SOL     OW10406   4.589   4.072   0.195
 3464SOL    HW110407   4.648   4.135   0.146
 3464SOL    HW210408   4.608   3.978   0.166
 3465SOL     OW10409   4.274   3.920   0.885
 3465SOL    HW110410   4.269   3.915   0.985
 3465SOL    HW210411   4.276   4.016   0.856
 3466SOL     OW10412   3.926   4.009   1.498
 3466SOL    HW110413   3.846   4.069   1.485
 3466SOL    HW210414   3.916   3.960   1.584
 3467SOL     OW10415   4.106   4.424   0.480
 3467SOL    HW110416   4.151   4.334   0.477
 3467SOL    HW210417   4.012   4.413   0.513
 3468SOL     OW10418   4.338   3.846   0.117
 3468SOL    HW110419   4.436   3.824   0.124
 3468SOL    HW210420   4.307   3.829   0.024
 3469SOL     OW10421   4.505   3.988   1.749
 3469SOL    HW110422   4.572   3.927   1.792
 3469SOL    HW210423   4.432   4.007   1.814
 3470SOL     OW10424   4.646   4.227   0.899
 3470SOL    HW110425   4.621   4.218   0.803
 3470SOL    HW210426   4.694   4.145   0.930
 3471SOL     OW10427   4.263   3.788   0.512
 3471SOL    HW110428   4.182   3.789   0.570
 3471SOL    HW210429   4.266   3.871   0.457
 3472SOL     OW10430   4.659   3.960   0.480
 3472SOL    HW110431   4.611   4.001   0.402
 3472SOL    HW210432   4.758   3.958   0.461
 3473SOL     OW10433   4.756   4.273   0.016
 3473SOL    HW110434   4.715   4.355  -0.023
 3473SOL    HW210435   4.820   4.299   0.089
 3474SOL     OW10436   3.802   4.280   1.386
 3474SOL    HW110437   3.894   4.279   1.345
 3474SOL    HW210438   3.796   4.354   1.453
 3475SOL     OW10439   4.285   3.946   1.147
 3475SOL    HW110440   4.323   3.862   1.184
 3475SOL    HW210441   4.197   3.965   1.191
 3476SOL     OW10442   4.590   4.178   0.642
 3476SOL    HW110443   4.558   4.250   0.580
 3476SOL    HW210444   4.614   4.097   0.589
 3477SOL     OW10445   4.741   3.763   0.753
 3477SOL    HW110446   4.669   3.768   0.684
 3477SOL    HW210447   4.717   3.694   0.822
 3478SOL     OW10448   4.251   3.980   0.328
 3478SOL    HW110449   4.278   3.921   0.253
 3478SOL    HW210450   4.251   4.075   0.297
 3479SOL     OW10451   4.639   3.813   1.402
 3479SOL    HW110452   4.664   3.793   1.307
 3479SOL    HW210453   4.711   3.869   1.444
 3480SOL     OW10454   4.134   4.537   1.251
 3480SOL    HW110455   4.220   4.549   1.301
 3480SOL    HW210456   4.092   4.450   1.278
 3481SOL     OW10457   4.290   4.261   0.865
 3481SOL    HW110458   4.302   4.327   0.791
 3481SOL    HW210459   4.336   4.295   0.948
 3482SOL     OW10460   4.126   4.475   1.598
 3482SOL    HW110461   4.194   4.530   1.551
 3482SOL    HW210462   4.166   4.387   1.625
 3483SOL     OW10463   4.737   3.829   1.770
 3483SOL    HW110464   4.743   3.914   1.718
 3483SOL    HW210465   4.769   3.753   1.713
 3484SOL     OW10466   4.228   3.774   1.740
 3484SOL    HW110467   4.186   3.717   1.670
 3484SOL    HW210468   4.162   3.843   1.772
 3485SOL     OW10469   4.297   4.594   1.029
 3485SOL    HW110470   4.341   4.683   1.020
 3485SOL    HW210471   4.234   4.594   1.106
 3486SOL     OW10472   4.933   4.249   0.275
 3486SOL    HW110473   4.946   4.165   0.329
 3486SOL    HW210474   4.904   4.323   0.335
 3487SOL     OW10475   4.031   3.937   1.231
 3487SOL    HW110476   4.008   3.974   1.321
 3487SOL    HW210477   4.001   3.842   1.225
 3488SOL     OW10478   4.456   4.358   1.064
 3488SOL    HW110479   4.515   4.332   0.988
 3488SOL    HW210480   4.428   4.454   1.053
 3489SOL     OW10481   4.031   3.787   0.618
 3489SOL    HW110482   4.020   3.881   0.651
 3489SOL    HW210483   4.026   3.724   0.695
 3490SOL     OW10484   4.747   4.490   0.966
 3490SOL    HW110485   4.762   4.511   1.062
 3490SOL    HW210486   4.717   4.395   0.957
 3491SOL     OW10487   4.074   4.622   1.804
 3491SOL    HW110488   4.150   4.666   1.852
 3491SOL    HW210489   4.109   4.575   1.722
 3492SOL     OW10490   4.043   4.534   0.949
 3492SOL    HW110491   4.136   4.570   0.954
 3492SOL    HW210492   4.037   4.449   1.001
 3493SOL     OW10493   4.063   4.233   1.006
 3493SOL    HW110494   4.011   4.150   0.989
 3493SOL    HW210495   4.140   4.238   0.942
 3494SOL     OW10496   4.726   4.520   1.238
 3494SOL    HW110497   4.767   4.488   1.324
 3494SOL    HW210498   4.630   4.493   1.235
 3495SOL     OW10499   3.764   4.268   1.114
 3495SOL    HW110500   3.849   4.235   1.073
 3495SOL    HW210501   3.777   4.283   1.212
 3496SOL     OW10502   3.913   4.244   1.722
 3496SOL    HW110503   3.972   4.204   1.652
 3496SOL    HW210504   3.855   4.315   1.681
 3497SOL     OW10505   4.539   4.296   0.325
 3497SOL    HW110506   4.546   4.207   0.279
 3497SOL    HW210507   4.445   4.330   0.317
 3498SOL     OW10508   4.395   4.188   1.269
 3498SOL    HW110509   4.361   4.099   1.239
 3498SOL    HW210510   4.421   4.242   1.189
 3499SOL     OW10511   4.197   4.224   0.191
 3499SOL    HW110512   4.258   4.304   0.195
 3499SOL    HW210513   4.102   4.255   0.198
 3500SOL     OW10514   3.883   4.861   1.466
 3500SOL    HW110515   3.905   4.800   1.542
 3500SOL    HW210516   3.893   4.812   1.380
 3501SOL     OW10517   5.026   4.579   0.309
 3501SOL    HW110518   4.940   4.548   0.351
 3501SOL    HW210519   5.022   4.565   0.210
 3502SOL     OW10520   4.627   3.810   0.133
 3502SOL    HW110521   4.678   3.811   0.047
 3502SOL    HW210522   4.683   3.768   0.204
 3503SOL     OW10523   3.987   4.050   0.720
 3503SOL    HW110524   3.908   4.101   0.686
 3503SOL    HW210525   3.978   4.035   0.818
 3504SOL     OW10526   4.640   4.634   0.291
 3504SOL    HW110527   4.703   4.672   0.223
 3504SOL    HW210528   4.680   4.551   0.330
 3505SOL     OW10529   4.738   3.960   0.971
 3505SOL    HW110530   4.730   3.924   0.878
 3505SOL    HW210531   4.736   3.884   1.036
 3506SOL     OW10532   3.829   4.737   1.726
 3506SOL    HW110533   3.752   4.704   1.780
 3506SOL    HW210534   3.914   4.707   1.768
 3507SOL     OW10535   4.396   3.927   1.489
 3507SOL    HW110536   4.486   3.911   1.449
 3507SOL    HW210537   4.404   3.932   1.588
 3508SOL     OW10538   3.799   4.069   0.033
 3508SOL    HW110539   3.707   4.041   0.004
 3508SOL    HW210540   3.830   4.146  -0.023
 3509SOL     OW10541   4.337   4.566   1.431
 3509SOL    HW110542   4.393   4.647   1.414
 3509SOL    HW210543   4.396   4.486   1.434
 3510SOL     OW10544   4.440   4.289   1.708
 3510SOL    HW110545   4.459   4.354   1.782
 3510SOL    HW210546   4.500   4.209   1.717
 3511SOL     OW10547   4.949   4.049   0.449
 3511SOL    HW110548   5.014   3.975   0.438
 3511SOL    HW210549   4.969   4.099   0.533
 3512SOL     OW10550   4.318   4.469   0.652
 3512SOL    HW110551   4.368   4.554   0.633
 3512SOL    HW210552   4.230   4.471   0.604
 3513SOL     OW10553   4.583   4.680   0.861
 3513SOL    HW110554   4.637   4.611   0.909
 3513SOL    HW210555   4.551   4.749   0.927
 3514SOL     OW10556   4.807   4.708   0.087
 3514SOL    HW110557   4.784   4.761   0.005
 3514SOL    HW210558   4.888   4.652   0.068
 3515SOL     OW10559   3.803   4.964   0.653
 3515SOL    HW110560   3.802   4.917   0.741
 3515SOL    HW210561   3.885   4.936   0.602
 3516SOL     OW10562   4.152   4.148   0.520
 3516SOL    HW110563   4.182   4.076   0.458
 3516SOL    HW210564   4.113   4.108   0.603
 3517SOL     OW10565   4.041   4.271   1.280
 3517SOL    HW110566   4.079   4.212   1.352
 3517SOL    HW210567   4.081   4.245   1.192
 3518SOL     OW10568   4.725   3.758   1.154
 3518SOL    HW110569   4.662   3.686   1.123
 3518SOL    HW210570   4.818   3.722   1.154
 3519SOL     OW10571   3.763   4.801   0.300
 3519SOL    HW110572   3.862   4.790   0.291
 3519SOL    HW210573   3.723   4.715   0.332
 3520SOL     OW10574   3.954   4.352   1.975
 3520SOL    HW110575   3.861   4.350   2.012
 3520SOL    HW210576   3.955   4.313   1.883
 3521SOL     OW10577   3.949   3.999   2.858
 3521SOL    HW110578   3.984   3.982   2.950
 3521SOL    HW210579   3.861   3.954   2.846
 3522SOL     OW10580   3.743   4.092   2.509
 3522SOL    HW110581   3.661   4.135   2.548
 3522SOL    HW210582   3.715   4.019   2.446
 3523SOL     OW10583   4.492   4.868   2.885
 3523SOL    HW110584   4.414   4.885   2.945
 3523SOL    HW210585   4.526   4.955   2.849
 3524SOL     OW10586   4.574   4.522   3.685
 3524SOL    HW110587   4.570   4.598   3.750
 3524SOL    HW210588   4.596   4.558   3.594
 3525SOL     OW10589   4.409   4.736   2.527
 3525SOL    HW110590   4.478   4.720   2.597
 3525SOL    HW210591   4.336   4.793   2.565
 3526SOL     OW10592   4.162   4.116   3.361
 3526SOL    HW110593   4.244   4.060   3.370
 3526SOL    HW210594   4.081   4.058   3.365
 3527SOL     OW10595   3.964   4.815   2.748
 3527SOL    HW110596   3.978   4.731   2.800
 3527SOL    HW210597   3.909   4.879   2.803
 3528SOL     OW10598   3.846   4.367   2.425
 3528SOL    HW110599   3.801   4.279   2.442
 3528SOL    HW210600   3.845   4.421   2.509
 3529SOL     OW10601   3.837   4.461   3.459
 3529SOL    HW110602   3.925   4.448   3.504
 3529SOL    HW210603   3.824   4.558   3.437
 3530SOL     OW10604   4.533   3.728   2.364
 3530SOL    HW110605   4.573   3.819   2.355
 3530SOL    HW210606   4.433   3.736   2.370
 3531SOL     OW10607   3.921   4.700   3.126
 3531SOL    HW110608   4.010   4.655   3.112
 3531SOL    HW210609   3.848   4.635   3.107
 3532SOL     OW10610   4.041   3.975   3.663
 3532SOL    HW110611   4.112   4.046   3.669
 3532SOL    HW210612   3.953   4.014   3.691
 3533SOL     OW10613   4.322   4.453   2.132
 3533SOL    HW110614   4.346   4.522   2.064
 3533SOL    HW210615   4.244   4.486   2.186
 3534SOL     OW10616   4.531   4.329   3.327
 3534SOL    HW110617   4.484   4.326   3.416
 3534SOL    HW210618   4.480   4.274   3.261
 3535SOL     OW10619   4.697   4.614   3.434
 3535SOL    HW110620   4.743   4.530   3.405
 3535SOL    HW210621   4.641   4.648   3.359
 3536SOL     OW10622   4.715   4.134   3.104
 3536SOL    HW110623   4.638   4.168   3.158
 3536SOL    HW210624   4.681   4.083   3.025
 3537SOL     OW10625   3.800   4.535   2.651
 3537SOL    HW110626   3.899   4.523   2.660
 3537SOL    HW210627   3.776   4.630   2.672
 3538SOL     OW10628   4.589   4.072   2.057
 3538SOL    HW110629   4.648   4.135   2.008
 3538SOL    HW210630   4.608   3.978   2.028
 3539SOL     OW10631   4.274   3.920   2.747
 3539SOL    HW110632   4.269   3.915   2.847
 3539SOL    HW210633   4.276   4.016   2.718
 3540SOL     OW10634   3.926   4.009   3.360
 3540SOL    HW110635   3.846   4.069   3.347
 3540SOL    HW210636   3.916   3.960   3.446
 3541SOL     OW10637   4.106   4.424   2.342
 3541SOL    HW110638   4.151   4.334   2.339
 3541SOL    HW210639   4.012   4.413   2.375
 3542SOL     OW10640   4.338   3.846   1.979
 3542SOL    HW110641   4.436   3.824   1.986
 3542SOL    HW210642   4.307   3.829   1.886
 3543SOL     OW10643   4.505   3.988   3.611
 3543SOL    HW110644   4.572   3.927   3.654
 3543SOL    HW210645   4.432   4.007   3.676
 3544SOL     OW10646   4.646   4.227   2.761
 3544SOL    HW110647   4.621   4.218   2.665
 3544SOL    HW210648   4.694   4.145   2.792
 3545SOL     OW10649   4.263   3.788   2.374
 3545SOL    HW110650   4.182   3.789   2.432
 3545SOL    HW210651   4.266   3.871   2.319
 3546SOL     OW10652   4.021   3.759   2.033
 3546SOL    HW110653   4.070   3.843   2.012
 3546SOL    HW210654   4.083   3.694   2.078
 3547SOL     OW10655   4.659   3.960   2.342
 3547SOL    HW110656   4.611   4.001   2.264
 3547SOL    HW210657   4.758   3.958   2.323
 3548SOL     OW10658   4.756   4.273   1.878
 3548SOL    HW110659   4.715   4.355   1.839
 3548SOL    HW210660   4.820   4.299   1.951
 3549SOL     OW10661   3.802   4.280   3.248
 3549SOL    HW110662   3.894   4.279   3.207
 3549SOL    HW210663   3.796   4.354   3.315
 3550SOL     OW10664   4.285   3.946   3.009
 3550SOL    HW110665   4.323   3.862   3.046
 3550SOL    HW210666   4.197   3.965   3.053
 3551SOL     OW10667   4.590   4.178   2.504
 3551SOL    HW110668   4.558   4.250   2.442
 3551SOL    HW210669   4.614   4.097   2.451
 3552SOL     OW10670   4.741   3.763   2.615
 3552SOL    HW110671   4.669   3.768   2.546
 3552SOL    HW210672   4.717   3.694   2.684
 3553SOL     OW10673   4.251   3.980   2.190
 3553SOL    HW110674   4.278   3.921   2.115
 3553SOL    HW210675   4.251   4.075   2.159
 3554SOL     OW10676   4.639   3.813   3.264
 3554SOL    HW110677   4.664   3.793   3.169
 3554SOL    HW210678   4.711   3.869   3.306
 3555SOL     OW10679   4.134   4.537   3.113
 3555SOL    HW110680   4.220   4.549   3.163
 3555SOL    HW210681   4.092   4.450   3.140
 3556SOL     OW10682   4.290   4.261   2.727
 3556SOL    HW110683   4.302   4.327   2.653
 3556SOL    HW210684   4.336   4.295   2.810
 3557SOL     OW10685   4.126   4.475   3.460
 3557SOL    HW110686   4.194   4.530   3.413
 3557SOL    HW210687   4.166   4.387   3.487
 3558SOL     OW10688   4.737   3.829   3.632
 3558SOL    HW110689   4.743   3.914   3.580
 3558SOL    HW210690   4.769   3.753   3.575
 3559SOL     OW10691   4.228   3.774   3.602
 3559SOL    HW110692   4.186   3.717   3.532
 3559SOL    HW210693   4.162   3.843   3.634
 3560SOL     OW10694   4.297   4.594   2.891
 3560SOL    HW110695   4.341   4.683   2.882
 3560SOL    HW210696   4.234   4.594   2.968
 3561SOL     OW10697   4.933   4.249   2.137
 3561SOL    HW110698   4.946   4.165   2.191
 3561SOL    HW210699   4.904   4.323   2.197
 3562SOL     OW10700   4.031   3.937   3.093
 3562SOL    HW110701   4.008   3.974   3.183
 3562SOL    HW210702   4.001   3.842   3.087
 3563SOL     OW10703   4.456   4.358   2.926
 3563SOL    HW110704   4.515   4.332   2.850
 3563SOL    HW210705   4.428   4.454   2.915
 3564SOL     OW10706   4.031   3.787   2.480
 3564SOL    HW110707   4.020   3.881   2.513
 3564SOL    HW210708   4.026   3.724   2.557
 3565SOL     OW10709   4.747   4.490   2.828
 3565SOL    HW110710   4.762   4.511   2.924
 3565SOL    HW210711   4.717   4.395   2.819
 3566SOL     OW10712   4.074   4.622   3.666
 3566SOL    HW110713   4.150   4.666   3.714
 3566SOL    HW210714   4.109   4.575   3.584
 3567SOL     OW10715   4.043   4.534   2.811
 3567SOL    HW110716   4.136   4.570   2.816
 3567SOL    HW210717   4.037   4.449   2.863
 3568SOL     OW10718   4.063   4.233   2.868
 3568SOL    HW110719   4.011   4.150   2.851
 3568SOL    HW210720   4.140   4.238   2.804
 3569SOL     OW10721   4.726   4.520   3.100
 3569SOL    HW110722   4.767   4.488   3.186
 3569SOL    HW210723   4.630   4.493   3.097
 3570SOL     OW10724   3.764   4.268   2.976
 3570SOL    HW110725   3.849   4.235   2.935
 3570SOL    HW210726   3.777   4.283   3.074
 3571SOL     OW10727   3.913   4.244   3.584
 3571SOL    HW110728   3.972   4.204   3.514
 3571SOL    HW210729   3.855   4.315   3.543
 3572SOL     OW10730   4.539   4.296   2.187
 3572SOL    HW110731   4.546   4.207   2.141
 3572SOL    HW210732   4.445   4.330   2.179
 3573SOL     OW10733   4.395   4.188   3.131
 3573SOL    HW110734   4.361   4.099   3.101
 3573SOL    HW210735   4.421   4.242   3.051
 3574SOL     OW10736   4.197   4.224   2.053
 3574SOL    HW110737   4.258   4.304   2.057
 3574SOL    HW210738   4.102   4.255   2.060
 3575SOL     OW10739   3.883   4.861   3.328
 3575SOL    HW110740   3.905   4.800   3.404
 3575SOL    HW210741   3.893   4.812   3.242
 3576SOL     OW10742   5.026   4.579   2.171
 3576SOL    HW110743   4.940   4.548   2.213
 3576SOL    HW210744   5.022   4.565   2.072
 3577SOL     OW10745   3.987   4.050   2.582
 3577SOL    HW110746   3.908   4.101   2.548
 3577SOL    HW210747   3.978   4.035   2.680
 3578SOL     OW10748   4.640   4.634   2.153
 3578SOL    HW110749   4.703   4.672   2.085
 3578SOL    HW210750   4.680   4.551   2.192
 3579SOL     OW10751   4.738   3.960   2.833
 3579SOL    HW110752   4.730   3.924   2.740
 3579SOL    HW210753   4.736   3.884   2.898
 3580SOL     OW10754   3.829   4.737   3.588
 3580SOL    HW110755   3.752   4.704   3.642
 3580SOL    HW210756   3.914   4.707   3.630
 3581SOL     OW10757   4.396   3.927   3.351
 3581SOL    HW110758   4.486   3.911   3.311
 3581SOL    HW210759   4.404   3.932   3.450
 3582SOL     OW10760   3.799   4.069   1.895
 3582SOL    HW110761   3.707   4.041   1.866
 3582SOL    HW210762   3.830   4.146   1.839
 3583SOL     OW10763   3.796   3.890   2.180
 3583SOL    HW110764   3.779   3.973   2.126
 3583SOL    HW210765   3.886   3.853   2.158
 3584SOL     OW10766   4.337   4.566   3.293
 3584SOL    HW110767   4.393   4.647   3.276
 3584SOL    HW210768   4.396   4.486   3.296
 3585SOL     OW10769   4.440   4.289   3.570
 3585SOL    HW110770   4.459   4.354   3.644
 3585SOL    HW210771   4.500   4.209   3.579
 3586SOL     OW10772   4.949   4.049   2.311
 3586SOL    HW110773   5.014   3.975   2.300
 3586SOL    HW210774   4.969   4.099   2.395
 3587SOL     OW10775   4.318   4.469   2.514
 3587SOL    HW110776   4.368   4.554   2.495
 3587SOL    HW210777   4.230   4.471   2.466
 3588SOL     OW10778   4.583   4.680   2.723
 3588SOL    HW110779   4.637   4.611   2.771
 3588SOL    HW210780   4.551   4.749   2.789
 3589SOL     OW10781   3.803   4.964   2.515
 3589SOL    HW110782   3.802   4.917   2.603
 3589SOL    HW210783   3.885   4.936   2.464
 3590SOL     OW10784   4.152   4.148   2.382
 3590SOL    HW110785   4.182   4.076   2.320
 3590SOL    HW210786   4.113   4.108   2.465
 3591SOL     OW10787   4.041   4.271   3.142
 3591SOL    HW110788   4.079   4.212   3.214
 3591SOL    HW210789   4.081   4.245   3.054
 3592SOL     OW10790   4.725   3.758   3.016
 3592SOL    HW110791   4.662   3.686   2.985
 3592SOL    HW210792   4.818   3.722   3.016
 3593SOL     OW10793   3.954   4.352   3.837
 3593SOL    HW110794   3.861   4.350   3.874
 3593SOL    HW210795   3.955   4.313   3.745
 3594SOL     OW10796   3.949   3.999   4.720
 3594SOL    HW110797   3.984   3.982   4.812
 3594SOL    HW210798   3.861   3.954   4.708
 3595SOL     OW10799   3.743   4.092   4.371
 3595SOL    HW110800   3.661   4.135   4.410
 3595SOL    HW210801   3.715   4.019   4.308
 3596SOL     OW10802   4.409   4.736   4.389
 3596SOL    HW110803   4.478   4.720   4.459
 3596SOL    HW210804   4.336   4.793   4.427
 3597SOL     OW10805   3.964   4.815   4.610
 3597SOL    HW110806   3.978   4.731   4.662
 3597SOL    HW210807   3.909   4.879   4.665
 3598SOL     OW10808   3.846   4.367   4.287
 3598SOL    HW110809   3.801   4.279   4.304
 3598SOL    HW210810   3.845   4.421   4.371
 3599SOL     OW10811   4.533   3.728   4.226
 3599SOL    HW110812   4.573   3.819   4.217
 3599SOL    HW210813   4.433   3.736   4.232
 3600SOL     OW10814   4.322   4.453   3.994
 3600SOL    HW110815   4.346   4.522   3.926
 3600SOL    HW210816   4.244   4.486   4.048
 3601SOL     OW10817   3.800   4.535   4.513
 3601SOL    HW110818   3.899   4.523   4.522
 3601SOL    HW210819   3.776   4.630   4.534
 3602SOL     OW10820   4.589   4.072   3.919
 3602SOL    HW110821   4.648   4.135   3.870
 3602SOL    HW210822   4.608   3.978   3.890
 3603SOL     OW10823   4.274   3.920   4.609
 3603SOL    HW110824   4.269   3.915   4.709
 3603SOL    HW210825   4.276   4.016   4.580
 3604SOL     OW10826   4.106   4.424   4.204
 3604SOL    HW110827   4.151   4.334   4.201
 3604SOL    HW210828   4.012   4.413   4.237
 3605SOL     OW10829   4.338   3.846   3.841
 3605SOL    HW110830   4.436   3.824   3.848
 3605SOL    HW210831   4.307   3.829   3.748
 3606SOL     OW10832   4.646   4.227   4.623
 3606SOL    HW110833   4.621   4.218   4.527
 3606SOL    HW210834   4.694   4.145   4.654
 3607SOL     OW10835   4.263   3.788   4.236
 3607SOL    HW110836   4.182   3.789   4.294
 3607SOL    HW210837   4.266   3.871   4.181
 3608SOL     OW10838   4.021   3.759   3.895
 3608SOL    HW110839   4.070   3.843   3.874
 3608SOL    HW210840   4.083   3.694   3.940
 3609SOL     OW10841   4.659   3.960   4.204
 3609SOL    HW110842   4.611   4.001   4.126
 3609SOL    HW210843   4.758   3.958   4.185
 3610SOL     OW10844   4.756   4.273   3.740
 3610SOL    HW110845   4.715   4.355   3.701
 3610SOL    HW210846   4.820   4.299   3.813
 3611SOL     OW10847   4.590   4.178   4.366
 3611SOL    HW110848   4.558   4.250   4.304
 3611SOL    HW210849   4.614   4.097   4.313
 3612SOL     OW10850   4.741   3.763   4.477
 3612SOL    HW110851   4.669   3.768   4.408
 3612SOL    HW210852   4.717   3.694   4.546
 3613SOL     OW10853   4.251   3.980   4.052
 3613SOL    HW110854   4.278   3.921   3.977
 3613SOL    HW210855   4.251   4.075   4.021
 3614SOL     OW10856   4.835   4.919   4.824
 3614SOL    HW110857   4.795   4.963   4.905
 3614SOL    HW210858   4.794   4.956   4.741
 3615SOL     OW10859   4.290   4.261   4.589
 3615SOL    HW110860   4.302   4.327   4.515
 3615SOL    HW210861   4.336   4.295   4.672
 3616SOL     OW10862   4.297   4.594   4.753
 3616SOL    HW110863   4.341   4.683   4.744
 3616SOL    HW210864   4.234   4.594   4.830
 3617SOL     OW10865   4.933   4.249   3.999
 3617SOL    HW110866   4.946   4.165   4.053
 3617SOL    HW210867   4.904   4.323   4.059
 3618SOL     OW10868   4.031   3.937   4.955
 3618SOL    HW110869   4.008   3.974   5.045
 3618SOL    HW210870   4.001   3.842   4.949
 3619SOL     OW10871   4.456   4.358   4.788
 3619SOL    HW110872   4.515   4.332   4.712
 3619SOL    HW210873   4.428   4.454   4.777
 3620SOL     OW10874   4.031   3.787   4.342
 3620SOL    HW110875   4.020   3.881   4.375
 3620SOL    HW210876   4.026   3.724   4.419
 3621SOL     OW10877   4.043   4.534   4.673
 3621SOL    HW110878   4.136   4.570   4.678
 3621SOL    HW210879   4.037   4.449   4.725
 3622SOL     OW10880   4.063   4.233   4.730
 3622SOL    HW110881   4.011   4.150   4.713
 3622SOL    HW210882   4.140   4.238   4.666
 3623SOL     OW10883   4.539   4.296   4.049
 3623SOL    HW110884   4.546   4.207   4.003
 3623SOL    HW210885   4.445   4.330   4.041
 3624SOL     OW10886   4.395   4.188   4.993
 3624SOL    HW110887   4.361   4.099   4.963
 3624SOL    HW210888   4.421   4.242   4.913
 3625SOL     OW10889   4.197   4.224   3.915
 3625SOL    HW110890   4.258   4.304   3.919
 3625SOL    HW210891   4.102   4.255   3.922
 3626SOL     OW10892   5.026   4.579   4.033
 3626SOL    HW110893   4.940   4.548   4.075
 3626SOL    HW210894   5.022   4.565   3.934
 3627SOL     OW10895   3.987   4.050   4.444
 3627SOL    HW110896   3.908   4.101   4.410
 3627SOL    HW210897   3.978   4.035   4.542
 3628SOL     OW10898   4.640   4.634   4.015
 3628SOL    HW110899   4.703   4.672   3.947
 3628SOL    HW210900   4.680   4.551   4.054
 3629SOL     OW10901   3.799   4.069   3.757
 3629SOL    HW110902   3.707   4.041   3.728
 3629SOL    HW210903   3.830   4.146   3.701
 3630SOL     OW10904   3.796   3.890   4.042
 3630SOL    HW110905   3.779   3.973   3.988
 3630SOL    HW210906   3.886   3.853   4.020
 3631SOL     OW10907   4.949   4.049   4.173
 3631SOL    HW110908   5.014   3.975   4.162
 3631SOL    HW210909   4.969   4.099   4.257
 3632SOL     OW10910   4.318   4.469   4.376
 3632SOL    HW110911   4.368   4.554   4.357
 3632SOL    HW210912   4.230   4.471   4.328
 3633SOL     OW10913   4.583   4.680   4.585
 3633SOL    HW110914   4.637   4.611   4.633
 3633SOL    HW210915   4.551   4.749   4.651
 3634SOL     OW10916   3.803   4.964   4.377
 3634SOL    HW110917   3.802   4.917   4.465
 3634SOL    HW210918   3.885   4.936   4.326
 3635SOL     OW10919   4.152   4.148   4.244
 3635SOL    HW110920   4.182   4.076   4.182
 3635SOL    HW210921   4.113   4.108   4.327
   4.79620   4.79620   4.79620
