mobley_1708457_GMX.gro created by acpype (v: 2023.10.27) on Wed May 20 23:44:49 2026
   11
    1MOL     C1    1   2.142   2.142   2.126
    1MOL     C2    2   2.338   2.275   2.271
    1MOL     O1    3   2.131   2.166   2.386
    1MOL     O2    4   2.097   2.371   2.243
    1MOL     S1    5   2.164   2.245   2.269
    1MOL     H1    6   2.061   2.071   2.146
    1MOL     H2    7   2.117   2.206   2.041
    1MOL     H3    8   2.236   2.088   2.108
    1MOL     H4    9   2.356   2.379   2.244
    1MOL     H5   10   2.376   2.255   2.372
    1MOL     H6   11   2.386   2.208   2.199
   4.43760   4.43760   4.43760
