mobley_852937_GMX.gro created by acpype (v: 2023.10.27) on Thu May 21 00:02:06 2026
   13
    1MOL     C1    1   2.183   2.355   2.245
    1MOL     C2    2   2.395   2.239   2.251
    1MOL     C3    3   2.181   2.358   2.385
    1MOL     C4    4   2.393   2.242   2.390
    1MOL     C5    5   2.290   2.296   2.178
    1MOL     C6    6   2.286   2.302   2.457
    1MOL     O1    7   2.292   2.292   2.042
    1MOL     F1    8   2.284   2.305   2.591
    1MOL     H1    9   2.101   2.399   2.190
    1MOL     H2   10   2.478   2.193   2.199
    1MOL     H3   11   2.098   2.405   2.437
    1MOL     H4   12   2.475   2.199   2.447
    1MOL     H5   13   2.369   2.240   2.013
   4.58782   4.58782   4.58782
