mobley_1735893_GMX.gro created by acpype (v: 2023.10.27) on Thu May 21 00:04:00 2026
11690
    1MOL     C1    1   2.551   2.212   2.300
    1MOL     C2    2   2.360   2.727   2.632
    1MOL     C3    3   2.575   2.334   2.386
    1MOL     C4    4   2.335   2.602   2.549
    1MOL     C5    5   2.443   2.403   2.424
    1MOL     C6    6   2.463   2.532   2.503
    1MOL     O1    7   2.442   2.169   2.265
    1MOL     O2    8   2.669   2.153   2.265
    1MOL     H1    9   2.265   2.766   2.670
    1MOL     H2   10   2.424   2.705   2.718
    1MOL     H3   11   2.407   2.806   2.573
    1MOL     H4   12   2.628   2.302   2.476
    1MOL     H5   13   2.638   2.404   2.330
    1MOL     H6   14   2.277   2.531   2.609
    1MOL     H7   15   2.272   2.627   2.463
    1MOL     H8   16   2.380   2.333   2.480
    1MOL     H9   17   2.388   2.427   2.332
    1MOL    H10   18   2.522   2.602   2.442
    1MOL    H11   19   2.524   2.510   2.592
    1MOL    H12   20   2.660   2.073   2.209
    2SOL     OW   21   0.230   0.628   0.113
    2SOL    HW1   22   0.137   0.626   0.150
    2SOL    HW2   23   0.231   0.589   0.021
    3SOL     OW   24   0.225   0.275   0.996
    3SOL    HW1   25   0.260   0.258   1.088
    3SOL    HW2   26   0.137   0.230   0.984
    4SOL     OW   27   0.019   0.368   0.647
    4SOL    HW1   28  -0.063   0.411   0.686
    4SOL    HW2   29  -0.009   0.295   0.584
    5SOL     OW   30   0.569   1.275   1.165
    5SOL    HW1   31   0.476   1.268   1.128
    5SOL    HW2   32   0.580   1.364   1.209
    6SOL     OW   33   1.555   1.511   0.703
    6SOL    HW1   34   1.498   1.495   0.784
    6SOL    HW2   35   1.496   1.521   0.623
    7SOL     OW   36   1.135   0.703   0.717
    7SOL    HW1   37   1.192   0.781   0.692
    7SOL    HW2   38   1.075   0.729   0.793
    8SOL     OW   39   1.755   0.607   0.231
    8SOL    HW1   40   1.743   0.594   0.132
    8SOL    HW2   41   1.725   0.526   0.280
    9SOL     OW   42   0.768   1.144   1.023
    9SOL    HW1   43   0.690   1.161   1.083
    9SOL    HW2   44   0.802   1.231   0.987
   10SOL     OW   45   0.850   0.798   1.823
   10SOL    HW1   46   0.846   0.874   1.888
   10SOL    HW2   47   0.872   0.834   1.732
   11SOL     OW   48   0.685   1.012   0.665
   11SOL    HW1   49   0.754   0.996   0.735
   11SOL    HW2   50   0.612   1.069   0.703
   12SOL     OW   51   0.686   1.161   1.803
   12SOL    HW1   52   0.746   1.240   1.817
   12SOL    HW2   53   0.600   1.192   1.762
   13SOL     OW   54   0.335   1.435   1.061
   13SOL    HW1   55   0.257   1.404   1.008
   13SOL    HW2   56   0.393   1.493   1.004
   14SOL     OW   57   1.460   1.505   1.339
   14SOL    HW1   58   1.484   1.599   1.365
   14SOL    HW2   59   1.444   1.451   1.421
   15SOL     OW   60   0.438   0.392   1.499
   15SOL    HW1   61   0.520   0.336   1.508
   15SOL    HW2   62   0.357   0.334   1.503
   16SOL     OW   63   1.603   0.447   0.737
   16SOL    HW1   64   1.529   0.493   0.687
   16SOL    HW2   65   1.654   0.515   0.790
   17SOL     OW   66   0.231   1.713   0.483
   17SOL    HW1   67   0.265   1.790   0.537
   17SOL    HW2   68   0.275   1.713   0.393
   18SOL     OW   69   1.127   1.341   1.690
   18SOL    HW1   70   1.174   1.341   1.778
   18SOL    HW2   71   1.079   1.254   1.679
   19SOL     OW   72   0.230   1.434   0.538
   19SOL    HW1   73   0.204   1.530   0.538
   19SOL    HW2   74   0.159   1.380   0.583
   20SOL     OW   75   0.240   1.091   0.886
   20SOL    HW1   76   0.254   1.007   0.938
   20SOL    HW2   77   0.185   1.155   0.941
   21SOL     OW   78   0.620   1.786   1.439
   21SOL    HW1   79   0.528   1.769   1.474
   21SOL    HW2   80   0.648   1.878   1.465
   22SOL     OW   81   0.606   0.964   0.123
   22SOL    HW1   82   0.613   1.048   0.069
   22SOL    HW2   83   0.652   0.977   0.211
   23SOL     OW   84   1.594   0.114   1.480
   23SOL    HW1   85   1.576   0.181   1.408
   23SOL    HW2   86   1.591   0.160   1.569
   24SOL     OW   87   0.122   0.643   0.563
   24SOL    HW1   88   0.077   0.555   0.580
   24SOL    HW2   89   0.121   0.697   0.647
   25SOL     OW   90   1.842   1.767   0.359
   25SOL    HW1   91   1.896   1.738   0.439
   25SOL    HW2   92   1.872   1.857   0.330
   26SOL     OW   93   0.027   1.596   0.117
   26SOL    HW1   94   0.008   1.500   0.138
   26SOL    HW2   95  -0.006   1.654   0.192
   27SOL     OW   96   1.689   0.922   0.612
   27SOL    HW1   97   1.784   0.893   0.620
   27SOL    HW2   98   1.681   0.987   0.537
   28SOL     OW   99   1.641   1.108   0.432
   28SOL    HW1  100   1.727   1.110   0.380
   28SOL    HW2  101   1.655   1.155   0.520
   29SOL     OW  102   0.113   0.737   1.597
   29SOL    HW1  103   0.201   0.724   1.642
   29SOL    HW2  104   0.100   0.834   1.575
   30SOL     OW  105   0.613   1.365   0.726
   30SOL    HW1  106   0.564   1.278   0.735
   30SOL    HW2  107   0.590   1.408   0.639
   31SOL     OW  108   1.293   1.228   1.423
   31SOL    HW1  109   1.330   1.155   1.365
   31SOL    HW2  110   1.345   1.233   1.508
   32SOL     OW  111   0.809   0.004   0.502
   32SOL    HW1  112   0.849   0.095   0.493
   32SOL    HW2  113   0.709   0.012   0.508
   33SOL     OW  114   0.197   0.976   1.264
   33SOL    HW1  115   0.286   0.931   1.250
   33SOL    HW2  116   0.124   0.911   1.245
   34SOL     OW  117   1.525   0.999   0.190
   34SOL    HW1  118   1.462   0.923   0.203
   34SOL    HW2  119   1.573   1.017   0.276
   35SOL     OW  120   1.187   1.792   1.616
   35SOL    HW1  121   1.211   1.852   1.540
   35SOL    HW2  122   1.194   1.697   1.586
   36SOL     OW  123   0.317   0.251   1.801
   36SOL    HW1  124   0.388   0.322   1.807
   36SOL    HW2  125   0.229   0.290   1.829
   37SOL     OW  126   1.466   1.417   0.953
   37SOL    HW1  127   1.407   1.423   1.033
   37SOL    HW2  128   1.451   1.329   0.907
   38SOL     OW  129   1.667   1.714   0.572
   38SOL    HW1  130   1.626   1.691   0.484
   38SOL    HW2  131   1.649   1.640   0.637
   39SOL     OW  132   0.598   0.729   0.270
   39SOL    HW1  133   0.622   0.798   0.202
   39SOL    HW2  134   0.520   0.762   0.324
   40SOL     OW  135   1.281   0.345   0.944
   40SOL    HW1  136   1.195   0.295   0.931
   40SOL    HW2  137   1.343   0.291   1.000
   41SOL     OW  138   1.576   1.662   0.307
   41SOL    HW1  139   1.665   1.708   0.310
   41SOL    HW2  140   1.555   1.638   0.212
   42SOL     OW  141   0.807   0.605   1.465
   42SOL    HW1  142   0.760   0.602   1.554
   42SOL    HW2  143   0.756   0.550   1.399
   43SOL     OW  144   1.394   0.469   1.674
   43SOL    HW1  145   1.374   0.512   1.762
   43SOL    HW2  146   1.472   0.407   1.683
   44SOL     OW  147   0.973   0.890   1.572
   44SOL    HW1  148   1.019   0.806   1.543
   44SOL    HW2  149   0.917   0.924   1.497
   45SOL     OW  150   0.991   0.410   1.242
   45SOL    HW1  151   0.914   0.444   1.296
   45SOL    HW2  152   0.957   0.359   1.163
   46SOL     OW  153   1.041   0.701   0.429
   46SOL    HW1  154   1.067   0.697   0.525
   46SOL    HW2  155   0.956   0.650   0.415
   47SOL     OW  156   0.076   0.811   0.789
   47SOL    HW1  157   0.175   0.799   0.798
   47SOL    HW2  158   0.052   0.906   0.810
   48SOL     OW  159   0.130   1.821   1.571
   48SOL    HW1  160   0.120   1.806   1.670
   48SOL    HW2  161   0.044   1.857   1.535
   49SOL     OW  162   0.865   0.348   0.195
   49SOL    HW1  163   0.924   0.411   0.146
   49SOL    HW2  164   0.884   0.254   0.166
   50SOL     OW  165   1.719   0.585   1.831
   50SOL    HW1  166   1.693   0.674   1.795
   50SOL    HW2  167   1.717   0.517   1.758
   51SOL     OW  168   1.362   1.144   0.545
   51SOL    HW1  169   1.445   1.115   0.497
   51SOL    HW2  170   1.313   1.211   0.489
   52SOL     OW  171   0.550   0.196   0.885
   52SOL    HW1  172   0.545   0.191   0.985
   52SOL    HW2  173   0.552   0.292   0.856
   53SOL     OW  174   1.008   1.456   0.477
   53SOL    HW1  175   0.962   1.528   0.425
   53SOL    HW2  176   1.004   1.476   0.575
   54SOL     OW  177   0.351   1.801   0.853
   54SOL    HW1  178   0.401   1.715   0.859
   54SOL    HW2  179   0.416   1.878   0.850
   55SOL     OW  180   1.795   1.066   0.873
   55SOL    HW1  181   1.733   1.051   0.797
   55SOL    HW2  182   1.743   1.077   0.958
   56SOL     OW  183   1.227   1.550   1.506
   56SOL    HW1  184   1.233   1.473   1.570
   56SOL    HW2  185   1.175   1.524   1.426
   57SOL     OW  186   0.321   0.943   0.242
   57SOL    HW1  187   0.403   0.982   0.200
   57SOL    HW2  188   0.294   0.861   0.193
   58SOL     OW  189   1.458   0.735   0.728
   58SOL    HW1  190   1.453   0.670   0.803
   58SOL    HW2  191   1.538   0.794   0.741
   59SOL     OW  192   0.461   1.266   1.727
   59SOL    HW1  193   0.411   1.267   1.641
   59SOL    HW2  194   0.398   1.248   1.803
   60SOL     OW  195   1.111   1.776   0.237
   60SOL    HW1  196   1.051   1.714   0.287
   60SOL    HW2  197   1.142   1.732   0.152
   61SOL     OW  198   0.202   0.285   1.498
   61SOL    HW1  199   0.122   0.345   1.485
   61SOL    HW2  200   0.192   0.236   1.584
   62SOL     OW  201   1.632   1.377   0.081
   62SOL    HW1  202   1.600   1.471   0.071
   62SOL    HW2  203   1.556   1.314   0.069
   63SOL     OW  204   0.464   1.743   0.323
   63SOL    HW1  205   0.497   1.782   0.409
   63SOL    HW2  206   0.540   1.736   0.258
   64SOL     OW  207   1.400   0.107   0.426
   64SOL    HW1  208   1.376   0.070   0.336
   64SOL    HW2  209   1.499   0.123   0.430
   65SOL     OW  210   0.249   1.785   1.241
   65SOL    HW1  211   0.306   1.720   1.291
   65SOL    HW2  212   0.233   1.752   1.148
   66SOL     OW  213   0.940   1.698   0.904
   66SOL    HW1  214   1.020   1.641   0.925
   66SOL    HW2  215   0.891   1.658   0.827
   67SOL     OW  216   0.382   0.700   0.480
   67SOL    HW1  217   0.427   0.610   0.477
   67SOL    HW2  218   0.288   0.689   0.513
   68SOL     OW  219   1.547   0.222   1.729
   68SOL    HW1  220   1.542   0.259   1.821
   68SOL    HW2  221   1.475   0.153   1.717
   69SOL     OW  222   0.614   0.122   0.117
   69SOL    HW1  223   0.712   0.100   0.124
   69SOL    HW2  224   0.583   0.105   0.024
   70SOL     OW  225   0.781   0.264   1.749
   70SOL    HW1  226   0.848   0.203   1.792
   70SOL    HW2  227   0.708   0.283   1.814
   71SOL     OW  228   0.888   1.514   1.195
   71SOL    HW1  229   0.865   1.489   1.101
   71SOL    HW2  230   0.949   1.445   1.234
   72SOL     OW  231   1.351   0.590   1.433
   72SOL    HW1  232   1.379   0.547   1.518
   72SOL    HW2  233   1.376   0.686   1.434
   73SOL     OW  234   0.803   1.402   0.924
   73SOL    HW1  235   0.893   1.416   0.882
   73SOL    HW2  236   0.732   1.404   0.853
   74SOL     OW  237   0.922   0.503   0.899
   74SOL    HW1  238   0.897   0.494   0.803
   74SOL    HW2  239   0.970   0.421   0.930
   75SOL     OW  240   0.539   0.064   0.512
   75SOL    HW1  241   0.458   0.065   0.570
   75SOL    HW2  242   0.542   0.147   0.457
   76SOL     OW  243   1.434   1.188   0.041
   76SOL    HW1  244   1.466   1.112   0.098
   76SOL    HW2  245   1.342   1.215   0.071
   77SOL     OW  246   0.297   0.035   0.171
   77SOL    HW1  247   0.346   0.119   0.150
   77SOL    HW2  248   0.359  -0.030   0.216
   78SOL     OW  249   0.935   0.236   0.480
   78SOL    HW1  250   0.887   0.277   0.402
   78SOL    HW2  251   1.034   0.234   0.461
   79SOL     OW  252   1.076   0.683   1.464
   79SOL    HW1  253   0.996   0.622   1.467
   79SOL    HW2  254   1.157   0.630   1.440
   80SOL     OW  255   1.227   1.570   0.793
   80SOL    HW1  256   1.248   1.644   0.728
   80SOL    HW2  257   1.295   1.570   0.866
   81SOL     OW  258   0.459   1.152   0.741
   81SOL    HW1  259   0.388   1.125   0.806
   81SOL    HW2  260   0.433   1.124   0.648
   82SOL     OW  261   1.271   1.797   0.591
   82SOL    HW1  262   1.315   1.861   0.527
   82SOL    HW2  263   1.221   1.849   0.661
   83SOL     OW  264   1.032   0.549   0.016
   83SOL    HW1  265   0.991   0.631  -0.023
   83SOL    HW2  266   1.096   0.575   0.089
   84SOL     OW  267   0.078   0.556   1.386
   84SOL    HW1  268   0.170   0.555   1.345
   84SOL    HW2  269   0.072   0.630   1.453
   85SOL     OW  270   0.561   0.222   1.147
   85SOL    HW1  271   0.599   0.138   1.184
   85SOL    HW2  272   0.473   0.241   1.191
   86SOL     OW  273   0.866   0.454   0.642
   86SOL    HW1  274   0.834   0.526   0.580
   86SOL    HW2  275   0.890   0.373   0.589
   87SOL     OW  276   1.017   0.039   0.753
   87SOL    HW1  277   0.945   0.044   0.684
   87SOL    HW2  278   0.993  -0.030   0.822
   88SOL     OW  279   1.429   1.173   0.867
   88SOL    HW1  280   1.374   1.089   0.860
   88SOL    HW2  281   1.455   1.202   0.775
   89SOL     OW  282   1.466   0.590   0.992
   89SOL    HW1  283   1.436   0.495   0.999
   89SOL    HW2  284   1.539   0.606   1.058
   90SOL     OW  285   1.857   0.833   0.377
   90SOL    HW1  286   1.899   0.769   0.441
   90SOL    HW2  287   1.819   0.782   0.299
   91SOL     OW  288   0.488   1.385   0.174
   91SOL    HW1  289   0.401   1.370   0.221
   91SOL    HW2  290   0.471   1.411   0.079
   92SOL     OW  291   1.664   1.280   0.657
   92SOL    HW1  292   1.763   1.288   0.671
   92SOL    HW2  293   1.619   1.364   0.688
   93SOL     OW  294   1.390   0.575   0.078
   93SOL    HW1  295   1.336   0.554   0.159
   93SOL    HW2  296   1.481   0.534   0.087
   94SOL     OW  297   0.527   0.256   0.328
   94SOL    HW1  298   0.554   0.197   0.253
   94SOL    HW2  299   0.527   0.351   0.297
   95SOL     OW  300   1.754   1.223   1.588
   95SOL    HW1  301   1.845   1.184   1.575
   95SOL    HW2  302   1.762   1.319   1.612
   96SOL     OW  303   1.064   1.347   1.340
   96SOL    HW1  304   0.984   1.324   1.395
   96SOL    HW2  305   1.147   1.321   1.389
   97SOL     OW  306   1.592   1.629   1.625
   97SOL    HW1  307   1.619   1.663   1.535
   97SOL    HW2  308   1.671   1.591   1.671
   98SOL     OW  309   1.111   1.195   1.100
   98SOL    HW1  310   1.071   1.239   1.181
   98SOL    HW2  311   1.070   1.232   1.017
   99SOL     OW  312   1.638   1.099   1.079
   99SOL    HW1  313   1.643   1.180   1.138
   99SOL    HW2  314   1.552   1.101   1.028
  100SOL     OW  315   0.915   0.089   1.402
  100SOL    HW1  316   0.940   0.069   1.307
  100SOL    HW2  317   0.987   0.145   1.444
  101SOL     OW  318   0.980   1.116   1.719
  101SOL    HW1  319   0.881   1.122   1.729
  101SOL    HW2  320   1.003   1.036   1.663
  102SOL     OW  321   0.705   1.050   0.368
  102SOL    HW1  322   0.691   1.057   0.467
  102SOL    HW2  323   0.789   0.999   0.350
  103SOL     OW  324   0.410   0.813   1.251
  103SOL    HW1  325   0.496   0.825   1.301
  103SOL    HW2  326   0.368   0.726   1.278
  104SOL     OW  327   1.274   0.386   1.262
  104SOL    HW1  328   1.295   0.460   1.326
  104SOL    HW2  329   1.185   0.403   1.219
  105SOL     OW  330   0.064   1.564   1.331
  105SOL    HW1  331   0.018   1.646   1.297
  105SOL    HW2  332   0.162   1.583   1.340
  106SOL     OW  333   0.367   1.100   0.501
  106SOL    HW1  334   0.360   1.183   0.445
  106SOL    HW2  335   0.371   1.020   0.441
  107SOL     OW  336   0.566   0.537   0.865
  107SOL    HW1  337   0.578   0.603   0.791
  107SOL    HW2  338   0.612   0.571   0.948
  108SOL     OW  339   1.252   1.348   0.388
  108SOL    HW1  340   1.302   1.425   0.428
  108SOL    HW2  341   1.157   1.350   0.420
  109SOL     OW  342   1.272   1.445   1.142
  109SOL    HW1  343   1.319   1.458   1.229
  109SOL    HW2  344   1.206   1.371   1.151
  110SOL     OW  345   1.582   0.639   0.472
  110SOL    HW1  346   1.551   0.700   0.545
  110SOL    HW2  347   1.632   0.691   0.403
  111SOL     OW  348   0.354   1.510   1.329
  111SOL    HW1  349   0.333   1.466   1.242
  111SOL    HW2  350   0.451   1.536   1.332
  112SOL     OW  351   0.402   0.751   1.598
  112SOL    HW1  352   0.470   0.806   1.551
  112SOL    HW2  353   0.442   0.663   1.625
  113SOL     OW  354   1.587   0.779   1.670
  113SOL    HW1  355   1.495   0.817   1.665
  113SOL    HW2  356   1.647   0.826   1.605
  114SOL     OW  357   1.013   0.105   1.770
  114SOL    HW1  358   1.019   0.190   1.718
  114SOL    HW2  359   1.045   0.029   1.713
  115SOL     OW  360   0.504   0.050   1.740
  115SOL    HW1  361   0.462  -0.007   1.670
  115SOL    HW2  362   0.438   0.119   1.772
  116SOL     OW  363   0.573   0.870   1.029
  116SOL    HW1  364   0.617   0.959   1.020
  116SOL    HW2  365   0.510   0.870   1.106
  117SOL     OW  366   1.360   0.862   1.045
  117SOL    HW1  367   1.285   0.862   0.979
  117SOL    HW2  368   1.397   0.770   1.054
  118SOL     OW  369   1.209   0.525   0.275
  118SOL    HW1  370   1.222   0.441   0.329
  118SOL    HW2  371   1.180   0.599   0.335
  119SOL     OW  372   0.307   0.213   1.231
  119SOL    HW1  373   0.284   0.250   1.321
  119SOL    HW2  374   0.277   0.118   1.225
  120SOL     OW  375   0.037   1.310   1.282
  120SOL    HW1  376   0.090   1.261   1.350
  120SOL    HW2  377   0.059   1.408   1.287
  121SOL     OW  378   0.732   0.634   1.064
  121SOL    HW1  379   0.791   0.608   0.988
  121SOL    HW2  380   0.704   0.730   1.053
  122SOL     OW  381   1.728   0.935   1.854
  122SOL    HW1  382   1.682   0.928   1.765
  122SOL    HW2  383   1.666   0.979   1.920
  123SOL     OW  384   0.307   0.063   0.618
  123SOL    HW1  385   0.296   0.157   0.651
  123SOL    HW2  386   0.302   0.000   0.695
  124SOL     OW  387   1.622   0.367   0.374
  124SOL    HW1  388   1.624   0.291   0.438
  124SOL    HW2  389   1.574   0.444   0.414
  125SOL     OW  390   1.023   0.766   0.966
  125SOL    HW1  391   1.038   0.787   1.062
  125SOL    HW2  392   0.993   0.671   0.957
  126SOL     OW  393   0.980   1.573   1.700
  126SOL    HW1  394   0.960   1.617   1.612
  126SOL    HW2  395   1.019   1.482   1.684
  127SOL     OW  396   1.859   1.518   1.605
  127SOL    HW1  397   1.873   1.545   1.510
  127SOL    HW2  398   1.942   1.540   1.658
  128SOL     OW  399   0.350   0.898   1.804
  128SOL    HW1  400   0.426   0.942   1.852
  128SOL    HW2  401   0.385   0.851   1.722
  129SOL     OW  402   1.540   0.274   0.125
  129SOL    HW1  403   1.479   0.199   0.148
  129SOL    HW2  404   1.562   0.326   0.208
  130SOL     OW  405   1.303   0.838   0.042
  130SOL    HW1  406   1.337   0.745   0.057
  130SOL    HW2  407   1.321   0.865  -0.053
  131SOL     OW  408   1.068   1.333   0.849
  131SOL    HW1  409   1.075   1.249   0.794
  131SOL    HW2  410   1.130   1.402   0.813
  132SOL     OW  411   0.319   0.810   0.949
  132SOL    HW1  412   0.412   0.846   0.954
  132SOL    HW2  413   0.313   0.725   1.001
  133SOL     OW  414   0.339   0.509   1.006
  133SOL    HW1  415   0.287   0.426   0.989
  133SOL    HW2  416   0.416   0.514   0.942
  134SOL     OW  417   1.138   0.380   1.678
  134SOL    HW1  418   1.093   0.443   1.742
  134SOL    HW2  419   1.231   0.411   1.661
  135SOL     OW  420   1.160   0.207   1.477
  135SOL    HW1  421   1.160   0.271   1.554
  135SOL    HW2  422   1.188   0.255   1.394
  136SOL     OW  423   0.008   1.326   0.200
  136SOL    HW1  424  -0.085   1.347   0.169
  136SOL    HW2  425   0.018   1.227   0.213
  137SOL     OW  426   0.088   1.801   0.927
  137SOL    HW1  427   0.046   1.715   0.900
  137SOL    HW2  428   0.182   1.804   0.893
  138SOL     OW  429   0.504   1.568   0.910
  138SOL    HW1  430   0.570   1.642   0.919
  138SOL    HW2  431   0.548   1.489   0.868
  139SOL     OW  432   1.002   0.796   1.238
  139SOL    HW1  433   1.043   0.764   1.324
  139SOL    HW2  434   0.906   0.769   1.235
  140SOL     OW  435   0.040   0.544   1.114
  140SOL    HW1  436   0.125   0.511   1.073
  140SOL    HW2  437   0.053   0.559   1.212
  141SOL     OW  438   0.189   0.520   1.722
  141SOL    HW1  439   0.248   0.480   1.652
  141SOL    HW2  440   0.131   0.591   1.681
  142SOL     OW  441   1.369   0.950   1.660
  142SOL    HW1  442   1.408   1.039   1.680
  142SOL    HW2  443   1.379   0.930   1.563
  143SOL     OW  444   0.815   0.572   0.325
  143SOL    HW1  445   0.822   0.483   0.279
  143SOL    HW2  446   0.721   0.606   0.317
  144SOL     OW  447   1.657   0.604   1.206
  144SOL    HW1  448   1.619   0.535   1.268
  144SOL    HW2  449   1.739   0.568   1.162
  145SOL     OW  450   0.252   1.564   1.744
  145SOL    HW1  451   0.222   1.621   1.820
  145SOL    HW2  452   0.245   1.467   1.770
  146SOL     OW  453   0.671   0.464   1.269
  146SOL    HW1  454   0.637   0.375   1.239
  146SOL    HW2  455   0.697   0.518   1.189
  147SOL     OW  456   0.930   1.678   1.465
  147SOL    HW1  457   0.906   1.660   1.370
  147SOL    HW2  458   0.960   1.772   1.475
  148SOL     OW  459   0.473   0.500   0.191
  148SOL    HW1  460   0.534   0.580   0.195
  148SOL    HW2  461   0.378   0.531   0.198
  149SOL     OW  462   0.159   1.137   1.466
  149SOL    HW1  463   0.181   1.076   1.542
  149SOL    HW2  464   0.169   1.088   1.380
  150SOL     OW  465   1.347   1.059   1.234
  150SOL    HW1  466   1.371   0.996   1.160
  150SOL    HW2  467   1.257   1.099   1.216
  151SOL     OW  468   1.302   0.855   0.309
  151SOL    HW1  469   1.216   0.824   0.351
  151SOL    HW2  470   1.298   0.841   0.210
  152SOL     OW  471   1.759   1.747   1.154
  152SOL    HW1  472   1.820   1.777   1.081
  152SOL    HW2  473   1.721   1.658   1.132
  153SOL     OW  474   1.252   1.731   1.128
  153SOL    HW1  475   1.336   1.736   1.074
  153SOL    HW2  476   1.229   1.635   1.146
  154SOL     OW  477   0.083   1.258   1.022
  154SOL    HW1  478   0.078   1.257   1.122
  154SOL    HW2  479   0.000   1.217   0.984
  155SOL     OW  480   0.688   1.662   1.716
  155SOL    HW1  481   0.632   1.743   1.725
  155SOL    HW2  482   0.740   1.666   1.630
  156SOL     OW  483   0.903   0.086   0.133
  156SOL    HW1  484   0.954   0.087   0.047
  156SOL    HW2  485   0.959   0.044   0.204
  157SOL     OW  486   1.726   0.135   0.523
  157SOL    HW1  487   1.799   0.118   0.456
  157SOL    HW2  488   1.695   0.048   0.561
  158SOL     OW  489   1.388   1.573   0.477
  158SOL    HW1  490   1.455   1.585   0.403
  158SOL    HW2  491   1.348   1.662   0.500
  159SOL     OW  492   0.130   1.794   1.851
  159SOL    HW1  493   0.089   1.720   1.904
  159SOL    HW2  494   0.194   1.845   1.909
  160SOL     OW  495   1.280   0.927   0.672
  160SOL    HW1  496   1.340   0.846   0.674
  160SOL    HW2  497   1.320   0.996   0.612
  161SOL     OW  498   0.830   1.273   1.422
  161SOL    HW1  499   0.825   1.306   1.517
  161SOL    HW2  500   0.744   1.292   1.376
  162SOL     OW  501   0.672   1.616   0.154
  162SOL    HW1  502   0.681   1.626   0.055
  162SOL    HW2  503   0.632   1.527   0.175
  163SOL     OW  504   1.650   1.720   1.394
  163SOL    HW1  505   1.703   1.730   1.310
  163SOL    HW2  506   1.623   1.810   1.428
  164SOL     OW  507   1.841   0.175   0.963
  164SOL    HW1  508   1.880   0.090   0.927
  164SOL    HW2  509   1.743   0.177   0.944
  165SOL     OW  510   0.263   0.326   0.720
  165SOL    HW1  511   0.184   0.377   0.686
  165SOL    HW2  512   0.254   0.311   0.818
  166SOL     OW  513   1.194   1.612   0.031
  166SOL    HW1  514   1.200   1.519   0.068
  166SOL    HW2  515   1.135   1.612  -0.049
  167SOL     OW  516   0.822   1.002   1.372
  167SOL    HW1  517   0.862   1.001   1.280
  167SOL    HW2  518   0.832   1.094   1.412
  168SOL     OW  519   0.916   0.910   0.291
  168SOL    HW1  520   0.979   0.948   0.223
  168SOL    HW2  521   0.956   0.827   0.330
  169SOL     OW  522   1.504   1.607   0.044
  169SOL    HW1  523   1.412   1.644   0.051
  169SOL    HW2  524   1.542   1.627  -0.046
  170SOL     OW  525   0.372   1.288   1.490
  170SOL    HW1  526   0.359   1.381   1.456
  170SOL    HW2  527   0.288   1.236   1.477
  171SOL     OW  528   1.614   1.292   1.289
  171SOL    HW1  529   1.674   1.295   1.369
  171SOL    HW2  530   1.539   1.356   1.302
  172SOL     OW  531   1.039   1.098   0.696
  172SOL    HW1  532   0.969   1.051   0.750
  172SOL    HW2  533   1.098   1.030   0.653
  173SOL     OW  534   1.014   0.236   0.971
  173SOL    HW1  535   1.006   0.200   0.878
  173SOL    HW2  536   1.012   0.160   1.036
  174SOL     OW  537   0.590   1.487   0.491
  174SOL    HW1  538   0.632   1.429   0.421
  174SOL    HW2  539   0.546   1.566   0.447
  175SOL     OW  540   1.709   0.385   1.381
  175SOL    HW1  541   1.782   0.454   1.385
  175SOL    HW2  542   1.737   0.310   1.322
  176SOL     OW  543   0.255   1.348   0.290
  176SOL    HW1  544   0.159   1.349   0.263
  176SOL    HW2  545   0.267   1.401   0.374
  177SOL     OW  546   0.105   1.013   1.726
  177SOL    HW1  547   0.028   0.980   1.780
  177SOL    HW2  548   0.190   0.983   1.768
  178SOL     OW  549   0.672   0.203   1.489
  178SOL    HW1  550   0.762   0.187   1.449
  178SOL    HW2  551   0.680   0.208   1.588
  179SOL     OW  552   0.075   0.345   0.033
  179SOL    HW1  553  -0.017   0.317   0.004
  179SOL    HW2  554   0.106   0.422  -0.023
  180SOL     OW  555   1.440   0.856   1.398
  180SOL    HW1  556   1.383   0.908   1.335
  180SOL    HW2  557   1.536   0.868   1.374
  181SOL     OW  558   0.072   0.166   0.318
  181SOL    HW1  559   0.055   0.249   0.264
  181SOL    HW2  560   0.162   0.129   0.296
  182SOL     OW  561   1.183   1.335   0.119
  182SOL    HW1  562   1.084   1.324   0.121
  182SOL    HW2  563   1.217   1.350   0.212
  183SOL     OW  564   0.613   0.842   1.431
  183SOL    HW1  565   0.669   0.923   1.414
  183SOL    HW2  566   0.672   0.762   1.434
  184SOL     OW  567   1.493   1.767   0.959
  184SOL    HW1  568   1.526   1.831   0.890
  184SOL    HW2  569   1.559   1.761   1.034
  185SOL     OW  570   0.716   0.565   1.708
  185SOL    HW1  571   0.735   0.630   1.782
  185SOL    HW2  572   0.776   0.485   1.717
  186SOL     OW  573   1.450   1.220   1.633
  186SOL    HW1  574   1.441   1.210   1.732
  186SOL    HW2  575   1.546   1.213   1.607
  187SOL     OW  576   0.390   1.741   1.560
  187SOL    HW1  577   0.299   1.782   1.558
  187SOL    HW2  578   0.383   1.647   1.592
  188SOL     OW  579   1.674   0.883   1.254
  188SOL    HW1  580   1.647   0.794   1.217
  188SOL    HW2  581   1.675   0.951   1.181
  189SOL     OW  582   1.225   0.325   0.449
  189SOL    HW1  583   1.290   0.251   0.438
  189SOL    HW2  584   1.245   0.375   0.533
  190SOL     OW  585   0.594   0.745   0.652
  190SOL    HW1  586   0.644   0.830   0.633
  190SOL    HW2  587   0.506   0.747   0.604
  191SOL     OW  588   1.777   0.342   1.642
  191SOL    HW1  589   1.760   0.373   1.548
  191SOL    HW2  590   1.693   0.305   1.680
  192SOL     OW  591   1.730   0.934   1.517
  192SOL    HW1  592   1.768   1.025   1.532
  192SOL    HW2  593   1.722   0.917   1.418
  193SOL     OW  594   0.859   1.374   0.016
  193SOL    HW1  595   0.813   1.389   0.104
  193SOL    HW2  596   0.903   1.459  -0.014
  194SOL     OW  597   0.661   1.790   0.953
  194SOL    HW1  598   0.615   1.878   0.940
  194SOL    HW2  599   0.760   1.802   0.946
  195SOL     OW  600   0.859   0.956   0.861
  195SOL    HW1  601   0.913   0.887   0.909
  195SOL    HW2  602   0.827   1.025   0.927
  196SOL     OW  603   1.083   0.984   0.087
  196SOL    HW1  604   1.060   1.037   0.005
  196SOL    HW2  605   1.164   0.928   0.068
  197SOL     OW  606   1.861   1.569   0.851
  197SOL    HW1  607   1.790   1.557   0.781
  197SOL    HW2  608   1.862   1.490   0.911
  198SOL     OW  609   0.221   1.314   1.844
  198SOL    HW1  610   0.156   1.241   1.823
  198SOL    HW2  611   0.225   1.328   1.942
  199SOL     OW  612   0.079   1.240   0.653
  199SOL    HW1  613   0.078   1.193   0.741
  199SOL    HW2  614   0.161   1.212   0.602
  200SOL     OW  615   0.672   1.391   1.624
  200SOL    HW1  616   0.594   1.341   1.662
  200SOL    HW2  617   0.669   1.486   1.655
  201SOL     OW  618   1.824   0.192   1.227
  201SOL    HW1  619   1.820   0.102   1.271
  201SOL    HW2  620   1.827   0.181   1.128
  202SOL     OW  621   0.428   0.424   0.520
  202SOL    HW1  622   0.458   0.352   0.458
  202SOL    HW2  623   0.389   0.384   0.603
  203SOL     OW  624   1.705   1.487   1.104
  203SOL    HW1  625   1.612   1.462   1.077
  203SOL    HW2  626   1.731   1.437   1.186
  204SOL     OW  627   0.317   0.547   1.280
  204SOL    HW1  628   0.355   0.488   1.352
  204SOL    HW2  629   0.357   0.521   1.192
  205SOL     OW  630   0.812   1.586   0.687
  205SOL    HW1  631   0.844   1.596   0.593
  205SOL    HW2  632   0.733   1.524   0.689
  206SOL     OW  633   1.424   0.214   1.112
  206SOL    HW1  634   1.476   0.149   1.167
  206SOL    HW2  635   1.375   0.277   1.173
  207SOL     OW  636   1.001   0.034   1.154
  207SOL    HW1  637   0.938  -0.038   1.123
  207SOL    HW2  638   1.094  -0.002   1.154
  208SOL     OW  639   0.770   1.330   0.301
  208SOL    HW1  640   0.724   1.243   0.318
  208SOL    HW2  641   0.861   1.327   0.342
  209SOL     OW  642   0.618   1.567   1.284
  209SOL    HW1  643   0.613   1.649   1.341
  209SOL    HW2  644   0.707   1.564   1.239
  210SOL     OW  645   1.352   0.052   0.168
  210SOL    HW1  646   1.387   0.011   0.084
  210SOL    HW2  647   1.262   0.014   0.188
  211SOL     OW  648   1.300   0.453   0.691
  211SOL    HW1  649   1.241   0.533   0.695
  211SOL    HW2  650   1.315   0.418   0.784
  212SOL     OW  651   1.593   0.221   0.882
  212SOL    HW1  652   1.509   0.220   0.936
  212SOL    HW2  653   1.595   0.304   0.826
  213SOL     OW  654   0.039   1.077   0.300
  213SOL    HW1  655   0.138   1.066   0.291
  213SOL    HW2  656  -0.001   0.991   0.332
  214SOL     OW  657   0.875   1.646   0.337
  214SOL    HW1  658   0.798   1.611   0.283
  214SOL    HW2  659   0.843   1.717   0.399
  215SOL     OW  660   0.230   0.628   1.975
  215SOL    HW1  661   0.137   0.626   2.012
  215SOL    HW2  662   0.231   0.589   1.883
  216SOL     OW  663   0.225   0.275   2.858
  216SOL    HW1  664   0.260   0.258   2.950
  216SOL    HW2  665   0.137   0.230   2.846
  217SOL     OW  666   0.019   0.368   2.509
  217SOL    HW1  667  -0.063   0.411   2.548
  217SOL    HW2  668  -0.009   0.295   2.446
  218SOL     OW  669   0.569   1.275   3.027
  218SOL    HW1  670   0.476   1.268   2.990
  218SOL    HW2  671   0.580   1.364   3.071
  219SOL     OW  672   1.555   1.511   2.565
  219SOL    HW1  673   1.498   1.495   2.646
  219SOL    HW2  674   1.496   1.521   2.485
  220SOL     OW  675   1.135   0.703   2.579
  220SOL    HW1  676   1.192   0.781   2.554
  220SOL    HW2  677   1.075   0.729   2.655
  221SOL     OW  678   1.755   0.607   2.093
  221SOL    HW1  679   1.743   0.594   1.994
  221SOL    HW2  680   1.725   0.526   2.142
  222SOL     OW  681   0.768   1.144   2.885
  222SOL    HW1  682   0.690   1.161   2.945
  222SOL    HW2  683   0.802   1.231   2.849
  223SOL     OW  684   0.850   0.798   3.685
  223SOL    HW1  685   0.846   0.874   3.750
  223SOL    HW2  686   0.872   0.834   3.594
  224SOL     OW  687   0.685   1.012   2.527
  224SOL    HW1  688   0.754   0.996   2.597
  224SOL    HW2  689   0.612   1.069   2.565
  225SOL     OW  690   0.686   1.161   3.665
  225SOL    HW1  691   0.746   1.240   3.679
  225SOL    HW2  692   0.600   1.192   3.624
  226SOL     OW  693   0.335   1.435   2.923
  226SOL    HW1  694   0.257   1.404   2.870
  226SOL    HW2  695   0.393   1.493   2.866
  227SOL     OW  696   1.460   1.505   3.201
  227SOL    HW1  697   1.484   1.599   3.227
  227SOL    HW2  698   1.444   1.451   3.283
  228SOL     OW  699   0.438   0.392   3.361
  228SOL    HW1  700   0.520   0.336   3.370
  228SOL    HW2  701   0.357   0.334   3.365
  229SOL     OW  702   1.603   0.447   2.599
  229SOL    HW1  703   1.529   0.493   2.549
  229SOL    HW2  704   1.654   0.515   2.652
  230SOL     OW  705   0.231   1.713   2.345
  230SOL    HW1  706   0.265   1.790   2.399
  230SOL    HW2  707   0.275   1.713   2.255
  231SOL     OW  708   1.127   1.341   3.552
  231SOL    HW1  709   1.174   1.341   3.640
  231SOL    HW2  710   1.079   1.254   3.541
  232SOL     OW  711   0.230   1.434   2.400
  232SOL    HW1  712   0.204   1.530   2.400
  232SOL    HW2  713   0.159   1.380   2.445
  233SOL     OW  714   0.240   1.091   2.748
  233SOL    HW1  715   0.254   1.007   2.800
  233SOL    HW2  716   0.185   1.155   2.803
  234SOL     OW  717   0.620   1.786   3.301
  234SOL    HW1  718   0.528   1.769   3.336
  234SOL    HW2  719   0.648   1.878   3.327
  235SOL     OW  720   0.606   0.964   1.985
  235SOL    HW1  721   0.613   1.048   1.931
  235SOL    HW2  722   0.652   0.977   2.073
  236SOL     OW  723   1.594   0.114   3.342
  236SOL    HW1  724   1.576   0.181   3.270
  236SOL    HW2  725   1.591   0.160   3.431
  237SOL     OW  726   0.122   0.643   2.425
  237SOL    HW1  727   0.077   0.555   2.442
  237SOL    HW2  728   0.121   0.697   2.509
  238SOL     OW  729   1.842   1.767   2.221
  238SOL    HW1  730   1.896   1.738   2.301
  238SOL    HW2  731   1.872   1.857   2.192
  239SOL     OW  732   0.027   1.596   1.979
  239SOL    HW1  733   0.008   1.500   2.000
  239SOL    HW2  734  -0.006   1.654   2.054
  240SOL     OW  735   1.689   0.922   2.474
  240SOL    HW1  736   1.784   0.893   2.482
  240SOL    HW2  737   1.681   0.987   2.399
  241SOL     OW  738   1.641   1.108   2.294
  241SOL    HW1  739   1.727   1.110   2.242
  241SOL    HW2  740   1.655   1.155   2.382
  242SOL     OW  741   0.113   0.737   3.459
  242SOL    HW1  742   0.201   0.724   3.504
  242SOL    HW2  743   0.100   0.834   3.437
  243SOL     OW  744   0.613   1.365   2.588
  243SOL    HW1  745   0.564   1.278   2.597
  243SOL    HW2  746   0.590   1.408   2.501
  244SOL     OW  747   1.293   1.228   3.285
  244SOL    HW1  748   1.330   1.155   3.227
  244SOL    HW2  749   1.345   1.233   3.370
  245SOL     OW  750   0.809   0.004   2.364
  245SOL    HW1  751   0.849   0.095   2.355
  245SOL    HW2  752   0.709   0.012   2.370
  246SOL     OW  753   0.197   0.976   3.126
  246SOL    HW1  754   0.286   0.931   3.112
  246SOL    HW2  755   0.124   0.911   3.107
  247SOL     OW  756   1.525   0.999   2.052
  247SOL    HW1  757   1.462   0.923   2.065
  247SOL    HW2  758   1.573   1.017   2.138
  248SOL     OW  759   1.187   1.792   3.478
  248SOL    HW1  760   1.211   1.852   3.402
  248SOL    HW2  761   1.194   1.697   3.448
  249SOL     OW  762   0.317   0.251   3.663
  249SOL    HW1  763   0.388   0.322   3.669
  249SOL    HW2  764   0.229   0.290   3.691
  250SOL     OW  765   1.466   1.417   2.815
  250SOL    HW1  766   1.407   1.423   2.895
  250SOL    HW2  767   1.451   1.329   2.769
  251SOL     OW  768   1.667   1.714   2.434
  251SOL    HW1  769   1.626   1.691   2.346
  251SOL    HW2  770   1.649   1.640   2.499
  252SOL     OW  771   0.598   0.729   2.132
  252SOL    HW1  772   0.622   0.798   2.064
  252SOL    HW2  773   0.520   0.762   2.186
  253SOL     OW  774   1.281   0.345   2.806
  253SOL    HW1  775   1.195   0.295   2.793
  253SOL    HW2  776   1.343   0.291   2.862
  254SOL     OW  777   1.576   1.662   2.169
  254SOL    HW1  778   1.665   1.708   2.172
  254SOL    HW2  779   1.555   1.638   2.074
  255SOL     OW  780   0.807   0.605   3.327
  255SOL    HW1  781   0.760   0.602   3.416
  255SOL    HW2  782   0.756   0.550   3.261
  256SOL     OW  783   1.394   0.469   3.536
  256SOL    HW1  784   1.374   0.512   3.624
  256SOL    HW2  785   1.472   0.407   3.545
  257SOL     OW  786   0.973   0.890   3.434
  257SOL    HW1  787   1.019   0.806   3.405
  257SOL    HW2  788   0.917   0.924   3.359
  258SOL     OW  789   0.991   0.410   3.104
  258SOL    HW1  790   0.914   0.444   3.158
  258SOL    HW2  791   0.957   0.359   3.025
  259SOL     OW  792   1.041   0.701   2.291
  259SOL    HW1  793   1.067   0.697   2.387
  259SOL    HW2  794   0.956   0.650   2.277
  260SOL     OW  795   0.076   0.811   2.651
  260SOL    HW1  796   0.175   0.799   2.660
  260SOL    HW2  797   0.052   0.906   2.672
  261SOL     OW  798   0.130   1.821   3.433
  261SOL    HW1  799   0.120   1.806   3.532
  261SOL    HW2  800   0.044   1.857   3.397
  262SOL     OW  801   0.865   0.348   2.057
  262SOL    HW1  802   0.924   0.411   2.008
  262SOL    HW2  803   0.884   0.254   2.028
  263SOL     OW  804   1.719   0.585   3.693
  263SOL    HW1  805   1.693   0.674   3.657
  263SOL    HW2  806   1.717   0.517   3.620
  264SOL     OW  807   1.362   1.144   2.407
  264SOL    HW1  808   1.445   1.115   2.359
  264SOL    HW2  809   1.313   1.211   2.351
  265SOL     OW  810   0.550   0.196   2.747
  265SOL    HW1  811   0.545   0.191   2.847
  265SOL    HW2  812   0.552   0.292   2.718
  266SOL     OW  813   1.008   1.456   2.339
  266SOL    HW1  814   0.962   1.528   2.287
  266SOL    HW2  815   1.004   1.476   2.437
  267SOL     OW  816   0.351   1.801   2.715
  267SOL    HW1  817   0.401   1.715   2.721
  267SOL    HW2  818   0.416   1.878   2.712
  268SOL     OW  819   1.795   1.066   2.735
  268SOL    HW1  820   1.733   1.051   2.659
  268SOL    HW2  821   1.743   1.077   2.820
  269SOL     OW  822   1.227   1.550   3.368
  269SOL    HW1  823   1.233   1.473   3.432
  269SOL    HW2  824   1.175   1.524   3.288
  270SOL     OW  825   0.321   0.943   2.104
  270SOL    HW1  826   0.403   0.982   2.062
  270SOL    HW2  827   0.294   0.861   2.055
  271SOL     OW  828   1.458   0.735   2.590
  271SOL    HW1  829   1.453   0.670   2.665
  271SOL    HW2  830   1.538   0.794   2.603
  272SOL     OW  831   0.461   1.266   3.589
  272SOL    HW1  832   0.411   1.267   3.503
  272SOL    HW2  833   0.398   1.248   3.665
  273SOL     OW  834   1.111   1.776   2.099
  273SOL    HW1  835   1.051   1.714   2.149
  273SOL    HW2  836   1.142   1.732   2.014
  274SOL     OW  837   0.202   0.285   3.360
  274SOL    HW1  838   0.122   0.345   3.347
  274SOL    HW2  839   0.192   0.236   3.446
  275SOL     OW  840   1.632   1.377   1.943
  275SOL    HW1  841   1.600   1.471   1.933
  275SOL    HW2  842   1.556   1.314   1.931
  276SOL     OW  843   0.464   1.743   2.185
  276SOL    HW1  844   0.497   1.782   2.271
  276SOL    HW2  845   0.540   1.736   2.120
  277SOL     OW  846   1.400   0.107   2.288
  277SOL    HW1  847   1.376   0.070   2.198
  277SOL    HW2  848   1.499   0.123   2.292
  278SOL     OW  849   0.249   1.785   3.103
  278SOL    HW1  850   0.306   1.720   3.153
  278SOL    HW2  851   0.233   1.752   3.010
  279SOL     OW  852   0.940   1.698   2.766
  279SOL    HW1  853   1.020   1.641   2.787
  279SOL    HW2  854   0.891   1.658   2.689
  280SOL     OW  855   0.382   0.700   2.342
  280SOL    HW1  856   0.427   0.610   2.339
  280SOL    HW2  857   0.288   0.689   2.375
  281SOL     OW  858   1.547   0.222   3.591
  281SOL    HW1  859   1.542   0.259   3.683
  281SOL    HW2  860   1.475   0.153   3.579
  282SOL     OW  861   0.614   0.122   1.979
  282SOL    HW1  862   0.712   0.100   1.986
  282SOL    HW2  863   0.583   0.105   1.886
  283SOL     OW  864   0.781   0.264   3.611
  283SOL    HW1  865   0.848   0.203   3.654
  283SOL    HW2  866   0.708   0.283   3.676
  284SOL     OW  867   0.888   1.514   3.057
  284SOL    HW1  868   0.865   1.489   2.963
  284SOL    HW2  869   0.949   1.445   3.096
  285SOL     OW  870   1.351   0.590   3.295
  285SOL    HW1  871   1.379   0.547   3.380
  285SOL    HW2  872   1.376   0.686   3.296
  286SOL     OW  873   0.803   1.402   2.786
  286SOL    HW1  874   0.893   1.416   2.744
  286SOL    HW2  875   0.732   1.404   2.715
  287SOL     OW  876   0.922   0.503   2.761
  287SOL    HW1  877   0.897   0.494   2.665
  287SOL    HW2  878   0.970   0.421   2.792
  288SOL     OW  879   0.539   0.064   2.374
  288SOL    HW1  880   0.458   0.065   2.432
  288SOL    HW2  881   0.542   0.147   2.319
  289SOL     OW  882   1.434   1.188   1.903
  289SOL    HW1  883   1.466   1.112   1.960
  289SOL    HW2  884   1.342   1.215   1.933
  290SOL     OW  885   0.297   0.035   2.033
  290SOL    HW1  886   0.346   0.119   2.012
  290SOL    HW2  887   0.359  -0.030   2.078
  291SOL     OW  888   0.935   0.236   2.342
  291SOL    HW1  889   0.887   0.277   2.264
  291SOL    HW2  890   1.034   0.234   2.323
  292SOL     OW  891   1.076   0.683   3.326
  292SOL    HW1  892   0.996   0.622   3.329
  292SOL    HW2  893   1.157   0.630   3.302
  293SOL     OW  894   1.227   1.570   2.655
  293SOL    HW1  895   1.248   1.644   2.590
  293SOL    HW2  896   1.295   1.570   2.728
  294SOL     OW  897   0.459   1.152   2.603
  294SOL    HW1  898   0.388   1.125   2.668
  294SOL    HW2  899   0.433   1.124   2.510
  295SOL     OW  900   1.271   1.797   2.453
  295SOL    HW1  901   1.315   1.861   2.389
  295SOL    HW2  902   1.221   1.849   2.523
  296SOL     OW  903   1.032   0.549   1.878
  296SOL    HW1  904   0.991   0.631   1.839
  296SOL    HW2  905   1.096   0.575   1.951
  297SOL     OW  906   0.078   0.556   3.248
  297SOL    HW1  907   0.170   0.555   3.207
  297SOL    HW2  908   0.072   0.630   3.315
  298SOL     OW  909   0.561   0.222   3.009
  298SOL    HW1  910   0.599   0.138   3.046
  298SOL    HW2  911   0.473   0.241   3.053
  299SOL     OW  912   0.866   0.454   2.504
  299SOL    HW1  913   0.834   0.526   2.442
  299SOL    HW2  914   0.890   0.373   2.451
  300SOL     OW  915   1.017   0.039   2.615
  300SOL    HW1  916   0.945   0.044   2.546
  300SOL    HW2  917   0.993  -0.030   2.684
  301SOL     OW  918   1.429   1.173   2.729
  301SOL    HW1  919   1.374   1.089   2.722
  301SOL    HW2  920   1.455   1.202   2.637
  302SOL     OW  921   1.466   0.590   2.854
  302SOL    HW1  922   1.436   0.495   2.861
  302SOL    HW2  923   1.539   0.606   2.920
  303SOL     OW  924   1.857   0.833   2.239
  303SOL    HW1  925   1.899   0.769   2.303
  303SOL    HW2  926   1.819   0.782   2.161
  304SOL     OW  927   0.488   1.385   2.036
  304SOL    HW1  928   0.401   1.370   2.083
  304SOL    HW2  929   0.471   1.411   1.941
  305SOL     OW  930   1.664   1.280   2.519
  305SOL    HW1  931   1.763   1.288   2.533
  305SOL    HW2  932   1.619   1.364   2.550
  306SOL     OW  933   1.390   0.575   1.940
  306SOL    HW1  934   1.336   0.554   2.021
  306SOL    HW2  935   1.481   0.534   1.949
  307SOL     OW  936   0.527   0.256   2.190
  307SOL    HW1  937   0.554   0.197   2.115
  307SOL    HW2  938   0.527   0.351   2.159
  308SOL     OW  939   1.754   1.223   3.450
  308SOL    HW1  940   1.845   1.184   3.437
  308SOL    HW2  941   1.762   1.319   3.474
  309SOL     OW  942   1.064   1.347   3.202
  309SOL    HW1  943   0.984   1.324   3.257
  309SOL    HW2  944   1.147   1.321   3.251
  310SOL     OW  945   1.592   1.629   3.487
  310SOL    HW1  946   1.619   1.663   3.397
  310SOL    HW2  947   1.671   1.591   3.533
  311SOL     OW  948   1.111   1.195   2.962
  311SOL    HW1  949   1.071   1.239   3.043
  311SOL    HW2  950   1.070   1.232   2.879
  312SOL     OW  951   1.638   1.099   2.941
  312SOL    HW1  952   1.643   1.180   3.000
  312SOL    HW2  953   1.552   1.101   2.890
  313SOL     OW  954   0.915   0.089   3.264
  313SOL    HW1  955   0.940   0.069   3.169
  313SOL    HW2  956   0.987   0.145   3.306
  314SOL     OW  957   0.980   1.116   3.581
  314SOL    HW1  958   0.881   1.122   3.591
  314SOL    HW2  959   1.003   1.036   3.525
  315SOL     OW  960   0.705   1.050   2.230
  315SOL    HW1  961   0.691   1.057   2.329
  315SOL    HW2  962   0.789   0.999   2.212
  316SOL     OW  963   0.410   0.813   3.113
  316SOL    HW1  964   0.496   0.825   3.163
  316SOL    HW2  965   0.368   0.726   3.140
  317SOL     OW  966   1.274   0.386   3.124
  317SOL    HW1  967   1.295   0.460   3.188
  317SOL    HW2  968   1.185   0.403   3.081
  318SOL     OW  969   0.064   1.564   3.193
  318SOL    HW1  970   0.018   1.646   3.159
  318SOL    HW2  971   0.162   1.583   3.202
  319SOL     OW  972   0.367   1.100   2.363
  319SOL    HW1  973   0.360   1.183   2.307
  319SOL    HW2  974   0.371   1.020   2.303
  320SOL     OW  975   0.566   0.537   2.727
  320SOL    HW1  976   0.578   0.603   2.653
  320SOL    HW2  977   0.612   0.571   2.810
  321SOL     OW  978   1.252   1.348   2.250
  321SOL    HW1  979   1.302   1.425   2.290
  321SOL    HW2  980   1.157   1.350   2.282
  322SOL     OW  981   1.272   1.445   3.004
  322SOL    HW1  982   1.319   1.458   3.091
  322SOL    HW2  983   1.206   1.371   3.013
  323SOL     OW  984   1.582   0.639   2.334
  323SOL    HW1  985   1.551   0.700   2.407
  323SOL    HW2  986   1.632   0.691   2.265
  324SOL     OW  987   0.354   1.510   3.191
  324SOL    HW1  988   0.333   1.466   3.104
  324SOL    HW2  989   0.451   1.536   3.194
  325SOL     OW  990   0.402   0.751   3.460
  325SOL    HW1  991   0.470   0.806   3.413
  325SOL    HW2  992   0.442   0.663   3.487
  326SOL     OW  993   1.587   0.779   3.532
  326SOL    HW1  994   1.495   0.817   3.527
  326SOL    HW2  995   1.647   0.826   3.467
  327SOL     OW  996   1.013   0.105   3.632
  327SOL    HW1  997   1.019   0.190   3.580
  327SOL    HW2  998   1.045   0.029   3.575
  328SOL     OW  999   0.504   0.050   3.602
  328SOL    HW1 1000   0.462  -0.007   3.532
  328SOL    HW2 1001   0.438   0.119   3.634
  329SOL     OW 1002   0.573   0.870   2.891
  329SOL    HW1 1003   0.617   0.959   2.882
  329SOL    HW2 1004   0.510   0.870   2.968
  330SOL     OW 1005   1.360   0.862   2.907
  330SOL    HW1 1006   1.285   0.862   2.841
  330SOL    HW2 1007   1.397   0.770   2.916
  331SOL     OW 1008   1.209   0.525   2.137
  331SOL    HW1 1009   1.222   0.441   2.191
  331SOL    HW2 1010   1.180   0.599   2.197
  332SOL     OW 1011   0.307   0.213   3.093
  332SOL    HW1 1012   0.284   0.250   3.183
  332SOL    HW2 1013   0.277   0.118   3.087
  333SOL     OW 1014   0.037   1.310   3.144
  333SOL    HW1 1015   0.090   1.261   3.212
  333SOL    HW2 1016   0.059   1.408   3.149
  334SOL     OW 1017   0.732   0.634   2.926
  334SOL    HW1 1018   0.791   0.608   2.850
  334SOL    HW2 1019   0.704   0.730   2.915
  335SOL     OW 1020   1.728   0.935   3.716
  335SOL    HW1 1021   1.682   0.928   3.627
  335SOL    HW2 1022   1.666   0.979   3.782
  336SOL     OW 1023   0.307   0.063   2.480
  336SOL    HW1 1024   0.296   0.157   2.513
  336SOL    HW2 1025   0.302   0.000   2.557
  337SOL     OW 1026   1.622   0.367   2.236
  337SOL    HW1 1027   1.624   0.291   2.300
  337SOL    HW2 1028   1.574   0.444   2.276
  338SOL     OW 1029   1.023   0.766   2.828
  338SOL    HW1 1030   1.038   0.787   2.924
  338SOL    HW2 1031   0.993   0.671   2.819
  339SOL     OW 1032   0.980   1.573   3.562
  339SOL    HW1 1033   0.960   1.617   3.474
  339SOL    HW2 1034   1.019   1.482   3.546
  340SOL     OW 1035   1.859   1.518   3.467
  340SOL    HW1 1036   1.873   1.545   3.372
  340SOL    HW2 1037   1.942   1.540   3.520
  341SOL     OW 1038   0.350   0.898   3.666
  341SOL    HW1 1039   0.426   0.942   3.714
  341SOL    HW2 1040   0.385   0.851   3.584
  342SOL     OW 1041   1.540   0.274   1.987
  342SOL    HW1 1042   1.479   0.199   2.010
  342SOL    HW2 1043   1.562   0.326   2.070
  343SOL     OW 1044   1.303   0.838   1.904
  343SOL    HW1 1045   1.337   0.745   1.919
  343SOL    HW2 1046   1.321   0.865   1.809
  344SOL     OW 1047   1.068   1.333   2.711
  344SOL    HW1 1048   1.075   1.249   2.656
  344SOL    HW2 1049   1.130   1.402   2.675
  345SOL     OW 1050   0.319   0.810   2.811
  345SOL    HW1 1051   0.412   0.846   2.816
  345SOL    HW2 1052   0.313   0.725   2.863
  346SOL     OW 1053   0.339   0.509   2.868
  346SOL    HW1 1054   0.287   0.426   2.851
  346SOL    HW2 1055   0.416   0.514   2.804
  347SOL     OW 1056   1.138   0.380   3.540
  347SOL    HW1 1057   1.093   0.443   3.604
  347SOL    HW2 1058   1.231   0.411   3.523
  348SOL     OW 1059   1.160   0.207   3.339
  348SOL    HW1 1060   1.160   0.271   3.416
  348SOL    HW2 1061   1.188   0.255   3.256
  349SOL     OW 1062   0.008   1.326   2.062
  349SOL    HW1 1063  -0.085   1.347   2.031
  349SOL    HW2 1064   0.018   1.227   2.075
  350SOL     OW 1065   0.088   1.801   2.789
  350SOL    HW1 1066   0.046   1.715   2.762
  350SOL    HW2 1067   0.182   1.804   2.755
  351SOL     OW 1068   0.504   1.568   2.772
  351SOL    HW1 1069   0.570   1.642   2.781
  351SOL    HW2 1070   0.548   1.489   2.730
  352SOL     OW 1071   1.002   0.796   3.100
  352SOL    HW1 1072   1.043   0.764   3.186
  352SOL    HW2 1073   0.906   0.769   3.097
  353SOL     OW 1074   0.040   0.544   2.976
  353SOL    HW1 1075   0.125   0.511   2.935
  353SOL    HW2 1076   0.053   0.559   3.074
  354SOL     OW 1077   0.189   0.520   3.584
  354SOL    HW1 1078   0.248   0.480   3.514
  354SOL    HW2 1079   0.131   0.591   3.543
  355SOL     OW 1080   1.369   0.950   3.522
  355SOL    HW1 1081   1.408   1.039   3.542
  355SOL    HW2 1082   1.379   0.930   3.425
  356SOL     OW 1083   0.815   0.572   2.187
  356SOL    HW1 1084   0.822   0.483   2.141
  356SOL    HW2 1085   0.721   0.606   2.179
  357SOL     OW 1086   1.657   0.604   3.068
  357SOL    HW1 1087   1.619   0.535   3.130
  357SOL    HW2 1088   1.739   0.568   3.024
  358SOL     OW 1089   0.252   1.564   3.606
  358SOL    HW1 1090   0.222   1.621   3.682
  358SOL    HW2 1091   0.245   1.467   3.632
  359SOL     OW 1092   0.671   0.464   3.131
  359SOL    HW1 1093   0.637   0.375   3.101
  359SOL    HW2 1094   0.697   0.518   3.051
  360SOL     OW 1095   0.930   1.678   3.327
  360SOL    HW1 1096   0.906   1.660   3.232
  360SOL    HW2 1097   0.960   1.772   3.337
  361SOL     OW 1098   0.473   0.500   2.053
  361SOL    HW1 1099   0.534   0.580   2.057
  361SOL    HW2 1100   0.378   0.531   2.060
  362SOL     OW 1101   0.159   1.137   3.328
  362SOL    HW1 1102   0.181   1.076   3.404
  362SOL    HW2 1103   0.169   1.088   3.242
  363SOL     OW 1104   1.347   1.059   3.096
  363SOL    HW1 1105   1.371   0.996   3.022
  363SOL    HW2 1106   1.257   1.099   3.078
  364SOL     OW 1107   1.302   0.855   2.171
  364SOL    HW1 1108   1.216   0.824   2.213
  364SOL    HW2 1109   1.298   0.841   2.072
  365SOL     OW 1110   1.759   1.747   3.016
  365SOL    HW1 1111   1.820   1.777   2.943
  365SOL    HW2 1112   1.721   1.658   2.994
  366SOL     OW 1113   1.252   1.731   2.990
  366SOL    HW1 1114   1.336   1.736   2.936
  366SOL    HW2 1115   1.229   1.635   3.008
  367SOL     OW 1116   0.083   1.258   2.884
  367SOL    HW1 1117   0.078   1.257   2.984
  367SOL    HW2 1118   0.000   1.217   2.846
  368SOL     OW 1119   0.688   1.662   3.578
  368SOL    HW1 1120   0.632   1.743   3.587
  368SOL    HW2 1121   0.740   1.666   3.492
  369SOL     OW 1122   1.726   0.135   2.385
  369SOL    HW1 1123   1.799   0.118   2.318
  369SOL    HW2 1124   1.695   0.048   2.423
  370SOL     OW 1125   1.388   1.573   2.339
  370SOL    HW1 1126   1.455   1.585   2.265
  370SOL    HW2 1127   1.348   1.662   2.362
  371SOL     OW 1128   0.130   1.794   3.713
  371SOL    HW1 1129   0.089   1.720   3.766
  371SOL    HW2 1130   0.194   1.845   3.771
  372SOL     OW 1131   1.280   0.927   2.534
  372SOL    HW1 1132   1.340   0.846   2.536
  372SOL    HW2 1133   1.320   0.996   2.474
  373SOL     OW 1134   0.830   1.273   3.284
  373SOL    HW1 1135   0.825   1.306   3.379
  373SOL    HW2 1136   0.744   1.292   3.238
  374SOL     OW 1137   0.672   1.616   2.016
  374SOL    HW1 1138   0.681   1.626   1.917
  374SOL    HW2 1139   0.632   1.527   2.037
  375SOL     OW 1140   1.650   1.720   3.256
  375SOL    HW1 1141   1.703   1.730   3.172
  375SOL    HW2 1142   1.623   1.810   3.290
  376SOL     OW 1143   1.841   0.175   2.825
  376SOL    HW1 1144   1.880   0.090   2.789
  376SOL    HW2 1145   1.743   0.177   2.806
  377SOL     OW 1146   0.263   0.326   2.582
  377SOL    HW1 1147   0.184   0.377   2.548
  377SOL    HW2 1148   0.254   0.311   2.680
  378SOL     OW 1149   1.194   1.612   1.893
  378SOL    HW1 1150   1.200   1.519   1.930
  378SOL    HW2 1151   1.135   1.612   1.813
  379SOL     OW 1152   0.822   1.002   3.234
  379SOL    HW1 1153   0.862   1.001   3.142
  379SOL    HW2 1154   0.832   1.094   3.274
  380SOL     OW 1155   0.916   0.910   2.153
  380SOL    HW1 1156   0.979   0.948   2.085
  380SOL    HW2 1157   0.956   0.827   2.192
  381SOL     OW 1158   1.504   1.607   1.906
  381SOL    HW1 1159   1.412   1.644   1.913
  381SOL    HW2 1160   1.542   1.627   1.816
  382SOL     OW 1161   0.372   1.288   3.352
  382SOL    HW1 1162   0.359   1.381   3.318
  382SOL    HW2 1163   0.288   1.236   3.339
  383SOL     OW 1164   1.614   1.292   3.151
  383SOL    HW1 1165   1.674   1.295   3.231
  383SOL    HW2 1166   1.539   1.356   3.164
  384SOL     OW 1167   1.039   1.098   2.558
  384SOL    HW1 1168   0.969   1.051   2.612
  384SOL    HW2 1169   1.098   1.030   2.515
  385SOL     OW 1170   1.014   0.236   2.833
  385SOL    HW1 1171   1.006   0.200   2.740
  385SOL    HW2 1172   1.012   0.160   2.898
  386SOL     OW 1173   0.590   1.487   2.353
  386SOL    HW1 1174   0.632   1.429   2.283
  386SOL    HW2 1175   0.546   1.566   2.309
  387SOL     OW 1176   1.709   0.385   3.243
  387SOL    HW1 1177   1.782   0.454   3.247
  387SOL    HW2 1178   1.737   0.310   3.184
  388SOL     OW 1179   0.255   1.348   2.152
  388SOL    HW1 1180   0.159   1.349   2.125
  388SOL    HW2 1181   0.267   1.401   2.236
  389SOL     OW 1182   0.105   1.013   3.588
  389SOL    HW1 1183   0.028   0.980   3.642
  389SOL    HW2 1184   0.190   0.983   3.630
  390SOL     OW 1185   0.672   0.203   3.351
  390SOL    HW1 1186   0.762   0.187   3.311
  390SOL    HW2 1187   0.680   0.208   3.450
  391SOL     OW 1188   0.075   0.345   1.895
  391SOL    HW1 1189  -0.017   0.317   1.866
  391SOL    HW2 1190   0.106   0.422   1.839
  392SOL     OW 1191   1.440   0.856   3.260
  392SOL    HW1 1192   1.383   0.908   3.197
  392SOL    HW2 1193   1.536   0.868   3.236
  393SOL     OW 1194   0.072   0.166   2.180
  393SOL    HW1 1195   0.055   0.249   2.126
  393SOL    HW2 1196   0.162   0.129   2.158
  394SOL     OW 1197   1.183   1.335   1.981
  394SOL    HW1 1198   1.084   1.324   1.983
  394SOL    HW2 1199   1.217   1.350   2.074
  395SOL     OW 1200   0.613   0.842   3.293
  395SOL    HW1 1201   0.669   0.923   3.276
  395SOL    HW2 1202   0.672   0.762   3.296
  396SOL     OW 1203   1.493   1.767   2.821
  396SOL    HW1 1204   1.526   1.831   2.752
  396SOL    HW2 1205   1.559   1.761   2.896
  397SOL     OW 1206   0.716   0.565   3.570
  397SOL    HW1 1207   0.735   0.630   3.644
  397SOL    HW2 1208   0.776   0.485   3.579
  398SOL     OW 1209   1.450   1.220   3.495
  398SOL    HW1 1210   1.441   1.210   3.594
  398SOL    HW2 1211   1.546   1.213   3.469
  399SOL     OW 1212   0.390   1.741   3.422
  399SOL    HW1 1213   0.299   1.782   3.420
  399SOL    HW2 1214   0.383   1.647   3.454
  400SOL     OW 1215   1.674   0.883   3.116
  400SOL    HW1 1216   1.647   0.794   3.079
  400SOL    HW2 1217   1.675   0.951   3.043
  401SOL     OW 1218   1.225   0.325   2.311
  401SOL    HW1 1219   1.290   0.251   2.300
  401SOL    HW2 1220   1.245   0.375   2.395
  402SOL     OW 1221   0.594   0.745   2.514
  402SOL    HW1 1222   0.644   0.830   2.495
  402SOL    HW2 1223   0.506   0.747   2.466
  403SOL     OW 1224   1.777   0.342   3.504
  403SOL    HW1 1225   1.760   0.373   3.410
  403SOL    HW2 1226   1.693   0.305   3.542
  404SOL     OW 1227   1.730   0.934   3.379
  404SOL    HW1 1228   1.768   1.025   3.394
  404SOL    HW2 1229   1.722   0.917   3.280
  405SOL     OW 1230   0.859   1.374   1.878
  405SOL    HW1 1231   0.813   1.389   1.966
  405SOL    HW2 1232   0.903   1.459   1.848
  406SOL     OW 1233   0.661   1.790   2.815
  406SOL    HW1 1234   0.615   1.878   2.802
  406SOL    HW2 1235   0.760   1.802   2.808
  407SOL     OW 1236   0.859   0.956   2.723
  407SOL    HW1 1237   0.913   0.887   2.771
  407SOL    HW2 1238   0.827   1.025   2.789
  408SOL     OW 1239   1.083   0.984   1.949
  408SOL    HW1 1240   1.060   1.037   1.867
  408SOL    HW2 1241   1.164   0.928   1.930
  409SOL     OW 1242   1.861   1.569   2.713
  409SOL    HW1 1243   1.790   1.557   2.643
  409SOL    HW2 1244   1.862   1.490   2.773
  410SOL     OW 1245   0.221   1.314   3.706
  410SOL    HW1 1246   0.156   1.241   3.685
  410SOL    HW2 1247   0.225   1.328   3.804
  411SOL     OW 1248   0.079   1.240   2.515
  411SOL    HW1 1249   0.078   1.193   2.603
  411SOL    HW2 1250   0.161   1.212   2.464
  412SOL     OW 1251   0.672   1.391   3.486
  412SOL    HW1 1252   0.594   1.341   3.524
  412SOL    HW2 1253   0.669   1.486   3.517
  413SOL     OW 1254   1.824   0.192   3.089
  413SOL    HW1 1255   1.820   0.102   3.133
  413SOL    HW2 1256   1.827   0.181   2.990
  414SOL     OW 1257   0.428   0.424   2.382
  414SOL    HW1 1258   0.458   0.352   2.320
  414SOL    HW2 1259   0.389   0.384   2.465
  415SOL     OW 1260   1.705   1.487   2.966
  415SOL    HW1 1261   1.612   1.462   2.939
  415SOL    HW2 1262   1.731   1.437   3.048
  416SOL     OW 1263   0.317   0.547   3.142
  416SOL    HW1 1264   0.355   0.488   3.214
  416SOL    HW2 1265   0.357   0.521   3.054
  417SOL     OW 1266   0.812   1.586   2.549
  417SOL    HW1 1267   0.844   1.596   2.455
  417SOL    HW2 1268   0.733   1.524   2.551
  418SOL     OW 1269   1.424   0.214   2.974
  418SOL    HW1 1270   1.476   0.149   3.029
  418SOL    HW2 1271   1.375   0.277   3.035
  419SOL     OW 1272   1.001   0.034   3.016
  419SOL    HW1 1273   0.938  -0.038   2.985
  419SOL    HW2 1274   1.094  -0.002   3.016
  420SOL     OW 1275   0.770   1.330   2.163
  420SOL    HW1 1276   0.724   1.243   2.180
  420SOL    HW2 1277   0.861   1.327   2.204
  421SOL     OW 1278   0.618   1.567   3.146
  421SOL    HW1 1279   0.613   1.649   3.203
  421SOL    HW2 1280   0.707   1.564   3.101
  422SOL     OW 1281   1.352   0.052   2.030
  422SOL    HW1 1282   1.387   0.011   1.946
  422SOL    HW2 1283   1.262   0.014   2.050
  423SOL     OW 1284   1.300   0.453   2.553
  423SOL    HW1 1285   1.241   0.533   2.557
  423SOL    HW2 1286   1.315   0.418   2.646
  424SOL     OW 1287   1.593   0.221   2.744
  424SOL    HW1 1288   1.509   0.220   2.798
  424SOL    HW2 1289   1.595   0.304   2.688
  425SOL     OW 1290   0.039   1.077   2.162
  425SOL    HW1 1291   0.138   1.066   2.153
  425SOL    HW2 1292  -0.001   0.991   2.194
  426SOL     OW 1293   0.875   1.646   2.199
  426SOL    HW1 1294   0.798   1.611   2.145
  426SOL    HW2 1295   0.843   1.717   2.261
  427SOL     OW 1296   0.230   0.628   3.837
  427SOL    HW1 1297   0.137   0.626   3.874
  427SOL    HW2 1298   0.231   0.589   3.745
  428SOL     OW 1299   0.225   0.275   4.720
  428SOL    HW1 1300   0.260   0.258   4.812
  428SOL    HW2 1301   0.137   0.230   4.708
  429SOL     OW 1302   0.019   0.368   4.371
  429SOL    HW1 1303  -0.063   0.411   4.410
  429SOL    HW2 1304  -0.009   0.295   4.308
  430SOL     OW 1305   1.555   1.511   4.427
  430SOL    HW1 1306   1.498   1.495   4.508
  430SOL    HW2 1307   1.496   1.521   4.347
  431SOL     OW 1308   1.135   0.703   4.441
  431SOL    HW1 1309   1.192   0.781   4.416
  431SOL    HW2 1310   1.075   0.729   4.517
  432SOL     OW 1311   1.755   0.607   3.955
  432SOL    HW1 1312   1.743   0.594   3.856
  432SOL    HW2 1313   1.725   0.526   4.004
  433SOL     OW 1314   0.768   1.144   4.747
  433SOL    HW1 1315   0.690   1.161   4.807
  433SOL    HW2 1316   0.802   1.231   4.711
  434SOL     OW 1317   0.685   1.012   4.389
  434SOL    HW1 1318   0.754   0.996   4.459
  434SOL    HW2 1319   0.612   1.069   4.427
  435SOL     OW 1320   0.335   1.435   4.785
  435SOL    HW1 1321   0.257   1.404   4.732
  435SOL    HW2 1322   0.393   1.493   4.728
  436SOL     OW 1323   1.603   0.447   4.461
  436SOL    HW1 1324   1.529   0.493   4.411
  436SOL    HW2 1325   1.654   0.515   4.514
  437SOL     OW 1326   0.231   1.713   4.207
  437SOL    HW1 1327   0.265   1.790   4.261
  437SOL    HW2 1328   0.275   1.713   4.117
  438SOL     OW 1329   0.230   1.434   4.262
  438SOL    HW1 1330   0.204   1.530   4.262
  438SOL    HW2 1331   0.159   1.380   4.307
  439SOL     OW 1332   0.240   1.091   4.610
  439SOL    HW1 1333   0.254   1.007   4.662
  439SOL    HW2 1334   0.185   1.155   4.665
  440SOL     OW 1335   0.606   0.964   3.847
  440SOL    HW1 1336   0.613   1.048   3.793
  440SOL    HW2 1337   0.652   0.977   3.935
  441SOL     OW 1338   0.122   0.643   4.287
  441SOL    HW1 1339   0.077   0.555   4.304
  441SOL    HW2 1340   0.121   0.697   4.371
  442SOL     OW 1341   1.842   1.767   4.083
  442SOL    HW1 1342   1.896   1.738   4.163
  442SOL    HW2 1343   1.872   1.857   4.054
  443SOL     OW 1344   0.027   1.596   3.841
  443SOL    HW1 1345   0.008   1.500   3.862
  443SOL    HW2 1346  -0.006   1.654   3.916
  444SOL     OW 1347   1.689   0.922   4.336
  444SOL    HW1 1348   1.784   0.893   4.344
  444SOL    HW2 1349   1.681   0.987   4.261
  445SOL     OW 1350   1.641   1.108   4.156
  445SOL    HW1 1351   1.727   1.110   4.104
  445SOL    HW2 1352   1.655   1.155   4.244
  446SOL     OW 1353   0.613   1.365   4.450
  446SOL    HW1 1354   0.564   1.278   4.459
  446SOL    HW2 1355   0.590   1.408   4.363
  447SOL     OW 1356   0.809   0.004   4.226
  447SOL    HW1 1357   0.849   0.095   4.217
  447SOL    HW2 1358   0.709   0.012   4.232
  448SOL     OW 1359   0.197   0.976   4.988
  448SOL    HW1 1360   0.286   0.931   4.974
  448SOL    HW2 1361   0.124   0.911   4.969
  449SOL     OW 1362   1.525   0.999   3.914
  449SOL    HW1 1363   1.462   0.923   3.927
  449SOL    HW2 1364   1.573   1.017   4.000
  450SOL     OW 1365   1.466   1.417   4.677
  450SOL    HW1 1366   1.407   1.423   4.757
  450SOL    HW2 1367   1.451   1.329   4.631
  451SOL     OW 1368   1.667   1.714   4.296
  451SOL    HW1 1369   1.626   1.691   4.208
  451SOL    HW2 1370   1.649   1.640   4.361
  452SOL     OW 1371   0.598   0.729   3.994
  452SOL    HW1 1372   0.622   0.798   3.926
  452SOL    HW2 1373   0.520   0.762   4.048
  453SOL     OW 1374   1.281   0.345   4.668
  453SOL    HW1 1375   1.195   0.295   4.655
  453SOL    HW2 1376   1.343   0.291   4.724
  454SOL     OW 1377   1.576   1.662   4.031
  454SOL    HW1 1378   1.665   1.708   4.034
  454SOL    HW2 1379   1.555   1.638   3.936
  455SOL     OW 1380   1.041   0.701   4.153
  455SOL    HW1 1381   1.067   0.697   4.249
  455SOL    HW2 1382   0.956   0.650   4.139
  456SOL     OW 1383   0.076   0.811   4.513
  456SOL    HW1 1384   0.175   0.799   4.522
  456SOL    HW2 1385   0.052   0.906   4.534
  457SOL     OW 1386   0.865   0.348   3.919
  457SOL    HW1 1387   0.924   0.411   3.870
  457SOL    HW2 1388   0.884   0.254   3.890
  458SOL     OW 1389   1.362   1.144   4.269
  458SOL    HW1 1390   1.445   1.115   4.221
  458SOL    HW2 1391   1.313   1.211   4.213
  459SOL     OW 1392   0.550   0.196   4.609
  459SOL    HW1 1393   0.545   0.191   4.709
  459SOL    HW2 1394   0.552   0.292   4.580
  460SOL     OW 1395   1.008   1.456   4.201
  460SOL    HW1 1396   0.962   1.528   4.149
  460SOL    HW2 1397   1.004   1.476   4.299
  461SOL     OW 1398   0.351   1.801   4.577
  461SOL    HW1 1399   0.401   1.715   4.583
  461SOL    HW2 1400   0.416   1.878   4.574
  462SOL     OW 1401   1.795   1.066   4.597
  462SOL    HW1 1402   1.733   1.051   4.521
  462SOL    HW2 1403   1.743   1.077   4.682
  463SOL     OW 1404   0.321   0.943   3.966
  463SOL    HW1 1405   0.403   0.982   3.924
  463SOL    HW2 1406   0.294   0.861   3.917
  464SOL     OW 1407   1.458   0.735   4.452
  464SOL    HW1 1408   1.453   0.670   4.527
  464SOL    HW2 1409   1.538   0.794   4.465
  465SOL     OW 1410   1.111   1.776   3.961
  465SOL    HW1 1411   1.051   1.714   4.011
  465SOL    HW2 1412   1.142   1.732   3.876
  466SOL     OW 1413   1.632   1.377   3.805
  466SOL    HW1 1414   1.600   1.471   3.795
  466SOL    HW2 1415   1.556   1.314   3.793
  467SOL     OW 1416   0.464   1.743   4.047
  467SOL    HW1 1417   0.497   1.782   4.133
  467SOL    HW2 1418   0.540   1.736   3.982
  468SOL     OW 1419   1.400   0.107   4.150
  468SOL    HW1 1420   1.376   0.070   4.060
  468SOL    HW2 1421   1.499   0.123   4.154
  469SOL     OW 1422   0.249   1.785   4.965
  469SOL    HW1 1423   0.306   1.720   5.015
  469SOL    HW2 1424   0.233   1.752   4.872
  470SOL     OW 1425   0.940   1.698   4.628
  470SOL    HW1 1426   1.020   1.641   4.649
  470SOL    HW2 1427   0.891   1.658   4.551
  471SOL     OW 1428   0.382   0.700   4.204
  471SOL    HW1 1429   0.427   0.610   4.201
  471SOL    HW2 1430   0.288   0.689   4.237
  472SOL     OW 1431   0.614   0.122   3.841
  472SOL    HW1 1432   0.712   0.100   3.848
  472SOL    HW2 1433   0.583   0.105   3.748
  473SOL     OW 1434   0.803   1.402   4.648
  473SOL    HW1 1435   0.893   1.416   4.606
  473SOL    HW2 1436   0.732   1.404   4.577
  474SOL     OW 1437   0.922   0.503   4.623
  474SOL    HW1 1438   0.897   0.494   4.527
  474SOL    HW2 1439   0.970   0.421   4.654
  475SOL     OW 1440   0.539   0.064   4.236
  475SOL    HW1 1441   0.458   0.065   4.294
  475SOL    HW2 1442   0.542   0.147   4.181
  476SOL     OW 1443   1.434   1.188   3.765
  476SOL    HW1 1444   1.466   1.112   3.822
  476SOL    HW2 1445   1.342   1.215   3.795
  477SOL     OW 1446   0.297   0.035   3.895
  477SOL    HW1 1447   0.346   0.119   3.874
  477SOL    HW2 1448   0.359  -0.030   3.940
  478SOL     OW 1449   0.935   0.236   4.204
  478SOL    HW1 1450   0.887   0.277   4.126
  478SOL    HW2 1451   1.034   0.234   4.185
  479SOL     OW 1452   1.227   1.570   4.517
  479SOL    HW1 1453   1.248   1.644   4.452
  479SOL    HW2 1454   1.295   1.570   4.590
  480SOL     OW 1455   0.459   1.152   4.465
  480SOL    HW1 1456   0.388   1.125   4.530
  480SOL    HW2 1457   0.433   1.124   4.372
  481SOL     OW 1458   1.271   1.797   4.315
  481SOL    HW1 1459   1.315   1.861   4.251
  481SOL    HW2 1460   1.221   1.849   4.385
  482SOL     OW 1461   1.032   0.549   3.740
  482SOL    HW1 1462   0.991   0.631   3.701
  482SOL    HW2 1463   1.096   0.575   3.813
  483SOL     OW 1464   0.866   0.454   4.366
  483SOL    HW1 1465   0.834   0.526   4.304
  483SOL    HW2 1466   0.890   0.373   4.313
  484SOL     OW 1467   1.017   0.039   4.477
  484SOL    HW1 1468   0.945   0.044   4.408
  484SOL    HW2 1469   0.993  -0.030   4.546
  485SOL     OW 1470   1.429   1.173   4.591
  485SOL    HW1 1471   1.374   1.089   4.584
  485SOL    HW2 1472   1.455   1.202   4.499
  486SOL     OW 1473   1.466   0.590   4.716
  486SOL    HW1 1474   1.436   0.495   4.723
  486SOL    HW2 1475   1.539   0.606   4.782
  487SOL     OW 1476   1.857   0.833   4.101
  487SOL    HW1 1477   1.899   0.769   4.165
  487SOL    HW2 1478   1.819   0.782   4.023
  488SOL     OW 1479   0.488   1.385   3.898
  488SOL    HW1 1480   0.401   1.370   3.945
  488SOL    HW2 1481   0.471   1.411   3.803
  489SOL     OW 1482   1.664   1.280   4.381
  489SOL    HW1 1483   1.763   1.288   4.395
  489SOL    HW2 1484   1.619   1.364   4.412
  490SOL     OW 1485   1.390   0.575   3.802
  490SOL    HW1 1486   1.336   0.554   3.883
  490SOL    HW2 1487   1.481   0.534   3.811
  491SOL     OW 1488   0.527   0.256   4.052
  491SOL    HW1 1489   0.554   0.197   3.977
  491SOL    HW2 1490   0.527   0.351   4.021
  492SOL     OW 1491   1.111   1.195   4.824
  492SOL    HW1 1492   1.071   1.239   4.905
  492SOL    HW2 1493   1.070   1.232   4.741
  493SOL     OW 1494   1.638   1.099   4.803
  493SOL    HW1 1495   1.643   1.180   4.862
  493SOL    HW2 1496   1.552   1.101   4.752
  494SOL     OW 1497   0.705   1.050   4.092
  494SOL    HW1 1498   0.691   1.057   4.191
  494SOL    HW2 1499   0.789   0.999   4.074
  495SOL     OW 1500   0.410   0.813   4.975
  495SOL    HW1 1501   0.496   0.825   5.025
  495SOL    HW2 1502   0.368   0.726   5.002
  496SOL     OW 1503   0.367   1.100   4.225
  496SOL    HW1 1504   0.360   1.183   4.169
  496SOL    HW2 1505   0.371   1.020   4.165
  497SOL     OW 1506   0.566   0.537   4.589
  497SOL    HW1 1507   0.578   0.603   4.515
  497SOL    HW2 1508   0.612   0.571   4.672
  498SOL     OW 1509   1.252   1.348   4.112
  498SOL    HW1 1510   1.302   1.425   4.152
  498SOL    HW2 1511   1.157   1.350   4.144
  499SOL     OW 1512   1.272   1.445   4.866
  499SOL    HW1 1513   1.319   1.458   4.953
  499SOL    HW2 1514   1.206   1.371   4.875
  500SOL     OW 1515   1.582   0.639   4.196
  500SOL    HW1 1516   1.551   0.700   4.269
  500SOL    HW2 1517   1.632   0.691   4.127
  501SOL     OW 1518   0.354   1.510   5.053
  501SOL    HW1 1519   0.333   1.466   4.966
  501SOL    HW2 1520   0.451   1.536   5.056
  502SOL     OW 1521   0.573   0.870   4.753
  502SOL    HW1 1522   0.617   0.959   4.744
  502SOL    HW2 1523   0.510   0.870   4.830
  503SOL     OW 1524   1.209   0.525   3.999
  503SOL    HW1 1525   1.222   0.441   4.053
  503SOL    HW2 1526   1.180   0.599   4.059
  504SOL     OW 1527   0.732   0.634   4.788
  504SOL    HW1 1528   0.791   0.608   4.712
  504SOL    HW2 1529   0.704   0.730   4.777
  505SOL     OW 1530   0.307   0.063   4.342
  505SOL    HW1 1531   0.296   0.157   4.375
  505SOL    HW2 1532   0.302   0.000   4.419
  506SOL     OW 1533   1.622   0.367   4.098
  506SOL    HW1 1534   1.624   0.291   4.162
  506SOL    HW2 1535   1.574   0.444   4.138
  507SOL     OW 1536   1.023   0.766   4.690
  507SOL    HW1 1537   1.038   0.787   4.786
  507SOL    HW2 1538   0.993   0.671   4.681
  508SOL     OW 1539   1.540   0.274   3.849
  508SOL    HW1 1540   1.479   0.199   3.872
  508SOL    HW2 1541   1.562   0.326   3.932
  509SOL     OW 1542   1.303   0.838   3.766
  509SOL    HW1 1543   1.337   0.745   3.781
  509SOL    HW2 1544   1.321   0.865   3.671
  510SOL     OW 1545   1.068   1.333   4.573
  510SOL    HW1 1546   1.075   1.249   4.518
  510SOL    HW2 1547   1.130   1.402   4.537
  511SOL     OW 1548   0.319   0.810   4.673
  511SOL    HW1 1549   0.412   0.846   4.678
  511SOL    HW2 1550   0.313   0.725   4.725
  512SOL     OW 1551   0.339   0.509   4.730
  512SOL    HW1 1552   0.287   0.426   4.713
  512SOL    HW2 1553   0.416   0.514   4.666
  513SOL     OW 1554   0.008   1.326   3.924
  513SOL    HW1 1555  -0.085   1.347   3.893
  513SOL    HW2 1556   0.018   1.227   3.937
  514SOL     OW 1557   0.088   1.801   4.651
  514SOL    HW1 1558   0.046   1.715   4.624
  514SOL    HW2 1559   0.182   1.804   4.617
  515SOL     OW 1560   0.504   1.568   4.634
  515SOL    HW1 1561   0.570   1.642   4.643
  515SOL    HW2 1562   0.548   1.489   4.592
  516SOL     OW 1563   1.002   0.796   4.962
  516SOL    HW1 1564   1.043   0.764   5.048
  516SOL    HW2 1565   0.906   0.769   4.959
  517SOL     OW 1566   0.815   0.572   4.049
  517SOL    HW1 1567   0.822   0.483   4.003
  517SOL    HW2 1568   0.721   0.606   4.041
  518SOL     OW 1569   0.671   0.464   4.993
  518SOL    HW1 1570   0.637   0.375   4.963
  518SOL    HW2 1571   0.697   0.518   4.913
  519SOL     OW 1572   0.473   0.500   3.915
  519SOL    HW1 1573   0.534   0.580   3.919
  519SOL    HW2 1574   0.378   0.531   3.922
  520SOL     OW 1575   1.302   0.855   4.033
  520SOL    HW1 1576   1.216   0.824   4.075
  520SOL    HW2 1577   1.298   0.841   3.934
  521SOL     OW 1578   1.759   1.747   4.878
  521SOL    HW1 1579   1.820   1.777   4.805
  521SOL    HW2 1580   1.721   1.658   4.856
  522SOL     OW 1581   0.083   1.258   4.746
  522SOL    HW1 1582   0.078   1.257   4.846
  522SOL    HW2 1583   0.000   1.217   4.708
  523SOL     OW 1584   1.726   0.135   4.247
  523SOL    HW1 1585   1.799   0.118   4.180
  523SOL    HW2 1586   1.695   0.048   4.285
  524SOL     OW 1587   1.388   1.573   4.201
  524SOL    HW1 1588   1.455   1.585   4.127
  524SOL    HW2 1589   1.348   1.662   4.224
  525SOL     OW 1590   1.280   0.927   4.396
  525SOL    HW1 1591   1.340   0.846   4.398
  525SOL    HW2 1592   1.320   0.996   4.336
  526SOL     OW 1593   0.672   1.616   3.878
  526SOL    HW1 1594   0.681   1.626   3.779
  526SOL    HW2 1595   0.632   1.527   3.899
  527SOL     OW 1596   1.841   0.175   4.687
  527SOL    HW1 1597   1.880   0.090   4.651
  527SOL    HW2 1598   1.743   0.177   4.668
  528SOL     OW 1599   0.263   0.326   4.444
  528SOL    HW1 1600   0.184   0.377   4.410
  528SOL    HW2 1601   0.254   0.311   4.542
  529SOL     OW 1602   1.194   1.612   3.755
  529SOL    HW1 1603   1.200   1.519   3.792
  529SOL    HW2 1604   1.135   1.612   3.675
  530SOL     OW 1605   0.822   1.002   5.096
  530SOL    HW1 1606   0.862   1.001   5.004
  530SOL    HW2 1607   0.832   1.094   5.136
  531SOL     OW 1608   0.916   0.910   4.015
  531SOL    HW1 1609   0.979   0.948   3.947
  531SOL    HW2 1610   0.956   0.827   4.054
  532SOL     OW 1611   1.504   1.607   3.768
  532SOL    HW1 1612   1.412   1.644   3.775
  532SOL    HW2 1613   1.542   1.627   3.678
  533SOL     OW 1614   1.039   1.098   4.420
  533SOL    HW1 1615   0.969   1.051   4.474
  533SOL    HW2 1616   1.098   1.030   4.377
  534SOL     OW 1617   1.014   0.236   4.695
  534SOL    HW1 1618   1.006   0.200   4.602
  534SOL    HW2 1619   1.012   0.160   4.760
  535SOL     OW 1620   0.590   1.487   4.215
  535SOL    HW1 1621   0.632   1.429   4.145
  535SOL    HW2 1622   0.546   1.566   4.171
  536SOL     OW 1623   0.255   1.348   4.014
  536SOL    HW1 1624   0.159   1.349   3.987
  536SOL    HW2 1625   0.267   1.401   4.098
  537SOL     OW 1626   0.075   0.345   3.757
  537SOL    HW1 1627  -0.017   0.317   3.728
  537SOL    HW2 1628   0.106   0.422   3.701
  538SOL     OW 1629   0.072   0.166   4.042
  538SOL    HW1 1630   0.055   0.249   3.988
  538SOL    HW2 1631   0.162   0.129   4.020
  539SOL     OW 1632   1.183   1.335   3.843
  539SOL    HW1 1633   1.084   1.324   3.845
  539SOL    HW2 1634   1.217   1.350   3.936
  540SOL     OW 1635   1.493   1.767   4.683
  540SOL    HW1 1636   1.526   1.831   4.614
  540SOL    HW2 1637   1.559   1.761   4.758
  541SOL     OW 1638   1.674   0.883   4.978
  541SOL    HW1 1639   1.647   0.794   4.941
  541SOL    HW2 1640   1.675   0.951   4.905
  542SOL     OW 1641   1.225   0.325   4.173
  542SOL    HW1 1642   1.290   0.251   4.162
  542SOL    HW2 1643   1.245   0.375   4.257
  543SOL     OW 1644   0.594   0.745   4.376
  543SOL    HW1 1645   0.644   0.830   4.357
  543SOL    HW2 1646   0.506   0.747   4.328
  544SOL     OW 1647   0.859   1.374   3.740
  544SOL    HW1 1648   0.813   1.389   3.828
  544SOL    HW2 1649   0.903   1.459   3.710
  545SOL     OW 1650   0.661   1.790   4.677
  545SOL    HW1 1651   0.615   1.878   4.664
  545SOL    HW2 1652   0.760   1.802   4.670
  546SOL     OW 1653   0.859   0.956   4.585
  546SOL    HW1 1654   0.913   0.887   4.633
  546SOL    HW2 1655   0.827   1.025   4.651
  547SOL     OW 1656   1.083   0.984   3.811
  547SOL    HW1 1657   1.060   1.037   3.729
  547SOL    HW2 1658   1.164   0.928   3.792
  548SOL     OW 1659   1.861   1.569   4.575
  548SOL    HW1 1660   1.790   1.557   4.505
  548SOL    HW2 1661   1.862   1.490   4.635
  549SOL     OW 1662   0.079   1.240   4.377
  549SOL    HW1 1663   0.078   1.193   4.465
  549SOL    HW2 1664   0.161   1.212   4.326
  550SOL     OW 1665   1.824   0.192   4.951
  550SOL    HW1 1666   1.820   0.102   4.995
  550SOL    HW2 1667   1.827   0.181   4.852
  551SOL     OW 1668   0.428   0.424   4.244
  551SOL    HW1 1669   0.458   0.352   4.182
  551SOL    HW2 1670   0.389   0.384   4.327
  552SOL     OW 1671   0.812   1.586   4.411
  552SOL    HW1 1672   0.844   1.596   4.317
  552SOL    HW2 1673   0.733   1.524   4.413
  553SOL     OW 1674   1.424   0.214   4.836
  553SOL    HW1 1675   1.476   0.149   4.891
  553SOL    HW2 1676   1.375   0.277   4.897
  554SOL     OW 1677   0.770   1.330   4.025
  554SOL    HW1 1678   0.724   1.243   4.042
  554SOL    HW2 1679   0.861   1.327   4.066
  555SOL     OW 1680   1.352   0.052   3.892
  555SOL    HW1 1681   1.387   0.011   3.808
  555SOL    HW2 1682   1.262   0.014   3.912
  556SOL     OW 1683   1.300   0.453   4.415
  556SOL    HW1 1684   1.241   0.533   4.419
  556SOL    HW2 1685   1.315   0.418   4.508
  557SOL     OW 1686   1.593   0.221   4.606
  557SOL    HW1 1687   1.509   0.220   4.660
  557SOL    HW2 1688   1.595   0.304   4.550
  558SOL     OW 1689   0.039   1.077   4.024
  558SOL    HW1 1690   0.138   1.066   4.015
  558SOL    HW2 1691  -0.001   0.991   4.056
  559SOL     OW 1692   0.875   1.646   4.061
  559SOL    HW1 1693   0.798   1.611   4.007
  559SOL    HW2 1694   0.843   1.717   4.123
  560SOL     OW 1695   0.230   2.490   0.113
  560SOL    HW1 1696   0.137   2.488   0.150
  560SOL    HW2 1697   0.231   2.451   0.021
  561SOL     OW 1698   0.225   2.137   0.996
  561SOL    HW1 1699   0.260   2.120   1.088
  561SOL    HW2 1700   0.137   2.092   0.984
  562SOL     OW 1701   0.019   2.230   0.647
  562SOL    HW1 1702  -0.063   2.273   0.686
  562SOL    HW2 1703  -0.009   2.157   0.584
  563SOL     OW 1704   0.569   3.137   1.165
  563SOL    HW1 1705   0.476   3.130   1.128
  563SOL    HW2 1706   0.580   3.226   1.209
  564SOL     OW 1707   1.555   3.373   0.703
  564SOL    HW1 1708   1.498   3.357   0.784
  564SOL    HW2 1709   1.496   3.383   0.623
  565SOL     OW 1710   1.135   2.565   0.717
  565SOL    HW1 1711   1.192   2.643   0.692
  565SOL    HW2 1712   1.075   2.591   0.793
  566SOL     OW 1713   1.755   2.469   0.231
  566SOL    HW1 1714   1.743   2.456   0.132
  566SOL    HW2 1715   1.725   2.388   0.280
  567SOL     OW 1716   0.768   3.006   1.023
  567SOL    HW1 1717   0.690   3.023   1.083
  567SOL    HW2 1718   0.802   3.093   0.987
  568SOL     OW 1719   0.850   2.660   1.823
  568SOL    HW1 1720   0.846   2.736   1.888
  568SOL    HW2 1721   0.872   2.696   1.732
  569SOL     OW 1722   0.685   2.874   0.665
  569SOL    HW1 1723   0.754   2.858   0.735
  569SOL    HW2 1724   0.612   2.931   0.703
  570SOL     OW 1725   0.686   3.023   1.803
  570SOL    HW1 1726   0.746   3.102   1.817
  570SOL    HW2 1727   0.600   3.054   1.762
  571SOL     OW 1728   0.335   3.297   1.061
  571SOL    HW1 1729   0.257   3.266   1.008
  571SOL    HW2 1730   0.393   3.355   1.004
  572SOL     OW 1731   1.460   3.367   1.339
  572SOL    HW1 1732   1.484   3.461   1.365
  572SOL    HW2 1733   1.444   3.313   1.421
  573SOL     OW 1734   0.438   2.254   1.499
  573SOL    HW1 1735   0.520   2.198   1.508
  573SOL    HW2 1736   0.357   2.196   1.503
  574SOL     OW 1737   1.603   2.309   0.737
  574SOL    HW1 1738   1.529   2.355   0.687
  574SOL    HW2 1739   1.654   2.377   0.790
  575SOL     OW 1740   0.231   3.575   0.483
  575SOL    HW1 1741   0.265   3.652   0.537
  575SOL    HW2 1742   0.275   3.575   0.393
  576SOL     OW 1743   1.127   3.203   1.690
  576SOL    HW1 1744   1.174   3.203   1.778
  576SOL    HW2 1745   1.079   3.116   1.679
  577SOL     OW 1746   0.230   3.296   0.538
  577SOL    HW1 1747   0.204   3.392   0.538
  577SOL    HW2 1748   0.159   3.242   0.583
  578SOL     OW 1749   0.240   2.953   0.886
  578SOL    HW1 1750   0.254   2.869   0.938
  578SOL    HW2 1751   0.185   3.017   0.941
  579SOL     OW 1752   0.620   3.648   1.439
  579SOL    HW1 1753   0.528   3.631   1.474
  579SOL    HW2 1754   0.648   3.740   1.465
  580SOL     OW 1755   0.606   2.826   0.123
  580SOL    HW1 1756   0.613   2.910   0.069
  580SOL    HW2 1757   0.652   2.839   0.211
  581SOL     OW 1758   1.594   1.976   1.480
  581SOL    HW1 1759   1.576   2.043   1.408
  581SOL    HW2 1760   1.591   2.022   1.569
  582SOL     OW 1761   0.122   2.505   0.563
  582SOL    HW1 1762   0.077   2.417   0.580
  582SOL    HW2 1763   0.121   2.559   0.647
  583SOL     OW 1764   1.842   3.629   0.359
  583SOL    HW1 1765   1.896   3.600   0.439
  583SOL    HW2 1766   1.872   3.719   0.330
  584SOL     OW 1767   0.027   3.458   0.117
  584SOL    HW1 1768   0.008   3.362   0.138
  584SOL    HW2 1769  -0.006   3.516   0.192
  585SOL     OW 1770   1.689   2.784   0.612
  585SOL    HW1 1771   1.784   2.755   0.620
  585SOL    HW2 1772   1.681   2.849   0.537
  586SOL     OW 1773   1.641   2.970   0.432
  586SOL    HW1 1774   1.727   2.972   0.380
  586SOL    HW2 1775   1.655   3.017   0.520
  587SOL     OW 1776   0.113   2.599   1.597
  587SOL    HW1 1777   0.201   2.586   1.642
  587SOL    HW2 1778   0.100   2.696   1.575
  588SOL     OW 1779   0.613   3.227   0.726
  588SOL    HW1 1780   0.564   3.140   0.735
  588SOL    HW2 1781   0.590   3.270   0.639
  589SOL     OW 1782   1.293   3.090   1.423
  589SOL    HW1 1783   1.330   3.017   1.365
  589SOL    HW2 1784   1.345   3.095   1.508
  590SOL     OW 1785   0.809   1.866   0.502
  590SOL    HW1 1786   0.849   1.957   0.493
  590SOL    HW2 1787   0.709   1.874   0.508
  591SOL     OW 1788   0.197   2.838   1.264
  591SOL    HW1 1789   0.286   2.793   1.250
  591SOL    HW2 1790   0.124   2.773   1.245
  592SOL     OW 1791   1.525   2.861   0.190
  592SOL    HW1 1792   1.462   2.785   0.203
  592SOL    HW2 1793   1.573   2.879   0.276
  593SOL     OW 1794   1.187   3.654   1.616
  593SOL    HW1 1795   1.211   3.714   1.540
  593SOL    HW2 1796   1.194   3.559   1.586
  594SOL     OW 1797   0.317   2.113   1.801
  594SOL    HW1 1798   0.388   2.184   1.807
  594SOL    HW2 1799   0.229   2.152   1.829
  595SOL     OW 1800   1.466   3.279   0.953
  595SOL    HW1 1801   1.407   3.285   1.033
  595SOL    HW2 1802   1.451   3.191   0.907
  596SOL     OW 1803   1.667   3.576   0.572
  596SOL    HW1 1804   1.626   3.553   0.484
  596SOL    HW2 1805   1.649   3.502   0.637
  597SOL     OW 1806   0.598   2.591   0.270
  597SOL    HW1 1807   0.622   2.660   0.202
  597SOL    HW2 1808   0.520   2.624   0.324
  598SOL     OW 1809   1.281   2.207   0.944
  598SOL    HW1 1810   1.195   2.157   0.931
  598SOL    HW2 1811   1.343   2.153   1.000
  599SOL     OW 1812   1.576   3.524   0.307
  599SOL    HW1 1813   1.665   3.570   0.310
  599SOL    HW2 1814   1.555   3.500   0.212
  600SOL     OW 1815   0.807   2.467   1.465
  600SOL    HW1 1816   0.760   2.464   1.554
  600SOL    HW2 1817   0.756   2.412   1.399
  601SOL     OW 1818   1.394   2.331   1.674
  601SOL    HW1 1819   1.374   2.374   1.762
  601SOL    HW2 1820   1.472   2.269   1.683
  602SOL     OW 1821   0.973   2.752   1.572
  602SOL    HW1 1822   1.019   2.668   1.543
  602SOL    HW2 1823   0.917   2.786   1.497
  603SOL     OW 1824   0.991   2.272   1.242
  603SOL    HW1 1825   0.914   2.306   1.296
  603SOL    HW2 1826   0.957   2.221   1.163
  604SOL     OW 1827   1.041   2.563   0.429
  604SOL    HW1 1828   1.067   2.559   0.525
  604SOL    HW2 1829   0.956   2.512   0.415
  605SOL     OW 1830   0.076   2.673   0.789
  605SOL    HW1 1831   0.175   2.661   0.798
  605SOL    HW2 1832   0.052   2.768   0.810
  606SOL     OW 1833   0.130   3.683   1.571
  606SOL    HW1 1834   0.120   3.668   1.670
  606SOL    HW2 1835   0.044   3.719   1.535
  607SOL     OW 1836   0.865   2.210   0.195
  607SOL    HW1 1837   0.924   2.273   0.146
  607SOL    HW2 1838   0.884   2.116   0.166
  608SOL     OW 1839   1.719   2.447   1.831
  608SOL    HW1 1840   1.693   2.536   1.795
  608SOL    HW2 1841   1.717   2.379   1.758
  609SOL     OW 1842   1.362   3.006   0.545
  609SOL    HW1 1843   1.445   2.977   0.497
  609SOL    HW2 1844   1.313   3.073   0.489
  610SOL     OW 1845   0.550   2.058   0.885
  610SOL    HW1 1846   0.545   2.053   0.985
  610SOL    HW2 1847   0.552   2.154   0.856
  611SOL     OW 1848   1.008   3.318   0.477
  611SOL    HW1 1849   0.962   3.390   0.425
  611SOL    HW2 1850   1.004   3.338   0.575
  612SOL     OW 1851   0.351   3.663   0.853
  612SOL    HW1 1852   0.401   3.577   0.859
  612SOL    HW2 1853   0.416   3.740   0.850
  613SOL     OW 1854   1.795   2.928   0.873
  613SOL    HW1 1855   1.733   2.913   0.797
  613SOL    HW2 1856   1.743   2.939   0.958
  614SOL     OW 1857   1.227   3.412   1.506
  614SOL    HW1 1858   1.233   3.335   1.570
  614SOL    HW2 1859   1.175   3.386   1.426
  615SOL     OW 1860   0.321   2.805   0.242
  615SOL    HW1 1861   0.403   2.844   0.200
  615SOL    HW2 1862   0.294   2.723   0.193
  616SOL     OW 1863   1.458   2.597   0.728
  616SOL    HW1 1864   1.453   2.532   0.803
  616SOL    HW2 1865   1.538   2.656   0.741
  617SOL     OW 1866   0.461   3.128   1.727
  617SOL    HW1 1867   0.411   3.129   1.641
  617SOL    HW2 1868   0.398   3.110   1.803
  618SOL     OW 1869   1.111   3.638   0.237
  618SOL    HW1 1870   1.051   3.576   0.287
  618SOL    HW2 1871   1.142   3.594   0.152
  619SOL     OW 1872   0.202   2.147   1.498
  619SOL    HW1 1873   0.122   2.207   1.485
  619SOL    HW2 1874   0.192   2.098   1.584
  620SOL     OW 1875   1.632   3.239   0.081
  620SOL    HW1 1876   1.600   3.333   0.071
  620SOL    HW2 1877   1.556   3.176   0.069
  621SOL     OW 1878   0.464   3.605   0.323
  621SOL    HW1 1879   0.497   3.644   0.409
  621SOL    HW2 1880   0.540   3.598   0.258
  622SOL     OW 1881   1.400   1.969   0.426
  622SOL    HW1 1882   1.376   1.932   0.336
  622SOL    HW2 1883   1.499   1.985   0.430
  623SOL     OW 1884   0.249   3.647   1.241
  623SOL    HW1 1885   0.306   3.582   1.291
  623SOL    HW2 1886   0.233   3.614   1.148
  624SOL     OW 1887   0.940   3.560   0.904
  624SOL    HW1 1888   1.020   3.503   0.925
  624SOL    HW2 1889   0.891   3.520   0.827
  625SOL     OW 1890   0.382   2.562   0.480
  625SOL    HW1 1891   0.427   2.472   0.477
  625SOL    HW2 1892   0.288   2.551   0.513
  626SOL     OW 1893   1.547   2.084   1.729
  626SOL    HW1 1894   1.542   2.121   1.821
  626SOL    HW2 1895   1.475   2.015   1.717
  627SOL     OW 1896   0.614   1.984   0.117
  627SOL    HW1 1897   0.712   1.962   0.124
  627SOL    HW2 1898   0.583   1.967   0.024
  628SOL     OW 1899   0.781   2.126   1.749
  628SOL    HW1 1900   0.848   2.065   1.792
  628SOL    HW2 1901   0.708   2.145   1.814
  629SOL     OW 1902   0.888   3.376   1.195
  629SOL    HW1 1903   0.865   3.351   1.101
  629SOL    HW2 1904   0.949   3.307   1.234
  630SOL     OW 1905   1.351   2.452   1.433
  630SOL    HW1 1906   1.379   2.409   1.518
  630SOL    HW2 1907   1.376   2.548   1.434
  631SOL     OW 1908   0.803   3.264   0.924
  631SOL    HW1 1909   0.893   3.278   0.882
  631SOL    HW2 1910   0.732   3.266   0.853
  632SOL     OW 1911   0.922   2.365   0.899
  632SOL    HW1 1912   0.897   2.356   0.803
  632SOL    HW2 1913   0.970   2.283   0.930
  633SOL     OW 1914   0.539   1.926   0.512
  633SOL    HW1 1915   0.458   1.927   0.570
  633SOL    HW2 1916   0.542   2.009   0.457
  634SOL     OW 1917   1.434   3.050   0.041
  634SOL    HW1 1918   1.466   2.974   0.098
  634SOL    HW2 1919   1.342   3.077   0.071
  635SOL     OW 1920   0.297   1.897   0.171
  635SOL    HW1 1921   0.346   1.981   0.150
  635SOL    HW2 1922   0.359   1.832   0.216
  636SOL     OW 1923   0.935   2.098   0.480
  636SOL    HW1 1924   0.887   2.139   0.402
  636SOL    HW2 1925   1.034   2.096   0.461
  637SOL     OW 1926   1.076   2.545   1.464
  637SOL    HW1 1927   0.996   2.484   1.467
  637SOL    HW2 1928   1.157   2.492   1.440
  638SOL     OW 1929   1.227   3.432   0.793
  638SOL    HW1 1930   1.248   3.506   0.728
  638SOL    HW2 1931   1.295   3.432   0.866
  639SOL     OW 1932   0.459   3.014   0.741
  639SOL    HW1 1933   0.388   2.987   0.806
  639SOL    HW2 1934   0.433   2.986   0.648
  640SOL     OW 1935   1.271   3.659   0.591
  640SOL    HW1 1936   1.315   3.723   0.527
  640SOL    HW2 1937   1.221   3.711   0.661
  641SOL     OW 1938   1.032   2.411   0.016
  641SOL    HW1 1939   0.991   2.493  -0.023
  641SOL    HW2 1940   1.096   2.437   0.089
  642SOL     OW 1941   0.078   2.418   1.386
  642SOL    HW1 1942   0.170   2.417   1.345
  642SOL    HW2 1943   0.072   2.492   1.453
  643SOL     OW 1944   0.561   2.084   1.147
  643SOL    HW1 1945   0.599   2.000   1.184
  643SOL    HW2 1946   0.473   2.103   1.191
  644SOL     OW 1947   0.866   2.316   0.642
  644SOL    HW1 1948   0.834   2.388   0.580
  644SOL    HW2 1949   0.890   2.235   0.589
  645SOL     OW 1950   1.017   1.901   0.753
  645SOL    HW1 1951   0.945   1.906   0.684
  645SOL    HW2 1952   0.993   1.832   0.822
  646SOL     OW 1953   1.429   3.035   0.867
  646SOL    HW1 1954   1.374   2.951   0.860
  646SOL    HW2 1955   1.455   3.064   0.775
  647SOL     OW 1956   1.466   2.452   0.992
  647SOL    HW1 1957   1.436   2.357   0.999
  647SOL    HW2 1958   1.539   2.468   1.058
  648SOL     OW 1959   1.857   2.695   0.377
  648SOL    HW1 1960   1.899   2.631   0.441
  648SOL    HW2 1961   1.819   2.644   0.299
  649SOL     OW 1962   0.488   3.247   0.174
  649SOL    HW1 1963   0.401   3.232   0.221
  649SOL    HW2 1964   0.471   3.273   0.079
  650SOL     OW 1965   1.664   3.142   0.657
  650SOL    HW1 1966   1.763   3.150   0.671
  650SOL    HW2 1967   1.619   3.226   0.688
  651SOL     OW 1968   1.390   2.437   0.078
  651SOL    HW1 1969   1.336   2.416   0.159
  651SOL    HW2 1970   1.481   2.396   0.087
  652SOL     OW 1971   0.527   2.118   0.328
  652SOL    HW1 1972   0.554   2.059   0.253
  652SOL    HW2 1973   0.527   2.213   0.297
  653SOL     OW 1974   1.754   3.085   1.588
  653SOL    HW1 1975   1.845   3.046   1.575
  653SOL    HW2 1976   1.762   3.181   1.612
  654SOL     OW 1977   1.064   3.209   1.340
  654SOL    HW1 1978   0.984   3.186   1.395
  654SOL    HW2 1979   1.147   3.183   1.389
  655SOL     OW 1980   1.592   3.491   1.625
  655SOL    HW1 1981   1.619   3.525   1.535
  655SOL    HW2 1982   1.671   3.453   1.671
  656SOL     OW 1983   1.111   3.057   1.100
  656SOL    HW1 1984   1.071   3.101   1.181
  656SOL    HW2 1985   1.070   3.094   1.017
  657SOL     OW 1986   1.638   2.961   1.079
  657SOL    HW1 1987   1.643   3.042   1.138
  657SOL    HW2 1988   1.552   2.963   1.028
  658SOL     OW 1989   0.915   1.951   1.402
  658SOL    HW1 1990   0.940   1.931   1.307
  658SOL    HW2 1991   0.987   2.007   1.444
  659SOL     OW 1992   0.980   2.978   1.719
  659SOL    HW1 1993   0.881   2.984   1.729
  659SOL    HW2 1994   1.003   2.898   1.663
  660SOL     OW 1995   0.705   2.912   0.368
  660SOL    HW1 1996   0.691   2.919   0.467
  660SOL    HW2 1997   0.789   2.861   0.350
  661SOL     OW 1998   0.410   2.675   1.251
  661SOL    HW1 1999   0.496   2.687   1.301
  661SOL    HW2 2000   0.368   2.588   1.278
  662SOL     OW 2001   1.274   2.248   1.262
  662SOL    HW1 2002   1.295   2.322   1.326
  662SOL    HW2 2003   1.185   2.265   1.219
  663SOL     OW 2004   0.064   3.426   1.331
  663SOL    HW1 2005   0.018   3.508   1.297
  663SOL    HW2 2006   0.162   3.445   1.340
  664SOL     OW 2007   0.367   2.962   0.501
  664SOL    HW1 2008   0.360   3.045   0.445
  664SOL    HW2 2009   0.371   2.882   0.441
  665SOL     OW 2010   0.566   2.399   0.865
  665SOL    HW1 2011   0.578   2.465   0.791
  665SOL    HW2 2012   0.612   2.433   0.948
  666SOL     OW 2013   1.252   3.210   0.388
  666SOL    HW1 2014   1.302   3.287   0.428
  666SOL    HW2 2015   1.157   3.212   0.420
  667SOL     OW 2016   1.272   3.307   1.142
  667SOL    HW1 2017   1.319   3.320   1.229
  667SOL    HW2 2018   1.206   3.233   1.151
  668SOL     OW 2019   1.582   2.501   0.472
  668SOL    HW1 2020   1.551   2.562   0.545
  668SOL    HW2 2021   1.632   2.553   0.403
  669SOL     OW 2022   0.354   3.372   1.329
  669SOL    HW1 2023   0.333   3.328   1.242
  669SOL    HW2 2024   0.451   3.398   1.332
  670SOL     OW 2025   0.402   2.613   1.598
  670SOL    HW1 2026   0.470   2.668   1.551
  670SOL    HW2 2027   0.442   2.525   1.625
  671SOL     OW 2028   1.587   2.641   1.670
  671SOL    HW1 2029   1.495   2.679   1.665
  671SOL    HW2 2030   1.647   2.688   1.605
  672SOL     OW 2031   1.013   1.967   1.770
  672SOL    HW1 2032   1.019   2.052   1.718
  672SOL    HW2 2033   1.045   1.891   1.713
  673SOL     OW 2034   0.504   1.912   1.740
  673SOL    HW1 2035   0.462   1.855   1.670
  673SOL    HW2 2036   0.438   1.981   1.772
  674SOL     OW 2037   0.573   2.732   1.029
  674SOL    HW1 2038   0.617   2.821   1.020
  674SOL    HW2 2039   0.510   2.732   1.106
  675SOL     OW 2040   1.360   2.724   1.045
  675SOL    HW1 2041   1.285   2.724   0.979
  675SOL    HW2 2042   1.397   2.632   1.054
  676SOL     OW 2043   1.209   2.387   0.275
  676SOL    HW1 2044   1.222   2.303   0.329
  676SOL    HW2 2045   1.180   2.461   0.335
  677SOL     OW 2046   0.307   2.075   1.231
  677SOL    HW1 2047   0.284   2.112   1.321
  677SOL    HW2 2048   0.277   1.980   1.225
  678SOL     OW 2049   0.037   3.172   1.282
  678SOL    HW1 2050   0.090   3.123   1.350
  678SOL    HW2 2051   0.059   3.270   1.287
  679SOL     OW 2052   0.732   2.496   1.064
  679SOL    HW1 2053   0.791   2.470   0.988
  679SOL    HW2 2054   0.704   2.592   1.053
  680SOL     OW 2055   1.728   2.797   1.854
  680SOL    HW1 2056   1.682   2.790   1.765
  680SOL    HW2 2057   1.666   2.841   1.920
  681SOL     OW 2058   0.307   1.925   0.618
  681SOL    HW1 2059   0.296   2.019   0.651
  681SOL    HW2 2060   0.302   1.862   0.695
  682SOL     OW 2061   1.622   2.229   0.374
  682SOL    HW1 2062   1.624   2.153   0.438
  682SOL    HW2 2063   1.574   2.306   0.414
  683SOL     OW 2064   1.023   2.628   0.966
  683SOL    HW1 2065   1.038   2.649   1.062
  683SOL    HW2 2066   0.993   2.533   0.957
  684SOL     OW 2067   0.980   3.435   1.700
  684SOL    HW1 2068   0.960   3.479   1.612
  684SOL    HW2 2069   1.019   3.344   1.684
  685SOL     OW 2070   1.859   3.380   1.605
  685SOL    HW1 2071   1.873   3.407   1.510
  685SOL    HW2 2072   1.942   3.402   1.658
  686SOL     OW 2073   0.350   2.760   1.804
  686SOL    HW1 2074   0.426   2.804   1.852
  686SOL    HW2 2075   0.385   2.713   1.722
  687SOL     OW 2076   1.540   2.136   0.125
  687SOL    HW1 2077   1.479   2.061   0.148
  687SOL    HW2 2078   1.562   2.188   0.208
  688SOL     OW 2079   1.303   2.700   0.042
  688SOL    HW1 2080   1.337   2.607   0.057
  688SOL    HW2 2081   1.321   2.727  -0.053
  689SOL     OW 2082   1.068   3.195   0.849
  689SOL    HW1 2083   1.075   3.111   0.794
  689SOL    HW2 2084   1.130   3.264   0.813
  690SOL     OW 2085   0.319   2.672   0.949
  690SOL    HW1 2086   0.412   2.708   0.954
  690SOL    HW2 2087   0.313   2.587   1.001
  691SOL     OW 2088   0.339   2.371   1.006
  691SOL    HW1 2089   0.287   2.288   0.989
  691SOL    HW2 2090   0.416   2.376   0.942
  692SOL     OW 2091   1.138   2.242   1.678
  692SOL    HW1 2092   1.093   2.305   1.742
  692SOL    HW2 2093   1.231   2.273   1.661
  693SOL     OW 2094   1.160   2.069   1.477
  693SOL    HW1 2095   1.160   2.133   1.554
  693SOL    HW2 2096   1.188   2.117   1.394
  694SOL     OW 2097   0.008   3.188   0.200
  694SOL    HW1 2098  -0.085   3.209   0.169
  694SOL    HW2 2099   0.018   3.089   0.213
  695SOL     OW 2100   0.088   3.663   0.927
  695SOL    HW1 2101   0.046   3.577   0.900
  695SOL    HW2 2102   0.182   3.666   0.893
  696SOL     OW 2103   0.504   3.430   0.910
  696SOL    HW1 2104   0.570   3.504   0.919
  696SOL    HW2 2105   0.548   3.351   0.868
  697SOL     OW 2106   1.002   2.658   1.238
  697SOL    HW1 2107   1.043   2.626   1.324
  697SOL    HW2 2108   0.906   2.631   1.235
  698SOL     OW 2109   0.040   2.406   1.114
  698SOL    HW1 2110   0.125   2.373   1.073
  698SOL    HW2 2111   0.053   2.421   1.212
  699SOL     OW 2112   0.189   2.382   1.722
  699SOL    HW1 2113   0.248   2.342   1.652
  699SOL    HW2 2114   0.131   2.453   1.681
  700SOL     OW 2115   1.369   2.812   1.660
  700SOL    HW1 2116   1.408   2.901   1.680
  700SOL    HW2 2117   1.379   2.792   1.563
  701SOL     OW 2118   0.815   2.434   0.325
  701SOL    HW1 2119   0.822   2.345   0.279
  701SOL    HW2 2120   0.721   2.468   0.317
  702SOL     OW 2121   1.657   2.466   1.206
  702SOL    HW1 2122   1.619   2.397   1.268
  702SOL    HW2 2123   1.739   2.430   1.162
  703SOL     OW 2124   0.252   3.426   1.744
  703SOL    HW1 2125   0.222   3.483   1.820
  703SOL    HW2 2126   0.245   3.329   1.770
  704SOL     OW 2127   0.671   2.326   1.269
  704SOL    HW1 2128   0.637   2.237   1.239
  704SOL    HW2 2129   0.697   2.380   1.189
  705SOL     OW 2130   0.930   3.540   1.465
  705SOL    HW1 2131   0.906   3.522   1.370
  705SOL    HW2 2132   0.960   3.634   1.475
  706SOL     OW 2133   0.473   2.362   0.191
  706SOL    HW1 2134   0.534   2.442   0.195
  706SOL    HW2 2135   0.378   2.393   0.198
  707SOL     OW 2136   0.159   2.999   1.466
  707SOL    HW1 2137   0.181   2.938   1.542
  707SOL    HW2 2138   0.169   2.950   1.380
  708SOL     OW 2139   1.347   2.921   1.234
  708SOL    HW1 2140   1.371   2.858   1.160
  708SOL    HW2 2141   1.257   2.961   1.216
  709SOL     OW 2142   1.302   2.717   0.309
  709SOL    HW1 2143   1.216   2.686   0.351
  709SOL    HW2 2144   1.298   2.703   0.210
  710SOL     OW 2145   1.759   3.609   1.154
  710SOL    HW1 2146   1.820   3.639   1.081
  710SOL    HW2 2147   1.721   3.520   1.132
  711SOL     OW 2148   1.252   3.593   1.128
  711SOL    HW1 2149   1.336   3.598   1.074
  711SOL    HW2 2150   1.229   3.497   1.146
  712SOL     OW 2151   0.083   3.120   1.022
  712SOL    HW1 2152   0.078   3.119   1.122
  712SOL    HW2 2153   0.000   3.079   0.984
  713SOL     OW 2154   0.688   3.524   1.716
  713SOL    HW1 2155   0.632   3.605   1.725
  713SOL    HW2 2156   0.740   3.528   1.630
  714SOL     OW 2157   0.903   1.948   0.133
  714SOL    HW1 2158   0.954   1.949   0.047
  714SOL    HW2 2159   0.959   1.906   0.204
  715SOL     OW 2160   1.726   1.997   0.523
  715SOL    HW1 2161   1.799   1.980   0.456
  715SOL    HW2 2162   1.695   1.910   0.561
  716SOL     OW 2163   1.388   3.435   0.477
  716SOL    HW1 2164   1.455   3.447   0.403
  716SOL    HW2 2165   1.348   3.524   0.500
  717SOL     OW 2166   0.130   3.656   1.851
  717SOL    HW1 2167   0.089   3.582   1.904
  717SOL    HW2 2168   0.194   3.707   1.909
  718SOL     OW 2169   1.280   2.789   0.672
  718SOL    HW1 2170   1.340   2.708   0.674
  718SOL    HW2 2171   1.320   2.858   0.612
  719SOL     OW 2172   0.830   3.135   1.422
  719SOL    HW1 2173   0.825   3.168   1.517
  719SOL    HW2 2174   0.744   3.154   1.376
  720SOL     OW 2175   0.672   3.478   0.154
  720SOL    HW1 2176   0.681   3.488   0.055
  720SOL    HW2 2177   0.632   3.389   0.175
  721SOL     OW 2178   1.650   3.582   1.394
  721SOL    HW1 2179   1.703   3.592   1.310
  721SOL    HW2 2180   1.623   3.672   1.428
  722SOL     OW 2181   1.841   2.037   0.963
  722SOL    HW1 2182   1.880   1.952   0.927
  722SOL    HW2 2183   1.743   2.039   0.944
  723SOL     OW 2184   0.263   2.188   0.720
  723SOL    HW1 2185   0.184   2.239   0.686
  723SOL    HW2 2186   0.254   2.173   0.818
  724SOL     OW 2187   1.194   3.474   0.031
  724SOL    HW1 2188   1.200   3.381   0.068
  724SOL    HW2 2189   1.135   3.474  -0.049
  725SOL     OW 2190   0.822   2.864   1.372
  725SOL    HW1 2191   0.862   2.863   1.280
  725SOL    HW2 2192   0.832   2.956   1.412
  726SOL     OW 2193   0.916   2.772   0.291
  726SOL    HW1 2194   0.979   2.810   0.223
  726SOL    HW2 2195   0.956   2.689   0.330
  727SOL     OW 2196   1.504   3.469   0.044
  727SOL    HW1 2197   1.412   3.506   0.051
  727SOL    HW2 2198   1.542   3.489  -0.046
  728SOL     OW 2199   0.372   3.150   1.490
  728SOL    HW1 2200   0.359   3.243   1.456
  728SOL    HW2 2201   0.288   3.098   1.477
  729SOL     OW 2202   1.614   3.154   1.289
  729SOL    HW1 2203   1.674   3.157   1.369
  729SOL    HW2 2204   1.539   3.218   1.302
  730SOL     OW 2205   1.039   2.960   0.696
  730SOL    HW1 2206   0.969   2.913   0.750
  730SOL    HW2 2207   1.098   2.892   0.653
  731SOL     OW 2208   1.014   2.098   0.971
  731SOL    HW1 2209   1.006   2.062   0.878
  731SOL    HW2 2210   1.012   2.022   1.036
  732SOL     OW 2211   0.590   3.349   0.491
  732SOL    HW1 2212   0.632   3.291   0.421
  732SOL    HW2 2213   0.546   3.428   0.447
  733SOL     OW 2214   1.709   2.247   1.381
  733SOL    HW1 2215   1.782   2.316   1.385
  733SOL    HW2 2216   1.737   2.172   1.322
  734SOL     OW 2217   0.255   3.210   0.290
  734SOL    HW1 2218   0.159   3.211   0.263
  734SOL    HW2 2219   0.267   3.263   0.374
  735SOL     OW 2220   0.105   2.875   1.726
  735SOL    HW1 2221   0.028   2.842   1.780
  735SOL    HW2 2222   0.190   2.845   1.768
  736SOL     OW 2223   0.672   2.065   1.489
  736SOL    HW1 2224   0.762   2.049   1.449
  736SOL    HW2 2225   0.680   2.070   1.588
  737SOL     OW 2226   0.075   2.207   0.033
  737SOL    HW1 2227  -0.017   2.179   0.004
  737SOL    HW2 2228   0.106   2.284  -0.023
  738SOL     OW 2229   1.440   2.718   1.398
  738SOL    HW1 2230   1.383   2.770   1.335
  738SOL    HW2 2231   1.536   2.730   1.374
  739SOL     OW 2232   0.072   2.028   0.318
  739SOL    HW1 2233   0.055   2.111   0.264
  739SOL    HW2 2234   0.162   1.991   0.296
  740SOL     OW 2235   1.183   3.197   0.119
  740SOL    HW1 2236   1.084   3.186   0.121
  740SOL    HW2 2237   1.217   3.212   0.212
  741SOL     OW 2238   0.613   2.704   1.431
  741SOL    HW1 2239   0.669   2.785   1.414
  741SOL    HW2 2240   0.672   2.624   1.434
  742SOL     OW 2241   1.493   3.629   0.959
  742SOL    HW1 2242   1.526   3.693   0.890
  742SOL    HW2 2243   1.559   3.623   1.034
  743SOL     OW 2244   0.716   2.427   1.708
  743SOL    HW1 2245   0.735   2.492   1.782
  743SOL    HW2 2246   0.776   2.347   1.717
  744SOL     OW 2247   1.450   3.082   1.633
  744SOL    HW1 2248   1.441   3.072   1.732
  744SOL    HW2 2249   1.546   3.075   1.607
  745SOL     OW 2250   0.390   3.603   1.560
  745SOL    HW1 2251   0.299   3.644   1.558
  745SOL    HW2 2252   0.383   3.509   1.592
  746SOL     OW 2253   1.674   2.745   1.254
  746SOL    HW1 2254   1.647   2.656   1.217
  746SOL    HW2 2255   1.675   2.813   1.181
  747SOL     OW 2256   1.225   2.187   0.449
  747SOL    HW1 2257   1.290   2.113   0.438
  747SOL    HW2 2258   1.245   2.237   0.533
  748SOL     OW 2259   0.594   2.607   0.652
  748SOL    HW1 2260   0.644   2.692   0.633
  748SOL    HW2 2261   0.506   2.609   0.604
  749SOL     OW 2262   1.777   2.204   1.642
  749SOL    HW1 2263   1.760   2.235   1.548
  749SOL    HW2 2264   1.693   2.167   1.680
  750SOL     OW 2265   1.730   2.796   1.517
  750SOL    HW1 2266   1.768   2.887   1.532
  750SOL    HW2 2267   1.722   2.779   1.418
  751SOL     OW 2268   0.859   3.236   0.016
  751SOL    HW1 2269   0.813   3.251   0.104
  751SOL    HW2 2270   0.903   3.321  -0.014
  752SOL     OW 2271   0.661   3.652   0.953
  752SOL    HW1 2272   0.615   3.740   0.940
  752SOL    HW2 2273   0.760   3.664   0.946
  753SOL     OW 2274   0.859   2.818   0.861
  753SOL    HW1 2275   0.913   2.749   0.909
  753SOL    HW2 2276   0.827   2.887   0.927
  754SOL     OW 2277   1.083   2.846   0.087
  754SOL    HW1 2278   1.060   2.899   0.005
  754SOL    HW2 2279   1.164   2.790   0.068
  755SOL     OW 2280   1.861   3.431   0.851
  755SOL    HW1 2281   1.790   3.419   0.781
  755SOL    HW2 2282   1.862   3.352   0.911
  756SOL     OW 2283   0.221   3.176   1.844
  756SOL    HW1 2284   0.156   3.103   1.823
  756SOL    HW2 2285   0.225   3.190   1.942
  757SOL     OW 2286   0.079   3.102   0.653
  757SOL    HW1 2287   0.078   3.055   0.741
  757SOL    HW2 2288   0.161   3.074   0.602
  758SOL     OW 2289   0.672   3.253   1.624
  758SOL    HW1 2290   0.594   3.203   1.662
  758SOL    HW2 2291   0.669   3.348   1.655
  759SOL     OW 2292   1.824   2.054   1.227
  759SOL    HW1 2293   1.820   1.964   1.271
  759SOL    HW2 2294   1.827   2.043   1.128
  760SOL     OW 2295   0.428   2.286   0.520
  760SOL    HW1 2296   0.458   2.214   0.458
  760SOL    HW2 2297   0.389   2.246   0.603
  761SOL     OW 2298   1.705   3.349   1.104
  761SOL    HW1 2299   1.612   3.324   1.077
  761SOL    HW2 2300   1.731   3.299   1.186
  762SOL     OW 2301   0.317   2.409   1.280
  762SOL    HW1 2302   0.355   2.350   1.352
  762SOL    HW2 2303   0.357   2.383   1.192
  763SOL     OW 2304   0.812   3.448   0.687
  763SOL    HW1 2305   0.844   3.458   0.593
  763SOL    HW2 2306   0.733   3.386   0.689
  764SOL     OW 2307   1.424   2.076   1.112
  764SOL    HW1 2308   1.476   2.011   1.167
  764SOL    HW2 2309   1.375   2.139   1.173
  765SOL     OW 2310   1.001   1.896   1.154
  765SOL    HW1 2311   0.938   1.824   1.123
  765SOL    HW2 2312   1.094   1.860   1.154
  766SOL     OW 2313   0.770   3.192   0.301
  766SOL    HW1 2314   0.724   3.105   0.318
  766SOL    HW2 2315   0.861   3.189   0.342
  767SOL     OW 2316   0.618   3.429   1.284
  767SOL    HW1 2317   0.613   3.511   1.341
  767SOL    HW2 2318   0.707   3.426   1.239
  768SOL     OW 2319   1.352   1.914   0.168
  768SOL    HW1 2320   1.387   1.873   0.084
  768SOL    HW2 2321   1.262   1.876   0.188
  769SOL     OW 2322   1.300   2.315   0.691
  769SOL    HW1 2323   1.241   2.395   0.695
  769SOL    HW2 2324   1.315   2.280   0.784
  770SOL     OW 2325   1.593   2.083   0.882
  770SOL    HW1 2326   1.509   2.082   0.936
  770SOL    HW2 2327   1.595   2.166   0.826
  771SOL     OW 2328   0.039   2.939   0.300
  771SOL    HW1 2329   0.138   2.928   0.291
  771SOL    HW2 2330  -0.001   2.853   0.332
  772SOL     OW 2331   0.875   3.508   0.337
  772SOL    HW1 2332   0.798   3.473   0.283
  772SOL    HW2 2333   0.843   3.579   0.399
  773SOL     OW 2334   0.230   2.490   1.975
  773SOL    HW1 2335   0.137   2.488   2.012
  773SOL    HW2 2336   0.231   2.451   1.883
  774SOL     OW 2337   0.225   2.137   2.858
  774SOL    HW1 2338   0.260   2.120   2.950
  774SOL    HW2 2339   0.137   2.092   2.846
  775SOL     OW 2340   0.019   2.230   2.509
  775SOL    HW1 2341  -0.063   2.273   2.548
  775SOL    HW2 2342  -0.009   2.157   2.446
  776SOL     OW 2343   0.569   3.137   3.027
  776SOL    HW1 2344   0.476   3.130   2.990
  776SOL    HW2 2345   0.580   3.226   3.071
  777SOL     OW 2346   1.555   3.373   2.565
  777SOL    HW1 2347   1.498   3.357   2.646
  777SOL    HW2 2348   1.496   3.383   2.485
  778SOL     OW 2349   1.135   2.565   2.579
  778SOL    HW1 2350   1.192   2.643   2.554
  778SOL    HW2 2351   1.075   2.591   2.655
  779SOL     OW 2352   1.755   2.469   2.093
  779SOL    HW1 2353   1.743   2.456   1.994
  779SOL    HW2 2354   1.725   2.388   2.142
  780SOL     OW 2355   0.768   3.006   2.885
  780SOL    HW1 2356   0.690   3.023   2.945
  780SOL    HW2 2357   0.802   3.093   2.849
  781SOL     OW 2358   0.850   2.660   3.685
  781SOL    HW1 2359   0.846   2.736   3.750
  781SOL    HW2 2360   0.872   2.696   3.594
  782SOL     OW 2361   0.685   2.874   2.527
  782SOL    HW1 2362   0.754   2.858   2.597
  782SOL    HW2 2363   0.612   2.931   2.565
  783SOL     OW 2364   0.686   3.023   3.665
  783SOL    HW1 2365   0.746   3.102   3.679
  783SOL    HW2 2366   0.600   3.054   3.624
  784SOL     OW 2367   0.335   3.297   2.923
  784SOL    HW1 2368   0.257   3.266   2.870
  784SOL    HW2 2369   0.393   3.355   2.866
  785SOL     OW 2370   1.460   3.367   3.201
  785SOL    HW1 2371   1.484   3.461   3.227
  785SOL    HW2 2372   1.444   3.313   3.283
  786SOL     OW 2373   0.438   2.254   3.361
  786SOL    HW1 2374   0.520   2.198   3.370
  786SOL    HW2 2375   0.357   2.196   3.365
  787SOL     OW 2376   1.603   2.309   2.599
  787SOL    HW1 2377   1.529   2.355   2.549
  787SOL    HW2 2378   1.654   2.377   2.652
  788SOL     OW 2379   0.231   3.575   2.345
  788SOL    HW1 2380   0.265   3.652   2.399
  788SOL    HW2 2381   0.275   3.575   2.255
  789SOL     OW 2382   1.127   3.203   3.552
  789SOL    HW1 2383   1.174   3.203   3.640
  789SOL    HW2 2384   1.079   3.116   3.541
  790SOL     OW 2385   0.230   3.296   2.400
  790SOL    HW1 2386   0.204   3.392   2.400
  790SOL    HW2 2387   0.159   3.242   2.445
  791SOL     OW 2388   0.240   2.953   2.748
  791SOL    HW1 2389   0.254   2.869   2.800
  791SOL    HW2 2390   0.185   3.017   2.803
  792SOL     OW 2391   0.620   3.648   3.301
  792SOL    HW1 2392   0.528   3.631   3.336
  792SOL    HW2 2393   0.648   3.740   3.327
  793SOL     OW 2394   0.606   2.826   1.985
  793SOL    HW1 2395   0.613   2.910   1.931
  793SOL    HW2 2396   0.652   2.839   2.073
  794SOL     OW 2397   1.594   1.976   3.342
  794SOL    HW1 2398   1.576   2.043   3.270
  794SOL    HW2 2399   1.591   2.022   3.431
  795SOL     OW 2400   0.122   2.505   2.425
  795SOL    HW1 2401   0.077   2.417   2.442
  795SOL    HW2 2402   0.121   2.559   2.509
  796SOL     OW 2403   1.842   3.629   2.221
  796SOL    HW1 2404   1.896   3.600   2.301
  796SOL    HW2 2405   1.872   3.719   2.192
  797SOL     OW 2406   0.027   3.458   1.979
  797SOL    HW1 2407   0.008   3.362   2.000
  797SOL    HW2 2408  -0.006   3.516   2.054
  798SOL     OW 2409   1.689   2.784   2.474
  798SOL    HW1 2410   1.784   2.755   2.482
  798SOL    HW2 2411   1.681   2.849   2.399
  799SOL     OW 2412   1.641   2.970   2.294
  799SOL    HW1 2413   1.727   2.972   2.242
  799SOL    HW2 2414   1.655   3.017   2.382
  800SOL     OW 2415   0.113   2.599   3.459
  800SOL    HW1 2416   0.201   2.586   3.504
  800SOL    HW2 2417   0.100   2.696   3.437
  801SOL     OW 2418   0.613   3.227   2.588
  801SOL    HW1 2419   0.564   3.140   2.597
  801SOL    HW2 2420   0.590   3.270   2.501
  802SOL     OW 2421   1.293   3.090   3.285
  802SOL    HW1 2422   1.330   3.017   3.227
  802SOL    HW2 2423   1.345   3.095   3.370
  803SOL     OW 2424   0.809   1.866   2.364
  803SOL    HW1 2425   0.849   1.957   2.355
  803SOL    HW2 2426   0.709   1.874   2.370
  804SOL     OW 2427   0.197   2.838   3.126
  804SOL    HW1 2428   0.286   2.793   3.112
  804SOL    HW2 2429   0.124   2.773   3.107
  805SOL     OW 2430   1.525   2.861   2.052
  805SOL    HW1 2431   1.462   2.785   2.065
  805SOL    HW2 2432   1.573   2.879   2.138
  806SOL     OW 2433   1.187   3.654   3.478
  806SOL    HW1 2434   1.211   3.714   3.402
  806SOL    HW2 2435   1.194   3.559   3.448
  807SOL     OW 2436   0.317   2.113   3.663
  807SOL    HW1 2437   0.388   2.184   3.669
  807SOL    HW2 2438   0.229   2.152   3.691
  808SOL     OW 2439   1.466   3.279   2.815
  808SOL    HW1 2440   1.407   3.285   2.895
  808SOL    HW2 2441   1.451   3.191   2.769
  809SOL     OW 2442   1.667   3.576   2.434
  809SOL    HW1 2443   1.626   3.553   2.346
  809SOL    HW2 2444   1.649   3.502   2.499
  810SOL     OW 2445   0.598   2.591   2.132
  810SOL    HW1 2446   0.622   2.660   2.064
  810SOL    HW2 2447   0.520   2.624   2.186
  811SOL     OW 2448   1.281   2.207   2.806
  811SOL    HW1 2449   1.195   2.157   2.793
  811SOL    HW2 2450   1.343   2.153   2.862
  812SOL     OW 2451   1.576   3.524   2.169
  812SOL    HW1 2452   1.665   3.570   2.172
  812SOL    HW2 2453   1.555   3.500   2.074
  813SOL     OW 2454   0.807   2.467   3.327
  813SOL    HW1 2455   0.760   2.464   3.416
  813SOL    HW2 2456   0.756   2.412   3.261
  814SOL     OW 2457   1.394   2.331   3.536
  814SOL    HW1 2458   1.374   2.374   3.624
  814SOL    HW2 2459   1.472   2.269   3.545
  815SOL     OW 2460   0.973   2.752   3.434
  815SOL    HW1 2461   1.019   2.668   3.405
  815SOL    HW2 2462   0.917   2.786   3.359
  816SOL     OW 2463   0.991   2.272   3.104
  816SOL    HW1 2464   0.914   2.306   3.158
  816SOL    HW2 2465   0.957   2.221   3.025
  817SOL     OW 2466   1.041   2.563   2.291
  817SOL    HW1 2467   1.067   2.559   2.387
  817SOL    HW2 2468   0.956   2.512   2.277
  818SOL     OW 2469   0.076   2.673   2.651
  818SOL    HW1 2470   0.175   2.661   2.660
  818SOL    HW2 2471   0.052   2.768   2.672
  819SOL     OW 2472   0.130   3.683   3.433
  819SOL    HW1 2473   0.120   3.668   3.532
  819SOL    HW2 2474   0.044   3.719   3.397
  820SOL     OW 2475   0.865   2.210   2.057
  820SOL    HW1 2476   0.924   2.273   2.008
  820SOL    HW2 2477   0.884   2.116   2.028
  821SOL     OW 2478   1.719   2.447   3.693
  821SOL    HW1 2479   1.693   2.536   3.657
  821SOL    HW2 2480   1.717   2.379   3.620
  822SOL     OW 2481   1.362   3.006   2.407
  822SOL    HW1 2482   1.445   2.977   2.359
  822SOL    HW2 2483   1.313   3.073   2.351
  823SOL     OW 2484   0.550   2.058   2.747
  823SOL    HW1 2485   0.545   2.053   2.847
  823SOL    HW2 2486   0.552   2.154   2.718
  824SOL     OW 2487   1.008   3.318   2.339
  824SOL    HW1 2488   0.962   3.390   2.287
  824SOL    HW2 2489   1.004   3.338   2.437
  825SOL     OW 2490   0.351   3.663   2.715
  825SOL    HW1 2491   0.401   3.577   2.721
  825SOL    HW2 2492   0.416   3.740   2.712
  826SOL     OW 2493   1.795   2.928   2.735
  826SOL    HW1 2494   1.733   2.913   2.659
  826SOL    HW2 2495   1.743   2.939   2.820
  827SOL     OW 2496   1.227   3.412   3.368
  827SOL    HW1 2497   1.233   3.335   3.432
  827SOL    HW2 2498   1.175   3.386   3.288
  828SOL     OW 2499   0.321   2.805   2.104
  828SOL    HW1 2500   0.403   2.844   2.062
  828SOL    HW2 2501   0.294   2.723   2.055
  829SOL     OW 2502   1.458   2.597   2.590
  829SOL    HW1 2503   1.453   2.532   2.665
  829SOL    HW2 2504   1.538   2.656   2.603
  830SOL     OW 2505   0.461   3.128   3.589
  830SOL    HW1 2506   0.411   3.129   3.503
  830SOL    HW2 2507   0.398   3.110   3.665
  831SOL     OW 2508   1.111   3.638   2.099
  831SOL    HW1 2509   1.051   3.576   2.149
  831SOL    HW2 2510   1.142   3.594   2.014
  832SOL     OW 2511   0.202   2.147   3.360
  832SOL    HW1 2512   0.122   2.207   3.347
  832SOL    HW2 2513   0.192   2.098   3.446
  833SOL     OW 2514   1.632   3.239   1.943
  833SOL    HW1 2515   1.600   3.333   1.933
  833SOL    HW2 2516   1.556   3.176   1.931
  834SOL     OW 2517   0.464   3.605   2.185
  834SOL    HW1 2518   0.497   3.644   2.271
  834SOL    HW2 2519   0.540   3.598   2.120
  835SOL     OW 2520   1.400   1.969   2.288
  835SOL    HW1 2521   1.376   1.932   2.198
  835SOL    HW2 2522   1.499   1.985   2.292
  836SOL     OW 2523   0.249   3.647   3.103
  836SOL    HW1 2524   0.306   3.582   3.153
  836SOL    HW2 2525   0.233   3.614   3.010
  837SOL     OW 2526   0.940   3.560   2.766
  837SOL    HW1 2527   1.020   3.503   2.787
  837SOL    HW2 2528   0.891   3.520   2.689
  838SOL     OW 2529   0.382   2.562   2.342
  838SOL    HW1 2530   0.427   2.472   2.339
  838SOL    HW2 2531   0.288   2.551   2.375
  839SOL     OW 2532   1.547   2.084   3.591
  839SOL    HW1 2533   1.542   2.121   3.683
  839SOL    HW2 2534   1.475   2.015   3.579
  840SOL     OW 2535   0.614   1.984   1.979
  840SOL    HW1 2536   0.712   1.962   1.986
  840SOL    HW2 2537   0.583   1.967   1.886
  841SOL     OW 2538   0.781   2.126   3.611
  841SOL    HW1 2539   0.848   2.065   3.654
  841SOL    HW2 2540   0.708   2.145   3.676
  842SOL     OW 2541   0.888   3.376   3.057
  842SOL    HW1 2542   0.865   3.351   2.963
  842SOL    HW2 2543   0.949   3.307   3.096
  843SOL     OW 2544   1.351   2.452   3.295
  843SOL    HW1 2545   1.379   2.409   3.380
  843SOL    HW2 2546   1.376   2.548   3.296
  844SOL     OW 2547   0.803   3.264   2.786
  844SOL    HW1 2548   0.893   3.278   2.744
  844SOL    HW2 2549   0.732   3.266   2.715
  845SOL     OW 2550   0.922   2.365   2.761
  845SOL    HW1 2551   0.897   2.356   2.665
  845SOL    HW2 2552   0.970   2.283   2.792
  846SOL     OW 2553   0.539   1.926   2.374
  846SOL    HW1 2554   0.458   1.927   2.432
  846SOL    HW2 2555   0.542   2.009   2.319
  847SOL     OW 2556   1.434   3.050   1.903
  847SOL    HW1 2557   1.466   2.974   1.960
  847SOL    HW2 2558   1.342   3.077   1.933
  848SOL     OW 2559   0.297   1.897   2.033
  848SOL    HW1 2560   0.346   1.981   2.012
  848SOL    HW2 2561   0.359   1.832   2.078
  849SOL     OW 2562   0.935   2.098   2.342
  849SOL    HW1 2563   0.887   2.139   2.264
  849SOL    HW2 2564   1.034   2.096   2.323
  850SOL     OW 2565   1.076   2.545   3.326
  850SOL    HW1 2566   0.996   2.484   3.329
  850SOL    HW2 2567   1.157   2.492   3.302
  851SOL     OW 2568   1.227   3.432   2.655
  851SOL    HW1 2569   1.248   3.506   2.590
  851SOL    HW2 2570   1.295   3.432   2.728
  852SOL     OW 2571   0.459   3.014   2.603
  852SOL    HW1 2572   0.388   2.987   2.668
  852SOL    HW2 2573   0.433   2.986   2.510
  853SOL     OW 2574   1.271   3.659   2.453
  853SOL    HW1 2575   1.315   3.723   2.389
  853SOL    HW2 2576   1.221   3.711   2.523
  854SOL     OW 2577   1.032   2.411   1.878
  854SOL    HW1 2578   0.991   2.493   1.839
  854SOL    HW2 2579   1.096   2.437   1.951
  855SOL     OW 2580   0.078   2.418   3.248
  855SOL    HW1 2581   0.170   2.417   3.207
  855SOL    HW2 2582   0.072   2.492   3.315
  856SOL     OW 2583   0.561   2.084   3.009
  856SOL    HW1 2584   0.599   2.000   3.046
  856SOL    HW2 2585   0.473   2.103   3.053
  857SOL     OW 2586   0.866   2.316   2.504
  857SOL    HW1 2587   0.834   2.388   2.442
  857SOL    HW2 2588   0.890   2.235   2.451
  858SOL     OW 2589   1.017   1.901   2.615
  858SOL    HW1 2590   0.945   1.906   2.546
  858SOL    HW2 2591   0.993   1.832   2.684
  859SOL     OW 2592   1.429   3.035   2.729
  859SOL    HW1 2593   1.374   2.951   2.722
  859SOL    HW2 2594   1.455   3.064   2.637
  860SOL     OW 2595   1.466   2.452   2.854
  860SOL    HW1 2596   1.436   2.357   2.861
  860SOL    HW2 2597   1.539   2.468   2.920
  861SOL     OW 2598   1.857   2.695   2.239
  861SOL    HW1 2599   1.899   2.631   2.303
  861SOL    HW2 2600   1.819   2.644   2.161
  862SOL     OW 2601   0.488   3.247   2.036
  862SOL    HW1 2602   0.401   3.232   2.083
  862SOL    HW2 2603   0.471   3.273   1.941
  863SOL     OW 2604   1.664   3.142   2.519
  863SOL    HW1 2605   1.763   3.150   2.533
  863SOL    HW2 2606   1.619   3.226   2.550
  864SOL     OW 2607   1.390   2.437   1.940
  864SOL    HW1 2608   1.336   2.416   2.021
  864SOL    HW2 2609   1.481   2.396   1.949
  865SOL     OW 2610   0.527   2.118   2.190
  865SOL    HW1 2611   0.554   2.059   2.115
  865SOL    HW2 2612   0.527   2.213   2.159
  866SOL     OW 2613   1.754   3.085   3.450
  866SOL    HW1 2614   1.845   3.046   3.437
  866SOL    HW2 2615   1.762   3.181   3.474
  867SOL     OW 2616   1.064   3.209   3.202
  867SOL    HW1 2617   0.984   3.186   3.257
  867SOL    HW2 2618   1.147   3.183   3.251
  868SOL     OW 2619   1.592   3.491   3.487
  868SOL    HW1 2620   1.619   3.525   3.397
  868SOL    HW2 2621   1.671   3.453   3.533
  869SOL     OW 2622   1.111   3.057   2.962
  869SOL    HW1 2623   1.071   3.101   3.043
  869SOL    HW2 2624   1.070   3.094   2.879
  870SOL     OW 2625   1.638   2.961   2.941
  870SOL    HW1 2626   1.643   3.042   3.000
  870SOL    HW2 2627   1.552   2.963   2.890
  871SOL     OW 2628   0.915   1.951   3.264
  871SOL    HW1 2629   0.940   1.931   3.169
  871SOL    HW2 2630   0.987   2.007   3.306
  872SOL     OW 2631   0.980   2.978   3.581
  872SOL    HW1 2632   0.881   2.984   3.591
  872SOL    HW2 2633   1.003   2.898   3.525
  873SOL     OW 2634   0.705   2.912   2.230
  873SOL    HW1 2635   0.691   2.919   2.329
  873SOL    HW2 2636   0.789   2.861   2.212
  874SOL     OW 2637   0.410   2.675   3.113
  874SOL    HW1 2638   0.496   2.687   3.163
  874SOL    HW2 2639   0.368   2.588   3.140
  875SOL     OW 2640   1.274   2.248   3.124
  875SOL    HW1 2641   1.295   2.322   3.188
  875SOL    HW2 2642   1.185   2.265   3.081
  876SOL     OW 2643   0.064   3.426   3.193
  876SOL    HW1 2644   0.018   3.508   3.159
  876SOL    HW2 2645   0.162   3.445   3.202
  877SOL     OW 2646   0.367   2.962   2.363
  877SOL    HW1 2647   0.360   3.045   2.307
  877SOL    HW2 2648   0.371   2.882   2.303
  878SOL     OW 2649   0.566   2.399   2.727
  878SOL    HW1 2650   0.578   2.465   2.653
  878SOL    HW2 2651   0.612   2.433   2.810
  879SOL     OW 2652   1.252   3.210   2.250
  879SOL    HW1 2653   1.302   3.287   2.290
  879SOL    HW2 2654   1.157   3.212   2.282
  880SOL     OW 2655   1.272   3.307   3.004
  880SOL    HW1 2656   1.319   3.320   3.091
  880SOL    HW2 2657   1.206   3.233   3.013
  881SOL     OW 2658   1.582   2.501   2.334
  881SOL    HW1 2659   1.551   2.562   2.407
  881SOL    HW2 2660   1.632   2.553   2.265
  882SOL     OW 2661   0.354   3.372   3.191
  882SOL    HW1 2662   0.333   3.328   3.104
  882SOL    HW2 2663   0.451   3.398   3.194
  883SOL     OW 2664   0.402   2.613   3.460
  883SOL    HW1 2665   0.470   2.668   3.413
  883SOL    HW2 2666   0.442   2.525   3.487
  884SOL     OW 2667   1.587   2.641   3.532
  884SOL    HW1 2668   1.495   2.679   3.527
  884SOL    HW2 2669   1.647   2.688   3.467
  885SOL     OW 2670   1.013   1.967   3.632
  885SOL    HW1 2671   1.019   2.052   3.580
  885SOL    HW2 2672   1.045   1.891   3.575
  886SOL     OW 2673   0.504   1.912   3.602
  886SOL    HW1 2674   0.462   1.855   3.532
  886SOL    HW2 2675   0.438   1.981   3.634
  887SOL     OW 2676   0.573   2.732   2.891
  887SOL    HW1 2677   0.617   2.821   2.882
  887SOL    HW2 2678   0.510   2.732   2.968
  888SOL     OW 2679   1.360   2.724   2.907
  888SOL    HW1 2680   1.285   2.724   2.841
  888SOL    HW2 2681   1.397   2.632   2.916
  889SOL     OW 2682   1.209   2.387   2.137
  889SOL    HW1 2683   1.222   2.303   2.191
  889SOL    HW2 2684   1.180   2.461   2.197
  890SOL     OW 2685   0.307   2.075   3.093
  890SOL    HW1 2686   0.284   2.112   3.183
  890SOL    HW2 2687   0.277   1.980   3.087
  891SOL     OW 2688   0.037   3.172   3.144
  891SOL    HW1 2689   0.090   3.123   3.212
  891SOL    HW2 2690   0.059   3.270   3.149
  892SOL     OW 2691   0.732   2.496   2.926
  892SOL    HW1 2692   0.791   2.470   2.850
  892SOL    HW2 2693   0.704   2.592   2.915
  893SOL     OW 2694   1.728   2.797   3.716
  893SOL    HW1 2695   1.682   2.790   3.627
  893SOL    HW2 2696   1.666   2.841   3.782
  894SOL     OW 2697   0.307   1.925   2.480
  894SOL    HW1 2698   0.296   2.019   2.513
  894SOL    HW2 2699   0.302   1.862   2.557
  895SOL     OW 2700   1.622   2.229   2.236
  895SOL    HW1 2701   1.624   2.153   2.300
  895SOL    HW2 2702   1.574   2.306   2.276
  896SOL     OW 2703   1.023   2.628   2.828
  896SOL    HW1 2704   1.038   2.649   2.924
  896SOL    HW2 2705   0.993   2.533   2.819
  897SOL     OW 2706   0.980   3.435   3.562
  897SOL    HW1 2707   0.960   3.479   3.474
  897SOL    HW2 2708   1.019   3.344   3.546
  898SOL     OW 2709   1.859   3.380   3.467
  898SOL    HW1 2710   1.873   3.407   3.372
  898SOL    HW2 2711   1.942   3.402   3.520
  899SOL     OW 2712   0.350   2.760   3.666
  899SOL    HW1 2713   0.426   2.804   3.714
  899SOL    HW2 2714   0.385   2.713   3.584
  900SOL     OW 2715   1.540   2.136   1.987
  900SOL    HW1 2716   1.479   2.061   2.010
  900SOL    HW2 2717   1.562   2.188   2.070
  901SOL     OW 2718   1.303   2.700   1.904
  901SOL    HW1 2719   1.337   2.607   1.919
  901SOL    HW2 2720   1.321   2.727   1.809
  902SOL     OW 2721   1.068   3.195   2.711
  902SOL    HW1 2722   1.075   3.111   2.656
  902SOL    HW2 2723   1.130   3.264   2.675
  903SOL     OW 2724   0.319   2.672   2.811
  903SOL    HW1 2725   0.412   2.708   2.816
  903SOL    HW2 2726   0.313   2.587   2.863
  904SOL     OW 2727   0.339   2.371   2.868
  904SOL    HW1 2728   0.287   2.288   2.851
  904SOL    HW2 2729   0.416   2.376   2.804
  905SOL     OW 2730   1.138   2.242   3.540
  905SOL    HW1 2731   1.093   2.305   3.604
  905SOL    HW2 2732   1.231   2.273   3.523
  906SOL     OW 2733   1.160   2.069   3.339
  906SOL    HW1 2734   1.160   2.133   3.416
  906SOL    HW2 2735   1.188   2.117   3.256
  907SOL     OW 2736   0.008   3.188   2.062
  907SOL    HW1 2737  -0.085   3.209   2.031
  907SOL    HW2 2738   0.018   3.089   2.075
  908SOL     OW 2739   0.088   3.663   2.789
  908SOL    HW1 2740   0.046   3.577   2.762
  908SOL    HW2 2741   0.182   3.666   2.755
  909SOL     OW 2742   0.504   3.430   2.772
  909SOL    HW1 2743   0.570   3.504   2.781
  909SOL    HW2 2744   0.548   3.351   2.730
  910SOL     OW 2745   1.002   2.658   3.100
  910SOL    HW1 2746   1.043   2.626   3.186
  910SOL    HW2 2747   0.906   2.631   3.097
  911SOL     OW 2748   0.040   2.406   2.976
  911SOL    HW1 2749   0.125   2.373   2.935
  911SOL    HW2 2750   0.053   2.421   3.074
  912SOL     OW 2751   0.189   2.382   3.584
  912SOL    HW1 2752   0.248   2.342   3.514
  912SOL    HW2 2753   0.131   2.453   3.543
  913SOL     OW 2754   1.369   2.812   3.522
  913SOL    HW1 2755   1.408   2.901   3.542
  913SOL    HW2 2756   1.379   2.792   3.425
  914SOL     OW 2757   0.815   2.434   2.187
  914SOL    HW1 2758   0.822   2.345   2.141
  914SOL    HW2 2759   0.721   2.468   2.179
  915SOL     OW 2760   1.657   2.466   3.068
  915SOL    HW1 2761   1.619   2.397   3.130
  915SOL    HW2 2762   1.739   2.430   3.024
  916SOL     OW 2763   0.252   3.426   3.606
  916SOL    HW1 2764   0.222   3.483   3.682
  916SOL    HW2 2765   0.245   3.329   3.632
  917SOL     OW 2766   0.671   2.326   3.131
  917SOL    HW1 2767   0.637   2.237   3.101
  917SOL    HW2 2768   0.697   2.380   3.051
  918SOL     OW 2769   0.930   3.540   3.327
  918SOL    HW1 2770   0.906   3.522   3.232
  918SOL    HW2 2771   0.960   3.634   3.337
  919SOL     OW 2772   0.473   2.362   2.053
  919SOL    HW1 2773   0.534   2.442   2.057
  919SOL    HW2 2774   0.378   2.393   2.060
  920SOL     OW 2775   0.159   2.999   3.328
  920SOL    HW1 2776   0.181   2.938   3.404
  920SOL    HW2 2777   0.169   2.950   3.242
  921SOL     OW 2778   1.347   2.921   3.096
  921SOL    HW1 2779   1.371   2.858   3.022
  921SOL    HW2 2780   1.257   2.961   3.078
  922SOL     OW 2781   1.302   2.717   2.171
  922SOL    HW1 2782   1.216   2.686   2.213
  922SOL    HW2 2783   1.298   2.703   2.072
  923SOL     OW 2784   1.759   3.609   3.016
  923SOL    HW1 2785   1.820   3.639   2.943
  923SOL    HW2 2786   1.721   3.520   2.994
  924SOL     OW 2787   1.252   3.593   2.990
  924SOL    HW1 2788   1.336   3.598   2.936
  924SOL    HW2 2789   1.229   3.497   3.008
  925SOL     OW 2790   0.083   3.120   2.884
  925SOL    HW1 2791   0.078   3.119   2.984
  925SOL    HW2 2792   0.000   3.079   2.846
  926SOL     OW 2793   0.688   3.524   3.578
  926SOL    HW1 2794   0.632   3.605   3.587
  926SOL    HW2 2795   0.740   3.528   3.492
  927SOL     OW 2796   1.726   1.997   2.385
  927SOL    HW1 2797   1.799   1.980   2.318
  927SOL    HW2 2798   1.695   1.910   2.423
  928SOL     OW 2799   1.388   3.435   2.339
  928SOL    HW1 2800   1.455   3.447   2.265
  928SOL    HW2 2801   1.348   3.524   2.362
  929SOL     OW 2802   0.130   3.656   3.713
  929SOL    HW1 2803   0.089   3.582   3.766
  929SOL    HW2 2804   0.194   3.707   3.771
  930SOL     OW 2805   1.280   2.789   2.534
  930SOL    HW1 2806   1.340   2.708   2.536
  930SOL    HW2 2807   1.320   2.858   2.474
  931SOL     OW 2808   0.830   3.135   3.284
  931SOL    HW1 2809   0.825   3.168   3.379
  931SOL    HW2 2810   0.744   3.154   3.238
  932SOL     OW 2811   0.672   3.478   2.016
  932SOL    HW1 2812   0.681   3.488   1.917
  932SOL    HW2 2813   0.632   3.389   2.037
  933SOL     OW 2814   1.650   3.582   3.256
  933SOL    HW1 2815   1.703   3.592   3.172
  933SOL    HW2 2816   1.623   3.672   3.290
  934SOL     OW 2817   1.841   2.037   2.825
  934SOL    HW1 2818   1.880   1.952   2.789
  934SOL    HW2 2819   1.743   2.039   2.806
  935SOL     OW 2820   0.263   2.188   2.582
  935SOL    HW1 2821   0.184   2.239   2.548
  935SOL    HW2 2822   0.254   2.173   2.680
  936SOL     OW 2823   1.194   3.474   1.893
  936SOL    HW1 2824   1.200   3.381   1.930
  936SOL    HW2 2825   1.135   3.474   1.813
  937SOL     OW 2826   0.822   2.864   3.234
  937SOL    HW1 2827   0.862   2.863   3.142
  937SOL    HW2 2828   0.832   2.956   3.274
  938SOL     OW 2829   0.916   2.772   2.153
  938SOL    HW1 2830   0.979   2.810   2.085
  938SOL    HW2 2831   0.956   2.689   2.192
  939SOL     OW 2832   1.504   3.469   1.906
  939SOL    HW1 2833   1.412   3.506   1.913
  939SOL    HW2 2834   1.542   3.489   1.816
  940SOL     OW 2835   0.372   3.150   3.352
  940SOL    HW1 2836   0.359   3.243   3.318
  940SOL    HW2 2837   0.288   3.098   3.339
  941SOL     OW 2838   1.614   3.154   3.151
  941SOL    HW1 2839   1.674   3.157   3.231
  941SOL    HW2 2840   1.539   3.218   3.164
  942SOL     OW 2841   1.039   2.960   2.558
  942SOL    HW1 2842   0.969   2.913   2.612
  942SOL    HW2 2843   1.098   2.892   2.515
  943SOL     OW 2844   1.014   2.098   2.833
  943SOL    HW1 2845   1.006   2.062   2.740
  943SOL    HW2 2846   1.012   2.022   2.898
  944SOL     OW 2847   0.590   3.349   2.353
  944SOL    HW1 2848   0.632   3.291   2.283
  944SOL    HW2 2849   0.546   3.428   2.309
  945SOL     OW 2850   1.709   2.247   3.243
  945SOL    HW1 2851   1.782   2.316   3.247
  945SOL    HW2 2852   1.737   2.172   3.184
  946SOL     OW 2853   0.255   3.210   2.152
  946SOL    HW1 2854   0.159   3.211   2.125
  946SOL    HW2 2855   0.267   3.263   2.236
  947SOL     OW 2856   0.105   2.875   3.588
  947SOL    HW1 2857   0.028   2.842   3.642
  947SOL    HW2 2858   0.190   2.845   3.630
  948SOL     OW 2859   0.672   2.065   3.351
  948SOL    HW1 2860   0.762   2.049   3.311
  948SOL    HW2 2861   0.680   2.070   3.450
  949SOL     OW 2862   0.075   2.207   1.895
  949SOL    HW1 2863  -0.017   2.179   1.866
  949SOL    HW2 2864   0.106   2.284   1.839
  950SOL     OW 2865   1.440   2.718   3.260
  950SOL    HW1 2866   1.383   2.770   3.197
  950SOL    HW2 2867   1.536   2.730   3.236
  951SOL     OW 2868   0.072   2.028   2.180
  951SOL    HW1 2869   0.055   2.111   2.126
  951SOL    HW2 2870   0.162   1.991   2.158
  952SOL     OW 2871   1.183   3.197   1.981
  952SOL    HW1 2872   1.084   3.186   1.983
  952SOL    HW2 2873   1.217   3.212   2.074
  953SOL     OW 2874   0.613   2.704   3.293
  953SOL    HW1 2875   0.669   2.785   3.276
  953SOL    HW2 2876   0.672   2.624   3.296
  954SOL     OW 2877   1.493   3.629   2.821
  954SOL    HW1 2878   1.526   3.693   2.752
  954SOL    HW2 2879   1.559   3.623   2.896
  955SOL     OW 2880   0.716   2.427   3.570
  955SOL    HW1 2881   0.735   2.492   3.644
  955SOL    HW2 2882   0.776   2.347   3.579
  956SOL     OW 2883   1.450   3.082   3.495
  956SOL    HW1 2884   1.441   3.072   3.594
  956SOL    HW2 2885   1.546   3.075   3.469
  957SOL     OW 2886   0.390   3.603   3.422
  957SOL    HW1 2887   0.299   3.644   3.420
  957SOL    HW2 2888   0.383   3.509   3.454
  958SOL     OW 2889   1.674   2.745   3.116
  958SOL    HW1 2890   1.647   2.656   3.079
  958SOL    HW2 2891   1.675   2.813   3.043
  959SOL     OW 2892   1.225   2.187   2.311
  959SOL    HW1 2893   1.290   2.113   2.300
  959SOL    HW2 2894   1.245   2.237   2.395
  960SOL     OW 2895   0.594   2.607   2.514
  960SOL    HW1 2896   0.644   2.692   2.495
  960SOL    HW2 2897   0.506   2.609   2.466
  961SOL     OW 2898   1.777   2.204   3.504
  961SOL    HW1 2899   1.760   2.235   3.410
  961SOL    HW2 2900   1.693   2.167   3.542
  962SOL     OW 2901   1.730   2.796   3.379
  962SOL    HW1 2902   1.768   2.887   3.394
  962SOL    HW2 2903   1.722   2.779   3.280
  963SOL     OW 2904   0.859   3.236   1.878
  963SOL    HW1 2905   0.813   3.251   1.966
  963SOL    HW2 2906   0.903   3.321   1.848
  964SOL     OW 2907   0.661   3.652   2.815
  964SOL    HW1 2908   0.615   3.740   2.802
  964SOL    HW2 2909   0.760   3.664   2.808
  965SOL     OW 2910   0.859   2.818   2.723
  965SOL    HW1 2911   0.913   2.749   2.771
  965SOL    HW2 2912   0.827   2.887   2.789
  966SOL     OW 2913   1.083   2.846   1.949
  966SOL    HW1 2914   1.060   2.899   1.867
  966SOL    HW2 2915   1.164   2.790   1.930
  967SOL     OW 2916   1.861   3.431   2.713
  967SOL    HW1 2917   1.790   3.419   2.643
  967SOL    HW2 2918   1.862   3.352   2.773
  968SOL     OW 2919   0.221   3.176   3.706
  968SOL    HW1 2920   0.156   3.103   3.685
  968SOL    HW2 2921   0.225   3.190   3.804
  969SOL     OW 2922   0.079   3.102   2.515
  969SOL    HW1 2923   0.078   3.055   2.603
  969SOL    HW2 2924   0.161   3.074   2.464
  970SOL     OW 2925   0.672   3.253   3.486
  970SOL    HW1 2926   0.594   3.203   3.524
  970SOL    HW2 2927   0.669   3.348   3.517
  971SOL     OW 2928   1.824   2.054   3.089
  971SOL    HW1 2929   1.820   1.964   3.133
  971SOL    HW2 2930   1.827   2.043   2.990
  972SOL     OW 2931   0.428   2.286   2.382
  972SOL    HW1 2932   0.458   2.214   2.320
  972SOL    HW2 2933   0.389   2.246   2.465
  973SOL     OW 2934   1.705   3.349   2.966
  973SOL    HW1 2935   1.612   3.324   2.939
  973SOL    HW2 2936   1.731   3.299   3.048
  974SOL     OW 2937   0.317   2.409   3.142
  974SOL    HW1 2938   0.355   2.350   3.214
  974SOL    HW2 2939   0.357   2.383   3.054
  975SOL     OW 2940   0.812   3.448   2.549
  975SOL    HW1 2941   0.844   3.458   2.455
  975SOL    HW2 2942   0.733   3.386   2.551
  976SOL     OW 2943   1.424   2.076   2.974
  976SOL    HW1 2944   1.476   2.011   3.029
  976SOL    HW2 2945   1.375   2.139   3.035
  977SOL     OW 2946   1.001   1.896   3.016
  977SOL    HW1 2947   0.938   1.824   2.985
  977SOL    HW2 2948   1.094   1.860   3.016
  978SOL     OW 2949   0.770   3.192   2.163
  978SOL    HW1 2950   0.724   3.105   2.180
  978SOL    HW2 2951   0.861   3.189   2.204
  979SOL     OW 2952   0.618   3.429   3.146
  979SOL    HW1 2953   0.613   3.511   3.203
  979SOL    HW2 2954   0.707   3.426   3.101
  980SOL     OW 2955   1.352   1.914   2.030
  980SOL    HW1 2956   1.387   1.873   1.946
  980SOL    HW2 2957   1.262   1.876   2.050
  981SOL     OW 2958   1.300   2.315   2.553
  981SOL    HW1 2959   1.241   2.395   2.557
  981SOL    HW2 2960   1.315   2.280   2.646
  982SOL     OW 2961   1.593   2.083   2.744
  982SOL    HW1 2962   1.509   2.082   2.798
  982SOL    HW2 2963   1.595   2.166   2.688
  983SOL     OW 2964   0.039   2.939   2.162
  983SOL    HW1 2965   0.138   2.928   2.153
  983SOL    HW2 2966  -0.001   2.853   2.194
  984SOL     OW 2967   0.875   3.508   2.199
  984SOL    HW1 2968   0.798   3.473   2.145
  984SOL    HW2 2969   0.843   3.579   2.261
  985SOL     OW 2970   0.230   2.490   3.837
  985SOL    HW1 2971   0.137   2.488   3.874
  985SOL    HW2 2972   0.231   2.451   3.745
  986SOL     OW 2973   0.225   2.137   4.720
  986SOL    HW1 2974   0.260   2.120   4.812
  986SOL    HW2 2975   0.137   2.092   4.708
  987SOL     OW 2976   0.019   2.230   4.371
  987SOL    HW1 2977  -0.063   2.273   4.410
  987SOL    HW2 2978  -0.009   2.157   4.308
  988SOL     OW 2979   1.555   3.373   4.427
  988SOL    HW1 2980   1.498   3.357   4.508
  988SOL    HW2 2981   1.496   3.383   4.347
  989SOL     OW 2982   1.135   2.565   4.441
  989SOL    HW1 2983   1.192   2.643   4.416
  989SOL    HW2 2984   1.075   2.591   4.517
  990SOL     OW 2985   1.755   2.469   3.955
  990SOL    HW1 2986   1.743   2.456   3.856
  990SOL    HW2 2987   1.725   2.388   4.004
  991SOL     OW 2988   0.768   3.006   4.747
  991SOL    HW1 2989   0.690   3.023   4.807
  991SOL    HW2 2990   0.802   3.093   4.711
  992SOL     OW 2991   0.685   2.874   4.389
  992SOL    HW1 2992   0.754   2.858   4.459
  992SOL    HW2 2993   0.612   2.931   4.427
  993SOL     OW 2994   0.335   3.297   4.785
  993SOL    HW1 2995   0.257   3.266   4.732
  993SOL    HW2 2996   0.393   3.355   4.728
  994SOL     OW 2997   1.603   2.309   4.461
  994SOL    HW1 2998   1.529   2.355   4.411
  994SOL    HW2 2999   1.654   2.377   4.514
  995SOL     OW 3000   0.231   3.575   4.207
  995SOL    HW1 3001   0.265   3.652   4.261
  995SOL    HW2 3002   0.275   3.575   4.117
  996SOL     OW 3003   0.230   3.296   4.262
  996SOL    HW1 3004   0.204   3.392   4.262
  996SOL    HW2 3005   0.159   3.242   4.307
  997SOL     OW 3006   0.240   2.953   4.610
  997SOL    HW1 3007   0.254   2.869   4.662
  997SOL    HW2 3008   0.185   3.017   4.665
  998SOL     OW 3009   0.606   2.826   3.847
  998SOL    HW1 3010   0.613   2.910   3.793
  998SOL    HW2 3011   0.652   2.839   3.935
  999SOL     OW 3012   0.122   2.505   4.287
  999SOL    HW1 3013   0.077   2.417   4.304
  999SOL    HW2 3014   0.121   2.559   4.371
 1000SOL     OW 3015   1.842   3.629   4.083
 1000SOL    HW1 3016   1.896   3.600   4.163
 1000SOL    HW2 3017   1.872   3.719   4.054
 1001SOL     OW 3018   0.027   3.458   3.841
 1001SOL    HW1 3019   0.008   3.362   3.862
 1001SOL    HW2 3020  -0.006   3.516   3.916
 1002SOL     OW 3021   1.689   2.784   4.336
 1002SOL    HW1 3022   1.784   2.755   4.344
 1002SOL    HW2 3023   1.681   2.849   4.261
 1003SOL     OW 3024   1.641   2.970   4.156
 1003SOL    HW1 3025   1.727   2.972   4.104
 1003SOL    HW2 3026   1.655   3.017   4.244
 1004SOL     OW 3027   0.613   3.227   4.450
 1004SOL    HW1 3028   0.564   3.140   4.459
 1004SOL    HW2 3029   0.590   3.270   4.363
 1005SOL     OW 3030   0.809   1.866   4.226
 1005SOL    HW1 3031   0.849   1.957   4.217
 1005SOL    HW2 3032   0.709   1.874   4.232
 1006SOL     OW 3033   0.197   2.838   4.988
 1006SOL    HW1 3034   0.286   2.793   4.974
 1006SOL    HW2 3035   0.124   2.773   4.969
 1007SOL     OW 3036   1.525   2.861   3.914
 1007SOL    HW1 3037   1.462   2.785   3.927
 1007SOL    HW2 3038   1.573   2.879   4.000
 1008SOL     OW 3039   1.466   3.279   4.677
 1008SOL    HW1 3040   1.407   3.285   4.757
 1008SOL    HW2 3041   1.451   3.191   4.631
 1009SOL     OW 3042   1.667   3.576   4.296
 1009SOL    HW1 3043   1.626   3.553   4.208
 1009SOL    HW2 3044   1.649   3.502   4.361
 1010SOL     OW 3045   0.598   2.591   3.994
 1010SOL    HW1 3046   0.622   2.660   3.926
 1010SOL    HW2 3047   0.520   2.624   4.048
 1011SOL     OW 3048   1.281   2.207   4.668
 1011SOL    HW1 3049   1.195   2.157   4.655
 1011SOL    HW2 3050   1.343   2.153   4.724
 1012SOL     OW 3051   1.576   3.524   4.031
 1012SOL    HW1 3052   1.665   3.570   4.034
 1012SOL    HW2 3053   1.555   3.500   3.936
 1013SOL     OW 3054   1.041   2.563   4.153
 1013SOL    HW1 3055   1.067   2.559   4.249
 1013SOL    HW2 3056   0.956   2.512   4.139
 1014SOL     OW 3057   0.076   2.673   4.513
 1014SOL    HW1 3058   0.175   2.661   4.522
 1014SOL    HW2 3059   0.052   2.768   4.534
 1015SOL     OW 3060   0.865   2.210   3.919
 1015SOL    HW1 3061   0.924   2.273   3.870
 1015SOL    HW2 3062   0.884   2.116   3.890
 1016SOL     OW 3063   1.362   3.006   4.269
 1016SOL    HW1 3064   1.445   2.977   4.221
 1016SOL    HW2 3065   1.313   3.073   4.213
 1017SOL     OW 3066   0.550   2.058   4.609
 1017SOL    HW1 3067   0.545   2.053   4.709
 1017SOL    HW2 3068   0.552   2.154   4.580
 1018SOL     OW 3069   1.008   3.318   4.201
 1018SOL    HW1 3070   0.962   3.390   4.149
 1018SOL    HW2 3071   1.004   3.338   4.299
 1019SOL     OW 3072   0.351   3.663   4.577
 1019SOL    HW1 3073   0.401   3.577   4.583
 1019SOL    HW2 3074   0.416   3.740   4.574
 1020SOL     OW 3075   1.795   2.928   4.597
 1020SOL    HW1 3076   1.733   2.913   4.521
 1020SOL    HW2 3077   1.743   2.939   4.682
 1021SOL     OW 3078   0.321   2.805   3.966
 1021SOL    HW1 3079   0.403   2.844   3.924
 1021SOL    HW2 3080   0.294   2.723   3.917
 1022SOL     OW 3081   1.458   2.597   4.452
 1022SOL    HW1 3082   1.453   2.532   4.527
 1022SOL    HW2 3083   1.538   2.656   4.465
 1023SOL     OW 3084   1.111   3.638   3.961
 1023SOL    HW1 3085   1.051   3.576   4.011
 1023SOL    HW2 3086   1.142   3.594   3.876
 1024SOL     OW 3087   1.632   3.239   3.805
 1024SOL    HW1 3088   1.600   3.333   3.795
 1024SOL    HW2 3089   1.556   3.176   3.793
 1025SOL     OW 3090   0.464   3.605   4.047
 1025SOL    HW1 3091   0.497   3.644   4.133
 1025SOL    HW2 3092   0.540   3.598   3.982
 1026SOL     OW 3093   1.400   1.969   4.150
 1026SOL    HW1 3094   1.376   1.932   4.060
 1026SOL    HW2 3095   1.499   1.985   4.154
 1027SOL     OW 3096   0.249   3.647   4.965
 1027SOL    HW1 3097   0.306   3.582   5.015
 1027SOL    HW2 3098   0.233   3.614   4.872
 1028SOL     OW 3099   0.940   3.560   4.628
 1028SOL    HW1 3100   1.020   3.503   4.649
 1028SOL    HW2 3101   0.891   3.520   4.551
 1029SOL     OW 3102   0.382   2.562   4.204
 1029SOL    HW1 3103   0.427   2.472   4.201
 1029SOL    HW2 3104   0.288   2.551   4.237
 1030SOL     OW 3105   0.614   1.984   3.841
 1030SOL    HW1 3106   0.712   1.962   3.848
 1030SOL    HW2 3107   0.583   1.967   3.748
 1031SOL     OW 3108   0.803   3.264   4.648
 1031SOL    HW1 3109   0.893   3.278   4.606
 1031SOL    HW2 3110   0.732   3.266   4.577
 1032SOL     OW 3111   0.922   2.365   4.623
 1032SOL    HW1 3112   0.897   2.356   4.527
 1032SOL    HW2 3113   0.970   2.283   4.654
 1033SOL     OW 3114   0.539   1.926   4.236
 1033SOL    HW1 3115   0.458   1.927   4.294
 1033SOL    HW2 3116   0.542   2.009   4.181
 1034SOL     OW 3117   1.434   3.050   3.765
 1034SOL    HW1 3118   1.466   2.974   3.822
 1034SOL    HW2 3119   1.342   3.077   3.795
 1035SOL     OW 3120   0.297   1.897   3.895
 1035SOL    HW1 3121   0.346   1.981   3.874
 1035SOL    HW2 3122   0.359   1.832   3.940
 1036SOL     OW 3123   0.935   2.098   4.204
 1036SOL    HW1 3124   0.887   2.139   4.126
 1036SOL    HW2 3125   1.034   2.096   4.185
 1037SOL     OW 3126   1.227   3.432   4.517
 1037SOL    HW1 3127   1.248   3.506   4.452
 1037SOL    HW2 3128   1.295   3.432   4.590
 1038SOL     OW 3129   0.459   3.014   4.465
 1038SOL    HW1 3130   0.388   2.987   4.530
 1038SOL    HW2 3131   0.433   2.986   4.372
 1039SOL     OW 3132   1.271   3.659   4.315
 1039SOL    HW1 3133   1.315   3.723   4.251
 1039SOL    HW2 3134   1.221   3.711   4.385
 1040SOL     OW 3135   1.032   2.411   3.740
 1040SOL    HW1 3136   0.991   2.493   3.701
 1040SOL    HW2 3137   1.096   2.437   3.813
 1041SOL     OW 3138   0.866   2.316   4.366
 1041SOL    HW1 3139   0.834   2.388   4.304
 1041SOL    HW2 3140   0.890   2.235   4.313
 1042SOL     OW 3141   1.017   1.901   4.477
 1042SOL    HW1 3142   0.945   1.906   4.408
 1042SOL    HW2 3143   0.993   1.832   4.546
 1043SOL     OW 3144   1.429   3.035   4.591
 1043SOL    HW1 3145   1.374   2.951   4.584
 1043SOL    HW2 3146   1.455   3.064   4.499
 1044SOL     OW 3147   1.466   2.452   4.716
 1044SOL    HW1 3148   1.436   2.357   4.723
 1044SOL    HW2 3149   1.539   2.468   4.782
 1045SOL     OW 3150   1.857   2.695   4.101
 1045SOL    HW1 3151   1.899   2.631   4.165
 1045SOL    HW2 3152   1.819   2.644   4.023
 1046SOL     OW 3153   0.488   3.247   3.898
 1046SOL    HW1 3154   0.401   3.232   3.945
 1046SOL    HW2 3155   0.471   3.273   3.803
 1047SOL     OW 3156   1.664   3.142   4.381
 1047SOL    HW1 3157   1.763   3.150   4.395
 1047SOL    HW2 3158   1.619   3.226   4.412
 1048SOL     OW 3159   1.390   2.437   3.802
 1048SOL    HW1 3160   1.336   2.416   3.883
 1048SOL    HW2 3161   1.481   2.396   3.811
 1049SOL     OW 3162   0.527   2.118   4.052
 1049SOL    HW1 3163   0.554   2.059   3.977
 1049SOL    HW2 3164   0.527   2.213   4.021
 1050SOL     OW 3165   1.111   3.057   4.824
 1050SOL    HW1 3166   1.071   3.101   4.905
 1050SOL    HW2 3167   1.070   3.094   4.741
 1051SOL     OW 3168   1.638   2.961   4.803
 1051SOL    HW1 3169   1.643   3.042   4.862
 1051SOL    HW2 3170   1.552   2.963   4.752
 1052SOL     OW 3171   0.705   2.912   4.092
 1052SOL    HW1 3172   0.691   2.919   4.191
 1052SOL    HW2 3173   0.789   2.861   4.074
 1053SOL     OW 3174   0.410   2.675   4.975
 1053SOL    HW1 3175   0.496   2.687   5.025
 1053SOL    HW2 3176   0.368   2.588   5.002
 1054SOL     OW 3177   0.367   2.962   4.225
 1054SOL    HW1 3178   0.360   3.045   4.169
 1054SOL    HW2 3179   0.371   2.882   4.165
 1055SOL     OW 3180   0.566   2.399   4.589
 1055SOL    HW1 3181   0.578   2.465   4.515
 1055SOL    HW2 3182   0.612   2.433   4.672
 1056SOL     OW 3183   1.252   3.210   4.112
 1056SOL    HW1 3184   1.302   3.287   4.152
 1056SOL    HW2 3185   1.157   3.212   4.144
 1057SOL     OW 3186   1.272   3.307   4.866
 1057SOL    HW1 3187   1.319   3.320   4.953
 1057SOL    HW2 3188   1.206   3.233   4.875
 1058SOL     OW 3189   1.582   2.501   4.196
 1058SOL    HW1 3190   1.551   2.562   4.269
 1058SOL    HW2 3191   1.632   2.553   4.127
 1059SOL     OW 3192   0.354   3.372   5.053
 1059SOL    HW1 3193   0.333   3.328   4.966
 1059SOL    HW2 3194   0.451   3.398   5.056
 1060SOL     OW 3195   0.573   2.732   4.753
 1060SOL    HW1 3196   0.617   2.821   4.744
 1060SOL    HW2 3197   0.510   2.732   4.830
 1061SOL     OW 3198   1.209   2.387   3.999
 1061SOL    HW1 3199   1.222   2.303   4.053
 1061SOL    HW2 3200   1.180   2.461   4.059
 1062SOL     OW 3201   0.732   2.496   4.788
 1062SOL    HW1 3202   0.791   2.470   4.712
 1062SOL    HW2 3203   0.704   2.592   4.777
 1063SOL     OW 3204   0.307   1.925   4.342
 1063SOL    HW1 3205   0.296   2.019   4.375
 1063SOL    HW2 3206   0.302   1.862   4.419
 1064SOL     OW 3207   1.622   2.229   4.098
 1064SOL    HW1 3208   1.624   2.153   4.162
 1064SOL    HW2 3209   1.574   2.306   4.138
 1065SOL     OW 3210   1.023   2.628   4.690
 1065SOL    HW1 3211   1.038   2.649   4.786
 1065SOL    HW2 3212   0.993   2.533   4.681
 1066SOL     OW 3213   1.540   2.136   3.849
 1066SOL    HW1 3214   1.479   2.061   3.872
 1066SOL    HW2 3215   1.562   2.188   3.932
 1067SOL     OW 3216   1.303   2.700   3.766
 1067SOL    HW1 3217   1.337   2.607   3.781
 1067SOL    HW2 3218   1.321   2.727   3.671
 1068SOL     OW 3219   1.068   3.195   4.573
 1068SOL    HW1 3220   1.075   3.111   4.518
 1068SOL    HW2 3221   1.130   3.264   4.537
 1069SOL     OW 3222   0.319   2.672   4.673
 1069SOL    HW1 3223   0.412   2.708   4.678
 1069SOL    HW2 3224   0.313   2.587   4.725
 1070SOL     OW 3225   0.339   2.371   4.730
 1070SOL    HW1 3226   0.287   2.288   4.713
 1070SOL    HW2 3227   0.416   2.376   4.666
 1071SOL     OW 3228   0.008   3.188   3.924
 1071SOL    HW1 3229  -0.085   3.209   3.893
 1071SOL    HW2 3230   0.018   3.089   3.937
 1072SOL     OW 3231   0.088   3.663   4.651
 1072SOL    HW1 3232   0.046   3.577   4.624
 1072SOL    HW2 3233   0.182   3.666   4.617
 1073SOL     OW 3234   0.504   3.430   4.634
 1073SOL    HW1 3235   0.570   3.504   4.643
 1073SOL    HW2 3236   0.548   3.351   4.592
 1074SOL     OW 3237   1.002   2.658   4.962
 1074SOL    HW1 3238   1.043   2.626   5.048
 1074SOL    HW2 3239   0.906   2.631   4.959
 1075SOL     OW 3240   0.815   2.434   4.049
 1075SOL    HW1 3241   0.822   2.345   4.003
 1075SOL    HW2 3242   0.721   2.468   4.041
 1076SOL     OW 3243   0.671   2.326   4.993
 1076SOL    HW1 3244   0.637   2.237   4.963
 1076SOL    HW2 3245   0.697   2.380   4.913
 1077SOL     OW 3246   0.473   2.362   3.915
 1077SOL    HW1 3247   0.534   2.442   3.919
 1077SOL    HW2 3248   0.378   2.393   3.922
 1078SOL     OW 3249   1.302   2.717   4.033
 1078SOL    HW1 3250   1.216   2.686   4.075
 1078SOL    HW2 3251   1.298   2.703   3.934
 1079SOL     OW 3252   1.759   3.609   4.878
 1079SOL    HW1 3253   1.820   3.639   4.805
 1079SOL    HW2 3254   1.721   3.520   4.856
 1080SOL     OW 3255   0.083   3.120   4.746
 1080SOL    HW1 3256   0.078   3.119   4.846
 1080SOL    HW2 3257   0.000   3.079   4.708
 1081SOL     OW 3258   1.726   1.997   4.247
 1081SOL    HW1 3259   1.799   1.980   4.180
 1081SOL    HW2 3260   1.695   1.910   4.285
 1082SOL     OW 3261   1.388   3.435   4.201
 1082SOL    HW1 3262   1.455   3.447   4.127
 1082SOL    HW2 3263   1.348   3.524   4.224
 1083SOL     OW 3264   1.280   2.789   4.396
 1083SOL    HW1 3265   1.340   2.708   4.398
 1083SOL    HW2 3266   1.320   2.858   4.336
 1084SOL     OW 3267   0.672   3.478   3.878
 1084SOL    HW1 3268   0.681   3.488   3.779
 1084SOL    HW2 3269   0.632   3.389   3.899
 1085SOL     OW 3270   1.841   2.037   4.687
 1085SOL    HW1 3271   1.880   1.952   4.651
 1085SOL    HW2 3272   1.743   2.039   4.668
 1086SOL     OW 3273   0.263   2.188   4.444
 1086SOL    HW1 3274   0.184   2.239   4.410
 1086SOL    HW2 3275   0.254   2.173   4.542
 1087SOL     OW 3276   1.194   3.474   3.755
 1087SOL    HW1 3277   1.200   3.381   3.792
 1087SOL    HW2 3278   1.135   3.474   3.675
 1088SOL     OW 3279   0.822   2.864   5.096
 1088SOL    HW1 3280   0.862   2.863   5.004
 1088SOL    HW2 3281   0.832   2.956   5.136
 1089SOL     OW 3282   0.916   2.772   4.015
 1089SOL    HW1 3283   0.979   2.810   3.947
 1089SOL    HW2 3284   0.956   2.689   4.054
 1090SOL     OW 3285   1.504   3.469   3.768
 1090SOL    HW1 3286   1.412   3.506   3.775
 1090SOL    HW2 3287   1.542   3.489   3.678
 1091SOL     OW 3288   1.039   2.960   4.420
 1091SOL    HW1 3289   0.969   2.913   4.474
 1091SOL    HW2 3290   1.098   2.892   4.377
 1092SOL     OW 3291   1.014   2.098   4.695
 1092SOL    HW1 3292   1.006   2.062   4.602
 1092SOL    HW2 3293   1.012   2.022   4.760
 1093SOL     OW 3294   0.590   3.349   4.215
 1093SOL    HW1 3295   0.632   3.291   4.145
 1093SOL    HW2 3296   0.546   3.428   4.171
 1094SOL     OW 3297   0.255   3.210   4.014
 1094SOL    HW1 3298   0.159   3.211   3.987
 1094SOL    HW2 3299   0.267   3.263   4.098
 1095SOL     OW 3300   0.075   2.207   3.757
 1095SOL    HW1 3301  -0.017   2.179   3.728
 1095SOL    HW2 3302   0.106   2.284   3.701
 1096SOL     OW 3303   0.072   2.028   4.042
 1096SOL    HW1 3304   0.055   2.111   3.988
 1096SOL    HW2 3305   0.162   1.991   4.020
 1097SOL     OW 3306   1.183   3.197   3.843
 1097SOL    HW1 3307   1.084   3.186   3.845
 1097SOL    HW2 3308   1.217   3.212   3.936
 1098SOL     OW 3309   1.493   3.629   4.683
 1098SOL    HW1 3310   1.526   3.693   4.614
 1098SOL    HW2 3311   1.559   3.623   4.758
 1099SOL     OW 3312   1.674   2.745   4.978
 1099SOL    HW1 3313   1.647   2.656   4.941
 1099SOL    HW2 3314   1.675   2.813   4.905
 1100SOL     OW 3315   1.225   2.187   4.173
 1100SOL    HW1 3316   1.290   2.113   4.162
 1100SOL    HW2 3317   1.245   2.237   4.257
 1101SOL     OW 3318   0.594   2.607   4.376
 1101SOL    HW1 3319   0.644   2.692   4.357
 1101SOL    HW2 3320   0.506   2.609   4.328
 1102SOL     OW 3321   0.859   3.236   3.740
 1102SOL    HW1 3322   0.813   3.251   3.828
 1102SOL    HW2 3323   0.903   3.321   3.710
 1103SOL     OW 3324   0.661   3.652   4.677
 1103SOL    HW1 3325   0.615   3.740   4.664
 1103SOL    HW2 3326   0.760   3.664   4.670
 1104SOL     OW 3327   0.859   2.818   4.585
 1104SOL    HW1 3328   0.913   2.749   4.633
 1104SOL    HW2 3329   0.827   2.887   4.651
 1105SOL     OW 3330   1.083   2.846   3.811
 1105SOL    HW1 3331   1.060   2.899   3.729
 1105SOL    HW2 3332   1.164   2.790   3.792
 1106SOL     OW 3333   1.861   3.431   4.575
 1106SOL    HW1 3334   1.790   3.419   4.505
 1106SOL    HW2 3335   1.862   3.352   4.635
 1107SOL     OW 3336   0.079   3.102   4.377
 1107SOL    HW1 3337   0.078   3.055   4.465
 1107SOL    HW2 3338   0.161   3.074   4.326
 1108SOL     OW 3339   1.824   2.054   4.951
 1108SOL    HW1 3340   1.820   1.964   4.995
 1108SOL    HW2 3341   1.827   2.043   4.852
 1109SOL     OW 3342   0.428   2.286   4.244
 1109SOL    HW1 3343   0.458   2.214   4.182
 1109SOL    HW2 3344   0.389   2.246   4.327
 1110SOL     OW 3345   0.812   3.448   4.411
 1110SOL    HW1 3346   0.844   3.458   4.317
 1110SOL    HW2 3347   0.733   3.386   4.413
 1111SOL     OW 3348   1.424   2.076   4.836
 1111SOL    HW1 3349   1.476   2.011   4.891
 1111SOL    HW2 3350   1.375   2.139   4.897
 1112SOL     OW 3351   0.770   3.192   4.025
 1112SOL    HW1 3352   0.724   3.105   4.042
 1112SOL    HW2 3353   0.861   3.189   4.066
 1113SOL     OW 3354   1.352   1.914   3.892
 1113SOL    HW1 3355   1.387   1.873   3.808
 1113SOL    HW2 3356   1.262   1.876   3.912
 1114SOL     OW 3357   1.300   2.315   4.415
 1114SOL    HW1 3358   1.241   2.395   4.419
 1114SOL    HW2 3359   1.315   2.280   4.508
 1115SOL     OW 3360   1.593   2.083   4.606
 1115SOL    HW1 3361   1.509   2.082   4.660
 1115SOL    HW2 3362   1.595   2.166   4.550
 1116SOL     OW 3363   0.039   2.939   4.024
 1116SOL    HW1 3364   0.138   2.928   4.015
 1116SOL    HW2 3365  -0.001   2.853   4.056
 1117SOL     OW 3366   0.875   3.508   4.061
 1117SOL    HW1 3367   0.798   3.473   4.007
 1117SOL    HW2 3368   0.843   3.579   4.123
 1118SOL     OW 3369   0.230   4.352   0.113
 1118SOL    HW1 3370   0.137   4.350   0.150
 1118SOL    HW2 3371   0.231   4.313   0.021
 1119SOL     OW 3372   0.225   3.999   0.996
 1119SOL    HW1 3373   0.260   3.982   1.088
 1119SOL    HW2 3374   0.137   3.954   0.984
 1120SOL     OW 3375   0.019   4.092   0.647
 1120SOL    HW1 3376  -0.063   4.135   0.686
 1120SOL    HW2 3377  -0.009   4.019   0.584
 1121SOL     OW 3378   1.135   4.427   0.717
 1121SOL    HW1 3379   1.192   4.505   0.692
 1121SOL    HW2 3380   1.075   4.453   0.793
 1122SOL     OW 3381   1.755   4.331   0.231
 1122SOL    HW1 3382   1.743   4.318   0.132
 1122SOL    HW2 3383   1.725   4.250   0.280
 1123SOL     OW 3384   0.768   4.868   1.023
 1123SOL    HW1 3385   0.690   4.885   1.083
 1123SOL    HW2 3386   0.802   4.955   0.987
 1124SOL     OW 3387   0.850   4.522   1.823
 1124SOL    HW1 3388   0.846   4.598   1.888
 1124SOL    HW2 3389   0.872   4.558   1.732
 1125SOL     OW 3390   0.685   4.736   0.665
 1125SOL    HW1 3391   0.754   4.720   0.735
 1125SOL    HW2 3392   0.612   4.793   0.703
 1126SOL     OW 3393   1.460   5.229   1.339
 1126SOL    HW1 3394   1.484   5.323   1.365
 1126SOL    HW2 3395   1.444   5.175   1.421
 1127SOL     OW 3396   0.438   4.116   1.499
 1127SOL    HW1 3397   0.520   4.060   1.508
 1127SOL    HW2 3398   0.357   4.058   1.503
 1128SOL     OW 3399   1.603   4.171   0.737
 1128SOL    HW1 3400   1.529   4.217   0.687
 1128SOL    HW2 3401   1.654   4.239   0.790
 1129SOL     OW 3402   0.240   4.815   0.886
 1129SOL    HW1 3403   0.254   4.731   0.938
 1129SOL    HW2 3404   0.185   4.879   0.941
 1130SOL     OW 3405   0.606   4.688   0.123
 1130SOL    HW1 3406   0.613   4.772   0.069
 1130SOL    HW2 3407   0.652   4.701   0.211
 1131SOL     OW 3408   1.594   3.838   1.480
 1131SOL    HW1 3409   1.576   3.905   1.408
 1131SOL    HW2 3410   1.591   3.884   1.569
 1132SOL     OW 3411   0.122   4.367   0.563
 1132SOL    HW1 3412   0.077   4.279   0.580
 1132SOL    HW2 3413   0.121   4.421   0.647
 1133SOL     OW 3414   1.689   4.646   0.612
 1133SOL    HW1 3415   1.784   4.617   0.620
 1133SOL    HW2 3416   1.681   4.711   0.537
 1134SOL     OW 3417   0.113   4.461   1.597
 1134SOL    HW1 3418   0.201   4.448   1.642
 1134SOL    HW2 3419   0.100   4.558   1.575
 1135SOL     OW 3420   0.613   5.089   0.726
 1135SOL    HW1 3421   0.564   5.002   0.735
 1135SOL    HW2 3422   0.590   5.132   0.639
 1136SOL     OW 3423   1.293   4.952   1.423
 1136SOL    HW1 3424   1.330   4.879   1.365
 1136SOL    HW2 3425   1.345   4.957   1.508
 1137SOL     OW 3426   0.809   3.728   0.502
 1137SOL    HW1 3427   0.849   3.819   0.493
 1137SOL    HW2 3428   0.709   3.736   0.508
 1138SOL     OW 3429   0.197   4.700   1.264
 1138SOL    HW1 3430   0.286   4.655   1.250
 1138SOL    HW2 3431   0.124   4.635   1.245
 1139SOL     OW 3432   1.525   4.723   0.190
 1139SOL    HW1 3433   1.462   4.647   0.203
 1139SOL    HW2 3434   1.573   4.741   0.276
 1140SOL     OW 3435   0.317   3.975   1.801
 1140SOL    HW1 3436   0.388   4.046   1.807
 1140SOL    HW2 3437   0.229   4.014   1.829
 1141SOL     OW 3438   0.598   4.453   0.270
 1141SOL    HW1 3439   0.622   4.522   0.202
 1141SOL    HW2 3440   0.520   4.486   0.324
 1142SOL     OW 3441   1.281   4.069   0.944
 1142SOL    HW1 3442   1.195   4.019   0.931
 1142SOL    HW2 3443   1.343   4.015   1.000
 1143SOL     OW 3444   0.807   4.329   1.465
 1143SOL    HW1 3445   0.760   4.326   1.554
 1143SOL    HW2 3446   0.756   4.274   1.399
 1144SOL     OW 3447   1.394   4.193   1.674
 1144SOL    HW1 3448   1.374   4.236   1.762
 1144SOL    HW2 3449   1.472   4.131   1.683
 1145SOL     OW 3450   0.973   4.614   1.572
 1145SOL    HW1 3451   1.019   4.530   1.543
 1145SOL    HW2 3452   0.917   4.648   1.497
 1146SOL     OW 3453   0.991   4.134   1.242
 1146SOL    HW1 3454   0.914   4.168   1.296
 1146SOL    HW2 3455   0.957   4.083   1.163
 1147SOL     OW 3456   1.041   4.425   0.429
 1147SOL    HW1 3457   1.067   4.421   0.525
 1147SOL    HW2 3458   0.956   4.374   0.415
 1148SOL     OW 3459   0.076   4.535   0.789
 1148SOL    HW1 3460   0.175   4.523   0.798
 1148SOL    HW2 3461   0.052   4.630   0.810
 1149SOL     OW 3462   0.865   4.072   0.195
 1149SOL    HW1 3463   0.924   4.135   0.146
 1149SOL    HW2 3464   0.884   3.978   0.166
 1150SOL     OW 3465   1.719   4.309   1.831
 1150SOL    HW1 3466   1.693   4.398   1.795
 1150SOL    HW2 3467   1.717   4.241   1.758
 1151SOL     OW 3468   0.550   3.920   0.885
 1151SOL    HW1 3469   0.545   3.915   0.985
 1151SOL    HW2 3470   0.552   4.016   0.856
 1152SOL     OW 3471   1.795   4.790   0.873
 1152SOL    HW1 3472   1.733   4.775   0.797
 1152SOL    HW2 3473   1.743   4.801   0.958
 1153SOL     OW 3474   0.321   4.667   0.242
 1153SOL    HW1 3475   0.403   4.706   0.200
 1153SOL    HW2 3476   0.294   4.585   0.193
 1154SOL     OW 3477   1.458   4.459   0.728
 1154SOL    HW1 3478   1.453   4.394   0.803
 1154SOL    HW2 3479   1.538   4.518   0.741
 1155SOL     OW 3480   0.202   4.009   1.498
 1155SOL    HW1 3481   0.122   4.069   1.485
 1155SOL    HW2 3482   0.192   3.960   1.584
 1156SOL     OW 3483   1.400   3.831   0.426
 1156SOL    HW1 3484   1.376   3.794   0.336
 1156SOL    HW2 3485   1.499   3.847   0.430
 1157SOL     OW 3486   0.382   4.424   0.480
 1157SOL    HW1 3487   0.427   4.334   0.477
 1157SOL    HW2 3488   0.288   4.413   0.513
 1158SOL     OW 3489   1.547   3.946   1.729
 1158SOL    HW1 3490   1.542   3.983   1.821
 1158SOL    HW2 3491   1.475   3.877   1.717
 1159SOL     OW 3492   0.614   3.846   0.117
 1159SOL    HW1 3493   0.712   3.824   0.124
 1159SOL    HW2 3494   0.583   3.829   0.024
 1160SOL     OW 3495   0.781   3.988   1.749
 1160SOL    HW1 3496   0.848   3.927   1.792
 1160SOL    HW2 3497   0.708   4.007   1.814
 1161SOL     OW 3498   1.351   4.314   1.433
 1161SOL    HW1 3499   1.379   4.271   1.518
 1161SOL    HW2 3500   1.376   4.410   1.434
 1162SOL     OW 3501   0.922   4.227   0.899
 1162SOL    HW1 3502   0.897   4.218   0.803
 1162SOL    HW2 3503   0.970   4.145   0.930
 1163SOL     OW 3504   0.539   3.788   0.512
 1163SOL    HW1 3505   0.458   3.789   0.570
 1163SOL    HW2 3506   0.542   3.871   0.457
 1164SOL     OW 3507   0.297   3.759   0.171
 1164SOL    HW1 3508   0.346   3.843   0.150
 1164SOL    HW2 3509   0.359   3.694   0.216
 1165SOL     OW 3510   0.935   3.960   0.480
 1165SOL    HW1 3511   0.887   4.001   0.402
 1165SOL    HW2 3512   1.034   3.958   0.461
 1166SOL     OW 3513   1.076   4.407   1.464
 1166SOL    HW1 3514   0.996   4.346   1.467
 1166SOL    HW2 3515   1.157   4.354   1.440
 1167SOL     OW 3516   0.459   4.876   0.741
 1167SOL    HW1 3517   0.388   4.849   0.806
 1167SOL    HW2 3518   0.433   4.848   0.648
 1168SOL     OW 3519   1.032   4.273   0.016
 1168SOL    HW1 3520   0.991   4.355  -0.023
 1168SOL    HW2 3521   1.096   4.299   0.089
 1169SOL     OW 3522   0.078   4.280   1.386
 1169SOL    HW1 3523   0.170   4.279   1.345
 1169SOL    HW2 3524   0.072   4.354   1.453
 1170SOL     OW 3525   0.561   3.946   1.147
 1170SOL    HW1 3526   0.599   3.862   1.184
 1170SOL    HW2 3527   0.473   3.965   1.191
 1171SOL     OW 3528   0.866   4.178   0.642
 1171SOL    HW1 3529   0.834   4.250   0.580
 1171SOL    HW2 3530   0.890   4.097   0.589
 1172SOL     OW 3531   1.017   3.763   0.753
 1172SOL    HW1 3532   0.945   3.768   0.684
 1172SOL    HW2 3533   0.993   3.694   0.822
 1173SOL     OW 3534   1.429   4.897   0.867
 1173SOL    HW1 3535   1.374   4.813   0.860
 1173SOL    HW2 3536   1.455   4.926   0.775
 1174SOL     OW 3537   1.466   4.314   0.992
 1174SOL    HW1 3538   1.436   4.219   0.999
 1174SOL    HW2 3539   1.539   4.330   1.058
 1175SOL     OW 3540   1.857   4.557   0.377
 1175SOL    HW1 3541   1.899   4.493   0.441
 1175SOL    HW2 3542   1.819   4.506   0.299
 1176SOL     OW 3543   1.390   4.299   0.078
 1176SOL    HW1 3544   1.336   4.278   0.159
 1176SOL    HW2 3545   1.481   4.258   0.087
 1177SOL     OW 3546   0.527   3.980   0.328
 1177SOL    HW1 3547   0.554   3.921   0.253
 1177SOL    HW2 3548   0.527   4.075   0.297
 1178SOL     OW 3549   1.754   4.947   1.588
 1178SOL    HW1 3550   1.845   4.908   1.575
 1178SOL    HW2 3551   1.762   5.043   1.612
 1179SOL     OW 3552   1.638   4.823   1.079
 1179SOL    HW1 3553   1.643   4.904   1.138
 1179SOL    HW2 3554   1.552   4.825   1.028
 1180SOL     OW 3555   0.915   3.813   1.402
 1180SOL    HW1 3556   0.940   3.793   1.307
 1180SOL    HW2 3557   0.987   3.869   1.444
 1181SOL     OW 3558   0.705   4.774   0.368
 1181SOL    HW1 3559   0.691   4.781   0.467
 1181SOL    HW2 3560   0.789   4.723   0.350
 1182SOL     OW 3561   0.410   4.537   1.251
 1182SOL    HW1 3562   0.496   4.549   1.301
 1182SOL    HW2 3563   0.368   4.450   1.278
 1183SOL     OW 3564   1.274   4.110   1.262
 1183SOL    HW1 3565   1.295   4.184   1.326
 1183SOL    HW2 3566   1.185   4.127   1.219
 1184SOL     OW 3567   0.367   4.824   0.501
 1184SOL    HW1 3568   0.360   4.907   0.445
 1184SOL    HW2 3569   0.371   4.744   0.441
 1185SOL     OW 3570   0.566   4.261   0.865
 1185SOL    HW1 3571   0.578   4.327   0.791
 1185SOL    HW2 3572   0.612   4.295   0.948
 1186SOL     OW 3573   1.582   4.363   0.472
 1186SOL    HW1 3574   1.551   4.424   0.545
 1186SOL    HW2 3575   1.632   4.415   0.403
 1187SOL     OW 3576   0.402   4.475   1.598
 1187SOL    HW1 3577   0.470   4.530   1.551
 1187SOL    HW2 3578   0.442   4.387   1.625
 1188SOL     OW 3579   1.587   4.503   1.670
 1188SOL    HW1 3580   1.495   4.541   1.665
 1188SOL    HW2 3581   1.647   4.550   1.605
 1189SOL     OW 3582   1.013   3.829   1.770
 1189SOL    HW1 3583   1.019   3.914   1.718
 1189SOL    HW2 3584   1.045   3.753   1.713
 1190SOL     OW 3585   0.504   3.774   1.740
 1190SOL    HW1 3586   0.462   3.717   1.670
 1190SOL    HW2 3587   0.438   3.843   1.772
 1191SOL     OW 3588   0.573   4.594   1.029
 1191SOL    HW1 3589   0.617   4.683   1.020
 1191SOL    HW2 3590   0.510   4.594   1.106
 1192SOL     OW 3591   1.360   4.586   1.045
 1192SOL    HW1 3592   1.285   4.586   0.979
 1192SOL    HW2 3593   1.397   4.494   1.054
 1193SOL     OW 3594   1.209   4.249   0.275
 1193SOL    HW1 3595   1.222   4.165   0.329
 1193SOL    HW2 3596   1.180   4.323   0.335
 1194SOL     OW 3597   0.307   3.937   1.231
 1194SOL    HW1 3598   0.284   3.974   1.321
 1194SOL    HW2 3599   0.277   3.842   1.225
 1195SOL     OW 3600   0.037   5.034   1.282
 1195SOL    HW1 3601   0.090   4.985   1.350
 1195SOL    HW2 3602   0.059   5.132   1.287
 1196SOL     OW 3603   0.732   4.358   1.064
 1196SOL    HW1 3604   0.791   4.332   0.988
 1196SOL    HW2 3605   0.704   4.454   1.053
 1197SOL     OW 3606   1.728   4.659   1.854
 1197SOL    HW1 3607   1.682   4.652   1.765
 1197SOL    HW2 3608   1.666   4.703   1.920
 1198SOL     OW 3609   0.307   3.787   0.618
 1198SOL    HW1 3610   0.296   3.881   0.651
 1198SOL    HW2 3611   0.302   3.724   0.695
 1199SOL     OW 3612   1.622   4.091   0.374
 1199SOL    HW1 3613   1.624   4.015   0.438
 1199SOL    HW2 3614   1.574   4.168   0.414
 1200SOL     OW 3615   1.023   4.490   0.966
 1200SOL    HW1 3616   1.038   4.511   1.062
 1200SOL    HW2 3617   0.993   4.395   0.957
 1201SOL     OW 3618   0.350   4.622   1.804
 1201SOL    HW1 3619   0.426   4.666   1.852
 1201SOL    HW2 3620   0.385   4.575   1.722
 1202SOL     OW 3621   1.540   3.998   0.125
 1202SOL    HW1 3622   1.479   3.923   0.148
 1202SOL    HW2 3623   1.562   4.050   0.208
 1203SOL     OW 3624   1.303   4.562   0.042
 1203SOL    HW1 3625   1.337   4.469   0.057
 1203SOL    HW2 3626   1.321   4.589  -0.053
 1204SOL     OW 3627   0.319   4.534   0.949
 1204SOL    HW1 3628   0.412   4.570   0.954
 1204SOL    HW2 3629   0.313   4.449   1.001
 1205SOL     OW 3630   0.339   4.233   1.006
 1205SOL    HW1 3631   0.287   4.150   0.989
 1205SOL    HW2 3632   0.416   4.238   0.942
 1206SOL     OW 3633   1.138   4.104   1.678
 1206SOL    HW1 3634   1.093   4.167   1.742
 1206SOL    HW2 3635   1.231   4.135   1.661
 1207SOL     OW 3636   1.160   3.931   1.477
 1207SOL    HW1 3637   1.160   3.995   1.554
 1207SOL    HW2 3638   1.188   3.979   1.394
 1208SOL     OW 3639   1.002   4.520   1.238
 1208SOL    HW1 3640   1.043   4.488   1.324
 1208SOL    HW2 3641   0.906   4.493   1.235
 1209SOL     OW 3642   0.040   4.268   1.114
 1209SOL    HW1 3643   0.125   4.235   1.073
 1209SOL    HW2 3644   0.053   4.283   1.212
 1210SOL     OW 3645   0.189   4.244   1.722
 1210SOL    HW1 3646   0.248   4.204   1.652
 1210SOL    HW2 3647   0.131   4.315   1.681
 1211SOL     OW 3648   1.369   4.674   1.660
 1211SOL    HW1 3649   1.408   4.763   1.680
 1211SOL    HW2 3650   1.379   4.654   1.563
 1212SOL     OW 3651   0.815   4.296   0.325
 1212SOL    HW1 3652   0.822   4.207   0.279
 1212SOL    HW2 3653   0.721   4.330   0.317
 1213SOL     OW 3654   1.657   4.328   1.206
 1213SOL    HW1 3655   1.619   4.259   1.268
 1213SOL    HW2 3656   1.739   4.292   1.162
 1214SOL     OW 3657   0.671   4.188   1.269
 1214SOL    HW1 3658   0.637   4.099   1.239
 1214SOL    HW2 3659   0.697   4.242   1.189
 1215SOL     OW 3660   0.473   4.224   0.191
 1215SOL    HW1 3661   0.534   4.304   0.195
 1215SOL    HW2 3662   0.378   4.255   0.198
 1216SOL     OW 3663   0.159   4.861   1.466
 1216SOL    HW1 3664   0.181   4.800   1.542
 1216SOL    HW2 3665   0.169   4.812   1.380
 1217SOL     OW 3666   1.347   4.783   1.234
 1217SOL    HW1 3667   1.371   4.720   1.160
 1217SOL    HW2 3668   1.257   4.823   1.216
 1218SOL     OW 3669   1.302   4.579   0.309
 1218SOL    HW1 3670   1.216   4.548   0.351
 1218SOL    HW2 3671   1.298   4.565   0.210
 1219SOL     OW 3672   0.083   4.982   1.022
 1219SOL    HW1 3673   0.078   4.981   1.122
 1219SOL    HW2 3674   0.000   4.941   0.984
 1220SOL     OW 3675   0.903   3.810   0.133
 1220SOL    HW1 3676   0.954   3.811   0.047
 1220SOL    HW2 3677   0.959   3.768   0.204
 1221SOL     OW 3678   1.726   3.859   0.523
 1221SOL    HW1 3679   1.799   3.842   0.456
 1221SOL    HW2 3680   1.695   3.772   0.561
 1222SOL     OW 3681   1.280   4.651   0.672
 1222SOL    HW1 3682   1.340   4.570   0.674
 1222SOL    HW2 3683   1.320   4.720   0.612
 1223SOL     OW 3684   1.841   3.899   0.963
 1223SOL    HW1 3685   1.880   3.814   0.927
 1223SOL    HW2 3686   1.743   3.901   0.944
 1224SOL     OW 3687   0.263   4.050   0.720
 1224SOL    HW1 3688   0.184   4.101   0.686
 1224SOL    HW2 3689   0.254   4.035   0.818
 1225SOL     OW 3690   0.822   4.726   1.372
 1225SOL    HW1 3691   0.862   4.725   1.280
 1225SOL    HW2 3692   0.832   4.818   1.412
 1226SOL     OW 3693   0.916   4.634   0.291
 1226SOL    HW1 3694   0.979   4.672   0.223
 1226SOL    HW2 3695   0.956   4.551   0.330
 1227SOL     OW 3696   0.372   5.012   1.490
 1227SOL    HW1 3697   0.359   5.105   1.456
 1227SOL    HW2 3698   0.288   4.960   1.477
 1228SOL     OW 3699   1.014   3.960   0.971
 1228SOL    HW1 3700   1.006   3.924   0.878
 1228SOL    HW2 3701   1.012   3.884   1.036
 1229SOL     OW 3702   1.709   4.109   1.381
 1229SOL    HW1 3703   1.782   4.178   1.385
 1229SOL    HW2 3704   1.737   4.034   1.322
 1230SOL     OW 3705   0.105   4.737   1.726
 1230SOL    HW1 3706   0.028   4.704   1.780
 1230SOL    HW2 3707   0.190   4.707   1.768
 1231SOL     OW 3708   0.672   3.927   1.489
 1231SOL    HW1 3709   0.762   3.911   1.449
 1231SOL    HW2 3710   0.680   3.932   1.588
 1232SOL     OW 3711   0.075   4.069   0.033
 1232SOL    HW1 3712  -0.017   4.041   0.004
 1232SOL    HW2 3713   0.106   4.146  -0.023
 1233SOL     OW 3714   1.440   4.580   1.398
 1233SOL    HW1 3715   1.383   4.632   1.335
 1233SOL    HW2 3716   1.536   4.592   1.374
 1234SOL     OW 3717   0.072   3.890   0.318
 1234SOL    HW1 3718   0.055   3.973   0.264
 1234SOL    HW2 3719   0.162   3.853   0.296
 1235SOL     OW 3720   1.183   5.059   0.119
 1235SOL    HW1 3721   1.084   5.048   0.121
 1235SOL    HW2 3722   1.217   5.074   0.212
 1236SOL     OW 3723   0.613   4.566   1.431
 1236SOL    HW1 3724   0.669   4.647   1.414
 1236SOL    HW2 3725   0.672   4.486   1.434
 1237SOL     OW 3726   0.716   4.289   1.708
 1237SOL    HW1 3727   0.735   4.354   1.782
 1237SOL    HW2 3728   0.776   4.209   1.717
 1238SOL     OW 3729   1.450   4.944   1.633
 1238SOL    HW1 3730   1.441   4.934   1.732
 1238SOL    HW2 3731   1.546   4.937   1.607
 1239SOL     OW 3732   1.674   4.607   1.254
 1239SOL    HW1 3733   1.647   4.518   1.217
 1239SOL    HW2 3734   1.675   4.675   1.181
 1240SOL     OW 3735   1.225   4.049   0.449
 1240SOL    HW1 3736   1.290   3.975   0.438
 1240SOL    HW2 3737   1.245   4.099   0.533
 1241SOL     OW 3738   0.594   4.469   0.652
 1241SOL    HW1 3739   0.644   4.554   0.633
 1241SOL    HW2 3740   0.506   4.471   0.604
 1242SOL     OW 3741   1.777   4.066   1.642
 1242SOL    HW1 3742   1.760   4.097   1.548
 1242SOL    HW2 3743   1.693   4.029   1.680
 1243SOL     OW 3744   1.730   4.658   1.517
 1243SOL    HW1 3745   1.768   4.749   1.532
 1243SOL    HW2 3746   1.722   4.641   1.418
 1244SOL     OW 3747   0.859   4.680   0.861
 1244SOL    HW1 3748   0.913   4.611   0.909
 1244SOL    HW2 3749   0.827   4.749   0.927
 1245SOL     OW 3750   1.083   4.708   0.087
 1245SOL    HW1 3751   1.060   4.761   0.005
 1245SOL    HW2 3752   1.164   4.652   0.068
 1246SOL     OW 3753   1.824   3.916   1.227
 1246SOL    HW1 3754   1.820   3.826   1.271
 1246SOL    HW2 3755   1.827   3.905   1.128
 1247SOL     OW 3756   0.428   4.148   0.520
 1247SOL    HW1 3757   0.458   4.076   0.458
 1247SOL    HW2 3758   0.389   4.108   0.603
 1248SOL     OW 3759   0.317   4.271   1.280
 1248SOL    HW1 3760   0.355   4.212   1.352
 1248SOL    HW2 3761   0.357   4.245   1.192
 1249SOL     OW 3762   1.424   3.938   1.112
 1249SOL    HW1 3763   1.476   3.873   1.167
 1249SOL    HW2 3764   1.375   4.001   1.173
 1250SOL     OW 3765   1.001   3.758   1.154
 1250SOL    HW1 3766   0.938   3.686   1.123
 1250SOL    HW2 3767   1.094   3.722   1.154
 1251SOL     OW 3768   0.770   5.054   0.301
 1251SOL    HW1 3769   0.724   4.967   0.318
 1251SOL    HW2 3770   0.861   5.051   0.342
 1252SOL     OW 3771   1.352   3.776   0.168
 1252SOL    HW1 3772   1.387   3.735   0.084
 1252SOL    HW2 3773   1.262   3.738   0.188
 1253SOL     OW 3774   1.300   4.177   0.691
 1253SOL    HW1 3775   1.241   4.257   0.695
 1253SOL    HW2 3776   1.315   4.142   0.784
 1254SOL     OW 3777   1.593   3.945   0.882
 1254SOL    HW1 3778   1.509   3.944   0.936
 1254SOL    HW2 3779   1.595   4.028   0.826
 1255SOL     OW 3780   0.039   4.801   0.300
 1255SOL    HW1 3781   0.138   4.790   0.291
 1255SOL    HW2 3782  -0.001   4.715   0.332
 1256SOL     OW 3783   0.230   4.352   1.975
 1256SOL    HW1 3784   0.137   4.350   2.012
 1256SOL    HW2 3785   0.231   4.313   1.883
 1257SOL     OW 3786   0.225   3.999   2.858
 1257SOL    HW1 3787   0.260   3.982   2.950
 1257SOL    HW2 3788   0.137   3.954   2.846
 1258SOL     OW 3789   0.019   4.092   2.509
 1258SOL    HW1 3790  -0.063   4.135   2.548
 1258SOL    HW2 3791  -0.009   4.019   2.446
 1259SOL     OW 3792   1.135   4.427   2.579
 1259SOL    HW1 3793   1.192   4.505   2.554
 1259SOL    HW2 3794   1.075   4.453   2.655
 1260SOL     OW 3795   1.755   4.331   2.093
 1260SOL    HW1 3796   1.743   4.318   1.994
 1260SOL    HW2 3797   1.725   4.250   2.142
 1261SOL     OW 3798   0.768   4.868   2.885
 1261SOL    HW1 3799   0.690   4.885   2.945
 1261SOL    HW2 3800   0.802   4.955   2.849
 1262SOL     OW 3801   0.850   4.522   3.685
 1262SOL    HW1 3802   0.846   4.598   3.750
 1262SOL    HW2 3803   0.872   4.558   3.594
 1263SOL     OW 3804   0.685   4.736   2.527
 1263SOL    HW1 3805   0.754   4.720   2.597
 1263SOL    HW2 3806   0.612   4.793   2.565
 1264SOL     OW 3807   1.460   5.229   3.201
 1264SOL    HW1 3808   1.484   5.323   3.227
 1264SOL    HW2 3809   1.444   5.175   3.283
 1265SOL     OW 3810   0.438   4.116   3.361
 1265SOL    HW1 3811   0.520   4.060   3.370
 1265SOL    HW2 3812   0.357   4.058   3.365
 1266SOL     OW 3813   1.603   4.171   2.599
 1266SOL    HW1 3814   1.529   4.217   2.549
 1266SOL    HW2 3815   1.654   4.239   2.652
 1267SOL     OW 3816   0.240   4.815   2.748
 1267SOL    HW1 3817   0.254   4.731   2.800
 1267SOL    HW2 3818   0.185   4.879   2.803
 1268SOL     OW 3819   0.606   4.688   1.985
 1268SOL    HW1 3820   0.613   4.772   1.931
 1268SOL    HW2 3821   0.652   4.701   2.073
 1269SOL     OW 3822   1.594   3.838   3.342
 1269SOL    HW1 3823   1.576   3.905   3.270
 1269SOL    HW2 3824   1.591   3.884   3.431
 1270SOL     OW 3825   0.122   4.367   2.425
 1270SOL    HW1 3826   0.077   4.279   2.442
 1270SOL    HW2 3827   0.121   4.421   2.509
 1271SOL     OW 3828   1.689   4.646   2.474
 1271SOL    HW1 3829   1.784   4.617   2.482
 1271SOL    HW2 3830   1.681   4.711   2.399
 1272SOL     OW 3831   0.113   4.461   3.459
 1272SOL    HW1 3832   0.201   4.448   3.504
 1272SOL    HW2 3833   0.100   4.558   3.437
 1273SOL     OW 3834   0.613   5.089   2.588
 1273SOL    HW1 3835   0.564   5.002   2.597
 1273SOL    HW2 3836   0.590   5.132   2.501
 1274SOL     OW 3837   1.293   4.952   3.285
 1274SOL    HW1 3838   1.330   4.879   3.227
 1274SOL    HW2 3839   1.345   4.957   3.370
 1275SOL     OW 3840   0.809   3.728   2.364
 1275SOL    HW1 3841   0.849   3.819   2.355
 1275SOL    HW2 3842   0.709   3.736   2.370
 1276SOL     OW 3843   0.197   4.700   3.126
 1276SOL    HW1 3844   0.286   4.655   3.112
 1276SOL    HW2 3845   0.124   4.635   3.107
 1277SOL     OW 3846   1.525   4.723   2.052
 1277SOL    HW1 3847   1.462   4.647   2.065
 1277SOL    HW2 3848   1.573   4.741   2.138
 1278SOL     OW 3849   0.317   3.975   3.663
 1278SOL    HW1 3850   0.388   4.046   3.669
 1278SOL    HW2 3851   0.229   4.014   3.691
 1279SOL     OW 3852   0.598   4.453   2.132
 1279SOL    HW1 3853   0.622   4.522   2.064
 1279SOL    HW2 3854   0.520   4.486   2.186
 1280SOL     OW 3855   1.281   4.069   2.806
 1280SOL    HW1 3856   1.195   4.019   2.793
 1280SOL    HW2 3857   1.343   4.015   2.862
 1281SOL     OW 3858   0.807   4.329   3.327
 1281SOL    HW1 3859   0.760   4.326   3.416
 1281SOL    HW2 3860   0.756   4.274   3.261
 1282SOL     OW 3861   1.394   4.193   3.536
 1282SOL    HW1 3862   1.374   4.236   3.624
 1282SOL    HW2 3863   1.472   4.131   3.545
 1283SOL     OW 3864   0.973   4.614   3.434
 1283SOL    HW1 3865   1.019   4.530   3.405
 1283SOL    HW2 3866   0.917   4.648   3.359
 1284SOL     OW 3867   0.991   4.134   3.104
 1284SOL    HW1 3868   0.914   4.168   3.158
 1284SOL    HW2 3869   0.957   4.083   3.025
 1285SOL     OW 3870   1.041   4.425   2.291
 1285SOL    HW1 3871   1.067   4.421   2.387
 1285SOL    HW2 3872   0.956   4.374   2.277
 1286SOL     OW 3873   0.076   4.535   2.651
 1286SOL    HW1 3874   0.175   4.523   2.660
 1286SOL    HW2 3875   0.052   4.630   2.672
 1287SOL     OW 3876   0.865   4.072   2.057
 1287SOL    HW1 3877   0.924   4.135   2.008
 1287SOL    HW2 3878   0.884   3.978   2.028
 1288SOL     OW 3879   1.719   4.309   3.693
 1288SOL    HW1 3880   1.693   4.398   3.657
 1288SOL    HW2 3881   1.717   4.241   3.620
 1289SOL     OW 3882   0.550   3.920   2.747
 1289SOL    HW1 3883   0.545   3.915   2.847
 1289SOL    HW2 3884   0.552   4.016   2.718
 1290SOL     OW 3885   1.795   4.790   2.735
 1290SOL    HW1 3886   1.733   4.775   2.659
 1290SOL    HW2 3887   1.743   4.801   2.820
 1291SOL     OW 3888   0.321   4.667   2.104
 1291SOL    HW1 3889   0.403   4.706   2.062
 1291SOL    HW2 3890   0.294   4.585   2.055
 1292SOL     OW 3891   1.458   4.459   2.590
 1292SOL    HW1 3892   1.453   4.394   2.665
 1292SOL    HW2 3893   1.538   4.518   2.603
 1293SOL     OW 3894   0.202   4.009   3.360
 1293SOL    HW1 3895   0.122   4.069   3.347
 1293SOL    HW2 3896   0.192   3.960   3.446
 1294SOL     OW 3897   1.400   3.831   2.288
 1294SOL    HW1 3898   1.376   3.794   2.198
 1294SOL    HW2 3899   1.499   3.847   2.292
 1295SOL     OW 3900   0.382   4.424   2.342
 1295SOL    HW1 3901   0.427   4.334   2.339
 1295SOL    HW2 3902   0.288   4.413   2.375
 1296SOL     OW 3903   1.547   3.946   3.591
 1296SOL    HW1 3904   1.542   3.983   3.683
 1296SOL    HW2 3905   1.475   3.877   3.579
 1297SOL     OW 3906   0.614   3.846   1.979
 1297SOL    HW1 3907   0.712   3.824   1.986
 1297SOL    HW2 3908   0.583   3.829   1.886
 1298SOL     OW 3909   0.781   3.988   3.611
 1298SOL    HW1 3910   0.848   3.927   3.654
 1298SOL    HW2 3911   0.708   4.007   3.676
 1299SOL     OW 3912   1.351   4.314   3.295
 1299SOL    HW1 3913   1.379   4.271   3.380
 1299SOL    HW2 3914   1.376   4.410   3.296
 1300SOL     OW 3915   0.922   4.227   2.761
 1300SOL    HW1 3916   0.897   4.218   2.665
 1300SOL    HW2 3917   0.970   4.145   2.792
 1301SOL     OW 3918   0.539   3.788   2.374
 1301SOL    HW1 3919   0.458   3.789   2.432
 1301SOL    HW2 3920   0.542   3.871   2.319
 1302SOL     OW 3921   0.297   3.759   2.033
 1302SOL    HW1 3922   0.346   3.843   2.012
 1302SOL    HW2 3923   0.359   3.694   2.078
 1303SOL     OW 3924   0.935   3.960   2.342
 1303SOL    HW1 3925   0.887   4.001   2.264
 1303SOL    HW2 3926   1.034   3.958   2.323
 1304SOL     OW 3927   1.076   4.407   3.326
 1304SOL    HW1 3928   0.996   4.346   3.329
 1304SOL    HW2 3929   1.157   4.354   3.302
 1305SOL     OW 3930   0.459   4.876   2.603
 1305SOL    HW1 3931   0.388   4.849   2.668
 1305SOL    HW2 3932   0.433   4.848   2.510
 1306SOL     OW 3933   1.032   4.273   1.878
 1306SOL    HW1 3934   0.991   4.355   1.839
 1306SOL    HW2 3935   1.096   4.299   1.951
 1307SOL     OW 3936   0.078   4.280   3.248
 1307SOL    HW1 3937   0.170   4.279   3.207
 1307SOL    HW2 3938   0.072   4.354   3.315
 1308SOL     OW 3939   0.561   3.946   3.009
 1308SOL    HW1 3940   0.599   3.862   3.046
 1308SOL    HW2 3941   0.473   3.965   3.053
 1309SOL     OW 3942   0.866   4.178   2.504
 1309SOL    HW1 3943   0.834   4.250   2.442
 1309SOL    HW2 3944   0.890   4.097   2.451
 1310SOL     OW 3945   1.017   3.763   2.615
 1310SOL    HW1 3946   0.945   3.768   2.546
 1310SOL    HW2 3947   0.993   3.694   2.684
 1311SOL     OW 3948   1.429   4.897   2.729
 1311SOL    HW1 3949   1.374   4.813   2.722
 1311SOL    HW2 3950   1.455   4.926   2.637
 1312SOL     OW 3951   1.466   4.314   2.854
 1312SOL    HW1 3952   1.436   4.219   2.861
 1312SOL    HW2 3953   1.539   4.330   2.920
 1313SOL     OW 3954   1.857   4.557   2.239
 1313SOL    HW1 3955   1.899   4.493   2.303
 1313SOL    HW2 3956   1.819   4.506   2.161
 1314SOL     OW 3957   1.390   4.299   1.940
 1314SOL    HW1 3958   1.336   4.278   2.021
 1314SOL    HW2 3959   1.481   4.258   1.949
 1315SOL     OW 3960   0.527   3.980   2.190
 1315SOL    HW1 3961   0.554   3.921   2.115
 1315SOL    HW2 3962   0.527   4.075   2.159
 1316SOL     OW 3963   1.754   4.947   3.450
 1316SOL    HW1 3964   1.845   4.908   3.437
 1316SOL    HW2 3965   1.762   5.043   3.474
 1317SOL     OW 3966   1.638   4.823   2.941
 1317SOL    HW1 3967   1.643   4.904   3.000
 1317SOL    HW2 3968   1.552   4.825   2.890
 1318SOL     OW 3969   0.915   3.813   3.264
 1318SOL    HW1 3970   0.940   3.793   3.169
 1318SOL    HW2 3971   0.987   3.869   3.306
 1319SOL     OW 3972   0.705   4.774   2.230
 1319SOL    HW1 3973   0.691   4.781   2.329
 1319SOL    HW2 3974   0.789   4.723   2.212
 1320SOL     OW 3975   0.410   4.537   3.113
 1320SOL    HW1 3976   0.496   4.549   3.163
 1320SOL    HW2 3977   0.368   4.450   3.140
 1321SOL     OW 3978   1.274   4.110   3.124
 1321SOL    HW1 3979   1.295   4.184   3.188
 1321SOL    HW2 3980   1.185   4.127   3.081
 1322SOL     OW 3981   0.367   4.824   2.363
 1322SOL    HW1 3982   0.360   4.907   2.307
 1322SOL    HW2 3983   0.371   4.744   2.303
 1323SOL     OW 3984   0.566   4.261   2.727
 1323SOL    HW1 3985   0.578   4.327   2.653
 1323SOL    HW2 3986   0.612   4.295   2.810
 1324SOL     OW 3987   1.582   4.363   2.334
 1324SOL    HW1 3988   1.551   4.424   2.407
 1324SOL    HW2 3989   1.632   4.415   2.265
 1325SOL     OW 3990   0.402   4.475   3.460
 1325SOL    HW1 3991   0.470   4.530   3.413
 1325SOL    HW2 3992   0.442   4.387   3.487
 1326SOL     OW 3993   1.587   4.503   3.532
 1326SOL    HW1 3994   1.495   4.541   3.527
 1326SOL    HW2 3995   1.647   4.550   3.467
 1327SOL     OW 3996   1.013   3.829   3.632
 1327SOL    HW1 3997   1.019   3.914   3.580
 1327SOL    HW2 3998   1.045   3.753   3.575
 1328SOL     OW 3999   0.504   3.774   3.602
 1328SOL    HW1 4000   0.462   3.717   3.532
 1328SOL    HW2 4001   0.438   3.843   3.634
 1329SOL     OW 4002   0.573   4.594   2.891
 1329SOL    HW1 4003   0.617   4.683   2.882
 1329SOL    HW2 4004   0.510   4.594   2.968
 1330SOL     OW 4005   1.360   4.586   2.907
 1330SOL    HW1 4006   1.285   4.586   2.841
 1330SOL    HW2 4007   1.397   4.494   2.916
 1331SOL     OW 4008   1.209   4.249   2.137
 1331SOL    HW1 4009   1.222   4.165   2.191
 1331SOL    HW2 4010   1.180   4.323   2.197
 1332SOL     OW 4011   0.307   3.937   3.093
 1332SOL    HW1 4012   0.284   3.974   3.183
 1332SOL    HW2 4013   0.277   3.842   3.087
 1333SOL     OW 4014   0.037   5.034   3.144
 1333SOL    HW1 4015   0.090   4.985   3.212
 1333SOL    HW2 4016   0.059   5.132   3.149
 1334SOL     OW 4017   0.732   4.358   2.926
 1334SOL    HW1 4018   0.791   4.332   2.850
 1334SOL    HW2 4019   0.704   4.454   2.915
 1335SOL     OW 4020   1.728   4.659   3.716
 1335SOL    HW1 4021   1.682   4.652   3.627
 1335SOL    HW2 4022   1.666   4.703   3.782
 1336SOL     OW 4023   0.307   3.787   2.480
 1336SOL    HW1 4024   0.296   3.881   2.513
 1336SOL    HW2 4025   0.302   3.724   2.557
 1337SOL     OW 4026   1.622   4.091   2.236
 1337SOL    HW1 4027   1.624   4.015   2.300
 1337SOL    HW2 4028   1.574   4.168   2.276
 1338SOL     OW 4029   1.023   4.490   2.828
 1338SOL    HW1 4030   1.038   4.511   2.924
 1338SOL    HW2 4031   0.993   4.395   2.819
 1339SOL     OW 4032   0.350   4.622   3.666
 1339SOL    HW1 4033   0.426   4.666   3.714
 1339SOL    HW2 4034   0.385   4.575   3.584
 1340SOL     OW 4035   1.540   3.998   1.987
 1340SOL    HW1 4036   1.479   3.923   2.010
 1340SOL    HW2 4037   1.562   4.050   2.070
 1341SOL     OW 4038   1.303   4.562   1.904
 1341SOL    HW1 4039   1.337   4.469   1.919
 1341SOL    HW2 4040   1.321   4.589   1.809
 1342SOL     OW 4041   0.319   4.534   2.811
 1342SOL    HW1 4042   0.412   4.570   2.816
 1342SOL    HW2 4043   0.313   4.449   2.863
 1343SOL     OW 4044   0.339   4.233   2.868
 1343SOL    HW1 4045   0.287   4.150   2.851
 1343SOL    HW2 4046   0.416   4.238   2.804
 1344SOL     OW 4047   1.138   4.104   3.540
 1344SOL    HW1 4048   1.093   4.167   3.604
 1344SOL    HW2 4049   1.231   4.135   3.523
 1345SOL     OW 4050   1.160   3.931   3.339
 1345SOL    HW1 4051   1.160   3.995   3.416
 1345SOL    HW2 4052   1.188   3.979   3.256
 1346SOL     OW 4053   1.002   4.520   3.100
 1346SOL    HW1 4054   1.043   4.488   3.186
 1346SOL    HW2 4055   0.906   4.493   3.097
 1347SOL     OW 4056   0.040   4.268   2.976
 1347SOL    HW1 4057   0.125   4.235   2.935
 1347SOL    HW2 4058   0.053   4.283   3.074
 1348SOL     OW 4059   0.189   4.244   3.584
 1348SOL    HW1 4060   0.248   4.204   3.514
 1348SOL    HW2 4061   0.131   4.315   3.543
 1349SOL     OW 4062   1.369   4.674   3.522
 1349SOL    HW1 4063   1.408   4.763   3.542
 1349SOL    HW2 4064   1.379   4.654   3.425
 1350SOL     OW 4065   0.815   4.296   2.187
 1350SOL    HW1 4066   0.822   4.207   2.141
 1350SOL    HW2 4067   0.721   4.330   2.179
 1351SOL     OW 4068   1.657   4.328   3.068
 1351SOL    HW1 4069   1.619   4.259   3.130
 1351SOL    HW2 4070   1.739   4.292   3.024
 1352SOL     OW 4071   0.671   4.188   3.131
 1352SOL    HW1 4072   0.637   4.099   3.101
 1352SOL    HW2 4073   0.697   4.242   3.051
 1353SOL     OW 4074   0.473   4.224   2.053
 1353SOL    HW1 4075   0.534   4.304   2.057
 1353SOL    HW2 4076   0.378   4.255   2.060
 1354SOL     OW 4077   0.159   4.861   3.328
 1354SOL    HW1 4078   0.181   4.800   3.404
 1354SOL    HW2 4079   0.169   4.812   3.242
 1355SOL     OW 4080   1.347   4.783   3.096
 1355SOL    HW1 4081   1.371   4.720   3.022
 1355SOL    HW2 4082   1.257   4.823   3.078
 1356SOL     OW 4083   1.302   4.579   2.171
 1356SOL    HW1 4084   1.216   4.548   2.213
 1356SOL    HW2 4085   1.298   4.565   2.072
 1357SOL     OW 4086   0.083   4.982   2.884
 1357SOL    HW1 4087   0.078   4.981   2.984
 1357SOL    HW2 4088   0.000   4.941   2.846
 1358SOL     OW 4089   1.726   3.859   2.385
 1358SOL    HW1 4090   1.799   3.842   2.318
 1358SOL    HW2 4091   1.695   3.772   2.423
 1359SOL     OW 4092   1.280   4.651   2.534
 1359SOL    HW1 4093   1.340   4.570   2.536
 1359SOL    HW2 4094   1.320   4.720   2.474
 1360SOL     OW 4095   1.841   3.899   2.825
 1360SOL    HW1 4096   1.880   3.814   2.789
 1360SOL    HW2 4097   1.743   3.901   2.806
 1361SOL     OW 4098   0.263   4.050   2.582
 1361SOL    HW1 4099   0.184   4.101   2.548
 1361SOL    HW2 4100   0.254   4.035   2.680
 1362SOL     OW 4101   0.822   4.726   3.234
 1362SOL    HW1 4102   0.862   4.725   3.142
 1362SOL    HW2 4103   0.832   4.818   3.274
 1363SOL     OW 4104   0.916   4.634   2.153
 1363SOL    HW1 4105   0.979   4.672   2.085
 1363SOL    HW2 4106   0.956   4.551   2.192
 1364SOL     OW 4107   0.372   5.012   3.352
 1364SOL    HW1 4108   0.359   5.105   3.318
 1364SOL    HW2 4109   0.288   4.960   3.339
 1365SOL     OW 4110   1.014   3.960   2.833
 1365SOL    HW1 4111   1.006   3.924   2.740
 1365SOL    HW2 4112   1.012   3.884   2.898
 1366SOL     OW 4113   1.709   4.109   3.243
 1366SOL    HW1 4114   1.782   4.178   3.247
 1366SOL    HW2 4115   1.737   4.034   3.184
 1367SOL     OW 4116   0.105   4.737   3.588
 1367SOL    HW1 4117   0.028   4.704   3.642
 1367SOL    HW2 4118   0.190   4.707   3.630
 1368SOL     OW 4119   0.672   3.927   3.351
 1368SOL    HW1 4120   0.762   3.911   3.311
 1368SOL    HW2 4121   0.680   3.932   3.450
 1369SOL     OW 4122   0.075   4.069   1.895
 1369SOL    HW1 4123  -0.017   4.041   1.866
 1369SOL    HW2 4124   0.106   4.146   1.839
 1370SOL     OW 4125   1.440   4.580   3.260
 1370SOL    HW1 4126   1.383   4.632   3.197
 1370SOL    HW2 4127   1.536   4.592   3.236
 1371SOL     OW 4128   0.072   3.890   2.180
 1371SOL    HW1 4129   0.055   3.973   2.126
 1371SOL    HW2 4130   0.162   3.853   2.158
 1372SOL     OW 4131   1.183   5.059   1.981
 1372SOL    HW1 4132   1.084   5.048   1.983
 1372SOL    HW2 4133   1.217   5.074   2.074
 1373SOL     OW 4134   0.613   4.566   3.293
 1373SOL    HW1 4135   0.669   4.647   3.276
 1373SOL    HW2 4136   0.672   4.486   3.296
 1374SOL     OW 4137   0.716   4.289   3.570
 1374SOL    HW1 4138   0.735   4.354   3.644
 1374SOL    HW2 4139   0.776   4.209   3.579
 1375SOL     OW 4140   1.450   4.944   3.495
 1375SOL    HW1 4141   1.441   4.934   3.594
 1375SOL    HW2 4142   1.546   4.937   3.469
 1376SOL     OW 4143   1.674   4.607   3.116
 1376SOL    HW1 4144   1.647   4.518   3.079
 1376SOL    HW2 4145   1.675   4.675   3.043
 1377SOL     OW 4146   1.225   4.049   2.311
 1377SOL    HW1 4147   1.290   3.975   2.300
 1377SOL    HW2 4148   1.245   4.099   2.395
 1378SOL     OW 4149   0.594   4.469   2.514
 1378SOL    HW1 4150   0.644   4.554   2.495
 1378SOL    HW2 4151   0.506   4.471   2.466
 1379SOL     OW 4152   1.777   4.066   3.504
 1379SOL    HW1 4153   1.760   4.097   3.410
 1379SOL    HW2 4154   1.693   4.029   3.542
 1380SOL     OW 4155   1.730   4.658   3.379
 1380SOL    HW1 4156   1.768   4.749   3.394
 1380SOL    HW2 4157   1.722   4.641   3.280
 1381SOL     OW 4158   0.859   4.680   2.723
 1381SOL    HW1 4159   0.913   4.611   2.771
 1381SOL    HW2 4160   0.827   4.749   2.789
 1382SOL     OW 4161   1.083   4.708   1.949
 1382SOL    HW1 4162   1.060   4.761   1.867
 1382SOL    HW2 4163   1.164   4.652   1.930
 1383SOL     OW 4164   1.824   3.916   3.089
 1383SOL    HW1 4165   1.820   3.826   3.133
 1383SOL    HW2 4166   1.827   3.905   2.990
 1384SOL     OW 4167   0.428   4.148   2.382
 1384SOL    HW1 4168   0.458   4.076   2.320
 1384SOL    HW2 4169   0.389   4.108   2.465
 1385SOL     OW 4170   0.317   4.271   3.142
 1385SOL    HW1 4171   0.355   4.212   3.214
 1385SOL    HW2 4172   0.357   4.245   3.054
 1386SOL     OW 4173   1.424   3.938   2.974
 1386SOL    HW1 4174   1.476   3.873   3.029
 1386SOL    HW2 4175   1.375   4.001   3.035
 1387SOL     OW 4176   1.001   3.758   3.016
 1387SOL    HW1 4177   0.938   3.686   2.985
 1387SOL    HW2 4178   1.094   3.722   3.016
 1388SOL     OW 4179   0.770   5.054   2.163
 1388SOL    HW1 4180   0.724   4.967   2.180
 1388SOL    HW2 4181   0.861   5.051   2.204
 1389SOL     OW 4182   1.352   3.776   2.030
 1389SOL    HW1 4183   1.387   3.735   1.946
 1389SOL    HW2 4184   1.262   3.738   2.050
 1390SOL     OW 4185   1.300   4.177   2.553
 1390SOL    HW1 4186   1.241   4.257   2.557
 1390SOL    HW2 4187   1.315   4.142   2.646
 1391SOL     OW 4188   1.593   3.945   2.744
 1391SOL    HW1 4189   1.509   3.944   2.798
 1391SOL    HW2 4190   1.595   4.028   2.688
 1392SOL     OW 4191   0.039   4.801   2.162
 1392SOL    HW1 4192   0.138   4.790   2.153
 1392SOL    HW2 4193  -0.001   4.715   2.194
 1393SOL     OW 4194   0.230   4.352   3.837
 1393SOL    HW1 4195   0.137   4.350   3.874
 1393SOL    HW2 4196   0.231   4.313   3.745
 1394SOL     OW 4197   0.225   3.999   4.720
 1394SOL    HW1 4198   0.260   3.982   4.812
 1394SOL    HW2 4199   0.137   3.954   4.708
 1395SOL     OW 4200   0.019   4.092   4.371
 1395SOL    HW1 4201  -0.063   4.135   4.410
 1395SOL    HW2 4202  -0.009   4.019   4.308
 1396SOL     OW 4203   1.135   4.427   4.441
 1396SOL    HW1 4204   1.192   4.505   4.416
 1396SOL    HW2 4205   1.075   4.453   4.517
 1397SOL     OW 4206   1.755   4.331   3.955
 1397SOL    HW1 4207   1.743   4.318   3.856
 1397SOL    HW2 4208   1.725   4.250   4.004
 1398SOL     OW 4209   0.768   4.868   4.747
 1398SOL    HW1 4210   0.690   4.885   4.807
 1398SOL    HW2 4211   0.802   4.955   4.711
 1399SOL     OW 4212   0.685   4.736   4.389
 1399SOL    HW1 4213   0.754   4.720   4.459
 1399SOL    HW2 4214   0.612   4.793   4.427
 1400SOL     OW 4215   1.603   4.171   4.461
 1400SOL    HW1 4216   1.529   4.217   4.411
 1400SOL    HW2 4217   1.654   4.239   4.514
 1401SOL     OW 4218   0.240   4.815   4.610
 1401SOL    HW1 4219   0.254   4.731   4.662
 1401SOL    HW2 4220   0.185   4.879   4.665
 1402SOL     OW 4221   0.606   4.688   3.847
 1402SOL    HW1 4222   0.613   4.772   3.793
 1402SOL    HW2 4223   0.652   4.701   3.935
 1403SOL     OW 4224   0.122   4.367   4.287
 1403SOL    HW1 4225   0.077   4.279   4.304
 1403SOL    HW2 4226   0.121   4.421   4.371
 1404SOL     OW 4227   1.689   4.646   4.336
 1404SOL    HW1 4228   1.784   4.617   4.344
 1404SOL    HW2 4229   1.681   4.711   4.261
 1405SOL     OW 4230   0.613   5.089   4.450
 1405SOL    HW1 4231   0.564   5.002   4.459
 1405SOL    HW2 4232   0.590   5.132   4.363
 1406SOL     OW 4233   0.809   3.728   4.226
 1406SOL    HW1 4234   0.849   3.819   4.217
 1406SOL    HW2 4235   0.709   3.736   4.232
 1407SOL     OW 4236   0.197   4.700   4.988
 1407SOL    HW1 4237   0.286   4.655   4.974
 1407SOL    HW2 4238   0.124   4.635   4.969
 1408SOL     OW 4239   1.525   4.723   3.914
 1408SOL    HW1 4240   1.462   4.647   3.927
 1408SOL    HW2 4241   1.573   4.741   4.000
 1409SOL     OW 4242   0.598   4.453   3.994
 1409SOL    HW1 4243   0.622   4.522   3.926
 1409SOL    HW2 4244   0.520   4.486   4.048
 1410SOL     OW 4245   1.281   4.069   4.668
 1410SOL    HW1 4246   1.195   4.019   4.655
 1410SOL    HW2 4247   1.343   4.015   4.724
 1411SOL     OW 4248   1.041   4.425   4.153
 1411SOL    HW1 4249   1.067   4.421   4.249
 1411SOL    HW2 4250   0.956   4.374   4.139
 1412SOL     OW 4251   0.076   4.535   4.513
 1412SOL    HW1 4252   0.175   4.523   4.522
 1412SOL    HW2 4253   0.052   4.630   4.534
 1413SOL     OW 4254   0.865   4.072   3.919
 1413SOL    HW1 4255   0.924   4.135   3.870
 1413SOL    HW2 4256   0.884   3.978   3.890
 1414SOL     OW 4257   0.550   3.920   4.609
 1414SOL    HW1 4258   0.545   3.915   4.709
 1414SOL    HW2 4259   0.552   4.016   4.580
 1415SOL     OW 4260   1.795   4.790   4.597
 1415SOL    HW1 4261   1.733   4.775   4.521
 1415SOL    HW2 4262   1.743   4.801   4.682
 1416SOL     OW 4263   0.321   4.667   3.966
 1416SOL    HW1 4264   0.403   4.706   3.924
 1416SOL    HW2 4265   0.294   4.585   3.917
 1417SOL     OW 4266   1.458   4.459   4.452
 1417SOL    HW1 4267   1.453   4.394   4.527
 1417SOL    HW2 4268   1.538   4.518   4.465
 1418SOL     OW 4269   1.400   3.831   4.150
 1418SOL    HW1 4270   1.376   3.794   4.060
 1418SOL    HW2 4271   1.499   3.847   4.154
 1419SOL     OW 4272   0.382   4.424   4.204
 1419SOL    HW1 4273   0.427   4.334   4.201
 1419SOL    HW2 4274   0.288   4.413   4.237
 1420SOL     OW 4275   0.614   3.846   3.841
 1420SOL    HW1 4276   0.712   3.824   3.848
 1420SOL    HW2 4277   0.583   3.829   3.748
 1421SOL     OW 4278   0.888   5.238   4.919
 1421SOL    HW1 4279   0.865   5.213   4.825
 1421SOL    HW2 4280   0.949   5.169   4.958
 1422SOL     OW 4281   0.922   4.227   4.623
 1422SOL    HW1 4282   0.897   4.218   4.527
 1422SOL    HW2 4283   0.970   4.145   4.654
 1423SOL     OW 4284   0.539   3.788   4.236
 1423SOL    HW1 4285   0.458   3.789   4.294
 1423SOL    HW2 4286   0.542   3.871   4.181
 1424SOL     OW 4287   0.297   3.759   3.895
 1424SOL    HW1 4288   0.346   3.843   3.874
 1424SOL    HW2 4289   0.359   3.694   3.940
 1425SOL     OW 4290   0.935   3.960   4.204
 1425SOL    HW1 4291   0.887   4.001   4.126
 1425SOL    HW2 4292   1.034   3.958   4.185
 1426SOL     OW 4293   0.459   4.876   4.465
 1426SOL    HW1 4294   0.388   4.849   4.530
 1426SOL    HW2 4295   0.433   4.848   4.372
 1427SOL     OW 4296   1.032   4.273   3.740
 1427SOL    HW1 4297   0.991   4.355   3.701
 1427SOL    HW2 4298   1.096   4.299   3.813
 1428SOL     OW 4299   0.866   4.178   4.366
 1428SOL    HW1 4300   0.834   4.250   4.304
 1428SOL    HW2 4301   0.890   4.097   4.313
 1429SOL     OW 4302   1.017   3.763   4.477
 1429SOL    HW1 4303   0.945   3.768   4.408
 1429SOL    HW2 4304   0.993   3.694   4.546
 1430SOL     OW 4305   1.429   4.897   4.591
 1430SOL    HW1 4306   1.374   4.813   4.584
 1430SOL    HW2 4307   1.455   4.926   4.499
 1431SOL     OW 4308   1.466   4.314   4.716
 1431SOL    HW1 4309   1.436   4.219   4.723
 1431SOL    HW2 4310   1.539   4.330   4.782
 1432SOL     OW 4311   1.857   4.557   4.101
 1432SOL    HW1 4312   1.899   4.493   4.165
 1432SOL    HW2 4313   1.819   4.506   4.023
 1433SOL     OW 4314   1.390   4.299   3.802
 1433SOL    HW1 4315   1.336   4.278   3.883
 1433SOL    HW2 4316   1.481   4.258   3.811
 1434SOL     OW 4317   0.527   3.980   4.052
 1434SOL    HW1 4318   0.554   3.921   3.977
 1434SOL    HW2 4319   0.527   4.075   4.021
 1435SOL     OW 4320   1.111   4.919   4.824
 1435SOL    HW1 4321   1.071   4.963   4.905
 1435SOL    HW2 4322   1.070   4.956   4.741
 1436SOL     OW 4323   1.638   4.823   4.803
 1436SOL    HW1 4324   1.643   4.904   4.862
 1436SOL    HW2 4325   1.552   4.825   4.752
 1437SOL     OW 4326   0.705   4.774   4.092
 1437SOL    HW1 4327   0.691   4.781   4.191
 1437SOL    HW2 4328   0.789   4.723   4.074
 1438SOL     OW 4329   0.410   4.537   4.975
 1438SOL    HW1 4330   0.496   4.549   5.025
 1438SOL    HW2 4331   0.368   4.450   5.002
 1439SOL     OW 4332   0.367   4.824   4.225
 1439SOL    HW1 4333   0.360   4.907   4.169
 1439SOL    HW2 4334   0.371   4.744   4.165
 1440SOL     OW 4335   0.566   4.261   4.589
 1440SOL    HW1 4336   0.578   4.327   4.515
 1440SOL    HW2 4337   0.612   4.295   4.672
 1441SOL     OW 4338   1.582   4.363   4.196
 1441SOL    HW1 4339   1.551   4.424   4.269
 1441SOL    HW2 4340   1.632   4.415   4.127
 1442SOL     OW 4341   0.573   4.594   4.753
 1442SOL    HW1 4342   0.617   4.683   4.744
 1442SOL    HW2 4343   0.510   4.594   4.830
 1443SOL     OW 4344   1.209   4.249   3.999
 1443SOL    HW1 4345   1.222   4.165   4.053
 1443SOL    HW2 4346   1.180   4.323   4.059
 1444SOL     OW 4347   0.732   4.358   4.788
 1444SOL    HW1 4348   0.791   4.332   4.712
 1444SOL    HW2 4349   0.704   4.454   4.777
 1445SOL     OW 4350   0.307   3.787   4.342
 1445SOL    HW1 4351   0.296   3.881   4.375
 1445SOL    HW2 4352   0.302   3.724   4.419
 1446SOL     OW 4353   1.622   4.091   4.098
 1446SOL    HW1 4354   1.624   4.015   4.162
 1446SOL    HW2 4355   1.574   4.168   4.138
 1447SOL     OW 4356   1.023   4.490   4.690
 1447SOL    HW1 4357   1.038   4.511   4.786
 1447SOL    HW2 4358   0.993   4.395   4.681
 1448SOL     OW 4359   1.540   3.998   3.849
 1448SOL    HW1 4360   1.479   3.923   3.872
 1448SOL    HW2 4361   1.562   4.050   3.932
 1449SOL     OW 4362   1.303   4.562   3.766
 1449SOL    HW1 4363   1.337   4.469   3.781
 1449SOL    HW2 4364   1.321   4.589   3.671
 1450SOL     OW 4365   0.319   4.534   4.673
 1450SOL    HW1 4366   0.412   4.570   4.678
 1450SOL    HW2 4367   0.313   4.449   4.725
 1451SOL     OW 4368   0.339   4.233   4.730
 1451SOL    HW1 4369   0.287   4.150   4.713
 1451SOL    HW2 4370   0.416   4.238   4.666
 1452SOL     OW 4371   1.002   4.520   4.962
 1452SOL    HW1 4372   1.043   4.488   5.048
 1452SOL    HW2 4373   0.906   4.493   4.959
 1453SOL     OW 4374   0.815   4.296   4.049
 1453SOL    HW1 4375   0.822   4.207   4.003
 1453SOL    HW2 4376   0.721   4.330   4.041
 1454SOL     OW 4377   0.671   4.188   4.993
 1454SOL    HW1 4378   0.637   4.099   4.963
 1454SOL    HW2 4379   0.697   4.242   4.913
 1455SOL     OW 4380   0.473   4.224   3.915
 1455SOL    HW1 4381   0.534   4.304   3.919
 1455SOL    HW2 4382   0.378   4.255   3.922
 1456SOL     OW 4383   1.347   4.783   4.958
 1456SOL    HW1 4384   1.371   4.720   4.884
 1456SOL    HW2 4385   1.257   4.823   4.940
 1457SOL     OW 4386   1.302   4.579   4.033
 1457SOL    HW1 4387   1.216   4.548   4.075
 1457SOL    HW2 4388   1.298   4.565   3.934
 1458SOL     OW 4389   0.083   4.982   4.746
 1458SOL    HW1 4390   0.078   4.981   4.846
 1458SOL    HW2 4391   0.000   4.941   4.708
 1459SOL     OW 4392   1.726   3.859   4.247
 1459SOL    HW1 4393   1.799   3.842   4.180
 1459SOL    HW2 4394   1.695   3.772   4.285
 1460SOL     OW 4395   1.280   4.651   4.396
 1460SOL    HW1 4396   1.340   4.570   4.398
 1460SOL    HW2 4397   1.320   4.720   4.336
 1461SOL     OW 4398   1.841   3.899   4.687
 1461SOL    HW1 4399   1.880   3.814   4.651
 1461SOL    HW2 4400   1.743   3.901   4.668
 1462SOL     OW 4401   0.263   4.050   4.444
 1462SOL    HW1 4402   0.184   4.101   4.410
 1462SOL    HW2 4403   0.254   4.035   4.542
 1463SOL     OW 4404   0.822   4.726   5.096
 1463SOL    HW1 4405   0.862   4.725   5.004
 1463SOL    HW2 4406   0.832   4.818   5.136
 1464SOL     OW 4407   0.916   4.634   4.015
 1464SOL    HW1 4408   0.979   4.672   3.947
 1464SOL    HW2 4409   0.956   4.551   4.054
 1465SOL     OW 4410   1.014   3.960   4.695
 1465SOL    HW1 4411   1.006   3.924   4.602
 1465SOL    HW2 4412   1.012   3.884   4.760
 1466SOL     OW 4413   0.075   4.069   3.757
 1466SOL    HW1 4414  -0.017   4.041   3.728
 1466SOL    HW2 4415   0.106   4.146   3.701
 1467SOL     OW 4416   0.072   3.890   4.042
 1467SOL    HW1 4417   0.055   3.973   3.988
 1467SOL    HW2 4418   0.162   3.853   4.020
 1468SOL     OW 4419   1.183   5.059   3.843
 1468SOL    HW1 4420   1.084   5.048   3.845
 1468SOL    HW2 4421   1.217   5.074   3.936
 1469SOL     OW 4422   1.674   4.607   4.978
 1469SOL    HW1 4423   1.647   4.518   4.941
 1469SOL    HW2 4424   1.675   4.675   4.905
 1470SOL     OW 4425   1.225   4.049   4.173
 1470SOL    HW1 4426   1.290   3.975   4.162
 1470SOL    HW2 4427   1.245   4.099   4.257
 1471SOL     OW 4428   0.594   4.469   4.376
 1471SOL    HW1 4429   0.644   4.554   4.357
 1471SOL    HW2 4430   0.506   4.471   4.328
 1472SOL     OW 4431   0.859   4.680   4.585
 1472SOL    HW1 4432   0.913   4.611   4.633
 1472SOL    HW2 4433   0.827   4.749   4.651
 1473SOL     OW 4434   1.083   4.708   3.811
 1473SOL    HW1 4435   1.060   4.761   3.729
 1473SOL    HW2 4436   1.164   4.652   3.792
 1474SOL     OW 4437   1.824   3.916   4.951
 1474SOL    HW1 4438   1.820   3.826   4.995
 1474SOL    HW2 4439   1.827   3.905   4.852
 1475SOL     OW 4440   0.428   4.148   4.244
 1475SOL    HW1 4441   0.458   4.076   4.182
 1475SOL    HW2 4442   0.389   4.108   4.327
 1476SOL     OW 4443   1.424   3.938   4.836
 1476SOL    HW1 4444   1.476   3.873   4.891
 1476SOL    HW2 4445   1.375   4.001   4.897
 1477SOL     OW 4446   0.770   5.054   4.025
 1477SOL    HW1 4447   0.724   4.967   4.042
 1477SOL    HW2 4448   0.861   5.051   4.066
 1478SOL     OW 4449   1.352   3.776   3.892
 1478SOL    HW1 4450   1.387   3.735   3.808
 1478SOL    HW2 4451   1.262   3.738   3.912
 1479SOL     OW 4452   1.300   4.177   4.415
 1479SOL    HW1 4453   1.241   4.257   4.419
 1479SOL    HW2 4454   1.315   4.142   4.508
 1480SOL     OW 4455   1.593   3.945   4.606
 1480SOL    HW1 4456   1.509   3.944   4.660
 1480SOL    HW2 4457   1.595   4.028   4.550
 1481SOL     OW 4458   0.039   4.801   4.024
 1481SOL    HW1 4459   0.138   4.790   4.015
 1481SOL    HW2 4460  -0.001   4.715   4.056
 1482SOL     OW 4461   2.092   0.628   0.113
 1482SOL    HW1 4462   1.999   0.626   0.150
 1482SOL    HW2 4463   2.093   0.589   0.021
 1483SOL     OW 4464   2.087   0.275   0.996
 1483SOL    HW1 4465   2.122   0.258   1.088
 1483SOL    HW2 4466   1.999   0.230   0.984
 1484SOL     OW 4467   1.881   0.368   0.647
 1484SOL    HW1 4468   1.799   0.411   0.686
 1484SOL    HW2 4469   1.853   0.295   0.584
 1485SOL     OW 4470   2.431   1.275   1.165
 1485SOL    HW1 4471   2.338   1.268   1.128
 1485SOL    HW2 4472   2.442   1.364   1.209
 1486SOL     OW 4473   3.417   1.511   0.703
 1486SOL    HW1 4474   3.360   1.495   0.784
 1486SOL    HW2 4475   3.358   1.521   0.623
 1487SOL     OW 4476   2.997   0.703   0.717
 1487SOL    HW1 4477   3.054   0.781   0.692
 1487SOL    HW2 4478   2.937   0.729   0.793
 1488SOL     OW 4479   3.617   0.607   0.231
 1488SOL    HW1 4480   3.605   0.594   0.132
 1488SOL    HW2 4481   3.587   0.526   0.280
 1489SOL     OW 4482   2.630   1.144   1.023
 1489SOL    HW1 4483   2.552   1.161   1.083
 1489SOL    HW2 4484   2.664   1.231   0.987
 1490SOL     OW 4485   2.712   0.798   1.823
 1490SOL    HW1 4486   2.708   0.874   1.888
 1490SOL    HW2 4487   2.734   0.834   1.732
 1491SOL     OW 4488   2.547   1.012   0.665
 1491SOL    HW1 4489   2.616   0.996   0.735
 1491SOL    HW2 4490   2.474   1.069   0.703
 1492SOL     OW 4491   2.548   1.161   1.803
 1492SOL    HW1 4492   2.608   1.240   1.817
 1492SOL    HW2 4493   2.462   1.192   1.762
 1493SOL     OW 4494   2.197   1.435   1.061
 1493SOL    HW1 4495   2.119   1.404   1.008
 1493SOL    HW2 4496   2.255   1.493   1.004
 1494SOL     OW 4497   3.322   1.505   1.339
 1494SOL    HW1 4498   3.346   1.599   1.365
 1494SOL    HW2 4499   3.306   1.451   1.421
 1495SOL     OW 4500   2.300   0.392   1.499
 1495SOL    HW1 4501   2.382   0.336   1.508
 1495SOL    HW2 4502   2.219   0.334   1.503
 1496SOL     OW 4503   3.465   0.447   0.737
 1496SOL    HW1 4504   3.391   0.493   0.687
 1496SOL    HW2 4505   3.516   0.515   0.790
 1497SOL     OW 4506   2.093   1.713   0.483
 1497SOL    HW1 4507   2.127   1.790   0.537
 1497SOL    HW2 4508   2.137   1.713   0.393
 1498SOL     OW 4509   2.989   1.341   1.690
 1498SOL    HW1 4510   3.036   1.341   1.778
 1498SOL    HW2 4511   2.941   1.254   1.679
 1499SOL     OW 4512   2.092   1.434   0.538
 1499SOL    HW1 4513   2.066   1.530   0.538
 1499SOL    HW2 4514   2.021   1.380   0.583
 1500SOL     OW 4515   2.102   1.091   0.886
 1500SOL    HW1 4516   2.116   1.007   0.938
 1500SOL    HW2 4517   2.047   1.155   0.941
 1501SOL     OW 4518   2.482   1.786   1.439
 1501SOL    HW1 4519   2.390   1.769   1.474
 1501SOL    HW2 4520   2.510   1.878   1.465
 1502SOL     OW 4521   2.468   0.964   0.123
 1502SOL    HW1 4522   2.475   1.048   0.069
 1502SOL    HW2 4523   2.514   0.977   0.211
 1503SOL     OW 4524   3.456   0.114   1.480
 1503SOL    HW1 4525   3.438   0.181   1.408
 1503SOL    HW2 4526   3.453   0.160   1.569
 1504SOL     OW 4527   1.984   0.643   0.563
 1504SOL    HW1 4528   1.939   0.555   0.580
 1504SOL    HW2 4529   1.983   0.697   0.647
 1505SOL     OW 4530   3.704   1.767   0.359
 1505SOL    HW1 4531   3.758   1.738   0.439
 1505SOL    HW2 4532   3.734   1.857   0.330
 1506SOL     OW 4533   1.889   1.596   0.117
 1506SOL    HW1 4534   1.870   1.500   0.138
 1506SOL    HW2 4535   1.856   1.654   0.192
 1507SOL     OW 4536   3.551   0.922   0.612
 1507SOL    HW1 4537   3.646   0.893   0.620
 1507SOL    HW2 4538   3.543   0.987   0.537
 1508SOL     OW 4539   3.503   1.108   0.432
 1508SOL    HW1 4540   3.589   1.110   0.380
 1508SOL    HW2 4541   3.517   1.155   0.520
 1509SOL     OW 4542   1.975   0.737   1.597
 1509SOL    HW1 4543   2.063   0.724   1.642
 1509SOL    HW2 4544   1.962   0.834   1.575
 1510SOL     OW 4545   2.475   1.365   0.726
 1510SOL    HW1 4546   2.426   1.278   0.735
 1510SOL    HW2 4547   2.452   1.408   0.639
 1511SOL     OW 4548   3.155   1.228   1.423
 1511SOL    HW1 4549   3.192   1.155   1.365
 1511SOL    HW2 4550   3.207   1.233   1.508
 1512SOL     OW 4551   2.671   0.004   0.502
 1512SOL    HW1 4552   2.711   0.095   0.493
 1512SOL    HW2 4553   2.571   0.012   0.508
 1513SOL     OW 4554   2.059   0.976   1.264
 1513SOL    HW1 4555   2.148   0.931   1.250
 1513SOL    HW2 4556   1.986   0.911   1.245
 1514SOL     OW 4557   3.387   0.999   0.190
 1514SOL    HW1 4558   3.324   0.923   0.203
 1514SOL    HW2 4559   3.435   1.017   0.276
 1515SOL     OW 4560   3.049   1.792   1.616
 1515SOL    HW1 4561   3.073   1.852   1.540
 1515SOL    HW2 4562   3.056   1.697   1.586
 1516SOL     OW 4563   2.179   0.251   1.801
 1516SOL    HW1 4564   2.250   0.322   1.807
 1516SOL    HW2 4565   2.091   0.290   1.829
 1517SOL     OW 4566   3.328   1.417   0.953
 1517SOL    HW1 4567   3.269   1.423   1.033
 1517SOL    HW2 4568   3.313   1.329   0.907
 1518SOL     OW 4569   3.529   1.714   0.572
 1518SOL    HW1 4570   3.488   1.691   0.484
 1518SOL    HW2 4571   3.511   1.640   0.637
 1519SOL     OW 4572   2.460   0.729   0.270
 1519SOL    HW1 4573   2.484   0.798   0.202
 1519SOL    HW2 4574   2.382   0.762   0.324
 1520SOL     OW 4575   3.143   0.345   0.944
 1520SOL    HW1 4576   3.057   0.295   0.931
 1520SOL    HW2 4577   3.205   0.291   1.000
 1521SOL     OW 4578   3.438   1.662   0.307
 1521SOL    HW1 4579   3.527   1.708   0.310
 1521SOL    HW2 4580   3.417   1.638   0.212
 1522SOL     OW 4581   2.669   0.605   1.465
 1522SOL    HW1 4582   2.622   0.602   1.554
 1522SOL    HW2 4583   2.618   0.550   1.399
 1523SOL     OW 4584   3.256   0.469   1.674
 1523SOL    HW1 4585   3.236   0.512   1.762
 1523SOL    HW2 4586   3.334   0.407   1.683
 1524SOL     OW 4587   2.835   0.890   1.572
 1524SOL    HW1 4588   2.881   0.806   1.543
 1524SOL    HW2 4589   2.779   0.924   1.497
 1525SOL     OW 4590   2.853   0.410   1.242
 1525SOL    HW1 4591   2.776   0.444   1.296
 1525SOL    HW2 4592   2.819   0.359   1.163
 1526SOL     OW 4593   2.903   0.701   0.429
 1526SOL    HW1 4594   2.929   0.697   0.525
 1526SOL    HW2 4595   2.818   0.650   0.415
 1527SOL     OW 4596   1.938   0.811   0.789
 1527SOL    HW1 4597   2.037   0.799   0.798
 1527SOL    HW2 4598   1.914   0.906   0.810
 1528SOL     OW 4599   1.992   1.821   1.571
 1528SOL    HW1 4600   1.982   1.806   1.670
 1528SOL    HW2 4601   1.906   1.857   1.535
 1529SOL     OW 4602   2.727   0.348   0.195
 1529SOL    HW1 4603   2.786   0.411   0.146
 1529SOL    HW2 4604   2.746   0.254   0.166
 1530SOL     OW 4605   3.581   0.585   1.831
 1530SOL    HW1 4606   3.555   0.674   1.795
 1530SOL    HW2 4607   3.579   0.517   1.758
 1531SOL     OW 4608   3.224   1.144   0.545
 1531SOL    HW1 4609   3.307   1.115   0.497
 1531SOL    HW2 4610   3.175   1.211   0.489
 1532SOL     OW 4611   2.412   0.196   0.885
 1532SOL    HW1 4612   2.407   0.191   0.985
 1532SOL    HW2 4613   2.414   0.292   0.856
 1533SOL     OW 4614   2.870   1.456   0.477
 1533SOL    HW1 4615   2.824   1.528   0.425
 1533SOL    HW2 4616   2.866   1.476   0.575
 1534SOL     OW 4617   2.213   1.801   0.853
 1534SOL    HW1 4618   2.263   1.715   0.859
 1534SOL    HW2 4619   2.278   1.878   0.850
 1535SOL     OW 4620   3.657   1.066   0.873
 1535SOL    HW1 4621   3.595   1.051   0.797
 1535SOL    HW2 4622   3.605   1.077   0.958
 1536SOL     OW 4623   3.089   1.550   1.506
 1536SOL    HW1 4624   3.095   1.473   1.570
 1536SOL    HW2 4625   3.037   1.524   1.426
 1537SOL     OW 4626   2.183   0.943   0.242
 1537SOL    HW1 4627   2.265   0.982   0.200
 1537SOL    HW2 4628   2.156   0.861   0.193
 1538SOL     OW 4629   3.320   0.735   0.728
 1538SOL    HW1 4630   3.315   0.670   0.803
 1538SOL    HW2 4631   3.400   0.794   0.741
 1539SOL     OW 4632   2.323   1.266   1.727
 1539SOL    HW1 4633   2.273   1.267   1.641
 1539SOL    HW2 4634   2.260   1.248   1.803
 1540SOL     OW 4635   2.973   1.776   0.237
 1540SOL    HW1 4636   2.913   1.714   0.287
 1540SOL    HW2 4637   3.004   1.732   0.152
 1541SOL     OW 4638   2.064   0.285   1.498
 1541SOL    HW1 4639   1.984   0.345   1.485
 1541SOL    HW2 4640   2.054   0.236   1.584
 1542SOL     OW 4641   3.494   1.377   0.081
 1542SOL    HW1 4642   3.462   1.471   0.071
 1542SOL    HW2 4643   3.418   1.314   0.069
 1543SOL     OW 4644   2.326   1.743   0.323
 1543SOL    HW1 4645   2.359   1.782   0.409
 1543SOL    HW2 4646   2.402   1.736   0.258
 1544SOL     OW 4647   3.262   0.107   0.426
 1544SOL    HW1 4648   3.238   0.070   0.336
 1544SOL    HW2 4649   3.361   0.123   0.430
 1545SOL     OW 4650   2.111   1.785   1.241
 1545SOL    HW1 4651   2.168   1.720   1.291
 1545SOL    HW2 4652   2.095   1.752   1.148
 1546SOL     OW 4653   2.802   1.698   0.904
 1546SOL    HW1 4654   2.882   1.641   0.925
 1546SOL    HW2 4655   2.753   1.658   0.827
 1547SOL     OW 4656   2.244   0.700   0.480
 1547SOL    HW1 4657   2.289   0.610   0.477
 1547SOL    HW2 4658   2.150   0.689   0.513
 1548SOL     OW 4659   3.409   0.222   1.729
 1548SOL    HW1 4660   3.404   0.259   1.821
 1548SOL    HW2 4661   3.337   0.153   1.717
 1549SOL     OW 4662   2.476   0.122   0.117
 1549SOL    HW1 4663   2.574   0.100   0.124
 1549SOL    HW2 4664   2.445   0.105   0.024
 1550SOL     OW 4665   2.643   0.264   1.749
 1550SOL    HW1 4666   2.710   0.203   1.792
 1550SOL    HW2 4667   2.570   0.283   1.814
 1551SOL     OW 4668   2.750   1.514   1.195
 1551SOL    HW1 4669   2.727   1.489   1.101
 1551SOL    HW2 4670   2.811   1.445   1.234
 1552SOL     OW 4671   3.213   0.590   1.433
 1552SOL    HW1 4672   3.241   0.547   1.518
 1552SOL    HW2 4673   3.238   0.686   1.434
 1553SOL     OW 4674   2.665   1.402   0.924
 1553SOL    HW1 4675   2.755   1.416   0.882
 1553SOL    HW2 4676   2.594   1.404   0.853
 1554SOL     OW 4677   2.784   0.503   0.899
 1554SOL    HW1 4678   2.759   0.494   0.803
 1554SOL    HW2 4679   2.832   0.421   0.930
 1555SOL     OW 4680   2.401   0.064   0.512
 1555SOL    HW1 4681   2.320   0.065   0.570
 1555SOL    HW2 4682   2.404   0.147   0.457
 1556SOL     OW 4683   3.296   1.188   0.041
 1556SOL    HW1 4684   3.328   1.112   0.098
 1556SOL    HW2 4685   3.204   1.215   0.071
 1557SOL     OW 4686   2.159   0.035   0.171
 1557SOL    HW1 4687   2.208   0.119   0.150
 1557SOL    HW2 4688   2.221  -0.030   0.216
 1558SOL     OW 4689   2.797   0.236   0.480
 1558SOL    HW1 4690   2.749   0.277   0.402
 1558SOL    HW2 4691   2.896   0.234   0.461
 1559SOL     OW 4692   2.938   0.683   1.464
 1559SOL    HW1 4693   2.858   0.622   1.467
 1559SOL    HW2 4694   3.019   0.630   1.440
 1560SOL     OW 4695   3.089   1.570   0.793
 1560SOL    HW1 4696   3.110   1.644   0.728
 1560SOL    HW2 4697   3.157   1.570   0.866
 1561SOL     OW 4698   2.321   1.152   0.741
 1561SOL    HW1 4699   2.250   1.125   0.806
 1561SOL    HW2 4700   2.295   1.124   0.648
 1562SOL     OW 4701   3.133   1.797   0.591
 1562SOL    HW1 4702   3.177   1.861   0.527
 1562SOL    HW2 4703   3.083   1.849   0.661
 1563SOL     OW 4704   2.894   0.549   0.016
 1563SOL    HW1 4705   2.853   0.631  -0.023
 1563SOL    HW2 4706   2.958   0.575   0.089
 1564SOL     OW 4707   1.940   0.556   1.386
 1564SOL    HW1 4708   2.032   0.555   1.345
 1564SOL    HW2 4709   1.934   0.630   1.453
 1565SOL     OW 4710   2.423   0.222   1.147
 1565SOL    HW1 4711   2.461   0.138   1.184
 1565SOL    HW2 4712   2.335   0.241   1.191
 1566SOL     OW 4713   2.728   0.454   0.642
 1566SOL    HW1 4714   2.696   0.526   0.580
 1566SOL    HW2 4715   2.752   0.373   0.589
 1567SOL     OW 4716   2.879   0.039   0.753
 1567SOL    HW1 4717   2.807   0.044   0.684
 1567SOL    HW2 4718   2.855  -0.030   0.822
 1568SOL     OW 4719   3.291   1.173   0.867
 1568SOL    HW1 4720   3.236   1.089   0.860
 1568SOL    HW2 4721   3.317   1.202   0.775
 1569SOL     OW 4722   3.328   0.590   0.992
 1569SOL    HW1 4723   3.298   0.495   0.999
 1569SOL    HW2 4724   3.401   0.606   1.058
 1570SOL     OW 4725   3.719   0.833   0.377
 1570SOL    HW1 4726   3.761   0.769   0.441
 1570SOL    HW2 4727   3.681   0.782   0.299
 1571SOL     OW 4728   2.350   1.385   0.174
 1571SOL    HW1 4729   2.263   1.370   0.221
 1571SOL    HW2 4730   2.333   1.411   0.079
 1572SOL     OW 4731   3.526   1.280   0.657
 1572SOL    HW1 4732   3.625   1.288   0.671
 1572SOL    HW2 4733   3.481   1.364   0.688
 1573SOL     OW 4734   3.252   0.575   0.078
 1573SOL    HW1 4735   3.198   0.554   0.159
 1573SOL    HW2 4736   3.343   0.534   0.087
 1574SOL     OW 4737   2.389   0.256   0.328
 1574SOL    HW1 4738   2.416   0.197   0.253
 1574SOL    HW2 4739   2.389   0.351   0.297
 1575SOL     OW 4740   3.616   1.223   1.588
 1575SOL    HW1 4741   3.707   1.184   1.575
 1575SOL    HW2 4742   3.624   1.319   1.612
 1576SOL     OW 4743   2.926   1.347   1.340
 1576SOL    HW1 4744   2.846   1.324   1.395
 1576SOL    HW2 4745   3.009   1.321   1.389
 1577SOL     OW 4746   3.454   1.629   1.625
 1577SOL    HW1 4747   3.481   1.663   1.535
 1577SOL    HW2 4748   3.533   1.591   1.671
 1578SOL     OW 4749   2.973   1.195   1.100
 1578SOL    HW1 4750   2.933   1.239   1.181
 1578SOL    HW2 4751   2.932   1.232   1.017
 1579SOL     OW 4752   3.500   1.099   1.079
 1579SOL    HW1 4753   3.505   1.180   1.138
 1579SOL    HW2 4754   3.414   1.101   1.028
 1580SOL     OW 4755   2.777   0.089   1.402
 1580SOL    HW1 4756   2.802   0.069   1.307
 1580SOL    HW2 4757   2.849   0.145   1.444
 1581SOL     OW 4758   2.842   1.116   1.719
 1581SOL    HW1 4759   2.743   1.122   1.729
 1581SOL    HW2 4760   2.865   1.036   1.663
 1582SOL     OW 4761   2.567   1.050   0.368
 1582SOL    HW1 4762   2.553   1.057   0.467
 1582SOL    HW2 4763   2.651   0.999   0.350
 1583SOL     OW 4764   2.272   0.813   1.251
 1583SOL    HW1 4765   2.358   0.825   1.301
 1583SOL    HW2 4766   2.230   0.726   1.278
 1584SOL     OW 4767   3.136   0.386   1.262
 1584SOL    HW1 4768   3.157   0.460   1.326
 1584SOL    HW2 4769   3.047   0.403   1.219
 1585SOL     OW 4770   1.926   1.564   1.331
 1585SOL    HW1 4771   1.880   1.646   1.297
 1585SOL    HW2 4772   2.024   1.583   1.340
 1586SOL     OW 4773   2.229   1.100   0.501
 1586SOL    HW1 4774   2.222   1.183   0.445
 1586SOL    HW2 4775   2.233   1.020   0.441
 1587SOL     OW 4776   2.428   0.537   0.865
 1587SOL    HW1 4777   2.440   0.603   0.791
 1587SOL    HW2 4778   2.474   0.571   0.948
 1588SOL     OW 4779   3.114   1.348   0.388
 1588SOL    HW1 4780   3.164   1.425   0.428
 1588SOL    HW2 4781   3.019   1.350   0.420
 1589SOL     OW 4782   3.134   1.445   1.142
 1589SOL    HW1 4783   3.181   1.458   1.229
 1589SOL    HW2 4784   3.068   1.371   1.151
 1590SOL     OW 4785   3.444   0.639   0.472
 1590SOL    HW1 4786   3.413   0.700   0.545
 1590SOL    HW2 4787   3.494   0.691   0.403
 1591SOL     OW 4788   2.216   1.510   1.329
 1591SOL    HW1 4789   2.195   1.466   1.242
 1591SOL    HW2 4790   2.313   1.536   1.332
 1592SOL     OW 4791   2.264   0.751   1.598
 1592SOL    HW1 4792   2.332   0.806   1.551
 1592SOL    HW2 4793   2.304   0.663   1.625
 1593SOL     OW 4794   3.449   0.779   1.670
 1593SOL    HW1 4795   3.357   0.817   1.665
 1593SOL    HW2 4796   3.509   0.826   1.605
 1594SOL     OW 4797   2.875   0.105   1.770
 1594SOL    HW1 4798   2.881   0.190   1.718
 1594SOL    HW2 4799   2.907   0.029   1.713
 1595SOL     OW 4800   2.366   0.050   1.740
 1595SOL    HW1 4801   2.324  -0.007   1.670
 1595SOL    HW2 4802   2.300   0.119   1.772
 1596SOL     OW 4803   2.435   0.870   1.029
 1596SOL    HW1 4804   2.479   0.959   1.020
 1596SOL    HW2 4805   2.372   0.870   1.106
 1597SOL     OW 4806   3.222   0.862   1.045
 1597SOL    HW1 4807   3.147   0.862   0.979
 1597SOL    HW2 4808   3.259   0.770   1.054
 1598SOL     OW 4809   3.071   0.525   0.275
 1598SOL    HW1 4810   3.084   0.441   0.329
 1598SOL    HW2 4811   3.042   0.599   0.335
 1599SOL     OW 4812   2.169   0.213   1.231
 1599SOL    HW1 4813   2.146   0.250   1.321
 1599SOL    HW2 4814   2.139   0.118   1.225
 1600SOL     OW 4815   1.899   1.310   1.282
 1600SOL    HW1 4816   1.952   1.261   1.350
 1600SOL    HW2 4817   1.921   1.408   1.287
 1601SOL     OW 4818   2.594   0.634   1.064
 1601SOL    HW1 4819   2.653   0.608   0.988
 1601SOL    HW2 4820   2.566   0.730   1.053
 1602SOL     OW 4821   3.590   0.935   1.854
 1602SOL    HW1 4822   3.544   0.928   1.765
 1602SOL    HW2 4823   3.528   0.979   1.920
 1603SOL     OW 4824   2.169   0.063   0.618
 1603SOL    HW1 4825   2.158   0.157   0.651
 1603SOL    HW2 4826   2.164   0.000   0.695
 1604SOL     OW 4827   3.484   0.367   0.374
 1604SOL    HW1 4828   3.486   0.291   0.438
 1604SOL    HW2 4829   3.436   0.444   0.414
 1605SOL     OW 4830   2.885   0.766   0.966
 1605SOL    HW1 4831   2.900   0.787   1.062
 1605SOL    HW2 4832   2.855   0.671   0.957
 1606SOL     OW 4833   2.842   1.573   1.700
 1606SOL    HW1 4834   2.822   1.617   1.612
 1606SOL    HW2 4835   2.881   1.482   1.684
 1607SOL     OW 4836   3.721   1.518   1.605
 1607SOL    HW1 4837   3.735   1.545   1.510
 1607SOL    HW2 4838   3.804   1.540   1.658
 1608SOL     OW 4839   2.212   0.898   1.804
 1608SOL    HW1 4840   2.288   0.942   1.852
 1608SOL    HW2 4841   2.247   0.851   1.722
 1609SOL     OW 4842   3.402   0.274   0.125
 1609SOL    HW1 4843   3.341   0.199   0.148
 1609SOL    HW2 4844   3.424   0.326   0.208
 1610SOL     OW 4845   3.165   0.838   0.042
 1610SOL    HW1 4846   3.199   0.745   0.057
 1610SOL    HW2 4847   3.183   0.865  -0.053
 1611SOL     OW 4848   2.930   1.333   0.849
 1611SOL    HW1 4849   2.937   1.249   0.794
 1611SOL    HW2 4850   2.992   1.402   0.813
 1612SOL     OW 4851   2.181   0.810   0.949
 1612SOL    HW1 4852   2.274   0.846   0.954
 1612SOL    HW2 4853   2.175   0.725   1.001
 1613SOL     OW 4854   2.201   0.509   1.006
 1613SOL    HW1 4855   2.149   0.426   0.989
 1613SOL    HW2 4856   2.278   0.514   0.942
 1614SOL     OW 4857   3.000   0.380   1.678
 1614SOL    HW1 4858   2.955   0.443   1.742
 1614SOL    HW2 4859   3.093   0.411   1.661
 1615SOL     OW 4860   3.022   0.207   1.477
 1615SOL    HW1 4861   3.022   0.271   1.554
 1615SOL    HW2 4862   3.050   0.255   1.394
 1616SOL     OW 4863   1.870   1.326   0.200
 1616SOL    HW1 4864   1.777   1.347   0.169
 1616SOL    HW2 4865   1.880   1.227   0.213
 1617SOL     OW 4866   1.950   1.801   0.927
 1617SOL    HW1 4867   1.908   1.715   0.900
 1617SOL    HW2 4868   2.044   1.804   0.893
 1618SOL     OW 4869   2.366   1.568   0.910
 1618SOL    HW1 4870   2.432   1.642   0.919
 1618SOL    HW2 4871   2.410   1.489   0.868
 1619SOL     OW 4872   2.864   0.796   1.238
 1619SOL    HW1 4873   2.905   0.764   1.324
 1619SOL    HW2 4874   2.768   0.769   1.235
 1620SOL     OW 4875   1.902   0.544   1.114
 1620SOL    HW1 4876   1.987   0.511   1.073
 1620SOL    HW2 4877   1.915   0.559   1.212
 1621SOL     OW 4878   2.051   0.520   1.722
 1621SOL    HW1 4879   2.110   0.480   1.652
 1621SOL    HW2 4880   1.993   0.591   1.681
 1622SOL     OW 4881   3.231   0.950   1.660
 1622SOL    HW1 4882   3.270   1.039   1.680
 1622SOL    HW2 4883   3.241   0.930   1.563
 1623SOL     OW 4884   2.677   0.572   0.325
 1623SOL    HW1 4885   2.684   0.483   0.279
 1623SOL    HW2 4886   2.583   0.606   0.317
 1624SOL     OW 4887   3.519   0.604   1.206
 1624SOL    HW1 4888   3.481   0.535   1.268
 1624SOL    HW2 4889   3.601   0.568   1.162
 1625SOL     OW 4890   2.114   1.564   1.744
 1625SOL    HW1 4891   2.084   1.621   1.820
 1625SOL    HW2 4892   2.107   1.467   1.770
 1626SOL     OW 4893   2.533   0.464   1.269
 1626SOL    HW1 4894   2.499   0.375   1.239
 1626SOL    HW2 4895   2.559   0.518   1.189
 1627SOL     OW 4896   2.792   1.678   1.465
 1627SOL    HW1 4897   2.768   1.660   1.370
 1627SOL    HW2 4898   2.822   1.772   1.475
 1628SOL     OW 4899   2.335   0.500   0.191
 1628SOL    HW1 4900   2.396   0.580   0.195
 1628SOL    HW2 4901   2.240   0.531   0.198
 1629SOL     OW 4902   2.021   1.137   1.466
 1629SOL    HW1 4903   2.043   1.076   1.542
 1629SOL    HW2 4904   2.031   1.088   1.380
 1630SOL     OW 4905   3.209   1.059   1.234
 1630SOL    HW1 4906   3.233   0.996   1.160
 1630SOL    HW2 4907   3.119   1.099   1.216
 1631SOL     OW 4908   3.164   0.855   0.309
 1631SOL    HW1 4909   3.078   0.824   0.351
 1631SOL    HW2 4910   3.160   0.841   0.210
 1632SOL     OW 4911   3.621   1.747   1.154
 1632SOL    HW1 4912   3.682   1.777   1.081
 1632SOL    HW2 4913   3.583   1.658   1.132
 1633SOL     OW 4914   3.114   1.731   1.128
 1633SOL    HW1 4915   3.198   1.736   1.074
 1633SOL    HW2 4916   3.091   1.635   1.146
 1634SOL     OW 4917   1.945   1.258   1.022
 1634SOL    HW1 4918   1.940   1.257   1.122
 1634SOL    HW2 4919   1.862   1.217   0.984
 1635SOL     OW 4920   2.550   1.662   1.716
 1635SOL    HW1 4921   2.494   1.743   1.725
 1635SOL    HW2 4922   2.602   1.666   1.630
 1636SOL     OW 4923   2.765   0.086   0.133
 1636SOL    HW1 4924   2.816   0.087   0.047
 1636SOL    HW2 4925   2.821   0.044   0.204
 1637SOL     OW 4926   3.588   0.135   0.523
 1637SOL    HW1 4927   3.661   0.118   0.456
 1637SOL    HW2 4928   3.557   0.048   0.561
 1638SOL     OW 4929   3.250   1.573   0.477
 1638SOL    HW1 4930   3.317   1.585   0.403
 1638SOL    HW2 4931   3.210   1.662   0.500
 1639SOL     OW 4932   1.992   1.794   1.851
 1639SOL    HW1 4933   1.951   1.720   1.904
 1639SOL    HW2 4934   2.056   1.845   1.909
 1640SOL     OW 4935   3.142   0.927   0.672
 1640SOL    HW1 4936   3.202   0.846   0.674
 1640SOL    HW2 4937   3.182   0.996   0.612
 1641SOL     OW 4938   2.692   1.273   1.422
 1641SOL    HW1 4939   2.687   1.306   1.517
 1641SOL    HW2 4940   2.606   1.292   1.376
 1642SOL     OW 4941   2.534   1.616   0.154
 1642SOL    HW1 4942   2.543   1.626   0.055
 1642SOL    HW2 4943   2.494   1.527   0.175
 1643SOL     OW 4944   3.512   1.720   1.394
 1643SOL    HW1 4945   3.565   1.730   1.310
 1643SOL    HW2 4946   3.485   1.810   1.428
 1644SOL     OW 4947   3.703   0.175   0.963
 1644SOL    HW1 4948   3.742   0.090   0.927
 1644SOL    HW2 4949   3.605   0.177   0.944
 1645SOL     OW 4950   2.125   0.326   0.720
 1645SOL    HW1 4951   2.046   0.377   0.686
 1645SOL    HW2 4952   2.116   0.311   0.818
 1646SOL     OW 4953   3.056   1.612   0.031
 1646SOL    HW1 4954   3.062   1.519   0.068
 1646SOL    HW2 4955   2.997   1.612  -0.049
 1647SOL     OW 4956   2.684   1.002   1.372
 1647SOL    HW1 4957   2.724   1.001   1.280
 1647SOL    HW2 4958   2.694   1.094   1.412
 1648SOL     OW 4959   2.778   0.910   0.291
 1648SOL    HW1 4960   2.841   0.948   0.223
 1648SOL    HW2 4961   2.818   0.827   0.330
 1649SOL     OW 4962   3.366   1.607   0.044
 1649SOL    HW1 4963   3.274   1.644   0.051
 1649SOL    HW2 4964   3.404   1.627  -0.046
 1650SOL     OW 4965   2.234   1.288   1.490
 1650SOL    HW1 4966   2.221   1.381   1.456
 1650SOL    HW2 4967   2.150   1.236   1.477
 1651SOL     OW 4968   3.476   1.292   1.289
 1651SOL    HW1 4969   3.536   1.295   1.369
 1651SOL    HW2 4970   3.401   1.356   1.302
 1652SOL     OW 4971   2.901   1.098   0.696
 1652SOL    HW1 4972   2.831   1.051   0.750
 1652SOL    HW2 4973   2.960   1.030   0.653
 1653SOL     OW 4974   2.876   0.236   0.971
 1653SOL    HW1 4975   2.868   0.200   0.878
 1653SOL    HW2 4976   2.874   0.160   1.036
 1654SOL     OW 4977   2.452   1.487   0.491
 1654SOL    HW1 4978   2.494   1.429   0.421
 1654SOL    HW2 4979   2.408   1.566   0.447
 1655SOL     OW 4980   3.571   0.385   1.381
 1655SOL    HW1 4981   3.644   0.454   1.385
 1655SOL    HW2 4982   3.599   0.310   1.322
 1656SOL     OW 4983   2.117   1.348   0.290
 1656SOL    HW1 4984   2.021   1.349   0.263
 1656SOL    HW2 4985   2.129   1.401   0.374
 1657SOL     OW 4986   1.967   1.013   1.726
 1657SOL    HW1 4987   1.890   0.980   1.780
 1657SOL    HW2 4988   2.052   0.983   1.768
 1658SOL     OW 4989   2.534   0.203   1.489
 1658SOL    HW1 4990   2.624   0.187   1.449
 1658SOL    HW2 4991   2.542   0.208   1.588
 1659SOL     OW 4992   3.302   0.856   1.398
 1659SOL    HW1 4993   3.245   0.908   1.335
 1659SOL    HW2 4994   3.398   0.868   1.374
 1660SOL     OW 4995   1.934   0.166   0.318
 1660SOL    HW1 4996   1.917   0.249   0.264
 1660SOL    HW2 4997   2.024   0.129   0.296
 1661SOL     OW 4998   3.045   1.335   0.119
 1661SOL    HW1 4999   2.946   1.324   0.121
 1661SOL    HW2 5000   3.079   1.350   0.212
 1662SOL     OW 5001   2.475   0.842   1.431
 1662SOL    HW1 5002   2.531   0.923   1.414
 1662SOL    HW2 5003   2.534   0.762   1.434
 1663SOL     OW 5004   3.355   1.767   0.959
 1663SOL    HW1 5005   3.388   1.831   0.890
 1663SOL    HW2 5006   3.421   1.761   1.034
 1664SOL     OW 5007   2.578   0.565   1.708
 1664SOL    HW1 5008   2.597   0.630   1.782
 1664SOL    HW2 5009   2.638   0.485   1.717
 1665SOL     OW 5010   3.312   1.220   1.633
 1665SOL    HW1 5011   3.303   1.210   1.732
 1665SOL    HW2 5012   3.408   1.213   1.607
 1666SOL     OW 5013   2.252   1.741   1.560
 1666SOL    HW1 5014   2.161   1.782   1.558
 1666SOL    HW2 5015   2.245   1.647   1.592
 1667SOL     OW 5016   3.536   0.883   1.254
 1667SOL    HW1 5017   3.509   0.794   1.217
 1667SOL    HW2 5018   3.537   0.951   1.181
 1668SOL     OW 5019   3.087   0.325   0.449
 1668SOL    HW1 5020   3.152   0.251   0.438
 1668SOL    HW2 5021   3.107   0.375   0.533
 1669SOL     OW 5022   2.456   0.745   0.652
 1669SOL    HW1 5023   2.506   0.830   0.633
 1669SOL    HW2 5024   2.368   0.747   0.604
 1670SOL     OW 5025   3.639   0.342   1.642
 1670SOL    HW1 5026   3.622   0.373   1.548
 1670SOL    HW2 5027   3.555   0.305   1.680
 1671SOL     OW 5028   3.592   0.934   1.517
 1671SOL    HW1 5029   3.630   1.025   1.532
 1671SOL    HW2 5030   3.584   0.917   1.418
 1672SOL     OW 5031   2.721   1.374   0.016
 1672SOL    HW1 5032   2.675   1.389   0.104
 1672SOL    HW2 5033   2.765   1.459  -0.014
 1673SOL     OW 5034   2.523   1.790   0.953
 1673SOL    HW1 5035   2.477   1.878   0.940
 1673SOL    HW2 5036   2.622   1.802   0.946
 1674SOL     OW 5037   2.721   0.956   0.861
 1674SOL    HW1 5038   2.775   0.887   0.909
 1674SOL    HW2 5039   2.689   1.025   0.927
 1675SOL     OW 5040   2.945   0.984   0.087
 1675SOL    HW1 5041   2.922   1.037   0.005
 1675SOL    HW2 5042   3.026   0.928   0.068
 1676SOL     OW 5043   3.723   1.569   0.851
 1676SOL    HW1 5044   3.652   1.557   0.781
 1676SOL    HW2 5045   3.724   1.490   0.911
 1677SOL     OW 5046   2.083   1.314   1.844
 1677SOL    HW1 5047   2.018   1.241   1.823
 1677SOL    HW2 5048   2.087   1.328   1.942
 1678SOL     OW 5049   1.941   1.240   0.653
 1678SOL    HW1 5050   1.940   1.193   0.741
 1678SOL    HW2 5051   2.023   1.212   0.602
 1679SOL     OW 5052   2.534   1.391   1.624
 1679SOL    HW1 5053   2.456   1.341   1.662
 1679SOL    HW2 5054   2.531   1.486   1.655
 1680SOL     OW 5055   3.686   0.192   1.227
 1680SOL    HW1 5056   3.682   0.102   1.271
 1680SOL    HW2 5057   3.689   0.181   1.128
 1681SOL     OW 5058   2.290   0.424   0.520
 1681SOL    HW1 5059   2.320   0.352   0.458
 1681SOL    HW2 5060   2.251   0.384   0.603
 1682SOL     OW 5061   3.567   1.487   1.104
 1682SOL    HW1 5062   3.474   1.462   1.077
 1682SOL    HW2 5063   3.593   1.437   1.186
 1683SOL     OW 5064   2.179   0.547   1.280
 1683SOL    HW1 5065   2.217   0.488   1.352
 1683SOL    HW2 5066   2.219   0.521   1.192
 1684SOL     OW 5067   2.674   1.586   0.687
 1684SOL    HW1 5068   2.706   1.596   0.593
 1684SOL    HW2 5069   2.595   1.524   0.689
 1685SOL     OW 5070   3.286   0.214   1.112
 1685SOL    HW1 5071   3.338   0.149   1.167
 1685SOL    HW2 5072   3.237   0.277   1.173
 1686SOL     OW 5073   2.863   0.034   1.154
 1686SOL    HW1 5074   2.800  -0.038   1.123
 1686SOL    HW2 5075   2.956  -0.002   1.154
 1687SOL     OW 5076   2.632   1.330   0.301
 1687SOL    HW1 5077   2.586   1.243   0.318
 1687SOL    HW2 5078   2.723   1.327   0.342
 1688SOL     OW 5079   2.480   1.567   1.284
 1688SOL    HW1 5080   2.475   1.649   1.341
 1688SOL    HW2 5081   2.569   1.564   1.239
 1689SOL     OW 5082   3.214   0.052   0.168
 1689SOL    HW1 5083   3.249   0.011   0.084
 1689SOL    HW2 5084   3.124   0.014   0.188
 1690SOL     OW 5085   3.162   0.453   0.691
 1690SOL    HW1 5086   3.103   0.533   0.695
 1690SOL    HW2 5087   3.177   0.418   0.784
 1691SOL     OW 5088   3.455   0.221   0.882
 1691SOL    HW1 5089   3.371   0.220   0.936
 1691SOL    HW2 5090   3.457   0.304   0.826
 1692SOL     OW 5091   1.901   1.077   0.300
 1692SOL    HW1 5092   2.000   1.066   0.291
 1692SOL    HW2 5093   1.861   0.991   0.332
 1693SOL     OW 5094   2.737   1.646   0.337
 1693SOL    HW1 5095   2.660   1.611   0.283
 1693SOL    HW2 5096   2.705   1.717   0.399
 1694SOL     OW 5097   2.092   0.628   1.975
 1694SOL    HW1 5098   1.999   0.626   2.012
 1694SOL    HW2 5099   2.093   0.589   1.883
 1695SOL     OW 5100   2.087   0.275   2.858
 1695SOL    HW1 5101   2.122   0.258   2.950
 1695SOL    HW2 5102   1.999   0.230   2.846
 1696SOL     OW 5103   1.881   0.368   2.509
 1696SOL    HW1 5104   1.799   0.411   2.548
 1696SOL    HW2 5105   1.853   0.295   2.446
 1697SOL     OW 5106   2.431   1.275   3.027
 1697SOL    HW1 5107   2.338   1.268   2.990
 1697SOL    HW2 5108   2.442   1.364   3.071
 1698SOL     OW 5109   3.417   1.511   2.565
 1698SOL    HW1 5110   3.360   1.495   2.646
 1698SOL    HW2 5111   3.358   1.521   2.485
 1699SOL     OW 5112   2.997   0.703   2.579
 1699SOL    HW1 5113   3.054   0.781   2.554
 1699SOL    HW2 5114   2.937   0.729   2.655
 1700SOL     OW 5115   3.617   0.607   2.093
 1700SOL    HW1 5116   3.605   0.594   1.994
 1700SOL    HW2 5117   3.587   0.526   2.142
 1701SOL     OW 5118   2.630   1.144   2.885
 1701SOL    HW1 5119   2.552   1.161   2.945
 1701SOL    HW2 5120   2.664   1.231   2.849
 1702SOL     OW 5121   2.712   0.798   3.685
 1702SOL    HW1 5122   2.708   0.874   3.750
 1702SOL    HW2 5123   2.734   0.834   3.594
 1703SOL     OW 5124   2.547   1.012   2.527
 1703SOL    HW1 5125   2.616   0.996   2.597
 1703SOL    HW2 5126   2.474   1.069   2.565
 1704SOL     OW 5127   2.548   1.161   3.665
 1704SOL    HW1 5128   2.608   1.240   3.679
 1704SOL    HW2 5129   2.462   1.192   3.624
 1705SOL     OW 5130   2.197   1.435   2.923
 1705SOL    HW1 5131   2.119   1.404   2.870
 1705SOL    HW2 5132   2.255   1.493   2.866
 1706SOL     OW 5133   3.322   1.505   3.201
 1706SOL    HW1 5134   3.346   1.599   3.227
 1706SOL    HW2 5135   3.306   1.451   3.283
 1707SOL     OW 5136   2.300   0.392   3.361
 1707SOL    HW1 5137   2.382   0.336   3.370
 1707SOL    HW2 5138   2.219   0.334   3.365
 1708SOL     OW 5139   3.465   0.447   2.599
 1708SOL    HW1 5140   3.391   0.493   2.549
 1708SOL    HW2 5141   3.516   0.515   2.652
 1709SOL     OW 5142   2.093   1.713   2.345
 1709SOL    HW1 5143   2.127   1.790   2.399
 1709SOL    HW2 5144   2.137   1.713   2.255
 1710SOL     OW 5145   2.989   1.341   3.552
 1710SOL    HW1 5146   3.036   1.341   3.640
 1710SOL    HW2 5147   2.941   1.254   3.541
 1711SOL     OW 5148   2.092   1.434   2.400
 1711SOL    HW1 5149   2.066   1.530   2.400
 1711SOL    HW2 5150   2.021   1.380   2.445
 1712SOL     OW 5151   2.102   1.091   2.748
 1712SOL    HW1 5152   2.116   1.007   2.800
 1712SOL    HW2 5153   2.047   1.155   2.803
 1713SOL     OW 5154   2.482   1.786   3.301
 1713SOL    HW1 5155   2.390   1.769   3.336
 1713SOL    HW2 5156   2.510   1.878   3.327
 1714SOL     OW 5157   2.468   0.964   1.985
 1714SOL    HW1 5158   2.475   1.048   1.931
 1714SOL    HW2 5159   2.514   0.977   2.073
 1715SOL     OW 5160   3.456   0.114   3.342
 1715SOL    HW1 5161   3.438   0.181   3.270
 1715SOL    HW2 5162   3.453   0.160   3.431
 1716SOL     OW 5163   1.984   0.643   2.425
 1716SOL    HW1 5164   1.939   0.555   2.442
 1716SOL    HW2 5165   1.983   0.697   2.509
 1717SOL     OW 5166   3.704   1.767   2.221
 1717SOL    HW1 5167   3.758   1.738   2.301
 1717SOL    HW2 5168   3.734   1.857   2.192
 1718SOL     OW 5169   1.889   1.596   1.979
 1718SOL    HW1 5170   1.870   1.500   2.000
 1718SOL    HW2 5171   1.856   1.654   2.054
 1719SOL     OW 5172   3.551   0.922   2.474
 1719SOL    HW1 5173   3.646   0.893   2.482
 1719SOL    HW2 5174   3.543   0.987   2.399
 1720SOL     OW 5175   3.503   1.108   2.294
 1720SOL    HW1 5176   3.589   1.110   2.242
 1720SOL    HW2 5177   3.517   1.155   2.382
 1721SOL     OW 5178   1.975   0.737   3.459
 1721SOL    HW1 5179   2.063   0.724   3.504
 1721SOL    HW2 5180   1.962   0.834   3.437
 1722SOL     OW 5181   2.475   1.365   2.588
 1722SOL    HW1 5182   2.426   1.278   2.597
 1722SOL    HW2 5183   2.452   1.408   2.501
 1723SOL     OW 5184   3.155   1.228   3.285
 1723SOL    HW1 5185   3.192   1.155   3.227
 1723SOL    HW2 5186   3.207   1.233   3.370
 1724SOL     OW 5187   2.671   0.004   2.364
 1724SOL    HW1 5188   2.711   0.095   2.355
 1724SOL    HW2 5189   2.571   0.012   2.370
 1725SOL     OW 5190   2.059   0.976   3.126
 1725SOL    HW1 5191   2.148   0.931   3.112
 1725SOL    HW2 5192   1.986   0.911   3.107
 1726SOL     OW 5193   3.387   0.999   2.052
 1726SOL    HW1 5194   3.324   0.923   2.065
 1726SOL    HW2 5195   3.435   1.017   2.138
 1727SOL     OW 5196   3.049   1.792   3.478
 1727SOL    HW1 5197   3.073   1.852   3.402
 1727SOL    HW2 5198   3.056   1.697   3.448
 1728SOL     OW 5199   2.179   0.251   3.663
 1728SOL    HW1 5200   2.250   0.322   3.669
 1728SOL    HW2 5201   2.091   0.290   3.691
 1729SOL     OW 5202   3.328   1.417   2.815
 1729SOL    HW1 5203   3.269   1.423   2.895
 1729SOL    HW2 5204   3.313   1.329   2.769
 1730SOL     OW 5205   3.529   1.714   2.434
 1730SOL    HW1 5206   3.488   1.691   2.346
 1730SOL    HW2 5207   3.511   1.640   2.499
 1731SOL     OW 5208   2.460   0.729   2.132
 1731SOL    HW1 5209   2.484   0.798   2.064
 1731SOL    HW2 5210   2.382   0.762   2.186
 1732SOL     OW 5211   3.143   0.345   2.806
 1732SOL    HW1 5212   3.057   0.295   2.793
 1732SOL    HW2 5213   3.205   0.291   2.862
 1733SOL     OW 5214   3.438   1.662   2.169
 1733SOL    HW1 5215   3.527   1.708   2.172
 1733SOL    HW2 5216   3.417   1.638   2.074
 1734SOL     OW 5217   2.669   0.605   3.327
 1734SOL    HW1 5218   2.622   0.602   3.416
 1734SOL    HW2 5219   2.618   0.550   3.261
 1735SOL     OW 5220   3.256   0.469   3.536
 1735SOL    HW1 5221   3.236   0.512   3.624
 1735SOL    HW2 5222   3.334   0.407   3.545
 1736SOL     OW 5223   2.835   0.890   3.434
 1736SOL    HW1 5224   2.881   0.806   3.405
 1736SOL    HW2 5225   2.779   0.924   3.359
 1737SOL     OW 5226   2.853   0.410   3.104
 1737SOL    HW1 5227   2.776   0.444   3.158
 1737SOL    HW2 5228   2.819   0.359   3.025
 1738SOL     OW 5229   2.903   0.701   2.291
 1738SOL    HW1 5230   2.929   0.697   2.387
 1738SOL    HW2 5231   2.818   0.650   2.277
 1739SOL     OW 5232   1.938   0.811   2.651
 1739SOL    HW1 5233   2.037   0.799   2.660
 1739SOL    HW2 5234   1.914   0.906   2.672
 1740SOL     OW 5235   1.992   1.821   3.433
 1740SOL    HW1 5236   1.982   1.806   3.532
 1740SOL    HW2 5237   1.906   1.857   3.397
 1741SOL     OW 5238   2.727   0.348   2.057
 1741SOL    HW1 5239   2.786   0.411   2.008
 1741SOL    HW2 5240   2.746   0.254   2.028
 1742SOL     OW 5241   3.581   0.585   3.693
 1742SOL    HW1 5242   3.555   0.674   3.657
 1742SOL    HW2 5243   3.579   0.517   3.620
 1743SOL     OW 5244   3.224   1.144   2.407
 1743SOL    HW1 5245   3.307   1.115   2.359
 1743SOL    HW2 5246   3.175   1.211   2.351
 1744SOL     OW 5247   2.412   0.196   2.747
 1744SOL    HW1 5248   2.407   0.191   2.847
 1744SOL    HW2 5249   2.414   0.292   2.718
 1745SOL     OW 5250   2.870   1.456   2.339
 1745SOL    HW1 5251   2.824   1.528   2.287
 1745SOL    HW2 5252   2.866   1.476   2.437
 1746SOL     OW 5253   2.213   1.801   2.715
 1746SOL    HW1 5254   2.263   1.715   2.721
 1746SOL    HW2 5255   2.278   1.878   2.712
 1747SOL     OW 5256   3.657   1.066   2.735
 1747SOL    HW1 5257   3.595   1.051   2.659
 1747SOL    HW2 5258   3.605   1.077   2.820
 1748SOL     OW 5259   3.089   1.550   3.368
 1748SOL    HW1 5260   3.095   1.473   3.432
 1748SOL    HW2 5261   3.037   1.524   3.288
 1749SOL     OW 5262   2.183   0.943   2.104
 1749SOL    HW1 5263   2.265   0.982   2.062
 1749SOL    HW2 5264   2.156   0.861   2.055
 1750SOL     OW 5265   3.320   0.735   2.590
 1750SOL    HW1 5266   3.315   0.670   2.665
 1750SOL    HW2 5267   3.400   0.794   2.603
 1751SOL     OW 5268   2.323   1.266   3.589
 1751SOL    HW1 5269   2.273   1.267   3.503
 1751SOL    HW2 5270   2.260   1.248   3.665
 1752SOL     OW 5271   2.973   1.776   2.099
 1752SOL    HW1 5272   2.913   1.714   2.149
 1752SOL    HW2 5273   3.004   1.732   2.014
 1753SOL     OW 5274   2.064   0.285   3.360
 1753SOL    HW1 5275   1.984   0.345   3.347
 1753SOL    HW2 5276   2.054   0.236   3.446
 1754SOL     OW 5277   3.494   1.377   1.943
 1754SOL    HW1 5278   3.462   1.471   1.933
 1754SOL    HW2 5279   3.418   1.314   1.931
 1755SOL     OW 5280   2.326   1.743   2.185
 1755SOL    HW1 5281   2.359   1.782   2.271
 1755SOL    HW2 5282   2.402   1.736   2.120
 1756SOL     OW 5283   3.262   0.107   2.288
 1756SOL    HW1 5284   3.238   0.070   2.198
 1756SOL    HW2 5285   3.361   0.123   2.292
 1757SOL     OW 5286   2.111   1.785   3.103
 1757SOL    HW1 5287   2.168   1.720   3.153
 1757SOL    HW2 5288   2.095   1.752   3.010
 1758SOL     OW 5289   2.802   1.698   2.766
 1758SOL    HW1 5290   2.882   1.641   2.787
 1758SOL    HW2 5291   2.753   1.658   2.689
 1759SOL     OW 5292   2.244   0.700   2.342
 1759SOL    HW1 5293   2.289   0.610   2.339
 1759SOL    HW2 5294   2.150   0.689   2.375
 1760SOL     OW 5295   3.409   0.222   3.591
 1760SOL    HW1 5296   3.404   0.259   3.683
 1760SOL    HW2 5297   3.337   0.153   3.579
 1761SOL     OW 5298   2.476   0.122   1.979
 1761SOL    HW1 5299   2.574   0.100   1.986
 1761SOL    HW2 5300   2.445   0.105   1.886
 1762SOL     OW 5301   2.643   0.264   3.611
 1762SOL    HW1 5302   2.710   0.203   3.654
 1762SOL    HW2 5303   2.570   0.283   3.676
 1763SOL     OW 5304   2.750   1.514   3.057
 1763SOL    HW1 5305   2.727   1.489   2.963
 1763SOL    HW2 5306   2.811   1.445   3.096
 1764SOL     OW 5307   3.213   0.590   3.295
 1764SOL    HW1 5308   3.241   0.547   3.380
 1764SOL    HW2 5309   3.238   0.686   3.296
 1765SOL     OW 5310   2.665   1.402   2.786
 1765SOL    HW1 5311   2.755   1.416   2.744
 1765SOL    HW2 5312   2.594   1.404   2.715
 1766SOL     OW 5313   2.784   0.503   2.761
 1766SOL    HW1 5314   2.759   0.494   2.665
 1766SOL    HW2 5315   2.832   0.421   2.792
 1767SOL     OW 5316   2.401   0.064   2.374
 1767SOL    HW1 5317   2.320   0.065   2.432
 1767SOL    HW2 5318   2.404   0.147   2.319
 1768SOL     OW 5319   3.296   1.188   1.903
 1768SOL    HW1 5320   3.328   1.112   1.960
 1768SOL    HW2 5321   3.204   1.215   1.933
 1769SOL     OW 5322   2.159   0.035   2.033
 1769SOL    HW1 5323   2.208   0.119   2.012
 1769SOL    HW2 5324   2.221  -0.030   2.078
 1770SOL     OW 5325   2.797   0.236   2.342
 1770SOL    HW1 5326   2.749   0.277   2.264
 1770SOL    HW2 5327   2.896   0.234   2.323
 1771SOL     OW 5328   2.938   0.683   3.326
 1771SOL    HW1 5329   2.858   0.622   3.329
 1771SOL    HW2 5330   3.019   0.630   3.302
 1772SOL     OW 5331   3.089   1.570   2.655
 1772SOL    HW1 5332   3.110   1.644   2.590
 1772SOL    HW2 5333   3.157   1.570   2.728
 1773SOL     OW 5334   2.321   1.152   2.603
 1773SOL    HW1 5335   2.250   1.125   2.668
 1773SOL    HW2 5336   2.295   1.124   2.510
 1774SOL     OW 5337   3.133   1.797   2.453
 1774SOL    HW1 5338   3.177   1.861   2.389
 1774SOL    HW2 5339   3.083   1.849   2.523
 1775SOL     OW 5340   2.894   0.549   1.878
 1775SOL    HW1 5341   2.853   0.631   1.839
 1775SOL    HW2 5342   2.958   0.575   1.951
 1776SOL     OW 5343   1.940   0.556   3.248
 1776SOL    HW1 5344   2.032   0.555   3.207
 1776SOL    HW2 5345   1.934   0.630   3.315
 1777SOL     OW 5346   2.423   0.222   3.009
 1777SOL    HW1 5347   2.461   0.138   3.046
 1777SOL    HW2 5348   2.335   0.241   3.053
 1778SOL     OW 5349   2.728   0.454   2.504
 1778SOL    HW1 5350   2.696   0.526   2.442
 1778SOL    HW2 5351   2.752   0.373   2.451
 1779SOL     OW 5352   2.879   0.039   2.615
 1779SOL    HW1 5353   2.807   0.044   2.546
 1779SOL    HW2 5354   2.855  -0.030   2.684
 1780SOL     OW 5355   3.291   1.173   2.729
 1780SOL    HW1 5356   3.236   1.089   2.722
 1780SOL    HW2 5357   3.317   1.202   2.637
 1781SOL     OW 5358   3.328   0.590   2.854
 1781SOL    HW1 5359   3.298   0.495   2.861
 1781SOL    HW2 5360   3.401   0.606   2.920
 1782SOL     OW 5361   3.719   0.833   2.239
 1782SOL    HW1 5362   3.761   0.769   2.303
 1782SOL    HW2 5363   3.681   0.782   2.161
 1783SOL     OW 5364   2.350   1.385   2.036
 1783SOL    HW1 5365   2.263   1.370   2.083
 1783SOL    HW2 5366   2.333   1.411   1.941
 1784SOL     OW 5367   3.526   1.280   2.519
 1784SOL    HW1 5368   3.625   1.288   2.533
 1784SOL    HW2 5369   3.481   1.364   2.550
 1785SOL     OW 5370   3.252   0.575   1.940
 1785SOL    HW1 5371   3.198   0.554   2.021
 1785SOL    HW2 5372   3.343   0.534   1.949
 1786SOL     OW 5373   2.389   0.256   2.190
 1786SOL    HW1 5374   2.416   0.197   2.115
 1786SOL    HW2 5375   2.389   0.351   2.159
 1787SOL     OW 5376   3.616   1.223   3.450
 1787SOL    HW1 5377   3.707   1.184   3.437
 1787SOL    HW2 5378   3.624   1.319   3.474
 1788SOL     OW 5379   2.926   1.347   3.202
 1788SOL    HW1 5380   2.846   1.324   3.257
 1788SOL    HW2 5381   3.009   1.321   3.251
 1789SOL     OW 5382   3.454   1.629   3.487
 1789SOL    HW1 5383   3.481   1.663   3.397
 1789SOL    HW2 5384   3.533   1.591   3.533
 1790SOL     OW 5385   2.973   1.195   2.962
 1790SOL    HW1 5386   2.933   1.239   3.043
 1790SOL    HW2 5387   2.932   1.232   2.879
 1791SOL     OW 5388   3.500   1.099   2.941
 1791SOL    HW1 5389   3.505   1.180   3.000
 1791SOL    HW2 5390   3.414   1.101   2.890
 1792SOL     OW 5391   2.777   0.089   3.264
 1792SOL    HW1 5392   2.802   0.069   3.169
 1792SOL    HW2 5393   2.849   0.145   3.306
 1793SOL     OW 5394   2.842   1.116   3.581
 1793SOL    HW1 5395   2.743   1.122   3.591
 1793SOL    HW2 5396   2.865   1.036   3.525
 1794SOL     OW 5397   2.567   1.050   2.230
 1794SOL    HW1 5398   2.553   1.057   2.329
 1794SOL    HW2 5399   2.651   0.999   2.212
 1795SOL     OW 5400   2.272   0.813   3.113
 1795SOL    HW1 5401   2.358   0.825   3.163
 1795SOL    HW2 5402   2.230   0.726   3.140
 1796SOL     OW 5403   3.136   0.386   3.124
 1796SOL    HW1 5404   3.157   0.460   3.188
 1796SOL    HW2 5405   3.047   0.403   3.081
 1797SOL     OW 5406   1.926   1.564   3.193
 1797SOL    HW1 5407   1.880   1.646   3.159
 1797SOL    HW2 5408   2.024   1.583   3.202
 1798SOL     OW 5409   2.229   1.100   2.363
 1798SOL    HW1 5410   2.222   1.183   2.307
 1798SOL    HW2 5411   2.233   1.020   2.303
 1799SOL     OW 5412   2.428   0.537   2.727
 1799SOL    HW1 5413   2.440   0.603   2.653
 1799SOL    HW2 5414   2.474   0.571   2.810
 1800SOL     OW 5415   3.114   1.348   2.250
 1800SOL    HW1 5416   3.164   1.425   2.290
 1800SOL    HW2 5417   3.019   1.350   2.282
 1801SOL     OW 5418   3.134   1.445   3.004
 1801SOL    HW1 5419   3.181   1.458   3.091
 1801SOL    HW2 5420   3.068   1.371   3.013
 1802SOL     OW 5421   3.444   0.639   2.334
 1802SOL    HW1 5422   3.413   0.700   2.407
 1802SOL    HW2 5423   3.494   0.691   2.265
 1803SOL     OW 5424   2.216   1.510   3.191
 1803SOL    HW1 5425   2.195   1.466   3.104
 1803SOL    HW2 5426   2.313   1.536   3.194
 1804SOL     OW 5427   2.264   0.751   3.460
 1804SOL    HW1 5428   2.332   0.806   3.413
 1804SOL    HW2 5429   2.304   0.663   3.487
 1805SOL     OW 5430   3.449   0.779   3.532
 1805SOL    HW1 5431   3.357   0.817   3.527
 1805SOL    HW2 5432   3.509   0.826   3.467
 1806SOL     OW 5433   2.875   0.105   3.632
 1806SOL    HW1 5434   2.881   0.190   3.580
 1806SOL    HW2 5435   2.907   0.029   3.575
 1807SOL     OW 5436   2.366   0.050   3.602
 1807SOL    HW1 5437   2.324  -0.007   3.532
 1807SOL    HW2 5438   2.300   0.119   3.634
 1808SOL     OW 5439   2.435   0.870   2.891
 1808SOL    HW1 5440   2.479   0.959   2.882
 1808SOL    HW2 5441   2.372   0.870   2.968
 1809SOL     OW 5442   3.222   0.862   2.907
 1809SOL    HW1 5443   3.147   0.862   2.841
 1809SOL    HW2 5444   3.259   0.770   2.916
 1810SOL     OW 5445   3.071   0.525   2.137
 1810SOL    HW1 5446   3.084   0.441   2.191
 1810SOL    HW2 5447   3.042   0.599   2.197
 1811SOL     OW 5448   2.169   0.213   3.093
 1811SOL    HW1 5449   2.146   0.250   3.183
 1811SOL    HW2 5450   2.139   0.118   3.087
 1812SOL     OW 5451   1.899   1.310   3.144
 1812SOL    HW1 5452   1.952   1.261   3.212
 1812SOL    HW2 5453   1.921   1.408   3.149
 1813SOL     OW 5454   2.594   0.634   2.926
 1813SOL    HW1 5455   2.653   0.608   2.850
 1813SOL    HW2 5456   2.566   0.730   2.915
 1814SOL     OW 5457   3.590   0.935   3.716
 1814SOL    HW1 5458   3.544   0.928   3.627
 1814SOL    HW2 5459   3.528   0.979   3.782
 1815SOL     OW 5460   2.169   0.063   2.480
 1815SOL    HW1 5461   2.158   0.157   2.513
 1815SOL    HW2 5462   2.164   0.000   2.557
 1816SOL     OW 5463   3.484   0.367   2.236
 1816SOL    HW1 5464   3.486   0.291   2.300
 1816SOL    HW2 5465   3.436   0.444   2.276
 1817SOL     OW 5466   2.885   0.766   2.828
 1817SOL    HW1 5467   2.900   0.787   2.924
 1817SOL    HW2 5468   2.855   0.671   2.819
 1818SOL     OW 5469   2.842   1.573   3.562
 1818SOL    HW1 5470   2.822   1.617   3.474
 1818SOL    HW2 5471   2.881   1.482   3.546
 1819SOL     OW 5472   3.721   1.518   3.467
 1819SOL    HW1 5473   3.735   1.545   3.372
 1819SOL    HW2 5474   3.804   1.540   3.520
 1820SOL     OW 5475   2.212   0.898   3.666
 1820SOL    HW1 5476   2.288   0.942   3.714
 1820SOL    HW2 5477   2.247   0.851   3.584
 1821SOL     OW 5478   3.402   0.274   1.987
 1821SOL    HW1 5479   3.341   0.199   2.010
 1821SOL    HW2 5480   3.424   0.326   2.070
 1822SOL     OW 5481   3.165   0.838   1.904
 1822SOL    HW1 5482   3.199   0.745   1.919
 1822SOL    HW2 5483   3.183   0.865   1.809
 1823SOL     OW 5484   2.930   1.333   2.711
 1823SOL    HW1 5485   2.937   1.249   2.656
 1823SOL    HW2 5486   2.992   1.402   2.675
 1824SOL     OW 5487   2.181   0.810   2.811
 1824SOL    HW1 5488   2.274   0.846   2.816
 1824SOL    HW2 5489   2.175   0.725   2.863
 1825SOL     OW 5490   2.201   0.509   2.868
 1825SOL    HW1 5491   2.149   0.426   2.851
 1825SOL    HW2 5492   2.278   0.514   2.804
 1826SOL     OW 5493   3.000   0.380   3.540
 1826SOL    HW1 5494   2.955   0.443   3.604
 1826SOL    HW2 5495   3.093   0.411   3.523
 1827SOL     OW 5496   3.022   0.207   3.339
 1827SOL    HW1 5497   3.022   0.271   3.416
 1827SOL    HW2 5498   3.050   0.255   3.256
 1828SOL     OW 5499   1.870   1.326   2.062
 1828SOL    HW1 5500   1.777   1.347   2.031
 1828SOL    HW2 5501   1.880   1.227   2.075
 1829SOL     OW 5502   1.950   1.801   2.789
 1829SOL    HW1 5503   1.908   1.715   2.762
 1829SOL    HW2 5504   2.044   1.804   2.755
 1830SOL     OW 5505   2.366   1.568   2.772
 1830SOL    HW1 5506   2.432   1.642   2.781
 1830SOL    HW2 5507   2.410   1.489   2.730
 1831SOL     OW 5508   2.864   0.796   3.100
 1831SOL    HW1 5509   2.905   0.764   3.186
 1831SOL    HW2 5510   2.768   0.769   3.097
 1832SOL     OW 5511   1.902   0.544   2.976
 1832SOL    HW1 5512   1.987   0.511   2.935
 1832SOL    HW2 5513   1.915   0.559   3.074
 1833SOL     OW 5514   2.051   0.520   3.584
 1833SOL    HW1 5515   2.110   0.480   3.514
 1833SOL    HW2 5516   1.993   0.591   3.543
 1834SOL     OW 5517   3.231   0.950   3.522
 1834SOL    HW1 5518   3.270   1.039   3.542
 1834SOL    HW2 5519   3.241   0.930   3.425
 1835SOL     OW 5520   2.677   0.572   2.187
 1835SOL    HW1 5521   2.684   0.483   2.141
 1835SOL    HW2 5522   2.583   0.606   2.179
 1836SOL     OW 5523   3.519   0.604   3.068
 1836SOL    HW1 5524   3.481   0.535   3.130
 1836SOL    HW2 5525   3.601   0.568   3.024
 1837SOL     OW 5526   2.114   1.564   3.606
 1837SOL    HW1 5527   2.084   1.621   3.682
 1837SOL    HW2 5528   2.107   1.467   3.632
 1838SOL     OW 5529   2.533   0.464   3.131
 1838SOL    HW1 5530   2.499   0.375   3.101
 1838SOL    HW2 5531   2.559   0.518   3.051
 1839SOL     OW 5532   2.792   1.678   3.327
 1839SOL    HW1 5533   2.768   1.660   3.232
 1839SOL    HW2 5534   2.822   1.772   3.337
 1840SOL     OW 5535   2.335   0.500   2.053
 1840SOL    HW1 5536   2.396   0.580   2.057
 1840SOL    HW2 5537   2.240   0.531   2.060
 1841SOL     OW 5538   2.021   1.137   3.328
 1841SOL    HW1 5539   2.043   1.076   3.404
 1841SOL    HW2 5540   2.031   1.088   3.242
 1842SOL     OW 5541   3.209   1.059   3.096
 1842SOL    HW1 5542   3.233   0.996   3.022
 1842SOL    HW2 5543   3.119   1.099   3.078
 1843SOL     OW 5544   3.164   0.855   2.171
 1843SOL    HW1 5545   3.078   0.824   2.213
 1843SOL    HW2 5546   3.160   0.841   2.072
 1844SOL     OW 5547   3.621   1.747   3.016
 1844SOL    HW1 5548   3.682   1.777   2.943
 1844SOL    HW2 5549   3.583   1.658   2.994
 1845SOL     OW 5550   3.114   1.731   2.990
 1845SOL    HW1 5551   3.198   1.736   2.936
 1845SOL    HW2 5552   3.091   1.635   3.008
 1846SOL     OW 5553   1.945   1.258   2.884
 1846SOL    HW1 5554   1.940   1.257   2.984
 1846SOL    HW2 5555   1.862   1.217   2.846
 1847SOL     OW 5556   2.550   1.662   3.578
 1847SOL    HW1 5557   2.494   1.743   3.587
 1847SOL    HW2 5558   2.602   1.666   3.492
 1848SOL     OW 5559   3.588   0.135   2.385
 1848SOL    HW1 5560   3.661   0.118   2.318
 1848SOL    HW2 5561   3.557   0.048   2.423
 1849SOL     OW 5562   3.250   1.573   2.339
 1849SOL    HW1 5563   3.317   1.585   2.265
 1849SOL    HW2 5564   3.210   1.662   2.362
 1850SOL     OW 5565   1.992   1.794   3.713
 1850SOL    HW1 5566   1.951   1.720   3.766
 1850SOL    HW2 5567   2.056   1.845   3.771
 1851SOL     OW 5568   3.142   0.927   2.534
 1851SOL    HW1 5569   3.202   0.846   2.536
 1851SOL    HW2 5570   3.182   0.996   2.474
 1852SOL     OW 5571   2.692   1.273   3.284
 1852SOL    HW1 5572   2.687   1.306   3.379
 1852SOL    HW2 5573   2.606   1.292   3.238
 1853SOL     OW 5574   2.534   1.616   2.016
 1853SOL    HW1 5575   2.543   1.626   1.917
 1853SOL    HW2 5576   2.494   1.527   2.037
 1854SOL     OW 5577   3.512   1.720   3.256
 1854SOL    HW1 5578   3.565   1.730   3.172
 1854SOL    HW2 5579   3.485   1.810   3.290
 1855SOL     OW 5580   3.703   0.175   2.825
 1855SOL    HW1 5581   3.742   0.090   2.789
 1855SOL    HW2 5582   3.605   0.177   2.806
 1856SOL     OW 5583   2.125   0.326   2.582
 1856SOL    HW1 5584   2.046   0.377   2.548
 1856SOL    HW2 5585   2.116   0.311   2.680
 1857SOL     OW 5586   3.056   1.612   1.893
 1857SOL    HW1 5587   3.062   1.519   1.930
 1857SOL    HW2 5588   2.997   1.612   1.813
 1858SOL     OW 5589   2.684   1.002   3.234
 1858SOL    HW1 5590   2.724   1.001   3.142
 1858SOL    HW2 5591   2.694   1.094   3.274
 1859SOL     OW 5592   2.778   0.910   2.153
 1859SOL    HW1 5593   2.841   0.948   2.085
 1859SOL    HW2 5594   2.818   0.827   2.192
 1860SOL     OW 5595   3.366   1.607   1.906
 1860SOL    HW1 5596   3.274   1.644   1.913
 1860SOL    HW2 5597   3.404   1.627   1.816
 1861SOL     OW 5598   2.234   1.288   3.352
 1861SOL    HW1 5599   2.221   1.381   3.318
 1861SOL    HW2 5600   2.150   1.236   3.339
 1862SOL     OW 5601   3.476   1.292   3.151
 1862SOL    HW1 5602   3.536   1.295   3.231
 1862SOL    HW2 5603   3.401   1.356   3.164
 1863SOL     OW 5604   2.901   1.098   2.558
 1863SOL    HW1 5605   2.831   1.051   2.612
 1863SOL    HW2 5606   2.960   1.030   2.515
 1864SOL     OW 5607   2.876   0.236   2.833
 1864SOL    HW1 5608   2.868   0.200   2.740
 1864SOL    HW2 5609   2.874   0.160   2.898
 1865SOL     OW 5610   2.452   1.487   2.353
 1865SOL    HW1 5611   2.494   1.429   2.283
 1865SOL    HW2 5612   2.408   1.566   2.309
 1866SOL     OW 5613   3.571   0.385   3.243
 1866SOL    HW1 5614   3.644   0.454   3.247
 1866SOL    HW2 5615   3.599   0.310   3.184
 1867SOL     OW 5616   2.117   1.348   2.152
 1867SOL    HW1 5617   2.021   1.349   2.125
 1867SOL    HW2 5618   2.129   1.401   2.236
 1868SOL     OW 5619   1.967   1.013   3.588
 1868SOL    HW1 5620   1.890   0.980   3.642
 1868SOL    HW2 5621   2.052   0.983   3.630
 1869SOL     OW 5622   2.534   0.203   3.351
 1869SOL    HW1 5623   2.624   0.187   3.311
 1869SOL    HW2 5624   2.542   0.208   3.450
 1870SOL     OW 5625   1.937   0.345   1.895
 1870SOL    HW1 5626   1.845   0.317   1.866
 1870SOL    HW2 5627   1.968   0.422   1.839
 1871SOL     OW 5628   3.302   0.856   3.260
 1871SOL    HW1 5629   3.245   0.908   3.197
 1871SOL    HW2 5630   3.398   0.868   3.236
 1872SOL     OW 5631   1.934   0.166   2.180
 1872SOL    HW1 5632   1.917   0.249   2.126
 1872SOL    HW2 5633   2.024   0.129   2.158
 1873SOL     OW 5634   3.045   1.335   1.981
 1873SOL    HW1 5635   2.946   1.324   1.983
 1873SOL    HW2 5636   3.079   1.350   2.074
 1874SOL     OW 5637   2.475   0.842   3.293
 1874SOL    HW1 5638   2.531   0.923   3.276
 1874SOL    HW2 5639   2.534   0.762   3.296
 1875SOL     OW 5640   3.355   1.767   2.821
 1875SOL    HW1 5641   3.388   1.831   2.752
 1875SOL    HW2 5642   3.421   1.761   2.896
 1876SOL     OW 5643   2.578   0.565   3.570
 1876SOL    HW1 5644   2.597   0.630   3.644
 1876SOL    HW2 5645   2.638   0.485   3.579
 1877SOL     OW 5646   3.312   1.220   3.495
 1877SOL    HW1 5647   3.303   1.210   3.594
 1877SOL    HW2 5648   3.408   1.213   3.469
 1878SOL     OW 5649   2.252   1.741   3.422
 1878SOL    HW1 5650   2.161   1.782   3.420
 1878SOL    HW2 5651   2.245   1.647   3.454
 1879SOL     OW 5652   3.536   0.883   3.116
 1879SOL    HW1 5653   3.509   0.794   3.079
 1879SOL    HW2 5654   3.537   0.951   3.043
 1880SOL     OW 5655   3.087   0.325   2.311
 1880SOL    HW1 5656   3.152   0.251   2.300
 1880SOL    HW2 5657   3.107   0.375   2.395
 1881SOL     OW 5658   2.456   0.745   2.514
 1881SOL    HW1 5659   2.506   0.830   2.495
 1881SOL    HW2 5660   2.368   0.747   2.466
 1882SOL     OW 5661   3.639   0.342   3.504
 1882SOL    HW1 5662   3.622   0.373   3.410
 1882SOL    HW2 5663   3.555   0.305   3.542
 1883SOL     OW 5664   3.592   0.934   3.379
 1883SOL    HW1 5665   3.630   1.025   3.394
 1883SOL    HW2 5666   3.584   0.917   3.280
 1884SOL     OW 5667   2.721   1.374   1.878
 1884SOL    HW1 5668   2.675   1.389   1.966
 1884SOL    HW2 5669   2.765   1.459   1.848
 1885SOL     OW 5670   2.523   1.790   2.815
 1885SOL    HW1 5671   2.477   1.878   2.802
 1885SOL    HW2 5672   2.622   1.802   2.808
 1886SOL     OW 5673   2.721   0.956   2.723
 1886SOL    HW1 5674   2.775   0.887   2.771
 1886SOL    HW2 5675   2.689   1.025   2.789
 1887SOL     OW 5676   2.945   0.984   1.949
 1887SOL    HW1 5677   2.922   1.037   1.867
 1887SOL    HW2 5678   3.026   0.928   1.930
 1888SOL     OW 5679   3.723   1.569   2.713
 1888SOL    HW1 5680   3.652   1.557   2.643
 1888SOL    HW2 5681   3.724   1.490   2.773
 1889SOL     OW 5682   2.083   1.314   3.706
 1889SOL    HW1 5683   2.018   1.241   3.685
 1889SOL    HW2 5684   2.087   1.328   3.804
 1890SOL     OW 5685   1.941   1.240   2.515
 1890SOL    HW1 5686   1.940   1.193   2.603
 1890SOL    HW2 5687   2.023   1.212   2.464
 1891SOL     OW 5688   2.534   1.391   3.486
 1891SOL    HW1 5689   2.456   1.341   3.524
 1891SOL    HW2 5690   2.531   1.486   3.517
 1892SOL     OW 5691   3.686   0.192   3.089
 1892SOL    HW1 5692   3.682   0.102   3.133
 1892SOL    HW2 5693   3.689   0.181   2.990
 1893SOL     OW 5694   2.290   0.424   2.382
 1893SOL    HW1 5695   2.320   0.352   2.320
 1893SOL    HW2 5696   2.251   0.384   2.465
 1894SOL     OW 5697   3.567   1.487   2.966
 1894SOL    HW1 5698   3.474   1.462   2.939
 1894SOL    HW2 5699   3.593   1.437   3.048
 1895SOL     OW 5700   2.179   0.547   3.142
 1895SOL    HW1 5701   2.217   0.488   3.214
 1895SOL    HW2 5702   2.219   0.521   3.054
 1896SOL     OW 5703   2.674   1.586   2.549
 1896SOL    HW1 5704   2.706   1.596   2.455
 1896SOL    HW2 5705   2.595   1.524   2.551
 1897SOL     OW 5706   3.286   0.214   2.974
 1897SOL    HW1 5707   3.338   0.149   3.029
 1897SOL    HW2 5708   3.237   0.277   3.035
 1898SOL     OW 5709   2.863   0.034   3.016
 1898SOL    HW1 5710   2.800  -0.038   2.985
 1898SOL    HW2 5711   2.956  -0.002   3.016
 1899SOL     OW 5712   2.632   1.330   2.163
 1899SOL    HW1 5713   2.586   1.243   2.180
 1899SOL    HW2 5714   2.723   1.327   2.204
 1900SOL     OW 5715   2.480   1.567   3.146
 1900SOL    HW1 5716   2.475   1.649   3.203
 1900SOL    HW2 5717   2.569   1.564   3.101
 1901SOL     OW 5718   3.214   0.052   2.030
 1901SOL    HW1 5719   3.249   0.011   1.946
 1901SOL    HW2 5720   3.124   0.014   2.050
 1902SOL     OW 5721   3.162   0.453   2.553
 1902SOL    HW1 5722   3.103   0.533   2.557
 1902SOL    HW2 5723   3.177   0.418   2.646
 1903SOL     OW 5724   3.455   0.221   2.744
 1903SOL    HW1 5725   3.371   0.220   2.798
 1903SOL    HW2 5726   3.457   0.304   2.688
 1904SOL     OW 5727   1.901   1.077   2.162
 1904SOL    HW1 5728   2.000   1.066   2.153
 1904SOL    HW2 5729   1.861   0.991   2.194
 1905SOL     OW 5730   2.737   1.646   2.199
 1905SOL    HW1 5731   2.660   1.611   2.145
 1905SOL    HW2 5732   2.705   1.717   2.261
 1906SOL     OW 5733   2.092   0.628   3.837
 1906SOL    HW1 5734   1.999   0.626   3.874
 1906SOL    HW2 5735   2.093   0.589   3.745
 1907SOL     OW 5736   2.087   0.275   4.720
 1907SOL    HW1 5737   2.122   0.258   4.812
 1907SOL    HW2 5738   1.999   0.230   4.708
 1908SOL     OW 5739   1.881   0.368   4.371
 1908SOL    HW1 5740   1.799   0.411   4.410
 1908SOL    HW2 5741   1.853   0.295   4.308
 1909SOL     OW 5742   3.417   1.511   4.427
 1909SOL    HW1 5743   3.360   1.495   4.508
 1909SOL    HW2 5744   3.358   1.521   4.347
 1910SOL     OW 5745   2.997   0.703   4.441
 1910SOL    HW1 5746   3.054   0.781   4.416
 1910SOL    HW2 5747   2.937   0.729   4.517
 1911SOL     OW 5748   3.617   0.607   3.955
 1911SOL    HW1 5749   3.605   0.594   3.856
 1911SOL    HW2 5750   3.587   0.526   4.004
 1912SOL     OW 5751   2.630   1.144   4.747
 1912SOL    HW1 5752   2.552   1.161   4.807
 1912SOL    HW2 5753   2.664   1.231   4.711
 1913SOL     OW 5754   2.547   1.012   4.389
 1913SOL    HW1 5755   2.616   0.996   4.459
 1913SOL    HW2 5756   2.474   1.069   4.427
 1914SOL     OW 5757   2.197   1.435   4.785
 1914SOL    HW1 5758   2.119   1.404   4.732
 1914SOL    HW2 5759   2.255   1.493   4.728
 1915SOL     OW 5760   3.465   0.447   4.461
 1915SOL    HW1 5761   3.391   0.493   4.411
 1915SOL    HW2 5762   3.516   0.515   4.514
 1916SOL     OW 5763   2.093   1.713   4.207
 1916SOL    HW1 5764   2.127   1.790   4.261
 1916SOL    HW2 5765   2.137   1.713   4.117
 1917SOL     OW 5766   2.092   1.434   4.262
 1917SOL    HW1 5767   2.066   1.530   4.262
 1917SOL    HW2 5768   2.021   1.380   4.307
 1918SOL     OW 5769   2.102   1.091   4.610
 1918SOL    HW1 5770   2.116   1.007   4.662
 1918SOL    HW2 5771   2.047   1.155   4.665
 1919SOL     OW 5772   2.468   0.964   3.847
 1919SOL    HW1 5773   2.475   1.048   3.793
 1919SOL    HW2 5774   2.514   0.977   3.935
 1920SOL     OW 5775   1.984   0.643   4.287
 1920SOL    HW1 5776   1.939   0.555   4.304
 1920SOL    HW2 5777   1.983   0.697   4.371
 1921SOL     OW 5778   3.704   1.767   4.083
 1921SOL    HW1 5779   3.758   1.738   4.163
 1921SOL    HW2 5780   3.734   1.857   4.054
 1922SOL     OW 5781   1.889   1.596   3.841
 1922SOL    HW1 5782   1.870   1.500   3.862
 1922SOL    HW2 5783   1.856   1.654   3.916
 1923SOL     OW 5784   3.551   0.922   4.336
 1923SOL    HW1 5785   3.646   0.893   4.344
 1923SOL    HW2 5786   3.543   0.987   4.261
 1924SOL     OW 5787   3.503   1.108   4.156
 1924SOL    HW1 5788   3.589   1.110   4.104
 1924SOL    HW2 5789   3.517   1.155   4.244
 1925SOL     OW 5790   2.475   1.365   4.450
 1925SOL    HW1 5791   2.426   1.278   4.459
 1925SOL    HW2 5792   2.452   1.408   4.363
 1926SOL     OW 5793   2.671   0.004   4.226
 1926SOL    HW1 5794   2.711   0.095   4.217
 1926SOL    HW2 5795   2.571   0.012   4.232
 1927SOL     OW 5796   2.059   0.976   4.988
 1927SOL    HW1 5797   2.148   0.931   4.974
 1927SOL    HW2 5798   1.986   0.911   4.969
 1928SOL     OW 5799   3.387   0.999   3.914
 1928SOL    HW1 5800   3.324   0.923   3.927
 1928SOL    HW2 5801   3.435   1.017   4.000
 1929SOL     OW 5802   3.328   1.417   4.677
 1929SOL    HW1 5803   3.269   1.423   4.757
 1929SOL    HW2 5804   3.313   1.329   4.631
 1930SOL     OW 5805   3.529   1.714   4.296
 1930SOL    HW1 5806   3.488   1.691   4.208
 1930SOL    HW2 5807   3.511   1.640   4.361
 1931SOL     OW 5808   2.460   0.729   3.994
 1931SOL    HW1 5809   2.484   0.798   3.926
 1931SOL    HW2 5810   2.382   0.762   4.048
 1932SOL     OW 5811   3.143   0.345   4.668
 1932SOL    HW1 5812   3.057   0.295   4.655
 1932SOL    HW2 5813   3.205   0.291   4.724
 1933SOL     OW 5814   3.438   1.662   4.031
 1933SOL    HW1 5815   3.527   1.708   4.034
 1933SOL    HW2 5816   3.417   1.638   3.936
 1934SOL     OW 5817   2.903   0.701   4.153
 1934SOL    HW1 5818   2.929   0.697   4.249
 1934SOL    HW2 5819   2.818   0.650   4.139
 1935SOL     OW 5820   1.938   0.811   4.513
 1935SOL    HW1 5821   2.037   0.799   4.522
 1935SOL    HW2 5822   1.914   0.906   4.534
 1936SOL     OW 5823   2.727   0.348   3.919
 1936SOL    HW1 5824   2.786   0.411   3.870
 1936SOL    HW2 5825   2.746   0.254   3.890
 1937SOL     OW 5826   3.224   1.144   4.269
 1937SOL    HW1 5827   3.307   1.115   4.221
 1937SOL    HW2 5828   3.175   1.211   4.213
 1938SOL     OW 5829   2.412   0.196   4.609
 1938SOL    HW1 5830   2.407   0.191   4.709
 1938SOL    HW2 5831   2.414   0.292   4.580
 1939SOL     OW 5832   2.870   1.456   4.201
 1939SOL    HW1 5833   2.824   1.528   4.149
 1939SOL    HW2 5834   2.866   1.476   4.299
 1940SOL     OW 5835   2.213   1.801   4.577
 1940SOL    HW1 5836   2.263   1.715   4.583
 1940SOL    HW2 5837   2.278   1.878   4.574
 1941SOL     OW 5838   3.657   1.066   4.597
 1941SOL    HW1 5839   3.595   1.051   4.521
 1941SOL    HW2 5840   3.605   1.077   4.682
 1942SOL     OW 5841   2.183   0.943   3.966
 1942SOL    HW1 5842   2.265   0.982   3.924
 1942SOL    HW2 5843   2.156   0.861   3.917
 1943SOL     OW 5844   3.320   0.735   4.452
 1943SOL    HW1 5845   3.315   0.670   4.527
 1943SOL    HW2 5846   3.400   0.794   4.465
 1944SOL     OW 5847   2.973   1.776   3.961
 1944SOL    HW1 5848   2.913   1.714   4.011
 1944SOL    HW2 5849   3.004   1.732   3.876
 1945SOL     OW 5850   3.494   1.377   3.805
 1945SOL    HW1 5851   3.462   1.471   3.795
 1945SOL    HW2 5852   3.418   1.314   3.793
 1946SOL     OW 5853   2.326   1.743   4.047
 1946SOL    HW1 5854   2.359   1.782   4.133
 1946SOL    HW2 5855   2.402   1.736   3.982
 1947SOL     OW 5856   3.262   0.107   4.150
 1947SOL    HW1 5857   3.238   0.070   4.060
 1947SOL    HW2 5858   3.361   0.123   4.154
 1948SOL     OW 5859   2.111   1.785   4.965
 1948SOL    HW1 5860   2.168   1.720   5.015
 1948SOL    HW2 5861   2.095   1.752   4.872
 1949SOL     OW 5862   2.802   1.698   4.628
 1949SOL    HW1 5863   2.882   1.641   4.649
 1949SOL    HW2 5864   2.753   1.658   4.551
 1950SOL     OW 5865   2.244   0.700   4.204
 1950SOL    HW1 5866   2.289   0.610   4.201
 1950SOL    HW2 5867   2.150   0.689   4.237
 1951SOL     OW 5868   2.476   0.122   3.841
 1951SOL    HW1 5869   2.574   0.100   3.848
 1951SOL    HW2 5870   2.445   0.105   3.748
 1952SOL     OW 5871   2.665   1.402   4.648
 1952SOL    HW1 5872   2.755   1.416   4.606
 1952SOL    HW2 5873   2.594   1.404   4.577
 1953SOL     OW 5874   2.784   0.503   4.623
 1953SOL    HW1 5875   2.759   0.494   4.527
 1953SOL    HW2 5876   2.832   0.421   4.654
 1954SOL     OW 5877   2.401   0.064   4.236
 1954SOL    HW1 5878   2.320   0.065   4.294
 1954SOL    HW2 5879   2.404   0.147   4.181
 1955SOL     OW 5880   3.296   1.188   3.765
 1955SOL    HW1 5881   3.328   1.112   3.822
 1955SOL    HW2 5882   3.204   1.215   3.795
 1956SOL     OW 5883   2.159   0.035   3.895
 1956SOL    HW1 5884   2.208   0.119   3.874
 1956SOL    HW2 5885   2.221  -0.030   3.940
 1957SOL     OW 5886   2.797   0.236   4.204
 1957SOL    HW1 5887   2.749   0.277   4.126
 1957SOL    HW2 5888   2.896   0.234   4.185
 1958SOL     OW 5889   3.089   1.570   4.517
 1958SOL    HW1 5890   3.110   1.644   4.452
 1958SOL    HW2 5891   3.157   1.570   4.590
 1959SOL     OW 5892   2.321   1.152   4.465
 1959SOL    HW1 5893   2.250   1.125   4.530
 1959SOL    HW2 5894   2.295   1.124   4.372
 1960SOL     OW 5895   3.133   1.797   4.315
 1960SOL    HW1 5896   3.177   1.861   4.251
 1960SOL    HW2 5897   3.083   1.849   4.385
 1961SOL     OW 5898   2.894   0.549   3.740
 1961SOL    HW1 5899   2.853   0.631   3.701
 1961SOL    HW2 5900   2.958   0.575   3.813
 1962SOL     OW 5901   2.728   0.454   4.366
 1962SOL    HW1 5902   2.696   0.526   4.304
 1962SOL    HW2 5903   2.752   0.373   4.313
 1963SOL     OW 5904   2.879   0.039   4.477
 1963SOL    HW1 5905   2.807   0.044   4.408
 1963SOL    HW2 5906   2.855  -0.030   4.546
 1964SOL     OW 5907   3.291   1.173   4.591
 1964SOL    HW1 5908   3.236   1.089   4.584
 1964SOL    HW2 5909   3.317   1.202   4.499
 1965SOL     OW 5910   3.328   0.590   4.716
 1965SOL    HW1 5911   3.298   0.495   4.723
 1965SOL    HW2 5912   3.401   0.606   4.782
 1966SOL     OW 5913   3.719   0.833   4.101
 1966SOL    HW1 5914   3.761   0.769   4.165
 1966SOL    HW2 5915   3.681   0.782   4.023
 1967SOL     OW 5916   2.350   1.385   3.898
 1967SOL    HW1 5917   2.263   1.370   3.945
 1967SOL    HW2 5918   2.333   1.411   3.803
 1968SOL     OW 5919   3.526   1.280   4.381
 1968SOL    HW1 5920   3.625   1.288   4.395
 1968SOL    HW2 5921   3.481   1.364   4.412
 1969SOL     OW 5922   3.252   0.575   3.802
 1969SOL    HW1 5923   3.198   0.554   3.883
 1969SOL    HW2 5924   3.343   0.534   3.811
 1970SOL     OW 5925   2.389   0.256   4.052
 1970SOL    HW1 5926   2.416   0.197   3.977
 1970SOL    HW2 5927   2.389   0.351   4.021
 1971SOL     OW 5928   2.973   1.195   4.824
 1971SOL    HW1 5929   2.933   1.239   4.905
 1971SOL    HW2 5930   2.932   1.232   4.741
 1972SOL     OW 5931   3.500   1.099   4.803
 1972SOL    HW1 5932   3.505   1.180   4.862
 1972SOL    HW2 5933   3.414   1.101   4.752
 1973SOL     OW 5934   2.567   1.050   4.092
 1973SOL    HW1 5935   2.553   1.057   4.191
 1973SOL    HW2 5936   2.651   0.999   4.074
 1974SOL     OW 5937   2.272   0.813   4.975
 1974SOL    HW1 5938   2.358   0.825   5.025
 1974SOL    HW2 5939   2.230   0.726   5.002
 1975SOL     OW 5940   2.229   1.100   4.225
 1975SOL    HW1 5941   2.222   1.183   4.169
 1975SOL    HW2 5942   2.233   1.020   4.165
 1976SOL     OW 5943   2.428   0.537   4.589
 1976SOL    HW1 5944   2.440   0.603   4.515
 1976SOL    HW2 5945   2.474   0.571   4.672
 1977SOL     OW 5946   3.114   1.348   4.112
 1977SOL    HW1 5947   3.164   1.425   4.152
 1977SOL    HW2 5948   3.019   1.350   4.144
 1978SOL     OW 5949   3.134   1.445   4.866
 1978SOL    HW1 5950   3.181   1.458   4.953
 1978SOL    HW2 5951   3.068   1.371   4.875
 1979SOL     OW 5952   3.444   0.639   4.196
 1979SOL    HW1 5953   3.413   0.700   4.269
 1979SOL    HW2 5954   3.494   0.691   4.127
 1980SOL     OW 5955   2.216   1.510   5.053
 1980SOL    HW1 5956   2.195   1.466   4.966
 1980SOL    HW2 5957   2.313   1.536   5.056
 1981SOL     OW 5958   2.435   0.870   4.753
 1981SOL    HW1 5959   2.479   0.959   4.744
 1981SOL    HW2 5960   2.372   0.870   4.830
 1982SOL     OW 5961   3.071   0.525   3.999
 1982SOL    HW1 5962   3.084   0.441   4.053
 1982SOL    HW2 5963   3.042   0.599   4.059
 1983SOL     OW 5964   2.594   0.634   4.788
 1983SOL    HW1 5965   2.653   0.608   4.712
 1983SOL    HW2 5966   2.566   0.730   4.777
 1984SOL     OW 5967   2.169   0.063   4.342
 1984SOL    HW1 5968   2.158   0.157   4.375
 1984SOL    HW2 5969   2.164   0.000   4.419
 1985SOL     OW 5970   3.484   0.367   4.098
 1985SOL    HW1 5971   3.486   0.291   4.162
 1985SOL    HW2 5972   3.436   0.444   4.138
 1986SOL     OW 5973   2.885   0.766   4.690
 1986SOL    HW1 5974   2.900   0.787   4.786
 1986SOL    HW2 5975   2.855   0.671   4.681
 1987SOL     OW 5976   3.402   0.274   3.849
 1987SOL    HW1 5977   3.341   0.199   3.872
 1987SOL    HW2 5978   3.424   0.326   3.932
 1988SOL     OW 5979   3.165   0.838   3.766
 1988SOL    HW1 5980   3.199   0.745   3.781
 1988SOL    HW2 5981   3.183   0.865   3.671
 1989SOL     OW 5982   2.930   1.333   4.573
 1989SOL    HW1 5983   2.937   1.249   4.518
 1989SOL    HW2 5984   2.992   1.402   4.537
 1990SOL     OW 5985   2.181   0.810   4.673
 1990SOL    HW1 5986   2.274   0.846   4.678
 1990SOL    HW2 5987   2.175   0.725   4.725
 1991SOL     OW 5988   2.201   0.509   4.730
 1991SOL    HW1 5989   2.149   0.426   4.713
 1991SOL    HW2 5990   2.278   0.514   4.666
 1992SOL     OW 5991   1.870   1.326   3.924
 1992SOL    HW1 5992   1.777   1.347   3.893
 1992SOL    HW2 5993   1.880   1.227   3.937
 1993SOL     OW 5994   1.950   1.801   4.651
 1993SOL    HW1 5995   1.908   1.715   4.624
 1993SOL    HW2 5996   2.044   1.804   4.617
 1994SOL     OW 5997   2.366   1.568   4.634
 1994SOL    HW1 5998   2.432   1.642   4.643
 1994SOL    HW2 5999   2.410   1.489   4.592
 1995SOL     OW 6000   2.864   0.796   4.962
 1995SOL    HW1 6001   2.905   0.764   5.048
 1995SOL    HW2 6002   2.768   0.769   4.959
 1996SOL     OW 6003   1.902   0.544   4.838
 1996SOL    HW1 6004   1.987   0.511   4.797
 1996SOL    HW2 6005   1.915   0.559   4.936
 1997SOL     OW 6006   2.677   0.572   4.049
 1997SOL    HW1 6007   2.684   0.483   4.003
 1997SOL    HW2 6008   2.583   0.606   4.041
 1998SOL     OW 6009   2.533   0.464   4.993
 1998SOL    HW1 6010   2.499   0.375   4.963
 1998SOL    HW2 6011   2.559   0.518   4.913
 1999SOL     OW 6012   2.335   0.500   3.915
 1999SOL    HW1 6013   2.396   0.580   3.919
 1999SOL    HW2 6014   2.240   0.531   3.922
 2000SOL     OW 6015   3.164   0.855   4.033
 2000SOL    HW1 6016   3.078   0.824   4.075
 2000SOL    HW2 6017   3.160   0.841   3.934
 2001SOL     OW 6018   3.621   1.747   4.878
 2001SOL    HW1 6019   3.682   1.777   4.805
 2001SOL    HW2 6020   3.583   1.658   4.856
 2002SOL     OW 6021   1.945   1.258   4.746
 2002SOL    HW1 6022   1.940   1.257   4.846
 2002SOL    HW2 6023   1.862   1.217   4.708
 2003SOL     OW 6024   3.588   0.135   4.247
 2003SOL    HW1 6025   3.661   0.118   4.180
 2003SOL    HW2 6026   3.557   0.048   4.285
 2004SOL     OW 6027   3.250   1.573   4.201
 2004SOL    HW1 6028   3.317   1.585   4.127
 2004SOL    HW2 6029   3.210   1.662   4.224
 2005SOL     OW 6030   3.142   0.927   4.396
 2005SOL    HW1 6031   3.202   0.846   4.398
 2005SOL    HW2 6032   3.182   0.996   4.336
 2006SOL     OW 6033   2.534   1.616   3.878
 2006SOL    HW1 6034   2.543   1.626   3.779
 2006SOL    HW2 6035   2.494   1.527   3.899
 2007SOL     OW 6036   3.703   0.175   4.687
 2007SOL    HW1 6037   3.742   0.090   4.651
 2007SOL    HW2 6038   3.605   0.177   4.668
 2008SOL     OW 6039   2.125   0.326   4.444
 2008SOL    HW1 6040   2.046   0.377   4.410
 2008SOL    HW2 6041   2.116   0.311   4.542
 2009SOL     OW 6042   3.056   1.612   3.755
 2009SOL    HW1 6043   3.062   1.519   3.792
 2009SOL    HW2 6044   2.997   1.612   3.675
 2010SOL     OW 6045   2.684   1.002   5.096
 2010SOL    HW1 6046   2.724   1.001   5.004
 2010SOL    HW2 6047   2.694   1.094   5.136
 2011SOL     OW 6048   2.778   0.910   4.015
 2011SOL    HW1 6049   2.841   0.948   3.947
 2011SOL    HW2 6050   2.818   0.827   4.054
 2012SOL     OW 6051   3.366   1.607   3.768
 2012SOL    HW1 6052   3.274   1.644   3.775
 2012SOL    HW2 6053   3.404   1.627   3.678
 2013SOL     OW 6054   2.901   1.098   4.420
 2013SOL    HW1 6055   2.831   1.051   4.474
 2013SOL    HW2 6056   2.960   1.030   4.377
 2014SOL     OW 6057   2.876   0.236   4.695
 2014SOL    HW1 6058   2.868   0.200   4.602
 2014SOL    HW2 6059   2.874   0.160   4.760
 2015SOL     OW 6060   2.452   1.487   4.215
 2015SOL    HW1 6061   2.494   1.429   4.145
 2015SOL    HW2 6062   2.408   1.566   4.171
 2016SOL     OW 6063   2.117   1.348   4.014
 2016SOL    HW1 6064   2.021   1.349   3.987
 2016SOL    HW2 6065   2.129   1.401   4.098
 2017SOL     OW 6066   1.937   0.345   3.757
 2017SOL    HW1 6067   1.845   0.317   3.728
 2017SOL    HW2 6068   1.968   0.422   3.701
 2018SOL     OW 6069   1.934   0.166   4.042
 2018SOL    HW1 6070   1.917   0.249   3.988
 2018SOL    HW2 6071   2.024   0.129   4.020
 2019SOL     OW 6072   3.045   1.335   3.843
 2019SOL    HW1 6073   2.946   1.324   3.845
 2019SOL    HW2 6074   3.079   1.350   3.936
 2020SOL     OW 6075   3.355   1.767   4.683
 2020SOL    HW1 6076   3.388   1.831   4.614
 2020SOL    HW2 6077   3.421   1.761   4.758
 2021SOL     OW 6078   3.536   0.883   4.978
 2021SOL    HW1 6079   3.509   0.794   4.941
 2021SOL    HW2 6080   3.537   0.951   4.905
 2022SOL     OW 6081   3.087   0.325   4.173
 2022SOL    HW1 6082   3.152   0.251   4.162
 2022SOL    HW2 6083   3.107   0.375   4.257
 2023SOL     OW 6084   2.456   0.745   4.376
 2023SOL    HW1 6085   2.506   0.830   4.357
 2023SOL    HW2 6086   2.368   0.747   4.328
 2024SOL     OW 6087   2.721   1.374   3.740
 2024SOL    HW1 6088   2.675   1.389   3.828
 2024SOL    HW2 6089   2.765   1.459   3.710
 2025SOL     OW 6090   2.523   1.790   4.677
 2025SOL    HW1 6091   2.477   1.878   4.664
 2025SOL    HW2 6092   2.622   1.802   4.670
 2026SOL     OW 6093   2.721   0.956   4.585
 2026SOL    HW1 6094   2.775   0.887   4.633
 2026SOL    HW2 6095   2.689   1.025   4.651
 2027SOL     OW 6096   2.945   0.984   3.811
 2027SOL    HW1 6097   2.922   1.037   3.729
 2027SOL    HW2 6098   3.026   0.928   3.792
 2028SOL     OW 6099   3.723   1.569   4.575
 2028SOL    HW1 6100   3.652   1.557   4.505
 2028SOL    HW2 6101   3.724   1.490   4.635
 2029SOL     OW 6102   1.941   1.240   4.377
 2029SOL    HW1 6103   1.940   1.193   4.465
 2029SOL    HW2 6104   2.023   1.212   4.326
 2030SOL     OW 6105   3.686   0.192   4.951
 2030SOL    HW1 6106   3.682   0.102   4.995
 2030SOL    HW2 6107   3.689   0.181   4.852
 2031SOL     OW 6108   2.290   0.424   4.244
 2031SOL    HW1 6109   2.320   0.352   4.182
 2031SOL    HW2 6110   2.251   0.384   4.327
 2032SOL     OW 6111   2.674   1.586   4.411
 2032SOL    HW1 6112   2.706   1.596   4.317
 2032SOL    HW2 6113   2.595   1.524   4.413
 2033SOL     OW 6114   3.286   0.214   4.836
 2033SOL    HW1 6115   3.338   0.149   4.891
 2033SOL    HW2 6116   3.237   0.277   4.897
 2034SOL     OW 6117   2.632   1.330   4.025
 2034SOL    HW1 6118   2.586   1.243   4.042
 2034SOL    HW2 6119   2.723   1.327   4.066
 2035SOL     OW 6120   3.214   0.052   3.892
 2035SOL    HW1 6121   3.249   0.011   3.808
 2035SOL    HW2 6122   3.124   0.014   3.912
 2036SOL     OW 6123   3.162   0.453   4.415
 2036SOL    HW1 6124   3.103   0.533   4.419
 2036SOL    HW2 6125   3.177   0.418   4.508
 2037SOL     OW 6126   3.455   0.221   4.606
 2037SOL    HW1 6127   3.371   0.220   4.660
 2037SOL    HW2 6128   3.457   0.304   4.550
 2038SOL     OW 6129   1.901   1.077   4.024
 2038SOL    HW1 6130   2.000   1.066   4.015
 2038SOL    HW2 6131   1.861   0.991   4.056
 2039SOL     OW 6132   2.737   1.646   4.061
 2039SOL    HW1 6133   2.660   1.611   4.007
 2039SOL    HW2 6134   2.705   1.717   4.123
 2040SOL     OW 6135   2.092   2.490   0.113
 2040SOL    HW1 6136   1.999   2.488   0.150
 2040SOL    HW2 6137   2.093   2.451   0.021
 2041SOL     OW 6138   2.087   2.137   0.996
 2041SOL    HW1 6139   2.122   2.120   1.088
 2041SOL    HW2 6140   1.999   2.092   0.984
 2042SOL     OW 6141   1.881   2.230   0.647
 2042SOL    HW1 6142   1.799   2.273   0.686
 2042SOL    HW2 6143   1.853   2.157   0.584
 2043SOL     OW 6144   2.431   3.137   1.165
 2043SOL    HW1 6145   2.338   3.130   1.128
 2043SOL    HW2 6146   2.442   3.226   1.209
 2044SOL     OW 6147   3.417   3.373   0.703
 2044SOL    HW1 6148   3.360   3.357   0.784
 2044SOL    HW2 6149   3.358   3.383   0.623
 2045SOL     OW 6150   2.997   2.565   0.717
 2045SOL    HW1 6151   3.054   2.643   0.692
 2045SOL    HW2 6152   2.937   2.591   0.793
 2046SOL     OW 6153   3.617   2.469   0.231
 2046SOL    HW1 6154   3.605   2.456   0.132
 2046SOL    HW2 6155   3.587   2.388   0.280
 2047SOL     OW 6156   2.630   3.006   1.023
 2047SOL    HW1 6157   2.552   3.023   1.083
 2047SOL    HW2 6158   2.664   3.093   0.987
 2048SOL     OW 6159   2.712   2.660   1.823
 2048SOL    HW1 6160   2.708   2.736   1.888
 2048SOL    HW2 6161   2.734   2.696   1.732
 2049SOL     OW 6162   2.547   2.874   0.665
 2049SOL    HW1 6163   2.616   2.858   0.735
 2049SOL    HW2 6164   2.474   2.931   0.703
 2050SOL     OW 6165   2.548   3.023   1.803
 2050SOL    HW1 6166   2.608   3.102   1.817
 2050SOL    HW2 6167   2.462   3.054   1.762
 2051SOL     OW 6168   2.197   3.297   1.061
 2051SOL    HW1 6169   2.119   3.266   1.008
 2051SOL    HW2 6170   2.255   3.355   1.004
 2052SOL     OW 6171   3.322   3.367   1.339
 2052SOL    HW1 6172   3.346   3.461   1.365
 2052SOL    HW2 6173   3.306   3.313   1.421
 2053SOL     OW 6174   2.300   2.254   1.499
 2053SOL    HW1 6175   2.382   2.198   1.508
 2053SOL    HW2 6176   2.219   2.196   1.503
 2054SOL     OW 6177   3.465   2.309   0.737
 2054SOL    HW1 6178   3.391   2.355   0.687
 2054SOL    HW2 6179   3.516   2.377   0.790
 2055SOL     OW 6180   2.093   3.575   0.483
 2055SOL    HW1 6181   2.127   3.652   0.537
 2055SOL    HW2 6182   2.137   3.575   0.393
 2056SOL     OW 6183   2.989   3.203   1.690
 2056SOL    HW1 6184   3.036   3.203   1.778
 2056SOL    HW2 6185   2.941   3.116   1.679
 2057SOL     OW 6186   2.092   3.296   0.538
 2057SOL    HW1 6187   2.066   3.392   0.538
 2057SOL    HW2 6188   2.021   3.242   0.583
 2058SOL     OW 6189   2.102   2.953   0.886
 2058SOL    HW1 6190   2.116   2.869   0.938
 2058SOL    HW2 6191   2.047   3.017   0.941
 2059SOL     OW 6192   2.482   3.648   1.439
 2059SOL    HW1 6193   2.390   3.631   1.474
 2059SOL    HW2 6194   2.510   3.740   1.465
 2060SOL     OW 6195   2.468   2.826   0.123
 2060SOL    HW1 6196   2.475   2.910   0.069
 2060SOL    HW2 6197   2.514   2.839   0.211
 2061SOL     OW 6198   3.456   1.976   1.480
 2061SOL    HW1 6199   3.438   2.043   1.408
 2061SOL    HW2 6200   3.453   2.022   1.569
 2062SOL     OW 6201   1.984   2.505   0.563
 2062SOL    HW1 6202   1.939   2.417   0.580
 2062SOL    HW2 6203   1.983   2.559   0.647
 2063SOL     OW 6204   3.704   3.629   0.359
 2063SOL    HW1 6205   3.758   3.600   0.439
 2063SOL    HW2 6206   3.734   3.719   0.330
 2064SOL     OW 6207   1.889   3.458   0.117
 2064SOL    HW1 6208   1.870   3.362   0.138
 2064SOL    HW2 6209   1.856   3.516   0.192
 2065SOL     OW 6210   3.551   2.784   0.612
 2065SOL    HW1 6211   3.646   2.755   0.620
 2065SOL    HW2 6212   3.543   2.849   0.537
 2066SOL     OW 6213   3.503   2.970   0.432
 2066SOL    HW1 6214   3.589   2.972   0.380
 2066SOL    HW2 6215   3.517   3.017   0.520
 2067SOL     OW 6216   1.975   2.599   1.597
 2067SOL    HW1 6217   2.063   2.586   1.642
 2067SOL    HW2 6218   1.962   2.696   1.575
 2068SOL     OW 6219   2.475   3.227   0.726
 2068SOL    HW1 6220   2.426   3.140   0.735
 2068SOL    HW2 6221   2.452   3.270   0.639
 2069SOL     OW 6222   3.155   3.090   1.423
 2069SOL    HW1 6223   3.192   3.017   1.365
 2069SOL    HW2 6224   3.207   3.095   1.508
 2070SOL     OW 6225   2.671   1.866   0.502
 2070SOL    HW1 6226   2.711   1.957   0.493
 2070SOL    HW2 6227   2.571   1.874   0.508
 2071SOL     OW 6228   2.059   2.838   1.264
 2071SOL    HW1 6229   2.148   2.793   1.250
 2071SOL    HW2 6230   1.986   2.773   1.245
 2072SOL     OW 6231   3.387   2.861   0.190
 2072SOL    HW1 6232   3.324   2.785   0.203
 2072SOL    HW2 6233   3.435   2.879   0.276
 2073SOL     OW 6234   3.049   3.654   1.616
 2073SOL    HW1 6235   3.073   3.714   1.540
 2073SOL    HW2 6236   3.056   3.559   1.586
 2074SOL     OW 6237   2.179   2.113   1.801
 2074SOL    HW1 6238   2.250   2.184   1.807
 2074SOL    HW2 6239   2.091   2.152   1.829
 2075SOL     OW 6240   3.328   3.279   0.953
 2075SOL    HW1 6241   3.269   3.285   1.033
 2075SOL    HW2 6242   3.313   3.191   0.907
 2076SOL     OW 6243   3.529   3.576   0.572
 2076SOL    HW1 6244   3.488   3.553   0.484
 2076SOL    HW2 6245   3.511   3.502   0.637
 2077SOL     OW 6246   2.460   2.591   0.270
 2077SOL    HW1 6247   2.484   2.660   0.202
 2077SOL    HW2 6248   2.382   2.624   0.324
 2078SOL     OW 6249   3.143   2.207   0.944
 2078SOL    HW1 6250   3.057   2.157   0.931
 2078SOL    HW2 6251   3.205   2.153   1.000
 2079SOL     OW 6252   3.438   3.524   0.307
 2079SOL    HW1 6253   3.527   3.570   0.310
 2079SOL    HW2 6254   3.417   3.500   0.212
 2080SOL     OW 6255   2.669   2.467   1.465
 2080SOL    HW1 6256   2.622   2.464   1.554
 2080SOL    HW2 6257   2.618   2.412   1.399
 2081SOL     OW 6258   3.256   2.331   1.674
 2081SOL    HW1 6259   3.236   2.374   1.762
 2081SOL    HW2 6260   3.334   2.269   1.683
 2082SOL     OW 6261   2.835   2.752   1.572
 2082SOL    HW1 6262   2.881   2.668   1.543
 2082SOL    HW2 6263   2.779   2.786   1.497
 2083SOL     OW 6264   2.853   2.272   1.242
 2083SOL    HW1 6265   2.776   2.306   1.296
 2083SOL    HW2 6266   2.819   2.221   1.163
 2084SOL     OW 6267   2.903   2.563   0.429
 2084SOL    HW1 6268   2.929   2.559   0.525
 2084SOL    HW2 6269   2.818   2.512   0.415
 2085SOL     OW 6270   1.938   2.673   0.789
 2085SOL    HW1 6271   2.037   2.661   0.798
 2085SOL    HW2 6272   1.914   2.768   0.810
 2086SOL     OW 6273   1.992   3.683   1.571
 2086SOL    HW1 6274   1.982   3.668   1.670
 2086SOL    HW2 6275   1.906   3.719   1.535
 2087SOL     OW 6276   2.727   2.210   0.195
 2087SOL    HW1 6277   2.786   2.273   0.146
 2087SOL    HW2 6278   2.746   2.116   0.166
 2088SOL     OW 6279   3.581   2.447   1.831
 2088SOL    HW1 6280   3.555   2.536   1.795
 2088SOL    HW2 6281   3.579   2.379   1.758
 2089SOL     OW 6282   3.224   3.006   0.545
 2089SOL    HW1 6283   3.307   2.977   0.497
 2089SOL    HW2 6284   3.175   3.073   0.489
 2090SOL     OW 6285   2.412   2.058   0.885
 2090SOL    HW1 6286   2.407   2.053   0.985
 2090SOL    HW2 6287   2.414   2.154   0.856
 2091SOL     OW 6288   2.870   3.318   0.477
 2091SOL    HW1 6289   2.824   3.390   0.425
 2091SOL    HW2 6290   2.866   3.338   0.575
 2092SOL     OW 6291   2.213   3.663   0.853
 2092SOL    HW1 6292   2.263   3.577   0.859
 2092SOL    HW2 6293   2.278   3.740   0.850
 2093SOL     OW 6294   3.657   2.928   0.873
 2093SOL    HW1 6295   3.595   2.913   0.797
 2093SOL    HW2 6296   3.605   2.939   0.958
 2094SOL     OW 6297   3.089   3.412   1.506
 2094SOL    HW1 6298   3.095   3.335   1.570
 2094SOL    HW2 6299   3.037   3.386   1.426
 2095SOL     OW 6300   2.183   2.805   0.242
 2095SOL    HW1 6301   2.265   2.844   0.200
 2095SOL    HW2 6302   2.156   2.723   0.193
 2096SOL     OW 6303   3.320   2.597   0.728
 2096SOL    HW1 6304   3.315   2.532   0.803
 2096SOL    HW2 6305   3.400   2.656   0.741
 2097SOL     OW 6306   2.323   3.128   1.727
 2097SOL    HW1 6307   2.273   3.129   1.641
 2097SOL    HW2 6308   2.260   3.110   1.803
 2098SOL     OW 6309   2.973   3.638   0.237
 2098SOL    HW1 6310   2.913   3.576   0.287
 2098SOL    HW2 6311   3.004   3.594   0.152
 2099SOL     OW 6312   2.064   2.147   1.498
 2099SOL    HW1 6313   1.984   2.207   1.485
 2099SOL    HW2 6314   2.054   2.098   1.584
 2100SOL     OW 6315   3.494   3.239   0.081
 2100SOL    HW1 6316   3.462   3.333   0.071
 2100SOL    HW2 6317   3.418   3.176   0.069
 2101SOL     OW 6318   2.326   3.605   0.323
 2101SOL    HW1 6319   2.359   3.644   0.409
 2101SOL    HW2 6320   2.402   3.598   0.258
 2102SOL     OW 6321   3.262   1.969   0.426
 2102SOL    HW1 6322   3.238   1.932   0.336
 2102SOL    HW2 6323   3.361   1.985   0.430
 2103SOL     OW 6324   2.111   3.647   1.241
 2103SOL    HW1 6325   2.168   3.582   1.291
 2103SOL    HW2 6326   2.095   3.614   1.148
 2104SOL     OW 6327   2.802   3.560   0.904
 2104SOL    HW1 6328   2.882   3.503   0.925
 2104SOL    HW2 6329   2.753   3.520   0.827
 2105SOL     OW 6330   2.244   2.562   0.480
 2105SOL    HW1 6331   2.289   2.472   0.477
 2105SOL    HW2 6332   2.150   2.551   0.513
 2106SOL     OW 6333   3.409   2.084   1.729
 2106SOL    HW1 6334   3.404   2.121   1.821
 2106SOL    HW2 6335   3.337   2.015   1.717
 2107SOL     OW 6336   2.476   1.984   0.117
 2107SOL    HW1 6337   2.574   1.962   0.124
 2107SOL    HW2 6338   2.445   1.967   0.024
 2108SOL     OW 6339   2.643   2.126   1.749
 2108SOL    HW1 6340   2.710   2.065   1.792
 2108SOL    HW2 6341   2.570   2.145   1.814
 2109SOL     OW 6342   2.750   3.376   1.195
 2109SOL    HW1 6343   2.727   3.351   1.101
 2109SOL    HW2 6344   2.811   3.307   1.234
 2110SOL     OW 6345   3.213   2.452   1.433
 2110SOL    HW1 6346   3.241   2.409   1.518
 2110SOL    HW2 6347   3.238   2.548   1.434
 2111SOL     OW 6348   2.665   3.264   0.924
 2111SOL    HW1 6349   2.755   3.278   0.882
 2111SOL    HW2 6350   2.594   3.266   0.853
 2112SOL     OW 6351   2.784   2.365   0.899
 2112SOL    HW1 6352   2.759   2.356   0.803
 2112SOL    HW2 6353   2.832   2.283   0.930
 2113SOL     OW 6354   2.401   1.926   0.512
 2113SOL    HW1 6355   2.320   1.927   0.570
 2113SOL    HW2 6356   2.404   2.009   0.457
 2114SOL     OW 6357   3.296   3.050   0.041
 2114SOL    HW1 6358   3.328   2.974   0.098
 2114SOL    HW2 6359   3.204   3.077   0.071
 2115SOL     OW 6360   2.159   1.897   0.171
 2115SOL    HW1 6361   2.208   1.981   0.150
 2115SOL    HW2 6362   2.221   1.832   0.216
 2116SOL     OW 6363   2.797   2.098   0.480
 2116SOL    HW1 6364   2.749   2.139   0.402
 2116SOL    HW2 6365   2.896   2.096   0.461
 2117SOL     OW 6366   2.938   2.545   1.464
 2117SOL    HW1 6367   2.858   2.484   1.467
 2117SOL    HW2 6368   3.019   2.492   1.440
 2118SOL     OW 6369   3.089   3.432   0.793
 2118SOL    HW1 6370   3.110   3.506   0.728
 2118SOL    HW2 6371   3.157   3.432   0.866
 2119SOL     OW 6372   2.321   3.014   0.741
 2119SOL    HW1 6373   2.250   2.987   0.806
 2119SOL    HW2 6374   2.295   2.986   0.648
 2120SOL     OW 6375   3.133   3.659   0.591
 2120SOL    HW1 6376   3.177   3.723   0.527
 2120SOL    HW2 6377   3.083   3.711   0.661
 2121SOL     OW 6378   2.894   2.411   0.016
 2121SOL    HW1 6379   2.853   2.493  -0.023
 2121SOL    HW2 6380   2.958   2.437   0.089
 2122SOL     OW 6381   1.940   2.418   1.386
 2122SOL    HW1 6382   2.032   2.417   1.345
 2122SOL    HW2 6383   1.934   2.492   1.453
 2123SOL     OW 6384   2.423   2.084   1.147
 2123SOL    HW1 6385   2.461   2.000   1.184
 2123SOL    HW2 6386   2.335   2.103   1.191
 2124SOL     OW 6387   2.728   2.316   0.642
 2124SOL    HW1 6388   2.696   2.388   0.580
 2124SOL    HW2 6389   2.752   2.235   0.589
 2125SOL     OW 6390   2.879   1.901   0.753
 2125SOL    HW1 6391   2.807   1.906   0.684
 2125SOL    HW2 6392   2.855   1.832   0.822
 2126SOL     OW 6393   3.291   3.035   0.867
 2126SOL    HW1 6394   3.236   2.951   0.860
 2126SOL    HW2 6395   3.317   3.064   0.775
 2127SOL     OW 6396   3.328   2.452   0.992
 2127SOL    HW1 6397   3.298   2.357   0.999
 2127SOL    HW2 6398   3.401   2.468   1.058
 2128SOL     OW 6399   3.719   2.695   0.377
 2128SOL    HW1 6400   3.761   2.631   0.441
 2128SOL    HW2 6401   3.681   2.644   0.299
 2129SOL     OW 6402   2.350   3.247   0.174
 2129SOL    HW1 6403   2.263   3.232   0.221
 2129SOL    HW2 6404   2.333   3.273   0.079
 2130SOL     OW 6405   3.526   3.142   0.657
 2130SOL    HW1 6406   3.625   3.150   0.671
 2130SOL    HW2 6407   3.481   3.226   0.688
 2131SOL     OW 6408   3.252   2.437   0.078
 2131SOL    HW1 6409   3.198   2.416   0.159
 2131SOL    HW2 6410   3.343   2.396   0.087
 2132SOL     OW 6411   2.389   2.118   0.328
 2132SOL    HW1 6412   2.416   2.059   0.253
 2132SOL    HW2 6413   2.389   2.213   0.297
 2133SOL     OW 6414   3.616   3.085   1.588
 2133SOL    HW1 6415   3.707   3.046   1.575
 2133SOL    HW2 6416   3.624   3.181   1.612
 2134SOL     OW 6417   2.926   3.209   1.340
 2134SOL    HW1 6418   2.846   3.186   1.395
 2134SOL    HW2 6419   3.009   3.183   1.389
 2135SOL     OW 6420   3.454   3.491   1.625
 2135SOL    HW1 6421   3.481   3.525   1.535
 2135SOL    HW2 6422   3.533   3.453   1.671
 2136SOL     OW 6423   2.973   3.057   1.100
 2136SOL    HW1 6424   2.933   3.101   1.181
 2136SOL    HW2 6425   2.932   3.094   1.017
 2137SOL     OW 6426   3.500   2.961   1.079
 2137SOL    HW1 6427   3.505   3.042   1.138
 2137SOL    HW2 6428   3.414   2.963   1.028
 2138SOL     OW 6429   2.777   1.951   1.402
 2138SOL    HW1 6430   2.802   1.931   1.307
 2138SOL    HW2 6431   2.849   2.007   1.444
 2139SOL     OW 6432   2.842   2.978   1.719
 2139SOL    HW1 6433   2.743   2.984   1.729
 2139SOL    HW2 6434   2.865   2.898   1.663
 2140SOL     OW 6435   2.567   2.912   0.368
 2140SOL    HW1 6436   2.553   2.919   0.467
 2140SOL    HW2 6437   2.651   2.861   0.350
 2141SOL     OW 6438   2.272   2.675   1.251
 2141SOL    HW1 6439   2.358   2.687   1.301
 2141SOL    HW2 6440   2.230   2.588   1.278
 2142SOL     OW 6441   3.136   2.248   1.262
 2142SOL    HW1 6442   3.157   2.322   1.326
 2142SOL    HW2 6443   3.047   2.265   1.219
 2143SOL     OW 6444   1.926   3.426   1.331
 2143SOL    HW1 6445   1.880   3.508   1.297
 2143SOL    HW2 6446   2.024   3.445   1.340
 2144SOL     OW 6447   2.229   2.962   0.501
 2144SOL    HW1 6448   2.222   3.045   0.445
 2144SOL    HW2 6449   2.233   2.882   0.441
 2145SOL     OW 6450   2.428   2.399   0.865
 2145SOL    HW1 6451   2.440   2.465   0.791
 2145SOL    HW2 6452   2.474   2.433   0.948
 2146SOL     OW 6453   3.114   3.210   0.388
 2146SOL    HW1 6454   3.164   3.287   0.428
 2146SOL    HW2 6455   3.019   3.212   0.420
 2147SOL     OW 6456   3.134   3.307   1.142
 2147SOL    HW1 6457   3.181   3.320   1.229
 2147SOL    HW2 6458   3.068   3.233   1.151
 2148SOL     OW 6459   3.444   2.501   0.472
 2148SOL    HW1 6460   3.413   2.562   0.545
 2148SOL    HW2 6461   3.494   2.553   0.403
 2149SOL     OW 6462   2.216   3.372   1.329
 2149SOL    HW1 6463   2.195   3.328   1.242
 2149SOL    HW2 6464   2.313   3.398   1.332
 2150SOL     OW 6465   2.264   2.613   1.598
 2150SOL    HW1 6466   2.332   2.668   1.551
 2150SOL    HW2 6467   2.304   2.525   1.625
 2151SOL     OW 6468   3.449   2.641   1.670
 2151SOL    HW1 6469   3.357   2.679   1.665
 2151SOL    HW2 6470   3.509   2.688   1.605
 2152SOL     OW 6471   2.875   1.967   1.770
 2152SOL    HW1 6472   2.881   2.052   1.718
 2152SOL    HW2 6473   2.907   1.891   1.713
 2153SOL     OW 6474   2.366   1.912   1.740
 2153SOL    HW1 6475   2.324   1.855   1.670
 2153SOL    HW2 6476   2.300   1.981   1.772
 2154SOL     OW 6477   2.435   2.732   1.029
 2154SOL    HW1 6478   2.479   2.821   1.020
 2154SOL    HW2 6479   2.372   2.732   1.106
 2155SOL     OW 6480   3.222   2.724   1.045
 2155SOL    HW1 6481   3.147   2.724   0.979
 2155SOL    HW2 6482   3.259   2.632   1.054
 2156SOL     OW 6483   3.071   2.387   0.275
 2156SOL    HW1 6484   3.084   2.303   0.329
 2156SOL    HW2 6485   3.042   2.461   0.335
 2157SOL     OW 6486   2.169   2.075   1.231
 2157SOL    HW1 6487   2.146   2.112   1.321
 2157SOL    HW2 6488   2.139   1.980   1.225
 2158SOL     OW 6489   1.899   3.172   1.282
 2158SOL    HW1 6490   1.952   3.123   1.350
 2158SOL    HW2 6491   1.921   3.270   1.287
 2159SOL     OW 6492   2.594   2.496   1.064
 2159SOL    HW1 6493   2.653   2.470   0.988
 2159SOL    HW2 6494   2.566   2.592   1.053
 2160SOL     OW 6495   3.590   2.797   1.854
 2160SOL    HW1 6496   3.544   2.790   1.765
 2160SOL    HW2 6497   3.528   2.841   1.920
 2161SOL     OW 6498   2.169   1.925   0.618
 2161SOL    HW1 6499   2.158   2.019   0.651
 2161SOL    HW2 6500   2.164   1.862   0.695
 2162SOL     OW 6501   3.484   2.229   0.374
 2162SOL    HW1 6502   3.486   2.153   0.438
 2162SOL    HW2 6503   3.436   2.306   0.414
 2163SOL     OW 6504   2.885   2.628   0.966
 2163SOL    HW1 6505   2.900   2.649   1.062
 2163SOL    HW2 6506   2.855   2.533   0.957
 2164SOL     OW 6507   2.842   3.435   1.700
 2164SOL    HW1 6508   2.822   3.479   1.612
 2164SOL    HW2 6509   2.881   3.344   1.684
 2165SOL     OW 6510   3.721   3.380   1.605
 2165SOL    HW1 6511   3.735   3.407   1.510
 2165SOL    HW2 6512   3.804   3.402   1.658
 2166SOL     OW 6513   2.212   2.760   1.804
 2166SOL    HW1 6514   2.288   2.804   1.852
 2166SOL    HW2 6515   2.247   2.713   1.722
 2167SOL     OW 6516   3.402   2.136   0.125
 2167SOL    HW1 6517   3.341   2.061   0.148
 2167SOL    HW2 6518   3.424   2.188   0.208
 2168SOL     OW 6519   3.165   2.700   0.042
 2168SOL    HW1 6520   3.199   2.607   0.057
 2168SOL    HW2 6521   3.183   2.727  -0.053
 2169SOL     OW 6522   2.930   3.195   0.849
 2169SOL    HW1 6523   2.937   3.111   0.794
 2169SOL    HW2 6524   2.992   3.264   0.813
 2170SOL     OW 6525   2.181   2.672   0.949
 2170SOL    HW1 6526   2.274   2.708   0.954
 2170SOL    HW2 6527   2.175   2.587   1.001
 2171SOL     OW 6528   2.201   2.371   1.006
 2171SOL    HW1 6529   2.149   2.288   0.989
 2171SOL    HW2 6530   2.278   2.376   0.942
 2172SOL     OW 6531   3.000   2.242   1.678
 2172SOL    HW1 6532   2.955   2.305   1.742
 2172SOL    HW2 6533   3.093   2.273   1.661
 2173SOL     OW 6534   3.022   2.069   1.477
 2173SOL    HW1 6535   3.022   2.133   1.554
 2173SOL    HW2 6536   3.050   2.117   1.394
 2174SOL     OW 6537   1.870   3.188   0.200
 2174SOL    HW1 6538   1.777   3.209   0.169
 2174SOL    HW2 6539   1.880   3.089   0.213
 2175SOL     OW 6540   1.950   3.663   0.927
 2175SOL    HW1 6541   1.908   3.577   0.900
 2175SOL    HW2 6542   2.044   3.666   0.893
 2176SOL     OW 6543   2.366   3.430   0.910
 2176SOL    HW1 6544   2.432   3.504   0.919
 2176SOL    HW2 6545   2.410   3.351   0.868
 2177SOL     OW 6546   2.864   2.658   1.238
 2177SOL    HW1 6547   2.905   2.626   1.324
 2177SOL    HW2 6548   2.768   2.631   1.235
 2178SOL     OW 6549   1.902   2.406   1.114
 2178SOL    HW1 6550   1.987   2.373   1.073
 2178SOL    HW2 6551   1.915   2.421   1.212
 2179SOL     OW 6552   2.051   2.382   1.722
 2179SOL    HW1 6553   2.110   2.342   1.652
 2179SOL    HW2 6554   1.993   2.453   1.681
 2180SOL     OW 6555   3.231   2.812   1.660
 2180SOL    HW1 6556   3.270   2.901   1.680
 2180SOL    HW2 6557   3.241   2.792   1.563
 2181SOL     OW 6558   2.677   2.434   0.325
 2181SOL    HW1 6559   2.684   2.345   0.279
 2181SOL    HW2 6560   2.583   2.468   0.317
 2182SOL     OW 6561   3.519   2.466   1.206
 2182SOL    HW1 6562   3.481   2.397   1.268
 2182SOL    HW2 6563   3.601   2.430   1.162
 2183SOL     OW 6564   2.114   3.426   1.744
 2183SOL    HW1 6565   2.084   3.483   1.820
 2183SOL    HW2 6566   2.107   3.329   1.770
 2184SOL     OW 6567   2.533   2.326   1.269
 2184SOL    HW1 6568   2.499   2.237   1.239
 2184SOL    HW2 6569   2.559   2.380   1.189
 2185SOL     OW 6570   2.792   3.540   1.465
 2185SOL    HW1 6571   2.768   3.522   1.370
 2185SOL    HW2 6572   2.822   3.634   1.475
 2186SOL     OW 6573   2.335   2.362   0.191
 2186SOL    HW1 6574   2.396   2.442   0.195
 2186SOL    HW2 6575   2.240   2.393   0.198
 2187SOL     OW 6576   2.021   2.999   1.466
 2187SOL    HW1 6577   2.043   2.938   1.542
 2187SOL    HW2 6578   2.031   2.950   1.380
 2188SOL     OW 6579   3.209   2.921   1.234
 2188SOL    HW1 6580   3.233   2.858   1.160
 2188SOL    HW2 6581   3.119   2.961   1.216
 2189SOL     OW 6582   3.164   2.717   0.309
 2189SOL    HW1 6583   3.078   2.686   0.351
 2189SOL    HW2 6584   3.160   2.703   0.210
 2190SOL     OW 6585   3.621   3.609   1.154
 2190SOL    HW1 6586   3.682   3.639   1.081
 2190SOL    HW2 6587   3.583   3.520   1.132
 2191SOL     OW 6588   3.114   3.593   1.128
 2191SOL    HW1 6589   3.198   3.598   1.074
 2191SOL    HW2 6590   3.091   3.497   1.146
 2192SOL     OW 6591   1.945   3.120   1.022
 2192SOL    HW1 6592   1.940   3.119   1.122
 2192SOL    HW2 6593   1.862   3.079   0.984
 2193SOL     OW 6594   2.550   3.524   1.716
 2193SOL    HW1 6595   2.494   3.605   1.725
 2193SOL    HW2 6596   2.602   3.528   1.630
 2194SOL     OW 6597   2.765   1.948   0.133
 2194SOL    HW1 6598   2.816   1.949   0.047
 2194SOL    HW2 6599   2.821   1.906   0.204
 2195SOL     OW 6600   3.588   1.997   0.523
 2195SOL    HW1 6601   3.661   1.980   0.456
 2195SOL    HW2 6602   3.557   1.910   0.561
 2196SOL     OW 6603   3.250   3.435   0.477
 2196SOL    HW1 6604   3.317   3.447   0.403
 2196SOL    HW2 6605   3.210   3.524   0.500
 2197SOL     OW 6606   1.992   3.656   1.851
 2197SOL    HW1 6607   1.951   3.582   1.904
 2197SOL    HW2 6608   2.056   3.707   1.909
 2198SOL     OW 6609   3.142   2.789   0.672
 2198SOL    HW1 6610   3.202   2.708   0.674
 2198SOL    HW2 6611   3.182   2.858   0.612
 2199SOL     OW 6612   2.692   3.135   1.422
 2199SOL    HW1 6613   2.687   3.168   1.517
 2199SOL    HW2 6614   2.606   3.154   1.376
 2200SOL     OW 6615   2.534   3.478   0.154
 2200SOL    HW1 6616   2.543   3.488   0.055
 2200SOL    HW2 6617   2.494   3.389   0.175
 2201SOL     OW 6618   3.512   3.582   1.394
 2201SOL    HW1 6619   3.565   3.592   1.310
 2201SOL    HW2 6620   3.485   3.672   1.428
 2202SOL     OW 6621   3.703   2.037   0.963
 2202SOL    HW1 6622   3.742   1.952   0.927
 2202SOL    HW2 6623   3.605   2.039   0.944
 2203SOL     OW 6624   2.125   2.188   0.720
 2203SOL    HW1 6625   2.046   2.239   0.686
 2203SOL    HW2 6626   2.116   2.173   0.818
 2204SOL     OW 6627   3.056   3.474   0.031
 2204SOL    HW1 6628   3.062   3.381   0.068
 2204SOL    HW2 6629   2.997   3.474  -0.049
 2205SOL     OW 6630   2.684   2.864   1.372
 2205SOL    HW1 6631   2.724   2.863   1.280
 2205SOL    HW2 6632   2.694   2.956   1.412
 2206SOL     OW 6633   2.778   2.772   0.291
 2206SOL    HW1 6634   2.841   2.810   0.223
 2206SOL    HW2 6635   2.818   2.689   0.330
 2207SOL     OW 6636   3.366   3.469   0.044
 2207SOL    HW1 6637   3.274   3.506   0.051
 2207SOL    HW2 6638   3.404   3.489  -0.046
 2208SOL     OW 6639   2.234   3.150   1.490
 2208SOL    HW1 6640   2.221   3.243   1.456
 2208SOL    HW2 6641   2.150   3.098   1.477
 2209SOL     OW 6642   3.476   3.154   1.289
 2209SOL    HW1 6643   3.536   3.157   1.369
 2209SOL    HW2 6644   3.401   3.218   1.302
 2210SOL     OW 6645   2.901   2.960   0.696
 2210SOL    HW1 6646   2.831   2.913   0.750
 2210SOL    HW2 6647   2.960   2.892   0.653
 2211SOL     OW 6648   2.876   2.098   0.971
 2211SOL    HW1 6649   2.868   2.062   0.878
 2211SOL    HW2 6650   2.874   2.022   1.036
 2212SOL     OW 6651   2.452   3.349   0.491
 2212SOL    HW1 6652   2.494   3.291   0.421
 2212SOL    HW2 6653   2.408   3.428   0.447
 2213SOL     OW 6654   3.571   2.247   1.381
 2213SOL    HW1 6655   3.644   2.316   1.385
 2213SOL    HW2 6656   3.599   2.172   1.322
 2214SOL     OW 6657   2.117   3.210   0.290
 2214SOL    HW1 6658   2.021   3.211   0.263
 2214SOL    HW2 6659   2.129   3.263   0.374
 2215SOL     OW 6660   1.967   2.875   1.726
 2215SOL    HW1 6661   1.890   2.842   1.780
 2215SOL    HW2 6662   2.052   2.845   1.768
 2216SOL     OW 6663   2.534   2.065   1.489
 2216SOL    HW1 6664   2.624   2.049   1.449
 2216SOL    HW2 6665   2.542   2.070   1.588
 2217SOL     OW 6666   3.302   2.718   1.398
 2217SOL    HW1 6667   3.245   2.770   1.335
 2217SOL    HW2 6668   3.398   2.730   1.374
 2218SOL     OW 6669   1.934   2.028   0.318
 2218SOL    HW1 6670   1.917   2.111   0.264
 2218SOL    HW2 6671   2.024   1.991   0.296
 2219SOL     OW 6672   3.045   3.197   0.119
 2219SOL    HW1 6673   2.946   3.186   0.121
 2219SOL    HW2 6674   3.079   3.212   0.212
 2220SOL     OW 6675   2.475   2.704   1.431
 2220SOL    HW1 6676   2.531   2.785   1.414
 2220SOL    HW2 6677   2.534   2.624   1.434
 2221SOL     OW 6678   3.355   3.629   0.959
 2221SOL    HW1 6679   3.388   3.693   0.890
 2221SOL    HW2 6680   3.421   3.623   1.034
 2222SOL     OW 6681   2.578   2.427   1.708
 2222SOL    HW1 6682   2.597   2.492   1.782
 2222SOL    HW2 6683   2.638   2.347   1.717
 2223SOL     OW 6684   3.312   3.082   1.633
 2223SOL    HW1 6685   3.303   3.072   1.732
 2223SOL    HW2 6686   3.408   3.075   1.607
 2224SOL     OW 6687   2.252   3.603   1.560
 2224SOL    HW1 6688   2.161   3.644   1.558
 2224SOL    HW2 6689   2.245   3.509   1.592
 2225SOL     OW 6690   3.536   2.745   1.254
 2225SOL    HW1 6691   3.509   2.656   1.217
 2225SOL    HW2 6692   3.537   2.813   1.181
 2226SOL     OW 6693   3.087   2.187   0.449
 2226SOL    HW1 6694   3.152   2.113   0.438
 2226SOL    HW2 6695   3.107   2.237   0.533
 2227SOL     OW 6696   2.456   2.607   0.652
 2227SOL    HW1 6697   2.506   2.692   0.633
 2227SOL    HW2 6698   2.368   2.609   0.604
 2228SOL     OW 6699   3.639   2.204   1.642
 2228SOL    HW1 6700   3.622   2.235   1.548
 2228SOL    HW2 6701   3.555   2.167   1.680
 2229SOL     OW 6702   3.592   2.796   1.517
 2229SOL    HW1 6703   3.630   2.887   1.532
 2229SOL    HW2 6704   3.584   2.779   1.418
 2230SOL     OW 6705   2.721   3.236   0.016
 2230SOL    HW1 6706   2.675   3.251   0.104
 2230SOL    HW2 6707   2.765   3.321  -0.014
 2231SOL     OW 6708   2.523   3.652   0.953
 2231SOL    HW1 6709   2.477   3.740   0.940
 2231SOL    HW2 6710   2.622   3.664   0.946
 2232SOL     OW 6711   2.721   2.818   0.861
 2232SOL    HW1 6712   2.775   2.749   0.909
 2232SOL    HW2 6713   2.689   2.887   0.927
 2233SOL     OW 6714   2.945   2.846   0.087
 2233SOL    HW1 6715   2.922   2.899   0.005
 2233SOL    HW2 6716   3.026   2.790   0.068
 2234SOL     OW 6717   3.723   3.431   0.851
 2234SOL    HW1 6718   3.652   3.419   0.781
 2234SOL    HW2 6719   3.724   3.352   0.911
 2235SOL     OW 6720   2.083   3.176   1.844
 2235SOL    HW1 6721   2.018   3.103   1.823
 2235SOL    HW2 6722   2.087   3.190   1.942
 2236SOL     OW 6723   1.941   3.102   0.653
 2236SOL    HW1 6724   1.940   3.055   0.741
 2236SOL    HW2 6725   2.023   3.074   0.602
 2237SOL     OW 6726   2.534   3.253   1.624
 2237SOL    HW1 6727   2.456   3.203   1.662
 2237SOL    HW2 6728   2.531   3.348   1.655
 2238SOL     OW 6729   3.686   2.054   1.227
 2238SOL    HW1 6730   3.682   1.964   1.271
 2238SOL    HW2 6731   3.689   2.043   1.128
 2239SOL     OW 6732   2.290   2.286   0.520
 2239SOL    HW1 6733   2.320   2.214   0.458
 2239SOL    HW2 6734   2.251   2.246   0.603
 2240SOL     OW 6735   3.567   3.349   1.104
 2240SOL    HW1 6736   3.474   3.324   1.077
 2240SOL    HW2 6737   3.593   3.299   1.186
 2241SOL     OW 6738   2.179   2.409   1.280
 2241SOL    HW1 6739   2.217   2.350   1.352
 2241SOL    HW2 6740   2.219   2.383   1.192
 2242SOL     OW 6741   2.674   3.448   0.687
 2242SOL    HW1 6742   2.706   3.458   0.593
 2242SOL    HW2 6743   2.595   3.386   0.689
 2243SOL     OW 6744   3.286   2.076   1.112
 2243SOL    HW1 6745   3.338   2.011   1.167
 2243SOL    HW2 6746   3.237   2.139   1.173
 2244SOL     OW 6747   2.863   1.896   1.154
 2244SOL    HW1 6748   2.800   1.824   1.123
 2244SOL    HW2 6749   2.956   1.860   1.154
 2245SOL     OW 6750   2.632   3.192   0.301
 2245SOL    HW1 6751   2.586   3.105   0.318
 2245SOL    HW2 6752   2.723   3.189   0.342
 2246SOL     OW 6753   2.480   3.429   1.284
 2246SOL    HW1 6754   2.475   3.511   1.341
 2246SOL    HW2 6755   2.569   3.426   1.239
 2247SOL     OW 6756   3.214   1.914   0.168
 2247SOL    HW1 6757   3.249   1.873   0.084
 2247SOL    HW2 6758   3.124   1.876   0.188
 2248SOL     OW 6759   3.162   2.315   0.691
 2248SOL    HW1 6760   3.103   2.395   0.695
 2248SOL    HW2 6761   3.177   2.280   0.784
 2249SOL     OW 6762   3.455   2.083   0.882
 2249SOL    HW1 6763   3.371   2.082   0.936
 2249SOL    HW2 6764   3.457   2.166   0.826
 2250SOL     OW 6765   1.901   2.939   0.300
 2250SOL    HW1 6766   2.000   2.928   0.291
 2250SOL    HW2 6767   1.861   2.853   0.332
 2251SOL     OW 6768   2.737   3.508   0.337
 2251SOL    HW1 6769   2.660   3.473   0.283
 2251SOL    HW2 6770   2.705   3.579   0.399
 2252SOL     OW 6771   2.092   2.490   1.975
 2252SOL    HW1 6772   1.999   2.488   2.012
 2252SOL    HW2 6773   2.093   2.451   1.883
 2253SOL     OW 6774   2.087   2.137   2.858
 2253SOL    HW1 6775   2.122   2.120   2.950
 2253SOL    HW2 6776   1.999   2.092   2.846
 2254SOL     OW 6777   1.881   2.230   2.509
 2254SOL    HW1 6778   1.799   2.273   2.548
 2254SOL    HW2 6779   1.853   2.157   2.446
 2255SOL     OW 6780   2.431   3.137   3.027
 2255SOL    HW1 6781   2.338   3.130   2.990
 2255SOL    HW2 6782   2.442   3.226   3.071
 2256SOL     OW 6783   3.417   3.373   2.565
 2256SOL    HW1 6784   3.360   3.357   2.646
 2256SOL    HW2 6785   3.358   3.383   2.485
 2257SOL     OW 6786   2.997   2.565   2.579
 2257SOL    HW1 6787   3.054   2.643   2.554
 2257SOL    HW2 6788   2.937   2.591   2.655
 2258SOL     OW 6789   3.617   2.469   2.093
 2258SOL    HW1 6790   3.605   2.456   1.994
 2258SOL    HW2 6791   3.587   2.388   2.142
 2259SOL     OW 6792   2.630   3.006   2.885
 2259SOL    HW1 6793   2.552   3.023   2.945
 2259SOL    HW2 6794   2.664   3.093   2.849
 2260SOL     OW 6795   2.712   2.660   3.685
 2260SOL    HW1 6796   2.708   2.736   3.750
 2260SOL    HW2 6797   2.734   2.696   3.594
 2261SOL     OW 6798   2.547   2.874   2.527
 2261SOL    HW1 6799   2.616   2.858   2.597
 2261SOL    HW2 6800   2.474   2.931   2.565
 2262SOL     OW 6801   2.548   3.023   3.665
 2262SOL    HW1 6802   2.608   3.102   3.679
 2262SOL    HW2 6803   2.462   3.054   3.624
 2263SOL     OW 6804   2.197   3.297   2.923
 2263SOL    HW1 6805   2.119   3.266   2.870
 2263SOL    HW2 6806   2.255   3.355   2.866
 2264SOL     OW 6807   3.322   3.367   3.201
 2264SOL    HW1 6808   3.346   3.461   3.227
 2264SOL    HW2 6809   3.306   3.313   3.283
 2265SOL     OW 6810   2.300   2.254   3.361
 2265SOL    HW1 6811   2.382   2.198   3.370
 2265SOL    HW2 6812   2.219   2.196   3.365
 2266SOL     OW 6813   3.465   2.309   2.599
 2266SOL    HW1 6814   3.391   2.355   2.549
 2266SOL    HW2 6815   3.516   2.377   2.652
 2267SOL     OW 6816   2.093   3.575   2.345
 2267SOL    HW1 6817   2.127   3.652   2.399
 2267SOL    HW2 6818   2.137   3.575   2.255
 2268SOL     OW 6819   2.989   3.203   3.552
 2268SOL    HW1 6820   3.036   3.203   3.640
 2268SOL    HW2 6821   2.941   3.116   3.541
 2269SOL     OW 6822   2.092   3.296   2.400
 2269SOL    HW1 6823   2.066   3.392   2.400
 2269SOL    HW2 6824   2.021   3.242   2.445
 2270SOL     OW 6825   2.102   2.953   2.748
 2270SOL    HW1 6826   2.116   2.869   2.800
 2270SOL    HW2 6827   2.047   3.017   2.803
 2271SOL     OW 6828   2.482   3.648   3.301
 2271SOL    HW1 6829   2.390   3.631   3.336
 2271SOL    HW2 6830   2.510   3.740   3.327
 2272SOL     OW 6831   2.468   2.826   1.985
 2272SOL    HW1 6832   2.475   2.910   1.931
 2272SOL    HW2 6833   2.514   2.839   2.073
 2273SOL     OW 6834   3.456   1.976   3.342
 2273SOL    HW1 6835   3.438   2.043   3.270
 2273SOL    HW2 6836   3.453   2.022   3.431
 2274SOL     OW 6837   1.984   2.505   2.425
 2274SOL    HW1 6838   1.939   2.417   2.442
 2274SOL    HW2 6839   1.983   2.559   2.509
 2275SOL     OW 6840   3.704   3.629   2.221
 2275SOL    HW1 6841   3.758   3.600   2.301
 2275SOL    HW2 6842   3.734   3.719   2.192
 2276SOL     OW 6843   1.889   3.458   1.979
 2276SOL    HW1 6844   1.870   3.362   2.000
 2276SOL    HW2 6845   1.856   3.516   2.054
 2277SOL     OW 6846   3.551   2.784   2.474
 2277SOL    HW1 6847   3.646   2.755   2.482
 2277SOL    HW2 6848   3.543   2.849   2.399
 2278SOL     OW 6849   3.503   2.970   2.294
 2278SOL    HW1 6850   3.589   2.972   2.242
 2278SOL    HW2 6851   3.517   3.017   2.382
 2279SOL     OW 6852   1.975   2.599   3.459
 2279SOL    HW1 6853   2.063   2.586   3.504
 2279SOL    HW2 6854   1.962   2.696   3.437
 2280SOL     OW 6855   2.475   3.227   2.588
 2280SOL    HW1 6856   2.426   3.140   2.597
 2280SOL    HW2 6857   2.452   3.270   2.501
 2281SOL     OW 6858   3.155   3.090   3.285
 2281SOL    HW1 6859   3.192   3.017   3.227
 2281SOL    HW2 6860   3.207   3.095   3.370
 2282SOL     OW 6861   2.671   1.866   2.364
 2282SOL    HW1 6862   2.711   1.957   2.355
 2282SOL    HW2 6863   2.571   1.874   2.370
 2283SOL     OW 6864   2.059   2.838   3.126
 2283SOL    HW1 6865   2.148   2.793   3.112
 2283SOL    HW2 6866   1.986   2.773   3.107
 2284SOL     OW 6867   3.387   2.861   2.052
 2284SOL    HW1 6868   3.324   2.785   2.065
 2284SOL    HW2 6869   3.435   2.879   2.138
 2285SOL     OW 6870   3.049   3.654   3.478
 2285SOL    HW1 6871   3.073   3.714   3.402
 2285SOL    HW2 6872   3.056   3.559   3.448
 2286SOL     OW 6873   2.179   2.113   3.663
 2286SOL    HW1 6874   2.250   2.184   3.669
 2286SOL    HW2 6875   2.091   2.152   3.691
 2287SOL     OW 6876   3.328   3.279   2.815
 2287SOL    HW1 6877   3.269   3.285   2.895
 2287SOL    HW2 6878   3.313   3.191   2.769
 2288SOL     OW 6879   3.529   3.576   2.434
 2288SOL    HW1 6880   3.488   3.553   2.346
 2288SOL    HW2 6881   3.511   3.502   2.499
 2289SOL     OW 6882   2.460   2.591   2.132
 2289SOL    HW1 6883   2.484   2.660   2.064
 2289SOL    HW2 6884   2.382   2.624   2.186
 2290SOL     OW 6885   3.143   2.207   2.806
 2290SOL    HW1 6886   3.057   2.157   2.793
 2290SOL    HW2 6887   3.205   2.153   2.862
 2291SOL     OW 6888   3.438   3.524   2.169
 2291SOL    HW1 6889   3.527   3.570   2.172
 2291SOL    HW2 6890   3.417   3.500   2.074
 2292SOL     OW 6891   2.669   2.467   3.327
 2292SOL    HW1 6892   2.622   2.464   3.416
 2292SOL    HW2 6893   2.618   2.412   3.261
 2293SOL     OW 6894   3.256   2.331   3.536
 2293SOL    HW1 6895   3.236   2.374   3.624
 2293SOL    HW2 6896   3.334   2.269   3.545
 2294SOL     OW 6897   2.835   2.752   3.434
 2294SOL    HW1 6898   2.881   2.668   3.405
 2294SOL    HW2 6899   2.779   2.786   3.359
 2295SOL     OW 6900   2.853   2.272   3.104
 2295SOL    HW1 6901   2.776   2.306   3.158
 2295SOL    HW2 6902   2.819   2.221   3.025
 2296SOL     OW 6903   2.903   2.563   2.291
 2296SOL    HW1 6904   2.929   2.559   2.387
 2296SOL    HW2 6905   2.818   2.512   2.277
 2297SOL     OW 6906   1.938   2.673   2.651
 2297SOL    HW1 6907   2.037   2.661   2.660
 2297SOL    HW2 6908   1.914   2.768   2.672
 2298SOL     OW 6909   1.992   3.683   3.433
 2298SOL    HW1 6910   1.982   3.668   3.532
 2298SOL    HW2 6911   1.906   3.719   3.397
 2299SOL     OW 6912   2.727   2.210   2.057
 2299SOL    HW1 6913   2.786   2.273   2.008
 2299SOL    HW2 6914   2.746   2.116   2.028
 2300SOL     OW 6915   3.581   2.447   3.693
 2300SOL    HW1 6916   3.555   2.536   3.657
 2300SOL    HW2 6917   3.579   2.379   3.620
 2301SOL     OW 6918   3.224   3.006   2.407
 2301SOL    HW1 6919   3.307   2.977   2.359
 2301SOL    HW2 6920   3.175   3.073   2.351
 2302SOL     OW 6921   2.412   2.058   2.747
 2302SOL    HW1 6922   2.407   2.053   2.847
 2302SOL    HW2 6923   2.414   2.154   2.718
 2303SOL     OW 6924   2.870   3.318   2.339
 2303SOL    HW1 6925   2.824   3.390   2.287
 2303SOL    HW2 6926   2.866   3.338   2.437
 2304SOL     OW 6927   2.213   3.663   2.715
 2304SOL    HW1 6928   2.263   3.577   2.721
 2304SOL    HW2 6929   2.278   3.740   2.712
 2305SOL     OW 6930   3.657   2.928   2.735
 2305SOL    HW1 6931   3.595   2.913   2.659
 2305SOL    HW2 6932   3.605   2.939   2.820
 2306SOL     OW 6933   3.089   3.412   3.368
 2306SOL    HW1 6934   3.095   3.335   3.432
 2306SOL    HW2 6935   3.037   3.386   3.288
 2307SOL     OW 6936   2.183   2.805   2.104
 2307SOL    HW1 6937   2.265   2.844   2.062
 2307SOL    HW2 6938   2.156   2.723   2.055
 2308SOL     OW 6939   3.320   2.597   2.590
 2308SOL    HW1 6940   3.315   2.532   2.665
 2308SOL    HW2 6941   3.400   2.656   2.603
 2309SOL     OW 6942   2.323   3.128   3.589
 2309SOL    HW1 6943   2.273   3.129   3.503
 2309SOL    HW2 6944   2.260   3.110   3.665
 2310SOL     OW 6945   2.973   3.638   2.099
 2310SOL    HW1 6946   2.913   3.576   2.149
 2310SOL    HW2 6947   3.004   3.594   2.014
 2311SOL     OW 6948   2.064   2.147   3.360
 2311SOL    HW1 6949   1.984   2.207   3.347
 2311SOL    HW2 6950   2.054   2.098   3.446
 2312SOL     OW 6951   3.494   3.239   1.943
 2312SOL    HW1 6952   3.462   3.333   1.933
 2312SOL    HW2 6953   3.418   3.176   1.931
 2313SOL     OW 6954   2.326   3.605   2.185
 2313SOL    HW1 6955   2.359   3.644   2.271
 2313SOL    HW2 6956   2.402   3.598   2.120
 2314SOL     OW 6957   3.262   1.969   2.288
 2314SOL    HW1 6958   3.238   1.932   2.198
 2314SOL    HW2 6959   3.361   1.985   2.292
 2315SOL     OW 6960   2.111   3.647   3.103
 2315SOL    HW1 6961   2.168   3.582   3.153
 2315SOL    HW2 6962   2.095   3.614   3.010
 2316SOL     OW 6963   2.802   3.560   2.766
 2316SOL    HW1 6964   2.882   3.503   2.787
 2316SOL    HW2 6965   2.753   3.520   2.689
 2317SOL     OW 6966   3.409   2.084   3.591
 2317SOL    HW1 6967   3.404   2.121   3.683
 2317SOL    HW2 6968   3.337   2.015   3.579
 2318SOL     OW 6969   2.476   1.984   1.979
 2318SOL    HW1 6970   2.574   1.962   1.986
 2318SOL    HW2 6971   2.445   1.967   1.886
 2319SOL     OW 6972   2.643   2.126   3.611
 2319SOL    HW1 6973   2.710   2.065   3.654
 2319SOL    HW2 6974   2.570   2.145   3.676
 2320SOL     OW 6975   2.750   3.376   3.057
 2320SOL    HW1 6976   2.727   3.351   2.963
 2320SOL    HW2 6977   2.811   3.307   3.096
 2321SOL     OW 6978   3.213   2.452   3.295
 2321SOL    HW1 6979   3.241   2.409   3.380
 2321SOL    HW2 6980   3.238   2.548   3.296
 2322SOL     OW 6981   2.665   3.264   2.786
 2322SOL    HW1 6982   2.755   3.278   2.744
 2322SOL    HW2 6983   2.594   3.266   2.715
 2323SOL     OW 6984   2.784   2.365   2.761
 2323SOL    HW1 6985   2.759   2.356   2.665
 2323SOL    HW2 6986   2.832   2.283   2.792
 2324SOL     OW 6987   2.401   1.926   2.374
 2324SOL    HW1 6988   2.320   1.927   2.432
 2324SOL    HW2 6989   2.404   2.009   2.319
 2325SOL     OW 6990   3.296   3.050   1.903
 2325SOL    HW1 6991   3.328   2.974   1.960
 2325SOL    HW2 6992   3.204   3.077   1.933
 2326SOL     OW 6993   2.159   1.897   2.033
 2326SOL    HW1 6994   2.208   1.981   2.012
 2326SOL    HW2 6995   2.221   1.832   2.078
 2327SOL     OW 6996   2.938   2.545   3.326
 2327SOL    HW1 6997   2.858   2.484   3.329
 2327SOL    HW2 6998   3.019   2.492   3.302
 2328SOL     OW 6999   3.089   3.432   2.655
 2328SOL    HW1 7000   3.110   3.506   2.590
 2328SOL    HW2 7001   3.157   3.432   2.728
 2329SOL     OW 7002   2.321   3.014   2.603
 2329SOL    HW1 7003   2.250   2.987   2.668
 2329SOL    HW2 7004   2.295   2.986   2.510
 2330SOL     OW 7005   3.133   3.659   2.453
 2330SOL    HW1 7006   3.177   3.723   2.389
 2330SOL    HW2 7007   3.083   3.711   2.523
 2331SOL     OW 7008   2.894   2.411   1.878
 2331SOL    HW1 7009   2.853   2.493   1.839
 2331SOL    HW2 7010   2.958   2.437   1.951
 2332SOL     OW 7011   1.940   2.418   3.248
 2332SOL    HW1 7012   2.032   2.417   3.207
 2332SOL    HW2 7013   1.934   2.492   3.315
 2333SOL     OW 7014   2.423   2.084   3.009
 2333SOL    HW1 7015   2.461   2.000   3.046
 2333SOL    HW2 7016   2.335   2.103   3.053
 2334SOL     OW 7017   2.879   1.901   2.615
 2334SOL    HW1 7018   2.807   1.906   2.546
 2334SOL    HW2 7019   2.855   1.832   2.684
 2335SOL     OW 7020   3.291   3.035   2.729
 2335SOL    HW1 7021   3.236   2.951   2.722
 2335SOL    HW2 7022   3.317   3.064   2.637
 2336SOL     OW 7023   3.328   2.452   2.854
 2336SOL    HW1 7024   3.298   2.357   2.861
 2336SOL    HW2 7025   3.401   2.468   2.920
 2337SOL     OW 7026   3.719   2.695   2.239
 2337SOL    HW1 7027   3.761   2.631   2.303
 2337SOL    HW2 7028   3.681   2.644   2.161
 2338SOL     OW 7029   2.350   3.247   2.036
 2338SOL    HW1 7030   2.263   3.232   2.083
 2338SOL    HW2 7031   2.333   3.273   1.941
 2339SOL     OW 7032   3.526   3.142   2.519
 2339SOL    HW1 7033   3.625   3.150   2.533
 2339SOL    HW2 7034   3.481   3.226   2.550
 2340SOL     OW 7035   3.252   2.437   1.940
 2340SOL    HW1 7036   3.198   2.416   2.021
 2340SOL    HW2 7037   3.343   2.396   1.949
 2341SOL     OW 7038   3.616   3.085   3.450
 2341SOL    HW1 7039   3.707   3.046   3.437
 2341SOL    HW2 7040   3.624   3.181   3.474
 2342SOL     OW 7041   2.926   3.209   3.202
 2342SOL    HW1 7042   2.846   3.186   3.257
 2342SOL    HW2 7043   3.009   3.183   3.251
 2343SOL     OW 7044   3.454   3.491   3.487
 2343SOL    HW1 7045   3.481   3.525   3.397
 2343SOL    HW2 7046   3.533   3.453   3.533
 2344SOL     OW 7047   2.973   3.057   2.962
 2344SOL    HW1 7048   2.933   3.101   3.043
 2344SOL    HW2 7049   2.932   3.094   2.879
 2345SOL     OW 7050   3.500   2.961   2.941
 2345SOL    HW1 7051   3.505   3.042   3.000
 2345SOL    HW2 7052   3.414   2.963   2.890
 2346SOL     OW 7053   2.777   1.951   3.264
 2346SOL    HW1 7054   2.802   1.931   3.169
 2346SOL    HW2 7055   2.849   2.007   3.306
 2347SOL     OW 7056   2.842   2.978   3.581
 2347SOL    HW1 7057   2.743   2.984   3.591
 2347SOL    HW2 7058   2.865   2.898   3.525
 2348SOL     OW 7059   2.567   2.912   2.230
 2348SOL    HW1 7060   2.553   2.919   2.329
 2348SOL    HW2 7061   2.651   2.861   2.212
 2349SOL     OW 7062   2.272   2.675   3.113
 2349SOL    HW1 7063   2.358   2.687   3.163
 2349SOL    HW2 7064   2.230   2.588   3.140
 2350SOL     OW 7065   3.136   2.248   3.124
 2350SOL    HW1 7066   3.157   2.322   3.188
 2350SOL    HW2 7067   3.047   2.265   3.081
 2351SOL     OW 7068   1.926   3.426   3.193
 2351SOL    HW1 7069   1.880   3.508   3.159
 2351SOL    HW2 7070   2.024   3.445   3.202
 2352SOL     OW 7071   2.229   2.962   2.363
 2352SOL    HW1 7072   2.222   3.045   2.307
 2352SOL    HW2 7073   2.233   2.882   2.303
 2353SOL     OW 7074   3.114   3.210   2.250
 2353SOL    HW1 7075   3.164   3.287   2.290
 2353SOL    HW2 7076   3.019   3.212   2.282
 2354SOL     OW 7077   3.134   3.307   3.004
 2354SOL    HW1 7078   3.181   3.320   3.091
 2354SOL    HW2 7079   3.068   3.233   3.013
 2355SOL     OW 7080   3.444   2.501   2.334
 2355SOL    HW1 7081   3.413   2.562   2.407
 2355SOL    HW2 7082   3.494   2.553   2.265
 2356SOL     OW 7083   2.216   3.372   3.191
 2356SOL    HW1 7084   2.195   3.328   3.104
 2356SOL    HW2 7085   2.313   3.398   3.194
 2357SOL     OW 7086   2.264   2.613   3.460
 2357SOL    HW1 7087   2.332   2.668   3.413
 2357SOL    HW2 7088   2.304   2.525   3.487
 2358SOL     OW 7089   3.449   2.641   3.532
 2358SOL    HW1 7090   3.357   2.679   3.527
 2358SOL    HW2 7091   3.509   2.688   3.467
 2359SOL     OW 7092   2.875   1.967   3.632
 2359SOL    HW1 7093   2.881   2.052   3.580
 2359SOL    HW2 7094   2.907   1.891   3.575
 2360SOL     OW 7095   2.366   1.912   3.602
 2360SOL    HW1 7096   2.324   1.855   3.532
 2360SOL    HW2 7097   2.300   1.981   3.634
 2361SOL     OW 7098   2.435   2.732   2.891
 2361SOL    HW1 7099   2.479   2.821   2.882
 2361SOL    HW2 7100   2.372   2.732   2.968
 2362SOL     OW 7101   3.222   2.724   2.907
 2362SOL    HW1 7102   3.147   2.724   2.841
 2362SOL    HW2 7103   3.259   2.632   2.916
 2363SOL     OW 7104   3.071   2.387   2.137
 2363SOL    HW1 7105   3.084   2.303   2.191
 2363SOL    HW2 7106   3.042   2.461   2.197
 2364SOL     OW 7107   2.169   2.075   3.093
 2364SOL    HW1 7108   2.146   2.112   3.183
 2364SOL    HW2 7109   2.139   1.980   3.087
 2365SOL     OW 7110   1.899   3.172   3.144
 2365SOL    HW1 7111   1.952   3.123   3.212
 2365SOL    HW2 7112   1.921   3.270   3.149
 2366SOL     OW 7113   2.594   2.496   2.926
 2366SOL    HW1 7114   2.653   2.470   2.850
 2366SOL    HW2 7115   2.566   2.592   2.915
 2367SOL     OW 7116   3.590   2.797   3.716
 2367SOL    HW1 7117   3.544   2.790   3.627
 2367SOL    HW2 7118   3.528   2.841   3.782
 2368SOL     OW 7119   2.169   1.925   2.480
 2368SOL    HW1 7120   2.158   2.019   2.513
 2368SOL    HW2 7121   2.164   1.862   2.557
 2369SOL     OW 7122   3.484   2.229   2.236
 2369SOL    HW1 7123   3.486   2.153   2.300
 2369SOL    HW2 7124   3.436   2.306   2.276
 2370SOL     OW 7125   2.885   2.628   2.828
 2370SOL    HW1 7126   2.900   2.649   2.924
 2370SOL    HW2 7127   2.855   2.533   2.819
 2371SOL     OW 7128   2.842   3.435   3.562
 2371SOL    HW1 7129   2.822   3.479   3.474
 2371SOL    HW2 7130   2.881   3.344   3.546
 2372SOL     OW 7131   3.721   3.380   3.467
 2372SOL    HW1 7132   3.735   3.407   3.372
 2372SOL    HW2 7133   3.804   3.402   3.520
 2373SOL     OW 7134   2.212   2.760   3.666
 2373SOL    HW1 7135   2.288   2.804   3.714
 2373SOL    HW2 7136   2.247   2.713   3.584
 2374SOL     OW 7137   3.402   2.136   1.987
 2374SOL    HW1 7138   3.341   2.061   2.010
 2374SOL    HW2 7139   3.424   2.188   2.070
 2375SOL     OW 7140   3.165   2.700   1.904
 2375SOL    HW1 7141   3.199   2.607   1.919
 2375SOL    HW2 7142   3.183   2.727   1.809
 2376SOL     OW 7143   2.930   3.195   2.711
 2376SOL    HW1 7144   2.937   3.111   2.656
 2376SOL    HW2 7145   2.992   3.264   2.675
 2377SOL     OW 7146   2.181   2.672   2.811
 2377SOL    HW1 7147   2.274   2.708   2.816
 2377SOL    HW2 7148   2.175   2.587   2.863
 2378SOL     OW 7149   2.201   2.371   2.868
 2378SOL    HW1 7150   2.149   2.288   2.851
 2378SOL    HW2 7151   2.278   2.376   2.804
 2379SOL     OW 7152   3.000   2.242   3.540
 2379SOL    HW1 7153   2.955   2.305   3.604
 2379SOL    HW2 7154   3.093   2.273   3.523
 2380SOL     OW 7155   3.022   2.069   3.339
 2380SOL    HW1 7156   3.022   2.133   3.416
 2380SOL    HW2 7157   3.050   2.117   3.256
 2381SOL     OW 7158   1.870   3.188   2.062
 2381SOL    HW1 7159   1.777   3.209   2.031
 2381SOL    HW2 7160   1.880   3.089   2.075
 2382SOL     OW 7161   1.950   3.663   2.789
 2382SOL    HW1 7162   1.908   3.577   2.762
 2382SOL    HW2 7163   2.044   3.666   2.755
 2383SOL     OW 7164   2.366   3.430   2.772
 2383SOL    HW1 7165   2.432   3.504   2.781
 2383SOL    HW2 7166   2.410   3.351   2.730
 2384SOL     OW 7167   2.864   2.658   3.100
 2384SOL    HW1 7168   2.905   2.626   3.186
 2384SOL    HW2 7169   2.768   2.631   3.097
 2385SOL     OW 7170   1.902   2.406   2.976
 2385SOL    HW1 7171   1.987   2.373   2.935
 2385SOL    HW2 7172   1.915   2.421   3.074
 2386SOL     OW 7173   2.051   2.382   3.584
 2386SOL    HW1 7174   2.110   2.342   3.514
 2386SOL    HW2 7175   1.993   2.453   3.543
 2387SOL     OW 7176   3.231   2.812   3.522
 2387SOL    HW1 7177   3.270   2.901   3.542
 2387SOL    HW2 7178   3.241   2.792   3.425
 2388SOL     OW 7179   3.519   2.466   3.068
 2388SOL    HW1 7180   3.481   2.397   3.130
 2388SOL    HW2 7181   3.601   2.430   3.024
 2389SOL     OW 7182   2.114   3.426   3.606
 2389SOL    HW1 7183   2.084   3.483   3.682
 2389SOL    HW2 7184   2.107   3.329   3.632
 2390SOL     OW 7185   2.533   2.326   3.131
 2390SOL    HW1 7186   2.499   2.237   3.101
 2390SOL    HW2 7187   2.559   2.380   3.051
 2391SOL     OW 7188   2.792   3.540   3.327
 2391SOL    HW1 7189   2.768   3.522   3.232
 2391SOL    HW2 7190   2.822   3.634   3.337
 2392SOL     OW 7191   2.335   2.362   2.053
 2392SOL    HW1 7192   2.396   2.442   2.057
 2392SOL    HW2 7193   2.240   2.393   2.060
 2393SOL     OW 7194   2.021   2.999   3.328
 2393SOL    HW1 7195   2.043   2.938   3.404
 2393SOL    HW2 7196   2.031   2.950   3.242
 2394SOL     OW 7197   3.209   2.921   3.096
 2394SOL    HW1 7198   3.233   2.858   3.022
 2394SOL    HW2 7199   3.119   2.961   3.078
 2395SOL     OW 7200   3.164   2.717   2.171
 2395SOL    HW1 7201   3.078   2.686   2.213
 2395SOL    HW2 7202   3.160   2.703   2.072
 2396SOL     OW 7203   3.621   3.609   3.016
 2396SOL    HW1 7204   3.682   3.639   2.943
 2396SOL    HW2 7205   3.583   3.520   2.994
 2397SOL     OW 7206   3.114   3.593   2.990
 2397SOL    HW1 7207   3.198   3.598   2.936
 2397SOL    HW2 7208   3.091   3.497   3.008
 2398SOL     OW 7209   1.945   3.120   2.884
 2398SOL    HW1 7210   1.940   3.119   2.984
 2398SOL    HW2 7211   1.862   3.079   2.846
 2399SOL     OW 7212   2.550   3.524   3.578
 2399SOL    HW1 7213   2.494   3.605   3.587
 2399SOL    HW2 7214   2.602   3.528   3.492
 2400SOL     OW 7215   3.588   1.997   2.385
 2400SOL    HW1 7216   3.661   1.980   2.318
 2400SOL    HW2 7217   3.557   1.910   2.423
 2401SOL     OW 7218   3.250   3.435   2.339
 2401SOL    HW1 7219   3.317   3.447   2.265
 2401SOL    HW2 7220   3.210   3.524   2.362
 2402SOL     OW 7221   1.992   3.656   3.713
 2402SOL    HW1 7222   1.951   3.582   3.766
 2402SOL    HW2 7223   2.056   3.707   3.771
 2403SOL     OW 7224   3.142   2.789   2.534
 2403SOL    HW1 7225   3.202   2.708   2.536
 2403SOL    HW2 7226   3.182   2.858   2.474
 2404SOL     OW 7227   2.692   3.135   3.284
 2404SOL    HW1 7228   2.687   3.168   3.379
 2404SOL    HW2 7229   2.606   3.154   3.238
 2405SOL     OW 7230   2.534   3.478   2.016
 2405SOL    HW1 7231   2.543   3.488   1.917
 2405SOL    HW2 7232   2.494   3.389   2.037
 2406SOL     OW 7233   3.512   3.582   3.256
 2406SOL    HW1 7234   3.565   3.592   3.172
 2406SOL    HW2 7235   3.485   3.672   3.290
 2407SOL     OW 7236   3.703   2.037   2.825
 2407SOL    HW1 7237   3.742   1.952   2.789
 2407SOL    HW2 7238   3.605   2.039   2.806
 2408SOL     OW 7239   2.125   2.188   2.582
 2408SOL    HW1 7240   2.046   2.239   2.548
 2408SOL    HW2 7241   2.116   2.173   2.680
 2409SOL     OW 7242   3.056   3.474   1.893
 2409SOL    HW1 7243   3.062   3.381   1.930
 2409SOL    HW2 7244   2.997   3.474   1.813
 2410SOL     OW 7245   2.684   2.864   3.234
 2410SOL    HW1 7246   2.724   2.863   3.142
 2410SOL    HW2 7247   2.694   2.956   3.274
 2411SOL     OW 7248   2.778   2.772   2.153
 2411SOL    HW1 7249   2.841   2.810   2.085
 2411SOL    HW2 7250   2.818   2.689   2.192
 2412SOL     OW 7251   3.366   3.469   1.906
 2412SOL    HW1 7252   3.274   3.506   1.913
 2412SOL    HW2 7253   3.404   3.489   1.816
 2413SOL     OW 7254   2.234   3.150   3.352
 2413SOL    HW1 7255   2.221   3.243   3.318
 2413SOL    HW2 7256   2.150   3.098   3.339
 2414SOL     OW 7257   3.476   3.154   3.151
 2414SOL    HW1 7258   3.536   3.157   3.231
 2414SOL    HW2 7259   3.401   3.218   3.164
 2415SOL     OW 7260   2.901   2.960   2.558
 2415SOL    HW1 7261   2.831   2.913   2.612
 2415SOL    HW2 7262   2.960   2.892   2.515
 2416SOL     OW 7263   2.876   2.098   2.833
 2416SOL    HW1 7264   2.868   2.062   2.740
 2416SOL    HW2 7265   2.874   2.022   2.898
 2417SOL     OW 7266   2.452   3.349   2.353
 2417SOL    HW1 7267   2.494   3.291   2.283
 2417SOL    HW2 7268   2.408   3.428   2.309
 2418SOL     OW 7269   3.571   2.247   3.243
 2418SOL    HW1 7270   3.644   2.316   3.247
 2418SOL    HW2 7271   3.599   2.172   3.184
 2419SOL     OW 7272   2.117   3.210   2.152
 2419SOL    HW1 7273   2.021   3.211   2.125
 2419SOL    HW2 7274   2.129   3.263   2.236
 2420SOL     OW 7275   1.967   2.875   3.588
 2420SOL    HW1 7276   1.890   2.842   3.642
 2420SOL    HW2 7277   2.052   2.845   3.630
 2421SOL     OW 7278   2.534   2.065   3.351
 2421SOL    HW1 7279   2.624   2.049   3.311
 2421SOL    HW2 7280   2.542   2.070   3.450
 2422SOL     OW 7281   1.937   2.207   1.895
 2422SOL    HW1 7282   1.845   2.179   1.866
 2422SOL    HW2 7283   1.968   2.284   1.839
 2423SOL     OW 7284   3.302   2.718   3.260
 2423SOL    HW1 7285   3.245   2.770   3.197
 2423SOL    HW2 7286   3.398   2.730   3.236
 2424SOL     OW 7287   1.934   2.028   2.180
 2424SOL    HW1 7288   1.917   2.111   2.126
 2424SOL    HW2 7289   2.024   1.991   2.158
 2425SOL     OW 7290   3.045   3.197   1.981
 2425SOL    HW1 7291   2.946   3.186   1.983
 2425SOL    HW2 7292   3.079   3.212   2.074
 2426SOL     OW 7293   2.475   2.704   3.293
 2426SOL    HW1 7294   2.531   2.785   3.276
 2426SOL    HW2 7295   2.534   2.624   3.296
 2427SOL     OW 7296   3.355   3.629   2.821
 2427SOL    HW1 7297   3.388   3.693   2.752
 2427SOL    HW2 7298   3.421   3.623   2.896
 2428SOL     OW 7299   2.578   2.427   3.570
 2428SOL    HW1 7300   2.597   2.492   3.644
 2428SOL    HW2 7301   2.638   2.347   3.579
 2429SOL     OW 7302   3.312   3.082   3.495
 2429SOL    HW1 7303   3.303   3.072   3.594
 2429SOL    HW2 7304   3.408   3.075   3.469
 2430SOL     OW 7305   2.252   3.603   3.422
 2430SOL    HW1 7306   2.161   3.644   3.420
 2430SOL    HW2 7307   2.245   3.509   3.454
 2431SOL     OW 7308   3.536   2.745   3.116
 2431SOL    HW1 7309   3.509   2.656   3.079
 2431SOL    HW2 7310   3.537   2.813   3.043
 2432SOL     OW 7311   3.087   2.187   2.311
 2432SOL    HW1 7312   3.152   2.113   2.300
 2432SOL    HW2 7313   3.107   2.237   2.395
 2433SOL     OW 7314   3.639   2.204   3.504
 2433SOL    HW1 7315   3.622   2.235   3.410
 2433SOL    HW2 7316   3.555   2.167   3.542
 2434SOL     OW 7317   3.592   2.796   3.379
 2434SOL    HW1 7318   3.630   2.887   3.394
 2434SOL    HW2 7319   3.584   2.779   3.280
 2435SOL     OW 7320   2.721   3.236   1.878
 2435SOL    HW1 7321   2.675   3.251   1.966
 2435SOL    HW2 7322   2.765   3.321   1.848
 2436SOL     OW 7323   2.523   3.652   2.815
 2436SOL    HW1 7324   2.477   3.740   2.802
 2436SOL    HW2 7325   2.622   3.664   2.808
 2437SOL     OW 7326   2.721   2.818   2.723
 2437SOL    HW1 7327   2.775   2.749   2.771
 2437SOL    HW2 7328   2.689   2.887   2.789
 2438SOL     OW 7329   2.945   2.846   1.949
 2438SOL    HW1 7330   2.922   2.899   1.867
 2438SOL    HW2 7331   3.026   2.790   1.930
 2439SOL     OW 7332   3.723   3.431   2.713
 2439SOL    HW1 7333   3.652   3.419   2.643
 2439SOL    HW2 7334   3.724   3.352   2.773
 2440SOL     OW 7335   2.083   3.176   3.706
 2440SOL    HW1 7336   2.018   3.103   3.685
 2440SOL    HW2 7337   2.087   3.190   3.804
 2441SOL     OW 7338   1.941   3.102   2.515
 2441SOL    HW1 7339   1.940   3.055   2.603
 2441SOL    HW2 7340   2.023   3.074   2.464
 2442SOL     OW 7341   2.534   3.253   3.486
 2442SOL    HW1 7342   2.456   3.203   3.524
 2442SOL    HW2 7343   2.531   3.348   3.517
 2443SOL     OW 7344   3.686   2.054   3.089
 2443SOL    HW1 7345   3.682   1.964   3.133
 2443SOL    HW2 7346   3.689   2.043   2.990
 2444SOL     OW 7347   3.567   3.349   2.966
 2444SOL    HW1 7348   3.474   3.324   2.939
 2444SOL    HW2 7349   3.593   3.299   3.048
 2445SOL     OW 7350   2.179   2.409   3.142
 2445SOL    HW1 7351   2.217   2.350   3.214
 2445SOL    HW2 7352   2.219   2.383   3.054
 2446SOL     OW 7353   2.674   3.448   2.549
 2446SOL    HW1 7354   2.706   3.458   2.455
 2446SOL    HW2 7355   2.595   3.386   2.551
 2447SOL     OW 7356   3.286   2.076   2.974
 2447SOL    HW1 7357   3.338   2.011   3.029
 2447SOL    HW2 7358   3.237   2.139   3.035
 2448SOL     OW 7359   2.863   1.896   3.016
 2448SOL    HW1 7360   2.800   1.824   2.985
 2448SOL    HW2 7361   2.956   1.860   3.016
 2449SOL     OW 7362   2.632   3.192   2.163
 2449SOL    HW1 7363   2.586   3.105   2.180
 2449SOL    HW2 7364   2.723   3.189   2.204
 2450SOL     OW 7365   2.480   3.429   3.146
 2450SOL    HW1 7366   2.475   3.511   3.203
 2450SOL    HW2 7367   2.569   3.426   3.101
 2451SOL     OW 7368   3.214   1.914   2.030
 2451SOL    HW1 7369   3.249   1.873   1.946
 2451SOL    HW2 7370   3.124   1.876   2.050
 2452SOL     OW 7371   3.162   2.315   2.553
 2452SOL    HW1 7372   3.103   2.395   2.557
 2452SOL    HW2 7373   3.177   2.280   2.646
 2453SOL     OW 7374   3.455   2.083   2.744
 2453SOL    HW1 7375   3.371   2.082   2.798
 2453SOL    HW2 7376   3.457   2.166   2.688
 2454SOL     OW 7377   1.901   2.939   2.162
 2454SOL    HW1 7378   2.000   2.928   2.153
 2454SOL    HW2 7379   1.861   2.853   2.194
 2455SOL     OW 7380   2.737   3.508   2.199
 2455SOL    HW1 7381   2.660   3.473   2.145
 2455SOL    HW2 7382   2.705   3.579   2.261
 2456SOL     OW 7383   2.092   2.490   3.837
 2456SOL    HW1 7384   1.999   2.488   3.874
 2456SOL    HW2 7385   2.093   2.451   3.745
 2457SOL     OW 7386   2.087   2.137   4.720
 2457SOL    HW1 7387   2.122   2.120   4.812
 2457SOL    HW2 7388   1.999   2.092   4.708
 2458SOL     OW 7389   1.881   2.230   4.371
 2458SOL    HW1 7390   1.799   2.273   4.410
 2458SOL    HW2 7391   1.853   2.157   4.308
 2459SOL     OW 7392   3.417   3.373   4.427
 2459SOL    HW1 7393   3.360   3.357   4.508
 2459SOL    HW2 7394   3.358   3.383   4.347
 2460SOL     OW 7395   2.997   2.565   4.441
 2460SOL    HW1 7396   3.054   2.643   4.416
 2460SOL    HW2 7397   2.937   2.591   4.517
 2461SOL     OW 7398   3.617   2.469   3.955
 2461SOL    HW1 7399   3.605   2.456   3.856
 2461SOL    HW2 7400   3.587   2.388   4.004
 2462SOL     OW 7401   2.630   3.006   4.747
 2462SOL    HW1 7402   2.552   3.023   4.807
 2462SOL    HW2 7403   2.664   3.093   4.711
 2463SOL     OW 7404   2.547   2.874   4.389
 2463SOL    HW1 7405   2.616   2.858   4.459
 2463SOL    HW2 7406   2.474   2.931   4.427
 2464SOL     OW 7407   2.197   3.297   4.785
 2464SOL    HW1 7408   2.119   3.266   4.732
 2464SOL    HW2 7409   2.255   3.355   4.728
 2465SOL     OW 7410   3.465   2.309   4.461
 2465SOL    HW1 7411   3.391   2.355   4.411
 2465SOL    HW2 7412   3.516   2.377   4.514
 2466SOL     OW 7413   2.093   3.575   4.207
 2466SOL    HW1 7414   2.127   3.652   4.261
 2466SOL    HW2 7415   2.137   3.575   4.117
 2467SOL     OW 7416   2.092   3.296   4.262
 2467SOL    HW1 7417   2.066   3.392   4.262
 2467SOL    HW2 7418   2.021   3.242   4.307
 2468SOL     OW 7419   2.102   2.953   4.610
 2468SOL    HW1 7420   2.116   2.869   4.662
 2468SOL    HW2 7421   2.047   3.017   4.665
 2469SOL     OW 7422   2.468   2.826   3.847
 2469SOL    HW1 7423   2.475   2.910   3.793
 2469SOL    HW2 7424   2.514   2.839   3.935
 2470SOL     OW 7425   1.984   2.505   4.287
 2470SOL    HW1 7426   1.939   2.417   4.304
 2470SOL    HW2 7427   1.983   2.559   4.371
 2471SOL     OW 7428   3.704   3.629   4.083
 2471SOL    HW1 7429   3.758   3.600   4.163
 2471SOL    HW2 7430   3.734   3.719   4.054
 2472SOL     OW 7431   1.889   3.458   3.841
 2472SOL    HW1 7432   1.870   3.362   3.862
 2472SOL    HW2 7433   1.856   3.516   3.916
 2473SOL     OW 7434   3.551   2.784   4.336
 2473SOL    HW1 7435   3.646   2.755   4.344
 2473SOL    HW2 7436   3.543   2.849   4.261
 2474SOL     OW 7437   3.503   2.970   4.156
 2474SOL    HW1 7438   3.589   2.972   4.104
 2474SOL    HW2 7439   3.517   3.017   4.244
 2475SOL     OW 7440   2.475   3.227   4.450
 2475SOL    HW1 7441   2.426   3.140   4.459
 2475SOL    HW2 7442   2.452   3.270   4.363
 2476SOL     OW 7443   2.671   1.866   4.226
 2476SOL    HW1 7444   2.711   1.957   4.217
 2476SOL    HW2 7445   2.571   1.874   4.232
 2477SOL     OW 7446   2.059   2.838   4.988
 2477SOL    HW1 7447   2.148   2.793   4.974
 2477SOL    HW2 7448   1.986   2.773   4.969
 2478SOL     OW 7449   3.387   2.861   3.914
 2478SOL    HW1 7450   3.324   2.785   3.927
 2478SOL    HW2 7451   3.435   2.879   4.000
 2479SOL     OW 7452   3.328   3.279   4.677
 2479SOL    HW1 7453   3.269   3.285   4.757
 2479SOL    HW2 7454   3.313   3.191   4.631
 2480SOL     OW 7455   3.529   3.576   4.296
 2480SOL    HW1 7456   3.488   3.553   4.208
 2480SOL    HW2 7457   3.511   3.502   4.361
 2481SOL     OW 7458   2.460   2.591   3.994
 2481SOL    HW1 7459   2.484   2.660   3.926
 2481SOL    HW2 7460   2.382   2.624   4.048
 2482SOL     OW 7461   3.143   2.207   4.668
 2482SOL    HW1 7462   3.057   2.157   4.655
 2482SOL    HW2 7463   3.205   2.153   4.724
 2483SOL     OW 7464   3.438   3.524   4.031
 2483SOL    HW1 7465   3.527   3.570   4.034
 2483SOL    HW2 7466   3.417   3.500   3.936
 2484SOL     OW 7467   2.903   2.563   4.153
 2484SOL    HW1 7468   2.929   2.559   4.249
 2484SOL    HW2 7469   2.818   2.512   4.139
 2485SOL     OW 7470   1.938   2.673   4.513
 2485SOL    HW1 7471   2.037   2.661   4.522
 2485SOL    HW2 7472   1.914   2.768   4.534
 2486SOL     OW 7473   2.727   2.210   3.919
 2486SOL    HW1 7474   2.786   2.273   3.870
 2486SOL    HW2 7475   2.746   2.116   3.890
 2487SOL     OW 7476   3.224   3.006   4.269
 2487SOL    HW1 7477   3.307   2.977   4.221
 2487SOL    HW2 7478   3.175   3.073   4.213
 2488SOL     OW 7479   2.412   2.058   4.609
 2488SOL    HW1 7480   2.407   2.053   4.709
 2488SOL    HW2 7481   2.414   2.154   4.580
 2489SOL     OW 7482   2.870   3.318   4.201
 2489SOL    HW1 7483   2.824   3.390   4.149
 2489SOL    HW2 7484   2.866   3.338   4.299
 2490SOL     OW 7485   2.213   3.663   4.577
 2490SOL    HW1 7486   2.263   3.577   4.583
 2490SOL    HW2 7487   2.278   3.740   4.574
 2491SOL     OW 7488   3.657   2.928   4.597
 2491SOL    HW1 7489   3.595   2.913   4.521
 2491SOL    HW2 7490   3.605   2.939   4.682
 2492SOL     OW 7491   2.183   2.805   3.966
 2492SOL    HW1 7492   2.265   2.844   3.924
 2492SOL    HW2 7493   2.156   2.723   3.917
 2493SOL     OW 7494   3.320   2.597   4.452
 2493SOL    HW1 7495   3.315   2.532   4.527
 2493SOL    HW2 7496   3.400   2.656   4.465
 2494SOL     OW 7497   2.973   3.638   3.961
 2494SOL    HW1 7498   2.913   3.576   4.011
 2494SOL    HW2 7499   3.004   3.594   3.876
 2495SOL     OW 7500   3.494   3.239   3.805
 2495SOL    HW1 7501   3.462   3.333   3.795
 2495SOL    HW2 7502   3.418   3.176   3.793
 2496SOL     OW 7503   2.326   3.605   4.047
 2496SOL    HW1 7504   2.359   3.644   4.133
 2496SOL    HW2 7505   2.402   3.598   3.982
 2497SOL     OW 7506   3.262   1.969   4.150
 2497SOL    HW1 7507   3.238   1.932   4.060
 2497SOL    HW2 7508   3.361   1.985   4.154
 2498SOL     OW 7509   2.111   3.647   4.965
 2498SOL    HW1 7510   2.168   3.582   5.015
 2498SOL    HW2 7511   2.095   3.614   4.872
 2499SOL     OW 7512   2.802   3.560   4.628
 2499SOL    HW1 7513   2.882   3.503   4.649
 2499SOL    HW2 7514   2.753   3.520   4.551
 2500SOL     OW 7515   2.244   2.562   4.204
 2500SOL    HW1 7516   2.289   2.472   4.201
 2500SOL    HW2 7517   2.150   2.551   4.237
 2501SOL     OW 7518   2.476   1.984   3.841
 2501SOL    HW1 7519   2.574   1.962   3.848
 2501SOL    HW2 7520   2.445   1.967   3.748
 2502SOL     OW 7521   2.665   3.264   4.648
 2502SOL    HW1 7522   2.755   3.278   4.606
 2502SOL    HW2 7523   2.594   3.266   4.577
 2503SOL     OW 7524   2.784   2.365   4.623
 2503SOL    HW1 7525   2.759   2.356   4.527
 2503SOL    HW2 7526   2.832   2.283   4.654
 2504SOL     OW 7527   2.401   1.926   4.236
 2504SOL    HW1 7528   2.320   1.927   4.294
 2504SOL    HW2 7529   2.404   2.009   4.181
 2505SOL     OW 7530   3.296   3.050   3.765
 2505SOL    HW1 7531   3.328   2.974   3.822
 2505SOL    HW2 7532   3.204   3.077   3.795
 2506SOL     OW 7533   2.159   1.897   3.895
 2506SOL    HW1 7534   2.208   1.981   3.874
 2506SOL    HW2 7535   2.221   1.832   3.940
 2507SOL     OW 7536   2.797   2.098   4.204
 2507SOL    HW1 7537   2.749   2.139   4.126
 2507SOL    HW2 7538   2.896   2.096   4.185
 2508SOL     OW 7539   3.089   3.432   4.517
 2508SOL    HW1 7540   3.110   3.506   4.452
 2508SOL    HW2 7541   3.157   3.432   4.590
 2509SOL     OW 7542   2.321   3.014   4.465
 2509SOL    HW1 7543   2.250   2.987   4.530
 2509SOL    HW2 7544   2.295   2.986   4.372
 2510SOL     OW 7545   3.133   3.659   4.315
 2510SOL    HW1 7546   3.177   3.723   4.251
 2510SOL    HW2 7547   3.083   3.711   4.385
 2511SOL     OW 7548   2.894   2.411   3.740
 2511SOL    HW1 7549   2.853   2.493   3.701
 2511SOL    HW2 7550   2.958   2.437   3.813
 2512SOL     OW 7551   2.728   2.316   4.366
 2512SOL    HW1 7552   2.696   2.388   4.304
 2512SOL    HW2 7553   2.752   2.235   4.313
 2513SOL     OW 7554   2.879   1.901   4.477
 2513SOL    HW1 7555   2.807   1.906   4.408
 2513SOL    HW2 7556   2.855   1.832   4.546
 2514SOL     OW 7557   3.291   3.035   4.591
 2514SOL    HW1 7558   3.236   2.951   4.584
 2514SOL    HW2 7559   3.317   3.064   4.499
 2515SOL     OW 7560   3.328   2.452   4.716
 2515SOL    HW1 7561   3.298   2.357   4.723
 2515SOL    HW2 7562   3.401   2.468   4.782
 2516SOL     OW 7563   3.719   2.695   4.101
 2516SOL    HW1 7564   3.761   2.631   4.165
 2516SOL    HW2 7565   3.681   2.644   4.023
 2517SOL     OW 7566   2.350   3.247   3.898
 2517SOL    HW1 7567   2.263   3.232   3.945
 2517SOL    HW2 7568   2.333   3.273   3.803
 2518SOL     OW 7569   3.526   3.142   4.381
 2518SOL    HW1 7570   3.625   3.150   4.395
 2518SOL    HW2 7571   3.481   3.226   4.412
 2519SOL     OW 7572   3.252   2.437   3.802
 2519SOL    HW1 7573   3.198   2.416   3.883
 2519SOL    HW2 7574   3.343   2.396   3.811
 2520SOL     OW 7575   2.389   2.118   4.052
 2520SOL    HW1 7576   2.416   2.059   3.977
 2520SOL    HW2 7577   2.389   2.213   4.021
 2521SOL     OW 7578   2.973   3.057   4.824
 2521SOL    HW1 7579   2.933   3.101   4.905
 2521SOL    HW2 7580   2.932   3.094   4.741
 2522SOL     OW 7581   3.500   2.961   4.803
 2522SOL    HW1 7582   3.505   3.042   4.862
 2522SOL    HW2 7583   3.414   2.963   4.752
 2523SOL     OW 7584   2.567   2.912   4.092
 2523SOL    HW1 7585   2.553   2.919   4.191
 2523SOL    HW2 7586   2.651   2.861   4.074
 2524SOL     OW 7587   2.272   2.675   4.975
 2524SOL    HW1 7588   2.358   2.687   5.025
 2524SOL    HW2 7589   2.230   2.588   5.002
 2525SOL     OW 7590   2.229   2.962   4.225
 2525SOL    HW1 7591   2.222   3.045   4.169
 2525SOL    HW2 7592   2.233   2.882   4.165
 2526SOL     OW 7593   2.428   2.399   4.589
 2526SOL    HW1 7594   2.440   2.465   4.515
 2526SOL    HW2 7595   2.474   2.433   4.672
 2527SOL     OW 7596   3.114   3.210   4.112
 2527SOL    HW1 7597   3.164   3.287   4.152
 2527SOL    HW2 7598   3.019   3.212   4.144
 2528SOL     OW 7599   3.134   3.307   4.866
 2528SOL    HW1 7600   3.181   3.320   4.953
 2528SOL    HW2 7601   3.068   3.233   4.875
 2529SOL     OW 7602   3.444   2.501   4.196
 2529SOL    HW1 7603   3.413   2.562   4.269
 2529SOL    HW2 7604   3.494   2.553   4.127
 2530SOL     OW 7605   2.216   3.372   5.053
 2530SOL    HW1 7606   2.195   3.328   4.966
 2530SOL    HW2 7607   2.313   3.398   5.056
 2531SOL     OW 7608   2.435   2.732   4.753
 2531SOL    HW1 7609   2.479   2.821   4.744
 2531SOL    HW2 7610   2.372   2.732   4.830
 2532SOL     OW 7611   3.071   2.387   3.999
 2532SOL    HW1 7612   3.084   2.303   4.053
 2532SOL    HW2 7613   3.042   2.461   4.059
 2533SOL     OW 7614   2.594   2.496   4.788
 2533SOL    HW1 7615   2.653   2.470   4.712
 2533SOL    HW2 7616   2.566   2.592   4.777
 2534SOL     OW 7617   2.169   1.925   4.342
 2534SOL    HW1 7618   2.158   2.019   4.375
 2534SOL    HW2 7619   2.164   1.862   4.419
 2535SOL     OW 7620   3.484   2.229   4.098
 2535SOL    HW1 7621   3.486   2.153   4.162
 2535SOL    HW2 7622   3.436   2.306   4.138
 2536SOL     OW 7623   2.885   2.628   4.690
 2536SOL    HW1 7624   2.900   2.649   4.786
 2536SOL    HW2 7625   2.855   2.533   4.681
 2537SOL     OW 7626   3.402   2.136   3.849
 2537SOL    HW1 7627   3.341   2.061   3.872
 2537SOL    HW2 7628   3.424   2.188   3.932
 2538SOL     OW 7629   3.165   2.700   3.766
 2538SOL    HW1 7630   3.199   2.607   3.781
 2538SOL    HW2 7631   3.183   2.727   3.671
 2539SOL     OW 7632   2.930   3.195   4.573
 2539SOL    HW1 7633   2.937   3.111   4.518
 2539SOL    HW2 7634   2.992   3.264   4.537
 2540SOL     OW 7635   2.181   2.672   4.673
 2540SOL    HW1 7636   2.274   2.708   4.678
 2540SOL    HW2 7637   2.175   2.587   4.725
 2541SOL     OW 7638   2.201   2.371   4.730
 2541SOL    HW1 7639   2.149   2.288   4.713
 2541SOL    HW2 7640   2.278   2.376   4.666
 2542SOL     OW 7641   1.870   3.188   3.924
 2542SOL    HW1 7642   1.777   3.209   3.893
 2542SOL    HW2 7643   1.880   3.089   3.937
 2543SOL     OW 7644   1.950   3.663   4.651
 2543SOL    HW1 7645   1.908   3.577   4.624
 2543SOL    HW2 7646   2.044   3.666   4.617
 2544SOL     OW 7647   2.366   3.430   4.634
 2544SOL    HW1 7648   2.432   3.504   4.643
 2544SOL    HW2 7649   2.410   3.351   4.592
 2545SOL     OW 7650   2.864   2.658   4.962
 2545SOL    HW1 7651   2.905   2.626   5.048
 2545SOL    HW2 7652   2.768   2.631   4.959
 2546SOL     OW 7653   1.902   2.406   4.838
 2546SOL    HW1 7654   1.987   2.373   4.797
 2546SOL    HW2 7655   1.915   2.421   4.936
 2547SOL     OW 7656   2.677   2.434   4.049
 2547SOL    HW1 7657   2.684   2.345   4.003
 2547SOL    HW2 7658   2.583   2.468   4.041
 2548SOL     OW 7659   2.533   2.326   4.993
 2548SOL    HW1 7660   2.499   2.237   4.963
 2548SOL    HW2 7661   2.559   2.380   4.913
 2549SOL     OW 7662   2.335   2.362   3.915
 2549SOL    HW1 7663   2.396   2.442   3.919
 2549SOL    HW2 7664   2.240   2.393   3.922
 2550SOL     OW 7665   3.164   2.717   4.033
 2550SOL    HW1 7666   3.078   2.686   4.075
 2550SOL    HW2 7667   3.160   2.703   3.934
 2551SOL     OW 7668   3.621   3.609   4.878
 2551SOL    HW1 7669   3.682   3.639   4.805
 2551SOL    HW2 7670   3.583   3.520   4.856
 2552SOL     OW 7671   1.945   3.120   4.746
 2552SOL    HW1 7672   1.940   3.119   4.846
 2552SOL    HW2 7673   1.862   3.079   4.708
 2553SOL     OW 7674   3.588   1.997   4.247
 2553SOL    HW1 7675   3.661   1.980   4.180
 2553SOL    HW2 7676   3.557   1.910   4.285
 2554SOL     OW 7677   3.250   3.435   4.201
 2554SOL    HW1 7678   3.317   3.447   4.127
 2554SOL    HW2 7679   3.210   3.524   4.224
 2555SOL     OW 7680   3.142   2.789   4.396
 2555SOL    HW1 7681   3.202   2.708   4.398
 2555SOL    HW2 7682   3.182   2.858   4.336
 2556SOL     OW 7683   2.534   3.478   3.878
 2556SOL    HW1 7684   2.543   3.488   3.779
 2556SOL    HW2 7685   2.494   3.389   3.899
 2557SOL     OW 7686   3.703   2.037   4.687
 2557SOL    HW1 7687   3.742   1.952   4.651
 2557SOL    HW2 7688   3.605   2.039   4.668
 2558SOL     OW 7689   2.125   2.188   4.444
 2558SOL    HW1 7690   2.046   2.239   4.410
 2558SOL    HW2 7691   2.116   2.173   4.542
 2559SOL     OW 7692   3.056   3.474   3.755
 2559SOL    HW1 7693   3.062   3.381   3.792
 2559SOL    HW2 7694   2.997   3.474   3.675
 2560SOL     OW 7695   2.684   2.864   5.096
 2560SOL    HW1 7696   2.724   2.863   5.004
 2560SOL    HW2 7697   2.694   2.956   5.136
 2561SOL     OW 7698   2.778   2.772   4.015
 2561SOL    HW1 7699   2.841   2.810   3.947
 2561SOL    HW2 7700   2.818   2.689   4.054
 2562SOL     OW 7701   3.366   3.469   3.768
 2562SOL    HW1 7702   3.274   3.506   3.775
 2562SOL    HW2 7703   3.404   3.489   3.678
 2563SOL     OW 7704   2.901   2.960   4.420
 2563SOL    HW1 7705   2.831   2.913   4.474
 2563SOL    HW2 7706   2.960   2.892   4.377
 2564SOL     OW 7707   2.876   2.098   4.695
 2564SOL    HW1 7708   2.868   2.062   4.602
 2564SOL    HW2 7709   2.874   2.022   4.760
 2565SOL     OW 7710   2.452   3.349   4.215
 2565SOL    HW1 7711   2.494   3.291   4.145
 2565SOL    HW2 7712   2.408   3.428   4.171
 2566SOL     OW 7713   2.117   3.210   4.014
 2566SOL    HW1 7714   2.021   3.211   3.987
 2566SOL    HW2 7715   2.129   3.263   4.098
 2567SOL     OW 7716   1.937   2.207   3.757
 2567SOL    HW1 7717   1.845   2.179   3.728
 2567SOL    HW2 7718   1.968   2.284   3.701
 2568SOL     OW 7719   1.934   2.028   4.042
 2568SOL    HW1 7720   1.917   2.111   3.988
 2568SOL    HW2 7721   2.024   1.991   4.020
 2569SOL     OW 7722   3.045   3.197   3.843
 2569SOL    HW1 7723   2.946   3.186   3.845
 2569SOL    HW2 7724   3.079   3.212   3.936
 2570SOL     OW 7725   3.355   3.629   4.683
 2570SOL    HW1 7726   3.388   3.693   4.614
 2570SOL    HW2 7727   3.421   3.623   4.758
 2571SOL     OW 7728   3.536   2.745   4.978
 2571SOL    HW1 7729   3.509   2.656   4.941
 2571SOL    HW2 7730   3.537   2.813   4.905
 2572SOL     OW 7731   3.087   2.187   4.173
 2572SOL    HW1 7732   3.152   2.113   4.162
 2572SOL    HW2 7733   3.107   2.237   4.257
 2573SOL     OW 7734   2.456   2.607   4.376
 2573SOL    HW1 7735   2.506   2.692   4.357
 2573SOL    HW2 7736   2.368   2.609   4.328
 2574SOL     OW 7737   2.721   3.236   3.740
 2574SOL    HW1 7738   2.675   3.251   3.828
 2574SOL    HW2 7739   2.765   3.321   3.710
 2575SOL     OW 7740   2.523   3.652   4.677
 2575SOL    HW1 7741   2.477   3.740   4.664
 2575SOL    HW2 7742   2.622   3.664   4.670
 2576SOL     OW 7743   2.721   2.818   4.585
 2576SOL    HW1 7744   2.775   2.749   4.633
 2576SOL    HW2 7745   2.689   2.887   4.651
 2577SOL     OW 7746   2.945   2.846   3.811
 2577SOL    HW1 7747   2.922   2.899   3.729
 2577SOL    HW2 7748   3.026   2.790   3.792
 2578SOL     OW 7749   3.723   3.431   4.575
 2578SOL    HW1 7750   3.652   3.419   4.505
 2578SOL    HW2 7751   3.724   3.352   4.635
 2579SOL     OW 7752   1.941   3.102   4.377
 2579SOL    HW1 7753   1.940   3.055   4.465
 2579SOL    HW2 7754   2.023   3.074   4.326
 2580SOL     OW 7755   3.686   2.054   4.951
 2580SOL    HW1 7756   3.682   1.964   4.995
 2580SOL    HW2 7757   3.689   2.043   4.852
 2581SOL     OW 7758   2.290   2.286   4.244
 2581SOL    HW1 7759   2.320   2.214   4.182
 2581SOL    HW2 7760   2.251   2.246   4.327
 2582SOL     OW 7761   2.674   3.448   4.411
 2582SOL    HW1 7762   2.706   3.458   4.317
 2582SOL    HW2 7763   2.595   3.386   4.413
 2583SOL     OW 7764   3.286   2.076   4.836
 2583SOL    HW1 7765   3.338   2.011   4.891
 2583SOL    HW2 7766   3.237   2.139   4.897
 2584SOL     OW 7767   2.632   3.192   4.025
 2584SOL    HW1 7768   2.586   3.105   4.042
 2584SOL    HW2 7769   2.723   3.189   4.066
 2585SOL     OW 7770   3.214   1.914   3.892
 2585SOL    HW1 7771   3.249   1.873   3.808
 2585SOL    HW2 7772   3.124   1.876   3.912
 2586SOL     OW 7773   3.162   2.315   4.415
 2586SOL    HW1 7774   3.103   2.395   4.419
 2586SOL    HW2 7775   3.177   2.280   4.508
 2587SOL     OW 7776   3.455   2.083   4.606
 2587SOL    HW1 7777   3.371   2.082   4.660
 2587SOL    HW2 7778   3.457   2.166   4.550
 2588SOL     OW 7779   1.901   2.939   4.024
 2588SOL    HW1 7780   2.000   2.928   4.015
 2588SOL    HW2 7781   1.861   2.853   4.056
 2589SOL     OW 7782   2.737   3.508   4.061
 2589SOL    HW1 7783   2.660   3.473   4.007
 2589SOL    HW2 7784   2.705   3.579   4.123
 2590SOL     OW 7785   2.092   4.352   0.113
 2590SOL    HW1 7786   1.999   4.350   0.150
 2590SOL    HW2 7787   2.093   4.313   0.021
 2591SOL     OW 7788   2.087   3.999   0.996
 2591SOL    HW1 7789   2.122   3.982   1.088
 2591SOL    HW2 7790   1.999   3.954   0.984
 2592SOL     OW 7791   1.881   4.092   0.647
 2592SOL    HW1 7792   1.799   4.135   0.686
 2592SOL    HW2 7793   1.853   4.019   0.584
 2593SOL     OW 7794   2.997   4.427   0.717
 2593SOL    HW1 7795   3.054   4.505   0.692
 2593SOL    HW2 7796   2.937   4.453   0.793
 2594SOL     OW 7797   3.617   4.331   0.231
 2594SOL    HW1 7798   3.605   4.318   0.132
 2594SOL    HW2 7799   3.587   4.250   0.280
 2595SOL     OW 7800   2.630   4.868   1.023
 2595SOL    HW1 7801   2.552   4.885   1.083
 2595SOL    HW2 7802   2.664   4.955   0.987
 2596SOL     OW 7803   2.712   4.522   1.823
 2596SOL    HW1 7804   2.708   4.598   1.888
 2596SOL    HW2 7805   2.734   4.558   1.732
 2597SOL     OW 7806   2.547   4.736   0.665
 2597SOL    HW1 7807   2.616   4.720   0.735
 2597SOL    HW2 7808   2.474   4.793   0.703
 2598SOL     OW 7809   3.322   5.229   1.339
 2598SOL    HW1 7810   3.346   5.323   1.365
 2598SOL    HW2 7811   3.306   5.175   1.421
 2599SOL     OW 7812   2.300   4.116   1.499
 2599SOL    HW1 7813   2.382   4.060   1.508
 2599SOL    HW2 7814   2.219   4.058   1.503
 2600SOL     OW 7815   3.465   4.171   0.737
 2600SOL    HW1 7816   3.391   4.217   0.687
 2600SOL    HW2 7817   3.516   4.239   0.790
 2601SOL     OW 7818   2.102   4.815   0.886
 2601SOL    HW1 7819   2.116   4.731   0.938
 2601SOL    HW2 7820   2.047   4.879   0.941
 2602SOL     OW 7821   2.468   4.688   0.123
 2602SOL    HW1 7822   2.475   4.772   0.069
 2602SOL    HW2 7823   2.514   4.701   0.211
 2603SOL     OW 7824   3.456   3.838   1.480
 2603SOL    HW1 7825   3.438   3.905   1.408
 2603SOL    HW2 7826   3.453   3.884   1.569
 2604SOL     OW 7827   1.984   4.367   0.563
 2604SOL    HW1 7828   1.939   4.279   0.580
 2604SOL    HW2 7829   1.983   4.421   0.647
 2605SOL     OW 7830   3.551   4.646   0.612
 2605SOL    HW1 7831   3.646   4.617   0.620
 2605SOL    HW2 7832   3.543   4.711   0.537
 2606SOL     OW 7833   1.975   4.461   1.597
 2606SOL    HW1 7834   2.063   4.448   1.642
 2606SOL    HW2 7835   1.962   4.558   1.575
 2607SOL     OW 7836   2.475   5.089   0.726
 2607SOL    HW1 7837   2.426   5.002   0.735
 2607SOL    HW2 7838   2.452   5.132   0.639
 2608SOL     OW 7839   3.155   4.952   1.423
 2608SOL    HW1 7840   3.192   4.879   1.365
 2608SOL    HW2 7841   3.207   4.957   1.508
 2609SOL     OW 7842   2.671   3.728   0.502
 2609SOL    HW1 7843   2.711   3.819   0.493
 2609SOL    HW2 7844   2.571   3.736   0.508
 2610SOL     OW 7845   2.059   4.700   1.264
 2610SOL    HW1 7846   2.148   4.655   1.250
 2610SOL    HW2 7847   1.986   4.635   1.245
 2611SOL     OW 7848   3.387   4.723   0.190
 2611SOL    HW1 7849   3.324   4.647   0.203
 2611SOL    HW2 7850   3.435   4.741   0.276
 2612SOL     OW 7851   2.179   3.975   1.801
 2612SOL    HW1 7852   2.250   4.046   1.807
 2612SOL    HW2 7853   2.091   4.014   1.829
 2613SOL     OW 7854   2.460   4.453   0.270
 2613SOL    HW1 7855   2.484   4.522   0.202
 2613SOL    HW2 7856   2.382   4.486   0.324
 2614SOL     OW 7857   3.143   4.069   0.944
 2614SOL    HW1 7858   3.057   4.019   0.931
 2614SOL    HW2 7859   3.205   4.015   1.000
 2615SOL     OW 7860   2.669   4.329   1.465
 2615SOL    HW1 7861   2.622   4.326   1.554
 2615SOL    HW2 7862   2.618   4.274   1.399
 2616SOL     OW 7863   3.256   4.193   1.674
 2616SOL    HW1 7864   3.236   4.236   1.762
 2616SOL    HW2 7865   3.334   4.131   1.683
 2617SOL     OW 7866   2.835   4.614   1.572
 2617SOL    HW1 7867   2.881   4.530   1.543
 2617SOL    HW2 7868   2.779   4.648   1.497
 2618SOL     OW 7869   2.853   4.134   1.242
 2618SOL    HW1 7870   2.776   4.168   1.296
 2618SOL    HW2 7871   2.819   4.083   1.163
 2619SOL     OW 7872   2.903   4.425   0.429
 2619SOL    HW1 7873   2.929   4.421   0.525
 2619SOL    HW2 7874   2.818   4.374   0.415
 2620SOL     OW 7875   1.938   4.535   0.789
 2620SOL    HW1 7876   2.037   4.523   0.798
 2620SOL    HW2 7877   1.914   4.630   0.810
 2621SOL     OW 7878   2.727   4.072   0.195
 2621SOL    HW1 7879   2.786   4.135   0.146
 2621SOL    HW2 7880   2.746   3.978   0.166
 2622SOL     OW 7881   3.581   4.309   1.831
 2622SOL    HW1 7882   3.555   4.398   1.795
 2622SOL    HW2 7883   3.579   4.241   1.758
 2623SOL     OW 7884   2.412   3.920   0.885
 2623SOL    HW1 7885   2.407   3.915   0.985
 2623SOL    HW2 7886   2.414   4.016   0.856
 2624SOL     OW 7887   3.657   4.790   0.873
 2624SOL    HW1 7888   3.595   4.775   0.797
 2624SOL    HW2 7889   3.605   4.801   0.958
 2625SOL     OW 7890   2.183   4.667   0.242
 2625SOL    HW1 7891   2.265   4.706   0.200
 2625SOL    HW2 7892   2.156   4.585   0.193
 2626SOL     OW 7893   3.320   4.459   0.728
 2626SOL    HW1 7894   3.315   4.394   0.803
 2626SOL    HW2 7895   3.400   4.518   0.741
 2627SOL     OW 7896   2.064   4.009   1.498
 2627SOL    HW1 7897   1.984   4.069   1.485
 2627SOL    HW2 7898   2.054   3.960   1.584
 2628SOL     OW 7899   3.262   3.831   0.426
 2628SOL    HW1 7900   3.238   3.794   0.336
 2628SOL    HW2 7901   3.361   3.847   0.430
 2629SOL     OW 7902   2.244   4.424   0.480
 2629SOL    HW1 7903   2.289   4.334   0.477
 2629SOL    HW2 7904   2.150   4.413   0.513
 2630SOL     OW 7905   3.409   3.946   1.729
 2630SOL    HW1 7906   3.404   3.983   1.821
 2630SOL    HW2 7907   3.337   3.877   1.717
 2631SOL     OW 7908   2.476   3.846   0.117
 2631SOL    HW1 7909   2.574   3.824   0.124
 2631SOL    HW2 7910   2.445   3.829   0.024
 2632SOL     OW 7911   2.643   3.988   1.749
 2632SOL    HW1 7912   2.710   3.927   1.792
 2632SOL    HW2 7913   2.570   4.007   1.814
 2633SOL     OW 7914   3.213   4.314   1.433
 2633SOL    HW1 7915   3.241   4.271   1.518
 2633SOL    HW2 7916   3.238   4.410   1.434
 2634SOL     OW 7917   2.784   4.227   0.899
 2634SOL    HW1 7918   2.759   4.218   0.803
 2634SOL    HW2 7919   2.832   4.145   0.930
 2635SOL     OW 7920   2.401   3.788   0.512
 2635SOL    HW1 7921   2.320   3.789   0.570
 2635SOL    HW2 7922   2.404   3.871   0.457
 2636SOL     OW 7923   2.159   3.759   0.171
 2636SOL    HW1 7924   2.208   3.843   0.150
 2636SOL    HW2 7925   2.221   3.694   0.216
 2637SOL     OW 7926   2.797   3.960   0.480
 2637SOL    HW1 7927   2.749   4.001   0.402
 2637SOL    HW2 7928   2.896   3.958   0.461
 2638SOL     OW 7929   2.938   4.407   1.464
 2638SOL    HW1 7930   2.858   4.346   1.467
 2638SOL    HW2 7931   3.019   4.354   1.440
 2639SOL     OW 7932   2.321   4.876   0.741
 2639SOL    HW1 7933   2.250   4.849   0.806
 2639SOL    HW2 7934   2.295   4.848   0.648
 2640SOL     OW 7935   2.894   4.273   0.016
 2640SOL    HW1 7936   2.853   4.355  -0.023
 2640SOL    HW2 7937   2.958   4.299   0.089
 2641SOL     OW 7938   1.940   4.280   1.386
 2641SOL    HW1 7939   2.032   4.279   1.345
 2641SOL    HW2 7940   1.934   4.354   1.453
 2642SOL     OW 7941   2.423   3.946   1.147
 2642SOL    HW1 7942   2.461   3.862   1.184
 2642SOL    HW2 7943   2.335   3.965   1.191
 2643SOL     OW 7944   2.728   4.178   0.642
 2643SOL    HW1 7945   2.696   4.250   0.580
 2643SOL    HW2 7946   2.752   4.097   0.589
 2644SOL     OW 7947   2.879   3.763   0.753
 2644SOL    HW1 7948   2.807   3.768   0.684
 2644SOL    HW2 7949   2.855   3.694   0.822
 2645SOL     OW 7950   3.291   4.897   0.867
 2645SOL    HW1 7951   3.236   4.813   0.860
 2645SOL    HW2 7952   3.317   4.926   0.775
 2646SOL     OW 7953   3.328   4.314   0.992
 2646SOL    HW1 7954   3.298   4.219   0.999
 2646SOL    HW2 7955   3.401   4.330   1.058
 2647SOL     OW 7956   3.719   4.557   0.377
 2647SOL    HW1 7957   3.761   4.493   0.441
 2647SOL    HW2 7958   3.681   4.506   0.299
 2648SOL     OW 7959   3.252   4.299   0.078
 2648SOL    HW1 7960   3.198   4.278   0.159
 2648SOL    HW2 7961   3.343   4.258   0.087
 2649SOL     OW 7962   2.389   3.980   0.328
 2649SOL    HW1 7963   2.416   3.921   0.253
 2649SOL    HW2 7964   2.389   4.075   0.297
 2650SOL     OW 7965   3.616   4.947   1.588
 2650SOL    HW1 7966   3.707   4.908   1.575
 2650SOL    HW2 7967   3.624   5.043   1.612
 2651SOL     OW 7968   3.500   4.823   1.079
 2651SOL    HW1 7969   3.505   4.904   1.138
 2651SOL    HW2 7970   3.414   4.825   1.028
 2652SOL     OW 7971   2.777   3.813   1.402
 2652SOL    HW1 7972   2.802   3.793   1.307
 2652SOL    HW2 7973   2.849   3.869   1.444
 2653SOL     OW 7974   2.567   4.774   0.368
 2653SOL    HW1 7975   2.553   4.781   0.467
 2653SOL    HW2 7976   2.651   4.723   0.350
 2654SOL     OW 7977   2.272   4.537   1.251
 2654SOL    HW1 7978   2.358   4.549   1.301
 2654SOL    HW2 7979   2.230   4.450   1.278
 2655SOL     OW 7980   3.136   4.110   1.262
 2655SOL    HW1 7981   3.157   4.184   1.326
 2655SOL    HW2 7982   3.047   4.127   1.219
 2656SOL     OW 7983   2.229   4.824   0.501
 2656SOL    HW1 7984   2.222   4.907   0.445
 2656SOL    HW2 7985   2.233   4.744   0.441
 2657SOL     OW 7986   2.428   4.261   0.865
 2657SOL    HW1 7987   2.440   4.327   0.791
 2657SOL    HW2 7988   2.474   4.295   0.948
 2658SOL     OW 7989   3.444   4.363   0.472
 2658SOL    HW1 7990   3.413   4.424   0.545
 2658SOL    HW2 7991   3.494   4.415   0.403
 2659SOL     OW 7992   2.264   4.475   1.598
 2659SOL    HW1 7993   2.332   4.530   1.551
 2659SOL    HW2 7994   2.304   4.387   1.625
 2660SOL     OW 7995   3.449   4.503   1.670
 2660SOL    HW1 7996   3.357   4.541   1.665
 2660SOL    HW2 7997   3.509   4.550   1.605
 2661SOL     OW 7998   2.875   3.829   1.770
 2661SOL    HW1 7999   2.881   3.914   1.718
 2661SOL    HW2 8000   2.907   3.753   1.713
 2662SOL     OW 8001   2.366   3.774   1.740
 2662SOL    HW1 8002   2.324   3.717   1.670
 2662SOL    HW2 8003   2.300   3.843   1.772
 2663SOL     OW 8004   2.435   4.594   1.029
 2663SOL    HW1 8005   2.479   4.683   1.020
 2663SOL    HW2 8006   2.372   4.594   1.106
 2664SOL     OW 8007   3.222   4.586   1.045
 2664SOL    HW1 8008   3.147   4.586   0.979
 2664SOL    HW2 8009   3.259   4.494   1.054
 2665SOL     OW 8010   3.071   4.249   0.275
 2665SOL    HW1 8011   3.084   4.165   0.329
 2665SOL    HW2 8012   3.042   4.323   0.335
 2666SOL     OW 8013   2.169   3.937   1.231
 2666SOL    HW1 8014   2.146   3.974   1.321
 2666SOL    HW2 8015   2.139   3.842   1.225
 2667SOL     OW 8016   2.594   4.358   1.064
 2667SOL    HW1 8017   2.653   4.332   0.988
 2667SOL    HW2 8018   2.566   4.454   1.053
 2668SOL     OW 8019   3.590   4.659   1.854
 2668SOL    HW1 8020   3.544   4.652   1.765
 2668SOL    HW2 8021   3.528   4.703   1.920
 2669SOL     OW 8022   2.169   3.787   0.618
 2669SOL    HW1 8023   2.158   3.881   0.651
 2669SOL    HW2 8024   2.164   3.724   0.695
 2670SOL     OW 8025   3.484   4.091   0.374
 2670SOL    HW1 8026   3.486   4.015   0.438
 2670SOL    HW2 8027   3.436   4.168   0.414
 2671SOL     OW 8028   2.885   4.490   0.966
 2671SOL    HW1 8029   2.900   4.511   1.062
 2671SOL    HW2 8030   2.855   4.395   0.957
 2672SOL     OW 8031   2.212   4.622   1.804
 2672SOL    HW1 8032   2.288   4.666   1.852
 2672SOL    HW2 8033   2.247   4.575   1.722
 2673SOL     OW 8034   3.402   3.998   0.125
 2673SOL    HW1 8035   3.341   3.923   0.148
 2673SOL    HW2 8036   3.424   4.050   0.208
 2674SOL     OW 8037   3.165   4.562   0.042
 2674SOL    HW1 8038   3.199   4.469   0.057
 2674SOL    HW2 8039   3.183   4.589  -0.053
 2675SOL     OW 8040   2.181   4.534   0.949
 2675SOL    HW1 8041   2.274   4.570   0.954
 2675SOL    HW2 8042   2.175   4.449   1.001
 2676SOL     OW 8043   2.201   4.233   1.006
 2676SOL    HW1 8044   2.149   4.150   0.989
 2676SOL    HW2 8045   2.278   4.238   0.942
 2677SOL     OW 8046   3.000   4.104   1.678
 2677SOL    HW1 8047   2.955   4.167   1.742
 2677SOL    HW2 8048   3.093   4.135   1.661
 2678SOL     OW 8049   3.022   3.931   1.477
 2678SOL    HW1 8050   3.022   3.995   1.554
 2678SOL    HW2 8051   3.050   3.979   1.394
 2679SOL     OW 8052   2.864   4.520   1.238
 2679SOL    HW1 8053   2.905   4.488   1.324
 2679SOL    HW2 8054   2.768   4.493   1.235
 2680SOL     OW 8055   1.902   4.268   1.114
 2680SOL    HW1 8056   1.987   4.235   1.073
 2680SOL    HW2 8057   1.915   4.283   1.212
 2681SOL     OW 8058   2.051   4.244   1.722
 2681SOL    HW1 8059   2.110   4.204   1.652
 2681SOL    HW2 8060   1.993   4.315   1.681
 2682SOL     OW 8061   3.231   4.674   1.660
 2682SOL    HW1 8062   3.270   4.763   1.680
 2682SOL    HW2 8063   3.241   4.654   1.563
 2683SOL     OW 8064   2.677   4.296   0.325
 2683SOL    HW1 8065   2.684   4.207   0.279
 2683SOL    HW2 8066   2.583   4.330   0.317
 2684SOL     OW 8067   3.519   4.328   1.206
 2684SOL    HW1 8068   3.481   4.259   1.268
 2684SOL    HW2 8069   3.601   4.292   1.162
 2685SOL     OW 8070   2.533   4.188   1.269
 2685SOL    HW1 8071   2.499   4.099   1.239
 2685SOL    HW2 8072   2.559   4.242   1.189
 2686SOL     OW 8073   2.335   4.224   0.191
 2686SOL    HW1 8074   2.396   4.304   0.195
 2686SOL    HW2 8075   2.240   4.255   0.198
 2687SOL     OW 8076   2.021   4.861   1.466
 2687SOL    HW1 8077   2.043   4.800   1.542
 2687SOL    HW2 8078   2.031   4.812   1.380
 2688SOL     OW 8079   3.209   4.783   1.234
 2688SOL    HW1 8080   3.233   4.720   1.160
 2688SOL    HW2 8081   3.119   4.823   1.216
 2689SOL     OW 8082   3.164   4.579   0.309
 2689SOL    HW1 8083   3.078   4.548   0.351
 2689SOL    HW2 8084   3.160   4.565   0.210
 2690SOL     OW 8085   2.765   3.810   0.133
 2690SOL    HW1 8086   2.816   3.811   0.047
 2690SOL    HW2 8087   2.821   3.768   0.204
 2691SOL     OW 8088   3.588   3.859   0.523
 2691SOL    HW1 8089   3.661   3.842   0.456
 2691SOL    HW2 8090   3.557   3.772   0.561
 2692SOL     OW 8091   3.142   4.651   0.672
 2692SOL    HW1 8092   3.202   4.570   0.674
 2692SOL    HW2 8093   3.182   4.720   0.612
 2693SOL     OW 8094   3.703   3.899   0.963
 2693SOL    HW1 8095   3.742   3.814   0.927
 2693SOL    HW2 8096   3.605   3.901   0.944
 2694SOL     OW 8097   2.125   4.050   0.720
 2694SOL    HW1 8098   2.046   4.101   0.686
 2694SOL    HW2 8099   2.116   4.035   0.818
 2695SOL     OW 8100   2.684   4.726   1.372
 2695SOL    HW1 8101   2.724   4.725   1.280
 2695SOL    HW2 8102   2.694   4.818   1.412
 2696SOL     OW 8103   2.778   4.634   0.291
 2696SOL    HW1 8104   2.841   4.672   0.223
 2696SOL    HW2 8105   2.818   4.551   0.330
 2697SOL     OW 8106   2.234   5.012   1.490
 2697SOL    HW1 8107   2.221   5.105   1.456
 2697SOL    HW2 8108   2.150   4.960   1.477
 2698SOL     OW 8109   2.876   3.960   0.971
 2698SOL    HW1 8110   2.868   3.924   0.878
 2698SOL    HW2 8111   2.874   3.884   1.036
 2699SOL     OW 8112   3.571   4.109   1.381
 2699SOL    HW1 8113   3.644   4.178   1.385
 2699SOL    HW2 8114   3.599   4.034   1.322
 2700SOL     OW 8115   1.967   4.737   1.726
 2700SOL    HW1 8116   1.890   4.704   1.780
 2700SOL    HW2 8117   2.052   4.707   1.768
 2701SOL     OW 8118   2.534   3.927   1.489
 2701SOL    HW1 8119   2.624   3.911   1.449
 2701SOL    HW2 8120   2.542   3.932   1.588
 2702SOL     OW 8121   3.302   4.580   1.398
 2702SOL    HW1 8122   3.245   4.632   1.335
 2702SOL    HW2 8123   3.398   4.592   1.374
 2703SOL     OW 8124   1.934   3.890   0.318
 2703SOL    HW1 8125   1.917   3.973   0.264
 2703SOL    HW2 8126   2.024   3.853   0.296
 2704SOL     OW 8127   3.045   5.059   0.119
 2704SOL    HW1 8128   2.946   5.048   0.121
 2704SOL    HW2 8129   3.079   5.074   0.212
 2705SOL     OW 8130   2.475   4.566   1.431
 2705SOL    HW1 8131   2.531   4.647   1.414
 2705SOL    HW2 8132   2.534   4.486   1.434
 2706SOL     OW 8133   2.578   4.289   1.708
 2706SOL    HW1 8134   2.597   4.354   1.782
 2706SOL    HW2 8135   2.638   4.209   1.717
 2707SOL     OW 8136   3.312   4.944   1.633
 2707SOL    HW1 8137   3.303   4.934   1.732
 2707SOL    HW2 8138   3.408   4.937   1.607
 2708SOL     OW 8139   3.536   4.607   1.254
 2708SOL    HW1 8140   3.509   4.518   1.217
 2708SOL    HW2 8141   3.537   4.675   1.181
 2709SOL     OW 8142   3.087   4.049   0.449
 2709SOL    HW1 8143   3.152   3.975   0.438
 2709SOL    HW2 8144   3.107   4.099   0.533
 2710SOL     OW 8145   2.456   4.469   0.652
 2710SOL    HW1 8146   2.506   4.554   0.633
 2710SOL    HW2 8147   2.368   4.471   0.604
 2711SOL     OW 8148   3.639   4.066   1.642
 2711SOL    HW1 8149   3.622   4.097   1.548
 2711SOL    HW2 8150   3.555   4.029   1.680
 2712SOL     OW 8151   3.592   4.658   1.517
 2712SOL    HW1 8152   3.630   4.749   1.532
 2712SOL    HW2 8153   3.584   4.641   1.418
 2713SOL     OW 8154   2.721   4.680   0.861
 2713SOL    HW1 8155   2.775   4.611   0.909
 2713SOL    HW2 8156   2.689   4.749   0.927
 2714SOL     OW 8157   2.945   4.708   0.087
 2714SOL    HW1 8158   2.922   4.761   0.005
 2714SOL    HW2 8159   3.026   4.652   0.068
 2715SOL     OW 8160   3.686   3.916   1.227
 2715SOL    HW1 8161   3.682   3.826   1.271
 2715SOL    HW2 8162   3.689   3.905   1.128
 2716SOL     OW 8163   2.290   4.148   0.520
 2716SOL    HW1 8164   2.320   4.076   0.458
 2716SOL    HW2 8165   2.251   4.108   0.603
 2717SOL     OW 8166   2.179   4.271   1.280
 2717SOL    HW1 8167   2.217   4.212   1.352
 2717SOL    HW2 8168   2.219   4.245   1.192
 2718SOL     OW 8169   3.286   3.938   1.112
 2718SOL    HW1 8170   3.338   3.873   1.167
 2718SOL    HW2 8171   3.237   4.001   1.173
 2719SOL     OW 8172   2.863   3.758   1.154
 2719SOL    HW1 8173   2.800   3.686   1.123
 2719SOL    HW2 8174   2.956   3.722   1.154
 2720SOL     OW 8175   2.632   5.054   0.301
 2720SOL    HW1 8176   2.586   4.967   0.318
 2720SOL    HW2 8177   2.723   5.051   0.342
 2721SOL     OW 8178   3.214   3.776   0.168
 2721SOL    HW1 8179   3.249   3.735   0.084
 2721SOL    HW2 8180   3.124   3.738   0.188
 2722SOL     OW 8181   3.162   4.177   0.691
 2722SOL    HW1 8182   3.103   4.257   0.695
 2722SOL    HW2 8183   3.177   4.142   0.784
 2723SOL     OW 8184   3.455   3.945   0.882
 2723SOL    HW1 8185   3.371   3.944   0.936
 2723SOL    HW2 8186   3.457   4.028   0.826
 2724SOL     OW 8187   1.901   4.801   0.300
 2724SOL    HW1 8188   2.000   4.790   0.291
 2724SOL    HW2 8189   1.861   4.715   0.332
 2725SOL     OW 8190   2.092   4.352   1.975
 2725SOL    HW1 8191   1.999   4.350   2.012
 2725SOL    HW2 8192   2.093   4.313   1.883
 2726SOL     OW 8193   2.087   3.999   2.858
 2726SOL    HW1 8194   2.122   3.982   2.950
 2726SOL    HW2 8195   1.999   3.954   2.846
 2727SOL     OW 8196   1.881   4.092   2.509
 2727SOL    HW1 8197   1.799   4.135   2.548
 2727SOL    HW2 8198   1.853   4.019   2.446
 2728SOL     OW 8199   2.997   4.427   2.579
 2728SOL    HW1 8200   3.054   4.505   2.554
 2728SOL    HW2 8201   2.937   4.453   2.655
 2729SOL     OW 8202   3.617   4.331   2.093
 2729SOL    HW1 8203   3.605   4.318   1.994
 2729SOL    HW2 8204   3.587   4.250   2.142
 2730SOL     OW 8205   2.630   4.868   2.885
 2730SOL    HW1 8206   2.552   4.885   2.945
 2730SOL    HW2 8207   2.664   4.955   2.849
 2731SOL     OW 8208   2.712   4.522   3.685
 2731SOL    HW1 8209   2.708   4.598   3.750
 2731SOL    HW2 8210   2.734   4.558   3.594
 2732SOL     OW 8211   2.547   4.736   2.527
 2732SOL    HW1 8212   2.616   4.720   2.597
 2732SOL    HW2 8213   2.474   4.793   2.565
 2733SOL     OW 8214   3.322   5.229   3.201
 2733SOL    HW1 8215   3.346   5.323   3.227
 2733SOL    HW2 8216   3.306   5.175   3.283
 2734SOL     OW 8217   2.300   4.116   3.361
 2734SOL    HW1 8218   2.382   4.060   3.370
 2734SOL    HW2 8219   2.219   4.058   3.365
 2735SOL     OW 8220   3.465   4.171   2.599
 2735SOL    HW1 8221   3.391   4.217   2.549
 2735SOL    HW2 8222   3.516   4.239   2.652
 2736SOL     OW 8223   2.102   4.815   2.748
 2736SOL    HW1 8224   2.116   4.731   2.800
 2736SOL    HW2 8225   2.047   4.879   2.803
 2737SOL     OW 8226   2.468   4.688   1.985
 2737SOL    HW1 8227   2.475   4.772   1.931
 2737SOL    HW2 8228   2.514   4.701   2.073
 2738SOL     OW 8229   3.456   3.838   3.342
 2738SOL    HW1 8230   3.438   3.905   3.270
 2738SOL    HW2 8231   3.453   3.884   3.431
 2739SOL     OW 8232   1.984   4.367   2.425
 2739SOL    HW1 8233   1.939   4.279   2.442
 2739SOL    HW2 8234   1.983   4.421   2.509
 2740SOL     OW 8235   3.551   4.646   2.474
 2740SOL    HW1 8236   3.646   4.617   2.482
 2740SOL    HW2 8237   3.543   4.711   2.399
 2741SOL     OW 8238   1.975   4.461   3.459
 2741SOL    HW1 8239   2.063   4.448   3.504
 2741SOL    HW2 8240   1.962   4.558   3.437
 2742SOL     OW 8241   2.475   5.089   2.588
 2742SOL    HW1 8242   2.426   5.002   2.597
 2742SOL    HW2 8243   2.452   5.132   2.501
 2743SOL     OW 8244   3.155   4.952   3.285
 2743SOL    HW1 8245   3.192   4.879   3.227
 2743SOL    HW2 8246   3.207   4.957   3.370
 2744SOL     OW 8247   2.671   3.728   2.364
 2744SOL    HW1 8248   2.711   3.819   2.355
 2744SOL    HW2 8249   2.571   3.736   2.370
 2745SOL     OW 8250   2.059   4.700   3.126
 2745SOL    HW1 8251   2.148   4.655   3.112
 2745SOL    HW2 8252   1.986   4.635   3.107
 2746SOL     OW 8253   3.387   4.723   2.052
 2746SOL    HW1 8254   3.324   4.647   2.065
 2746SOL    HW2 8255   3.435   4.741   2.138
 2747SOL     OW 8256   2.179   3.975   3.663
 2747SOL    HW1 8257   2.250   4.046   3.669
 2747SOL    HW2 8258   2.091   4.014   3.691
 2748SOL     OW 8259   2.460   4.453   2.132
 2748SOL    HW1 8260   2.484   4.522   2.064
 2748SOL    HW2 8261   2.382   4.486   2.186
 2749SOL     OW 8262   3.143   4.069   2.806
 2749SOL    HW1 8263   3.057   4.019   2.793
 2749SOL    HW2 8264   3.205   4.015   2.862
 2750SOL     OW 8265   2.669   4.329   3.327
 2750SOL    HW1 8266   2.622   4.326   3.416
 2750SOL    HW2 8267   2.618   4.274   3.261
 2751SOL     OW 8268   3.256   4.193   3.536
 2751SOL    HW1 8269   3.236   4.236   3.624
 2751SOL    HW2 8270   3.334   4.131   3.545
 2752SOL     OW 8271   2.835   4.614   3.434
 2752SOL    HW1 8272   2.881   4.530   3.405
 2752SOL    HW2 8273   2.779   4.648   3.359
 2753SOL     OW 8274   2.853   4.134   3.104
 2753SOL    HW1 8275   2.776   4.168   3.158
 2753SOL    HW2 8276   2.819   4.083   3.025
 2754SOL     OW 8277   2.903   4.425   2.291
 2754SOL    HW1 8278   2.929   4.421   2.387
 2754SOL    HW2 8279   2.818   4.374   2.277
 2755SOL     OW 8280   1.938   4.535   2.651
 2755SOL    HW1 8281   2.037   4.523   2.660
 2755SOL    HW2 8282   1.914   4.630   2.672
 2756SOL     OW 8283   2.727   4.072   2.057
 2756SOL    HW1 8284   2.786   4.135   2.008
 2756SOL    HW2 8285   2.746   3.978   2.028
 2757SOL     OW 8286   3.581   4.309   3.693
 2757SOL    HW1 8287   3.555   4.398   3.657
 2757SOL    HW2 8288   3.579   4.241   3.620
 2758SOL     OW 8289   2.412   3.920   2.747
 2758SOL    HW1 8290   2.407   3.915   2.847
 2758SOL    HW2 8291   2.414   4.016   2.718
 2759SOL     OW 8292   3.657   4.790   2.735
 2759SOL    HW1 8293   3.595   4.775   2.659
 2759SOL    HW2 8294   3.605   4.801   2.820
 2760SOL     OW 8295   2.183   4.667   2.104
 2760SOL    HW1 8296   2.265   4.706   2.062
 2760SOL    HW2 8297   2.156   4.585   2.055
 2761SOL     OW 8298   3.320   4.459   2.590
 2761SOL    HW1 8299   3.315   4.394   2.665
 2761SOL    HW2 8300   3.400   4.518   2.603
 2762SOL     OW 8301   2.064   4.009   3.360
 2762SOL    HW1 8302   1.984   4.069   3.347
 2762SOL    HW2 8303   2.054   3.960   3.446
 2763SOL     OW 8304   3.262   3.831   2.288
 2763SOL    HW1 8305   3.238   3.794   2.198
 2763SOL    HW2 8306   3.361   3.847   2.292
 2764SOL     OW 8307   2.244   4.424   2.342
 2764SOL    HW1 8308   2.289   4.334   2.339
 2764SOL    HW2 8309   2.150   4.413   2.375
 2765SOL     OW 8310   3.409   3.946   3.591
 2765SOL    HW1 8311   3.404   3.983   3.683
 2765SOL    HW2 8312   3.337   3.877   3.579
 2766SOL     OW 8313   2.476   3.846   1.979
 2766SOL    HW1 8314   2.574   3.824   1.986
 2766SOL    HW2 8315   2.445   3.829   1.886
 2767SOL     OW 8316   2.643   3.988   3.611
 2767SOL    HW1 8317   2.710   3.927   3.654
 2767SOL    HW2 8318   2.570   4.007   3.676
 2768SOL     OW 8319   3.213   4.314   3.295
 2768SOL    HW1 8320   3.241   4.271   3.380
 2768SOL    HW2 8321   3.238   4.410   3.296
 2769SOL     OW 8322   2.784   4.227   2.761
 2769SOL    HW1 8323   2.759   4.218   2.665
 2769SOL    HW2 8324   2.832   4.145   2.792
 2770SOL     OW 8325   2.401   3.788   2.374
 2770SOL    HW1 8326   2.320   3.789   2.432
 2770SOL    HW2 8327   2.404   3.871   2.319
 2771SOL     OW 8328   2.159   3.759   2.033
 2771SOL    HW1 8329   2.208   3.843   2.012
 2771SOL    HW2 8330   2.221   3.694   2.078
 2772SOL     OW 8331   2.797   3.960   2.342
 2772SOL    HW1 8332   2.749   4.001   2.264
 2772SOL    HW2 8333   2.896   3.958   2.323
 2773SOL     OW 8334   2.938   4.407   3.326
 2773SOL    HW1 8335   2.858   4.346   3.329
 2773SOL    HW2 8336   3.019   4.354   3.302
 2774SOL     OW 8337   2.321   4.876   2.603
 2774SOL    HW1 8338   2.250   4.849   2.668
 2774SOL    HW2 8339   2.295   4.848   2.510
 2775SOL     OW 8340   2.894   4.273   1.878
 2775SOL    HW1 8341   2.853   4.355   1.839
 2775SOL    HW2 8342   2.958   4.299   1.951
 2776SOL     OW 8343   1.940   4.280   3.248
 2776SOL    HW1 8344   2.032   4.279   3.207
 2776SOL    HW2 8345   1.934   4.354   3.315
 2777SOL     OW 8346   2.423   3.946   3.009
 2777SOL    HW1 8347   2.461   3.862   3.046
 2777SOL    HW2 8348   2.335   3.965   3.053
 2778SOL     OW 8349   2.728   4.178   2.504
 2778SOL    HW1 8350   2.696   4.250   2.442
 2778SOL    HW2 8351   2.752   4.097   2.451
 2779SOL     OW 8352   2.879   3.763   2.615
 2779SOL    HW1 8353   2.807   3.768   2.546
 2779SOL    HW2 8354   2.855   3.694   2.684
 2780SOL     OW 8355   3.291   4.897   2.729
 2780SOL    HW1 8356   3.236   4.813   2.722
 2780SOL    HW2 8357   3.317   4.926   2.637
 2781SOL     OW 8358   3.328   4.314   2.854
 2781SOL    HW1 8359   3.298   4.219   2.861
 2781SOL    HW2 8360   3.401   4.330   2.920
 2782SOL     OW 8361   3.719   4.557   2.239
 2782SOL    HW1 8362   3.761   4.493   2.303
 2782SOL    HW2 8363   3.681   4.506   2.161
 2783SOL     OW 8364   3.252   4.299   1.940
 2783SOL    HW1 8365   3.198   4.278   2.021
 2783SOL    HW2 8366   3.343   4.258   1.949
 2784SOL     OW 8367   2.389   3.980   2.190
 2784SOL    HW1 8368   2.416   3.921   2.115
 2784SOL    HW2 8369   2.389   4.075   2.159
 2785SOL     OW 8370   3.616   4.947   3.450
 2785SOL    HW1 8371   3.707   4.908   3.437
 2785SOL    HW2 8372   3.624   5.043   3.474
 2786SOL     OW 8373   3.500   4.823   2.941
 2786SOL    HW1 8374   3.505   4.904   3.000
 2786SOL    HW2 8375   3.414   4.825   2.890
 2787SOL     OW 8376   2.777   3.813   3.264
 2787SOL    HW1 8377   2.802   3.793   3.169
 2787SOL    HW2 8378   2.849   3.869   3.306
 2788SOL     OW 8379   2.567   4.774   2.230
 2788SOL    HW1 8380   2.553   4.781   2.329
 2788SOL    HW2 8381   2.651   4.723   2.212
 2789SOL     OW 8382   2.272   4.537   3.113
 2789SOL    HW1 8383   2.358   4.549   3.163
 2789SOL    HW2 8384   2.230   4.450   3.140
 2790SOL     OW 8385   3.136   4.110   3.124
 2790SOL    HW1 8386   3.157   4.184   3.188
 2790SOL    HW2 8387   3.047   4.127   3.081
 2791SOL     OW 8388   2.229   4.824   2.363
 2791SOL    HW1 8389   2.222   4.907   2.307
 2791SOL    HW2 8390   2.233   4.744   2.303
 2792SOL     OW 8391   2.428   4.261   2.727
 2792SOL    HW1 8392   2.440   4.327   2.653
 2792SOL    HW2 8393   2.474   4.295   2.810
 2793SOL     OW 8394   3.444   4.363   2.334
 2793SOL    HW1 8395   3.413   4.424   2.407
 2793SOL    HW2 8396   3.494   4.415   2.265
 2794SOL     OW 8397   2.264   4.475   3.460
 2794SOL    HW1 8398   2.332   4.530   3.413
 2794SOL    HW2 8399   2.304   4.387   3.487
 2795SOL     OW 8400   3.449   4.503   3.532
 2795SOL    HW1 8401   3.357   4.541   3.527
 2795SOL    HW2 8402   3.509   4.550   3.467
 2796SOL     OW 8403   2.875   3.829   3.632
 2796SOL    HW1 8404   2.881   3.914   3.580
 2796SOL    HW2 8405   2.907   3.753   3.575
 2797SOL     OW 8406   2.366   3.774   3.602
 2797SOL    HW1 8407   2.324   3.717   3.532
 2797SOL    HW2 8408   2.300   3.843   3.634
 2798SOL     OW 8409   2.435   4.594   2.891
 2798SOL    HW1 8410   2.479   4.683   2.882
 2798SOL    HW2 8411   2.372   4.594   2.968
 2799SOL     OW 8412   3.222   4.586   2.907
 2799SOL    HW1 8413   3.147   4.586   2.841
 2799SOL    HW2 8414   3.259   4.494   2.916
 2800SOL     OW 8415   3.071   4.249   2.137
 2800SOL    HW1 8416   3.084   4.165   2.191
 2800SOL    HW2 8417   3.042   4.323   2.197
 2801SOL     OW 8418   2.169   3.937   3.093
 2801SOL    HW1 8419   2.146   3.974   3.183
 2801SOL    HW2 8420   2.139   3.842   3.087
 2802SOL     OW 8421   2.594   4.358   2.926
 2802SOL    HW1 8422   2.653   4.332   2.850
 2802SOL    HW2 8423   2.566   4.454   2.915
 2803SOL     OW 8424   3.590   4.659   3.716
 2803SOL    HW1 8425   3.544   4.652   3.627
 2803SOL    HW2 8426   3.528   4.703   3.782
 2804SOL     OW 8427   2.169   3.787   2.480
 2804SOL    HW1 8428   2.158   3.881   2.513
 2804SOL    HW2 8429   2.164   3.724   2.557
 2805SOL     OW 8430   3.484   4.091   2.236
 2805SOL    HW1 8431   3.486   4.015   2.300
 2805SOL    HW2 8432   3.436   4.168   2.276
 2806SOL     OW 8433   2.885   4.490   2.828
 2806SOL    HW1 8434   2.900   4.511   2.924
 2806SOL    HW2 8435   2.855   4.395   2.819
 2807SOL     OW 8436   2.212   4.622   3.666
 2807SOL    HW1 8437   2.288   4.666   3.714
 2807SOL    HW2 8438   2.247   4.575   3.584
 2808SOL     OW 8439   3.402   3.998   1.987
 2808SOL    HW1 8440   3.341   3.923   2.010
 2808SOL    HW2 8441   3.424   4.050   2.070
 2809SOL     OW 8442   3.165   4.562   1.904
 2809SOL    HW1 8443   3.199   4.469   1.919
 2809SOL    HW2 8444   3.183   4.589   1.809
 2810SOL     OW 8445   2.181   4.534   2.811
 2810SOL    HW1 8446   2.274   4.570   2.816
 2810SOL    HW2 8447   2.175   4.449   2.863
 2811SOL     OW 8448   2.201   4.233   2.868
 2811SOL    HW1 8449   2.149   4.150   2.851
 2811SOL    HW2 8450   2.278   4.238   2.804
 2812SOL     OW 8451   3.000   4.104   3.540
 2812SOL    HW1 8452   2.955   4.167   3.604
 2812SOL    HW2 8453   3.093   4.135   3.523
 2813SOL     OW 8454   3.022   3.931   3.339
 2813SOL    HW1 8455   3.022   3.995   3.416
 2813SOL    HW2 8456   3.050   3.979   3.256
 2814SOL     OW 8457   2.864   4.520   3.100
 2814SOL    HW1 8458   2.905   4.488   3.186
 2814SOL    HW2 8459   2.768   4.493   3.097
 2815SOL     OW 8460   1.902   4.268   2.976
 2815SOL    HW1 8461   1.987   4.235   2.935
 2815SOL    HW2 8462   1.915   4.283   3.074
 2816SOL     OW 8463   2.051   4.244   3.584
 2816SOL    HW1 8464   2.110   4.204   3.514
 2816SOL    HW2 8465   1.993   4.315   3.543
 2817SOL     OW 8466   3.231   4.674   3.522
 2817SOL    HW1 8467   3.270   4.763   3.542
 2817SOL    HW2 8468   3.241   4.654   3.425
 2818SOL     OW 8469   2.677   4.296   2.187
 2818SOL    HW1 8470   2.684   4.207   2.141
 2818SOL    HW2 8471   2.583   4.330   2.179
 2819SOL     OW 8472   3.519   4.328   3.068
 2819SOL    HW1 8473   3.481   4.259   3.130
 2819SOL    HW2 8474   3.601   4.292   3.024
 2820SOL     OW 8475   2.533   4.188   3.131
 2820SOL    HW1 8476   2.499   4.099   3.101
 2820SOL    HW2 8477   2.559   4.242   3.051
 2821SOL     OW 8478   2.335   4.224   2.053
 2821SOL    HW1 8479   2.396   4.304   2.057
 2821SOL    HW2 8480   2.240   4.255   2.060
 2822SOL     OW 8481   2.021   4.861   3.328
 2822SOL    HW1 8482   2.043   4.800   3.404
 2822SOL    HW2 8483   2.031   4.812   3.242
 2823SOL     OW 8484   3.209   4.783   3.096
 2823SOL    HW1 8485   3.233   4.720   3.022
 2823SOL    HW2 8486   3.119   4.823   3.078
 2824SOL     OW 8487   3.164   4.579   2.171
 2824SOL    HW1 8488   3.078   4.548   2.213
 2824SOL    HW2 8489   3.160   4.565   2.072
 2825SOL     OW 8490   3.588   3.859   2.385
 2825SOL    HW1 8491   3.661   3.842   2.318
 2825SOL    HW2 8492   3.557   3.772   2.423
 2826SOL     OW 8493   3.142   4.651   2.534
 2826SOL    HW1 8494   3.202   4.570   2.536
 2826SOL    HW2 8495   3.182   4.720   2.474
 2827SOL     OW 8496   3.703   3.899   2.825
 2827SOL    HW1 8497   3.742   3.814   2.789
 2827SOL    HW2 8498   3.605   3.901   2.806
 2828SOL     OW 8499   2.125   4.050   2.582
 2828SOL    HW1 8500   2.046   4.101   2.548
 2828SOL    HW2 8501   2.116   4.035   2.680
 2829SOL     OW 8502   2.684   4.726   3.234
 2829SOL    HW1 8503   2.724   4.725   3.142
 2829SOL    HW2 8504   2.694   4.818   3.274
 2830SOL     OW 8505   2.778   4.634   2.153
 2830SOL    HW1 8506   2.841   4.672   2.085
 2830SOL    HW2 8507   2.818   4.551   2.192
 2831SOL     OW 8508   2.234   5.012   3.352
 2831SOL    HW1 8509   2.221   5.105   3.318
 2831SOL    HW2 8510   2.150   4.960   3.339
 2832SOL     OW 8511   2.876   3.960   2.833
 2832SOL    HW1 8512   2.868   3.924   2.740
 2832SOL    HW2 8513   2.874   3.884   2.898
 2833SOL     OW 8514   3.571   4.109   3.243
 2833SOL    HW1 8515   3.644   4.178   3.247
 2833SOL    HW2 8516   3.599   4.034   3.184
 2834SOL     OW 8517   1.967   4.737   3.588
 2834SOL    HW1 8518   1.890   4.704   3.642
 2834SOL    HW2 8519   2.052   4.707   3.630
 2835SOL     OW 8520   2.534   3.927   3.351
 2835SOL    HW1 8521   2.624   3.911   3.311
 2835SOL    HW2 8522   2.542   3.932   3.450
 2836SOL     OW 8523   1.937   4.069   1.895
 2836SOL    HW1 8524   1.845   4.041   1.866
 2836SOL    HW2 8525   1.968   4.146   1.839
 2837SOL     OW 8526   3.302   4.580   3.260
 2837SOL    HW1 8527   3.245   4.632   3.197
 2837SOL    HW2 8528   3.398   4.592   3.236
 2838SOL     OW 8529   1.934   3.890   2.180
 2838SOL    HW1 8530   1.917   3.973   2.126
 2838SOL    HW2 8531   2.024   3.853   2.158
 2839SOL     OW 8532   3.045   5.059   1.981
 2839SOL    HW1 8533   2.946   5.048   1.983
 2839SOL    HW2 8534   3.079   5.074   2.074
 2840SOL     OW 8535   2.475   4.566   3.293
 2840SOL    HW1 8536   2.531   4.647   3.276
 2840SOL    HW2 8537   2.534   4.486   3.296
 2841SOL     OW 8538   2.578   4.289   3.570
 2841SOL    HW1 8539   2.597   4.354   3.644
 2841SOL    HW2 8540   2.638   4.209   3.579
 2842SOL     OW 8541   3.312   4.944   3.495
 2842SOL    HW1 8542   3.303   4.934   3.594
 2842SOL    HW2 8543   3.408   4.937   3.469
 2843SOL     OW 8544   3.536   4.607   3.116
 2843SOL    HW1 8545   3.509   4.518   3.079
 2843SOL    HW2 8546   3.537   4.675   3.043
 2844SOL     OW 8547   3.087   4.049   2.311
 2844SOL    HW1 8548   3.152   3.975   2.300
 2844SOL    HW2 8549   3.107   4.099   2.395
 2845SOL     OW 8550   2.456   4.469   2.514
 2845SOL    HW1 8551   2.506   4.554   2.495
 2845SOL    HW2 8552   2.368   4.471   2.466
 2846SOL     OW 8553   3.639   4.066   3.504
 2846SOL    HW1 8554   3.622   4.097   3.410
 2846SOL    HW2 8555   3.555   4.029   3.542
 2847SOL     OW 8556   3.592   4.658   3.379
 2847SOL    HW1 8557   3.630   4.749   3.394
 2847SOL    HW2 8558   3.584   4.641   3.280
 2848SOL     OW 8559   2.721   4.680   2.723
 2848SOL    HW1 8560   2.775   4.611   2.771
 2848SOL    HW2 8561   2.689   4.749   2.789
 2849SOL     OW 8562   2.945   4.708   1.949
 2849SOL    HW1 8563   2.922   4.761   1.867
 2849SOL    HW2 8564   3.026   4.652   1.930
 2850SOL     OW 8565   3.686   3.916   3.089
 2850SOL    HW1 8566   3.682   3.826   3.133
 2850SOL    HW2 8567   3.689   3.905   2.990
 2851SOL     OW 8568   2.290   4.148   2.382
 2851SOL    HW1 8569   2.320   4.076   2.320
 2851SOL    HW2 8570   2.251   4.108   2.465
 2852SOL     OW 8571   2.179   4.271   3.142
 2852SOL    HW1 8572   2.217   4.212   3.214
 2852SOL    HW2 8573   2.219   4.245   3.054
 2853SOL     OW 8574   3.286   3.938   2.974
 2853SOL    HW1 8575   3.338   3.873   3.029
 2853SOL    HW2 8576   3.237   4.001   3.035
 2854SOL     OW 8577   2.863   3.758   3.016
 2854SOL    HW1 8578   2.800   3.686   2.985
 2854SOL    HW2 8579   2.956   3.722   3.016
 2855SOL     OW 8580   2.632   5.054   2.163
 2855SOL    HW1 8581   2.586   4.967   2.180
 2855SOL    HW2 8582   2.723   5.051   2.204
 2856SOL     OW 8583   3.214   3.776   2.030
 2856SOL    HW1 8584   3.249   3.735   1.946
 2856SOL    HW2 8585   3.124   3.738   2.050
 2857SOL     OW 8586   3.162   4.177   2.553
 2857SOL    HW1 8587   3.103   4.257   2.557
 2857SOL    HW2 8588   3.177   4.142   2.646
 2858SOL     OW 8589   3.455   3.945   2.744
 2858SOL    HW1 8590   3.371   3.944   2.798
 2858SOL    HW2 8591   3.457   4.028   2.688
 2859SOL     OW 8592   1.901   4.801   2.162
 2859SOL    HW1 8593   2.000   4.790   2.153
 2859SOL    HW2 8594   1.861   4.715   2.194
 2860SOL     OW 8595   2.092   4.352   3.837
 2860SOL    HW1 8596   1.999   4.350   3.874
 2860SOL    HW2 8597   2.093   4.313   3.745
 2861SOL     OW 8598   2.087   3.999   4.720
 2861SOL    HW1 8599   2.122   3.982   4.812
 2861SOL    HW2 8600   1.999   3.954   4.708
 2862SOL     OW 8601   1.881   4.092   4.371
 2862SOL    HW1 8602   1.799   4.135   4.410
 2862SOL    HW2 8603   1.853   4.019   4.308
 2863SOL     OW 8604   2.997   4.427   4.441
 2863SOL    HW1 8605   3.054   4.505   4.416
 2863SOL    HW2 8606   2.937   4.453   4.517
 2864SOL     OW 8607   3.617   4.331   3.955
 2864SOL    HW1 8608   3.605   4.318   3.856
 2864SOL    HW2 8609   3.587   4.250   4.004
 2865SOL     OW 8610   2.630   4.868   4.747
 2865SOL    HW1 8611   2.552   4.885   4.807
 2865SOL    HW2 8612   2.664   4.955   4.711
 2866SOL     OW 8613   2.547   4.736   4.389
 2866SOL    HW1 8614   2.616   4.720   4.459
 2866SOL    HW2 8615   2.474   4.793   4.427
 2867SOL     OW 8616   3.465   4.171   4.461
 2867SOL    HW1 8617   3.391   4.217   4.411
 2867SOL    HW2 8618   3.516   4.239   4.514
 2868SOL     OW 8619   2.102   4.815   4.610
 2868SOL    HW1 8620   2.116   4.731   4.662
 2868SOL    HW2 8621   2.047   4.879   4.665
 2869SOL     OW 8622   2.468   4.688   3.847
 2869SOL    HW1 8623   2.475   4.772   3.793
 2869SOL    HW2 8624   2.514   4.701   3.935
 2870SOL     OW 8625   1.984   4.367   4.287
 2870SOL    HW1 8626   1.939   4.279   4.304
 2870SOL    HW2 8627   1.983   4.421   4.371
 2871SOL     OW 8628   3.551   4.646   4.336
 2871SOL    HW1 8629   3.646   4.617   4.344
 2871SOL    HW2 8630   3.543   4.711   4.261
 2872SOL     OW 8631   2.475   5.089   4.450
 2872SOL    HW1 8632   2.426   5.002   4.459
 2872SOL    HW2 8633   2.452   5.132   4.363
 2873SOL     OW 8634   2.671   3.728   4.226
 2873SOL    HW1 8635   2.711   3.819   4.217
 2873SOL    HW2 8636   2.571   3.736   4.232
 2874SOL     OW 8637   2.059   4.700   4.988
 2874SOL    HW1 8638   2.148   4.655   4.974
 2874SOL    HW2 8639   1.986   4.635   4.969
 2875SOL     OW 8640   3.387   4.723   3.914
 2875SOL    HW1 8641   3.324   4.647   3.927
 2875SOL    HW2 8642   3.435   4.741   4.000
 2876SOL     OW 8643   2.460   4.453   3.994
 2876SOL    HW1 8644   2.484   4.522   3.926
 2876SOL    HW2 8645   2.382   4.486   4.048
 2877SOL     OW 8646   3.143   4.069   4.668
 2877SOL    HW1 8647   3.057   4.019   4.655
 2877SOL    HW2 8648   3.205   4.015   4.724
 2878SOL     OW 8649   2.903   4.425   4.153
 2878SOL    HW1 8650   2.929   4.421   4.249
 2878SOL    HW2 8651   2.818   4.374   4.139
 2879SOL     OW 8652   1.938   4.535   4.513
 2879SOL    HW1 8653   2.037   4.523   4.522
 2879SOL    HW2 8654   1.914   4.630   4.534
 2880SOL     OW 8655   2.727   4.072   3.919
 2880SOL    HW1 8656   2.786   4.135   3.870
 2880SOL    HW2 8657   2.746   3.978   3.890
 2881SOL     OW 8658   2.412   3.920   4.609
 2881SOL    HW1 8659   2.407   3.915   4.709
 2881SOL    HW2 8660   2.414   4.016   4.580
 2882SOL     OW 8661   3.657   4.790   4.597
 2882SOL    HW1 8662   3.595   4.775   4.521
 2882SOL    HW2 8663   3.605   4.801   4.682
 2883SOL     OW 8664   2.183   4.667   3.966
 2883SOL    HW1 8665   2.265   4.706   3.924
 2883SOL    HW2 8666   2.156   4.585   3.917
 2884SOL     OW 8667   3.320   4.459   4.452
 2884SOL    HW1 8668   3.315   4.394   4.527
 2884SOL    HW2 8669   3.400   4.518   4.465
 2885SOL     OW 8670   3.262   3.831   4.150
 2885SOL    HW1 8671   3.238   3.794   4.060
 2885SOL    HW2 8672   3.361   3.847   4.154
 2886SOL     OW 8673   2.244   4.424   4.204
 2886SOL    HW1 8674   2.289   4.334   4.201
 2886SOL    HW2 8675   2.150   4.413   4.237
 2887SOL     OW 8676   2.476   3.846   3.841
 2887SOL    HW1 8677   2.574   3.824   3.848
 2887SOL    HW2 8678   2.445   3.829   3.748
 2888SOL     OW 8679   2.750   5.238   4.919
 2888SOL    HW1 8680   2.727   5.213   4.825
 2888SOL    HW2 8681   2.811   5.169   4.958
 2889SOL     OW 8682   2.784   4.227   4.623
 2889SOL    HW1 8683   2.759   4.218   4.527
 2889SOL    HW2 8684   2.832   4.145   4.654
 2890SOL     OW 8685   2.401   3.788   4.236
 2890SOL    HW1 8686   2.320   3.789   4.294
 2890SOL    HW2 8687   2.404   3.871   4.181
 2891SOL     OW 8688   2.159   3.759   3.895
 2891SOL    HW1 8689   2.208   3.843   3.874
 2891SOL    HW2 8690   2.221   3.694   3.940
 2892SOL     OW 8691   2.797   3.960   4.204
 2892SOL    HW1 8692   2.749   4.001   4.126
 2892SOL    HW2 8693   2.896   3.958   4.185
 2893SOL     OW 8694   2.321   4.876   4.465
 2893SOL    HW1 8695   2.250   4.849   4.530
 2893SOL    HW2 8696   2.295   4.848   4.372
 2894SOL     OW 8697   2.894   4.273   3.740
 2894SOL    HW1 8698   2.853   4.355   3.701
 2894SOL    HW2 8699   2.958   4.299   3.813
 2895SOL     OW 8700   2.728   4.178   4.366
 2895SOL    HW1 8701   2.696   4.250   4.304
 2895SOL    HW2 8702   2.752   4.097   4.313
 2896SOL     OW 8703   2.879   3.763   4.477
 2896SOL    HW1 8704   2.807   3.768   4.408
 2896SOL    HW2 8705   2.855   3.694   4.546
 2897SOL     OW 8706   3.291   4.897   4.591
 2897SOL    HW1 8707   3.236   4.813   4.584
 2897SOL    HW2 8708   3.317   4.926   4.499
 2898SOL     OW 8709   3.328   4.314   4.716
 2898SOL    HW1 8710   3.298   4.219   4.723
 2898SOL    HW2 8711   3.401   4.330   4.782
 2899SOL     OW 8712   3.719   4.557   4.101
 2899SOL    HW1 8713   3.761   4.493   4.165
 2899SOL    HW2 8714   3.681   4.506   4.023
 2900SOL     OW 8715   3.252   4.299   3.802
 2900SOL    HW1 8716   3.198   4.278   3.883
 2900SOL    HW2 8717   3.343   4.258   3.811
 2901SOL     OW 8718   2.389   3.980   4.052
 2901SOL    HW1 8719   2.416   3.921   3.977
 2901SOL    HW2 8720   2.389   4.075   4.021
 2902SOL     OW 8721   2.973   4.919   4.824
 2902SOL    HW1 8722   2.933   4.963   4.905
 2902SOL    HW2 8723   2.932   4.956   4.741
 2903SOL     OW 8724   3.500   4.823   4.803
 2903SOL    HW1 8725   3.505   4.904   4.862
 2903SOL    HW2 8726   3.414   4.825   4.752
 2904SOL     OW 8727   2.567   4.774   4.092
 2904SOL    HW1 8728   2.553   4.781   4.191
 2904SOL    HW2 8729   2.651   4.723   4.074
 2905SOL     OW 8730   2.272   4.537   4.975
 2905SOL    HW1 8731   2.358   4.549   5.025
 2905SOL    HW2 8732   2.230   4.450   5.002
 2906SOL     OW 8733   2.229   4.824   4.225
 2906SOL    HW1 8734   2.222   4.907   4.169
 2906SOL    HW2 8735   2.233   4.744   4.165
 2907SOL     OW 8736   2.428   4.261   4.589
 2907SOL    HW1 8737   2.440   4.327   4.515
 2907SOL    HW2 8738   2.474   4.295   4.672
 2908SOL     OW 8739   3.444   4.363   4.196
 2908SOL    HW1 8740   3.413   4.424   4.269
 2908SOL    HW2 8741   3.494   4.415   4.127
 2909SOL     OW 8742   2.435   4.594   4.753
 2909SOL    HW1 8743   2.479   4.683   4.744
 2909SOL    HW2 8744   2.372   4.594   4.830
 2910SOL     OW 8745   3.071   4.249   3.999
 2910SOL    HW1 8746   3.084   4.165   4.053
 2910SOL    HW2 8747   3.042   4.323   4.059
 2911SOL     OW 8748   2.594   4.358   4.788
 2911SOL    HW1 8749   2.653   4.332   4.712
 2911SOL    HW2 8750   2.566   4.454   4.777
 2912SOL     OW 8751   2.169   3.787   4.342
 2912SOL    HW1 8752   2.158   3.881   4.375
 2912SOL    HW2 8753   2.164   3.724   4.419
 2913SOL     OW 8754   3.484   4.091   4.098
 2913SOL    HW1 8755   3.486   4.015   4.162
 2913SOL    HW2 8756   3.436   4.168   4.138
 2914SOL     OW 8757   2.885   4.490   4.690
 2914SOL    HW1 8758   2.900   4.511   4.786
 2914SOL    HW2 8759   2.855   4.395   4.681
 2915SOL     OW 8760   3.402   3.998   3.849
 2915SOL    HW1 8761   3.341   3.923   3.872
 2915SOL    HW2 8762   3.424   4.050   3.932
 2916SOL     OW 8763   3.165   4.562   3.766
 2916SOL    HW1 8764   3.199   4.469   3.781
 2916SOL    HW2 8765   3.183   4.589   3.671
 2917SOL     OW 8766   2.181   4.534   4.673
 2917SOL    HW1 8767   2.274   4.570   4.678
 2917SOL    HW2 8768   2.175   4.449   4.725
 2918SOL     OW 8769   2.201   4.233   4.730
 2918SOL    HW1 8770   2.149   4.150   4.713
 2918SOL    HW2 8771   2.278   4.238   4.666
 2919SOL     OW 8772   2.864   4.520   4.962
 2919SOL    HW1 8773   2.905   4.488   5.048
 2919SOL    HW2 8774   2.768   4.493   4.959
 2920SOL     OW 8775   1.902   4.268   4.838
 2920SOL    HW1 8776   1.987   4.235   4.797
 2920SOL    HW2 8777   1.915   4.283   4.936
 2921SOL     OW 8778   2.677   4.296   4.049
 2921SOL    HW1 8779   2.684   4.207   4.003
 2921SOL    HW2 8780   2.583   4.330   4.041
 2922SOL     OW 8781   2.533   4.188   4.993
 2922SOL    HW1 8782   2.499   4.099   4.963
 2922SOL    HW2 8783   2.559   4.242   4.913
 2923SOL     OW 8784   2.335   4.224   3.915
 2923SOL    HW1 8785   2.396   4.304   3.919
 2923SOL    HW2 8786   2.240   4.255   3.922
 2924SOL     OW 8787   3.209   4.783   4.958
 2924SOL    HW1 8788   3.233   4.720   4.884
 2924SOL    HW2 8789   3.119   4.823   4.940
 2925SOL     OW 8790   3.164   4.579   4.033
 2925SOL    HW1 8791   3.078   4.548   4.075
 2925SOL    HW2 8792   3.160   4.565   3.934
 2926SOL     OW 8793   3.588   3.859   4.247
 2926SOL    HW1 8794   3.661   3.842   4.180
 2926SOL    HW2 8795   3.557   3.772   4.285
 2927SOL     OW 8796   3.142   4.651   4.396
 2927SOL    HW1 8797   3.202   4.570   4.398
 2927SOL    HW2 8798   3.182   4.720   4.336
 2928SOL     OW 8799   3.703   3.899   4.687
 2928SOL    HW1 8800   3.742   3.814   4.651
 2928SOL    HW2 8801   3.605   3.901   4.668
 2929SOL     OW 8802   2.125   4.050   4.444
 2929SOL    HW1 8803   2.046   4.101   4.410
 2929SOL    HW2 8804   2.116   4.035   4.542
 2930SOL     OW 8805   2.684   4.726   5.096
 2930SOL    HW1 8806   2.724   4.725   5.004
 2930SOL    HW2 8807   2.694   4.818   5.136
 2931SOL     OW 8808   2.778   4.634   4.015
 2931SOL    HW1 8809   2.841   4.672   3.947
 2931SOL    HW2 8810   2.818   4.551   4.054
 2932SOL     OW 8811   2.876   3.960   4.695
 2932SOL    HW1 8812   2.868   3.924   4.602
 2932SOL    HW2 8813   2.874   3.884   4.760
 2933SOL     OW 8814   1.937   4.069   3.757
 2933SOL    HW1 8815   1.845   4.041   3.728
 2933SOL    HW2 8816   1.968   4.146   3.701
 2934SOL     OW 8817   1.934   3.890   4.042
 2934SOL    HW1 8818   1.917   3.973   3.988
 2934SOL    HW2 8819   2.024   3.853   4.020
 2935SOL     OW 8820   3.045   5.059   3.843
 2935SOL    HW1 8821   2.946   5.048   3.845
 2935SOL    HW2 8822   3.079   5.074   3.936
 2936SOL     OW 8823   3.536   4.607   4.978
 2936SOL    HW1 8824   3.509   4.518   4.941
 2936SOL    HW2 8825   3.537   4.675   4.905
 2937SOL     OW 8826   3.087   4.049   4.173
 2937SOL    HW1 8827   3.152   3.975   4.162
 2937SOL    HW2 8828   3.107   4.099   4.257
 2938SOL     OW 8829   2.456   4.469   4.376
 2938SOL    HW1 8830   2.506   4.554   4.357
 2938SOL    HW2 8831   2.368   4.471   4.328
 2939SOL     OW 8832   2.721   4.680   4.585
 2939SOL    HW1 8833   2.775   4.611   4.633
 2939SOL    HW2 8834   2.689   4.749   4.651
 2940SOL     OW 8835   2.945   4.708   3.811
 2940SOL    HW1 8836   2.922   4.761   3.729
 2940SOL    HW2 8837   3.026   4.652   3.792
 2941SOL     OW 8838   3.686   3.916   4.951
 2941SOL    HW1 8839   3.682   3.826   4.995
 2941SOL    HW2 8840   3.689   3.905   4.852
 2942SOL     OW 8841   2.290   4.148   4.244
 2942SOL    HW1 8842   2.320   4.076   4.182
 2942SOL    HW2 8843   2.251   4.108   4.327
 2943SOL     OW 8844   3.286   3.938   4.836
 2943SOL    HW1 8845   3.338   3.873   4.891
 2943SOL    HW2 8846   3.237   4.001   4.897
 2944SOL     OW 8847   2.632   5.054   4.025
 2944SOL    HW1 8848   2.586   4.967   4.042
 2944SOL    HW2 8849   2.723   5.051   4.066
 2945SOL     OW 8850   3.214   3.776   3.892
 2945SOL    HW1 8851   3.249   3.735   3.808
 2945SOL    HW2 8852   3.124   3.738   3.912
 2946SOL     OW 8853   3.162   4.177   4.415
 2946SOL    HW1 8854   3.103   4.257   4.419
 2946SOL    HW2 8855   3.177   4.142   4.508
 2947SOL     OW 8856   3.455   3.945   4.606
 2947SOL    HW1 8857   3.371   3.944   4.660
 2947SOL    HW2 8858   3.457   4.028   4.550
 2948SOL     OW 8859   1.901   4.801   4.024
 2948SOL    HW1 8860   2.000   4.790   4.015
 2948SOL    HW2 8861   1.861   4.715   4.056
 2949SOL     OW 8862   3.954   0.628   0.113
 2949SOL    HW1 8863   3.861   0.626   0.150
 2949SOL    HW2 8864   3.955   0.589   0.021
 2950SOL     OW 8865   3.949   0.275   0.996
 2950SOL    HW1 8866   3.984   0.258   1.088
 2950SOL    HW2 8867   3.861   0.230   0.984
 2951SOL     OW 8868   3.743   0.368   0.647
 2951SOL    HW1 8869   3.661   0.411   0.686
 2951SOL    HW2 8870   3.715   0.295   0.584
 2952SOL     OW 8871   4.293   1.275   1.165
 2952SOL    HW1 8872   4.200   1.268   1.128
 2952SOL    HW2 8873   4.304   1.364   1.209
 2953SOL     OW 8874   4.492   1.144   1.023
 2953SOL    HW1 8875   4.414   1.161   1.083
 2953SOL    HW2 8876   4.526   1.231   0.987
 2954SOL     OW 8877   4.574   0.798   1.823
 2954SOL    HW1 8878   4.570   0.874   1.888
 2954SOL    HW2 8879   4.596   0.834   1.732
 2955SOL     OW 8880   4.409   1.012   0.665
 2955SOL    HW1 8881   4.478   0.996   0.735
 2955SOL    HW2 8882   4.336   1.069   0.703
 2956SOL     OW 8883   4.410   1.161   1.803
 2956SOL    HW1 8884   4.470   1.240   1.817
 2956SOL    HW2 8885   4.324   1.192   1.762
 2957SOL     OW 8886   4.059   1.435   1.061
 2957SOL    HW1 8887   3.981   1.404   1.008
 2957SOL    HW2 8888   4.117   1.493   1.004
 2958SOL     OW 8889   4.162   0.392   1.499
 2958SOL    HW1 8890   4.244   0.336   1.508
 2958SOL    HW2 8891   4.081   0.334   1.503
 2959SOL     OW 8892   3.955   1.713   0.483
 2959SOL    HW1 8893   3.989   1.790   0.537
 2959SOL    HW2 8894   3.999   1.713   0.393
 2960SOL     OW 8895   4.851   1.341   1.690
 2960SOL    HW1 8896   4.898   1.341   1.778
 2960SOL    HW2 8897   4.803   1.254   1.679
 2961SOL     OW 8898   3.954   1.434   0.538
 2961SOL    HW1 8899   3.928   1.530   0.538
 2961SOL    HW2 8900   3.883   1.380   0.583
 2962SOL     OW 8901   3.964   1.091   0.886
 2962SOL    HW1 8902   3.978   1.007   0.938
 2962SOL    HW2 8903   3.909   1.155   0.941
 2963SOL     OW 8904   4.344   1.786   1.439
 2963SOL    HW1 8905   4.252   1.769   1.474
 2963SOL    HW2 8906   4.372   1.878   1.465
 2964SOL     OW 8907   4.330   0.964   0.123
 2964SOL    HW1 8908   4.337   1.048   0.069
 2964SOL    HW2 8909   4.376   0.977   0.211
 2965SOL     OW 8910   3.846   0.643   0.563
 2965SOL    HW1 8911   3.801   0.555   0.580
 2965SOL    HW2 8912   3.845   0.697   0.647
 2966SOL     OW 8913   3.751   1.596   0.117
 2966SOL    HW1 8914   3.732   1.500   0.138
 2966SOL    HW2 8915   3.718   1.654   0.192
 2967SOL     OW 8916   3.837   0.737   1.597
 2967SOL    HW1 8917   3.925   0.724   1.642
 2967SOL    HW2 8918   3.824   0.834   1.575
 2968SOL     OW 8919   4.337   1.365   0.726
 2968SOL    HW1 8920   4.288   1.278   0.735
 2968SOL    HW2 8921   4.314   1.408   0.639
 2969SOL     OW 8922   4.533   0.004   0.502
 2969SOL    HW1 8923   4.573   0.095   0.493
 2969SOL    HW2 8924   4.433   0.012   0.508
 2970SOL     OW 8925   3.921   0.976   1.264
 2970SOL    HW1 8926   4.010   0.931   1.250
 2970SOL    HW2 8927   3.848   0.911   1.245
 2971SOL     OW 8928   4.041   0.251   1.801
 2971SOL    HW1 8929   4.112   0.322   1.807
 2971SOL    HW2 8930   3.953   0.290   1.829
 2972SOL     OW 8931   4.322   0.729   0.270
 2972SOL    HW1 8932   4.346   0.798   0.202
 2972SOL    HW2 8933   4.244   0.762   0.324
 2973SOL     OW 8934   4.531   0.605   1.465
 2973SOL    HW1 8935   4.484   0.602   1.554
 2973SOL    HW2 8936   4.480   0.550   1.399
 2974SOL     OW 8937   4.697   0.890   1.572
 2974SOL    HW1 8938   4.743   0.806   1.543
 2974SOL    HW2 8939   4.641   0.924   1.497
 2975SOL     OW 8940   4.715   0.410   1.242
 2975SOL    HW1 8941   4.638   0.444   1.296
 2975SOL    HW2 8942   4.681   0.359   1.163
 2976SOL     OW 8943   4.765   0.701   0.429
 2976SOL    HW1 8944   4.791   0.697   0.525
 2976SOL    HW2 8945   4.680   0.650   0.415
 2977SOL     OW 8946   3.800   0.811   0.789
 2977SOL    HW1 8947   3.899   0.799   0.798
 2977SOL    HW2 8948   3.776   0.906   0.810
 2978SOL     OW 8949   3.854   1.821   1.571
 2978SOL    HW1 8950   3.844   1.806   1.670
 2978SOL    HW2 8951   3.768   1.857   1.535
 2979SOL     OW 8952   4.589   0.348   0.195
 2979SOL    HW1 8953   4.648   0.411   0.146
 2979SOL    HW2 8954   4.608   0.254   0.166
 2980SOL     OW 8955   4.274   0.196   0.885
 2980SOL    HW1 8956   4.269   0.191   0.985
 2980SOL    HW2 8957   4.276   0.292   0.856
 2981SOL     OW 8958   4.732   1.456   0.477
 2981SOL    HW1 8959   4.686   1.528   0.425
 2981SOL    HW2 8960   4.728   1.476   0.575
 2982SOL     OW 8961   4.075   1.801   0.853
 2982SOL    HW1 8962   4.125   1.715   0.859
 2982SOL    HW2 8963   4.140   1.878   0.850
 2983SOL     OW 8964   4.045   0.943   0.242
 2983SOL    HW1 8965   4.127   0.982   0.200
 2983SOL    HW2 8966   4.018   0.861   0.193
 2984SOL     OW 8967   4.185   1.266   1.727
 2984SOL    HW1 8968   4.135   1.267   1.641
 2984SOL    HW2 8969   4.122   1.248   1.803
 2985SOL     OW 8970   3.926   0.285   1.498
 2985SOL    HW1 8971   3.846   0.345   1.485
 2985SOL    HW2 8972   3.916   0.236   1.584
 2986SOL     OW 8973   4.188   1.743   0.323
 2986SOL    HW1 8974   4.221   1.782   0.409
 2986SOL    HW2 8975   4.264   1.736   0.258
 2987SOL     OW 8976   3.973   1.785   1.241
 2987SOL    HW1 8977   4.030   1.720   1.291
 2987SOL    HW2 8978   3.957   1.752   1.148
 2988SOL     OW 8979   4.664   1.698   0.904
 2988SOL    HW1 8980   4.744   1.641   0.925
 2988SOL    HW2 8981   4.615   1.658   0.827
 2989SOL     OW 8982   4.106   0.700   0.480
 2989SOL    HW1 8983   4.151   0.610   0.477
 2989SOL    HW2 8984   4.012   0.689   0.513
 2990SOL     OW 8985   4.338   0.122   0.117
 2990SOL    HW1 8986   4.436   0.100   0.124
 2990SOL    HW2 8987   4.307   0.105   0.024
 2991SOL     OW 8988   4.505   0.264   1.749
 2991SOL    HW1 8989   4.572   0.203   1.792
 2991SOL    HW2 8990   4.432   0.283   1.814
 2992SOL     OW 8991   4.612   1.514   1.195
 2992SOL    HW1 8992   4.589   1.489   1.101
 2992SOL    HW2 8993   4.673   1.445   1.234
 2993SOL     OW 8994   4.527   1.402   0.924
 2993SOL    HW1 8995   4.617   1.416   0.882
 2993SOL    HW2 8996   4.456   1.404   0.853
 2994SOL     OW 8997   4.646   0.503   0.899
 2994SOL    HW1 8998   4.621   0.494   0.803
 2994SOL    HW2 8999   4.694   0.421   0.930
 2995SOL     OW 9000   4.263   0.064   0.512
 2995SOL    HW1 9001   4.182   0.065   0.570
 2995SOL    HW2 9002   4.266   0.147   0.457
 2996SOL     OW 9003   5.158   1.188   0.041
 2996SOL    HW1 9004   5.190   1.112   0.098
 2996SOL    HW2 9005   5.066   1.215   0.071
 2997SOL     OW 9006   4.021   0.035   0.171
 2997SOL    HW1 9007   4.070   0.119   0.150
 2997SOL    HW2 9008   4.083  -0.030   0.216
 2998SOL     OW 9009   4.659   0.236   0.480
 2998SOL    HW1 9010   4.611   0.277   0.402
 2998SOL    HW2 9011   4.758   0.234   0.461
 2999SOL     OW 9012   4.951   1.570   0.793
 2999SOL    HW1 9013   4.972   1.644   0.728
 2999SOL    HW2 9014   5.019   1.570   0.866
 3000SOL     OW 9015   4.183   1.152   0.741
 3000SOL    HW1 9016   4.112   1.125   0.806
 3000SOL    HW2 9017   4.157   1.124   0.648
 3001SOL     OW 9018   4.995   1.797   0.591
 3001SOL    HW1 9019   5.039   1.861   0.527
 3001SOL    HW2 9020   4.945   1.849   0.661
 3002SOL     OW 9021   4.756   0.549   0.016
 3002SOL    HW1 9022   4.715   0.631  -0.023
 3002SOL    HW2 9023   4.820   0.575   0.089
 3003SOL     OW 9024   3.802   0.556   1.386
 3003SOL    HW1 9025   3.894   0.555   1.345
 3003SOL    HW2 9026   3.796   0.630   1.453
 3004SOL     OW 9027   4.285   0.222   1.147
 3004SOL    HW1 9028   4.323   0.138   1.184
 3004SOL    HW2 9029   4.197   0.241   1.191
 3005SOL     OW 9030   4.590   0.454   0.642
 3005SOL    HW1 9031   4.558   0.526   0.580
 3005SOL    HW2 9032   4.614   0.373   0.589
 3006SOL     OW 9033   4.741   0.039   0.753
 3006SOL    HW1 9034   4.669   0.044   0.684
 3006SOL    HW2 9035   4.717  -0.030   0.822
 3007SOL     OW 9036   4.212   1.385   0.174
 3007SOL    HW1 9037   4.125   1.370   0.221
 3007SOL    HW2 9038   4.195   1.411   0.079
 3008SOL     OW 9039   4.251   0.256   0.328
 3008SOL    HW1 9040   4.278   0.197   0.253
 3008SOL    HW2 9041   4.251   0.351   0.297
 3009SOL     OW 9042   4.639   0.089   1.402
 3009SOL    HW1 9043   4.664   0.069   1.307
 3009SOL    HW2 9044   4.711   0.145   1.444
 3010SOL     OW 9045   4.704   1.116   1.719
 3010SOL    HW1 9046   4.605   1.122   1.729
 3010SOL    HW2 9047   4.727   1.036   1.663
 3011SOL     OW 9048   4.429   1.050   0.368
 3011SOL    HW1 9049   4.415   1.057   0.467
 3011SOL    HW2 9050   4.513   0.999   0.350
 3012SOL     OW 9051   4.134   0.813   1.251
 3012SOL    HW1 9052   4.220   0.825   1.301
 3012SOL    HW2 9053   4.092   0.726   1.278
 3013SOL     OW 9054   3.788   1.564   1.331
 3013SOL    HW1 9055   3.742   1.646   1.297
 3013SOL    HW2 9056   3.886   1.583   1.340
 3014SOL     OW 9057   4.091   1.100   0.501
 3014SOL    HW1 9058   4.084   1.183   0.445
 3014SOL    HW2 9059   4.095   1.020   0.441
 3015SOL     OW 9060   4.290   0.537   0.865
 3015SOL    HW1 9061   4.302   0.603   0.791
 3015SOL    HW2 9062   4.336   0.571   0.948
 3016SOL     OW 9063   4.976   1.348   0.388
 3016SOL    HW1 9064   5.026   1.425   0.428
 3016SOL    HW2 9065   4.881   1.350   0.420
 3017SOL     OW 9066   4.078   1.510   1.329
 3017SOL    HW1 9067   4.057   1.466   1.242
 3017SOL    HW2 9068   4.175   1.536   1.332
 3018SOL     OW 9069   4.126   0.751   1.598
 3018SOL    HW1 9070   4.194   0.806   1.551
 3018SOL    HW2 9071   4.166   0.663   1.625
 3019SOL     OW 9072   4.737   0.105   1.770
 3019SOL    HW1 9073   4.743   0.190   1.718
 3019SOL    HW2 9074   4.769   0.029   1.713
 3020SOL     OW 9075   4.228   0.050   1.740
 3020SOL    HW1 9076   4.186  -0.007   1.670
 3020SOL    HW2 9077   4.162   0.119   1.772
 3021SOL     OW 9078   4.297   0.870   1.029
 3021SOL    HW1 9079   4.341   0.959   1.020
 3021SOL    HW2 9080   4.234   0.870   1.106
 3022SOL     OW 9081   4.933   0.525   0.275
 3022SOL    HW1 9082   4.946   0.441   0.329
 3022SOL    HW2 9083   4.904   0.599   0.335
 3023SOL     OW 9084   4.031   0.213   1.231
 3023SOL    HW1 9085   4.008   0.250   1.321
 3023SOL    HW2 9086   4.001   0.118   1.225
 3024SOL     OW 9087   3.761   1.310   1.282
 3024SOL    HW1 9088   3.814   1.261   1.350
 3024SOL    HW2 9089   3.783   1.408   1.287
 3025SOL     OW 9090   4.456   0.634   1.064
 3025SOL    HW1 9091   4.515   0.608   0.988
 3025SOL    HW2 9092   4.428   0.730   1.053
 3026SOL     OW 9093   4.031   0.063   0.618
 3026SOL    HW1 9094   4.020   0.157   0.651
 3026SOL    HW2 9095   4.026   0.000   0.695
 3027SOL     OW 9096   4.747   0.766   0.966
 3027SOL    HW1 9097   4.762   0.787   1.062
 3027SOL    HW2 9098   4.717   0.671   0.957
 3028SOL     OW 9099   4.704   1.573   1.700
 3028SOL    HW1 9100   4.684   1.617   1.612
 3028SOL    HW2 9101   4.743   1.482   1.684
 3029SOL     OW 9102   4.074   0.898   1.804
 3029SOL    HW1 9103   4.150   0.942   1.852
 3029SOL    HW2 9104   4.109   0.851   1.722
 3030SOL     OW 9105   4.792   1.333   0.849
 3030SOL    HW1 9106   4.799   1.249   0.794
 3030SOL    HW2 9107   4.854   1.402   0.813
 3031SOL     OW 9108   4.043   0.810   0.949
 3031SOL    HW1 9109   4.136   0.846   0.954
 3031SOL    HW2 9110   4.037   0.725   1.001
 3032SOL     OW 9111   4.063   0.509   1.006
 3032SOL    HW1 9112   4.011   0.426   0.989
 3032SOL    HW2 9113   4.140   0.514   0.942
 3033SOL     OW 9114   4.862   0.380   1.678
 3033SOL    HW1 9115   4.817   0.443   1.742
 3033SOL    HW2 9116   4.955   0.411   1.661
 3034SOL     OW 9117   3.732   1.326   0.200
 3034SOL    HW1 9118   3.639   1.347   0.169
 3034SOL    HW2 9119   3.742   1.227   0.213
 3035SOL     OW 9120   3.812   1.801   0.927
 3035SOL    HW1 9121   3.770   1.715   0.900
 3035SOL    HW2 9122   3.906   1.804   0.893
 3036SOL     OW 9123   4.228   1.568   0.910
 3036SOL    HW1 9124   4.294   1.642   0.919
 3036SOL    HW2 9125   4.272   1.489   0.868
 3037SOL     OW 9126   4.726   0.796   1.238
 3037SOL    HW1 9127   4.767   0.764   1.324
 3037SOL    HW2 9128   4.630   0.769   1.235
 3038SOL     OW 9129   3.764   0.544   1.114
 3038SOL    HW1 9130   3.849   0.511   1.073
 3038SOL    HW2 9131   3.777   0.559   1.212
 3039SOL     OW 9132   3.913   0.520   1.722
 3039SOL    HW1 9133   3.972   0.480   1.652
 3039SOL    HW2 9134   3.855   0.591   1.681
 3040SOL     OW 9135   4.539   0.572   0.325
 3040SOL    HW1 9136   4.546   0.483   0.279
 3040SOL    HW2 9137   4.445   0.606   0.317
 3041SOL     OW 9138   3.976   1.564   1.744
 3041SOL    HW1 9139   3.946   1.621   1.820
 3041SOL    HW2 9140   3.969   1.467   1.770
 3042SOL     OW 9141   4.395   0.464   1.269
 3042SOL    HW1 9142   4.361   0.375   1.239
 3042SOL    HW2 9143   4.421   0.518   1.189
 3043SOL     OW 9144   4.654   1.678   1.465
 3043SOL    HW1 9145   4.630   1.660   1.370
 3043SOL    HW2 9146   4.684   1.772   1.475
 3044SOL     OW 9147   4.197   0.500   0.191
 3044SOL    HW1 9148   4.258   0.580   0.195
 3044SOL    HW2 9149   4.102   0.531   0.198
 3045SOL     OW 9150   3.883   1.137   1.466
 3045SOL    HW1 9151   3.905   1.076   1.542
 3045SOL    HW2 9152   3.893   1.088   1.380
 3046SOL     OW 9153   5.026   0.855   0.309
 3046SOL    HW1 9154   4.940   0.824   0.351
 3046SOL    HW2 9155   5.022   0.841   0.210
 3047SOL     OW 9156   3.807   1.258   1.022
 3047SOL    HW1 9157   3.802   1.257   1.122
 3047SOL    HW2 9158   3.724   1.217   0.984
 3048SOL     OW 9159   4.412   1.662   1.716
 3048SOL    HW1 9160   4.356   1.743   1.725
 3048SOL    HW2 9161   4.464   1.666   1.630
 3049SOL     OW 9162   4.627   0.086   0.133
 3049SOL    HW1 9163   4.678   0.087   0.047
 3049SOL    HW2 9164   4.683   0.044   0.204
 3050SOL     OW 9165   3.854   1.794   1.851
 3050SOL    HW1 9166   3.813   1.720   1.904
 3050SOL    HW2 9167   3.918   1.845   1.909
 3051SOL     OW 9168   4.554   1.273   1.422
 3051SOL    HW1 9169   4.549   1.306   1.517
 3051SOL    HW2 9170   4.468   1.292   1.376
 3052SOL     OW 9171   4.396   1.616   0.154
 3052SOL    HW1 9172   4.405   1.626   0.055
 3052SOL    HW2 9173   4.356   1.527   0.175
 3053SOL     OW 9174   3.987   0.326   0.720
 3053SOL    HW1 9175   3.908   0.377   0.686
 3053SOL    HW2 9176   3.978   0.311   0.818
 3054SOL     OW 9177   4.546   1.002   1.372
 3054SOL    HW1 9178   4.586   1.001   1.280
 3054SOL    HW2 9179   4.556   1.094   1.412
 3055SOL     OW 9180   4.640   0.910   0.291
 3055SOL    HW1 9181   4.703   0.948   0.223
 3055SOL    HW2 9182   4.680   0.827   0.330
 3056SOL     OW 9183   4.096   1.288   1.490
 3056SOL    HW1 9184   4.083   1.381   1.456
 3056SOL    HW2 9185   4.012   1.236   1.477
 3057SOL     OW 9186   4.763   1.098   0.696
 3057SOL    HW1 9187   4.693   1.051   0.750
 3057SOL    HW2 9188   4.822   1.030   0.653
 3058SOL     OW 9189   4.738   0.236   0.971
 3058SOL    HW1 9190   4.730   0.200   0.878
 3058SOL    HW2 9191   4.736   0.160   1.036
 3059SOL     OW 9192   4.314   1.487   0.491
 3059SOL    HW1 9193   4.356   1.429   0.421
 3059SOL    HW2 9194   4.270   1.566   0.447
 3060SOL     OW 9195   3.979   1.348   0.290
 3060SOL    HW1 9196   3.883   1.349   0.263
 3060SOL    HW2 9197   3.991   1.401   0.374
 3061SOL     OW 9198   3.829   1.013   1.726
 3061SOL    HW1 9199   3.752   0.980   1.780
 3061SOL    HW2 9200   3.914   0.983   1.768
 3062SOL     OW 9201   4.396   0.203   1.489
 3062SOL    HW1 9202   4.486   0.187   1.449
 3062SOL    HW2 9203   4.404   0.208   1.588
 3063SOL     OW 9204   3.796   0.166   0.318
 3063SOL    HW1 9205   3.779   0.249   0.264
 3063SOL    HW2 9206   3.886   0.129   0.296
 3064SOL     OW 9207   4.337   0.842   1.431
 3064SOL    HW1 9208   4.393   0.923   1.414
 3064SOL    HW2 9209   4.396   0.762   1.434
 3065SOL     OW 9210   4.440   0.565   1.708
 3065SOL    HW1 9211   4.459   0.630   1.782
 3065SOL    HW2 9212   4.500   0.485   1.717
 3066SOL     OW 9213   4.114   1.741   1.560
 3066SOL    HW1 9214   4.023   1.782   1.558
 3066SOL    HW2 9215   4.107   1.647   1.592
 3067SOL     OW 9216   4.318   0.745   0.652
 3067SOL    HW1 9217   4.368   0.830   0.633
 3067SOL    HW2 9218   4.230   0.747   0.604
 3068SOL     OW 9219   4.583   1.374   0.016
 3068SOL    HW1 9220   4.537   1.389   0.104
 3068SOL    HW2 9221   4.627   1.459  -0.014
 3069SOL     OW 9222   4.385   1.790   0.953
 3069SOL    HW1 9223   4.339   1.878   0.940
 3069SOL    HW2 9224   4.484   1.802   0.946
 3070SOL     OW 9225   4.583   0.956   0.861
 3070SOL    HW1 9226   4.637   0.887   0.909
 3070SOL    HW2 9227   4.551   1.025   0.927
 3071SOL     OW 9228   4.807   0.984   0.087
 3071SOL    HW1 9229   4.784   1.037   0.005
 3071SOL    HW2 9230   4.888   0.928   0.068
 3072SOL     OW 9231   3.945   1.314   1.844
 3072SOL    HW1 9232   3.880   1.241   1.823
 3072SOL    HW2 9233   3.949   1.328   1.942
 3073SOL     OW 9234   3.803   1.240   0.653
 3073SOL    HW1 9235   3.802   1.193   0.741
 3073SOL    HW2 9236   3.885   1.212   0.602
 3074SOL     OW 9237   4.396   1.391   1.624
 3074SOL    HW1 9238   4.318   1.341   1.662
 3074SOL    HW2 9239   4.393   1.486   1.655
 3075SOL     OW 9240   4.152   0.424   0.520
 3075SOL    HW1 9241   4.182   0.352   0.458
 3075SOL    HW2 9242   4.113   0.384   0.603
 3076SOL     OW 9243   4.041   0.547   1.280
 3076SOL    HW1 9244   4.079   0.488   1.352
 3076SOL    HW2 9245   4.081   0.521   1.192
 3077SOL     OW 9246   4.536   1.586   0.687
 3077SOL    HW1 9247   4.568   1.596   0.593
 3077SOL    HW2 9248   4.457   1.524   0.689
 3078SOL     OW 9249   4.725   0.034   1.154
 3078SOL    HW1 9250   4.662  -0.038   1.123
 3078SOL    HW2 9251   4.818  -0.002   1.154
 3079SOL     OW 9252   4.494   1.330   0.301
 3079SOL    HW1 9253   4.448   1.243   0.318
 3079SOL    HW2 9254   4.585   1.327   0.342
 3080SOL     OW 9255   4.342   1.567   1.284
 3080SOL    HW1 9256   4.337   1.649   1.341
 3080SOL    HW2 9257   4.431   1.564   1.239
 3081SOL     OW 9258   3.763   1.077   0.300
 3081SOL    HW1 9259   3.862   1.066   0.291
 3081SOL    HW2 9260   3.723   0.991   0.332
 3082SOL     OW 9261   4.599   1.646   0.337
 3082SOL    HW1 9262   4.522   1.611   0.283
 3082SOL    HW2 9263   4.567   1.717   0.399
 3083SOL     OW 9264   3.954   0.628   1.975
 3083SOL    HW1 9265   3.861   0.626   2.012
 3083SOL    HW2 9266   3.955   0.589   1.883
 3084SOL     OW 9267   3.949   0.275   2.858
 3084SOL    HW1 9268   3.984   0.258   2.950
 3084SOL    HW2 9269   3.861   0.230   2.846
 3085SOL     OW 9270   3.743   0.368   2.509
 3085SOL    HW1 9271   3.661   0.411   2.548
 3085SOL    HW2 9272   3.715   0.295   2.446
 3086SOL     OW 9273   4.293   1.275   3.027
 3086SOL    HW1 9274   4.200   1.268   2.990
 3086SOL    HW2 9275   4.304   1.364   3.071
 3087SOL     OW 9276   4.492   1.144   2.885
 3087SOL    HW1 9277   4.414   1.161   2.945
 3087SOL    HW2 9278   4.526   1.231   2.849
 3088SOL     OW 9279   4.574   0.798   3.685
 3088SOL    HW1 9280   4.570   0.874   3.750
 3088SOL    HW2 9281   4.596   0.834   3.594
 3089SOL     OW 9282   4.409   1.012   2.527
 3089SOL    HW1 9283   4.478   0.996   2.597
 3089SOL    HW2 9284   4.336   1.069   2.565
 3090SOL     OW 9285   4.410   1.161   3.665
 3090SOL    HW1 9286   4.470   1.240   3.679
 3090SOL    HW2 9287   4.324   1.192   3.624
 3091SOL     OW 9288   4.059   1.435   2.923
 3091SOL    HW1 9289   3.981   1.404   2.870
 3091SOL    HW2 9290   4.117   1.493   2.866
 3092SOL     OW 9291   4.162   0.392   3.361
 3092SOL    HW1 9292   4.244   0.336   3.370
 3092SOL    HW2 9293   4.081   0.334   3.365
 3093SOL     OW 9294   3.955   1.713   2.345
 3093SOL    HW1 9295   3.989   1.790   2.399
 3093SOL    HW2 9296   3.999   1.713   2.255
 3094SOL     OW 9297   4.851   1.341   3.552
 3094SOL    HW1 9298   4.898   1.341   3.640
 3094SOL    HW2 9299   4.803   1.254   3.541
 3095SOL     OW 9300   3.954   1.434   2.400
 3095SOL    HW1 9301   3.928   1.530   2.400
 3095SOL    HW2 9302   3.883   1.380   2.445
 3096SOL     OW 9303   3.964   1.091   2.748
 3096SOL    HW1 9304   3.978   1.007   2.800
 3096SOL    HW2 9305   3.909   1.155   2.803
 3097SOL     OW 9306   4.344   1.786   3.301
 3097SOL    HW1 9307   4.252   1.769   3.336
 3097SOL    HW2 9308   4.372   1.878   3.327
 3098SOL     OW 9309   4.330   0.964   1.985
 3098SOL    HW1 9310   4.337   1.048   1.931
 3098SOL    HW2 9311   4.376   0.977   2.073
 3099SOL     OW 9312   3.846   0.643   2.425
 3099SOL    HW1 9313   3.801   0.555   2.442
 3099SOL    HW2 9314   3.845   0.697   2.509
 3100SOL     OW 9315   3.751   1.596   1.979
 3100SOL    HW1 9316   3.732   1.500   2.000
 3100SOL    HW2 9317   3.718   1.654   2.054
 3101SOL     OW 9318   3.837   0.737   3.459
 3101SOL    HW1 9319   3.925   0.724   3.504
 3101SOL    HW2 9320   3.824   0.834   3.437
 3102SOL     OW 9321   4.337   1.365   2.588
 3102SOL    HW1 9322   4.288   1.278   2.597
 3102SOL    HW2 9323   4.314   1.408   2.501
 3103SOL     OW 9324   4.533   0.004   2.364
 3103SOL    HW1 9325   4.573   0.095   2.355
 3103SOL    HW2 9326   4.433   0.012   2.370
 3104SOL     OW 9327   3.921   0.976   3.126
 3104SOL    HW1 9328   4.010   0.931   3.112
 3104SOL    HW2 9329   3.848   0.911   3.107
 3105SOL     OW 9330   4.041   0.251   3.663
 3105SOL    HW1 9331   4.112   0.322   3.669
 3105SOL    HW2 9332   3.953   0.290   3.691
 3106SOL     OW 9333   4.322   0.729   2.132
 3106SOL    HW1 9334   4.346   0.798   2.064
 3106SOL    HW2 9335   4.244   0.762   2.186
 3107SOL     OW 9336   4.531   0.605   3.327
 3107SOL    HW1 9337   4.484   0.602   3.416
 3107SOL    HW2 9338   4.480   0.550   3.261
 3108SOL     OW 9339   4.697   0.890   3.434
 3108SOL    HW1 9340   4.743   0.806   3.405
 3108SOL    HW2 9341   4.641   0.924   3.359
 3109SOL     OW 9342   4.715   0.410   3.104
 3109SOL    HW1 9343   4.638   0.444   3.158
 3109SOL    HW2 9344   4.681   0.359   3.025
 3110SOL     OW 9345   4.765   0.701   2.291
 3110SOL    HW1 9346   4.791   0.697   2.387
 3110SOL    HW2 9347   4.680   0.650   2.277
 3111SOL     OW 9348   3.800   0.811   2.651
 3111SOL    HW1 9349   3.899   0.799   2.660
 3111SOL    HW2 9350   3.776   0.906   2.672
 3112SOL     OW 9351   3.854   1.821   3.433
 3112SOL    HW1 9352   3.844   1.806   3.532
 3112SOL    HW2 9353   3.768   1.857   3.397
 3113SOL     OW 9354   4.589   0.348   2.057
 3113SOL    HW1 9355   4.648   0.411   2.008
 3113SOL    HW2 9356   4.608   0.254   2.028
 3114SOL     OW 9357   4.274   0.196   2.747
 3114SOL    HW1 9358   4.269   0.191   2.847
 3114SOL    HW2 9359   4.276   0.292   2.718
 3115SOL     OW 9360   4.732   1.456   2.339
 3115SOL    HW1 9361   4.686   1.528   2.287
 3115SOL    HW2 9362   4.728   1.476   2.437
 3116SOL     OW 9363   4.075   1.801   2.715
 3116SOL    HW1 9364   4.125   1.715   2.721
 3116SOL    HW2 9365   4.140   1.878   2.712
 3117SOL     OW 9366   4.045   0.943   2.104
 3117SOL    HW1 9367   4.127   0.982   2.062
 3117SOL    HW2 9368   4.018   0.861   2.055
 3118SOL     OW 9369   4.185   1.266   3.589
 3118SOL    HW1 9370   4.135   1.267   3.503
 3118SOL    HW2 9371   4.122   1.248   3.665
 3119SOL     OW 9372   3.926   0.285   3.360
 3119SOL    HW1 9373   3.846   0.345   3.347
 3119SOL    HW2 9374   3.916   0.236   3.446
 3120SOL     OW 9375   4.188   1.743   2.185
 3120SOL    HW1 9376   4.221   1.782   2.271
 3120SOL    HW2 9377   4.264   1.736   2.120
 3121SOL     OW 9378   3.973   1.785   3.103
 3121SOL    HW1 9379   4.030   1.720   3.153
 3121SOL    HW2 9380   3.957   1.752   3.010
 3122SOL     OW 9381   4.664   1.698   2.766
 3122SOL    HW1 9382   4.744   1.641   2.787
 3122SOL    HW2 9383   4.615   1.658   2.689
 3123SOL     OW 9384   4.106   0.700   2.342
 3123SOL    HW1 9385   4.151   0.610   2.339
 3123SOL    HW2 9386   4.012   0.689   2.375
 3124SOL     OW 9387   4.338   0.122   1.979
 3124SOL    HW1 9388   4.436   0.100   1.986
 3124SOL    HW2 9389   4.307   0.105   1.886
 3125SOL     OW 9390   4.505   0.264   3.611
 3125SOL    HW1 9391   4.572   0.203   3.654
 3125SOL    HW2 9392   4.432   0.283   3.676
 3126SOL     OW 9393   4.612   1.514   3.057
 3126SOL    HW1 9394   4.589   1.489   2.963
 3126SOL    HW2 9395   4.673   1.445   3.096
 3127SOL     OW 9396   4.527   1.402   2.786
 3127SOL    HW1 9397   4.617   1.416   2.744
 3127SOL    HW2 9398   4.456   1.404   2.715
 3128SOL     OW 9399   4.646   0.503   2.761
 3128SOL    HW1 9400   4.621   0.494   2.665
 3128SOL    HW2 9401   4.694   0.421   2.792
 3129SOL     OW 9402   4.263   0.064   2.374
 3129SOL    HW1 9403   4.182   0.065   2.432
 3129SOL    HW2 9404   4.266   0.147   2.319
 3130SOL     OW 9405   4.021   0.035   2.033
 3130SOL    HW1 9406   4.070   0.119   2.012
 3130SOL    HW2 9407   4.083  -0.030   2.078
 3131SOL     OW 9408   4.659   0.236   2.342
 3131SOL    HW1 9409   4.611   0.277   2.264
 3131SOL    HW2 9410   4.758   0.234   2.323
 3132SOL     OW 9411   4.951   1.570   2.655
 3132SOL    HW1 9412   4.972   1.644   2.590
 3132SOL    HW2 9413   5.019   1.570   2.728
 3133SOL     OW 9414   4.183   1.152   2.603
 3133SOL    HW1 9415   4.112   1.125   2.668
 3133SOL    HW2 9416   4.157   1.124   2.510
 3134SOL     OW 9417   4.995   1.797   2.453
 3134SOL    HW1 9418   5.039   1.861   2.389
 3134SOL    HW2 9419   4.945   1.849   2.523
 3135SOL     OW 9420   4.756   0.549   1.878
 3135SOL    HW1 9421   4.715   0.631   1.839
 3135SOL    HW2 9422   4.820   0.575   1.951
 3136SOL     OW 9423   3.802   0.556   3.248
 3136SOL    HW1 9424   3.894   0.555   3.207
 3136SOL    HW2 9425   3.796   0.630   3.315
 3137SOL     OW 9426   4.285   0.222   3.009
 3137SOL    HW1 9427   4.323   0.138   3.046
 3137SOL    HW2 9428   4.197   0.241   3.053
 3138SOL     OW 9429   4.590   0.454   2.504
 3138SOL    HW1 9430   4.558   0.526   2.442
 3138SOL    HW2 9431   4.614   0.373   2.451
 3139SOL     OW 9432   4.741   0.039   2.615
 3139SOL    HW1 9433   4.669   0.044   2.546
 3139SOL    HW2 9434   4.717  -0.030   2.684
 3140SOL     OW 9435   4.212   1.385   2.036
 3140SOL    HW1 9436   4.125   1.370   2.083
 3140SOL    HW2 9437   4.195   1.411   1.941
 3141SOL     OW 9438   4.251   0.256   2.190
 3141SOL    HW1 9439   4.278   0.197   2.115
 3141SOL    HW2 9440   4.251   0.351   2.159
 3142SOL     OW 9441   4.639   0.089   3.264
 3142SOL    HW1 9442   4.664   0.069   3.169
 3142SOL    HW2 9443   4.711   0.145   3.306
 3143SOL     OW 9444   4.704   1.116   3.581
 3143SOL    HW1 9445   4.605   1.122   3.591
 3143SOL    HW2 9446   4.727   1.036   3.525
 3144SOL     OW 9447   4.429   1.050   2.230
 3144SOL    HW1 9448   4.415   1.057   2.329
 3144SOL    HW2 9449   4.513   0.999   2.212
 3145SOL     OW 9450   4.134   0.813   3.113
 3145SOL    HW1 9451   4.220   0.825   3.163
 3145SOL    HW2 9452   4.092   0.726   3.140
 3146SOL     OW 9453   3.788   1.564   3.193
 3146SOL    HW1 9454   3.742   1.646   3.159
 3146SOL    HW2 9455   3.886   1.583   3.202
 3147SOL     OW 9456   4.091   1.100   2.363
 3147SOL    HW1 9457   4.084   1.183   2.307
 3147SOL    HW2 9458   4.095   1.020   2.303
 3148SOL     OW 9459   4.290   0.537   2.727
 3148SOL    HW1 9460   4.302   0.603   2.653
 3148SOL    HW2 9461   4.336   0.571   2.810
 3149SOL     OW 9462   4.976   1.348   2.250
 3149SOL    HW1 9463   5.026   1.425   2.290
 3149SOL    HW2 9464   4.881   1.350   2.282
 3150SOL     OW 9465   4.078   1.510   3.191
 3150SOL    HW1 9466   4.057   1.466   3.104
 3150SOL    HW2 9467   4.175   1.536   3.194
 3151SOL     OW 9468   4.126   0.751   3.460
 3151SOL    HW1 9469   4.194   0.806   3.413
 3151SOL    HW2 9470   4.166   0.663   3.487
 3152SOL     OW 9471   4.737   0.105   3.632
 3152SOL    HW1 9472   4.743   0.190   3.580
 3152SOL    HW2 9473   4.769   0.029   3.575
 3153SOL     OW 9474   4.228   0.050   3.602
 3153SOL    HW1 9475   4.186  -0.007   3.532
 3153SOL    HW2 9476   4.162   0.119   3.634
 3154SOL     OW 9477   4.297   0.870   2.891
 3154SOL    HW1 9478   4.341   0.959   2.882
 3154SOL    HW2 9479   4.234   0.870   2.968
 3155SOL     OW 9480   4.933   0.525   2.137
 3155SOL    HW1 9481   4.946   0.441   2.191
 3155SOL    HW2 9482   4.904   0.599   2.197
 3156SOL     OW 9483   4.031   0.213   3.093
 3156SOL    HW1 9484   4.008   0.250   3.183
 3156SOL    HW2 9485   4.001   0.118   3.087
 3157SOL     OW 9486   3.761   1.310   3.144
 3157SOL    HW1 9487   3.814   1.261   3.212
 3157SOL    HW2 9488   3.783   1.408   3.149
 3158SOL     OW 9489   4.456   0.634   2.926
 3158SOL    HW1 9490   4.515   0.608   2.850
 3158SOL    HW2 9491   4.428   0.730   2.915
 3159SOL     OW 9492   4.031   0.063   2.480
 3159SOL    HW1 9493   4.020   0.157   2.513
 3159SOL    HW2 9494   4.026   0.000   2.557
 3160SOL     OW 9495   4.747   0.766   2.828
 3160SOL    HW1 9496   4.762   0.787   2.924
 3160SOL    HW2 9497   4.717   0.671   2.819
 3161SOL     OW 9498   4.704   1.573   3.562
 3161SOL    HW1 9499   4.684   1.617   3.474
 3161SOL    HW2 9500   4.743   1.482   3.546
 3162SOL     OW 9501   4.074   0.898   3.666
 3162SOL    HW1 9502   4.150   0.942   3.714
 3162SOL    HW2 9503   4.109   0.851   3.584
 3163SOL     OW 9504   5.027   0.838   1.904
 3163SOL    HW1 9505   5.061   0.745   1.919
 3163SOL    HW2 9506   5.045   0.865   1.809
 3164SOL     OW 9507   4.792   1.333   2.711
 3164SOL    HW1 9508   4.799   1.249   2.656
 3164SOL    HW2 9509   4.854   1.402   2.675
 3165SOL     OW 9510   4.043   0.810   2.811
 3165SOL    HW1 9511   4.136   0.846   2.816
 3165SOL    HW2 9512   4.037   0.725   2.863
 3166SOL     OW 9513   4.063   0.509   2.868
 3166SOL    HW1 9514   4.011   0.426   2.851
 3166SOL    HW2 9515   4.140   0.514   2.804
 3167SOL     OW 9516   4.862   0.380   3.540
 3167SOL    HW1 9517   4.817   0.443   3.604
 3167SOL    HW2 9518   4.955   0.411   3.523
 3168SOL     OW 9519   3.732   1.326   2.062
 3168SOL    HW1 9520   3.639   1.347   2.031
 3168SOL    HW2 9521   3.742   1.227   2.075
 3169SOL     OW 9522   3.812   1.801   2.789
 3169SOL    HW1 9523   3.770   1.715   2.762
 3169SOL    HW2 9524   3.906   1.804   2.755
 3170SOL     OW 9525   4.228   1.568   2.772
 3170SOL    HW1 9526   4.294   1.642   2.781
 3170SOL    HW2 9527   4.272   1.489   2.730
 3171SOL     OW 9528   4.726   0.796   3.100
 3171SOL    HW1 9529   4.767   0.764   3.186
 3171SOL    HW2 9530   4.630   0.769   3.097
 3172SOL     OW 9531   3.764   0.544   2.976
 3172SOL    HW1 9532   3.849   0.511   2.935
 3172SOL    HW2 9533   3.777   0.559   3.074
 3173SOL     OW 9534   3.913   0.520   3.584
 3173SOL    HW1 9535   3.972   0.480   3.514
 3173SOL    HW2 9536   3.855   0.591   3.543
 3174SOL     OW 9537   4.539   0.572   2.187
 3174SOL    HW1 9538   4.546   0.483   2.141
 3174SOL    HW2 9539   4.445   0.606   2.179
 3175SOL     OW 9540   3.976   1.564   3.606
 3175SOL    HW1 9541   3.946   1.621   3.682
 3175SOL    HW2 9542   3.969   1.467   3.632
 3176SOL     OW 9543   4.395   0.464   3.131
 3176SOL    HW1 9544   4.361   0.375   3.101
 3176SOL    HW2 9545   4.421   0.518   3.051
 3177SOL     OW 9546   4.654   1.678   3.327
 3177SOL    HW1 9547   4.630   1.660   3.232
 3177SOL    HW2 9548   4.684   1.772   3.337
 3178SOL     OW 9549   4.197   0.500   2.053
 3178SOL    HW1 9550   4.258   0.580   2.057
 3178SOL    HW2 9551   4.102   0.531   2.060
 3179SOL     OW 9552   3.883   1.137   3.328
 3179SOL    HW1 9553   3.905   1.076   3.404
 3179SOL    HW2 9554   3.893   1.088   3.242
 3180SOL     OW 9555   5.026   0.855   2.171
 3180SOL    HW1 9556   4.940   0.824   2.213
 3180SOL    HW2 9557   5.022   0.841   2.072
 3181SOL     OW 9558   3.807   1.258   2.884
 3181SOL    HW1 9559   3.802   1.257   2.984
 3181SOL    HW2 9560   3.724   1.217   2.846
 3182SOL     OW 9561   4.412   1.662   3.578
 3182SOL    HW1 9562   4.356   1.743   3.587
 3182SOL    HW2 9563   4.464   1.666   3.492
 3183SOL     OW 9564   3.854   1.794   3.713
 3183SOL    HW1 9565   3.813   1.720   3.766
 3183SOL    HW2 9566   3.918   1.845   3.771
 3184SOL     OW 9567   4.554   1.273   3.284
 3184SOL    HW1 9568   4.549   1.306   3.379
 3184SOL    HW2 9569   4.468   1.292   3.238
 3185SOL     OW 9570   4.396   1.616   2.016
 3185SOL    HW1 9571   4.405   1.626   1.917
 3185SOL    HW2 9572   4.356   1.527   2.037
 3186SOL     OW 9573   3.987   0.326   2.582
 3186SOL    HW1 9574   3.908   0.377   2.548
 3186SOL    HW2 9575   3.978   0.311   2.680
 3187SOL     OW 9576   4.546   1.002   3.234
 3187SOL    HW1 9577   4.586   1.001   3.142
 3187SOL    HW2 9578   4.556   1.094   3.274
 3188SOL     OW 9579   4.640   0.910   2.153
 3188SOL    HW1 9580   4.703   0.948   2.085
 3188SOL    HW2 9581   4.680   0.827   2.192
 3189SOL     OW 9582   4.096   1.288   3.352
 3189SOL    HW1 9583   4.083   1.381   3.318
 3189SOL    HW2 9584   4.012   1.236   3.339
 3190SOL     OW 9585   4.763   1.098   2.558
 3190SOL    HW1 9586   4.693   1.051   2.612
 3190SOL    HW2 9587   4.822   1.030   2.515
 3191SOL     OW 9588   4.738   0.236   2.833
 3191SOL    HW1 9589   4.730   0.200   2.740
 3191SOL    HW2 9590   4.736   0.160   2.898
 3192SOL     OW 9591   4.314   1.487   2.353
 3192SOL    HW1 9592   4.356   1.429   2.283
 3192SOL    HW2 9593   4.270   1.566   2.309
 3193SOL     OW 9594   3.979   1.348   2.152
 3193SOL    HW1 9595   3.883   1.349   2.125
 3193SOL    HW2 9596   3.991   1.401   2.236
 3194SOL     OW 9597   3.829   1.013   3.588
 3194SOL    HW1 9598   3.752   0.980   3.642
 3194SOL    HW2 9599   3.914   0.983   3.630
 3195SOL     OW 9600   4.396   0.203   3.351
 3195SOL    HW1 9601   4.486   0.187   3.311
 3195SOL    HW2 9602   4.404   0.208   3.450
 3196SOL     OW 9603   3.799   0.345   1.895
 3196SOL    HW1 9604   3.707   0.317   1.866
 3196SOL    HW2 9605   3.830   0.422   1.839
 3197SOL     OW 9606   3.796   0.166   2.180
 3197SOL    HW1 9607   3.779   0.249   2.126
 3197SOL    HW2 9608   3.886   0.129   2.158
 3198SOL     OW 9609   4.337   0.842   3.293
 3198SOL    HW1 9610   4.393   0.923   3.276
 3198SOL    HW2 9611   4.396   0.762   3.296
 3199SOL     OW 9612   4.440   0.565   3.570
 3199SOL    HW1 9613   4.459   0.630   3.644
 3199SOL    HW2 9614   4.500   0.485   3.579
 3200SOL     OW 9615   4.114   1.741   3.422
 3200SOL    HW1 9616   4.023   1.782   3.420
 3200SOL    HW2 9617   4.107   1.647   3.454
 3201SOL     OW 9618   4.318   0.745   2.514
 3201SOL    HW1 9619   4.368   0.830   2.495
 3201SOL    HW2 9620   4.230   0.747   2.466
 3202SOL     OW 9621   4.583   1.374   1.878
 3202SOL    HW1 9622   4.537   1.389   1.966
 3202SOL    HW2 9623   4.627   1.459   1.848
 3203SOL     OW 9624   4.385   1.790   2.815
 3203SOL    HW1 9625   4.339   1.878   2.802
 3203SOL    HW2 9626   4.484   1.802   2.808
 3204SOL     OW 9627   4.583   0.956   2.723
 3204SOL    HW1 9628   4.637   0.887   2.771
 3204SOL    HW2 9629   4.551   1.025   2.789
 3205SOL     OW 9630   4.807   0.984   1.949
 3205SOL    HW1 9631   4.784   1.037   1.867
 3205SOL    HW2 9632   4.888   0.928   1.930
 3206SOL     OW 9633   3.945   1.314   3.706
 3206SOL    HW1 9634   3.880   1.241   3.685
 3206SOL    HW2 9635   3.949   1.328   3.804
 3207SOL     OW 9636   3.803   1.240   2.515
 3207SOL    HW1 9637   3.802   1.193   2.603
 3207SOL    HW2 9638   3.885   1.212   2.464
 3208SOL     OW 9639   4.396   1.391   3.486
 3208SOL    HW1 9640   4.318   1.341   3.524
 3208SOL    HW2 9641   4.393   1.486   3.517
 3209SOL     OW 9642   4.152   0.424   2.382
 3209SOL    HW1 9643   4.182   0.352   2.320
 3209SOL    HW2 9644   4.113   0.384   2.465
 3210SOL     OW 9645   4.041   0.547   3.142
 3210SOL    HW1 9646   4.079   0.488   3.214
 3210SOL    HW2 9647   4.081   0.521   3.054
 3211SOL     OW 9648   4.536   1.586   2.549
 3211SOL    HW1 9649   4.568   1.596   2.455
 3211SOL    HW2 9650   4.457   1.524   2.551
 3212SOL     OW 9651   4.725   0.034   3.016
 3212SOL    HW1 9652   4.662  -0.038   2.985
 3212SOL    HW2 9653   4.818  -0.002   3.016
 3213SOL     OW 9654   4.494   1.330   2.163
 3213SOL    HW1 9655   4.448   1.243   2.180
 3213SOL    HW2 9656   4.585   1.327   2.204
 3214SOL     OW 9657   4.342   1.567   3.146
 3214SOL    HW1 9658   4.337   1.649   3.203
 3214SOL    HW2 9659   4.431   1.564   3.101
 3215SOL     OW 9660   3.763   1.077   2.162
 3215SOL    HW1 9661   3.862   1.066   2.153
 3215SOL    HW2 9662   3.723   0.991   2.194
 3216SOL     OW 9663   4.599   1.646   2.199
 3216SOL    HW1 9664   4.522   1.611   2.145
 3216SOL    HW2 9665   4.567   1.717   2.261
 3217SOL     OW 9666   3.954   0.628   3.837
 3217SOL    HW1 9667   3.861   0.626   3.874
 3217SOL    HW2 9668   3.955   0.589   3.745
 3218SOL     OW 9669   3.949   0.275   4.720
 3218SOL    HW1 9670   3.984   0.258   4.812
 3218SOL    HW2 9671   3.861   0.230   4.708
 3219SOL     OW 9672   3.743   0.368   4.371
 3219SOL    HW1 9673   3.661   0.411   4.410
 3219SOL    HW2 9674   3.715   0.295   4.308
 3220SOL     OW 9675   4.492   1.144   4.747
 3220SOL    HW1 9676   4.414   1.161   4.807
 3220SOL    HW2 9677   4.526   1.231   4.711
 3221SOL     OW 9678   4.409   1.012   4.389
 3221SOL    HW1 9679   4.478   0.996   4.459
 3221SOL    HW2 9680   4.336   1.069   4.427
 3222SOL     OW 9681   4.059   1.435   4.785
 3222SOL    HW1 9682   3.981   1.404   4.732
 3222SOL    HW2 9683   4.117   1.493   4.728
 3223SOL     OW 9684   3.955   1.713   4.207
 3223SOL    HW1 9685   3.989   1.790   4.261
 3223SOL    HW2 9686   3.999   1.713   4.117
 3224SOL     OW 9687   3.954   1.434   4.262
 3224SOL    HW1 9688   3.928   1.530   4.262
 3224SOL    HW2 9689   3.883   1.380   4.307
 3225SOL     OW 9690   3.964   1.091   4.610
 3225SOL    HW1 9691   3.978   1.007   4.662
 3225SOL    HW2 9692   3.909   1.155   4.665
 3226SOL     OW 9693   4.330   0.964   3.847
 3226SOL    HW1 9694   4.337   1.048   3.793
 3226SOL    HW2 9695   4.376   0.977   3.935
 3227SOL     OW 9696   3.846   0.643   4.287
 3227SOL    HW1 9697   3.801   0.555   4.304
 3227SOL    HW2 9698   3.845   0.697   4.371
 3228SOL     OW 9699   3.751   1.596   3.841
 3228SOL    HW1 9700   3.732   1.500   3.862
 3228SOL    HW2 9701   3.718   1.654   3.916
 3229SOL     OW 9702   4.337   1.365   4.450
 3229SOL    HW1 9703   4.288   1.278   4.459
 3229SOL    HW2 9704   4.314   1.408   4.363
 3230SOL     OW 9705   4.533   0.004   4.226
 3230SOL    HW1 9706   4.573   0.095   4.217
 3230SOL    HW2 9707   4.433   0.012   4.232
 3231SOL     OW 9708   3.921   0.976   4.988
 3231SOL    HW1 9709   4.010   0.931   4.974
 3231SOL    HW2 9710   3.848   0.911   4.969
 3232SOL     OW 9711   4.322   0.729   3.994
 3232SOL    HW1 9712   4.346   0.798   3.926
 3232SOL    HW2 9713   4.244   0.762   4.048
 3233SOL     OW 9714   4.765   0.701   4.153
 3233SOL    HW1 9715   4.791   0.697   4.249
 3233SOL    HW2 9716   4.680   0.650   4.139
 3234SOL     OW 9717   3.800   0.811   4.513
 3234SOL    HW1 9718   3.899   0.799   4.522
 3234SOL    HW2 9719   3.776   0.906   4.534
 3235SOL     OW 9720   4.589   0.348   3.919
 3235SOL    HW1 9721   4.648   0.411   3.870
 3235SOL    HW2 9722   4.608   0.254   3.890
 3236SOL     OW 9723   4.274   0.196   4.609
 3236SOL    HW1 9724   4.269   0.191   4.709
 3236SOL    HW2 9725   4.276   0.292   4.580
 3237SOL     OW 9726   4.732   1.456   4.201
 3237SOL    HW1 9727   4.686   1.528   4.149
 3237SOL    HW2 9728   4.728   1.476   4.299
 3238SOL     OW 9729   4.075   1.801   4.577
 3238SOL    HW1 9730   4.125   1.715   4.583
 3238SOL    HW2 9731   4.140   1.878   4.574
 3239SOL     OW 9732   4.045   0.943   3.966
 3239SOL    HW1 9733   4.127   0.982   3.924
 3239SOL    HW2 9734   4.018   0.861   3.917
 3240SOL     OW 9735   4.188   1.743   4.047
 3240SOL    HW1 9736   4.221   1.782   4.133
 3240SOL    HW2 9737   4.264   1.736   3.982
 3241SOL     OW 9738   3.973   1.785   4.965
 3241SOL    HW1 9739   4.030   1.720   5.015
 3241SOL    HW2 9740   3.957   1.752   4.872
 3242SOL     OW 9741   4.664   1.698   4.628
 3242SOL    HW1 9742   4.744   1.641   4.649
 3242SOL    HW2 9743   4.615   1.658   4.551
 3243SOL     OW 9744   4.106   0.700   4.204
 3243SOL    HW1 9745   4.151   0.610   4.201
 3243SOL    HW2 9746   4.012   0.689   4.237
 3244SOL     OW 9747   4.338   0.122   3.841
 3244SOL    HW1 9748   4.436   0.100   3.848
 3244SOL    HW2 9749   4.307   0.105   3.748
 3245SOL     OW 9750   4.527   1.402   4.648
 3245SOL    HW1 9751   4.617   1.416   4.606
 3245SOL    HW2 9752   4.456   1.404   4.577
 3246SOL     OW 9753   4.646   0.503   4.623
 3246SOL    HW1 9754   4.621   0.494   4.527
 3246SOL    HW2 9755   4.694   0.421   4.654
 3247SOL     OW 9756   4.263   0.064   4.236
 3247SOL    HW1 9757   4.182   0.065   4.294
 3247SOL    HW2 9758   4.266   0.147   4.181
 3248SOL     OW 9759   4.021   0.035   3.895
 3248SOL    HW1 9760   4.070   0.119   3.874
 3248SOL    HW2 9761   4.083  -0.030   3.940
 3249SOL     OW 9762   4.659   0.236   4.204
 3249SOL    HW1 9763   4.611   0.277   4.126
 3249SOL    HW2 9764   4.758   0.234   4.185
 3250SOL     OW 9765   4.951   1.570   4.517
 3250SOL    HW1 9766   4.972   1.644   4.452
 3250SOL    HW2 9767   5.019   1.570   4.590
 3251SOL     OW 9768   4.183   1.152   4.465
 3251SOL    HW1 9769   4.112   1.125   4.530
 3251SOL    HW2 9770   4.157   1.124   4.372
 3252SOL     OW 9771   4.995   1.797   4.315
 3252SOL    HW1 9772   5.039   1.861   4.251
 3252SOL    HW2 9773   4.945   1.849   4.385
 3253SOL     OW 9774   4.756   0.549   3.740
 3253SOL    HW1 9775   4.715   0.631   3.701
 3253SOL    HW2 9776   4.820   0.575   3.813
 3254SOL     OW 9777   4.590   0.454   4.366
 3254SOL    HW1 9778   4.558   0.526   4.304
 3254SOL    HW2 9779   4.614   0.373   4.313
 3255SOL     OW 9780   4.741   0.039   4.477
 3255SOL    HW1 9781   4.669   0.044   4.408
 3255SOL    HW2 9782   4.717  -0.030   4.546
 3256SOL     OW 9783   4.212   1.385   3.898
 3256SOL    HW1 9784   4.125   1.370   3.945
 3256SOL    HW2 9785   4.195   1.411   3.803
 3257SOL     OW 9786   4.251   0.256   4.052
 3257SOL    HW1 9787   4.278   0.197   3.977
 3257SOL    HW2 9788   4.251   0.351   4.021
 3258SOL     OW 9789   4.429   1.050   4.092
 3258SOL    HW1 9790   4.415   1.057   4.191
 3258SOL    HW2 9791   4.513   0.999   4.074
 3259SOL     OW 9792   4.134   0.813   4.975
 3259SOL    HW1 9793   4.220   0.825   5.025
 3259SOL    HW2 9794   4.092   0.726   5.002
 3260SOL     OW 9795   4.091   1.100   4.225
 3260SOL    HW1 9796   4.084   1.183   4.169
 3260SOL    HW2 9797   4.095   1.020   4.165
 3261SOL     OW 9798   4.290   0.537   4.589
 3261SOL    HW1 9799   4.302   0.603   4.515
 3261SOL    HW2 9800   4.336   0.571   4.672
 3262SOL     OW 9801   4.976   1.348   4.112
 3262SOL    HW1 9802   5.026   1.425   4.152
 3262SOL    HW2 9803   4.881   1.350   4.144
 3263SOL     OW 9804   4.078   1.510   5.053
 3263SOL    HW1 9805   4.057   1.466   4.966
 3263SOL    HW2 9806   4.175   1.536   5.056
 3264SOL     OW 9807   4.297   0.870   4.753
 3264SOL    HW1 9808   4.341   0.959   4.744
 3264SOL    HW2 9809   4.234   0.870   4.830
 3265SOL     OW 9810   4.933   0.525   3.999
 3265SOL    HW1 9811   4.946   0.441   4.053
 3265SOL    HW2 9812   4.904   0.599   4.059
 3266SOL     OW 9813   4.456   0.634   4.788
 3266SOL    HW1 9814   4.515   0.608   4.712
 3266SOL    HW2 9815   4.428   0.730   4.777
 3267SOL     OW 9816   4.031   0.063   4.342
 3267SOL    HW1 9817   4.020   0.157   4.375
 3267SOL    HW2 9818   4.026   0.000   4.419
 3268SOL     OW 9819   4.747   0.766   4.690
 3268SOL    HW1 9820   4.762   0.787   4.786
 3268SOL    HW2 9821   4.717   0.671   4.681
 3269SOL     OW 9822   5.027   0.838   3.766
 3269SOL    HW1 9823   5.061   0.745   3.781
 3269SOL    HW2 9824   5.045   0.865   3.671
 3270SOL     OW 9825   4.792   1.333   4.573
 3270SOL    HW1 9826   4.799   1.249   4.518
 3270SOL    HW2 9827   4.854   1.402   4.537
 3271SOL     OW 9828   4.043   0.810   4.673
 3271SOL    HW1 9829   4.136   0.846   4.678
 3271SOL    HW2 9830   4.037   0.725   4.725
 3272SOL     OW 9831   4.063   0.509   4.730
 3272SOL    HW1 9832   4.011   0.426   4.713
 3272SOL    HW2 9833   4.140   0.514   4.666
 3273SOL     OW 9834   3.732   1.326   3.924
 3273SOL    HW1 9835   3.639   1.347   3.893
 3273SOL    HW2 9836   3.742   1.227   3.937
 3274SOL     OW 9837   3.812   1.801   4.651
 3274SOL    HW1 9838   3.770   1.715   4.624
 3274SOL    HW2 9839   3.906   1.804   4.617
 3275SOL     OW 9840   4.228   1.568   4.634
 3275SOL    HW1 9841   4.294   1.642   4.643
 3275SOL    HW2 9842   4.272   1.489   4.592
 3276SOL     OW 9843   4.726   0.796   4.962
 3276SOL    HW1 9844   4.767   0.764   5.048
 3276SOL    HW2 9845   4.630   0.769   4.959
 3277SOL     OW 9846   3.764   0.544   4.838
 3277SOL    HW1 9847   3.849   0.511   4.797
 3277SOL    HW2 9848   3.777   0.559   4.936
 3278SOL     OW 9849   4.539   0.572   4.049
 3278SOL    HW1 9850   4.546   0.483   4.003
 3278SOL    HW2 9851   4.445   0.606   4.041
 3279SOL     OW 9852   4.395   0.464   4.993
 3279SOL    HW1 9853   4.361   0.375   4.963
 3279SOL    HW2 9854   4.421   0.518   4.913
 3280SOL     OW 9855   4.197   0.500   3.915
 3280SOL    HW1 9856   4.258   0.580   3.919
 3280SOL    HW2 9857   4.102   0.531   3.922
 3281SOL     OW 9858   5.026   0.855   4.033
 3281SOL    HW1 9859   4.940   0.824   4.075
 3281SOL    HW2 9860   5.022   0.841   3.934
 3282SOL     OW 9861   3.807   1.258   4.746
 3282SOL    HW1 9862   3.802   1.257   4.846
 3282SOL    HW2 9863   3.724   1.217   4.708
 3283SOL     OW 9864   4.396   1.616   3.878
 3283SOL    HW1 9865   4.405   1.626   3.779
 3283SOL    HW2 9866   4.356   1.527   3.899
 3284SOL     OW 9867   3.987   0.326   4.444
 3284SOL    HW1 9868   3.908   0.377   4.410
 3284SOL    HW2 9869   3.978   0.311   4.542
 3285SOL     OW 9870   4.546   1.002   5.096
 3285SOL    HW1 9871   4.586   1.001   5.004
 3285SOL    HW2 9872   4.556   1.094   5.136
 3286SOL     OW 9873   4.640   0.910   4.015
 3286SOL    HW1 9874   4.703   0.948   3.947
 3286SOL    HW2 9875   4.680   0.827   4.054
 3287SOL     OW 9876   4.763   1.098   4.420
 3287SOL    HW1 9877   4.693   1.051   4.474
 3287SOL    HW2 9878   4.822   1.030   4.377
 3288SOL     OW 9879   4.738   0.236   4.695
 3288SOL    HW1 9880   4.730   0.200   4.602
 3288SOL    HW2 9881   4.736   0.160   4.760
 3289SOL     OW 9882   4.314   1.487   4.215
 3289SOL    HW1 9883   4.356   1.429   4.145
 3289SOL    HW2 9884   4.270   1.566   4.171
 3290SOL     OW 9885   3.979   1.348   4.014
 3290SOL    HW1 9886   3.883   1.349   3.987
 3290SOL    HW2 9887   3.991   1.401   4.098
 3291SOL     OW 9888   3.799   0.345   3.757
 3291SOL    HW1 9889   3.707   0.317   3.728
 3291SOL    HW2 9890   3.830   0.422   3.701
 3292SOL     OW 9891   3.796   0.166   4.042
 3292SOL    HW1 9892   3.779   0.249   3.988
 3292SOL    HW2 9893   3.886   0.129   4.020
 3293SOL     OW 9894   4.318   0.745   4.376
 3293SOL    HW1 9895   4.368   0.830   4.357
 3293SOL    HW2 9896   4.230   0.747   4.328
 3294SOL     OW 9897   4.583   1.374   3.740
 3294SOL    HW1 9898   4.537   1.389   3.828
 3294SOL    HW2 9899   4.627   1.459   3.710
 3295SOL     OW 9900   4.385   1.790   4.677
 3295SOL    HW1 9901   4.339   1.878   4.664
 3295SOL    HW2 9902   4.484   1.802   4.670
 3296SOL     OW 9903   4.583   0.956   4.585
 3296SOL    HW1 9904   4.637   0.887   4.633
 3296SOL    HW2 9905   4.551   1.025   4.651
 3297SOL     OW 9906   4.807   0.984   3.811
 3297SOL    HW1 9907   4.784   1.037   3.729
 3297SOL    HW2 9908   4.888   0.928   3.792
 3298SOL     OW 9909   3.803   1.240   4.377
 3298SOL    HW1 9910   3.802   1.193   4.465
 3298SOL    HW2 9911   3.885   1.212   4.326
 3299SOL     OW 9912   4.152   0.424   4.244
 3299SOL    HW1 9913   4.182   0.352   4.182
 3299SOL    HW2 9914   4.113   0.384   4.327
 3300SOL     OW 9915   4.536   1.586   4.411
 3300SOL    HW1 9916   4.568   1.596   4.317
 3300SOL    HW2 9917   4.457   1.524   4.413
 3301SOL     OW 9918   4.494   1.330   4.025
 3301SOL    HW1 9919   4.448   1.243   4.042
 3301SOL    HW2 9920   4.585   1.327   4.066
 3302SOL     OW 9921   3.763   1.077   4.024
 3302SOL    HW1 9922   3.862   1.066   4.015
 3302SOL    HW2 9923   3.723   0.991   4.056
 3303SOL     OW 9924   4.599   1.646   4.061
 3303SOL    HW1 9925   4.522   1.611   4.007
 3303SOL    HW2 9926   4.567   1.717   4.123
 3304SOL     OW 9927   3.954   2.490   0.113
 3304SOL    HW1 9928   3.861   2.488   0.150
 3304SOL    HW2 9929   3.955   2.451   0.021
 3305SOL     OW 9930   3.949   2.137   0.996
 3305SOL    HW1 9931   3.984   2.120   1.088
 3305SOL    HW2 9932   3.861   2.092   0.984
 3306SOL     OW 9933   3.743   2.230   0.647
 3306SOL    HW1 9934   3.661   2.273   0.686
 3306SOL    HW2 9935   3.715   2.157   0.584
 3307SOL     OW 9936   4.293   3.137   1.165
 3307SOL    HW1 9937   4.200   3.130   1.128
 3307SOL    HW2 9938   4.304   3.226   1.209
 3308SOL     OW 9939   4.492   3.006   1.023
 3308SOL    HW1 9940   4.414   3.023   1.083
 3308SOL    HW2 9941   4.526   3.093   0.987
 3309SOL     OW 9942   4.574   2.660   1.823
 3309SOL    HW1 9943   4.570   2.736   1.888
 3309SOL    HW2 9944   4.596   2.696   1.732
 3310SOL     OW 9945   4.409   2.874   0.665
 3310SOL    HW1 9946   4.478   2.858   0.735
 3310SOL    HW2 9947   4.336   2.931   0.703
 3311SOL     OW 9948   4.410   3.023   1.803
 3311SOL    HW1 9949   4.470   3.102   1.817
 3311SOL    HW2 9950   4.324   3.054   1.762
 3312SOL     OW 9951   4.059   3.297   1.061
 3312SOL    HW1 9952   3.981   3.266   1.008
 3312SOL    HW2 9953   4.117   3.355   1.004
 3313SOL     OW 9954   4.162   2.254   1.499
 3313SOL    HW1 9955   4.244   2.198   1.508
 3313SOL    HW2 9956   4.081   2.196   1.503
 3314SOL     OW 9957   3.955   3.575   0.483
 3314SOL    HW1 9958   3.989   3.652   0.537
 3314SOL    HW2 9959   3.999   3.575   0.393
 3315SOL     OW 9960   4.851   3.203   1.690
 3315SOL    HW1 9961   4.898   3.203   1.778
 3315SOL    HW2 9962   4.803   3.116   1.679
 3316SOL     OW 9963   3.954   3.296   0.538
 3316SOL    HW1 9964   3.928   3.392   0.538
 3316SOL    HW2 9965   3.883   3.242   0.583
 3317SOL     OW 9966   3.964   2.953   0.886
 3317SOL    HW1 9967   3.978   2.869   0.938
 3317SOL    HW2 9968   3.909   3.017   0.941
 3318SOL     OW 9969   4.344   3.648   1.439
 3318SOL    HW1 9970   4.252   3.631   1.474
 3318SOL    HW2 9971   4.372   3.740   1.465
 3319SOL     OW 9972   4.330   2.826   0.123
 3319SOL    HW1 9973   4.337   2.910   0.069
 3319SOL    HW2 9974   4.376   2.839   0.211
 3320SOL     OW 9975   3.846   2.505   0.563
 3320SOL    HW1 9976   3.801   2.417   0.580
 3320SOL    HW2 9977   3.845   2.559   0.647
 3321SOL     OW 9978   3.751   3.458   0.117
 3321SOL    HW1 9979   3.732   3.362   0.138
 3321SOL    HW2 9980   3.718   3.516   0.192
 3322SOL     OW 9981   3.837   2.599   1.597
 3322SOL    HW1 9982   3.925   2.586   1.642
 3322SOL    HW2 9983   3.824   2.696   1.575
 3323SOL     OW 9984   4.337   3.227   0.726
 3323SOL    HW1 9985   4.288   3.140   0.735
 3323SOL    HW2 9986   4.314   3.270   0.639
 3324SOL     OW 9987   4.533   1.866   0.502
 3324SOL    HW1 9988   4.573   1.957   0.493
 3324SOL    HW2 9989   4.433   1.874   0.508
 3325SOL     OW 9990   3.921   2.838   1.264
 3325SOL    HW1 9991   4.010   2.793   1.250
 3325SOL    HW2 9992   3.848   2.773   1.245
 3326SOL     OW 9993   4.041   2.113   1.801
 3326SOL    HW1 9994   4.112   2.184   1.807
 3326SOL    HW2 9995   3.953   2.152   1.829
 3327SOL     OW 9996   4.322   2.591   0.270
 3327SOL    HW1 9997   4.346   2.660   0.202
 3327SOL    HW2 9998   4.244   2.624   0.324
 3328SOL     OW 9999   4.531   2.467   1.465
 3328SOL    HW110000   4.484   2.464   1.554
 3328SOL    HW210001   4.480   2.412   1.399
 3329SOL     OW10002   4.697   2.752   1.572
 3329SOL    HW110003   4.743   2.668   1.543
 3329SOL    HW210004   4.641   2.786   1.497
 3330SOL     OW10005   4.715   2.272   1.242
 3330SOL    HW110006   4.638   2.306   1.296
 3330SOL    HW210007   4.681   2.221   1.163
 3331SOL     OW10008   4.765   2.563   0.429
 3331SOL    HW110009   4.791   2.559   0.525
 3331SOL    HW210010   4.680   2.512   0.415
 3332SOL     OW10011   3.800   2.673   0.789
 3332SOL    HW110012   3.899   2.661   0.798
 3332SOL    HW210013   3.776   2.768   0.810
 3333SOL     OW10014   3.854   3.683   1.571
 3333SOL    HW110015   3.844   3.668   1.670
 3333SOL    HW210016   3.768   3.719   1.535
 3334SOL     OW10017   4.589   2.210   0.195
 3334SOL    HW110018   4.648   2.273   0.146
 3334SOL    HW210019   4.608   2.116   0.166
 3335SOL     OW10020   4.274   2.058   0.885
 3335SOL    HW110021   4.269   2.053   0.985
 3335SOL    HW210022   4.276   2.154   0.856
 3336SOL     OW10023   4.732   3.318   0.477
 3336SOL    HW110024   4.686   3.390   0.425
 3336SOL    HW210025   4.728   3.338   0.575
 3337SOL     OW10026   4.075   3.663   0.853
 3337SOL    HW110027   4.125   3.577   0.859
 3337SOL    HW210028   4.140   3.740   0.850
 3338SOL     OW10029   4.045   2.805   0.242
 3338SOL    HW110030   4.127   2.844   0.200
 3338SOL    HW210031   4.018   2.723   0.193
 3339SOL     OW10032   4.185   3.128   1.727
 3339SOL    HW110033   4.135   3.129   1.641
 3339SOL    HW210034   4.122   3.110   1.803
 3340SOL     OW10035   3.926   2.147   1.498
 3340SOL    HW110036   3.846   2.207   1.485
 3340SOL    HW210037   3.916   2.098   1.584
 3341SOL     OW10038   4.188   3.605   0.323
 3341SOL    HW110039   4.221   3.644   0.409
 3341SOL    HW210040   4.264   3.598   0.258
 3342SOL     OW10041   3.973   3.647   1.241
 3342SOL    HW110042   4.030   3.582   1.291
 3342SOL    HW210043   3.957   3.614   1.148
 3343SOL     OW10044   4.664   3.560   0.904
 3343SOL    HW110045   4.744   3.503   0.925
 3343SOL    HW210046   4.615   3.520   0.827
 3344SOL     OW10047   4.106   2.562   0.480
 3344SOL    HW110048   4.151   2.472   0.477
 3344SOL    HW210049   4.012   2.551   0.513
 3345SOL     OW10050   4.338   1.984   0.117
 3345SOL    HW110051   4.436   1.962   0.124
 3345SOL    HW210052   4.307   1.967   0.024
 3346SOL     OW10053   4.505   2.126   1.749
 3346SOL    HW110054   4.572   2.065   1.792
 3346SOL    HW210055   4.432   2.145   1.814
 3347SOL     OW10056   4.612   3.376   1.195
 3347SOL    HW110057   4.589   3.351   1.101
 3347SOL    HW210058   4.673   3.307   1.234
 3348SOL     OW10059   4.527   3.264   0.924
 3348SOL    HW110060   4.617   3.278   0.882
 3348SOL    HW210061   4.456   3.266   0.853
 3349SOL     OW10062   4.646   2.365   0.899
 3349SOL    HW110063   4.621   2.356   0.803
 3349SOL    HW210064   4.694   2.283   0.930
 3350SOL     OW10065   4.263   1.926   0.512
 3350SOL    HW110066   4.182   1.927   0.570
 3350SOL    HW210067   4.266   2.009   0.457
 3351SOL     OW10068   5.158   3.050   0.041
 3351SOL    HW110069   5.190   2.974   0.098
 3351SOL    HW210070   5.066   3.077   0.071
 3352SOL     OW10071   4.021   1.897   0.171
 3352SOL    HW110072   4.070   1.981   0.150
 3352SOL    HW210073   4.083   1.832   0.216
 3353SOL     OW10074   4.659   2.098   0.480
 3353SOL    HW110075   4.611   2.139   0.402
 3353SOL    HW210076   4.758   2.096   0.461
 3354SOL     OW10077   4.951   3.432   0.793
 3354SOL    HW110078   4.972   3.506   0.728
 3354SOL    HW210079   5.019   3.432   0.866
 3355SOL     OW10080   4.183   3.014   0.741
 3355SOL    HW110081   4.112   2.987   0.806
 3355SOL    HW210082   4.157   2.986   0.648
 3356SOL     OW10083   4.995   3.659   0.591
 3356SOL    HW110084   5.039   3.723   0.527
 3356SOL    HW210085   4.945   3.711   0.661
 3357SOL     OW10086   4.756   2.411   0.016
 3357SOL    HW110087   4.715   2.493  -0.023
 3357SOL    HW210088   4.820   2.437   0.089
 3358SOL     OW10089   3.802   2.418   1.386
 3358SOL    HW110090   3.894   2.417   1.345
 3358SOL    HW210091   3.796   2.492   1.453
 3359SOL     OW10092   4.285   2.084   1.147
 3359SOL    HW110093   4.323   2.000   1.184
 3359SOL    HW210094   4.197   2.103   1.191
 3360SOL     OW10095   4.590   2.316   0.642
 3360SOL    HW110096   4.558   2.388   0.580
 3360SOL    HW210097   4.614   2.235   0.589
 3361SOL     OW10098   4.741   1.901   0.753
 3361SOL    HW110099   4.669   1.906   0.684
 3361SOL    HW210100   4.717   1.832   0.822
 3362SOL     OW10101   4.212   3.247   0.174
 3362SOL    HW110102   4.125   3.232   0.221
 3362SOL    HW210103   4.195   3.273   0.079
 3363SOL     OW10104   4.251   2.118   0.328
 3363SOL    HW110105   4.278   2.059   0.253
 3363SOL    HW210106   4.251   2.213   0.297
 3364SOL     OW10107   4.639   1.951   1.402
 3364SOL    HW110108   4.664   1.931   1.307
 3364SOL    HW210109   4.711   2.007   1.444
 3365SOL     OW10110   4.704   2.978   1.719
 3365SOL    HW110111   4.605   2.984   1.729
 3365SOL    HW210112   4.727   2.898   1.663
 3366SOL     OW10113   4.429   2.912   0.368
 3366SOL    HW110114   4.415   2.919   0.467
 3366SOL    HW210115   4.513   2.861   0.350
 3367SOL     OW10116   4.134   2.675   1.251
 3367SOL    HW110117   4.220   2.687   1.301
 3367SOL    HW210118   4.092   2.588   1.278
 3368SOL     OW10119   3.788   3.426   1.331
 3368SOL    HW110120   3.742   3.508   1.297
 3368SOL    HW210121   3.886   3.445   1.340
 3369SOL     OW10122   4.091   2.962   0.501
 3369SOL    HW110123   4.084   3.045   0.445
 3369SOL    HW210124   4.095   2.882   0.441
 3370SOL     OW10125   4.290   2.399   0.865
 3370SOL    HW110126   4.302   2.465   0.791
 3370SOL    HW210127   4.336   2.433   0.948
 3371SOL     OW10128   4.976   3.210   0.388
 3371SOL    HW110129   5.026   3.287   0.428
 3371SOL    HW210130   4.881   3.212   0.420
 3372SOL     OW10131   4.078   3.372   1.329
 3372SOL    HW110132   4.057   3.328   1.242
 3372SOL    HW210133   4.175   3.398   1.332
 3373SOL     OW10134   4.126   2.613   1.598
 3373SOL    HW110135   4.194   2.668   1.551
 3373SOL    HW210136   4.166   2.525   1.625
 3374SOL     OW10137   4.737   1.967   1.770
 3374SOL    HW110138   4.743   2.052   1.718
 3374SOL    HW210139   4.769   1.891   1.713
 3375SOL     OW10140   4.228   1.912   1.740
 3375SOL    HW110141   4.186   1.855   1.670
 3375SOL    HW210142   4.162   1.981   1.772
 3376SOL     OW10143   4.297   2.732   1.029
 3376SOL    HW110144   4.341   2.821   1.020
 3376SOL    HW210145   4.234   2.732   1.106
 3377SOL     OW10146   4.933   2.387   0.275
 3377SOL    HW110147   4.946   2.303   0.329
 3377SOL    HW210148   4.904   2.461   0.335
 3378SOL     OW10149   4.031   2.075   1.231
 3378SOL    HW110150   4.008   2.112   1.321
 3378SOL    HW210151   4.001   1.980   1.225
 3379SOL     OW10152   3.761   3.172   1.282
 3379SOL    HW110153   3.814   3.123   1.350
 3379SOL    HW210154   3.783   3.270   1.287
 3380SOL     OW10155   4.456   2.496   1.064
 3380SOL    HW110156   4.515   2.470   0.988
 3380SOL    HW210157   4.428   2.592   1.053
 3381SOL     OW10158   4.031   1.925   0.618
 3381SOL    HW110159   4.020   2.019   0.651
 3381SOL    HW210160   4.026   1.862   0.695
 3382SOL     OW10161   4.747   2.628   0.966
 3382SOL    HW110162   4.762   2.649   1.062
 3382SOL    HW210163   4.717   2.533   0.957
 3383SOL     OW10164   4.704   3.435   1.700
 3383SOL    HW110165   4.684   3.479   1.612
 3383SOL    HW210166   4.743   3.344   1.684
 3384SOL     OW10167   4.074   2.760   1.804
 3384SOL    HW110168   4.150   2.804   1.852
 3384SOL    HW210169   4.109   2.713   1.722
 3385SOL     OW10170   4.792   3.195   0.849
 3385SOL    HW110171   4.799   3.111   0.794
 3385SOL    HW210172   4.854   3.264   0.813
 3386SOL     OW10173   4.043   2.672   0.949
 3386SOL    HW110174   4.136   2.708   0.954
 3386SOL    HW210175   4.037   2.587   1.001
 3387SOL     OW10176   4.063   2.371   1.006
 3387SOL    HW110177   4.011   2.288   0.989
 3387SOL    HW210178   4.140   2.376   0.942
 3388SOL     OW10179   4.862   2.242   1.678
 3388SOL    HW110180   4.817   2.305   1.742
 3388SOL    HW210181   4.955   2.273   1.661
 3389SOL     OW10182   4.884   2.069   1.477
 3389SOL    HW110183   4.884   2.133   1.554
 3389SOL    HW210184   4.912   2.117   1.394
 3390SOL     OW10185   3.732   3.188   0.200
 3390SOL    HW110186   3.639   3.209   0.169
 3390SOL    HW210187   3.742   3.089   0.213
 3391SOL     OW10188   3.812   3.663   0.927
 3391SOL    HW110189   3.770   3.577   0.900
 3391SOL    HW210190   3.906   3.666   0.893
 3392SOL     OW10191   4.228   3.430   0.910
 3392SOL    HW110192   4.294   3.504   0.919
 3392SOL    HW210193   4.272   3.351   0.868
 3393SOL     OW10194   4.726   2.658   1.238
 3393SOL    HW110195   4.767   2.626   1.324
 3393SOL    HW210196   4.630   2.631   1.235
 3394SOL     OW10197   3.764   2.406   1.114
 3394SOL    HW110198   3.849   2.373   1.073
 3394SOL    HW210199   3.777   2.421   1.212
 3395SOL     OW10200   3.913   2.382   1.722
 3395SOL    HW110201   3.972   2.342   1.652
 3395SOL    HW210202   3.855   2.453   1.681
 3396SOL     OW10203   4.539   2.434   0.325
 3396SOL    HW110204   4.546   2.345   0.279
 3396SOL    HW210205   4.445   2.468   0.317
 3397SOL     OW10206   3.976   3.426   1.744
 3397SOL    HW110207   3.946   3.483   1.820
 3397SOL    HW210208   3.969   3.329   1.770
 3398SOL     OW10209   4.395   2.326   1.269
 3398SOL    HW110210   4.361   2.237   1.239
 3398SOL    HW210211   4.421   2.380   1.189
 3399SOL     OW10212   4.654   3.540   1.465
 3399SOL    HW110213   4.630   3.522   1.370
 3399SOL    HW210214   4.684   3.634   1.475
 3400SOL     OW10215   4.197   2.362   0.191
 3400SOL    HW110216   4.258   2.442   0.195
 3400SOL    HW210217   4.102   2.393   0.198
 3401SOL     OW10218   3.883   2.999   1.466
 3401SOL    HW110219   3.905   2.938   1.542
 3401SOL    HW210220   3.893   2.950   1.380
 3402SOL     OW10221   5.026   2.717   0.309
 3402SOL    HW110222   4.940   2.686   0.351
 3402SOL    HW210223   5.022   2.703   0.210
 3403SOL     OW10224   3.807   3.120   1.022
 3403SOL    HW110225   3.802   3.119   1.122
 3403SOL    HW210226   3.724   3.079   0.984
 3404SOL     OW10227   4.412   3.524   1.716
 3404SOL    HW110228   4.356   3.605   1.725
 3404SOL    HW210229   4.464   3.528   1.630
 3405SOL     OW10230   4.627   1.948   0.133
 3405SOL    HW110231   4.678   1.949   0.047
 3405SOL    HW210232   4.683   1.906   0.204
 3406SOL     OW10233   3.854   3.656   1.851
 3406SOL    HW110234   3.813   3.582   1.904
 3406SOL    HW210235   3.918   3.707   1.909
 3407SOL     OW10236   4.554   3.135   1.422
 3407SOL    HW110237   4.549   3.168   1.517
 3407SOL    HW210238   4.468   3.154   1.376
 3408SOL     OW10239   4.396   3.478   0.154
 3408SOL    HW110240   4.405   3.488   0.055
 3408SOL    HW210241   4.356   3.389   0.175
 3409SOL     OW10242   3.987   2.188   0.720
 3409SOL    HW110243   3.908   2.239   0.686
 3409SOL    HW210244   3.978   2.173   0.818
 3410SOL     OW10245   4.546   2.864   1.372
 3410SOL    HW110246   4.586   2.863   1.280
 3410SOL    HW210247   4.556   2.956   1.412
 3411SOL     OW10248   4.640   2.772   0.291
 3411SOL    HW110249   4.703   2.810   0.223
 3411SOL    HW210250   4.680   2.689   0.330
 3412SOL     OW10251   4.096   3.150   1.490
 3412SOL    HW110252   4.083   3.243   1.456
 3412SOL    HW210253   4.012   3.098   1.477
 3413SOL     OW10254   4.763   2.960   0.696
 3413SOL    HW110255   4.693   2.913   0.750
 3413SOL    HW210256   4.822   2.892   0.653
 3414SOL     OW10257   4.738   2.098   0.971
 3414SOL    HW110258   4.730   2.062   0.878
 3414SOL    HW210259   4.736   2.022   1.036
 3415SOL     OW10260   4.314   3.349   0.491
 3415SOL    HW110261   4.356   3.291   0.421
 3415SOL    HW210262   4.270   3.428   0.447
 3416SOL     OW10263   3.979   3.210   0.290
 3416SOL    HW110264   3.883   3.211   0.263
 3416SOL    HW210265   3.991   3.263   0.374
 3417SOL     OW10266   3.829   2.875   1.726
 3417SOL    HW110267   3.752   2.842   1.780
 3417SOL    HW210268   3.914   2.845   1.768
 3418SOL     OW10269   4.396   2.065   1.489
 3418SOL    HW110270   4.486   2.049   1.449
 3418SOL    HW210271   4.404   2.070   1.588
 3419SOL     OW10272   3.796   2.028   0.318
 3419SOL    HW110273   3.779   2.111   0.264
 3419SOL    HW210274   3.886   1.991   0.296
 3420SOL     OW10275   4.337   2.704   1.431
 3420SOL    HW110276   4.393   2.785   1.414
 3420SOL    HW210277   4.396   2.624   1.434
 3421SOL     OW10278   4.440   2.427   1.708
 3421SOL    HW110279   4.459   2.492   1.782
 3421SOL    HW210280   4.500   2.347   1.717
 3422SOL     OW10281   4.114   3.603   1.560
 3422SOL    HW110282   4.023   3.644   1.558
 3422SOL    HW210283   4.107   3.509   1.592
 3423SOL     OW10284   4.318   2.607   0.652
 3423SOL    HW110285   4.368   2.692   0.633
 3423SOL    HW210286   4.230   2.609   0.604
 3424SOL     OW10287   4.583   3.236   0.016
 3424SOL    HW110288   4.537   3.251   0.104
 3424SOL    HW210289   4.627   3.321  -0.014
 3425SOL     OW10290   4.385   3.652   0.953
 3425SOL    HW110291   4.339   3.740   0.940
 3425SOL    HW210292   4.484   3.664   0.946
 3426SOL     OW10293   4.583   2.818   0.861
 3426SOL    HW110294   4.637   2.749   0.909
 3426SOL    HW210295   4.551   2.887   0.927
 3427SOL     OW10296   4.807   2.846   0.087
 3427SOL    HW110297   4.784   2.899   0.005
 3427SOL    HW210298   4.888   2.790   0.068
 3428SOL     OW10299   3.945   3.176   1.844
 3428SOL    HW110300   3.880   3.103   1.823
 3428SOL    HW210301   3.949   3.190   1.942
 3429SOL     OW10302   3.803   3.102   0.653
 3429SOL    HW110303   3.802   3.055   0.741
 3429SOL    HW210304   3.885   3.074   0.602
 3430SOL     OW10305   4.396   3.253   1.624
 3430SOL    HW110306   4.318   3.203   1.662
 3430SOL    HW210307   4.393   3.348   1.655
 3431SOL     OW10308   4.152   2.286   0.520
 3431SOL    HW110309   4.182   2.214   0.458
 3431SOL    HW210310   4.113   2.246   0.603
 3432SOL     OW10311   4.041   2.409   1.280
 3432SOL    HW110312   4.079   2.350   1.352
 3432SOL    HW210313   4.081   2.383   1.192
 3433SOL     OW10314   4.536   3.448   0.687
 3433SOL    HW110315   4.568   3.458   0.593
 3433SOL    HW210316   4.457   3.386   0.689
 3434SOL     OW10317   4.725   1.896   1.154
 3434SOL    HW110318   4.662   1.824   1.123
 3434SOL    HW210319   4.818   1.860   1.154
 3435SOL     OW10320   4.494   3.192   0.301
 3435SOL    HW110321   4.448   3.105   0.318
 3435SOL    HW210322   4.585   3.189   0.342
 3436SOL     OW10323   4.342   3.429   1.284
 3436SOL    HW110324   4.337   3.511   1.341
 3436SOL    HW210325   4.431   3.426   1.239
 3437SOL     OW10326   3.763   2.939   0.300
 3437SOL    HW110327   3.862   2.928   0.291
 3437SOL    HW210328   3.723   2.853   0.332
 3438SOL     OW10329   4.599   3.508   0.337
 3438SOL    HW110330   4.522   3.473   0.283
 3438SOL    HW210331   4.567   3.579   0.399
 3439SOL     OW10332   3.954   2.490   1.975
 3439SOL    HW110333   3.861   2.488   2.012
 3439SOL    HW210334   3.955   2.451   1.883
 3440SOL     OW10335   3.949   2.137   2.858
 3440SOL    HW110336   3.984   2.120   2.950
 3440SOL    HW210337   3.861   2.092   2.846
 3441SOL     OW10338   3.743   2.230   2.509
 3441SOL    HW110339   3.661   2.273   2.548
 3441SOL    HW210340   3.715   2.157   2.446
 3442SOL     OW10341   4.293   3.137   3.027
 3442SOL    HW110342   4.200   3.130   2.990
 3442SOL    HW210343   4.304   3.226   3.071
 3443SOL     OW10344   4.492   3.006   2.885
 3443SOL    HW110345   4.414   3.023   2.945
 3443SOL    HW210346   4.526   3.093   2.849
 3444SOL     OW10347   4.574   2.660   3.685
 3444SOL    HW110348   4.570   2.736   3.750
 3444SOL    HW210349   4.596   2.696   3.594
 3445SOL     OW10350   4.409   2.874   2.527
 3445SOL    HW110351   4.478   2.858   2.597
 3445SOL    HW210352   4.336   2.931   2.565
 3446SOL     OW10353   4.410   3.023   3.665
 3446SOL    HW110354   4.470   3.102   3.679
 3446SOL    HW210355   4.324   3.054   3.624
 3447SOL     OW10356   4.059   3.297   2.923
 3447SOL    HW110357   3.981   3.266   2.870
 3447SOL    HW210358   4.117   3.355   2.866
 3448SOL     OW10359   4.162   2.254   3.361
 3448SOL    HW110360   4.244   2.198   3.370
 3448SOL    HW210361   4.081   2.196   3.365
 3449SOL     OW10362   3.955   3.575   2.345
 3449SOL    HW110363   3.989   3.652   2.399
 3449SOL    HW210364   3.999   3.575   2.255
 3450SOL     OW10365   4.851   3.203   3.552
 3450SOL    HW110366   4.898   3.203   3.640
 3450SOL    HW210367   4.803   3.116   3.541
 3451SOL     OW10368   3.954   3.296   2.400
 3451SOL    HW110369   3.928   3.392   2.400
 3451SOL    HW210370   3.883   3.242   2.445
 3452SOL     OW10371   3.964   2.953   2.748
 3452SOL    HW110372   3.978   2.869   2.800
 3452SOL    HW210373   3.909   3.017   2.803
 3453SOL     OW10374   4.344   3.648   3.301
 3453SOL    HW110375   4.252   3.631   3.336
 3453SOL    HW210376   4.372   3.740   3.327
 3454SOL     OW10377   4.330   2.826   1.985
 3454SOL    HW110378   4.337   2.910   1.931
 3454SOL    HW210379   4.376   2.839   2.073
 3455SOL     OW10380   3.846   2.505   2.425
 3455SOL    HW110381   3.801   2.417   2.442
 3455SOL    HW210382   3.845   2.559   2.509
 3456SOL     OW10383   3.751   3.458   1.979
 3456SOL    HW110384   3.732   3.362   2.000
 3456SOL    HW210385   3.718   3.516   2.054
 3457SOL     OW10386   3.837   2.599   3.459
 3457SOL    HW110387   3.925   2.586   3.504
 3457SOL    HW210388   3.824   2.696   3.437
 3458SOL     OW10389   4.337   3.227   2.588
 3458SOL    HW110390   4.288   3.140   2.597
 3458SOL    HW210391   4.314   3.270   2.501
 3459SOL     OW10392   4.533   1.866   2.364
 3459SOL    HW110393   4.573   1.957   2.355
 3459SOL    HW210394   4.433   1.874   2.370
 3460SOL     OW10395   3.921   2.838   3.126
 3460SOL    HW110396   4.010   2.793   3.112
 3460SOL    HW210397   3.848   2.773   3.107
 3461SOL     OW10398   4.041   2.113   3.663
 3461SOL    HW110399   4.112   2.184   3.669
 3461SOL    HW210400   3.953   2.152   3.691
 3462SOL     OW10401   4.322   2.591   2.132
 3462SOL    HW110402   4.346   2.660   2.064
 3462SOL    HW210403   4.244   2.624   2.186
 3463SOL     OW10404   4.531   2.467   3.327
 3463SOL    HW110405   4.484   2.464   3.416
 3463SOL    HW210406   4.480   2.412   3.261
 3464SOL     OW10407   4.697   2.752   3.434
 3464SOL    HW110408   4.743   2.668   3.405
 3464SOL    HW210409   4.641   2.786   3.359
 3465SOL     OW10410   4.715   2.272   3.104
 3465SOL    HW110411   4.638   2.306   3.158
 3465SOL    HW210412   4.681   2.221   3.025
 3466SOL     OW10413   4.765   2.563   2.291
 3466SOL    HW110414   4.791   2.559   2.387
 3466SOL    HW210415   4.680   2.512   2.277
 3467SOL     OW10416   3.800   2.673   2.651
 3467SOL    HW110417   3.899   2.661   2.660
 3467SOL    HW210418   3.776   2.768   2.672
 3468SOL     OW10419   3.854   3.683   3.433
 3468SOL    HW110420   3.844   3.668   3.532
 3468SOL    HW210421   3.768   3.719   3.397
 3469SOL     OW10422   4.589   2.210   2.057
 3469SOL    HW110423   4.648   2.273   2.008
 3469SOL    HW210424   4.608   2.116   2.028
 3470SOL     OW10425   4.274   2.058   2.747
 3470SOL    HW110426   4.269   2.053   2.847
 3470SOL    HW210427   4.276   2.154   2.718
 3471SOL     OW10428   4.732   3.318   2.339
 3471SOL    HW110429   4.686   3.390   2.287
 3471SOL    HW210430   4.728   3.338   2.437
 3472SOL     OW10431   4.075   3.663   2.715
 3472SOL    HW110432   4.125   3.577   2.721
 3472SOL    HW210433   4.140   3.740   2.712
 3473SOL     OW10434   4.045   2.805   2.104
 3473SOL    HW110435   4.127   2.844   2.062
 3473SOL    HW210436   4.018   2.723   2.055
 3474SOL     OW10437   4.185   3.128   3.589
 3474SOL    HW110438   4.135   3.129   3.503
 3474SOL    HW210439   4.122   3.110   3.665
 3475SOL     OW10440   3.926   2.147   3.360
 3475SOL    HW110441   3.846   2.207   3.347
 3475SOL    HW210442   3.916   2.098   3.446
 3476SOL     OW10443   4.188   3.605   2.185
 3476SOL    HW110444   4.221   3.644   2.271
 3476SOL    HW210445   4.264   3.598   2.120
 3477SOL     OW10446   3.973   3.647   3.103
 3477SOL    HW110447   4.030   3.582   3.153
 3477SOL    HW210448   3.957   3.614   3.010
 3478SOL     OW10449   4.664   3.560   2.766
 3478SOL    HW110450   4.744   3.503   2.787
 3478SOL    HW210451   4.615   3.520   2.689
 3479SOL     OW10452   4.106   2.562   2.342
 3479SOL    HW110453   4.151   2.472   2.339
 3479SOL    HW210454   4.012   2.551   2.375
 3480SOL     OW10455   4.338   1.984   1.979
 3480SOL    HW110456   4.436   1.962   1.986
 3480SOL    HW210457   4.307   1.967   1.886
 3481SOL     OW10458   4.505   2.126   3.611
 3481SOL    HW110459   4.572   2.065   3.654
 3481SOL    HW210460   4.432   2.145   3.676
 3482SOL     OW10461   4.612   3.376   3.057
 3482SOL    HW110462   4.589   3.351   2.963
 3482SOL    HW210463   4.673   3.307   3.096
 3483SOL     OW10464   4.527   3.264   2.786
 3483SOL    HW110465   4.617   3.278   2.744
 3483SOL    HW210466   4.456   3.266   2.715
 3484SOL     OW10467   4.646   2.365   2.761
 3484SOL    HW110468   4.621   2.356   2.665
 3484SOL    HW210469   4.694   2.283   2.792
 3485SOL     OW10470   4.263   1.926   2.374
 3485SOL    HW110471   4.182   1.927   2.432
 3485SOL    HW210472   4.266   2.009   2.319
 3486SOL     OW10473   4.021   1.897   2.033
 3486SOL    HW110474   4.070   1.981   2.012
 3486SOL    HW210475   4.083   1.832   2.078
 3487SOL     OW10476   4.659   2.098   2.342
 3487SOL    HW110477   4.611   2.139   2.264
 3487SOL    HW210478   4.758   2.096   2.323
 3488SOL     OW10479   4.951   3.432   2.655
 3488SOL    HW110480   4.972   3.506   2.590
 3488SOL    HW210481   5.019   3.432   2.728
 3489SOL     OW10482   4.183   3.014   2.603
 3489SOL    HW110483   4.112   2.987   2.668
 3489SOL    HW210484   4.157   2.986   2.510
 3490SOL     OW10485   4.995   3.659   2.453
 3490SOL    HW110486   5.039   3.723   2.389
 3490SOL    HW210487   4.945   3.711   2.523
 3491SOL     OW10488   4.756   2.411   1.878
 3491SOL    HW110489   4.715   2.493   1.839
 3491SOL    HW210490   4.820   2.437   1.951
 3492SOL     OW10491   3.802   2.418   3.248
 3492SOL    HW110492   3.894   2.417   3.207
 3492SOL    HW210493   3.796   2.492   3.315
 3493SOL     OW10494   4.285   2.084   3.009
 3493SOL    HW110495   4.323   2.000   3.046
 3493SOL    HW210496   4.197   2.103   3.053
 3494SOL     OW10497   4.590   2.316   2.504
 3494SOL    HW110498   4.558   2.388   2.442
 3494SOL    HW210499   4.614   2.235   2.451
 3495SOL     OW10500   4.741   1.901   2.615
 3495SOL    HW110501   4.669   1.906   2.546
 3495SOL    HW210502   4.717   1.832   2.684
 3496SOL     OW10503   4.212   3.247   2.036
 3496SOL    HW110504   4.125   3.232   2.083
 3496SOL    HW210505   4.195   3.273   1.941
 3497SOL     OW10506   4.251   2.118   2.190
 3497SOL    HW110507   4.278   2.059   2.115
 3497SOL    HW210508   4.251   2.213   2.159
 3498SOL     OW10509   4.639   1.951   3.264
 3498SOL    HW110510   4.664   1.931   3.169
 3498SOL    HW210511   4.711   2.007   3.306
 3499SOL     OW10512   4.704   2.978   3.581
 3499SOL    HW110513   4.605   2.984   3.591
 3499SOL    HW210514   4.727   2.898   3.525
 3500SOL     OW10515   4.429   2.912   2.230
 3500SOL    HW110516   4.415   2.919   2.329
 3500SOL    HW210517   4.513   2.861   2.212
 3501SOL     OW10518   4.134   2.675   3.113
 3501SOL    HW110519   4.220   2.687   3.163
 3501SOL    HW210520   4.092   2.588   3.140
 3502SOL     OW10521   3.788   3.426   3.193
 3502SOL    HW110522   3.742   3.508   3.159
 3502SOL    HW210523   3.886   3.445   3.202
 3503SOL     OW10524   4.091   2.962   2.363
 3503SOL    HW110525   4.084   3.045   2.307
 3503SOL    HW210526   4.095   2.882   2.303
 3504SOL     OW10527   4.290   2.399   2.727
 3504SOL    HW110528   4.302   2.465   2.653
 3504SOL    HW210529   4.336   2.433   2.810
 3505SOL     OW10530   4.976   3.210   2.250
 3505SOL    HW110531   5.026   3.287   2.290
 3505SOL    HW210532   4.881   3.212   2.282
 3506SOL     OW10533   4.078   3.372   3.191
 3506SOL    HW110534   4.057   3.328   3.104
 3506SOL    HW210535   4.175   3.398   3.194
 3507SOL     OW10536   4.126   2.613   3.460
 3507SOL    HW110537   4.194   2.668   3.413
 3507SOL    HW210538   4.166   2.525   3.487
 3508SOL     OW10539   4.737   1.967   3.632
 3508SOL    HW110540   4.743   2.052   3.580
 3508SOL    HW210541   4.769   1.891   3.575
 3509SOL     OW10542   4.228   1.912   3.602
 3509SOL    HW110543   4.186   1.855   3.532
 3509SOL    HW210544   4.162   1.981   3.634
 3510SOL     OW10545   4.297   2.732   2.891
 3510SOL    HW110546   4.341   2.821   2.882
 3510SOL    HW210547   4.234   2.732   2.968
 3511SOL     OW10548   4.933   2.387   2.137
 3511SOL    HW110549   4.946   2.303   2.191
 3511SOL    HW210550   4.904   2.461   2.197
 3512SOL     OW10551   4.031   2.075   3.093
 3512SOL    HW110552   4.008   2.112   3.183
 3512SOL    HW210553   4.001   1.980   3.087
 3513SOL     OW10554   3.761   3.172   3.144
 3513SOL    HW110555   3.814   3.123   3.212
 3513SOL    HW210556   3.783   3.270   3.149
 3514SOL     OW10557   4.456   2.496   2.926
 3514SOL    HW110558   4.515   2.470   2.850
 3514SOL    HW210559   4.428   2.592   2.915
 3515SOL     OW10560   4.031   1.925   2.480
 3515SOL    HW110561   4.020   2.019   2.513
 3515SOL    HW210562   4.026   1.862   2.557
 3516SOL     OW10563   4.747   2.628   2.828
 3516SOL    HW110564   4.762   2.649   2.924
 3516SOL    HW210565   4.717   2.533   2.819
 3517SOL     OW10566   4.704   3.435   3.562
 3517SOL    HW110567   4.684   3.479   3.474
 3517SOL    HW210568   4.743   3.344   3.546
 3518SOL     OW10569   4.074   2.760   3.666
 3518SOL    HW110570   4.150   2.804   3.714
 3518SOL    HW210571   4.109   2.713   3.584
 3519SOL     OW10572   5.027   2.700   1.904
 3519SOL    HW110573   5.061   2.607   1.919
 3519SOL    HW210574   5.045   2.727   1.809
 3520SOL     OW10575   4.792   3.195   2.711
 3520SOL    HW110576   4.799   3.111   2.656
 3520SOL    HW210577   4.854   3.264   2.675
 3521SOL     OW10578   4.043   2.672   2.811
 3521SOL    HW110579   4.136   2.708   2.816
 3521SOL    HW210580   4.037   2.587   2.863
 3522SOL     OW10581   4.063   2.371   2.868
 3522SOL    HW110582   4.011   2.288   2.851
 3522SOL    HW210583   4.140   2.376   2.804
 3523SOL     OW10584   4.862   2.242   3.540
 3523SOL    HW110585   4.817   2.305   3.604
 3523SOL    HW210586   4.955   2.273   3.523
 3524SOL     OW10587   4.884   2.069   3.339
 3524SOL    HW110588   4.884   2.133   3.416
 3524SOL    HW210589   4.912   2.117   3.256
 3525SOL     OW10590   3.732   3.188   2.062
 3525SOL    HW110591   3.639   3.209   2.031
 3525SOL    HW210592   3.742   3.089   2.075
 3526SOL     OW10593   3.812   3.663   2.789
 3526SOL    HW110594   3.770   3.577   2.762
 3526SOL    HW210595   3.906   3.666   2.755
 3527SOL     OW10596   4.228   3.430   2.772
 3527SOL    HW110597   4.294   3.504   2.781
 3527SOL    HW210598   4.272   3.351   2.730
 3528SOL     OW10599   4.726   2.658   3.100
 3528SOL    HW110600   4.767   2.626   3.186
 3528SOL    HW210601   4.630   2.631   3.097
 3529SOL     OW10602   3.764   2.406   2.976
 3529SOL    HW110603   3.849   2.373   2.935
 3529SOL    HW210604   3.777   2.421   3.074
 3530SOL     OW10605   3.913   2.382   3.584
 3530SOL    HW110606   3.972   2.342   3.514
 3530SOL    HW210607   3.855   2.453   3.543
 3531SOL     OW10608   4.539   2.434   2.187
 3531SOL    HW110609   4.546   2.345   2.141
 3531SOL    HW210610   4.445   2.468   2.179
 3532SOL     OW10611   3.976   3.426   3.606
 3532SOL    HW110612   3.946   3.483   3.682
 3532SOL    HW210613   3.969   3.329   3.632
 3533SOL     OW10614   4.395   2.326   3.131
 3533SOL    HW110615   4.361   2.237   3.101
 3533SOL    HW210616   4.421   2.380   3.051
 3534SOL     OW10617   4.654   3.540   3.327
 3534SOL    HW110618   4.630   3.522   3.232
 3534SOL    HW210619   4.684   3.634   3.337
 3535SOL     OW10620   4.197   2.362   2.053
 3535SOL    HW110621   4.258   2.442   2.057
 3535SOL    HW210622   4.102   2.393   2.060
 3536SOL     OW10623   3.883   2.999   3.328
 3536SOL    HW110624   3.905   2.938   3.404
 3536SOL    HW210625   3.893   2.950   3.242
 3537SOL     OW10626   5.026   2.717   2.171
 3537SOL    HW110627   4.940   2.686   2.213
 3537SOL    HW210628   5.022   2.703   2.072
 3538SOL     OW10629   3.807   3.120   2.884
 3538SOL    HW110630   3.802   3.119   2.984
 3538SOL    HW210631   3.724   3.079   2.846
 3539SOL     OW10632   4.412   3.524   3.578
 3539SOL    HW110633   4.356   3.605   3.587
 3539SOL    HW210634   4.464   3.528   3.492
 3540SOL     OW10635   3.854   3.656   3.713
 3540SOL    HW110636   3.813   3.582   3.766
 3540SOL    HW210637   3.918   3.707   3.771
 3541SOL     OW10638   4.554   3.135   3.284
 3541SOL    HW110639   4.549   3.168   3.379
 3541SOL    HW210640   4.468   3.154   3.238
 3542SOL     OW10641   4.396   3.478   2.016
 3542SOL    HW110642   4.405   3.488   1.917
 3542SOL    HW210643   4.356   3.389   2.037
 3543SOL     OW10644   3.987   2.188   2.582
 3543SOL    HW110645   3.908   2.239   2.548
 3543SOL    HW210646   3.978   2.173   2.680
 3544SOL     OW10647   4.546   2.864   3.234
 3544SOL    HW110648   4.586   2.863   3.142
 3544SOL    HW210649   4.556   2.956   3.274
 3545SOL     OW10650   4.640   2.772   2.153
 3545SOL    HW110651   4.703   2.810   2.085
 3545SOL    HW210652   4.680   2.689   2.192
 3546SOL     OW10653   4.096   3.150   3.352
 3546SOL    HW110654   4.083   3.243   3.318
 3546SOL    HW210655   4.012   3.098   3.339
 3547SOL     OW10656   4.763   2.960   2.558
 3547SOL    HW110657   4.693   2.913   2.612
 3547SOL    HW210658   4.822   2.892   2.515
 3548SOL     OW10659   4.738   2.098   2.833
 3548SOL    HW110660   4.730   2.062   2.740
 3548SOL    HW210661   4.736   2.022   2.898
 3549SOL     OW10662   4.314   3.349   2.353
 3549SOL    HW110663   4.356   3.291   2.283
 3549SOL    HW210664   4.270   3.428   2.309
 3550SOL     OW10665   3.979   3.210   2.152
 3550SOL    HW110666   3.883   3.211   2.125
 3550SOL    HW210667   3.991   3.263   2.236
 3551SOL     OW10668   3.829   2.875   3.588
 3551SOL    HW110669   3.752   2.842   3.642
 3551SOL    HW210670   3.914   2.845   3.630
 3552SOL     OW10671   4.396   2.065   3.351
 3552SOL    HW110672   4.486   2.049   3.311
 3552SOL    HW210673   4.404   2.070   3.450
 3553SOL     OW10674   3.799   2.207   1.895
 3553SOL    HW110675   3.707   2.179   1.866
 3553SOL    HW210676   3.830   2.284   1.839
 3554SOL     OW10677   3.796   2.028   2.180
 3554SOL    HW110678   3.779   2.111   2.126
 3554SOL    HW210679   3.886   1.991   2.158
 3555SOL     OW10680   4.337   2.704   3.293
 3555SOL    HW110681   4.393   2.785   3.276
 3555SOL    HW210682   4.396   2.624   3.296
 3556SOL     OW10683   4.440   2.427   3.570
 3556SOL    HW110684   4.459   2.492   3.644
 3556SOL    HW210685   4.500   2.347   3.579
 3557SOL     OW10686   4.114   3.603   3.422
 3557SOL    HW110687   4.023   3.644   3.420
 3557SOL    HW210688   4.107   3.509   3.454
 3558SOL     OW10689   4.318   2.607   2.514
 3558SOL    HW110690   4.368   2.692   2.495
 3558SOL    HW210691   4.230   2.609   2.466
 3559SOL     OW10692   4.583   3.236   1.878
 3559SOL    HW110693   4.537   3.251   1.966
 3559SOL    HW210694   4.627   3.321   1.848
 3560SOL     OW10695   4.385   3.652   2.815
 3560SOL    HW110696   4.339   3.740   2.802
 3560SOL    HW210697   4.484   3.664   2.808
 3561SOL     OW10698   4.583   2.818   2.723
 3561SOL    HW110699   4.637   2.749   2.771
 3561SOL    HW210700   4.551   2.887   2.789
 3562SOL     OW10701   4.807   2.846   1.949
 3562SOL    HW110702   4.784   2.899   1.867
 3562SOL    HW210703   4.888   2.790   1.930
 3563SOL     OW10704   3.945   3.176   3.706
 3563SOL    HW110705   3.880   3.103   3.685
 3563SOL    HW210706   3.949   3.190   3.804
 3564SOL     OW10707   3.803   3.102   2.515
 3564SOL    HW110708   3.802   3.055   2.603
 3564SOL    HW210709   3.885   3.074   2.464
 3565SOL     OW10710   4.396   3.253   3.486
 3565SOL    HW110711   4.318   3.203   3.524
 3565SOL    HW210712   4.393   3.348   3.517
 3566SOL     OW10713   4.152   2.286   2.382
 3566SOL    HW110714   4.182   2.214   2.320
 3566SOL    HW210715   4.113   2.246   2.465
 3567SOL     OW10716   4.041   2.409   3.142
 3567SOL    HW110717   4.079   2.350   3.214
 3567SOL    HW210718   4.081   2.383   3.054
 3568SOL     OW10719   4.536   3.448   2.549
 3568SOL    HW110720   4.568   3.458   2.455
 3568SOL    HW210721   4.457   3.386   2.551
 3569SOL     OW10722   4.725   1.896   3.016
 3569SOL    HW110723   4.662   1.824   2.985
 3569SOL    HW210724   4.818   1.860   3.016
 3570SOL     OW10725   4.494   3.192   2.163
 3570SOL    HW110726   4.448   3.105   2.180
 3570SOL    HW210727   4.585   3.189   2.204
 3571SOL     OW10728   4.342   3.429   3.146
 3571SOL    HW110729   4.337   3.511   3.203
 3571SOL    HW210730   4.431   3.426   3.101
 3572SOL     OW10731   3.763   2.939   2.162
 3572SOL    HW110732   3.862   2.928   2.153
 3572SOL    HW210733   3.723   2.853   2.194
 3573SOL     OW10734   4.599   3.508   2.199
 3573SOL    HW110735   4.522   3.473   2.145
 3573SOL    HW210736   4.567   3.579   2.261
 3574SOL     OW10737   3.954   2.490   3.837
 3574SOL    HW110738   3.861   2.488   3.874
 3574SOL    HW210739   3.955   2.451   3.745
 3575SOL     OW10740   3.949   2.137   4.720
 3575SOL    HW110741   3.984   2.120   4.812
 3575SOL    HW210742   3.861   2.092   4.708
 3576SOL     OW10743   3.743   2.230   4.371
 3576SOL    HW110744   3.661   2.273   4.410
 3576SOL    HW210745   3.715   2.157   4.308
 3577SOL     OW10746   4.492   3.006   4.747
 3577SOL    HW110747   4.414   3.023   4.807
 3577SOL    HW210748   4.526   3.093   4.711
 3578SOL     OW10749   4.409   2.874   4.389
 3578SOL    HW110750   4.478   2.858   4.459
 3578SOL    HW210751   4.336   2.931   4.427
 3579SOL     OW10752   4.059   3.297   4.785
 3579SOL    HW110753   3.981   3.266   4.732
 3579SOL    HW210754   4.117   3.355   4.728
 3580SOL     OW10755   3.955   3.575   4.207
 3580SOL    HW110756   3.989   3.652   4.261
 3580SOL    HW210757   3.999   3.575   4.117
 3581SOL     OW10758   3.954   3.296   4.262
 3581SOL    HW110759   3.928   3.392   4.262
 3581SOL    HW210760   3.883   3.242   4.307
 3582SOL     OW10761   3.964   2.953   4.610
 3582SOL    HW110762   3.978   2.869   4.662
 3582SOL    HW210763   3.909   3.017   4.665
 3583SOL     OW10764   4.330   2.826   3.847
 3583SOL    HW110765   4.337   2.910   3.793
 3583SOL    HW210766   4.376   2.839   3.935
 3584SOL     OW10767   3.846   2.505   4.287
 3584SOL    HW110768   3.801   2.417   4.304
 3584SOL    HW210769   3.845   2.559   4.371
 3585SOL     OW10770   3.751   3.458   3.841
 3585SOL    HW110771   3.732   3.362   3.862
 3585SOL    HW210772   3.718   3.516   3.916
 3586SOL     OW10773   4.337   3.227   4.450
 3586SOL    HW110774   4.288   3.140   4.459
 3586SOL    HW210775   4.314   3.270   4.363
 3587SOL     OW10776   4.533   1.866   4.226
 3587SOL    HW110777   4.573   1.957   4.217
 3587SOL    HW210778   4.433   1.874   4.232
 3588SOL     OW10779   3.921   2.838   4.988
 3588SOL    HW110780   4.010   2.793   4.974
 3588SOL    HW210781   3.848   2.773   4.969
 3589SOL     OW10782   4.322   2.591   3.994
 3589SOL    HW110783   4.346   2.660   3.926
 3589SOL    HW210784   4.244   2.624   4.048
 3590SOL     OW10785   4.765   2.563   4.153
 3590SOL    HW110786   4.791   2.559   4.249
 3590SOL    HW210787   4.680   2.512   4.139
 3591SOL     OW10788   3.800   2.673   4.513
 3591SOL    HW110789   3.899   2.661   4.522
 3591SOL    HW210790   3.776   2.768   4.534
 3592SOL     OW10791   4.589   2.210   3.919
 3592SOL    HW110792   4.648   2.273   3.870
 3592SOL    HW210793   4.608   2.116   3.890
 3593SOL     OW10794   4.274   2.058   4.609
 3593SOL    HW110795   4.269   2.053   4.709
 3593SOL    HW210796   4.276   2.154   4.580
 3594SOL     OW10797   4.732   3.318   4.201
 3594SOL    HW110798   4.686   3.390   4.149
 3594SOL    HW210799   4.728   3.338   4.299
 3595SOL     OW10800   4.075   3.663   4.577
 3595SOL    HW110801   4.125   3.577   4.583
 3595SOL    HW210802   4.140   3.740   4.574
 3596SOL     OW10803   4.045   2.805   3.966
 3596SOL    HW110804   4.127   2.844   3.924
 3596SOL    HW210805   4.018   2.723   3.917
 3597SOL     OW10806   4.188   3.605   4.047
 3597SOL    HW110807   4.221   3.644   4.133
 3597SOL    HW210808   4.264   3.598   3.982
 3598SOL     OW10809   3.973   3.647   4.965
 3598SOL    HW110810   4.030   3.582   5.015
 3598SOL    HW210811   3.957   3.614   4.872
 3599SOL     OW10812   4.664   3.560   4.628
 3599SOL    HW110813   4.744   3.503   4.649
 3599SOL    HW210814   4.615   3.520   4.551
 3600SOL     OW10815   4.106   2.562   4.204
 3600SOL    HW110816   4.151   2.472   4.201
 3600SOL    HW210817   4.012   2.551   4.237
 3601SOL     OW10818   4.338   1.984   3.841
 3601SOL    HW110819   4.436   1.962   3.848
 3601SOL    HW210820   4.307   1.967   3.748
 3602SOL     OW10821   4.527   3.264   4.648
 3602SOL    HW110822   4.617   3.278   4.606
 3602SOL    HW210823   4.456   3.266   4.577
 3603SOL     OW10824   4.646   2.365   4.623
 3603SOL    HW110825   4.621   2.356   4.527
 3603SOL    HW210826   4.694   2.283   4.654
 3604SOL     OW10827   4.263   1.926   4.236
 3604SOL    HW110828   4.182   1.927   4.294
 3604SOL    HW210829   4.266   2.009   4.181
 3605SOL     OW10830   4.021   1.897   3.895
 3605SOL    HW110831   4.070   1.981   3.874
 3605SOL    HW210832   4.083   1.832   3.940
 3606SOL     OW10833   4.659   2.098   4.204
 3606SOL    HW110834   4.611   2.139   4.126
 3606SOL    HW210835   4.758   2.096   4.185
 3607SOL     OW10836   4.951   3.432   4.517
 3607SOL    HW110837   4.972   3.506   4.452
 3607SOL    HW210838   5.019   3.432   4.590
 3608SOL     OW10839   4.183   3.014   4.465
 3608SOL    HW110840   4.112   2.987   4.530
 3608SOL    HW210841   4.157   2.986   4.372
 3609SOL     OW10842   4.995   3.659   4.315
 3609SOL    HW110843   5.039   3.723   4.251
 3609SOL    HW210844   4.945   3.711   4.385
 3610SOL     OW10845   4.756   2.411   3.740
 3610SOL    HW110846   4.715   2.493   3.701
 3610SOL    HW210847   4.820   2.437   3.813
 3611SOL     OW10848   4.590   2.316   4.366
 3611SOL    HW110849   4.558   2.388   4.304
 3611SOL    HW210850   4.614   2.235   4.313
 3612SOL     OW10851   4.741   1.901   4.477
 3612SOL    HW110852   4.669   1.906   4.408
 3612SOL    HW210853   4.717   1.832   4.546
 3613SOL     OW10854   4.212   3.247   3.898
 3613SOL    HW110855   4.125   3.232   3.945
 3613SOL    HW210856   4.195   3.273   3.803
 3614SOL     OW10857   4.251   2.118   4.052
 3614SOL    HW110858   4.278   2.059   3.977
 3614SOL    HW210859   4.251   2.213   4.021
 3615SOL     OW10860   4.429   2.912   4.092
 3615SOL    HW110861   4.415   2.919   4.191
 3615SOL    HW210862   4.513   2.861   4.074
 3616SOL     OW10863   4.134   2.675   4.975
 3616SOL    HW110864   4.220   2.687   5.025
 3616SOL    HW210865   4.092   2.588   5.002
 3617SOL     OW10866   4.091   2.962   4.225
 3617SOL    HW110867   4.084   3.045   4.169
 3617SOL    HW210868   4.095   2.882   4.165
 3618SOL     OW10869   4.290   2.399   4.589
 3618SOL    HW110870   4.302   2.465   4.515
 3618SOL    HW210871   4.336   2.433   4.672
 3619SOL     OW10872   4.976   3.210   4.112
 3619SOL    HW110873   5.026   3.287   4.152
 3619SOL    HW210874   4.881   3.212   4.144
 3620SOL     OW10875   4.078   3.372   5.053
 3620SOL    HW110876   4.057   3.328   4.966
 3620SOL    HW210877   4.175   3.398   5.056
 3621SOL     OW10878   4.297   2.732   4.753
 3621SOL    HW110879   4.341   2.821   4.744
 3621SOL    HW210880   4.234   2.732   4.830
 3622SOL     OW10881   4.933   2.387   3.999
 3622SOL    HW110882   4.946   2.303   4.053
 3622SOL    HW210883   4.904   2.461   4.059
 3623SOL     OW10884   4.456   2.496   4.788
 3623SOL    HW110885   4.515   2.470   4.712
 3623SOL    HW210886   4.428   2.592   4.777
 3624SOL     OW10887   4.031   1.925   4.342
 3624SOL    HW110888   4.020   2.019   4.375
 3624SOL    HW210889   4.026   1.862   4.419
 3625SOL     OW10890   4.747   2.628   4.690
 3625SOL    HW110891   4.762   2.649   4.786
 3625SOL    HW210892   4.717   2.533   4.681
 3626SOL     OW10893   5.027   2.700   3.766
 3626SOL    HW110894   5.061   2.607   3.781
 3626SOL    HW210895   5.045   2.727   3.671
 3627SOL     OW10896   4.792   3.195   4.573
 3627SOL    HW110897   4.799   3.111   4.518
 3627SOL    HW210898   4.854   3.264   4.537
 3628SOL     OW10899   4.043   2.672   4.673
 3628SOL    HW110900   4.136   2.708   4.678
 3628SOL    HW210901   4.037   2.587   4.725
 3629SOL     OW10902   4.063   2.371   4.730
 3629SOL    HW110903   4.011   2.288   4.713
 3629SOL    HW210904   4.140   2.376   4.666
 3630SOL     OW10905   3.732   3.188   3.924
 3630SOL    HW110906   3.639   3.209   3.893
 3630SOL    HW210907   3.742   3.089   3.937
 3631SOL     OW10908   3.812   3.663   4.651
 3631SOL    HW110909   3.770   3.577   4.624
 3631SOL    HW210910   3.906   3.666   4.617
 3632SOL     OW10911   4.228   3.430   4.634
 3632SOL    HW110912   4.294   3.504   4.643
 3632SOL    HW210913   4.272   3.351   4.592
 3633SOL     OW10914   4.726   2.658   4.962
 3633SOL    HW110915   4.767   2.626   5.048
 3633SOL    HW210916   4.630   2.631   4.959
 3634SOL     OW10917   3.764   2.406   4.838
 3634SOL    HW110918   3.849   2.373   4.797
 3634SOL    HW210919   3.777   2.421   4.936
 3635SOL     OW10920   4.539   2.434   4.049
 3635SOL    HW110921   4.546   2.345   4.003
 3635SOL    HW210922   4.445   2.468   4.041
 3636SOL     OW10923   4.395   2.326   4.993
 3636SOL    HW110924   4.361   2.237   4.963
 3636SOL    HW210925   4.421   2.380   4.913
 3637SOL     OW10926   4.197   2.362   3.915
 3637SOL    HW110927   4.258   2.442   3.919
 3637SOL    HW210928   4.102   2.393   3.922
 3638SOL     OW10929   5.026   2.717   4.033
 3638SOL    HW110930   4.940   2.686   4.075
 3638SOL    HW210931   5.022   2.703   3.934
 3639SOL     OW10932   3.807   3.120   4.746
 3639SOL    HW110933   3.802   3.119   4.846
 3639SOL    HW210934   3.724   3.079   4.708
 3640SOL     OW10935   4.396   3.478   3.878
 3640SOL    HW110936   4.405   3.488   3.779
 3640SOL    HW210937   4.356   3.389   3.899
 3641SOL     OW10938   3.987   2.188   4.444
 3641SOL    HW110939   3.908   2.239   4.410
 3641SOL    HW210940   3.978   2.173   4.542
 3642SOL     OW10941   4.546   2.864   5.096
 3642SOL    HW110942   4.586   2.863   5.004
 3642SOL    HW210943   4.556   2.956   5.136
 3643SOL     OW10944   4.640   2.772   4.015
 3643SOL    HW110945   4.703   2.810   3.947
 3643SOL    HW210946   4.680   2.689   4.054
 3644SOL     OW10947   4.763   2.960   4.420
 3644SOL    HW110948   4.693   2.913   4.474
 3644SOL    HW210949   4.822   2.892   4.377
 3645SOL     OW10950   4.738   2.098   4.695
 3645SOL    HW110951   4.730   2.062   4.602
 3645SOL    HW210952   4.736   2.022   4.760
 3646SOL     OW10953   4.314   3.349   4.215
 3646SOL    HW110954   4.356   3.291   4.145
 3646SOL    HW210955   4.270   3.428   4.171
 3647SOL     OW10956   3.979   3.210   4.014
 3647SOL    HW110957   3.883   3.211   3.987
 3647SOL    HW210958   3.991   3.263   4.098
 3648SOL     OW10959   3.799   2.207   3.757
 3648SOL    HW110960   3.707   2.179   3.728
 3648SOL    HW210961   3.830   2.284   3.701
 3649SOL     OW10962   3.796   2.028   4.042
 3649SOL    HW110963   3.779   2.111   3.988
 3649SOL    HW210964   3.886   1.991   4.020
 3650SOL     OW10965   4.318   2.607   4.376
 3650SOL    HW110966   4.368   2.692   4.357
 3650SOL    HW210967   4.230   2.609   4.328
 3651SOL     OW10968   4.583   3.236   3.740
 3651SOL    HW110969   4.537   3.251   3.828
 3651SOL    HW210970   4.627   3.321   3.710
 3652SOL     OW10971   4.385   3.652   4.677
 3652SOL    HW110972   4.339   3.740   4.664
 3652SOL    HW210973   4.484   3.664   4.670
 3653SOL     OW10974   4.583   2.818   4.585
 3653SOL    HW110975   4.637   2.749   4.633
 3653SOL    HW210976   4.551   2.887   4.651
 3654SOL     OW10977   4.807   2.846   3.811
 3654SOL    HW110978   4.784   2.899   3.729
 3654SOL    HW210979   4.888   2.790   3.792
 3655SOL     OW10980   3.803   3.102   4.377
 3655SOL    HW110981   3.802   3.055   4.465
 3655SOL    HW210982   3.885   3.074   4.326
 3656SOL     OW10983   4.152   2.286   4.244
 3656SOL    HW110984   4.182   2.214   4.182
 3656SOL    HW210985   4.113   2.246   4.327
 3657SOL     OW10986   4.536   3.448   4.411
 3657SOL    HW110987   4.568   3.458   4.317
 3657SOL    HW210988   4.457   3.386   4.413
 3658SOL     OW10989   4.494   3.192   4.025
 3658SOL    HW110990   4.448   3.105   4.042
 3658SOL    HW210991   4.585   3.189   4.066
 3659SOL     OW10992   3.763   2.939   4.024
 3659SOL    HW110993   3.862   2.928   4.015
 3659SOL    HW210994   3.723   2.853   4.056
 3660SOL     OW10995   4.599   3.508   4.061
 3660SOL    HW110996   4.522   3.473   4.007
 3660SOL    HW210997   4.567   3.579   4.123
 3661SOL     OW10998   3.954   4.352   0.113
 3661SOL    HW110999   3.861   4.350   0.150
 3661SOL    HW211000   3.955   4.313   0.021
 3662SOL     OW11001   3.949   3.999   0.996
 3662SOL    HW111002   3.984   3.982   1.088
 3662SOL    HW211003   3.861   3.954   0.984
 3663SOL     OW11004   3.743   4.092   0.647
 3663SOL    HW111005   3.661   4.135   0.686
 3663SOL    HW211006   3.715   4.019   0.584
 3664SOL     OW11007   4.492   4.868   1.023
 3664SOL    HW111008   4.414   4.885   1.083
 3664SOL    HW211009   4.526   4.955   0.987
 3665SOL     OW11010   4.574   4.522   1.823
 3665SOL    HW111011   4.570   4.598   1.888
 3665SOL    HW211012   4.596   4.558   1.732
 3666SOL     OW11013   4.409   4.736   0.665
 3666SOL    HW111014   4.478   4.720   0.735
 3666SOL    HW211015   4.336   4.793   0.703
 3667SOL     OW11016   4.162   4.116   1.499
 3667SOL    HW111017   4.244   4.060   1.508
 3667SOL    HW211018   4.081   4.058   1.503
 3668SOL     OW11019   3.964   4.815   0.886
 3668SOL    HW111020   3.978   4.731   0.938
 3668SOL    HW211021   3.909   4.879   0.941
 3669SOL     OW11022   4.330   4.688   0.123
 3669SOL    HW111023   4.337   4.772   0.069
 3669SOL    HW211024   4.376   4.701   0.211
 3670SOL     OW11025   3.846   4.367   0.563
 3670SOL    HW111026   3.801   4.279   0.580
 3670SOL    HW211027   3.845   4.421   0.647
 3671SOL     OW11028   3.837   4.461   1.597
 3671SOL    HW111029   3.925   4.448   1.642
 3671SOL    HW211030   3.824   4.558   1.575
 3672SOL     OW11031   4.337   5.089   0.726
 3672SOL    HW111032   4.288   5.002   0.735
 3672SOL    HW211033   4.314   5.132   0.639
 3673SOL     OW11034   4.533   3.728   0.502
 3673SOL    HW111035   4.573   3.819   0.493
 3673SOL    HW211036   4.433   3.736   0.508
 3674SOL     OW11037   3.921   4.700   1.264
 3674SOL    HW111038   4.010   4.655   1.250
 3674SOL    HW211039   3.848   4.635   1.245
 3675SOL     OW11040   4.041   3.975   1.801
 3675SOL    HW111041   4.112   4.046   1.807
 3675SOL    HW211042   3.953   4.014   1.829
 3676SOL     OW11043   4.322   4.453   0.270
 3676SOL    HW111044   4.346   4.522   0.202
 3676SOL    HW211045   4.244   4.486   0.324
 3677SOL     OW11046   4.531   4.329   1.465
 3677SOL    HW111047   4.484   4.326   1.554
 3677SOL    HW211048   4.480   4.274   1.399
 3678SOL     OW11049   4.697   4.614   1.572
 3678SOL    HW111050   4.743   4.530   1.543
 3678SOL    HW211051   4.641   4.648   1.497
 3679SOL     OW11052   4.715   4.134   1.242
 3679SOL    HW111053   4.638   4.168   1.296
 3679SOL    HW211054   4.681   4.083   1.163
 3680SOL     OW11055   4.765   4.425   0.429
 3680SOL    HW111056   4.791   4.421   0.525
 3680SOL    HW211057   4.680   4.374   0.415
 3681SOL     OW11058   3.800   4.535   0.789
 3681SOL    HW111059   3.899   4.523   0.798
 3681SOL    HW211060   3.776   4.630   0.810
 3682SOL     OW11061   4.589   4.072   0.195
 3682SOL    HW111062   4.648   4.135   0.146
 3682SOL    HW211063   4.608   3.978   0.166
 3683SOL     OW11064   4.274   3.920   0.885
 3683SOL    HW111065   4.269   3.915   0.985
 3683SOL    HW211066   4.276   4.016   0.856
 3684SOL     OW11067   4.045   4.667   0.242
 3684SOL    HW111068   4.127   4.706   0.200
 3684SOL    HW211069   4.018   4.585   0.193
 3685SOL     OW11070   3.926   4.009   1.498
 3685SOL    HW111071   3.846   4.069   1.485
 3685SOL    HW211072   3.916   3.960   1.584
 3686SOL     OW11073   4.106   4.424   0.480
 3686SOL    HW111074   4.151   4.334   0.477
 3686SOL    HW211075   4.012   4.413   0.513
 3687SOL     OW11076   4.338   3.846   0.117
 3687SOL    HW111077   4.436   3.824   0.124
 3687SOL    HW211078   4.307   3.829   0.024
 3688SOL     OW11079   4.505   3.988   1.749
 3688SOL    HW111080   4.572   3.927   1.792
 3688SOL    HW211081   4.432   4.007   1.814
 3689SOL     OW11082   4.646   4.227   0.899
 3689SOL    HW111083   4.621   4.218   0.803
 3689SOL    HW211084   4.694   4.145   0.930
 3690SOL     OW11085   4.263   3.788   0.512
 3690SOL    HW111086   4.182   3.789   0.570
 3690SOL    HW211087   4.266   3.871   0.457
 3691SOL     OW11088   4.021   3.759   0.171
 3691SOL    HW111089   4.070   3.843   0.150
 3691SOL    HW211090   4.083   3.694   0.216
 3692SOL     OW11091   4.659   3.960   0.480
 3692SOL    HW111092   4.611   4.001   0.402
 3692SOL    HW211093   4.758   3.958   0.461
 3693SOL     OW11094   4.183   4.876   0.741
 3693SOL    HW111095   4.112   4.849   0.806
 3693SOL    HW211096   4.157   4.848   0.648
 3694SOL     OW11097   4.756   4.273   0.016
 3694SOL    HW111098   4.715   4.355  -0.023
 3694SOL    HW211099   4.820   4.299   0.089
 3695SOL     OW11100   3.802   4.280   1.386
 3695SOL    HW111101   3.894   4.279   1.345
 3695SOL    HW211102   3.796   4.354   1.453
 3696SOL     OW11103   4.285   3.946   1.147
 3696SOL    HW111104   4.323   3.862   1.184
 3696SOL    HW211105   4.197   3.965   1.191
 3697SOL     OW11106   4.590   4.178   0.642
 3697SOL    HW111107   4.558   4.250   0.580
 3697SOL    HW211108   4.614   4.097   0.589
 3698SOL     OW11109   4.741   3.763   0.753
 3698SOL    HW111110   4.669   3.768   0.684
 3698SOL    HW211111   4.717   3.694   0.822
 3699SOL     OW11112   4.251   3.980   0.328
 3699SOL    HW111113   4.278   3.921   0.253
 3699SOL    HW211114   4.251   4.075   0.297
 3700SOL     OW11115   4.639   3.813   1.402
 3700SOL    HW111116   4.664   3.793   1.307
 3700SOL    HW211117   4.711   3.869   1.444
 3701SOL     OW11118   4.429   4.774   0.368
 3701SOL    HW111119   4.415   4.781   0.467
 3701SOL    HW211120   4.513   4.723   0.350
 3702SOL     OW11121   4.134   4.537   1.251
 3702SOL    HW111122   4.220   4.549   1.301
 3702SOL    HW211123   4.092   4.450   1.278
 3703SOL     OW11124   4.091   4.824   0.501
 3703SOL    HW111125   4.084   4.907   0.445
 3703SOL    HW211126   4.095   4.744   0.441
 3704SOL     OW11127   4.290   4.261   0.865
 3704SOL    HW111128   4.302   4.327   0.791
 3704SOL    HW211129   4.336   4.295   0.948
 3705SOL     OW11130   4.126   4.475   1.598
 3705SOL    HW111131   4.194   4.530   1.551
 3705SOL    HW211132   4.166   4.387   1.625
 3706SOL     OW11133   4.737   3.829   1.770
 3706SOL    HW111134   4.743   3.914   1.718
 3706SOL    HW211135   4.769   3.753   1.713
 3707SOL     OW11136   4.228   3.774   1.740
 3707SOL    HW111137   4.186   3.717   1.670
 3707SOL    HW211138   4.162   3.843   1.772
 3708SOL     OW11139   4.297   4.594   1.029
 3708SOL    HW111140   4.341   4.683   1.020
 3708SOL    HW211141   4.234   4.594   1.106
 3709SOL     OW11142   4.933   4.249   0.275
 3709SOL    HW111143   4.946   4.165   0.329
 3709SOL    HW211144   4.904   4.323   0.335
 3710SOL     OW11145   4.031   3.937   1.231
 3710SOL    HW111146   4.008   3.974   1.321
 3710SOL    HW211147   4.001   3.842   1.225
 3711SOL     OW11148   4.456   4.358   1.064
 3711SOL    HW111149   4.515   4.332   0.988
 3711SOL    HW211150   4.428   4.454   1.053
 3712SOL     OW11151   4.031   3.787   0.618
 3712SOL    HW111152   4.020   3.881   0.651
 3712SOL    HW211153   4.026   3.724   0.695
 3713SOL     OW11154   4.747   4.490   0.966
 3713SOL    HW111155   4.762   4.511   1.062
 3713SOL    HW211156   4.717   4.395   0.957
 3714SOL     OW11157   4.074   4.622   1.804
 3714SOL    HW111158   4.150   4.666   1.852
 3714SOL    HW211159   4.109   4.575   1.722
 3715SOL     OW11160   4.043   4.534   0.949
 3715SOL    HW111161   4.136   4.570   0.954
 3715SOL    HW211162   4.037   4.449   1.001
 3716SOL     OW11163   4.063   4.233   1.006
 3716SOL    HW111164   4.011   4.150   0.989
 3716SOL    HW211165   4.140   4.238   0.942
 3717SOL     OW11166   4.862   4.104   1.678
 3717SOL    HW111167   4.817   4.167   1.742
 3717SOL    HW211168   4.955   4.135   1.661
 3718SOL     OW11169   4.884   3.931   1.477
 3718SOL    HW111170   4.884   3.995   1.554
 3718SOL    HW211171   4.912   3.979   1.394
 3719SOL     OW11172   4.726   4.520   1.238
 3719SOL    HW111173   4.767   4.488   1.324
 3719SOL    HW211174   4.630   4.493   1.235
 3720SOL     OW11175   3.764   4.268   1.114
 3720SOL    HW111176   3.849   4.235   1.073
 3720SOL    HW211177   3.777   4.283   1.212
 3721SOL     OW11178   3.913   4.244   1.722
 3721SOL    HW111179   3.972   4.204   1.652
 3721SOL    HW211180   3.855   4.315   1.681
 3722SOL     OW11181   4.539   4.296   0.325
 3722SOL    HW111182   4.546   4.207   0.279
 3722SOL    HW211183   4.445   4.330   0.317
 3723SOL     OW11184   4.395   4.188   1.269
 3723SOL    HW111185   4.361   4.099   1.239
 3723SOL    HW211186   4.421   4.242   1.189
 3724SOL     OW11187   4.197   4.224   0.191
 3724SOL    HW111188   4.258   4.304   0.195
 3724SOL    HW211189   4.102   4.255   0.198
 3725SOL     OW11190   3.883   4.861   1.466
 3725SOL    HW111191   3.905   4.800   1.542
 3725SOL    HW211192   3.893   4.812   1.380
 3726SOL     OW11193   5.026   4.579   0.309
 3726SOL    HW111194   4.940   4.548   0.351
 3726SOL    HW211195   5.022   4.565   0.210
 3727SOL     OW11196   4.627   3.810   0.133
 3727SOL    HW111197   4.678   3.811   0.047
 3727SOL    HW211198   4.683   3.768   0.204
 3728SOL     OW11199   3.987   4.050   0.720
 3728SOL    HW111200   3.908   4.101   0.686
 3728SOL    HW211201   3.978   4.035   0.818
 3729SOL     OW11202   4.546   4.726   1.372
 3729SOL    HW111203   4.586   4.725   1.280
 3729SOL    HW211204   4.556   4.818   1.412
 3730SOL     OW11205   4.640   4.634   0.291
 3730SOL    HW111206   4.703   4.672   0.223
 3730SOL    HW211207   4.680   4.551   0.330
 3731SOL     OW11208   4.096   5.012   1.490
 3731SOL    HW111209   4.083   5.105   1.456
 3731SOL    HW211210   4.012   4.960   1.477
 3732SOL     OW11211   4.738   3.960   0.971
 3732SOL    HW111212   4.730   3.924   0.878
 3732SOL    HW211213   4.736   3.884   1.036
 3733SOL     OW11214   3.829   4.737   1.726
 3733SOL    HW111215   3.752   4.704   1.780
 3733SOL    HW211216   3.914   4.707   1.768
 3734SOL     OW11217   4.396   3.927   1.489
 3734SOL    HW111218   4.486   3.911   1.449
 3734SOL    HW211219   4.404   3.932   1.588
 3735SOL     OW11220   3.796   3.890   0.318
 3735SOL    HW111221   3.779   3.973   0.264
 3735SOL    HW211222   3.886   3.853   0.296
 3736SOL     OW11223   4.337   4.566   1.431
 3736SOL    HW111224   4.393   4.647   1.414
 3736SOL    HW211225   4.396   4.486   1.434
 3737SOL     OW11226   4.440   4.289   1.708
 3737SOL    HW111227   4.459   4.354   1.782
 3737SOL    HW211228   4.500   4.209   1.717
 3738SOL     OW11229   4.318   4.469   0.652
 3738SOL    HW111230   4.368   4.554   0.633
 3738SOL    HW211231   4.230   4.471   0.604
 3739SOL     OW11232   4.583   4.680   0.861
 3739SOL    HW111233   4.637   4.611   0.909
 3739SOL    HW211234   4.551   4.749   0.927
 3740SOL     OW11235   4.807   4.708   0.087
 3740SOL    HW111236   4.784   4.761   0.005
 3740SOL    HW211237   4.888   4.652   0.068
 3741SOL     OW11238   4.152   4.148   0.520
 3741SOL    HW111239   4.182   4.076   0.458
 3741SOL    HW211240   4.113   4.108   0.603
 3742SOL     OW11241   4.041   4.271   1.280
 3742SOL    HW111242   4.079   4.212   1.352
 3742SOL    HW211243   4.081   4.245   1.192
 3743SOL     OW11244   4.725   3.758   1.154
 3743SOL    HW111245   4.662   3.686   1.123
 3743SOL    HW211246   4.818   3.722   1.154
 3744SOL     OW11247   4.494   5.054   0.301
 3744SOL    HW111248   4.448   4.967   0.318
 3744SOL    HW211249   4.585   5.051   0.342
 3745SOL     OW11250   3.763   4.801   0.300
 3745SOL    HW111251   3.862   4.790   0.291
 3745SOL    HW211252   3.723   4.715   0.332
 3746SOL     OW11253   3.954   4.352   1.975
 3746SOL    HW111254   3.861   4.350   2.012
 3746SOL    HW211255   3.955   4.313   1.883
 3747SOL     OW11256   3.949   3.999   2.858
 3747SOL    HW111257   3.984   3.982   2.950
 3747SOL    HW211258   3.861   3.954   2.846
 3748SOL     OW11259   3.743   4.092   2.509
 3748SOL    HW111260   3.661   4.135   2.548
 3748SOL    HW211261   3.715   4.019   2.446
 3749SOL     OW11262   4.492   4.868   2.885
 3749SOL    HW111263   4.414   4.885   2.945
 3749SOL    HW211264   4.526   4.955   2.849
 3750SOL     OW11265   4.574   4.522   3.685
 3750SOL    HW111266   4.570   4.598   3.750
 3750SOL    HW211267   4.596   4.558   3.594
 3751SOL     OW11268   4.409   4.736   2.527
 3751SOL    HW111269   4.478   4.720   2.597
 3751SOL    HW211270   4.336   4.793   2.565
 3752SOL     OW11271   4.162   4.116   3.361
 3752SOL    HW111272   4.244   4.060   3.370
 3752SOL    HW211273   4.081   4.058   3.365
 3753SOL     OW11274   3.964   4.815   2.748
 3753SOL    HW111275   3.978   4.731   2.800
 3753SOL    HW211276   3.909   4.879   2.803
 3754SOL     OW11277   4.330   4.688   1.985
 3754SOL    HW111278   4.337   4.772   1.931
 3754SOL    HW211279   4.376   4.701   2.073
 3755SOL     OW11280   3.846   4.367   2.425
 3755SOL    HW111281   3.801   4.279   2.442
 3755SOL    HW211282   3.845   4.421   2.509
 3756SOL     OW11283   3.837   4.461   3.459
 3756SOL    HW111284   3.925   4.448   3.504
 3756SOL    HW211285   3.824   4.558   3.437
 3757SOL     OW11286   4.337   5.089   2.588
 3757SOL    HW111287   4.288   5.002   2.597
 3757SOL    HW211288   4.314   5.132   2.501
 3758SOL     OW11289   4.533   3.728   2.364
 3758SOL    HW111290   4.573   3.819   2.355
 3758SOL    HW211291   4.433   3.736   2.370
 3759SOL     OW11292   3.921   4.700   3.126
 3759SOL    HW111293   4.010   4.655   3.112
 3759SOL    HW211294   3.848   4.635   3.107
 3760SOL     OW11295   4.041   3.975   3.663
 3760SOL    HW111296   4.112   4.046   3.669
 3760SOL    HW211297   3.953   4.014   3.691
 3761SOL     OW11298   4.322   4.453   2.132
 3761SOL    HW111299   4.346   4.522   2.064
 3761SOL    HW211300   4.244   4.486   2.186
 3762SOL     OW11301   4.531   4.329   3.327
 3762SOL    HW111302   4.484   4.326   3.416
 3762SOL    HW211303   4.480   4.274   3.261
 3763SOL     OW11304   4.697   4.614   3.434
 3763SOL    HW111305   4.743   4.530   3.405
 3763SOL    HW211306   4.641   4.648   3.359
 3764SOL     OW11307   4.715   4.134   3.104
 3764SOL    HW111308   4.638   4.168   3.158
 3764SOL    HW211309   4.681   4.083   3.025
 3765SOL     OW11310   4.765   4.425   2.291
 3765SOL    HW111311   4.791   4.421   2.387
 3765SOL    HW211312   4.680   4.374   2.277
 3766SOL     OW11313   3.800   4.535   2.651
 3766SOL    HW111314   3.899   4.523   2.660
 3766SOL    HW211315   3.776   4.630   2.672
 3767SOL     OW11316   4.589   4.072   2.057
 3767SOL    HW111317   4.648   4.135   2.008
 3767SOL    HW211318   4.608   3.978   2.028
 3768SOL     OW11319   4.274   3.920   2.747
 3768SOL    HW111320   4.269   3.915   2.847
 3768SOL    HW211321   4.276   4.016   2.718
 3769SOL     OW11322   4.045   4.667   2.104
 3769SOL    HW111323   4.127   4.706   2.062
 3769SOL    HW211324   4.018   4.585   2.055
 3770SOL     OW11325   3.926   4.009   3.360
 3770SOL    HW111326   3.846   4.069   3.347
 3770SOL    HW211327   3.916   3.960   3.446
 3771SOL     OW11328   4.106   4.424   2.342
 3771SOL    HW111329   4.151   4.334   2.339
 3771SOL    HW211330   4.012   4.413   2.375
 3772SOL     OW11331   4.338   3.846   1.979
 3772SOL    HW111332   4.436   3.824   1.986
 3772SOL    HW211333   4.307   3.829   1.886
 3773SOL     OW11334   4.505   3.988   3.611
 3773SOL    HW111335   4.572   3.927   3.654
 3773SOL    HW211336   4.432   4.007   3.676
 3774SOL     OW11337   4.646   4.227   2.761
 3774SOL    HW111338   4.621   4.218   2.665
 3774SOL    HW211339   4.694   4.145   2.792
 3775SOL     OW11340   4.263   3.788   2.374
 3775SOL    HW111341   4.182   3.789   2.432
 3775SOL    HW211342   4.266   3.871   2.319
 3776SOL     OW11343   4.021   3.759   2.033
 3776SOL    HW111344   4.070   3.843   2.012
 3776SOL    HW211345   4.083   3.694   2.078
 3777SOL     OW11346   4.659   3.960   2.342
 3777SOL    HW111347   4.611   4.001   2.264
 3777SOL    HW211348   4.758   3.958   2.323
 3778SOL     OW11349   4.183   4.876   2.603
 3778SOL    HW111350   4.112   4.849   2.668
 3778SOL    HW211351   4.157   4.848   2.510
 3779SOL     OW11352   4.756   4.273   1.878
 3779SOL    HW111353   4.715   4.355   1.839
 3779SOL    HW211354   4.820   4.299   1.951
 3780SOL     OW11355   3.802   4.280   3.248
 3780SOL    HW111356   3.894   4.279   3.207
 3780SOL    HW211357   3.796   4.354   3.315
 3781SOL     OW11358   4.285   3.946   3.009
 3781SOL    HW111359   4.323   3.862   3.046
 3781SOL    HW211360   4.197   3.965   3.053
 3782SOL     OW11361   4.590   4.178   2.504
 3782SOL    HW111362   4.558   4.250   2.442
 3782SOL    HW211363   4.614   4.097   2.451
 3783SOL     OW11364   4.741   3.763   2.615
 3783SOL    HW111365   4.669   3.768   2.546
 3783SOL    HW211366   4.717   3.694   2.684
 3784SOL     OW11367   4.251   3.980   2.190
 3784SOL    HW111368   4.278   3.921   2.115
 3784SOL    HW211369   4.251   4.075   2.159
 3785SOL     OW11370   4.639   3.813   3.264
 3785SOL    HW111371   4.664   3.793   3.169
 3785SOL    HW211372   4.711   3.869   3.306
 3786SOL     OW11373   4.429   4.774   2.230
 3786SOL    HW111374   4.415   4.781   2.329
 3786SOL    HW211375   4.513   4.723   2.212
 3787SOL     OW11376   4.134   4.537   3.113
 3787SOL    HW111377   4.220   4.549   3.163
 3787SOL    HW211378   4.092   4.450   3.140
 3788SOL     OW11379   4.091   4.824   2.363
 3788SOL    HW111380   4.084   4.907   2.307
 3788SOL    HW211381   4.095   4.744   2.303
 3789SOL     OW11382   4.290   4.261   2.727
 3789SOL    HW111383   4.302   4.327   2.653
 3789SOL    HW211384   4.336   4.295   2.810
 3790SOL     OW11385   4.126   4.475   3.460
 3790SOL    HW111386   4.194   4.530   3.413
 3790SOL    HW211387   4.166   4.387   3.487
 3791SOL     OW11388   4.737   3.829   3.632
 3791SOL    HW111389   4.743   3.914   3.580
 3791SOL    HW211390   4.769   3.753   3.575
 3792SOL     OW11391   4.228   3.774   3.602
 3792SOL    HW111392   4.186   3.717   3.532
 3792SOL    HW211393   4.162   3.843   3.634
 3793SOL     OW11394   4.297   4.594   2.891
 3793SOL    HW111395   4.341   4.683   2.882
 3793SOL    HW211396   4.234   4.594   2.968
 3794SOL     OW11397   4.933   4.249   2.137
 3794SOL    HW111398   4.946   4.165   2.191
 3794SOL    HW211399   4.904   4.323   2.197
 3795SOL     OW11400   4.031   3.937   3.093
 3795SOL    HW111401   4.008   3.974   3.183
 3795SOL    HW211402   4.001   3.842   3.087
 3796SOL     OW11403   4.456   4.358   2.926
 3796SOL    HW111404   4.515   4.332   2.850
 3796SOL    HW211405   4.428   4.454   2.915
 3797SOL     OW11406   4.031   3.787   2.480
 3797SOL    HW111407   4.020   3.881   2.513
 3797SOL    HW211408   4.026   3.724   2.557
 3798SOL     OW11409   4.747   4.490   2.828
 3798SOL    HW111410   4.762   4.511   2.924
 3798SOL    HW211411   4.717   4.395   2.819
 3799SOL     OW11412   4.074   4.622   3.666
 3799SOL    HW111413   4.150   4.666   3.714
 3799SOL    HW211414   4.109   4.575   3.584
 3800SOL     OW11415   5.027   4.562   1.904
 3800SOL    HW111416   5.061   4.469   1.919
 3800SOL    HW211417   5.045   4.589   1.809
 3801SOL     OW11418   4.043   4.534   2.811
 3801SOL    HW111419   4.136   4.570   2.816
 3801SOL    HW211420   4.037   4.449   2.863
 3802SOL     OW11421   4.063   4.233   2.868
 3802SOL    HW111422   4.011   4.150   2.851
 3802SOL    HW211423   4.140   4.238   2.804
 3803SOL     OW11424   4.862   4.104   3.540
 3803SOL    HW111425   4.817   4.167   3.604
 3803SOL    HW211426   4.955   4.135   3.523
 3804SOL     OW11427   4.884   3.931   3.339
 3804SOL    HW111428   4.884   3.995   3.416
 3804SOL    HW211429   4.912   3.979   3.256
 3805SOL     OW11430   4.726   4.520   3.100
 3805SOL    HW111431   4.767   4.488   3.186
 3805SOL    HW211432   4.630   4.493   3.097
 3806SOL     OW11433   3.764   4.268   2.976
 3806SOL    HW111434   3.849   4.235   2.935
 3806SOL    HW211435   3.777   4.283   3.074
 3807SOL     OW11436   3.913   4.244   3.584
 3807SOL    HW111437   3.972   4.204   3.514
 3807SOL    HW211438   3.855   4.315   3.543
 3808SOL     OW11439   4.539   4.296   2.187
 3808SOL    HW111440   4.546   4.207   2.141
 3808SOL    HW211441   4.445   4.330   2.179
 3809SOL     OW11442   4.395   4.188   3.131
 3809SOL    HW111443   4.361   4.099   3.101
 3809SOL    HW211444   4.421   4.242   3.051
 3810SOL     OW11445   4.197   4.224   2.053
 3810SOL    HW111446   4.258   4.304   2.057
 3810SOL    HW211447   4.102   4.255   2.060
 3811SOL     OW11448   3.883   4.861   3.328
 3811SOL    HW111449   3.905   4.800   3.404
 3811SOL    HW211450   3.893   4.812   3.242
 3812SOL     OW11451   5.026   4.579   2.171
 3812SOL    HW111452   4.940   4.548   2.213
 3812SOL    HW211453   5.022   4.565   2.072
 3813SOL     OW11454   3.987   4.050   2.582
 3813SOL    HW111455   3.908   4.101   2.548
 3813SOL    HW211456   3.978   4.035   2.680
 3814SOL     OW11457   4.546   4.726   3.234
 3814SOL    HW111458   4.586   4.725   3.142
 3814SOL    HW211459   4.556   4.818   3.274
 3815SOL     OW11460   4.640   4.634   2.153
 3815SOL    HW111461   4.703   4.672   2.085
 3815SOL    HW211462   4.680   4.551   2.192
 3816SOL     OW11463   4.096   5.012   3.352
 3816SOL    HW111464   4.083   5.105   3.318
 3816SOL    HW211465   4.012   4.960   3.339
 3817SOL     OW11466   4.738   3.960   2.833
 3817SOL    HW111467   4.730   3.924   2.740
 3817SOL    HW211468   4.736   3.884   2.898
 3818SOL     OW11469   3.829   4.737   3.588
 3818SOL    HW111470   3.752   4.704   3.642
 3818SOL    HW211471   3.914   4.707   3.630
 3819SOL     OW11472   4.396   3.927   3.351
 3819SOL    HW111473   4.486   3.911   3.311
 3819SOL    HW211474   4.404   3.932   3.450
 3820SOL     OW11475   3.799   4.069   1.895
 3820SOL    HW111476   3.707   4.041   1.866
 3820SOL    HW211477   3.830   4.146   1.839
 3821SOL     OW11478   3.796   3.890   2.180
 3821SOL    HW111479   3.779   3.973   2.126
 3821SOL    HW211480   3.886   3.853   2.158
 3822SOL     OW11481   4.337   4.566   3.293
 3822SOL    HW111482   4.393   4.647   3.276
 3822SOL    HW211483   4.396   4.486   3.296
 3823SOL     OW11484   4.440   4.289   3.570
 3823SOL    HW111485   4.459   4.354   3.644
 3823SOL    HW211486   4.500   4.209   3.579
 3824SOL     OW11487   4.318   4.469   2.514
 3824SOL    HW111488   4.368   4.554   2.495
 3824SOL    HW211489   4.230   4.471   2.466
 3825SOL     OW11490   4.583   4.680   2.723
 3825SOL    HW111491   4.637   4.611   2.771
 3825SOL    HW211492   4.551   4.749   2.789
 3826SOL     OW11493   4.807   4.708   1.949
 3826SOL    HW111494   4.784   4.761   1.867
 3826SOL    HW211495   4.888   4.652   1.930
 3827SOL     OW11496   4.152   4.148   2.382
 3827SOL    HW111497   4.182   4.076   2.320
 3827SOL    HW211498   4.113   4.108   2.465
 3828SOL     OW11499   4.041   4.271   3.142
 3828SOL    HW111500   4.079   4.212   3.214
 3828SOL    HW211501   4.081   4.245   3.054
 3829SOL     OW11502   4.725   3.758   3.016
 3829SOL    HW111503   4.662   3.686   2.985
 3829SOL    HW211504   4.818   3.722   3.016
 3830SOL     OW11505   4.494   5.054   2.163
 3830SOL    HW111506   4.448   4.967   2.180
 3830SOL    HW211507   4.585   5.051   2.204
 3831SOL     OW11508   3.763   4.801   2.162
 3831SOL    HW111509   3.862   4.790   2.153
 3831SOL    HW211510   3.723   4.715   2.194
 3832SOL     OW11511   3.954   4.352   3.837
 3832SOL    HW111512   3.861   4.350   3.874
 3832SOL    HW211513   3.955   4.313   3.745
 3833SOL     OW11514   3.949   3.999   4.720
 3833SOL    HW111515   3.984   3.982   4.812
 3833SOL    HW211516   3.861   3.954   4.708
 3834SOL     OW11517   3.743   4.092   4.371
 3834SOL    HW111518   3.661   4.135   4.410
 3834SOL    HW211519   3.715   4.019   4.308
 3835SOL     OW11520   4.492   4.868   4.747
 3835SOL    HW111521   4.414   4.885   4.807
 3835SOL    HW211522   4.526   4.955   4.711
 3836SOL     OW11523   4.409   4.736   4.389
 3836SOL    HW111524   4.478   4.720   4.459
 3836SOL    HW211525   4.336   4.793   4.427
 3837SOL     OW11526   5.184   5.229   5.063
 3837SOL    HW111527   5.208   5.323   5.089
 3837SOL    HW211528   5.168   5.175   5.145
 3838SOL     OW11529   3.964   4.815   4.610
 3838SOL    HW111530   3.978   4.731   4.662
 3838SOL    HW211531   3.909   4.879   4.665
 3839SOL     OW11532   4.330   4.688   3.847
 3839SOL    HW111533   4.337   4.772   3.793
 3839SOL    HW211534   4.376   4.701   3.935
 3840SOL     OW11535   3.846   4.367   4.287
 3840SOL    HW111536   3.801   4.279   4.304
 3840SOL    HW211537   3.845   4.421   4.371
 3841SOL     OW11538   4.337   5.089   4.450
 3841SOL    HW111539   4.288   5.002   4.459
 3841SOL    HW211540   4.314   5.132   4.363
 3842SOL     OW11541   4.533   3.728   4.226
 3842SOL    HW111542   4.573   3.819   4.217
 3842SOL    HW211543   4.433   3.736   4.232
 3843SOL     OW11544   3.921   4.700   4.988
 3843SOL    HW111545   4.010   4.655   4.974
 3843SOL    HW211546   3.848   4.635   4.969
 3844SOL     OW11547   4.322   4.453   3.994
 3844SOL    HW111548   4.346   4.522   3.926
 3844SOL    HW211549   4.244   4.486   4.048
 3845SOL     OW11550   4.765   4.425   4.153
 3845SOL    HW111551   4.791   4.421   4.249
 3845SOL    HW211552   4.680   4.374   4.139
 3846SOL     OW11553   3.800   4.535   4.513
 3846SOL    HW111554   3.899   4.523   4.522
 3846SOL    HW211555   3.776   4.630   4.534
 3847SOL     OW11556   4.589   4.072   3.919
 3847SOL    HW111557   4.648   4.135   3.870
 3847SOL    HW211558   4.608   3.978   3.890
 3848SOL     OW11559   4.274   3.920   4.609
 3848SOL    HW111560   4.269   3.915   4.709
 3848SOL    HW211561   4.276   4.016   4.580
 3849SOL     OW11562   4.045   4.667   3.966
 3849SOL    HW111563   4.127   4.706   3.924
 3849SOL    HW211564   4.018   4.585   3.917
 3850SOL     OW11565   4.106   4.424   4.204
 3850SOL    HW111566   4.151   4.334   4.201
 3850SOL    HW211567   4.012   4.413   4.237
 3851SOL     OW11568   4.338   3.846   3.841
 3851SOL    HW111569   4.436   3.824   3.848
 3851SOL    HW211570   4.307   3.829   3.748
 3852SOL     OW11571   4.612   5.238   4.919
 3852SOL    HW111572   4.589   5.213   4.825
 3852SOL    HW211573   4.673   5.169   4.958
 3853SOL     OW11574   4.646   4.227   4.623
 3853SOL    HW111575   4.621   4.218   4.527
 3853SOL    HW211576   4.694   4.145   4.654
 3854SOL     OW11577   4.263   3.788   4.236
 3854SOL    HW111578   4.182   3.789   4.294
 3854SOL    HW211579   4.266   3.871   4.181
 3855SOL     OW11580   4.021   3.759   3.895
 3855SOL    HW111581   4.070   3.843   3.874
 3855SOL    HW211582   4.083   3.694   3.940
 3856SOL     OW11583   4.659   3.960   4.204
 3856SOL    HW111584   4.611   4.001   4.126
 3856SOL    HW211585   4.758   3.958   4.185
 3857SOL     OW11586   4.183   4.876   4.465
 3857SOL    HW111587   4.112   4.849   4.530
 3857SOL    HW211588   4.157   4.848   4.372
 3858SOL     OW11589   4.756   4.273   3.740
 3858SOL    HW111590   4.715   4.355   3.701
 3858SOL    HW211591   4.820   4.299   3.813
 3859SOL     OW11592   4.590   4.178   4.366
 3859SOL    HW111593   4.558   4.250   4.304
 3859SOL    HW211594   4.614   4.097   4.313
 3860SOL     OW11595   4.741   3.763   4.477
 3860SOL    HW111596   4.669   3.768   4.408
 3860SOL    HW211597   4.717   3.694   4.546
 3861SOL     OW11598   4.251   3.980   4.052
 3861SOL    HW111599   4.278   3.921   3.977
 3861SOL    HW211600   4.251   4.075   4.021
 3862SOL     OW11601   4.429   4.774   4.092
 3862SOL    HW111602   4.415   4.781   4.191
 3862SOL    HW211603   4.513   4.723   4.074
 3863SOL     OW11604   4.134   4.537   4.975
 3863SOL    HW111605   4.220   4.549   5.025
 3863SOL    HW211606   4.092   4.450   5.002
 3864SOL     OW11607   4.091   4.824   4.225
 3864SOL    HW111608   4.084   4.907   4.169
 3864SOL    HW211609   4.095   4.744   4.165
 3865SOL     OW11610   4.290   4.261   4.589
 3865SOL    HW111611   4.302   4.327   4.515
 3865SOL    HW211612   4.336   4.295   4.672
 3866SOL     OW11613   4.297   4.594   4.753
 3866SOL    HW111614   4.341   4.683   4.744
 3866SOL    HW211615   4.234   4.594   4.830
 3867SOL     OW11616   4.933   4.249   3.999
 3867SOL    HW111617   4.946   4.165   4.053
 3867SOL    HW211618   4.904   4.323   4.059
 3868SOL     OW11619   4.456   4.358   4.788
 3868SOL    HW111620   4.515   4.332   4.712
 3868SOL    HW211621   4.428   4.454   4.777
 3869SOL     OW11622   4.031   3.787   4.342
 3869SOL    HW111623   4.020   3.881   4.375
 3869SOL    HW211624   4.026   3.724   4.419
 3870SOL     OW11625   4.747   4.490   4.690
 3870SOL    HW111626   4.762   4.511   4.786
 3870SOL    HW211627   4.717   4.395   4.681
 3871SOL     OW11628   5.027   4.562   3.766
 3871SOL    HW111629   5.061   4.469   3.781
 3871SOL    HW211630   5.045   4.589   3.671
 3872SOL     OW11631   4.043   4.534   4.673
 3872SOL    HW111632   4.136   4.570   4.678
 3872SOL    HW211633   4.037   4.449   4.725
 3873SOL     OW11634   4.063   4.233   4.730
 3873SOL    HW111635   4.011   4.150   4.713
 3873SOL    HW211636   4.140   4.238   4.666
 3874SOL     OW11637   4.726   4.520   4.962
 3874SOL    HW111638   4.767   4.488   5.048
 3874SOL    HW211639   4.630   4.493   4.959
 3875SOL     OW11640   3.764   4.268   4.838
 3875SOL    HW111641   3.849   4.235   4.797
 3875SOL    HW211642   3.777   4.283   4.936
 3876SOL     OW11643   4.539   4.296   4.049
 3876SOL    HW111644   4.546   4.207   4.003
 3876SOL    HW211645   4.445   4.330   4.041
 3877SOL     OW11646   4.395   4.188   4.993
 3877SOL    HW111647   4.361   4.099   4.963
 3877SOL    HW211648   4.421   4.242   4.913
 3878SOL     OW11649   4.197   4.224   3.915
 3878SOL    HW111650   4.258   4.304   3.919
 3878SOL    HW211651   4.102   4.255   3.922
 3879SOL     OW11652   5.026   4.579   4.033
 3879SOL    HW111653   4.940   4.548   4.075
 3879SOL    HW211654   5.022   4.565   3.934
 3880SOL     OW11655   3.987   4.050   4.444
 3880SOL    HW111656   3.908   4.101   4.410
 3880SOL    HW211657   3.978   4.035   4.542
 3881SOL     OW11658   4.546   4.726   5.096
 3881SOL    HW111659   4.586   4.725   5.004
 3881SOL    HW211660   4.556   4.818   5.136
 3882SOL     OW11661   4.640   4.634   4.015
 3882SOL    HW111662   4.703   4.672   3.947
 3882SOL    HW211663   4.680   4.551   4.054
 3883SOL     OW11664   4.738   3.960   4.695
 3883SOL    HW111665   4.730   3.924   4.602
 3883SOL    HW211666   4.736   3.884   4.760
 3884SOL     OW11667   3.799   4.069   3.757
 3884SOL    HW111668   3.707   4.041   3.728
 3884SOL    HW211669   3.830   4.146   3.701
 3885SOL     OW11670   3.796   3.890   4.042
 3885SOL    HW111671   3.779   3.973   3.988
 3885SOL    HW211672   3.886   3.853   4.020
 3886SOL     OW11673   4.318   4.469   4.376
 3886SOL    HW111674   4.368   4.554   4.357
 3886SOL    HW211675   4.230   4.471   4.328
 3887SOL     OW11676   4.583   4.680   4.585
 3887SOL    HW111677   4.637   4.611   4.633
 3887SOL    HW211678   4.551   4.749   4.651
 3888SOL     OW11679   4.807   4.708   3.811
 3888SOL    HW111680   4.784   4.761   3.729
 3888SOL    HW211681   4.888   4.652   3.792
 3889SOL     OW11682   4.152   4.148   4.244
 3889SOL    HW111683   4.182   4.076   4.182
 3889SOL    HW211684   4.113   4.108   4.327
 3890SOL     OW11685   4.494   5.054   4.025
 3890SOL    HW111686   4.448   4.967   4.042
 3890SOL    HW211687   4.585   5.051   4.066
 3891SOL     OW11688   3.763   4.801   4.024
 3891SOL    HW111689   3.862   4.790   4.015
 3891SOL    HW211690   3.723   4.715   4.056
   4.92130   4.92130   4.92130
