mobley_1735893_GMX.gro created by acpype (v: 2023.10.27) on Thu May 21 00:04:00 2026
   20
    1MOL     C1    1   2.551   2.212   2.300
    1MOL     C2    2   2.360   2.727   2.632
    1MOL     C3    3   2.575   2.334   2.386
    1MOL     C4    4   2.335   2.602   2.549
    1MOL     C5    5   2.443   2.403   2.424
    1MOL     C6    6   2.463   2.532   2.503
    1MOL     O1    7   2.442   2.169   2.265
    1MOL     O2    8   2.669   2.153   2.265
    1MOL     H1    9   2.265   2.766   2.670
    1MOL     H2   10   2.424   2.705   2.718
    1MOL     H3   11   2.407   2.806   2.573
    1MOL     H4   12   2.628   2.302   2.476
    1MOL     H5   13   2.638   2.404   2.330
    1MOL     H6   14   2.277   2.531   2.609
    1MOL     H7   15   2.272   2.627   2.463
    1MOL     H8   16   2.380   2.333   2.480
    1MOL     H9   17   2.388   2.427   2.332
    1MOL    H10   18   2.522   2.602   2.442
    1MOL    H11   19   2.524   2.510   2.592
    1MOL    H12   20   2.660   2.073   2.209
   4.92130   4.92130   4.92130
