; mobley_3318135_GMX_OPLS.top created by acpype (v: 2023.10.27) on Thu May 21 00:01:40 2026

; Include forcefield parameters
#include "ffoplsaa.itp"

; Include mobley_3318135_GMX.itp topology
#include "mobley_3318135_GMX.itp"

; Ligand position restraints
#ifdef POSRES_LIG
#include "posre_mobley_3318135.itp"
#endif

[ system ]
 mobley_3318135

[ molecules ]
; Compound        nmols
 mobley_3318135   1     
