%VERSION  VERSION_STAMP = V0001.000  DATE = 05/21/26  00:01:54                  
%FLAG TITLE                                                                     
%FORMAT(20a4)                                                                   
nonan_5_one                                                                     
%FLAG POINTERS                                                                  
%FORMAT(10I8)                                                                   
      28       4      18       9      42       9      62      17       0       0
     146       1       9       9      17       4       7      15       4       0
       0       0       0       0       0       0       0       0      28       0
       0
%FLAG ATOM_NAME                                                                 
%FORMAT(20a4)                                                                   
C1  C2  C3  C4  C5  C6  C7  C8  C9  O1  H1  H2  H3  H4  H5  H6  H7  H8  H9  H10 
H11 H12 H13 H14 H15 H16 H17 H18 
%FLAG CHARGE                                                                    
%FORMAT(5E16.8)                                                                 
  1.02791994E+01 -1.67827383E+00 -1.67827383E+00 -3.32374752E+00 -3.32374752E+00
 -1.44685062E+00 -1.44685062E+00 -1.37396142E+00 -1.37396142E+00 -9.64141893E+00
  6.26245784E-01  6.26245784E-01  6.26245784E-01  6.26245784E-01  6.26245784E-01
  6.26245784E-01  1.15164936E+00  1.15164936E+00  1.15164936E+00  1.15164936E+00
  6.59647260E-01  6.59647260E-01  6.59647260E-01  6.59647260E-01  1.00587096E+00
  1.00587096E+00  1.00587096E+00  1.00587096E+00
%FLAG ATOMIC_NUMBER                                                             
%FORMAT(10I8)                                                                   
       6       6       6       6       6       6       6       6       6       8
       1       1       1       1       1       1       1       1       1       1
       1       1       1       1       1       1       1       1
%FLAG MASS                                                                      
%FORMAT(5E16.8)                                                                 
  1.20100000E+01  1.20100000E+01  1.20100000E+01  1.20100000E+01  1.20100000E+01
  1.20100000E+01  1.20100000E+01  1.20100000E+01  1.20100000E+01  1.60000000E+01
  1.00800000E+00  1.00800000E+00  1.00800000E+00  1.00800000E+00  1.00800000E+00
  1.00800000E+00  1.00800000E+00  1.00800000E+00  1.00800000E+00  1.00800000E+00
  1.00800000E+00  1.00800000E+00  1.00800000E+00  1.00800000E+00  1.00800000E+00
  1.00800000E+00  1.00800000E+00  1.00800000E+00
%FLAG ATOM_TYPE_INDEX                                                           
%FORMAT(10I8)                                                                   
       1       2       2       2       2       2       2       2       2       3
       4       4       4       4       4       4       4       4       4       4
       4       4       4       4       4       4       4       4
%FLAG NUMBER_EXCLUDED_ATOMS                                                     
%FORMAT(10I8)                                                                   
      15      10      10      13      12      10      10      10      10       4
       4       3       2       4       3       2       3       2       3       2
       3       2       3       2       1       1       1       1
%FLAG NONBONDED_PARM_INDEX                                                      
%FORMAT(10I8)                                                                   
       1       2       4       7       2       3       5       8       4       5
       6       9       7       8       9      10
%FLAG RESIDUE_LABEL                                                             
%FORMAT(20a4)                                                                   
MOL 
%FLAG RESIDUE_POINTER                                                           
%FORMAT(10I8)                                                                   
       1
%FLAG BOND_FORCE_CONSTANT                                                       
%FORMAT(5E16.8)                                                                 
  2.34850000E+02  5.90600000E+02  2.28890000E+02  3.45250000E+02
%FLAG BOND_EQUIL_VALUE                                                          
%FORMAT(5E16.8)                                                                 
  1.52700000E+00  1.21900000E+00  1.53540000E+00  1.09620000E+00
%FLAG ANGLE_FORCE_CONSTANT                                                      
%FORMAT(5E16.8)                                                                 
  6.03600000E+01  4.36300000E+01  5.98700000E+01  4.32700000E+01  5.91500000E+01
  7.64500000E+01  3.58000000E+01
%FLAG ANGLE_EQUIL_VALUE                                                         
%FORMAT(5E16.8)                                                                 
  1.94482122E+00  1.90153704E+00  1.96576518E+00  1.91427794E+00  2.03645104E+00
  2.14501057E+00  1.88024401E+00
%FLAG DIHEDRAL_FORCE_CONSTANT                                                   
%FORMAT(5E16.8)                                                                 
  4.60000000E-01  4.00000000E-02  0.00000000E+00  1.55555556E-01  5.20000000E-01
  1.30000000E-01  2.62000000E-01  0.00000000E+00  6.80000000E-01  2.00000000E-01
  4.40000000E-01  4.03000000E+00  3.66000000E+00  1.20000000E-01  1.10000000E+00
%FLAG DIHEDRAL_PERIODICITY                                                      
%FORMAT(5E16.8)                                                                 
  1.00000000E+00  2.00000000E+00  3.00000000E+00  3.00000000E+00  3.00000000E+00
  3.00000000E+00  2.00000000E+00  3.00000000E+00  1.00000000E+00  2.00000000E+00
  3.00000000E+00  1.00000000E+00  2.00000000E+00  3.00000000E+00  2.00000000E+00
%FLAG DIHEDRAL_PHASE                                                            
%FORMAT(5E16.8)                                                                 
  3.14159400E+00  0.00000000E+00  0.00000000E+00  0.00000000E+00  0.00000000E+00
  0.00000000E+00  3.14159400E+00  3.14159400E+00  0.00000000E+00  3.14159400E+00
  3.14159400E+00  0.00000000E+00  3.14159400E+00  0.00000000E+00  3.14159400E+00
%FLAG SCEE_SCALE_FACTOR                                                         
%FORMAT(5E16.8)                                                                 
  1.20000000E+00  1.20000000E+00  1.20000000E+00  1.20000000E+00  1.20000000E+00
  1.20000000E+00  1.20000000E+00  1.20000000E+00  1.20000000E+00  1.20000000E+00
  1.20000000E+00  1.20000000E+00  1.20000000E+00  1.20000000E+00  0.00000000E+00
%FLAG SCNB_SCALE_FACTOR                                                         
%FORMAT(5E16.8)                                                                 
  2.00000000E+00  2.00000000E+00  2.00000000E+00  2.00000000E+00  2.00000000E+00
  2.00000000E+00  2.00000000E+00  2.00000000E+00  2.00000000E+00  2.00000000E+00
  2.00000000E+00  2.00000000E+00  2.00000000E+00  2.00000000E+00  0.00000000E+00
%FLAG SOLTY                                                                     
%FORMAT(5E16.8)                                                                 
  0.00000000E+00  0.00000000E+00  0.00000000E+00  0.00000000E+00
%FLAG LENNARD_JONES_ACOEF                                                       
%FORMAT(5E16.8)                                                                 
  6.96551276E+05  8.43969952E+05  1.02073671E+06  5.17507491E+05  6.30925504E+05
  3.76435470E+05  8.12662403E+04  1.00235148E+05  5.68021765E+04  7.94617769E+03
%FLAG LENNARD_JONES_BCOEF                                                       
%FORMAT(5E16.8)                                                                 
  5.24668528E+02  5.90251928E+02  6.63431737E+02  4.98871431E+02  5.62969425E+02
  4.69350655E+02  1.21392023E+02  1.37787728E+02  1.11953944E+02  2.57122925E+01
%FLAG BONDS_INC_HYDROGEN                                                        
%FORMAT(10I8)                                                                   
       3      30       4       3      33       4       3      36       4       6
      39       4       6      42       4       6      45       4       9      48
       4       9      51       4      12      54       4      12      57       4
      15      60       4      15      63       4      18      66       4      18
      69       4      21      72       4      21      75       4      24      78
       4      24      81       4
%FLAG BONDS_WITHOUT_HYDROGEN                                                    
%FORMAT(10I8)                                                                   
       0       9       1       0      12       1       0      27       2       3
      15       3       6      18       3       9      21       3      12      24
       3      15      21       3      18      24       3
%FLAG ANGLES_INC_HYDROGEN                                                       
%FORMAT(10I8)                                                                   
       0       9      48       2       0       9      51       2       0      12
      54       2       0      12      57       2       3      15      60       4
       3      15      63       4       6      18      66       4       6      18
      69       4       9      21      72       4       9      21      75       4
      12      24      78       4      12      24      81       4      15       3
      30       4      15       3      33       4      15       3      36       4
      15      21      72       4      15      21      75       4      18       6
      39       4      18       6      42       4      18       6      45       4
      18      24      78       4      18      24      81       4      21       9
      48       4      21       9      51       4      21      15      60       4
      21      15      63       4      24      12      54       4      24      12
      57       4      24      18      66       4      24      18      69       4
      30       3      33       7      30       3      36       7      33       3
      36       7      39       6      42       7      39       6      45       7
      42       6      45       7      48       9      51       7      54      12
      57       7      60      15      63       7      66      18      69       7
      72      21      75       7      78      24      81       7
%FLAG ANGLES_WITHOUT_HYDROGEN                                                   
%FORMAT(10I8)                                                                   
       0       9      21       1       0      12      24       1       3      15
      21       3       6      18      24       3       9       0      12       5
       9       0      27       6       9      21      15       3      12       0
      27       6      12      24      18       3
%FLAG DIHEDRALS_INC_HYDROGEN                                                    
%FORMAT(10I8)                                                                   
       0       9      21      72       4       0       9      21      75       4
       0      12      24      78       4       0      12      24      81       4
       3      15      21      72       6       3      15      21      75       6
       6      18      24      78       6       6      18      24      81       6
       9       0      12      54       8       9       0      12      57       8
       9      21      15      60       6       9      21      15      63       6
      12       0       9      48       8      12       0       9      51       8
      12      24      18      66       6      12      24      18      69       6
      15      21       9      48       6      15      21       9      51       6
      18      24      12      54       6      18      24      12      57       6
      21      15       3      30       6      21      15       3      33       6
      21      15       3      36       6      24      18       6      39       6
      24      18       6      42       6      24      18       6      45       6
      27       0       9      48      12      27       0      -9      48      13
      27       0       9      51      12      27       0      -9      51      13
      27       0      12      54      12      27       0     -12      54      13
      27       0      12      57      12      27       0     -12      57      13
      30       3      15      60      14      30       3      15      63      14
      33       3      15      60      14      33       3      15      63      14
      36       3      15      60      14      36       3      15      63      14
      39       6      18      66      14      39       6      18      69      14
      42       6      18      66      14      42       6      18      69      14
      45       6      18      66      14      45       6      18      69      14
      48       9      21      72      14      48       9      21      75      14
      51       9      21      72      14      51       9      21      75      14
      54      12      24      78      14      54      12      24      81      14
      57      12      24      78      14      57      12      24      81      14
      60      15      21      72      14      60      15      21      75      14
      63      15      21      72      14      63      15      21      75      14
      66      18      24      78      14      66      18      24      81      14
      69      18      24      78      14      69      18      24      81      14
%FLAG DIHEDRALS_WITHOUT_HYDROGEN                                                
%FORMAT(10I8)                                                                   
       0       9      21      15       1       0       9     -21      15       2
       0       9     -21      15       3       0      12      24      18       1
       0      12     -24      18       2       0      12     -24      18       3
       3      15      21       9       5       6      18      24      12       5
       9       0      12      24       7      12       0       9      21       7
      27       0       9      21       9      27       0      -9      21      10
      27       0      -9      21      11      27       0      12      24       9
      27       0     -12      24      10      27       0     -12      24      11
      27       0     -12      -9      15
%FLAG EXCLUDED_ATOMS_LIST                                                       
%FORMAT(10I8)                                                                   
       4       5       6       7       8       9      10      17      18      19
      20      25      26      27      28       4       6       8      11      12
      13      21      22      25      26       5       7       9      14      15
      16      23      24      27      28       5       6       8       9      10
      17      18      19      20      21      22      25      26       7       8
       9      10      17      18      19      20      23      24      27      28
       8      11      12      13      17      18      21      22      25      26
       9      14      15      16      19      20      23      24      27      28
      10      11      12      13      17      18      21      22      25      26
      10      14      15      16      19      20      23      24      27      28
      17      18      19      20      12      13      21      22      13      21
      22      21      22      15      16      23      24      16      23      24
      23      24      18      25      26      25      26      20      27      28
      27      28      22      25      26      25      26      24      27      28
      27      28      26       0      28       0
%FLAG HBOND_ACOEF                                                               
%FORMAT(5E16.8)                                                                 

%FLAG HBOND_BCOEF                                                               
%FORMAT(5E16.8)                                                                 

%FLAG HBCUT                                                                     
%FORMAT(5E16.8)                                                                 

%FLAG AMBER_ATOM_TYPE                                                           
%FORMAT(20a4)                                                                   
c   c3  c3  c3  c3  c3  c3  c3  c3  o   hc  hc  hc  hc  hc  hc  hc  hc  hc  hc  
hc  hc  hc  hc  hc  hc  hc  hc  
%FLAG TREE_CHAIN_CLASSIFICATION                                                 
%FORMAT(20a4)                                                                   
BLA BLA BLA BLA BLA BLA BLA BLA BLA BLA BLA BLA BLA BLA BLA BLA BLA BLA BLA BLA 
BLA BLA BLA BLA BLA BLA BLA BLA 
%FLAG JOIN_ARRAY                                                                
%FORMAT(10I8)                                                                   
       0       0       0       0       0       0       0       0       0       0
       0       0       0       0       0       0       0       0       0       0
       0       0       0       0       0       0       0       0
%FLAG IROTAT                                                                    
%FORMAT(10I8)                                                                   
       0       0       0       0       0       0       0       0       0       0
       0       0       0       0       0       0       0       0       0       0
       0       0       0       0       0       0       0       0
%FLAG RADIUS_SET                                                                
%FORMAT(1a80)                                                                   
modified Bondi radii (mbondi)                                                   
%FLAG RADII                                                                     
%FORMAT(5E16.8)                                                                 
  1.70000000E+00  1.70000000E+00  1.70000000E+00  1.70000000E+00  1.70000000E+00
  1.70000000E+00  1.70000000E+00  1.70000000E+00  1.70000000E+00  1.50000000E+00
  1.30000000E+00  1.30000000E+00  1.30000000E+00  1.30000000E+00  1.30000000E+00
  1.30000000E+00  1.30000000E+00  1.30000000E+00  1.30000000E+00  1.30000000E+00
  1.30000000E+00  1.30000000E+00  1.30000000E+00  1.30000000E+00  1.30000000E+00
  1.30000000E+00  1.30000000E+00  1.30000000E+00
%FLAG SCREEN                                                                    
%FORMAT(5E16.8)                                                                 
  7.20000000E-01  7.20000000E-01  7.20000000E-01  7.20000000E-01  7.20000000E-01
  7.20000000E-01  7.20000000E-01  7.20000000E-01  7.20000000E-01  8.50000000E-01
  8.50000000E-01  8.50000000E-01  8.50000000E-01  8.50000000E-01  8.50000000E-01
  8.50000000E-01  8.50000000E-01  8.50000000E-01  8.50000000E-01  8.50000000E-01
  8.50000000E-01  8.50000000E-01  8.50000000E-01  8.50000000E-01  8.50000000E-01
  8.50000000E-01  8.50000000E-01  8.50000000E-01
%FLAG IPOL                                                                      
%FORMAT(1I8)                                                                    
       0
