; mobley_3318135_GMX_OPLS.itp created by acpype (v: 2023.10.27) on Thu May 21 00:01:40 2026

; For OPLS atomtypes manual fine tuning
; AC_at:OPLS_at:OPLScode: Possible_Alternatives (see ffoplsaa.atp and ffoplsaanb.itp)
; c:C:opls_235: ['271']
; c3:CT:opls_135: ['136', '137', '149', '157', '158', '206', '209', '210', '223B', '224B', '245', '246', '274', '283', '284', '285', '292', '292B', '293B', '296', '307', '308', '505']
; o:O:opls_236: ['272']
; hc:HC:opls_140: []

[ moleculetype ]
;name            nrexcl
 mobley_3318135   3

[ atoms ]
;   nr  type  resi  res  atom  cgnr     charge      mass       ; qtot   bond_type
     1 opls_235     1   MOL    C1    1     0.563098     12.01100 ; qtot  0.563  C   
     2 opls_135     1   MOL    C2    2    -0.092100     12.01100 ; qtot  0.471  CT  
     3 opls_135     1   MOL    C3    3    -0.092100     12.01100 ; qtot  0.379  CT  
     4 opls_135     1   MOL    C4    4    -0.182400     12.01100 ; qtot  0.196  CT  
     5 opls_135     1   MOL    C5    5    -0.182400     12.01100 ; qtot  0.014  CT  
     6 opls_135     1   MOL    C6    6    -0.079400     12.01100 ; qtot -0.065  CT  
     7 opls_135     1   MOL    C7    7    -0.079400     12.01100 ; qtot -0.145  CT  
     8 opls_135     1   MOL    C8    8    -0.075400     12.01100 ; qtot -0.220  CT  
     9 opls_135     1   MOL    C9    9    -0.075400     12.01100 ; qtot -0.296  CT  
    10 opls_236     1   MOL    O1   10    -0.529100     15.99940 ; qtot -0.825  O   
    11 opls_140     1   MOL    H1   11     0.034367      1.00800 ; qtot -0.790  HC  
    12 opls_140     1   MOL    H2   12     0.034367      1.00800 ; qtot -0.756  HC  
    13 opls_140     1   MOL    H3   13     0.034367      1.00800 ; qtot -0.722  HC  
    14 opls_140     1   MOL    H4   14     0.034367      1.00800 ; qtot -0.687  HC  
    15 opls_140     1   MOL    H5   15     0.034367      1.00800 ; qtot -0.653  HC  
    16 opls_140     1   MOL    H6   16     0.034367      1.00800 ; qtot -0.618  HC  
    17 opls_140     1   MOL    H7   17     0.063200      1.00800 ; qtot -0.555  HC  
    18 opls_140     1   MOL    H8   18     0.063200      1.00800 ; qtot -0.492  HC  
    19 opls_140     1   MOL    H9   19     0.063200      1.00800 ; qtot -0.429  HC  
    20 opls_140     1   MOL   H10   20     0.063200      1.00800 ; qtot -0.366  HC  
    21 opls_140     1   MOL   H11   21     0.036200      1.00800 ; qtot -0.329  HC  
    22 opls_140     1   MOL   H12   22     0.036200      1.00800 ; qtot -0.293  HC  
    23 opls_140     1   MOL   H13   23     0.036200      1.00800 ; qtot -0.257  HC  
    24 opls_140     1   MOL   H14   24     0.036200      1.00800 ; qtot -0.221  HC  
    25 opls_140     1   MOL   H15   25     0.055200      1.00800 ; qtot -0.166  HC  
    26 opls_140     1   MOL   H16   26     0.055200      1.00800 ; qtot -0.110  HC  
    27 opls_140     1   MOL   H17   27     0.055200      1.00800 ; qtot -0.055  HC  
    28 opls_140     1   MOL   H18   28     0.055200      1.00800 ; qtot -0.000  HC  

[ bonds ]
;   ai     aj funct   r             k
     1      4   1 ;    1.5270e-01    1.9652e+05 ;     C1 - C4          C - CT    
     1      5   1 ;    1.5270e-01    1.9652e+05 ;     C1 - C5          C - CT    
     1     10   1 ;    1.2190e-01    4.9421e+05 ;     C1 - O1          C - O     
     2      6   1 ;    1.5354e-01    1.9154e+05 ;     C2 - C6         CT - CT    
     2     11   1 ;    1.0962e-01    2.8891e+05 ;     C2 - H1         CT - HC    
     2     12   1 ;    1.0962e-01    2.8891e+05 ;     C2 - H2         CT - HC    
     2     13   1 ;    1.0962e-01    2.8891e+05 ;     C2 - H3         CT - HC    
     3      7   1 ;    1.5354e-01    1.9154e+05 ;     C3 - C7         CT - CT    
     3     14   1 ;    1.0962e-01    2.8891e+05 ;     C3 - H4         CT - HC    
     3     15   1 ;    1.0962e-01    2.8891e+05 ;     C3 - H5         CT - HC    
     3     16   1 ;    1.0962e-01    2.8891e+05 ;     C3 - H6         CT - HC    
     4      8   1 ;    1.5354e-01    1.9154e+05 ;     C4 - C8         CT - CT    
     4     17   1 ;    1.0962e-01    2.8891e+05 ;     C4 - H7         CT - HC    
     4     18   1 ;    1.0962e-01    2.8891e+05 ;     C4 - H8         CT - HC    
     5      9   1 ;    1.5354e-01    1.9154e+05 ;     C5 - C9         CT - CT    
     5     19   1 ;    1.0962e-01    2.8891e+05 ;     C5 - H9         CT - HC    
     5     20   1 ;    1.0962e-01    2.8891e+05 ;     C5 - H10        CT - HC    
     6      8   1 ;    1.5354e-01    1.9154e+05 ;     C6 - C8         CT - CT    
     6     21   1 ;    1.0962e-01    2.8891e+05 ;     C6 - H11        CT - HC    
     6     22   1 ;    1.0962e-01    2.8891e+05 ;     C6 - H12        CT - HC    
     7      9   1 ;    1.5354e-01    1.9154e+05 ;     C7 - C9         CT - CT    
     7     23   1 ;    1.0962e-01    2.8891e+05 ;     C7 - H13        CT - HC    
     7     24   1 ;    1.0962e-01    2.8891e+05 ;     C7 - H14        CT - HC    
     8     25   1 ;    1.0962e-01    2.8891e+05 ;     C8 - H15        CT - HC    
     8     26   1 ;    1.0962e-01    2.8891e+05 ;     C8 - H16        CT - HC    
     9     27   1 ;    1.0962e-01    2.8891e+05 ;     C9 - H17        CT - HC    
     9     28   1 ;    1.0962e-01    2.8891e+05 ;     C9 - H18        CT - HC    

[ pairs ]
;   ai     aj    funct
     1      6      1 ;     C1 - C6    
     1      7      1 ;     C1 - C7    
     1     25      1 ;     C1 - H15   
     1     26      1 ;     C1 - H16   
     1     27      1 ;     C1 - H17   
     1     28      1 ;     C1 - H18   
     2      4      1 ;     C2 - C4    
     2     25      1 ;     C2 - H15   
     2     26      1 ;     C2 - H16   
     3      5      1 ;     C3 - C5    
     3     27      1 ;     C3 - H17   
     3     28      1 ;     C3 - H18   
     4      9      1 ;     C4 - C9    
     4     19      1 ;     C4 - H9    
     4     20      1 ;     C4 - H10   
     4     21      1 ;     C4 - H11   
     4     22      1 ;     C4 - H12   
     5      8      1 ;     C5 - C8    
     5     17      1 ;     C5 - H7    
     5     18      1 ;     C5 - H8    
     5     23      1 ;     C5 - H13   
     5     24      1 ;     C5 - H14   
     6     17      1 ;     C6 - H7    
     6     18      1 ;     C6 - H8    
     7     19      1 ;     C7 - H9    
     7     20      1 ;     C7 - H10   
     8     11      1 ;     C8 - H1    
     8     12      1 ;     C8 - H2    
     8     13      1 ;     C8 - H3    
     9     14      1 ;     C9 - H4    
     9     15      1 ;     C9 - H5    
     9     16      1 ;     C9 - H6    
    10      8      1 ;     O1 - C8    
    10      9      1 ;     O1 - C9    
    10     17      1 ;     O1 - H7    
    10     18      1 ;     O1 - H8    
    10     19      1 ;     O1 - H9    
    10     20      1 ;     O1 - H10   
    11     21      1 ;     H1 - H11   
    11     22      1 ;     H1 - H12   
    12     21      1 ;     H2 - H11   
    12     22      1 ;     H2 - H12   
    13     21      1 ;     H3 - H11   
    13     22      1 ;     H3 - H12   
    14     23      1 ;     H4 - H13   
    14     24      1 ;     H4 - H14   
    15     23      1 ;     H5 - H13   
    15     24      1 ;     H5 - H14   
    16     23      1 ;     H6 - H13   
    16     24      1 ;     H6 - H14   
    17     25      1 ;     H7 - H15   
    17     26      1 ;     H7 - H16   
    18     25      1 ;     H8 - H15   
    18     26      1 ;     H8 - H16   
    19     27      1 ;     H9 - H17   
    19     28      1 ;     H9 - H18   
    20     27      1 ;    H10 - H17   
    20     28      1 ;    H10 - H18   
    21     25      1 ;    H11 - H15   
    21     26      1 ;    H11 - H16   
    22     25      1 ;    H12 - H15   
    22     26      1 ;    H12 - H16   
    23     27      1 ;    H13 - H17   
    23     28      1 ;    H13 - H18   
    24     27      1 ;    H14 - H17   
    24     28      1 ;    H14 - H18   

[ angles ]
;   ai     aj     ak    funct   theta         cth
     1      4      8      1 ;    1.1143e+02    5.0509e+02 ;     C1 - C4   - C8        C -   CT - CT  
     1      4     17      1 ;    1.0895e+02    3.6510e+02 ;     C1 - C4   - H7        C -   CT - HC  
     1      4     18      1 ;    1.0895e+02    3.6510e+02 ;     C1 - C4   - H8        C -   CT - HC  
     1      5      9      1 ;    1.1143e+02    5.0509e+02 ;     C1 - C5   - C9        C -   CT - CT  
     1      5     19      1 ;    1.0895e+02    3.6510e+02 ;     C1 - C5   - H9        C -   CT - HC  
     1      5     20      1 ;    1.0895e+02    3.6510e+02 ;     C1 - C5   - H10       C -   CT - HC  
     2      6      8      1 ;    1.1263e+02    5.0099e+02 ;     C2 - C6   - C8       CT -   CT - CT  
     2      6     21      1 ;    1.0968e+02    3.6208e+02 ;     C2 - C6   - H11      CT -   CT - HC  
     2      6     22      1 ;    1.0968e+02    3.6208e+02 ;     C2 - C6   - H12      CT -   CT - HC  
     3      7      9      1 ;    1.1263e+02    5.0099e+02 ;     C3 - C7   - C9       CT -   CT - CT  
     3      7     23      1 ;    1.0968e+02    3.6208e+02 ;     C3 - C7   - H13      CT -   CT - HC  
     3      7     24      1 ;    1.0968e+02    3.6208e+02 ;     C3 - C7   - H14      CT -   CT - HC  
     4      1      5      1 ;    1.1668e+02    4.9497e+02 ;     C4 - C1   - C5       CT -    C - CT  
     4      1     10      1 ;    1.2290e+02    6.3973e+02 ;     C4 - C1   - O1       CT -    C - O   
     4      8      6      1 ;    1.1263e+02    5.0099e+02 ;     C4 - C8   - C6       CT -   CT - CT  
     4      8     25      1 ;    1.0968e+02    3.6208e+02 ;     C4 - C8   - H15      CT -   CT - HC  
     4      8     26      1 ;    1.0968e+02    3.6208e+02 ;     C4 - C8   - H16      CT -   CT - HC  
     5      1     10      1 ;    1.2290e+02    6.3973e+02 ;     C5 - C1   - O1       CT -    C - O   
     5      9      7      1 ;    1.1263e+02    5.0099e+02 ;     C5 - C9   - C7       CT -   CT - CT  
     5      9     27      1 ;    1.0968e+02    3.6208e+02 ;     C5 - C9   - H17      CT -   CT - HC  
     5      9     28      1 ;    1.0968e+02    3.6208e+02 ;     C5 - C9   - H18      CT -   CT - HC  
     6      2     11      1 ;    1.0968e+02    3.6208e+02 ;     C6 - C2   - H1       CT -   CT - HC  
     6      2     12      1 ;    1.0968e+02    3.6208e+02 ;     C6 - C2   - H2       CT -   CT - HC  
     6      2     13      1 ;    1.0968e+02    3.6208e+02 ;     C6 - C2   - H3       CT -   CT - HC  
     6      8     25      1 ;    1.0968e+02    3.6208e+02 ;     C6 - C8   - H15      CT -   CT - HC  
     6      8     26      1 ;    1.0968e+02    3.6208e+02 ;     C6 - C8   - H16      CT -   CT - HC  
     7      3     14      1 ;    1.0968e+02    3.6208e+02 ;     C7 - C3   - H4       CT -   CT - HC  
     7      3     15      1 ;    1.0968e+02    3.6208e+02 ;     C7 - C3   - H5       CT -   CT - HC  
     7      3     16      1 ;    1.0968e+02    3.6208e+02 ;     C7 - C3   - H6       CT -   CT - HC  
     7      9     27      1 ;    1.0968e+02    3.6208e+02 ;     C7 - C9   - H17      CT -   CT - HC  
     7      9     28      1 ;    1.0968e+02    3.6208e+02 ;     C7 - C9   - H18      CT -   CT - HC  
     8      4     17      1 ;    1.0968e+02    3.6208e+02 ;     C8 - C4   - H7       CT -   CT - HC  
     8      4     18      1 ;    1.0968e+02    3.6208e+02 ;     C8 - C4   - H8       CT -   CT - HC  
     8      6     21      1 ;    1.0968e+02    3.6208e+02 ;     C8 - C6   - H11      CT -   CT - HC  
     8      6     22      1 ;    1.0968e+02    3.6208e+02 ;     C8 - C6   - H12      CT -   CT - HC  
     9      5     19      1 ;    1.0968e+02    3.6208e+02 ;     C9 - C5   - H9       CT -   CT - HC  
     9      5     20      1 ;    1.0968e+02    3.6208e+02 ;     C9 - C5   - H10      CT -   CT - HC  
     9      7     23      1 ;    1.0968e+02    3.6208e+02 ;     C9 - C7   - H13      CT -   CT - HC  
     9      7     24      1 ;    1.0968e+02    3.6208e+02 ;     C9 - C7   - H14      CT -   CT - HC  
    11      2     12      1 ;    1.0773e+02    2.9957e+02 ;     H1 - C2   - H2       HC -   CT - HC  
    11      2     13      1 ;    1.0773e+02    2.9957e+02 ;     H1 - C2   - H3       HC -   CT - HC  
    12      2     13      1 ;    1.0773e+02    2.9957e+02 ;     H2 - C2   - H3       HC -   CT - HC  
    14      3     15      1 ;    1.0773e+02    2.9957e+02 ;     H4 - C3   - H5       HC -   CT - HC  
    14      3     16      1 ;    1.0773e+02    2.9957e+02 ;     H4 - C3   - H6       HC -   CT - HC  
    15      3     16      1 ;    1.0773e+02    2.9957e+02 ;     H5 - C3   - H6       HC -   CT - HC  
    17      4     18      1 ;    1.0773e+02    2.9957e+02 ;     H7 - C4   - H8       HC -   CT - HC  
    19      5     20      1 ;    1.0773e+02    2.9957e+02 ;     H9 - C5   - H10      HC -   CT - HC  
    21      6     22      1 ;    1.0773e+02    2.9957e+02 ;    H11 - C6   - H12      HC -   CT - HC  
    23      7     24      1 ;    1.0773e+02    2.9957e+02 ;    H13 - C7   - H14      HC -   CT - HC  
    25      8     26      1 ;    1.0773e+02    2.9957e+02 ;    H15 - C8   - H16      HC -   CT - HC  
    27      9     28      1 ;    1.0773e+02    2.9957e+02 ;    H17 - C9   - H18      HC -   CT - HC  

[ dihedrals ] ; propers
; for gromacs 4.5 or higher, using funct 9
;    i      j      k      l   func   phase     kd      pn
     1      4      8      6      9 ;     0.00   0.00000   0 ;     C1-    C4-    C8-    C6
     1      4      8      6      9 ;     0.00   0.16736   2 ;     C1-    C4-    C8-    C6
     1      4      8      6      9 ;   180.00   1.92464   1 ;     C1-    C4-    C8-    C6
     1      4      8     25      9 ;     0.00   0.65084   3 ;     C1-    C4-    C8-   H15
     1      4      8     26      9 ;     0.00   0.65084   3 ;     C1-    C4-    C8-   H16
     1      5      9      7      9 ;     0.00   0.00000   0 ;     C1-    C5-    C9-    C7
     1      5      9      7      9 ;     0.00   0.16736   2 ;     C1-    C5-    C9-    C7
     1      5      9      7      9 ;   180.00   1.92464   1 ;     C1-    C5-    C9-    C7
     1      5      9     27      9 ;     0.00   0.65084   3 ;     C1-    C5-    C9-   H17
     1      5      9     28      9 ;     0.00   0.65084   3 ;     C1-    C5-    C9-   H18
     2      6      8      4      9 ;     0.00   2.17568   3 ;     C2-    C6-    C8-    C4
     2      6      8     25      9 ;     0.00   0.54392   3 ;     C2-    C6-    C8-   H15
     2      6      8     26      9 ;     0.00   0.54392   3 ;     C2-    C6-    C8-   H16
     3      7      9      5      9 ;     0.00   2.17568   3 ;     C3-    C7-    C9-    C5
     3      7      9     27      9 ;     0.00   0.54392   3 ;     C3-    C7-    C9-   H17
     3      7      9     28      9 ;     0.00   0.54392   3 ;     C3-    C7-    C9-   H18
     4      1      5      9      9 ;   180.00   1.09621   2 ;     C4-    C1-    C5-    C9
     4      1      5     19      9 ;   180.00   0.00000   3 ;     C4-    C1-    C5-    H9
     4      1      5     20      9 ;   180.00   0.00000   3 ;     C4-    C1-    C5-   H10
     4      8      6     21      9 ;     0.00   0.54392   3 ;     C4-    C8-    C6-   H11
     4      8      6     22      9 ;     0.00   0.54392   3 ;     C4-    C8-    C6-   H12
     5      1      4      8      9 ;   180.00   1.09621   2 ;     C5-    C1-    C4-    C8
     5      1      4     17      9 ;   180.00   0.00000   3 ;     C5-    C1-    C4-    H7
     5      1      4     18      9 ;   180.00   0.00000   3 ;     C5-    C1-    C4-    H8
     5      9      7     23      9 ;     0.00   0.54392   3 ;     C5-    C9-    C7-   H13
     5      9      7     24      9 ;     0.00   0.54392   3 ;     C5-    C9-    C7-   H14
     6      8      4     17      9 ;     0.00   0.54392   3 ;     C6-    C8-    C4-    H7
     6      8      4     18      9 ;     0.00   0.54392   3 ;     C6-    C8-    C4-    H8
     7      9      5     19      9 ;     0.00   0.54392   3 ;     C7-    C9-    C5-    H9
     7      9      5     20      9 ;     0.00   0.54392   3 ;     C7-    C9-    C5-   H10
     8      6      2     11      9 ;     0.00   0.54392   3 ;     C8-    C6-    C2-    H1
     8      6      2     12      9 ;     0.00   0.54392   3 ;     C8-    C6-    C2-    H2
     8      6      2     13      9 ;     0.00   0.54392   3 ;     C8-    C6-    C2-    H3
     9      7      3     14      9 ;     0.00   0.54392   3 ;     C9-    C7-    C3-    H4
     9      7      3     15      9 ;     0.00   0.54392   3 ;     C9-    C7-    C3-    H5
     9      7      3     16      9 ;     0.00   0.54392   3 ;     C9-    C7-    C3-    H6
    10      1      4      8      9 ;     0.00   2.84512   1 ;     O1-    C1-    C4-    C8
    10      1      4      8      9 ;   180.00   0.83680   2 ;     O1-    C1-    C4-    C8
    10      1      4      8      9 ;   180.00   1.84096   3 ;     O1-    C1-    C4-    C8
    10      1      4     17      9 ;     0.00  16.86152   1 ;     O1-    C1-    C4-    H7
    10      1      4     17      9 ;   180.00  15.31344   2 ;     O1-    C1-    C4-    H7
    10      1      4     18      9 ;     0.00  16.86152   1 ;     O1-    C1-    C4-    H8
    10      1      4     18      9 ;   180.00  15.31344   2 ;     O1-    C1-    C4-    H8
    10      1      5      9      9 ;     0.00   2.84512   1 ;     O1-    C1-    C5-    C9
    10      1      5      9      9 ;   180.00   0.83680   2 ;     O1-    C1-    C5-    C9
    10      1      5      9      9 ;   180.00   1.84096   3 ;     O1-    C1-    C5-    C9
    10      1      5     19      9 ;     0.00  16.86152   1 ;     O1-    C1-    C5-    H9
    10      1      5     19      9 ;   180.00  15.31344   2 ;     O1-    C1-    C5-    H9
    10      1      5     20      9 ;     0.00  16.86152   1 ;     O1-    C1-    C5-   H10
    10      1      5     20      9 ;   180.00  15.31344   2 ;     O1-    C1-    C5-   H10
    11      2      6     21      9 ;     0.00   0.50208   3 ;     H1-    C2-    C6-   H11
    11      2      6     22      9 ;     0.00   0.50208   3 ;     H1-    C2-    C6-   H12
    12      2      6     21      9 ;     0.00   0.50208   3 ;     H2-    C2-    C6-   H11
    12      2      6     22      9 ;     0.00   0.50208   3 ;     H2-    C2-    C6-   H12
    13      2      6     21      9 ;     0.00   0.50208   3 ;     H3-    C2-    C6-   H11
    13      2      6     22      9 ;     0.00   0.50208   3 ;     H3-    C2-    C6-   H12
    14      3      7     23      9 ;     0.00   0.50208   3 ;     H4-    C3-    C7-   H13
    14      3      7     24      9 ;     0.00   0.50208   3 ;     H4-    C3-    C7-   H14
    15      3      7     23      9 ;     0.00   0.50208   3 ;     H5-    C3-    C7-   H13
    15      3      7     24      9 ;     0.00   0.50208   3 ;     H5-    C3-    C7-   H14
    16      3      7     23      9 ;     0.00   0.50208   3 ;     H6-    C3-    C7-   H13
    16      3      7     24      9 ;     0.00   0.50208   3 ;     H6-    C3-    C7-   H14
    17      4      8     25      9 ;     0.00   0.50208   3 ;     H7-    C4-    C8-   H15
    17      4      8     26      9 ;     0.00   0.50208   3 ;     H7-    C4-    C8-   H16
    18      4      8     25      9 ;     0.00   0.50208   3 ;     H8-    C4-    C8-   H15
    18      4      8     26      9 ;     0.00   0.50208   3 ;     H8-    C4-    C8-   H16
    19      5      9     27      9 ;     0.00   0.50208   3 ;     H9-    C5-    C9-   H17
    19      5      9     28      9 ;     0.00   0.50208   3 ;     H9-    C5-    C9-   H18
    20      5      9     27      9 ;     0.00   0.50208   3 ;    H10-    C5-    C9-   H17
    20      5      9     28      9 ;     0.00   0.50208   3 ;    H10-    C5-    C9-   H18
    21      6      8     25      9 ;     0.00   0.50208   3 ;    H11-    C6-    C8-   H15
    21      6      8     26      9 ;     0.00   0.50208   3 ;    H11-    C6-    C8-   H16
    22      6      8     25      9 ;     0.00   0.50208   3 ;    H12-    C6-    C8-   H15
    22      6      8     26      9 ;     0.00   0.50208   3 ;    H12-    C6-    C8-   H16
    23      7      9     27      9 ;     0.00   0.50208   3 ;    H13-    C7-    C9-   H17
    23      7      9     28      9 ;     0.00   0.50208   3 ;    H13-    C7-    C9-   H18
    24      7      9     27      9 ;     0.00   0.50208   3 ;    H14-    C7-    C9-   H17
    24      7      9     28      9 ;     0.00   0.50208   3 ;    H14-    C7-    C9-   H18

[ dihedrals ] ; impropers
; treated as propers in GROMACS to use correct AMBER analytical function
;    i      j      k      l   func   phase     kd      pn
    10      1      5      4      4 ;   180.00   4.60240   2 ;     O1-    C1-    C5-    C4
