nonan_5_one
    28
   0.2370000  -2.1820000  -4.7280000  -1.1640000  -0.3040000  -0.2490000
   1.5240000  -4.3440000  -9.1380000  -0.6040000  -1.1540000  -3.9880000
   0.0830000  -2.1870000  -6.2420000  -1.3120000  -0.2090000  -1.7590000
   0.7130000  -3.2490000  -8.4640000  -0.4250000  -1.2270000  -2.4730000
   0.8880000  -3.2800000  -6.9440000   0.9710000  -2.9750000  -4.1390000
  -1.8050000   0.4350000   0.2420000  -0.1310000  -0.1150000   0.0580000
  -1.4540000  -1.2970000   0.1120000   1.3790000  -4.3100000 -10.2230000
   2.5920000  -4.2230000  -8.9340000   1.2160000  -5.3340000  -8.7870000
  -0.3150000  -0.1610000  -4.3480000  -1.6540000  -1.3290000  -4.2490000
   0.3720000  -1.2030000  -6.6270000  -0.9830000  -2.3360000  -6.4520000
  -1.0500000   0.8050000  -2.0820000  -2.3610000  -0.3750000  -2.0290000
  -0.3460000  -3.3800000  -8.7180000   1.0230000  -2.2790000  -8.8650000
   0.6270000  -1.0460000  -2.2170000  -0.6650000  -2.2380000  -2.1210000
   0.5500000  -4.2530000  -6.5690000   1.9510000  -3.1930000  -6.6880000
