mobley_6257907_GMX.gro created by acpype (v: 2023.10.27) on Thu May 21 00:03:06 2026
   14
    1MOL     C1    1   2.151   2.369   2.240
    1MOL     C2    2   2.258   2.308   2.175
    1MOL     C3    3   2.152   2.381   2.380
    1MOL     C4    4   2.365   2.268   2.388
    1MOL     C5    5   2.365   2.257   2.249
    1MOL     C6    6   2.258   2.330   2.453
    1MOL     N1    7   2.473   2.194   2.183
    1MOL    CL1    8   2.259   2.344   2.625
    1MOL     H1    9   2.068   2.409   2.183
    1MOL     H2   10   2.257   2.299   2.067
    1MOL     H3   11   2.068   2.429   2.429
    1MOL     H4   12   2.449   2.229   2.446
    1MOL     H5   13   2.454   2.132   2.107
    1MOL     H6   14   2.565   2.206   2.219
   4.59270   4.59270   4.59270
