; mobley_9717937_GMX_OPLS.itp created by acpype (v: 2023.10.27) on Wed May 20 23:48:20 2026

; For OPLS atomtypes manual fine tuning
; AC_at:OPLS_at:OPLScode: Possible_Alternatives (see ffoplsaa.atp and ffoplsaanb.itp)
; ca:CA:opls_145: ['166', '501', '502']
; cp:x:opls_x: []
; cl:x:opls_x: []
; ha:HA:opls_146: []

[ moleculetype ]
;name            nrexcl
 mobley_9717937   3

[ atoms ]
;   nr  type  resi  res  atom  cgnr     charge      mass       ; qtot   bond_type
     1 opls_145     1   MOL    C1    1    -0.124000     12.01100 ; qtot -0.124  CA  
     2 opls_145     1   MOL    C2    2    -0.133000     12.01100 ; qtot -0.257  CA  
     3 opls_145     1   MOL    C3    3    -0.133000     12.01100 ; qtot -0.390  CA  
     4 opls_145     1   MOL    C4    4    -0.132000     12.01100 ; qtot -0.522  CA  
     5 opls_145     1   MOL    C5    5    -0.120000     12.01100 ; qtot -0.642  CA  
     6 opls_145     1   MOL    C6    6    -0.108000     12.01100 ; qtot -0.750  CA  
     7 opls_145     1   MOL    C7    7    -0.108000     12.01100 ; qtot -0.858  CA  
     8 opls_145     1   MOL    C8    8    -0.110000     12.01100 ; qtot -0.968  CA  
     9 opls_145     1   MOL    C9    9    -0.129000     12.01100 ; qtot -1.097  CA  
    10 opls_x     1   MOL   C10   10    -0.047000      0.00000 ; qtot -1.144  x   
    11 opls_x     1   MOL   C11   11    -0.034000      0.00000 ; qtot -1.178  x   
    12 opls_145     1   MOL   C12   12     0.029400     12.01100 ; qtot -1.149  CA  
    13 opls_x     1   MOL   CL1   13    -0.087400      0.00000 ; qtot -1.236  x   
    14 opls_146     1   MOL    H1   14     0.131000      1.00800 ; qtot -1.105  HA  
    15 opls_146     1   MOL    H2   15     0.133000      1.00800 ; qtot -0.972  HA  
    16 opls_146     1   MOL    H3   16     0.133000      1.00800 ; qtot -0.839  HA  
    17 opls_146     1   MOL    H4   17     0.136000      1.00800 ; qtot -0.703  HA  
    18 opls_146     1   MOL    H5   18     0.137000      1.00800 ; qtot -0.566  HA  
    19 opls_146     1   MOL    H6   19     0.137000      1.00800 ; qtot -0.429  HA  
    20 opls_146     1   MOL    H7   20     0.137000      1.00800 ; qtot -0.292  HA  
    21 opls_146     1   MOL    H8   21     0.142000      1.00800 ; qtot -0.150  HA  
    22 opls_146     1   MOL    H9   22     0.150000      1.00800 ; qtot  0.000  HA  

[ bonds ]
;   ai     aj funct   r             k
     1      2   1 ;    1.3986e-01    2.9644e+05 ;     C1 - C2         CA - CA    
     1      3   1 ;    1.3986e-01    2.9644e+05 ;     C1 - C3         CA - CA    
     1     14   1 ;    1.0860e-01    3.0183e+05 ;     C1 - H1         CA - HA    
     2      6   1 ;    1.3986e-01    2.9644e+05 ;     C2 - C6         CA - CA    
     2     15   1 ;    1.0860e-01    3.0183e+05 ;     C2 - H2         CA - HA    
     3      7   1 ;    1.3986e-01    2.9644e+05 ;     C3 - C7         CA - CA    
     3     16   1 ;    1.0860e-01    3.0183e+05 ;     C3 - H3         CA - HA    
     4      5   1 ;    1.3986e-01    2.9644e+05 ;     C4 - C5         CA - CA    
     4      8   1 ;    1.3986e-01    2.9644e+05 ;     C4 - C8         CA - CA    
     4     17   1 ;    1.0860e-01    3.0183e+05 ;     C4 - H4         CA - HA    
     5      9   1 ;    1.3986e-01    2.9644e+05 ;     C5 - C9         CA - CA    
     5     18   1 ;    1.0860e-01    3.0183e+05 ;     C5 - H5         CA - HA    
     6     10   1 ;    1.4056e-01    2.8959e+05 ;     C6 - C10        CA - x     
     6     19   1 ;    1.0860e-01    3.0183e+05 ;     C6 - H6         CA - HA    
     7     10   1 ;    1.4056e-01    2.8959e+05 ;     C7 - C10        CA - x     
     7     20   1 ;    1.0860e-01    3.0183e+05 ;     C7 - H7         CA - HA    
     8     11   1 ;    1.4056e-01    2.8959e+05 ;     C8 - C11        CA - x     
     8     21   1 ;    1.0860e-01    3.0183e+05 ;     C8 - H8         CA - HA    
     9     12   1 ;    1.3986e-01    2.9644e+05 ;     C9 - C12        CA - CA    
     9     22   1 ;    1.0860e-01    3.0183e+05 ;     C9 - H9         CA - HA    
    10     11   1 ;    1.4829e-01    2.2541e+05 ;    C10 - C11         x - x     
    11     12   1 ;    1.4056e-01    2.8959e+05 ;    C11 - C12         x - CA    
    12     13   1 ;    1.7572e-01    1.5730e+05 ;    C12 - CL1        CA - x     

[ pairs ]
;   ai     aj    funct
     1     10      1 ;     C1 - C10   
     1     19      1 ;     C1 - H6    
     1     20      1 ;     C1 - H7    
     2      7      1 ;     C2 - C7    
     2     11      1 ;     C2 - C11   
     2     16      1 ;     C2 - H3    
     3      6      1 ;     C3 - C6    
     3     11      1 ;     C3 - C11   
     3     15      1 ;     C3 - H2    
     4     10      1 ;     C4 - C10   
     4     12      1 ;     C4 - C12   
     4     22      1 ;     C4 - H9    
     5     11      1 ;     C5 - C11   
     5     13      1 ;     C5 - CL1   
     5     21      1 ;     C5 - H8    
     6      8      1 ;     C6 - C8    
     6     12      1 ;     C6 - C12   
     6     20      1 ;     C6 - H7    
     7      8      1 ;     C7 - C8    
     7     12      1 ;     C7 - C12   
     7     19      1 ;     C7 - H6    
     8      9      1 ;     C8 - C9    
     8     13      1 ;     C8 - CL1   
     8     18      1 ;     C8 - H5    
     9     10      1 ;     C9 - C10   
     9     17      1 ;     C9 - H4    
    10     13      1 ;    C10 - CL1   
    10     15      1 ;    C10 - H2    
    10     16      1 ;    C10 - H3    
    10     21      1 ;    C10 - H8    
    11     17      1 ;    C11 - H4    
    11     19      1 ;    C11 - H6    
    11     20      1 ;    C11 - H7    
    11     22      1 ;    C11 - H9    
    12     18      1 ;    C12 - H5    
    12     21      1 ;    C12 - H8    
    13     22      1 ;    CL1 - H9    
    14      6      1 ;     H1 - C6    
    14      7      1 ;     H1 - C7    
    14     15      1 ;     H1 - H2    
    14     16      1 ;     H1 - H3    
    15     19      1 ;     H2 - H6    
    16     20      1 ;     H3 - H7    
    17     18      1 ;     H4 - H5    
    17     21      1 ;     H4 - H8    
    18     22      1 ;     H5 - H9    

[ angles ]
;   ai     aj     ak    funct   theta         cth
     1      2      6      1 ;    1.2002e+02    5.3279e+02 ;     C1 - C2   - C6       CA -   CA - CA  
     1      2     15      1 ;    1.1988e+02    3.7572e+02 ;     C1 - C2   - H2       CA -   CA - HA  
     1      3      7      1 ;    1.2002e+02    5.3279e+02 ;     C1 - C3   - C7       CA -   CA - CA  
     1      3     16      1 ;    1.1988e+02    3.7572e+02 ;     C1 - C3   - H3       CA -   CA - HA  
     2      1      3      1 ;    1.2002e+02    5.3279e+02 ;     C2 - C1   - C3       CA -   CA - CA  
     2      1     14      1 ;    1.1988e+02    3.7572e+02 ;     C2 - C1   - H1       CA -   CA - HA  
     2      6     10      1 ;    1.2073e+02    5.2995e+02 ;     C2 - C6   - C10      CA -   CA - x   
     2      6     19      1 ;    1.1988e+02    3.7572e+02 ;     C2 - C6   - H6       CA -   CA - HA  
     3      1     14      1 ;    1.1988e+02    3.7572e+02 ;     C3 - C1   - H1       CA -   CA - HA  
     3      7     10      1 ;    1.2073e+02    5.2995e+02 ;     C3 - C7   - C10      CA -   CA - x   
     3      7     20      1 ;    1.1988e+02    3.7572e+02 ;     C3 - C7   - H7       CA -   CA - HA  
     4      5      9      1 ;    1.2002e+02    5.3279e+02 ;     C4 - C5   - C9       CA -   CA - CA  
     4      5     18      1 ;    1.1988e+02    3.7572e+02 ;     C4 - C5   - H5       CA -   CA - HA  
     4      8     11      1 ;    1.2073e+02    5.2995e+02 ;     C4 - C8   - C11      CA -   CA - x   
     4      8     21      1 ;    1.1988e+02    3.7572e+02 ;     C4 - C8   - H8       CA -   CA - HA  
     5      4      8      1 ;    1.2002e+02    5.3279e+02 ;     C5 - C4   - C8       CA -   CA - CA  
     5      4     17      1 ;    1.1988e+02    3.7572e+02 ;     C5 - C4   - H4       CA -   CA - HA  
     5      9     12      1 ;    1.2002e+02    5.3279e+02 ;     C5 - C9   - C12      CA -   CA - CA  
     5      9     22      1 ;    1.1988e+02    3.7572e+02 ;     C5 - C9   - H9       CA -   CA - HA  
     6      2     15      1 ;    1.1988e+02    3.7572e+02 ;     C6 - C2   - H2       CA -   CA - HA  
     6     10      7      1 ;    1.1841e+02    5.3379e+02 ;     C6 - C10  - C7       CA -    x - CA  
     6     10     11      1 ;    1.2110e+02    5.1296e+02 ;     C6 - C10  - C11      CA -    x - x   
     7      3     16      1 ;    1.1988e+02    3.7572e+02 ;     C7 - C3   - H3       CA -   CA - HA  
     7     10     11      1 ;    1.2110e+02    5.1296e+02 ;     C7 - C10  - C11      CA -    x - x   
     8      4     17      1 ;    1.1988e+02    3.7572e+02 ;     C8 - C4   - H4       CA -   CA - HA  
     8     11     10      1 ;    1.2110e+02    5.1296e+02 ;     C8 - C11  - C10      CA -    x - x   
     8     11     12      1 ;    1.1841e+02    5.3379e+02 ;     C8 - C11  - C12      CA -    x - CA  
     9      5     18      1 ;    1.1988e+02    3.7572e+02 ;     C9 - C5   - H5       CA -   CA - HA  
     9     12     11      1 ;    1.2073e+02    5.2995e+02 ;     C9 - C12  - C11      CA -   CA - x   
     9     12     13      1 ;    1.1938e+02    5.3605e+02 ;     C9 - C12  - CL1      CA -   CA - x   
    10      6     19      1 ;    1.1982e+02    3.7430e+02 ;    C10 - C6   - H6        x -   CA - HA  
    10      7     20      1 ;    1.1982e+02    3.7430e+02 ;    C10 - C7   - H7        x -   CA - HA  
    10     11     12      1 ;    1.2110e+02    5.1296e+02 ;    C10 - C11  - C12       x -    x - CA  
    11      8     21      1 ;    1.1982e+02    3.7430e+02 ;    C11 - C8   - H8        x -   CA - HA  
    11     12     13      1 ;    1.2044e+02    5.3304e+02 ;    C11 - C12  - CL1       x -   CA - x   
    12      9     22      1 ;    1.1988e+02    3.7572e+02 ;    C12 - C9   - H9       CA -   CA - HA  

[ dihedrals ] ; propers
; for gromacs 4.5 or higher, using funct 9
;    i      j      k      l   func   phase     kd      pn
     1      2      6     10      9 ;   180.00  15.16700   2 ;     C1-    C2-    C6-   C10
     1      2      6     19      9 ;   180.00  15.16700   2 ;     C1-    C2-    C6-    H6
     1      3      7     10      9 ;   180.00  15.16700   2 ;     C1-    C3-    C7-   C10
     1      3      7     20      9 ;   180.00  15.16700   2 ;     C1-    C3-    C7-    H7
     2      1      3      7      9 ;   180.00  15.16700   2 ;     C2-    C1-    C3-    C7
     2      1      3     16      9 ;   180.00  15.16700   2 ;     C2-    C1-    C3-    H3
     2      6     10      7      9 ;   180.00  15.16700   2 ;     C2-    C6-   C10-    C7
     2      6     10     11      9 ;   180.00  15.16700   2 ;     C2-    C6-   C10-   C11
     3      1      2      6      9 ;   180.00  15.16700   2 ;     C3-    C1-    C2-    C6
     3      1      2     15      9 ;   180.00  15.16700   2 ;     C3-    C1-    C2-    H2
     3      7     10      6      9 ;   180.00  15.16700   2 ;     C3-    C7-   C10-    C6
     3      7     10     11      9 ;   180.00  15.16700   2 ;     C3-    C7-   C10-   C11
     4      5      9     12      9 ;   180.00  15.16700   2 ;     C4-    C5-    C9-   C12
     4      5      9     22      9 ;   180.00  15.16700   2 ;     C4-    C5-    C9-    H9
     4      8     11     10      9 ;   180.00  15.16700   2 ;     C4-    C8-   C11-   C10
     4      8     11     12      9 ;   180.00  15.16700   2 ;     C4-    C8-   C11-   C12
     5      4      8     11      9 ;   180.00  15.16700   2 ;     C5-    C4-    C8-   C11
     5      4      8     21      9 ;   180.00  15.16700   2 ;     C5-    C4-    C8-    H8
     5      9     12     11      9 ;   180.00  15.16700   2 ;     C5-    C9-   C12-   C11
     5      9     12     13      9 ;   180.00  15.16700   2 ;     C5-    C9-   C12-   CL1
     6     10      7     20      9 ;   180.00  15.16700   2 ;     C6-   C10-    C7-    H7
     6     10     11      8      9 ;   180.00   3.20076   2 ;     C6-   C10-   C11-    C8
     6     10     11     12      9 ;   180.00   3.20076   2 ;     C6-   C10-   C11-   C12
     7     10      6     19      9 ;   180.00  15.16700   2 ;     C7-   C10-    C6-    H6
     7     10     11      8      9 ;   180.00   3.20076   2 ;     C7-   C10-   C11-    C8
     7     10     11     12      9 ;   180.00   3.20076   2 ;     C7-   C10-   C11-   C12
     8      4      5      9      9 ;   180.00  15.16700   2 ;     C8-    C4-    C5-    C9
     8      4      5     18      9 ;   180.00  15.16700   2 ;     C8-    C4-    C5-    H5
     8     11     12      9      9 ;   180.00  15.16700   2 ;     C8-   C11-   C12-    C9
     8     11     12     13      9 ;   180.00  15.16700   2 ;     C8-   C11-   C12-   CL1
     9      5      4     17      9 ;   180.00  15.16700   2 ;     C9-    C5-    C4-    H4
     9     12     11     10      9 ;   180.00  15.16700   2 ;     C9-   C12-   C11-   C10
    10      6      2     15      9 ;   180.00  15.16700   2 ;    C10-    C6-    C2-    H2
    10      7      3     16      9 ;   180.00  15.16700   2 ;    C10-    C7-    C3-    H3
    10     11      8     21      9 ;   180.00  15.16700   2 ;    C10-   C11-    C8-    H8
    10     11     12     13      9 ;   180.00  15.16700   2 ;    C10-   C11-   C12-   CL1
    11      8      4     17      9 ;   180.00  15.16700   2 ;    C11-    C8-    C4-    H4
    11     10      6     19      9 ;   180.00  15.16700   2 ;    C11-   C10-    C6-    H6
    11     10      7     20      9 ;   180.00  15.16700   2 ;    C11-   C10-    C7-    H7
    11     12      9     22      9 ;   180.00  15.16700   2 ;    C11-   C12-    C9-    H9
    12      9      5     18      9 ;   180.00  15.16700   2 ;    C12-    C9-    C5-    H5
    12     11      8     21      9 ;   180.00  15.16700   2 ;    C12-   C11-    C8-    H8
    13     12      9     22      9 ;   180.00  15.16700   2 ;    CL1-   C12-    C9-    H9
    14      1      2      6      9 ;   180.00  15.16700   2 ;     H1-    C1-    C2-    C6
    14      1      2     15      9 ;   180.00  15.16700   2 ;     H1-    C1-    C2-    H2
    14      1      3      7      9 ;   180.00  15.16700   2 ;     H1-    C1-    C3-    C7
    14      1      3     16      9 ;   180.00  15.16700   2 ;     H1-    C1-    C3-    H3
    15      2      6     19      9 ;   180.00  15.16700   2 ;     H2-    C2-    C6-    H6
    16      3      7     20      9 ;   180.00  15.16700   2 ;     H3-    C3-    C7-    H7
    17      4      5     18      9 ;   180.00  15.16700   2 ;     H4-    C4-    C5-    H5
    17      4      8     21      9 ;   180.00  15.16700   2 ;     H4-    C4-    C8-    H8
    18      5      9     22      9 ;   180.00  15.16700   2 ;     H5-    C5-    C9-    H9

[ dihedrals ] ; impropers
; treated as propers in GROMACS to use correct AMBER analytical function
;    i      j      k      l   func   phase     kd      pn
     1      6      2     15      4 ;   180.00   4.60240   2 ;     C1-    C6-    C2-    H2
     1      7      3     16      4 ;   180.00   4.60240   2 ;     C1-    C7-    C3-    H3
     2     10      6     19      4 ;   180.00   4.60240   2 ;     C2-   C10-    C6-    H6
     3     10      7     20      4 ;   180.00   4.60240   2 ;     C3-   C10-    C7-    H7
     4      9      5     18      4 ;   180.00   4.60240   2 ;     C4-    C9-    C5-    H5
     4     11      8     21      4 ;   180.00   4.60240   2 ;     C4-   C11-    C8-    H8
     5      8      4     17      4 ;   180.00   4.60240   2 ;     C5-    C8-    C4-    H4
     5     12      9     22      4 ;   180.00   4.60240   2 ;     C5-   C12-    C9-    H9
     6      7     10     11      4 ;   180.00   4.60240   2 ;     C6-    C7-   C10-   C11
     8     12     11     10      4 ;   180.00   4.60240   2 ;     C8-   C12-   C11-   C10
     9     13     12     11      4 ;   180.00   4.60240   2 ;     C9-   CL1-   C12-   C11
    14      1      3      2      4 ;   180.00   4.60240   2 ;     H1-    C1-    C3-    C2
