%VERSION  VERSION_STAMP = V0001.000  DATE = 05/20/26  23:48:21                  
%FLAG TITLE                                                                     
%FORMAT(20a4)                                                                   
1-chloro-2-phenyl-benzene                                                       
%FLAG POINTERS                                                                  
%FORMAT(10I8)                                                                   
      22       3       9      14      18      18      38      26       0       0
     109       1      14      18      26       5       8       3       4       0
       0       0       0       0       0       0       0       0      22       0
       0
%FLAG ATOM_NAME                                                                 
%FORMAT(20a4)                                                                   
C1  C2  C3  C4  C5  C6  C7  C8  C9  C10 C11 C12 Cl1 H1  H2  H3  H4  H5  H6  H7  
H8  H9  
%FLAG CHARGE                                                                    
%FORMAT(5E16.8)                                                                 
 -2.25956520E+00 -2.42356590E+00 -2.42356590E+00 -2.40534360E+00 -2.18667600E+00
 -1.96800840E+00 -1.96800840E+00 -2.00445300E+00 -2.35067670E+00 -8.56448100E-01
 -6.19558200E-01  5.35735620E-01 -1.59262902E+00  2.38712130E+00  2.42356590E+00
  2.42356590E+00  2.47823280E+00  2.49645510E+00  2.49645510E+00  2.49645510E+00
  2.58756660E+00  2.67867810E+00
%FLAG ATOMIC_NUMBER                                                             
%FORMAT(10I8)                                                                   
       6       6       6       6       6       6       6       6       6       6
       6       6      17       1       1       1       1       1       1       1
       1       1
%FLAG MASS                                                                      
%FORMAT(5E16.8)                                                                 
  1.20100000E+01  1.20100000E+01  1.20100000E+01  1.20100000E+01  1.20100000E+01
  1.20100000E+01  1.20100000E+01  1.20100000E+01  1.20100000E+01  1.20100000E+01
  1.20100000E+01  1.20100000E+01  3.54500000E+01  1.00800000E+00  1.00800000E+00
  1.00800000E+00  1.00800000E+00  1.00800000E+00  1.00800000E+00  1.00800000E+00
  1.00800000E+00  1.00800000E+00
%FLAG ATOM_TYPE_INDEX                                                           
%FORMAT(10I8)                                                                   
       1       1       1       1       1       1       1       1       1       1
       1       1       2       3       3       3       3       3       3       3
       3       3
%FLAG NUMBER_EXCLUDED_ATOMS                                                     
%FORMAT(10I8)                                                                   
      10       9       8      10       9       9       8       8       7       8
       7       4       1       2       1       1       2       1       1       1
       1       1
%FLAG NONBONDED_PARM_INDEX                                                      
%FORMAT(10I8)                                                                   
       1       2       4       2       3       5       4       5       6
%FLAG RESIDUE_LABEL                                                             
%FORMAT(20a4)                                                                   
MOL 
%FLAG RESIDUE_POINTER                                                           
%FORMAT(10I8)                                                                   
       1
%FLAG BOND_FORCE_CONSTANT                                                       
%FORMAT(5E16.8)                                                                 
  3.54250000E+02  3.60690000E+02  3.46070000E+02  2.69370000E+02  1.87980000E+02
%FLAG BOND_EQUIL_VALUE                                                          
%FORMAT(5E16.8)                                                                 
  1.39860000E+00  1.08600000E+00  1.40560000E+00  1.48290000E+00  1.75720000E+00
%FLAG ANGLE_FORCE_CONSTANT                                                      
%FORMAT(5E16.8)                                                                 
  6.36700000E+01  4.49000000E+01  6.33300000E+01  6.37900000E+01  6.13000000E+01
  6.40600000E+01  4.47300000E+01  6.37000000E+01
%FLAG ANGLE_EQUIL_VALUE                                                         
%FORMAT(5E16.8)                                                                 
  2.09474507E+00  2.09230160E+00  2.10713691E+00  2.06664525E+00  2.11359463E+00
  2.08357495E+00  2.09125441E+00  2.10207545E+00
%FLAG DIHEDRAL_FORCE_CONSTANT                                                   
%FORMAT(5E16.8)                                                                 
  3.62500000E+00  7.65000000E-01  1.10000000E+00
%FLAG DIHEDRAL_PERIODICITY                                                      
%FORMAT(5E16.8)                                                                 
  2.00000000E+00  2.00000000E+00  2.00000000E+00
%FLAG DIHEDRAL_PHASE                                                            
%FORMAT(5E16.8)                                                                 
  3.14159400E+00  3.14159400E+00  3.14159400E+00
%FLAG SCEE_SCALE_FACTOR                                                         
%FORMAT(5E16.8)                                                                 
  1.20000000E+00  1.20000000E+00  0.00000000E+00
%FLAG SCNB_SCALE_FACTOR                                                         
%FORMAT(5E16.8)                                                                 
  2.00000000E+00  2.00000000E+00  0.00000000E+00
%FLAG SOLTY                                                                     
%FORMAT(5E16.8)                                                                 
  0.00000000E+00  0.00000000E+00  0.00000000E+00  0.00000000E+00
%FLAG LENNARD_JONES_ACOEF                                                       
%FORMAT(5E16.8)                                                                 
  6.96551276E+05  1.49062160E+06  3.17107030E+06  7.52549148E+04  1.66104821E+05
  6.90855956E+03
%FLAG LENNARD_JONES_BCOEF                                                       
%FORMAT(5E16.8)                                                                 
  5.24668528E+02  9.81118883E+02  1.82923847E+03  1.09570372E+02  2.08087638E+02
  2.10929191E+01
%FLAG BONDS_INC_HYDROGEN                                                        
%FORMAT(10I8)                                                                   
       0      39       2       3      42       2       6      45       2       9
      48       2      12      51       2      15      54       2      18      57
       2      21      60       2      24      63       2
%FLAG BONDS_WITHOUT_HYDROGEN                                                    
%FORMAT(10I8)                                                                   
       0       3       1       0       6       1       3      15       1       6
      18       1       9      12       1       9      21       1      12      24
       1      15      27       3      18      27       3      21      30       3
      24      33       1      27      30       4      30      33       3      33
      36       5
%FLAG ANGLES_INC_HYDROGEN                                                       
%FORMAT(10I8)                                                                   
       0       3      42       2       0       6      45       2       3       0
      39       2       3      15      54       2       6       0      39       2
       6      18      57       2       9      12      51       2       9      21
      60       2      12       9      48       2      12      24      63       2
      15       3      42       2      18       6      45       2      21       9
      48       2      24      12      51       2      27      15      54       7
      27      18      57       7      30      21      60       7      33      24
      63       2
%FLAG ANGLES_WITHOUT_HYDROGEN                                                   
%FORMAT(10I8)                                                                   
       0       3      15       1       0       6      18       1       3       0
       6       1       3      15      27       3       6      18      27       3
       9      12      24       1       9      21      30       3      12       9
      21       1      12      24      33       1      15      27      18       4
      15      27      30       5      18      27      30       5      21      30
      27       5      21      30      33       4      24      33      30       3
      24      33      36       6      27      30      33       5      30      33
      36       8
%FLAG DIHEDRALS_INC_HYDROGEN                                                    
%FORMAT(10I8)                                                                   
       0       3      15      54       1       0       6      18      57       1
       3       0       6      45       1       6       0       3      42       1
       9      12      24      63       1      12       9      21      60       1
      39       0       3      15       1      15      27      18      57       1
      39       0       6      18       1      18      27      15      54       1
      21       9      12      51       1      24      12       9      48       1
      27      15       3      42       1      27      18       6      45       1
      27      30      21      60       1      30      21       9      48       1
      30      27      15      54       1      30      27      18      57       1
      30      33      24      63       1      33      24      12      51       1
      33      30      21      60       1      36      33      24      63       1
      39       0       3      42       1      39       0       6      45       1
      42       3      15      54       1      45       6      18      57       1
      48       9      12      51       1      48       9      21      60       1
      51      12      24      63       1      39       0      -6      -3       3
       0      15      -3     -42       3       0      18      -6     -45       3
      12      21      -9     -48       3       9      24     -12     -51       3
       3      27     -15     -54       3       6      27     -18     -57       3
       9      30     -21     -60       3      12      33     -24     -63       3
%FLAG DIHEDRALS_WITHOUT_HYDROGEN                                                
%FORMAT(10I8)                                                                   
       0       3      15      27       1       0       6     -18      27       1
       3       0       6      18       1       3      15     -27      18       1
       3      15      27      30       1       6       0       3      15       1
       6      18     -27      15       1       6      18      27      30       1
       9      12      24      33       1       9      21      30      27       1
       9      21     -30      33       1      12       9      21      30       1
      12      24     -33      30       1      12      24      33      36       1
      15      27      30      21       2      15      27      30      33       2
      18      27      30      21       2      18      27      30      33       2
      21       9      12      24       1      21      30     -33      24       1
      21      30      33      36       1      24      33      30      27       1
      27      30      33      36       1      15      18     -27     -30       3
      21      33     -30     -27       3      24      36     -33     -30       3
%FLAG EXCLUDED_ATOMS_LIST                                                       
%FORMAT(10I8)                                                                   
       2       3       6       7      10      14      15      16      19      20
       3       6       7      10      11      14      15      16      19       6
       7      10      11      14      15      16      20       5       8       9
      10      11      12      17      18      21      22       8       9      11
      12      13      17      18      21      22       7       8      10      11
      12      14      15      19      20       8      10      11      12      14
      16      19      20       9      10      11      12      13      17      18
      21      10      11      12      13      17      18      22      11      12
      13      15      16      19      20      21      12      13      17      19
      20      21      22      13      18      21      22      22      15      16
      19      20      18      21      22       0       0       0       0
%FLAG HBOND_ACOEF                                                               
%FORMAT(5E16.8)                                                                 

%FLAG HBOND_BCOEF                                                               
%FORMAT(5E16.8)                                                                 

%FLAG HBCUT                                                                     
%FORMAT(5E16.8)                                                                 

%FLAG AMBER_ATOM_TYPE                                                           
%FORMAT(20a4)                                                                   
ca  ca  ca  ca  ca  ca  ca  ca  ca  cp  cp  ca  cl  ha  ha  ha  ha  ha  ha  ha  
ha  ha  
%FLAG TREE_CHAIN_CLASSIFICATION                                                 
%FORMAT(20a4)                                                                   
BLA BLA BLA BLA BLA BLA BLA BLA BLA BLA BLA BLA BLA BLA BLA BLA BLA BLA BLA BLA 
BLA BLA 
%FLAG JOIN_ARRAY                                                                
%FORMAT(10I8)                                                                   
       0       0       0       0       0       0       0       0       0       0
       0       0       0       0       0       0       0       0       0       0
       0       0
%FLAG IROTAT                                                                    
%FORMAT(10I8)                                                                   
       0       0       0       0       0       0       0       0       0       0
       0       0       0       0       0       0       0       0       0       0
       0       0
%FLAG RADIUS_SET                                                                
%FORMAT(1a80)                                                                   
modified Bondi radii (mbondi)                                                   
%FLAG RADII                                                                     
%FORMAT(5E16.8)                                                                 
  1.70000000E+00  1.70000000E+00  1.70000000E+00  1.70000000E+00  1.70000000E+00
  1.70000000E+00  1.70000000E+00  1.70000000E+00  1.70000000E+00  1.70000000E+00
  1.70000000E+00  1.70000000E+00  1.70000000E+00  1.30000000E+00  1.30000000E+00
  1.30000000E+00  1.30000000E+00  1.30000000E+00  1.30000000E+00  1.30000000E+00
  1.30000000E+00  1.30000000E+00
%FLAG SCREEN                                                                    
%FORMAT(5E16.8)                                                                 
  7.20000000E-01  7.20000000E-01  7.20000000E-01  7.20000000E-01  7.20000000E-01
  7.20000000E-01  7.20000000E-01  7.20000000E-01  7.20000000E-01  7.20000000E-01
  7.20000000E-01  7.20000000E-01  8.00000000E-01  8.50000000E-01  8.50000000E-01
  8.50000000E-01  8.50000000E-01  8.50000000E-01  8.50000000E-01  8.50000000E-01
  8.50000000E-01  8.50000000E-01
%FLAG IPOL                                                                      
%FORMAT(1I8)                                                                    
       0
