; mobley_9717937_GMX_OPLS.top created by acpype (v: 2023.10.27) on Wed May 20 23:48:20 2026

; Include forcefield parameters
#include "ffoplsaa.itp"

; Include mobley_9717937_GMX.itp topology
#include "mobley_9717937_GMX.itp"

; Ligand position restraints
#ifdef POSRES_LIG
#include "posre_mobley_9717937.itp"
#endif

[ system ]
 mobley_9717937

[ molecules ]
; Compound        nmols
 mobley_9717937   1     
