; mobley_6359135_GMX_OPLS.top created by acpype (v: 2023.10.27) on Wed May 20 23:45:07 2026

; Include forcefield parameters
#include "ffoplsaa.itp"

; Include mobley_6359135_GMX.itp topology
#include "mobley_6359135_GMX.itp"

; Ligand position restraints
#ifdef POSRES_LIG
#include "posre_mobley_6359135.itp"
#endif

[ system ]
 mobley_6359135

[ molecules ]
; Compound        nmols
 mobley_6359135   1     
