; mobley_6359135_GMX_OPLS.itp created by acpype (v: 2023.10.27) on Wed May 20 23:45:07 2026

; For OPLS atomtypes manual fine tuning
; AC_at:OPLS_at:OPLScode: Possible_Alternatives (see ffoplsaa.atp and ffoplsaanb.itp)
; c3:CT:opls_135: ['136', '137', '149', '157', '158', '206', '209', '210', '223B', '224B', '245', '246', '274', '283', '284', '285', '292', '292B', '293B', '296', '307', '308', '505']
; cl:x:opls_x: []

[ moleculetype ]
;name            nrexcl
 mobley_6359135   3

[ atoms ]
;   nr  type  resi  res  atom  cgnr     charge      mass       ; qtot   bond_type
     1 opls_135     1   MOL    C1    1     0.325600     12.01100 ; qtot  0.326  CT  
     2 opls_x     1   MOL   CL1    2    -0.081400      0.00000 ; qtot  0.244  x   
     3 opls_x     1   MOL   CL2    3    -0.081400      0.00000 ; qtot  0.163  x   
     4 opls_x     1   MOL   CL3    4    -0.081400      0.00000 ; qtot  0.081  x   
     5 opls_x     1   MOL   CL4    5    -0.081400      0.00000 ; qtot  0.000  x   

[ bonds ]
;   ai     aj funct   r             k
     1      2   1 ;    1.8092e-01    1.3724e+05 ;     C1 - CL1        CT - x     
     1      3   1 ;    1.8092e-01    1.3724e+05 ;     C1 - CL2        CT - x     
     1      4   1 ;    1.8092e-01    1.3724e+05 ;     C1 - CL3        CT - x     
     1      5   1 ;    1.8092e-01    1.3724e+05 ;     C1 - CL4        CT - x     

[ angles ]
;   ai     aj     ak    funct   theta         cth
     2      1      3      1 ;    1.0934e+02    5.8225e+02 ;    CL1 - C1   - CL2       x -   CT - x   
     2      1      4      1 ;    1.0934e+02    5.8225e+02 ;    CL1 - C1   - CL3       x -   CT - x   
     2      1      5      1 ;    1.0934e+02    5.8225e+02 ;    CL1 - C1   - CL4       x -   CT - x   
     3      1      4      1 ;    1.0934e+02    5.8225e+02 ;    CL2 - C1   - CL3       x -   CT - x   
     3      1      5      1 ;    1.0934e+02    5.8225e+02 ;    CL2 - C1   - CL4       x -   CT - x   
     4      1      5      1 ;    1.0934e+02    5.8225e+02 ;    CL3 - C1   - CL4       x -   CT - x   
