mobley_6359135_GMX.gro created by acpype (v: 2023.10.27) on Wed May 20 23:45:07 2026
 5
    1  MOL   C1    1  -0.162  -0.070  -0.027
    1  MOL  CL1    2   0.000   0.000   0.000
    1  MOL  CL2    3  -0.149  -0.248  -0.030
    1  MOL  CL3    4  -0.227  -0.012  -0.182
    1  MOL  CL4    5  -0.270  -0.021   0.106
    5.40400     4.95600     5.75000
