%VERSION  VERSION_STAMP = V0001.000  DATE = 05/21/26  00:02:00                  
%FLAG TITLE                                                                     
%FORMAT(20a4)                                                                   
2_isobutylpyrazine                                                              
%FLAG POINTERS                                                                  
%FORMAT(10I8)                                                                   
      22       5      12      10      26      12      40      13       0       0
     109       1      10      12      13       6      11       9       5       0
       0       0       0       0       0       0       0       0      22       0
       0
%FLAG ATOM_NAME                                                                 
%FORMAT(20a4)                                                                   
C1  C2  C3  C4  C5  C6  C7  C8  N1  N2  H1  H2  H3  H4  H5  H6  H7  H8  H9  H10 
H11 H12 
%FLAG CHARGE                                                                    
%FORMAT(5E16.8)                                                                 
  4.95464337E+00  5.17331097E+00  5.06397717E+00  5.58149049E+00 -1.68738498E+00
 -1.68738498E+00 -2.30876541E+00 -1.10609361E+00 -1.14436044E+01 -1.15164936E+01
  6.03158130E-01  5.84935830E-01  6.21380430E-01  6.80912684E-01  6.80912684E-01
  6.80912684E-01  6.80912684E-01  6.80912684E-01  6.80912684E-01  1.08787131E+00
  1.08787131E+00  8.87426010E-01
%FLAG ATOMIC_NUMBER                                                             
%FORMAT(10I8)                                                                   
       6       6       6       6       6       6       6       6       7       7
       1       1       1       1       1       1       1       1       1       1
       1       1
%FLAG MASS                                                                      
%FORMAT(5E16.8)                                                                 
  1.20100000E+01  1.20100000E+01  1.20100000E+01  1.20100000E+01  1.20100000E+01
  1.20100000E+01  1.20100000E+01  1.20100000E+01  1.40100000E+01  1.40100000E+01
  1.00800000E+00  1.00800000E+00  1.00800000E+00  1.00800000E+00  1.00800000E+00
  1.00800000E+00  1.00800000E+00  1.00800000E+00  1.00800000E+00  1.00800000E+00
  1.00800000E+00  1.00800000E+00
%FLAG ATOM_TYPE_INDEX                                                           
%FORMAT(10I8)                                                                   
       1       1       1       1       2       2       2       2       3       3
       4       4       4       5       5       5       5       5       5       5
       5       5
%FLAG NUMBER_EXCLUDED_ATOMS                                                     
%FORMAT(10I8)                                                                   
       8       7       9      11      12      11      13      10       4       5
       1       1       1       3       2       1       3       2       1       2
       1       1
%FLAG NONBONDED_PARM_INDEX                                                      
%FORMAT(10I8)                                                                   
       1       2       4       7      11       2       3       5       8      12
       4       5       6       9      13       7       8       9      10      14
      11      12      13      14      15
%FLAG RESIDUE_LABEL                                                             
%FORMAT(20a4)                                                                   
MOL 
%FLAG RESIDUE_POINTER                                                           
%FORMAT(10I8)                                                                   
       1
%FLAG BOND_FORCE_CONSTANT                                                       
%FORMAT(5E16.8)                                                                 
  3.54250000E+02  3.86490000E+02  3.56820000E+02  2.43910000E+02  2.28890000E+02
  3.45250000E+02
%FLAG BOND_EQUIL_VALUE                                                          
%FORMAT(5E16.8)                                                                 
  1.39860000E+00  1.33920000E+00  1.08850000E+00  1.51470000E+00  1.53540000E+00
  1.09620000E+00
%FLAG ANGLE_FORCE_CONSTANT                                                      
%FORMAT(5E16.8)                                                                 
  6.81700000E+01  4.48000000E+01  8.31500000E+01  6.07400000E+01  6.03300000E+01
  4.36100000E+01  5.98700000E+01  4.32700000E+01  6.67000000E+01  5.01000000E+01
  3.58000000E+01
%FLAG ANGLE_EQUIL_VALUE                                                         
%FORMAT(5E16.8)                                                                 
  2.14570870E+00  2.09998106E+00  2.04622489E+00  2.10888224E+00  1.96209999E+00
  1.93085858E+00  1.96576518E+00  1.91427794E+00  2.03575291E+00  2.02493187E+00
  1.88024401E+00
%FLAG DIHEDRAL_FORCE_CONSTANT                                                   
%FORMAT(5E16.8)                                                                 
  4.80000000E+00  2.40000000E-01  0.00000000E+00  1.55555556E-01  1.30000000E-01
  3.62500000E+00  0.00000000E+00  1.20000000E-01  1.10000000E+00
%FLAG DIHEDRAL_PERIODICITY                                                      
%FORMAT(5E16.8)                                                                 
  2.00000000E+00  2.00000000E+00  1.00000000E+00  3.00000000E+00  3.00000000E+00
  2.00000000E+00  2.00000000E+00  3.00000000E+00  2.00000000E+00
%FLAG DIHEDRAL_PHASE                                                            
%FORMAT(5E16.8)                                                                 
  3.14159400E+00  3.14159400E+00  0.00000000E+00  0.00000000E+00  0.00000000E+00
  3.14159400E+00  0.00000000E+00  0.00000000E+00  3.14159400E+00
%FLAG SCEE_SCALE_FACTOR                                                         
%FORMAT(5E16.8)                                                                 
  1.20000000E+00  1.20000000E+00  1.20000000E+00  1.20000000E+00  1.20000000E+00
  1.20000000E+00  1.20000000E+00  1.20000000E+00  0.00000000E+00
%FLAG SCNB_SCALE_FACTOR                                                         
%FORMAT(5E16.8)                                                                 
  2.00000000E+00  2.00000000E+00  2.00000000E+00  2.00000000E+00  2.00000000E+00
  2.00000000E+00  2.00000000E+00  2.00000000E+00  0.00000000E+00
%FLAG SOLTY                                                                     
%FORMAT(5E16.8)                                                                 
  0.00000000E+00  0.00000000E+00  0.00000000E+00  0.00000000E+00  0.00000000E+00
%FLAG LENNARD_JONES_ACOEF                                                       
%FORMAT(5E16.8)                                                                 
  6.96551276E+05  8.43969952E+05  1.02073671E+06  7.69642101E+05  9.31115275E+05
  8.49322032E+05  6.27751680E+04  7.75673747E+04  7.05112106E+04  4.56536476E+03
  8.12662403E+04  1.00235148E+05  9.11435380E+04  6.02863188E+03  7.94617769E+03
%FLAG LENNARD_JONES_BCOEF                                                       
%FORMAT(5E16.8)                                                                 
  5.24668528E+02  5.90251928E+02  6.63431737E+02  5.44830041E+02  6.12468585E+02
  5.65406768E+02  1.00073628E+02  1.13692208E+02  1.04776275E+02  1.71467049E+01
  1.21392023E+02  1.37787728E+02  1.27000718E+02  2.10068861E+01  2.57122925E+01
%FLAG BONDS_INC_HYDROGEN                                                        
%FORMAT(10I8)                                                                   
       0      30       3       3      33       3       6      36       3      12
      39       6      12      42       6      12      45       6      15      48
       6      15      51       6      15      54       6      18      57       6
      18      60       6      21      63       6
%FLAG BONDS_WITHOUT_HYDROGEN                                                    
%FORMAT(10I8)                                                                   
       0       3       1       0      24       2       3      27       2       6
       9       1       6      24       2       9      18       4       9      27
       2      12      21       5      15      21       5      18      21       5
%FLAG ANGLES_INC_HYDROGEN                                                       
%FORMAT(10I8)                                                                   
       0       3      33       2       3       0      30       2       9       6
      36       2       9      18      57       6       9      18      60       6
      12      21      63       8      15      21      63       8      18      21
      63       8      21      12      39       8      21      12      42       8
      21      12      45       8      21      15      48       8      21      15
      51       8      21      15      54       8      21      18      57       8
      21      18      60       8      24       0      30      10      24       6
      36      10      27       3      33      10      39      12      42      11
      39      12      45      11      42      12      45      11      48      15
      51      11      48      15      54      11      51      15      54      11
      57      18      60      11
%FLAG ANGLES_WITHOUT_HYDROGEN                                                   
%FORMAT(10I8)                                                                   
       0       3      27       1       0      24       6       3       3       0
      24       1       3      27       9       3       6       9      18       4
       6       9      27       1       9       6      24       1       9      18
      21       5      12      21      15       7      12      21      18       7
      15      21      18       7      18       9      27       9
%FLAG DIHEDRALS_INC_HYDROGEN                                                    
%FORMAT(10I8)                                                                   
       0      24       6      36       1       6       9      18      57       3
       6       9      18      60       3      30       0      24       6       1
       9      18      21      63       4       9      27       3      33       1
      12      21      15      48       5      12      21      15      51       5
      12      21      15      54       5      12      21      18      57       5
      12      21      18      60       5      15      21      12      39       5
      15      21      12      42       5      15      21      12      45       5
      15      21      18      57       5      15      21      18      60       5
      18       9       6      36       6      18      21      12      39       5
      18      21      12      42       5      18      21      12      45       5
      18      21      15      48       5      18      21      15      51       5
      18      21      15      54       5      24       0       3      33       6
      30       0       3      27       6      27       9       6      36       6
      27       9      18      57       7      27       9      18      60       7
      30       0       3      33       6      39      12      21      63       8
      42      12      21      63       8      45      12      21      63       8
      48      15      21      63       8      51      15      21      63       8
      54      15      21      63       8      57      18      21      63       8
      60      18      21      63       8      24       0     -30      -3       9
       0      33      -3     -27       9       9      36      -6     -24       9
%FLAG DIHEDRALS_WITHOUT_HYDROGEN                                                
%FORMAT(10I8)                                                                   
       0       3      27       9       1       0      24      -6       9       1
       3       0      24       6       1       3      27      -9       6       1
       3      27       9      18       1       6       9      18      21       2
       9      18      21      12       4       9      18      21      15       4
      18       9       6      24       6      21      18       9      27       7
      24       0       3      27       6      24       6      -9      27       6
      18       6      -9     -27       9
%FLAG EXCLUDED_ATOMS_LIST                                                       
%FORMAT(10I8)                                                                   
       2       3       4       9      10      11      12      13       3       4
       7       9      10      11      12       4       7       8       9      10
      11      13      20      21       5       6       7       8       9      10
      12      13      20      21      22       6       7       8      14      15
      16      17      18      19      20      21      22       7       8      14
      15      16      17      18      19      20      21      22       8       9
      10      13      14      15      16      17      18      19      20      21
      22      10      14      15      16      17      18      19      20      21
      22      10      11      12      13      11      12      13      20      21
      12       0       0      15      16      22      16      22      22      18
      19      22      19      22      22      21      22      22       0
%FLAG HBOND_ACOEF                                                               
%FORMAT(5E16.8)                                                                 

%FLAG HBOND_BCOEF                                                               
%FORMAT(5E16.8)                                                                 

%FLAG HBCUT                                                                     
%FORMAT(5E16.8)                                                                 

%FLAG AMBER_ATOM_TYPE                                                           
%FORMAT(20a4)                                                                   
ca  ca  ca  ca  c3  c3  c3  c3  nb  nb  h4  h4  h4  hc  hc  hc  hc  hc  hc  hc  
hc  hc  
%FLAG TREE_CHAIN_CLASSIFICATION                                                 
%FORMAT(20a4)                                                                   
BLA BLA BLA BLA BLA BLA BLA BLA BLA BLA BLA BLA BLA BLA BLA BLA BLA BLA BLA BLA 
BLA BLA 
%FLAG JOIN_ARRAY                                                                
%FORMAT(10I8)                                                                   
       0       0       0       0       0       0       0       0       0       0
       0       0       0       0       0       0       0       0       0       0
       0       0
%FLAG IROTAT                                                                    
%FORMAT(10I8)                                                                   
       0       0       0       0       0       0       0       0       0       0
       0       0       0       0       0       0       0       0       0       0
       0       0
%FLAG RADIUS_SET                                                                
%FORMAT(1a80)                                                                   
modified Bondi radii (mbondi)                                                   
%FLAG RADII                                                                     
%FORMAT(5E16.8)                                                                 
  1.70000000E+00  1.70000000E+00  1.70000000E+00  1.70000000E+00  1.70000000E+00
  1.70000000E+00  1.70000000E+00  1.70000000E+00  1.55000000E+00  1.55000000E+00
  1.30000000E+00  1.30000000E+00  1.30000000E+00  1.30000000E+00  1.30000000E+00
  1.30000000E+00  1.30000000E+00  1.30000000E+00  1.30000000E+00  1.30000000E+00
  1.30000000E+00  1.30000000E+00
%FLAG SCREEN                                                                    
%FORMAT(5E16.8)                                                                 
  7.20000000E-01  7.20000000E-01  7.20000000E-01  7.20000000E-01  7.20000000E-01
  7.20000000E-01  7.20000000E-01  7.20000000E-01  7.90000000E-01  7.90000000E-01
  8.50000000E-01  8.50000000E-01  8.50000000E-01  8.50000000E-01  8.50000000E-01
  8.50000000E-01  8.50000000E-01  8.50000000E-01  8.50000000E-01  8.50000000E-01
  8.50000000E-01  8.50000000E-01
%FLAG IPOL                                                                      
%FORMAT(1I8)                                                                    
       0
