2_isobutylpyrazine
    22
  -2.3110000   3.1440000  -1.9980000  -3.1110000   3.0370000  -0.8820000
  -0.4780000   2.6220000  -0.7330000  -1.2870000   2.5200000   0.3650000
  -2.0270000   0.0020000   1.8760000   0.3170000  -0.0300000   1.0010000
  -0.6900000   2.1630000   1.7040000  -0.6430000   0.6470000   1.9820000
  -0.9800000   2.9390000  -1.9440000  -2.6100000   2.7200000   0.3280000
  -2.7140000   3.3990000  -2.9700000  -4.1810000   3.2030000  -0.9270000
   0.5920000   2.4580000  -0.6970000  -2.4720000   0.1740000   0.8900000
  -2.7110000   0.3990000   2.6330000  -1.9630000  -1.0810000   2.0310000
   0.3860000  -1.1040000   1.2020000  -0.0150000   0.1010000  -0.0350000
   1.3250000   0.3910000   1.0900000   0.3180000   2.5890000   1.7890000
  -1.2870000   2.6640000   2.4780000  -0.2630000   0.4720000   2.9960000
