mobley_5006685_GMX.gro created by acpype (v: 2023.10.27) on Wed May 20 23:50:22 2026
   25
    1MOL     C1    1   2.408   2.404   2.227
    1MOL     C2    2   2.507   2.494   2.227
    1MOL     C3    3   2.235   2.434   2.682
    1MOL     C4    4   2.566   2.530   2.098
    1MOL     C5    5   2.328   2.381   2.602
    1MOL     C6    6   2.340   2.359   2.354
    1MOL     C7    7   2.563   2.557   2.351
    1MOL     C8    8   2.521   2.484   2.479
    1MOL     C9    9   2.372   2.448   2.475
    1MOL    C10   10   2.395   2.250   2.634
    1MOL     O1   11   2.657   2.612   2.087
    1MOL     H1   12   2.373   2.359   2.135
    1MOL     H2   13   2.205   2.385   2.774
    1MOL     H3   14   2.187   2.529   2.658
    1MOL     H4   15   2.522   2.480   2.011
    1MOL     H5   16   2.231   2.359   2.337
    1MOL     H6   17   2.369   2.255   2.373
    1MOL     H7   18   2.673   2.559   2.347
    1MOL     H8   19   2.529   2.661   2.356
    1MOL     H9   20   2.581   2.392   2.490
    1MOL    H10   21   2.543   2.547   2.566
    1MOL    H11   22   2.314   2.541   2.466
    1MOL    H12   23   2.339   2.167   2.590
    1MOL    H13   24   2.497   2.249   2.593
    1MOL    H14   25   2.403   2.233   2.742
   4.85311   4.85311   4.85311
