mobley_5006685_GMX.gro created by acpype (v: 2023.10.27) on Wed May 20 23:50:22 2026
11248
    1MOL     C1    1   2.408   2.404   2.227
    1MOL     C2    2   2.507   2.494   2.227
    1MOL     C3    3   2.235   2.434   2.682
    1MOL     C4    4   2.566   2.530   2.098
    1MOL     C5    5   2.328   2.381   2.602
    1MOL     C6    6   2.340   2.359   2.354
    1MOL     C7    7   2.563   2.557   2.351
    1MOL     C8    8   2.521   2.484   2.479
    1MOL     C9    9   2.372   2.448   2.475
    1MOL    C10   10   2.395   2.250   2.634
    1MOL     O1   11   2.657   2.612   2.087
    1MOL     H1   12   2.373   2.359   2.135
    1MOL     H2   13   2.205   2.385   2.774
    1MOL     H3   14   2.187   2.529   2.658
    1MOL     H4   15   2.522   2.480   2.011
    1MOL     H5   16   2.231   2.359   2.337
    1MOL     H6   17   2.369   2.255   2.373
    1MOL     H7   18   2.673   2.559   2.347
    1MOL     H8   19   2.529   2.661   2.356
    1MOL     H9   20   2.581   2.392   2.490
    1MOL    H10   21   2.543   2.547   2.566
    1MOL    H11   22   2.314   2.541   2.466
    1MOL    H12   23   2.339   2.167   2.590
    1MOL    H13   24   2.497   2.249   2.593
    1MOL    H14   25   2.403   2.233   2.742
    2SOL     OW   26   0.230   0.628   0.113
    2SOL    HW1   27   0.137   0.626   0.150
    2SOL    HW2   28   0.231   0.589   0.021
    3SOL     OW   29   0.225   0.275   0.996
    3SOL    HW1   30   0.260   0.258   1.088
    3SOL    HW2   31   0.137   0.230   0.984
    4SOL     OW   32   0.019   0.368   0.647
    4SOL    HW1   33  -0.063   0.411   0.686
    4SOL    HW2   34  -0.009   0.295   0.584
    5SOL     OW   35   0.569   1.275   1.165
    5SOL    HW1   36   0.476   1.268   1.128
    5SOL    HW2   37   0.580   1.364   1.209
    6SOL     OW   38   1.555   1.511   0.703
    6SOL    HW1   39   1.498   1.495   0.784
    6SOL    HW2   40   1.496   1.521   0.623
    7SOL     OW   41   1.135   0.703   0.717
    7SOL    HW1   42   1.192   0.781   0.692
    7SOL    HW2   43   1.075   0.729   0.793
    8SOL     OW   44   1.755   0.607   0.231
    8SOL    HW1   45   1.743   0.594   0.132
    8SOL    HW2   46   1.725   0.526   0.280
    9SOL     OW   47   0.768   1.144   1.023
    9SOL    HW1   48   0.690   1.161   1.083
    9SOL    HW2   49   0.802   1.231   0.987
   10SOL     OW   50   0.850   0.798   1.823
   10SOL    HW1   51   0.846   0.874   1.888
   10SOL    HW2   52   0.872   0.834   1.732
   11SOL     OW   53   0.685   1.012   0.665
   11SOL    HW1   54   0.754   0.996   0.735
   11SOL    HW2   55   0.612   1.069   0.703
   12SOL     OW   56   0.686   1.161   1.803
   12SOL    HW1   57   0.746   1.240   1.817
   12SOL    HW2   58   0.600   1.192   1.762
   13SOL     OW   59   0.335   1.435   1.061
   13SOL    HW1   60   0.257   1.404   1.008
   13SOL    HW2   61   0.393   1.493   1.004
   14SOL     OW   62   1.460   1.505   1.339
   14SOL    HW1   63   1.484   1.599   1.365
   14SOL    HW2   64   1.444   1.451   1.421
   15SOL     OW   65   0.438   0.392   1.499
   15SOL    HW1   66   0.520   0.336   1.508
   15SOL    HW2   67   0.357   0.334   1.503
   16SOL     OW   68   1.603   0.447   0.737
   16SOL    HW1   69   1.529   0.493   0.687
   16SOL    HW2   70   1.654   0.515   0.790
   17SOL     OW   71   0.231   1.713   0.483
   17SOL    HW1   72   0.265   1.790   0.537
   17SOL    HW2   73   0.275   1.713   0.393
   18SOL     OW   74   1.127   1.341   1.690
   18SOL    HW1   75   1.174   1.341   1.778
   18SOL    HW2   76   1.079   1.254   1.679
   19SOL     OW   77   0.230   1.434   0.538
   19SOL    HW1   78   0.204   1.530   0.538
   19SOL    HW2   79   0.159   1.380   0.583
   20SOL     OW   80   0.240   1.091   0.886
   20SOL    HW1   81   0.254   1.007   0.938
   20SOL    HW2   82   0.185   1.155   0.941
   21SOL     OW   83   0.620   1.786   1.439
   21SOL    HW1   84   0.528   1.769   1.474
   21SOL    HW2   85   0.648   1.878   1.465
   22SOL     OW   86   0.606   0.964   0.123
   22SOL    HW1   87   0.613   1.048   0.069
   22SOL    HW2   88   0.652   0.977   0.211
   23SOL     OW   89   1.594   0.114   1.480
   23SOL    HW1   90   1.576   0.181   1.408
   23SOL    HW2   91   1.591   0.160   1.569
   24SOL     OW   92   0.122   0.643   0.563
   24SOL    HW1   93   0.077   0.555   0.580
   24SOL    HW2   94   0.121   0.697   0.647
   25SOL     OW   95   1.842   1.767   0.359
   25SOL    HW1   96   1.896   1.738   0.439
   25SOL    HW2   97   1.872   1.857   0.330
   26SOL     OW   98   0.027   1.596   0.117
   26SOL    HW1   99   0.008   1.500   0.138
   26SOL    HW2  100  -0.006   1.654   0.192
   27SOL     OW  101   1.689   0.922   0.612
   27SOL    HW1  102   1.784   0.893   0.620
   27SOL    HW2  103   1.681   0.987   0.537
   28SOL     OW  104   1.641   1.108   0.432
   28SOL    HW1  105   1.727   1.110   0.380
   28SOL    HW2  106   1.655   1.155   0.520
   29SOL     OW  107   0.113   0.737   1.597
   29SOL    HW1  108   0.201   0.724   1.642
   29SOL    HW2  109   0.100   0.834   1.575
   30SOL     OW  110   0.613   1.365   0.726
   30SOL    HW1  111   0.564   1.278   0.735
   30SOL    HW2  112   0.590   1.408   0.639
   31SOL     OW  113   1.293   1.228   1.423
   31SOL    HW1  114   1.330   1.155   1.365
   31SOL    HW2  115   1.345   1.233   1.508
   32SOL     OW  116   0.809   0.004   0.502
   32SOL    HW1  117   0.849   0.095   0.493
   32SOL    HW2  118   0.709   0.012   0.508
   33SOL     OW  119   0.197   0.976   1.264
   33SOL    HW1  120   0.286   0.931   1.250
   33SOL    HW2  121   0.124   0.911   1.245
   34SOL     OW  122   1.525   0.999   0.190
   34SOL    HW1  123   1.462   0.923   0.203
   34SOL    HW2  124   1.573   1.017   0.276
   35SOL     OW  125   1.187   1.792   1.616
   35SOL    HW1  126   1.211   1.852   1.540
   35SOL    HW2  127   1.194   1.697   1.586
   36SOL     OW  128   0.317   0.251   1.801
   36SOL    HW1  129   0.388   0.322   1.807
   36SOL    HW2  130   0.229   0.290   1.829
   37SOL     OW  131   1.466   1.417   0.953
   37SOL    HW1  132   1.407   1.423   1.033
   37SOL    HW2  133   1.451   1.329   0.907
   38SOL     OW  134   1.667   1.714   0.572
   38SOL    HW1  135   1.626   1.691   0.484
   38SOL    HW2  136   1.649   1.640   0.637
   39SOL     OW  137   0.598   0.729   0.270
   39SOL    HW1  138   0.622   0.798   0.202
   39SOL    HW2  139   0.520   0.762   0.324
   40SOL     OW  140   1.281   0.345   0.944
   40SOL    HW1  141   1.195   0.295   0.931
   40SOL    HW2  142   1.343   0.291   1.000
   41SOL     OW  143   1.576   1.662   0.307
   41SOL    HW1  144   1.665   1.708   0.310
   41SOL    HW2  145   1.555   1.638   0.212
   42SOL     OW  146   0.807   0.605   1.465
   42SOL    HW1  147   0.760   0.602   1.554
   42SOL    HW2  148   0.756   0.550   1.399
   43SOL     OW  149   1.394   0.469   1.674
   43SOL    HW1  150   1.374   0.512   1.762
   43SOL    HW2  151   1.472   0.407   1.683
   44SOL     OW  152   0.973   0.890   1.572
   44SOL    HW1  153   1.019   0.806   1.543
   44SOL    HW2  154   0.917   0.924   1.497
   45SOL     OW  155   0.991   0.410   1.242
   45SOL    HW1  156   0.914   0.444   1.296
   45SOL    HW2  157   0.957   0.359   1.163
   46SOL     OW  158   1.041   0.701   0.429
   46SOL    HW1  159   1.067   0.697   0.525
   46SOL    HW2  160   0.956   0.650   0.415
   47SOL     OW  161   0.076   0.811   0.789
   47SOL    HW1  162   0.175   0.799   0.798
   47SOL    HW2  163   0.052   0.906   0.810
   48SOL     OW  164   0.130   1.821   1.571
   48SOL    HW1  165   0.120   1.806   1.670
   48SOL    HW2  166   0.044   1.857   1.535
   49SOL     OW  167   0.865   0.348   0.195
   49SOL    HW1  168   0.924   0.411   0.146
   49SOL    HW2  169   0.884   0.254   0.166
   50SOL     OW  170   1.719   0.585   1.831
   50SOL    HW1  171   1.693   0.674   1.795
   50SOL    HW2  172   1.717   0.517   1.758
   51SOL     OW  173   1.362   1.144   0.545
   51SOL    HW1  174   1.445   1.115   0.497
   51SOL    HW2  175   1.313   1.211   0.489
   52SOL     OW  176   0.550   0.196   0.885
   52SOL    HW1  177   0.545   0.191   0.985
   52SOL    HW2  178   0.552   0.292   0.856
   53SOL     OW  179   1.008   1.456   0.477
   53SOL    HW1  180   0.962   1.528   0.425
   53SOL    HW2  181   1.004   1.476   0.575
   54SOL     OW  182   0.351   1.801   0.853
   54SOL    HW1  183   0.401   1.715   0.859
   54SOL    HW2  184   0.416   1.878   0.850
   55SOL     OW  185   1.795   1.066   0.873
   55SOL    HW1  186   1.733   1.051   0.797
   55SOL    HW2  187   1.743   1.077   0.958
   56SOL     OW  188   1.227   1.550   1.506
   56SOL    HW1  189   1.233   1.473   1.570
   56SOL    HW2  190   1.175   1.524   1.426
   57SOL     OW  191   0.321   0.943   0.242
   57SOL    HW1  192   0.403   0.982   0.200
   57SOL    HW2  193   0.294   0.861   0.193
   58SOL     OW  194   1.458   0.735   0.728
   58SOL    HW1  195   1.453   0.670   0.803
   58SOL    HW2  196   1.538   0.794   0.741
   59SOL     OW  197   0.461   1.266   1.727
   59SOL    HW1  198   0.411   1.267   1.641
   59SOL    HW2  199   0.398   1.248   1.803
   60SOL     OW  200   1.111   1.776   0.237
   60SOL    HW1  201   1.051   1.714   0.287
   60SOL    HW2  202   1.142   1.732   0.152
   61SOL     OW  203   0.202   0.285   1.498
   61SOL    HW1  204   0.122   0.345   1.485
   61SOL    HW2  205   0.192   0.236   1.584
   62SOL     OW  206   1.632   1.377   0.081
   62SOL    HW1  207   1.600   1.471   0.071
   62SOL    HW2  208   1.556   1.314   0.069
   63SOL     OW  209   0.464   1.743   0.323
   63SOL    HW1  210   0.497   1.782   0.409
   63SOL    HW2  211   0.540   1.736   0.258
   64SOL     OW  212   1.400   0.107   0.426
   64SOL    HW1  213   1.376   0.070   0.336
   64SOL    HW2  214   1.499   0.123   0.430
   65SOL     OW  215   0.249   1.785   1.241
   65SOL    HW1  216   0.306   1.720   1.291
   65SOL    HW2  217   0.233   1.752   1.148
   66SOL     OW  218   0.940   1.698   0.904
   66SOL    HW1  219   1.020   1.641   0.925
   66SOL    HW2  220   0.891   1.658   0.827
   67SOL     OW  221   0.382   0.700   0.480
   67SOL    HW1  222   0.427   0.610   0.477
   67SOL    HW2  223   0.288   0.689   0.513
   68SOL     OW  224   1.547   0.222   1.729
   68SOL    HW1  225   1.542   0.259   1.821
   68SOL    HW2  226   1.475   0.153   1.717
   69SOL     OW  227   0.614   0.122   0.117
   69SOL    HW1  228   0.712   0.100   0.124
   69SOL    HW2  229   0.583   0.105   0.024
   70SOL     OW  230   0.781   0.264   1.749
   70SOL    HW1  231   0.848   0.203   1.792
   70SOL    HW2  232   0.708   0.283   1.814
   71SOL     OW  233   0.888   1.514   1.195
   71SOL    HW1  234   0.865   1.489   1.101
   71SOL    HW2  235   0.949   1.445   1.234
   72SOL     OW  236   1.351   0.590   1.433
   72SOL    HW1  237   1.379   0.547   1.518
   72SOL    HW2  238   1.376   0.686   1.434
   73SOL     OW  239   0.803   1.402   0.924
   73SOL    HW1  240   0.893   1.416   0.882
   73SOL    HW2  241   0.732   1.404   0.853
   74SOL     OW  242   0.922   0.503   0.899
   74SOL    HW1  243   0.897   0.494   0.803
   74SOL    HW2  244   0.970   0.421   0.930
   75SOL     OW  245   0.539   0.064   0.512
   75SOL    HW1  246   0.458   0.065   0.570
   75SOL    HW2  247   0.542   0.147   0.457
   76SOL     OW  248   1.434   1.188   0.041
   76SOL    HW1  249   1.466   1.112   0.098
   76SOL    HW2  250   1.342   1.215   0.071
   77SOL     OW  251   0.297   0.035   0.171
   77SOL    HW1  252   0.346   0.119   0.150
   77SOL    HW2  253   0.359  -0.030   0.216
   78SOL     OW  254   0.935   0.236   0.480
   78SOL    HW1  255   0.887   0.277   0.402
   78SOL    HW2  256   1.034   0.234   0.461
   79SOL     OW  257   1.076   0.683   1.464
   79SOL    HW1  258   0.996   0.622   1.467
   79SOL    HW2  259   1.157   0.630   1.440
   80SOL     OW  260   1.227   1.570   0.793
   80SOL    HW1  261   1.248   1.644   0.728
   80SOL    HW2  262   1.295   1.570   0.866
   81SOL     OW  263   0.459   1.152   0.741
   81SOL    HW1  264   0.388   1.125   0.806
   81SOL    HW2  265   0.433   1.124   0.648
   82SOL     OW  266   1.271   1.797   0.591
   82SOL    HW1  267   1.315   1.861   0.527
   82SOL    HW2  268   1.221   1.849   0.661
   83SOL     OW  269   1.032   0.549   0.016
   83SOL    HW1  270   0.991   0.631  -0.023
   83SOL    HW2  271   1.096   0.575   0.089
   84SOL     OW  272   0.078   0.556   1.386
   84SOL    HW1  273   0.170   0.555   1.345
   84SOL    HW2  274   0.072   0.630   1.453
   85SOL     OW  275   0.561   0.222   1.147
   85SOL    HW1  276   0.599   0.138   1.184
   85SOL    HW2  277   0.473   0.241   1.191
   86SOL     OW  278   0.866   0.454   0.642
   86SOL    HW1  279   0.834   0.526   0.580
   86SOL    HW2  280   0.890   0.373   0.589
   87SOL     OW  281   1.017   0.039   0.753
   87SOL    HW1  282   0.945   0.044   0.684
   87SOL    HW2  283   0.993  -0.030   0.822
   88SOL     OW  284   1.429   1.173   0.867
   88SOL    HW1  285   1.374   1.089   0.860
   88SOL    HW2  286   1.455   1.202   0.775
   89SOL     OW  287   1.466   0.590   0.992
   89SOL    HW1  288   1.436   0.495   0.999
   89SOL    HW2  289   1.539   0.606   1.058
   90SOL     OW  290   1.857   0.833   0.377
   90SOL    HW1  291   1.899   0.769   0.441
   90SOL    HW2  292   1.819   0.782   0.299
   91SOL     OW  293   0.488   1.385   0.174
   91SOL    HW1  294   0.401   1.370   0.221
   91SOL    HW2  295   0.471   1.411   0.079
   92SOL     OW  296   1.664   1.280   0.657
   92SOL    HW1  297   1.763   1.288   0.671
   92SOL    HW2  298   1.619   1.364   0.688
   93SOL     OW  299   1.390   0.575   0.078
   93SOL    HW1  300   1.336   0.554   0.159
   93SOL    HW2  301   1.481   0.534   0.087
   94SOL     OW  302   0.527   0.256   0.328
   94SOL    HW1  303   0.554   0.197   0.253
   94SOL    HW2  304   0.527   0.351   0.297
   95SOL     OW  305   1.754   1.223   1.588
   95SOL    HW1  306   1.845   1.184   1.575
   95SOL    HW2  307   1.762   1.319   1.612
   96SOL     OW  308   1.064   1.347   1.340
   96SOL    HW1  309   0.984   1.324   1.395
   96SOL    HW2  310   1.147   1.321   1.389
   97SOL     OW  311   1.592   1.629   1.625
   97SOL    HW1  312   1.619   1.663   1.535
   97SOL    HW2  313   1.671   1.591   1.671
   98SOL     OW  314   1.111   1.195   1.100
   98SOL    HW1  315   1.071   1.239   1.181
   98SOL    HW2  316   1.070   1.232   1.017
   99SOL     OW  317   1.638   1.099   1.079
   99SOL    HW1  318   1.643   1.180   1.138
   99SOL    HW2  319   1.552   1.101   1.028
  100SOL     OW  320   0.915   0.089   1.402
  100SOL    HW1  321   0.940   0.069   1.307
  100SOL    HW2  322   0.987   0.145   1.444
  101SOL     OW  323   0.980   1.116   1.719
  101SOL    HW1  324   0.881   1.122   1.729
  101SOL    HW2  325   1.003   1.036   1.663
  102SOL     OW  326   0.705   1.050   0.368
  102SOL    HW1  327   0.691   1.057   0.467
  102SOL    HW2  328   0.789   0.999   0.350
  103SOL     OW  329   0.410   0.813   1.251
  103SOL    HW1  330   0.496   0.825   1.301
  103SOL    HW2  331   0.368   0.726   1.278
  104SOL     OW  332   1.274   0.386   1.262
  104SOL    HW1  333   1.295   0.460   1.326
  104SOL    HW2  334   1.185   0.403   1.219
  105SOL     OW  335   0.064   1.564   1.331
  105SOL    HW1  336   0.018   1.646   1.297
  105SOL    HW2  337   0.162   1.583   1.340
  106SOL     OW  338   0.367   1.100   0.501
  106SOL    HW1  339   0.360   1.183   0.445
  106SOL    HW2  340   0.371   1.020   0.441
  107SOL     OW  341   0.566   0.537   0.865
  107SOL    HW1  342   0.578   0.603   0.791
  107SOL    HW2  343   0.612   0.571   0.948
  108SOL     OW  344   1.252   1.348   0.388
  108SOL    HW1  345   1.302   1.425   0.428
  108SOL    HW2  346   1.157   1.350   0.420
  109SOL     OW  347   1.272   1.445   1.142
  109SOL    HW1  348   1.319   1.458   1.229
  109SOL    HW2  349   1.206   1.371   1.151
  110SOL     OW  350   1.582   0.639   0.472
  110SOL    HW1  351   1.551   0.700   0.545
  110SOL    HW2  352   1.632   0.691   0.403
  111SOL     OW  353   0.354   1.510   1.329
  111SOL    HW1  354   0.333   1.466   1.242
  111SOL    HW2  355   0.451   1.536   1.332
  112SOL     OW  356   0.402   0.751   1.598
  112SOL    HW1  357   0.470   0.806   1.551
  112SOL    HW2  358   0.442   0.663   1.625
  113SOL     OW  359   1.587   0.779   1.670
  113SOL    HW1  360   1.495   0.817   1.665
  113SOL    HW2  361   1.647   0.826   1.605
  114SOL     OW  362   1.013   0.105   1.770
  114SOL    HW1  363   1.019   0.190   1.718
  114SOL    HW2  364   1.045   0.029   1.713
  115SOL     OW  365   0.504   0.050   1.740
  115SOL    HW1  366   0.462  -0.007   1.670
  115SOL    HW2  367   0.438   0.119   1.772
  116SOL     OW  368   0.573   0.870   1.029
  116SOL    HW1  369   0.617   0.959   1.020
  116SOL    HW2  370   0.510   0.870   1.106
  117SOL     OW  371   1.360   0.862   1.045
  117SOL    HW1  372   1.285   0.862   0.979
  117SOL    HW2  373   1.397   0.770   1.054
  118SOL     OW  374   1.209   0.525   0.275
  118SOL    HW1  375   1.222   0.441   0.329
  118SOL    HW2  376   1.180   0.599   0.335
  119SOL     OW  377   0.307   0.213   1.231
  119SOL    HW1  378   0.284   0.250   1.321
  119SOL    HW2  379   0.277   0.118   1.225
  120SOL     OW  380   0.037   1.310   1.282
  120SOL    HW1  381   0.090   1.261   1.350
  120SOL    HW2  382   0.059   1.408   1.287
  121SOL     OW  383   0.732   0.634   1.064
  121SOL    HW1  384   0.791   0.608   0.988
  121SOL    HW2  385   0.704   0.730   1.053
  122SOL     OW  386   1.728   0.935   1.854
  122SOL    HW1  387   1.682   0.928   1.765
  122SOL    HW2  388   1.666   0.979   1.920
  123SOL     OW  389   0.307   0.063   0.618
  123SOL    HW1  390   0.296   0.157   0.651
  123SOL    HW2  391   0.302   0.000   0.695
  124SOL     OW  392   1.622   0.367   0.374
  124SOL    HW1  393   1.624   0.291   0.438
  124SOL    HW2  394   1.574   0.444   0.414
  125SOL     OW  395   1.023   0.766   0.966
  125SOL    HW1  396   1.038   0.787   1.062
  125SOL    HW2  397   0.993   0.671   0.957
  126SOL     OW  398   0.980   1.573   1.700
  126SOL    HW1  399   0.960   1.617   1.612
  126SOL    HW2  400   1.019   1.482   1.684
  127SOL     OW  401   1.859   1.518   1.605
  127SOL    HW1  402   1.873   1.545   1.510
  127SOL    HW2  403   1.942   1.540   1.658
  128SOL     OW  404   0.350   0.898   1.804
  128SOL    HW1  405   0.426   0.942   1.852
  128SOL    HW2  406   0.385   0.851   1.722
  129SOL     OW  407   1.540   0.274   0.125
  129SOL    HW1  408   1.479   0.199   0.148
  129SOL    HW2  409   1.562   0.326   0.208
  130SOL     OW  410   1.303   0.838   0.042
  130SOL    HW1  411   1.337   0.745   0.057
  130SOL    HW2  412   1.321   0.865  -0.053
  131SOL     OW  413   1.068   1.333   0.849
  131SOL    HW1  414   1.075   1.249   0.794
  131SOL    HW2  415   1.130   1.402   0.813
  132SOL     OW  416   0.319   0.810   0.949
  132SOL    HW1  417   0.412   0.846   0.954
  132SOL    HW2  418   0.313   0.725   1.001
  133SOL     OW  419   0.339   0.509   1.006
  133SOL    HW1  420   0.287   0.426   0.989
  133SOL    HW2  421   0.416   0.514   0.942
  134SOL     OW  422   1.138   0.380   1.678
  134SOL    HW1  423   1.093   0.443   1.742
  134SOL    HW2  424   1.231   0.411   1.661
  135SOL     OW  425   1.160   0.207   1.477
  135SOL    HW1  426   1.160   0.271   1.554
  135SOL    HW2  427   1.188   0.255   1.394
  136SOL     OW  428   0.008   1.326   0.200
  136SOL    HW1  429  -0.085   1.347   0.169
  136SOL    HW2  430   0.018   1.227   0.213
  137SOL     OW  431   0.088   1.801   0.927
  137SOL    HW1  432   0.046   1.715   0.900
  137SOL    HW2  433   0.182   1.804   0.893
  138SOL     OW  434   0.504   1.568   0.910
  138SOL    HW1  435   0.570   1.642   0.919
  138SOL    HW2  436   0.548   1.489   0.868
  139SOL     OW  437   1.002   0.796   1.238
  139SOL    HW1  438   1.043   0.764   1.324
  139SOL    HW2  439   0.906   0.769   1.235
  140SOL     OW  440   0.040   0.544   1.114
  140SOL    HW1  441   0.125   0.511   1.073
  140SOL    HW2  442   0.053   0.559   1.212
  141SOL     OW  443   0.189   0.520   1.722
  141SOL    HW1  444   0.248   0.480   1.652
  141SOL    HW2  445   0.131   0.591   1.681
  142SOL     OW  446   1.369   0.950   1.660
  142SOL    HW1  447   1.408   1.039   1.680
  142SOL    HW2  448   1.379   0.930   1.563
  143SOL     OW  449   0.815   0.572   0.325
  143SOL    HW1  450   0.822   0.483   0.279
  143SOL    HW2  451   0.721   0.606   0.317
  144SOL     OW  452   1.657   0.604   1.206
  144SOL    HW1  453   1.619   0.535   1.268
  144SOL    HW2  454   1.739   0.568   1.162
  145SOL     OW  455   0.252   1.564   1.744
  145SOL    HW1  456   0.222   1.621   1.820
  145SOL    HW2  457   0.245   1.467   1.770
  146SOL     OW  458   0.671   0.464   1.269
  146SOL    HW1  459   0.637   0.375   1.239
  146SOL    HW2  460   0.697   0.518   1.189
  147SOL     OW  461   0.930   1.678   1.465
  147SOL    HW1  462   0.906   1.660   1.370
  147SOL    HW2  463   0.960   1.772   1.475
  148SOL     OW  464   0.473   0.500   0.191
  148SOL    HW1  465   0.534   0.580   0.195
  148SOL    HW2  466   0.378   0.531   0.198
  149SOL     OW  467   0.159   1.137   1.466
  149SOL    HW1  468   0.181   1.076   1.542
  149SOL    HW2  469   0.169   1.088   1.380
  150SOL     OW  470   1.347   1.059   1.234
  150SOL    HW1  471   1.371   0.996   1.160
  150SOL    HW2  472   1.257   1.099   1.216
  151SOL     OW  473   1.302   0.855   0.309
  151SOL    HW1  474   1.216   0.824   0.351
  151SOL    HW2  475   1.298   0.841   0.210
  152SOL     OW  476   1.759   1.747   1.154
  152SOL    HW1  477   1.820   1.777   1.081
  152SOL    HW2  478   1.721   1.658   1.132
  153SOL     OW  479   1.252   1.731   1.128
  153SOL    HW1  480   1.336   1.736   1.074
  153SOL    HW2  481   1.229   1.635   1.146
  154SOL     OW  482   0.083   1.258   1.022
  154SOL    HW1  483   0.078   1.257   1.122
  154SOL    HW2  484   0.000   1.217   0.984
  155SOL     OW  485   0.688   1.662   1.716
  155SOL    HW1  486   0.632   1.743   1.725
  155SOL    HW2  487   0.740   1.666   1.630
  156SOL     OW  488   0.903   0.086   0.133
  156SOL    HW1  489   0.954   0.087   0.047
  156SOL    HW2  490   0.959   0.044   0.204
  157SOL     OW  491   1.726   0.135   0.523
  157SOL    HW1  492   1.799   0.118   0.456
  157SOL    HW2  493   1.695   0.048   0.561
  158SOL     OW  494   1.388   1.573   0.477
  158SOL    HW1  495   1.455   1.585   0.403
  158SOL    HW2  496   1.348   1.662   0.500
  159SOL     OW  497   0.130   1.794   1.851
  159SOL    HW1  498   0.089   1.720   1.904
  159SOL    HW2  499   0.194   1.845   1.909
  160SOL     OW  500   1.280   0.927   0.672
  160SOL    HW1  501   1.340   0.846   0.674
  160SOL    HW2  502   1.320   0.996   0.612
  161SOL     OW  503   0.830   1.273   1.422
  161SOL    HW1  504   0.825   1.306   1.517
  161SOL    HW2  505   0.744   1.292   1.376
  162SOL     OW  506   0.672   1.616   0.154
  162SOL    HW1  507   0.681   1.626   0.055
  162SOL    HW2  508   0.632   1.527   0.175
  163SOL     OW  509   1.650   1.720   1.394
  163SOL    HW1  510   1.703   1.730   1.310
  163SOL    HW2  511   1.623   1.810   1.428
  164SOL     OW  512   1.841   0.175   0.963
  164SOL    HW1  513   1.880   0.090   0.927
  164SOL    HW2  514   1.743   0.177   0.944
  165SOL     OW  515   0.263   0.326   0.720
  165SOL    HW1  516   0.184   0.377   0.686
  165SOL    HW2  517   0.254   0.311   0.818
  166SOL     OW  518   1.194   1.612   0.031
  166SOL    HW1  519   1.200   1.519   0.068
  166SOL    HW2  520   1.135   1.612  -0.049
  167SOL     OW  521   0.822   1.002   1.372
  167SOL    HW1  522   0.862   1.001   1.280
  167SOL    HW2  523   0.832   1.094   1.412
  168SOL     OW  524   0.916   0.910   0.291
  168SOL    HW1  525   0.979   0.948   0.223
  168SOL    HW2  526   0.956   0.827   0.330
  169SOL     OW  527   1.504   1.607   0.044
  169SOL    HW1  528   1.412   1.644   0.051
  169SOL    HW2  529   1.542   1.627  -0.046
  170SOL     OW  530   0.372   1.288   1.490
  170SOL    HW1  531   0.359   1.381   1.456
  170SOL    HW2  532   0.288   1.236   1.477
  171SOL     OW  533   1.614   1.292   1.289
  171SOL    HW1  534   1.674   1.295   1.369
  171SOL    HW2  535   1.539   1.356   1.302
  172SOL     OW  536   1.039   1.098   0.696
  172SOL    HW1  537   0.969   1.051   0.750
  172SOL    HW2  538   1.098   1.030   0.653
  173SOL     OW  539   1.014   0.236   0.971
  173SOL    HW1  540   1.006   0.200   0.878
  173SOL    HW2  541   1.012   0.160   1.036
  174SOL     OW  542   0.590   1.487   0.491
  174SOL    HW1  543   0.632   1.429   0.421
  174SOL    HW2  544   0.546   1.566   0.447
  175SOL     OW  545   1.709   0.385   1.381
  175SOL    HW1  546   1.782   0.454   1.385
  175SOL    HW2  547   1.737   0.310   1.322
  176SOL     OW  548   0.255   1.348   0.290
  176SOL    HW1  549   0.159   1.349   0.263
  176SOL    HW2  550   0.267   1.401   0.374
  177SOL     OW  551   0.105   1.013   1.726
  177SOL    HW1  552   0.028   0.980   1.780
  177SOL    HW2  553   0.190   0.983   1.768
  178SOL     OW  554   0.672   0.203   1.489
  178SOL    HW1  555   0.762   0.187   1.449
  178SOL    HW2  556   0.680   0.208   1.588
  179SOL     OW  557   0.075   0.345   0.033
  179SOL    HW1  558  -0.017   0.317   0.004
  179SOL    HW2  559   0.106   0.422  -0.023
  180SOL     OW  560   1.440   0.856   1.398
  180SOL    HW1  561   1.383   0.908   1.335
  180SOL    HW2  562   1.536   0.868   1.374
  181SOL     OW  563   0.072   0.166   0.318
  181SOL    HW1  564   0.055   0.249   0.264
  181SOL    HW2  565   0.162   0.129   0.296
  182SOL     OW  566   1.183   1.335   0.119
  182SOL    HW1  567   1.084   1.324   0.121
  182SOL    HW2  568   1.217   1.350   0.212
  183SOL     OW  569   0.613   0.842   1.431
  183SOL    HW1  570   0.669   0.923   1.414
  183SOL    HW2  571   0.672   0.762   1.434
  184SOL     OW  572   1.493   1.767   0.959
  184SOL    HW1  573   1.526   1.831   0.890
  184SOL    HW2  574   1.559   1.761   1.034
  185SOL     OW  575   0.716   0.565   1.708
  185SOL    HW1  576   0.735   0.630   1.782
  185SOL    HW2  577   0.776   0.485   1.717
  186SOL     OW  578   1.450   1.220   1.633
  186SOL    HW1  579   1.441   1.210   1.732
  186SOL    HW2  580   1.546   1.213   1.607
  187SOL     OW  581   0.390   1.741   1.560
  187SOL    HW1  582   0.299   1.782   1.558
  187SOL    HW2  583   0.383   1.647   1.592
  188SOL     OW  584   1.674   0.883   1.254
  188SOL    HW1  585   1.647   0.794   1.217
  188SOL    HW2  586   1.675   0.951   1.181
  189SOL     OW  587   1.225   0.325   0.449
  189SOL    HW1  588   1.290   0.251   0.438
  189SOL    HW2  589   1.245   0.375   0.533
  190SOL     OW  590   0.594   0.745   0.652
  190SOL    HW1  591   0.644   0.830   0.633
  190SOL    HW2  592   0.506   0.747   0.604
  191SOL     OW  593   1.777   0.342   1.642
  191SOL    HW1  594   1.760   0.373   1.548
  191SOL    HW2  595   1.693   0.305   1.680
  192SOL     OW  596   1.730   0.934   1.517
  192SOL    HW1  597   1.768   1.025   1.532
  192SOL    HW2  598   1.722   0.917   1.418
  193SOL     OW  599   0.859   1.374   0.016
  193SOL    HW1  600   0.813   1.389   0.104
  193SOL    HW2  601   0.903   1.459  -0.014
  194SOL     OW  602   0.661   1.790   0.953
  194SOL    HW1  603   0.615   1.878   0.940
  194SOL    HW2  604   0.760   1.802   0.946
  195SOL     OW  605   0.859   0.956   0.861
  195SOL    HW1  606   0.913   0.887   0.909
  195SOL    HW2  607   0.827   1.025   0.927
  196SOL     OW  608   1.083   0.984   0.087
  196SOL    HW1  609   1.060   1.037   0.005
  196SOL    HW2  610   1.164   0.928   0.068
  197SOL     OW  611   1.861   1.569   0.851
  197SOL    HW1  612   1.790   1.557   0.781
  197SOL    HW2  613   1.862   1.490   0.911
  198SOL     OW  614   0.221   1.314   1.844
  198SOL    HW1  615   0.156   1.241   1.823
  198SOL    HW2  616   0.225   1.328   1.942
  199SOL     OW  617   0.079   1.240   0.653
  199SOL    HW1  618   0.078   1.193   0.741
  199SOL    HW2  619   0.161   1.212   0.602
  200SOL     OW  620   0.672   1.391   1.624
  200SOL    HW1  621   0.594   1.341   1.662
  200SOL    HW2  622   0.669   1.486   1.655
  201SOL     OW  623   1.824   0.192   1.227
  201SOL    HW1  624   1.820   0.102   1.271
  201SOL    HW2  625   1.827   0.181   1.128
  202SOL     OW  626   0.428   0.424   0.520
  202SOL    HW1  627   0.458   0.352   0.458
  202SOL    HW2  628   0.389   0.384   0.603
  203SOL     OW  629   1.705   1.487   1.104
  203SOL    HW1  630   1.612   1.462   1.077
  203SOL    HW2  631   1.731   1.437   1.186
  204SOL     OW  632   0.317   0.547   1.280
  204SOL    HW1  633   0.355   0.488   1.352
  204SOL    HW2  634   0.357   0.521   1.192
  205SOL     OW  635   0.812   1.586   0.687
  205SOL    HW1  636   0.844   1.596   0.593
  205SOL    HW2  637   0.733   1.524   0.689
  206SOL     OW  638   1.424   0.214   1.112
  206SOL    HW1  639   1.476   0.149   1.167
  206SOL    HW2  640   1.375   0.277   1.173
  207SOL     OW  641   1.001   0.034   1.154
  207SOL    HW1  642   0.938  -0.038   1.123
  207SOL    HW2  643   1.094  -0.002   1.154
  208SOL     OW  644   0.770   1.330   0.301
  208SOL    HW1  645   0.724   1.243   0.318
  208SOL    HW2  646   0.861   1.327   0.342
  209SOL     OW  647   0.618   1.567   1.284
  209SOL    HW1  648   0.613   1.649   1.341
  209SOL    HW2  649   0.707   1.564   1.239
  210SOL     OW  650   1.352   0.052   0.168
  210SOL    HW1  651   1.387   0.011   0.084
  210SOL    HW2  652   1.262   0.014   0.188
  211SOL     OW  653   1.300   0.453   0.691
  211SOL    HW1  654   1.241   0.533   0.695
  211SOL    HW2  655   1.315   0.418   0.784
  212SOL     OW  656   1.593   0.221   0.882
  212SOL    HW1  657   1.509   0.220   0.936
  212SOL    HW2  658   1.595   0.304   0.826
  213SOL     OW  659   0.039   1.077   0.300
  213SOL    HW1  660   0.138   1.066   0.291
  213SOL    HW2  661  -0.001   0.991   0.332
  214SOL     OW  662   0.875   1.646   0.337
  214SOL    HW1  663   0.798   1.611   0.283
  214SOL    HW2  664   0.843   1.717   0.399
  215SOL     OW  665   0.230   0.628   1.975
  215SOL    HW1  666   0.137   0.626   2.012
  215SOL    HW2  667   0.231   0.589   1.883
  216SOL     OW  668   0.225   0.275   2.858
  216SOL    HW1  669   0.260   0.258   2.950
  216SOL    HW2  670   0.137   0.230   2.846
  217SOL     OW  671   0.019   0.368   2.509
  217SOL    HW1  672  -0.063   0.411   2.548
  217SOL    HW2  673  -0.009   0.295   2.446
  218SOL     OW  674   0.569   1.275   3.027
  218SOL    HW1  675   0.476   1.268   2.990
  218SOL    HW2  676   0.580   1.364   3.071
  219SOL     OW  677   1.555   1.511   2.565
  219SOL    HW1  678   1.498   1.495   2.646
  219SOL    HW2  679   1.496   1.521   2.485
  220SOL     OW  680   1.135   0.703   2.579
  220SOL    HW1  681   1.192   0.781   2.554
  220SOL    HW2  682   1.075   0.729   2.655
  221SOL     OW  683   1.755   0.607   2.093
  221SOL    HW1  684   1.743   0.594   1.994
  221SOL    HW2  685   1.725   0.526   2.142
  222SOL     OW  686   0.768   1.144   2.885
  222SOL    HW1  687   0.690   1.161   2.945
  222SOL    HW2  688   0.802   1.231   2.849
  223SOL     OW  689   0.850   0.798   3.685
  223SOL    HW1  690   0.846   0.874   3.750
  223SOL    HW2  691   0.872   0.834   3.594
  224SOL     OW  692   0.685   1.012   2.527
  224SOL    HW1  693   0.754   0.996   2.597
  224SOL    HW2  694   0.612   1.069   2.565
  225SOL     OW  695   0.686   1.161   3.665
  225SOL    HW1  696   0.746   1.240   3.679
  225SOL    HW2  697   0.600   1.192   3.624
  226SOL     OW  698   0.335   1.435   2.923
  226SOL    HW1  699   0.257   1.404   2.870
  226SOL    HW2  700   0.393   1.493   2.866
  227SOL     OW  701   1.460   1.505   3.201
  227SOL    HW1  702   1.484   1.599   3.227
  227SOL    HW2  703   1.444   1.451   3.283
  228SOL     OW  704   0.438   0.392   3.361
  228SOL    HW1  705   0.520   0.336   3.370
  228SOL    HW2  706   0.357   0.334   3.365
  229SOL     OW  707   1.603   0.447   2.599
  229SOL    HW1  708   1.529   0.493   2.549
  229SOL    HW2  709   1.654   0.515   2.652
  230SOL     OW  710   0.231   1.713   2.345
  230SOL    HW1  711   0.265   1.790   2.399
  230SOL    HW2  712   0.275   1.713   2.255
  231SOL     OW  713   1.127   1.341   3.552
  231SOL    HW1  714   1.174   1.341   3.640
  231SOL    HW2  715   1.079   1.254   3.541
  232SOL     OW  716   0.230   1.434   2.400
  232SOL    HW1  717   0.204   1.530   2.400
  232SOL    HW2  718   0.159   1.380   2.445
  233SOL     OW  719   0.240   1.091   2.748
  233SOL    HW1  720   0.254   1.007   2.800
  233SOL    HW2  721   0.185   1.155   2.803
  234SOL     OW  722   0.620   1.786   3.301
  234SOL    HW1  723   0.528   1.769   3.336
  234SOL    HW2  724   0.648   1.878   3.327
  235SOL     OW  725   0.606   0.964   1.985
  235SOL    HW1  726   0.613   1.048   1.931
  235SOL    HW2  727   0.652   0.977   2.073
  236SOL     OW  728   1.594   0.114   3.342
  236SOL    HW1  729   1.576   0.181   3.270
  236SOL    HW2  730   1.591   0.160   3.431
  237SOL     OW  731   0.122   0.643   2.425
  237SOL    HW1  732   0.077   0.555   2.442
  237SOL    HW2  733   0.121   0.697   2.509
  238SOL     OW  734   1.842   1.767   2.221
  238SOL    HW1  735   1.896   1.738   2.301
  238SOL    HW2  736   1.872   1.857   2.192
  239SOL     OW  737   0.027   1.596   1.979
  239SOL    HW1  738   0.008   1.500   2.000
  239SOL    HW2  739  -0.006   1.654   2.054
  240SOL     OW  740   1.689   0.922   2.474
  240SOL    HW1  741   1.784   0.893   2.482
  240SOL    HW2  742   1.681   0.987   2.399
  241SOL     OW  743   1.641   1.108   2.294
  241SOL    HW1  744   1.727   1.110   2.242
  241SOL    HW2  745   1.655   1.155   2.382
  242SOL     OW  746   0.113   0.737   3.459
  242SOL    HW1  747   0.201   0.724   3.504
  242SOL    HW2  748   0.100   0.834   3.437
  243SOL     OW  749   0.613   1.365   2.588
  243SOL    HW1  750   0.564   1.278   2.597
  243SOL    HW2  751   0.590   1.408   2.501
  244SOL     OW  752   1.293   1.228   3.285
  244SOL    HW1  753   1.330   1.155   3.227
  244SOL    HW2  754   1.345   1.233   3.370
  245SOL     OW  755   0.809   0.004   2.364
  245SOL    HW1  756   0.849   0.095   2.355
  245SOL    HW2  757   0.709   0.012   2.370
  246SOL     OW  758   0.197   0.976   3.126
  246SOL    HW1  759   0.286   0.931   3.112
  246SOL    HW2  760   0.124   0.911   3.107
  247SOL     OW  761   1.525   0.999   2.052
  247SOL    HW1  762   1.462   0.923   2.065
  247SOL    HW2  763   1.573   1.017   2.138
  248SOL     OW  764   1.187   1.792   3.478
  248SOL    HW1  765   1.211   1.852   3.402
  248SOL    HW2  766   1.194   1.697   3.448
  249SOL     OW  767   0.317   0.251   3.663
  249SOL    HW1  768   0.388   0.322   3.669
  249SOL    HW2  769   0.229   0.290   3.691
  250SOL     OW  770   1.466   1.417   2.815
  250SOL    HW1  771   1.407   1.423   2.895
  250SOL    HW2  772   1.451   1.329   2.769
  251SOL     OW  773   1.667   1.714   2.434
  251SOL    HW1  774   1.626   1.691   2.346
  251SOL    HW2  775   1.649   1.640   2.499
  252SOL     OW  776   0.598   0.729   2.132
  252SOL    HW1  777   0.622   0.798   2.064
  252SOL    HW2  778   0.520   0.762   2.186
  253SOL     OW  779   1.281   0.345   2.806
  253SOL    HW1  780   1.195   0.295   2.793
  253SOL    HW2  781   1.343   0.291   2.862
  254SOL     OW  782   1.576   1.662   2.169
  254SOL    HW1  783   1.665   1.708   2.172
  254SOL    HW2  784   1.555   1.638   2.074
  255SOL     OW  785   0.807   0.605   3.327
  255SOL    HW1  786   0.760   0.602   3.416
  255SOL    HW2  787   0.756   0.550   3.261
  256SOL     OW  788   1.394   0.469   3.536
  256SOL    HW1  789   1.374   0.512   3.624
  256SOL    HW2  790   1.472   0.407   3.545
  257SOL     OW  791   0.973   0.890   3.434
  257SOL    HW1  792   1.019   0.806   3.405
  257SOL    HW2  793   0.917   0.924   3.359
  258SOL     OW  794   0.991   0.410   3.104
  258SOL    HW1  795   0.914   0.444   3.158
  258SOL    HW2  796   0.957   0.359   3.025
  259SOL     OW  797   1.041   0.701   2.291
  259SOL    HW1  798   1.067   0.697   2.387
  259SOL    HW2  799   0.956   0.650   2.277
  260SOL     OW  800   0.076   0.811   2.651
  260SOL    HW1  801   0.175   0.799   2.660
  260SOL    HW2  802   0.052   0.906   2.672
  261SOL     OW  803   0.130   1.821   3.433
  261SOL    HW1  804   0.120   1.806   3.532
  261SOL    HW2  805   0.044   1.857   3.397
  262SOL     OW  806   0.865   0.348   2.057
  262SOL    HW1  807   0.924   0.411   2.008
  262SOL    HW2  808   0.884   0.254   2.028
  263SOL     OW  809   1.719   0.585   3.693
  263SOL    HW1  810   1.693   0.674   3.657
  263SOL    HW2  811   1.717   0.517   3.620
  264SOL     OW  812   1.362   1.144   2.407
  264SOL    HW1  813   1.445   1.115   2.359
  264SOL    HW2  814   1.313   1.211   2.351
  265SOL     OW  815   0.550   0.196   2.747
  265SOL    HW1  816   0.545   0.191   2.847
  265SOL    HW2  817   0.552   0.292   2.718
  266SOL     OW  818   1.008   1.456   2.339
  266SOL    HW1  819   0.962   1.528   2.287
  266SOL    HW2  820   1.004   1.476   2.437
  267SOL     OW  821   0.351   1.801   2.715
  267SOL    HW1  822   0.401   1.715   2.721
  267SOL    HW2  823   0.416   1.878   2.712
  268SOL     OW  824   1.795   1.066   2.735
  268SOL    HW1  825   1.733   1.051   2.659
  268SOL    HW2  826   1.743   1.077   2.820
  269SOL     OW  827   1.227   1.550   3.368
  269SOL    HW1  828   1.233   1.473   3.432
  269SOL    HW2  829   1.175   1.524   3.288
  270SOL     OW  830   0.321   0.943   2.104
  270SOL    HW1  831   0.403   0.982   2.062
  270SOL    HW2  832   0.294   0.861   2.055
  271SOL     OW  833   1.458   0.735   2.590
  271SOL    HW1  834   1.453   0.670   2.665
  271SOL    HW2  835   1.538   0.794   2.603
  272SOL     OW  836   0.461   1.266   3.589
  272SOL    HW1  837   0.411   1.267   3.503
  272SOL    HW2  838   0.398   1.248   3.665
  273SOL     OW  839   1.111   1.776   2.099
  273SOL    HW1  840   1.051   1.714   2.149
  273SOL    HW2  841   1.142   1.732   2.014
  274SOL     OW  842   0.202   0.285   3.360
  274SOL    HW1  843   0.122   0.345   3.347
  274SOL    HW2  844   0.192   0.236   3.446
  275SOL     OW  845   1.632   1.377   1.943
  275SOL    HW1  846   1.600   1.471   1.933
  275SOL    HW2  847   1.556   1.314   1.931
  276SOL     OW  848   0.464   1.743   2.185
  276SOL    HW1  849   0.497   1.782   2.271
  276SOL    HW2  850   0.540   1.736   2.120
  277SOL     OW  851   1.400   0.107   2.288
  277SOL    HW1  852   1.376   0.070   2.198
  277SOL    HW2  853   1.499   0.123   2.292
  278SOL     OW  854   0.249   1.785   3.103
  278SOL    HW1  855   0.306   1.720   3.153
  278SOL    HW2  856   0.233   1.752   3.010
  279SOL     OW  857   0.940   1.698   2.766
  279SOL    HW1  858   1.020   1.641   2.787
  279SOL    HW2  859   0.891   1.658   2.689
  280SOL     OW  860   0.382   0.700   2.342
  280SOL    HW1  861   0.427   0.610   2.339
  280SOL    HW2  862   0.288   0.689   2.375
  281SOL     OW  863   1.547   0.222   3.591
  281SOL    HW1  864   1.542   0.259   3.683
  281SOL    HW2  865   1.475   0.153   3.579
  282SOL     OW  866   0.614   0.122   1.979
  282SOL    HW1  867   0.712   0.100   1.986
  282SOL    HW2  868   0.583   0.105   1.886
  283SOL     OW  869   0.781   0.264   3.611
  283SOL    HW1  870   0.848   0.203   3.654
  283SOL    HW2  871   0.708   0.283   3.676
  284SOL     OW  872   0.888   1.514   3.057
  284SOL    HW1  873   0.865   1.489   2.963
  284SOL    HW2  874   0.949   1.445   3.096
  285SOL     OW  875   1.351   0.590   3.295
  285SOL    HW1  876   1.379   0.547   3.380
  285SOL    HW2  877   1.376   0.686   3.296
  286SOL     OW  878   0.803   1.402   2.786
  286SOL    HW1  879   0.893   1.416   2.744
  286SOL    HW2  880   0.732   1.404   2.715
  287SOL     OW  881   0.922   0.503   2.761
  287SOL    HW1  882   0.897   0.494   2.665
  287SOL    HW2  883   0.970   0.421   2.792
  288SOL     OW  884   0.539   0.064   2.374
  288SOL    HW1  885   0.458   0.065   2.432
  288SOL    HW2  886   0.542   0.147   2.319
  289SOL     OW  887   1.434   1.188   1.903
  289SOL    HW1  888   1.466   1.112   1.960
  289SOL    HW2  889   1.342   1.215   1.933
  290SOL     OW  890   0.297   0.035   2.033
  290SOL    HW1  891   0.346   0.119   2.012
  290SOL    HW2  892   0.359  -0.030   2.078
  291SOL     OW  893   0.935   0.236   2.342
  291SOL    HW1  894   0.887   0.277   2.264
  291SOL    HW2  895   1.034   0.234   2.323
  292SOL     OW  896   1.076   0.683   3.326
  292SOL    HW1  897   0.996   0.622   3.329
  292SOL    HW2  898   1.157   0.630   3.302
  293SOL     OW  899   1.227   1.570   2.655
  293SOL    HW1  900   1.248   1.644   2.590
  293SOL    HW2  901   1.295   1.570   2.728
  294SOL     OW  902   0.459   1.152   2.603
  294SOL    HW1  903   0.388   1.125   2.668
  294SOL    HW2  904   0.433   1.124   2.510
  295SOL     OW  905   1.271   1.797   2.453
  295SOL    HW1  906   1.315   1.861   2.389
  295SOL    HW2  907   1.221   1.849   2.523
  296SOL     OW  908   1.032   0.549   1.878
  296SOL    HW1  909   0.991   0.631   1.839
  296SOL    HW2  910   1.096   0.575   1.951
  297SOL     OW  911   0.078   0.556   3.248
  297SOL    HW1  912   0.170   0.555   3.207
  297SOL    HW2  913   0.072   0.630   3.315
  298SOL     OW  914   0.561   0.222   3.009
  298SOL    HW1  915   0.599   0.138   3.046
  298SOL    HW2  916   0.473   0.241   3.053
  299SOL     OW  917   0.866   0.454   2.504
  299SOL    HW1  918   0.834   0.526   2.442
  299SOL    HW2  919   0.890   0.373   2.451
  300SOL     OW  920   1.017   0.039   2.615
  300SOL    HW1  921   0.945   0.044   2.546
  300SOL    HW2  922   0.993  -0.030   2.684
  301SOL     OW  923   1.429   1.173   2.729
  301SOL    HW1  924   1.374   1.089   2.722
  301SOL    HW2  925   1.455   1.202   2.637
  302SOL     OW  926   1.466   0.590   2.854
  302SOL    HW1  927   1.436   0.495   2.861
  302SOL    HW2  928   1.539   0.606   2.920
  303SOL     OW  929   1.857   0.833   2.239
  303SOL    HW1  930   1.899   0.769   2.303
  303SOL    HW2  931   1.819   0.782   2.161
  304SOL     OW  932   0.488   1.385   2.036
  304SOL    HW1  933   0.401   1.370   2.083
  304SOL    HW2  934   0.471   1.411   1.941
  305SOL     OW  935   1.664   1.280   2.519
  305SOL    HW1  936   1.763   1.288   2.533
  305SOL    HW2  937   1.619   1.364   2.550
  306SOL     OW  938   1.390   0.575   1.940
  306SOL    HW1  939   1.336   0.554   2.021
  306SOL    HW2  940   1.481   0.534   1.949
  307SOL     OW  941   0.527   0.256   2.190
  307SOL    HW1  942   0.554   0.197   2.115
  307SOL    HW2  943   0.527   0.351   2.159
  308SOL     OW  944   1.754   1.223   3.450
  308SOL    HW1  945   1.845   1.184   3.437
  308SOL    HW2  946   1.762   1.319   3.474
  309SOL     OW  947   1.064   1.347   3.202
  309SOL    HW1  948   0.984   1.324   3.257
  309SOL    HW2  949   1.147   1.321   3.251
  310SOL     OW  950   1.592   1.629   3.487
  310SOL    HW1  951   1.619   1.663   3.397
  310SOL    HW2  952   1.671   1.591   3.533
  311SOL     OW  953   1.111   1.195   2.962
  311SOL    HW1  954   1.071   1.239   3.043
  311SOL    HW2  955   1.070   1.232   2.879
  312SOL     OW  956   1.638   1.099   2.941
  312SOL    HW1  957   1.643   1.180   3.000
  312SOL    HW2  958   1.552   1.101   2.890
  313SOL     OW  959   0.915   0.089   3.264
  313SOL    HW1  960   0.940   0.069   3.169
  313SOL    HW2  961   0.987   0.145   3.306
  314SOL     OW  962   0.980   1.116   3.581
  314SOL    HW1  963   0.881   1.122   3.591
  314SOL    HW2  964   1.003   1.036   3.525
  315SOL     OW  965   0.705   1.050   2.230
  315SOL    HW1  966   0.691   1.057   2.329
  315SOL    HW2  967   0.789   0.999   2.212
  316SOL     OW  968   0.410   0.813   3.113
  316SOL    HW1  969   0.496   0.825   3.163
  316SOL    HW2  970   0.368   0.726   3.140
  317SOL     OW  971   1.274   0.386   3.124
  317SOL    HW1  972   1.295   0.460   3.188
  317SOL    HW2  973   1.185   0.403   3.081
  318SOL     OW  974   0.064   1.564   3.193
  318SOL    HW1  975   0.018   1.646   3.159
  318SOL    HW2  976   0.162   1.583   3.202
  319SOL     OW  977   0.367   1.100   2.363
  319SOL    HW1  978   0.360   1.183   2.307
  319SOL    HW2  979   0.371   1.020   2.303
  320SOL     OW  980   0.566   0.537   2.727
  320SOL    HW1  981   0.578   0.603   2.653
  320SOL    HW2  982   0.612   0.571   2.810
  321SOL     OW  983   1.252   1.348   2.250
  321SOL    HW1  984   1.302   1.425   2.290
  321SOL    HW2  985   1.157   1.350   2.282
  322SOL     OW  986   1.272   1.445   3.004
  322SOL    HW1  987   1.319   1.458   3.091
  322SOL    HW2  988   1.206   1.371   3.013
  323SOL     OW  989   1.582   0.639   2.334
  323SOL    HW1  990   1.551   0.700   2.407
  323SOL    HW2  991   1.632   0.691   2.265
  324SOL     OW  992   0.354   1.510   3.191
  324SOL    HW1  993   0.333   1.466   3.104
  324SOL    HW2  994   0.451   1.536   3.194
  325SOL     OW  995   0.402   0.751   3.460
  325SOL    HW1  996   0.470   0.806   3.413
  325SOL    HW2  997   0.442   0.663   3.487
  326SOL     OW  998   1.587   0.779   3.532
  326SOL    HW1  999   1.495   0.817   3.527
  326SOL    HW2 1000   1.647   0.826   3.467
  327SOL     OW 1001   1.013   0.105   3.632
  327SOL    HW1 1002   1.019   0.190   3.580
  327SOL    HW2 1003   1.045   0.029   3.575
  328SOL     OW 1004   0.504   0.050   3.602
  328SOL    HW1 1005   0.462  -0.007   3.532
  328SOL    HW2 1006   0.438   0.119   3.634
  329SOL     OW 1007   0.573   0.870   2.891
  329SOL    HW1 1008   0.617   0.959   2.882
  329SOL    HW2 1009   0.510   0.870   2.968
  330SOL     OW 1010   1.360   0.862   2.907
  330SOL    HW1 1011   1.285   0.862   2.841
  330SOL    HW2 1012   1.397   0.770   2.916
  331SOL     OW 1013   1.209   0.525   2.137
  331SOL    HW1 1014   1.222   0.441   2.191
  331SOL    HW2 1015   1.180   0.599   2.197
  332SOL     OW 1016   0.307   0.213   3.093
  332SOL    HW1 1017   0.284   0.250   3.183
  332SOL    HW2 1018   0.277   0.118   3.087
  333SOL     OW 1019   0.037   1.310   3.144
  333SOL    HW1 1020   0.090   1.261   3.212
  333SOL    HW2 1021   0.059   1.408   3.149
  334SOL     OW 1022   0.732   0.634   2.926
  334SOL    HW1 1023   0.791   0.608   2.850
  334SOL    HW2 1024   0.704   0.730   2.915
  335SOL     OW 1025   1.728   0.935   3.716
  335SOL    HW1 1026   1.682   0.928   3.627
  335SOL    HW2 1027   1.666   0.979   3.782
  336SOL     OW 1028   0.307   0.063   2.480
  336SOL    HW1 1029   0.296   0.157   2.513
  336SOL    HW2 1030   0.302   0.000   2.557
  337SOL     OW 1031   1.622   0.367   2.236
  337SOL    HW1 1032   1.624   0.291   2.300
  337SOL    HW2 1033   1.574   0.444   2.276
  338SOL     OW 1034   1.023   0.766   2.828
  338SOL    HW1 1035   1.038   0.787   2.924
  338SOL    HW2 1036   0.993   0.671   2.819
  339SOL     OW 1037   0.980   1.573   3.562
  339SOL    HW1 1038   0.960   1.617   3.474
  339SOL    HW2 1039   1.019   1.482   3.546
  340SOL     OW 1040   1.859   1.518   3.467
  340SOL    HW1 1041   1.873   1.545   3.372
  340SOL    HW2 1042   1.942   1.540   3.520
  341SOL     OW 1043   0.350   0.898   3.666
  341SOL    HW1 1044   0.426   0.942   3.714
  341SOL    HW2 1045   0.385   0.851   3.584
  342SOL     OW 1046   1.540   0.274   1.987
  342SOL    HW1 1047   1.479   0.199   2.010
  342SOL    HW2 1048   1.562   0.326   2.070
  343SOL     OW 1049   1.303   0.838   1.904
  343SOL    HW1 1050   1.337   0.745   1.919
  343SOL    HW2 1051   1.321   0.865   1.809
  344SOL     OW 1052   1.068   1.333   2.711
  344SOL    HW1 1053   1.075   1.249   2.656
  344SOL    HW2 1054   1.130   1.402   2.675
  345SOL     OW 1055   0.319   0.810   2.811
  345SOL    HW1 1056   0.412   0.846   2.816
  345SOL    HW2 1057   0.313   0.725   2.863
  346SOL     OW 1058   0.339   0.509   2.868
  346SOL    HW1 1059   0.287   0.426   2.851
  346SOL    HW2 1060   0.416   0.514   2.804
  347SOL     OW 1061   1.138   0.380   3.540
  347SOL    HW1 1062   1.093   0.443   3.604
  347SOL    HW2 1063   1.231   0.411   3.523
  348SOL     OW 1064   1.160   0.207   3.339
  348SOL    HW1 1065   1.160   0.271   3.416
  348SOL    HW2 1066   1.188   0.255   3.256
  349SOL     OW 1067   0.008   1.326   2.062
  349SOL    HW1 1068  -0.085   1.347   2.031
  349SOL    HW2 1069   0.018   1.227   2.075
  350SOL     OW 1070   0.088   1.801   2.789
  350SOL    HW1 1071   0.046   1.715   2.762
  350SOL    HW2 1072   0.182   1.804   2.755
  351SOL     OW 1073   0.504   1.568   2.772
  351SOL    HW1 1074   0.570   1.642   2.781
  351SOL    HW2 1075   0.548   1.489   2.730
  352SOL     OW 1076   1.002   0.796   3.100
  352SOL    HW1 1077   1.043   0.764   3.186
  352SOL    HW2 1078   0.906   0.769   3.097
  353SOL     OW 1079   0.040   0.544   2.976
  353SOL    HW1 1080   0.125   0.511   2.935
  353SOL    HW2 1081   0.053   0.559   3.074
  354SOL     OW 1082   0.189   0.520   3.584
  354SOL    HW1 1083   0.248   0.480   3.514
  354SOL    HW2 1084   0.131   0.591   3.543
  355SOL     OW 1085   1.369   0.950   3.522
  355SOL    HW1 1086   1.408   1.039   3.542
  355SOL    HW2 1087   1.379   0.930   3.425
  356SOL     OW 1088   0.815   0.572   2.187
  356SOL    HW1 1089   0.822   0.483   2.141
  356SOL    HW2 1090   0.721   0.606   2.179
  357SOL     OW 1091   1.657   0.604   3.068
  357SOL    HW1 1092   1.619   0.535   3.130
  357SOL    HW2 1093   1.739   0.568   3.024
  358SOL     OW 1094   0.252   1.564   3.606
  358SOL    HW1 1095   0.222   1.621   3.682
  358SOL    HW2 1096   0.245   1.467   3.632
  359SOL     OW 1097   0.671   0.464   3.131
  359SOL    HW1 1098   0.637   0.375   3.101
  359SOL    HW2 1099   0.697   0.518   3.051
  360SOL     OW 1100   0.930   1.678   3.327
  360SOL    HW1 1101   0.906   1.660   3.232
  360SOL    HW2 1102   0.960   1.772   3.337
  361SOL     OW 1103   0.473   0.500   2.053
  361SOL    HW1 1104   0.534   0.580   2.057
  361SOL    HW2 1105   0.378   0.531   2.060
  362SOL     OW 1106   0.159   1.137   3.328
  362SOL    HW1 1107   0.181   1.076   3.404
  362SOL    HW2 1108   0.169   1.088   3.242
  363SOL     OW 1109   1.347   1.059   3.096
  363SOL    HW1 1110   1.371   0.996   3.022
  363SOL    HW2 1111   1.257   1.099   3.078
  364SOL     OW 1112   1.302   0.855   2.171
  364SOL    HW1 1113   1.216   0.824   2.213
  364SOL    HW2 1114   1.298   0.841   2.072
  365SOL     OW 1115   1.759   1.747   3.016
  365SOL    HW1 1116   1.820   1.777   2.943
  365SOL    HW2 1117   1.721   1.658   2.994
  366SOL     OW 1118   1.252   1.731   2.990
  366SOL    HW1 1119   1.336   1.736   2.936
  366SOL    HW2 1120   1.229   1.635   3.008
  367SOL     OW 1121   0.083   1.258   2.884
  367SOL    HW1 1122   0.078   1.257   2.984
  367SOL    HW2 1123   0.000   1.217   2.846
  368SOL     OW 1124   0.688   1.662   3.578
  368SOL    HW1 1125   0.632   1.743   3.587
  368SOL    HW2 1126   0.740   1.666   3.492
  369SOL     OW 1127   1.726   0.135   2.385
  369SOL    HW1 1128   1.799   0.118   2.318
  369SOL    HW2 1129   1.695   0.048   2.423
  370SOL     OW 1130   1.388   1.573   2.339
  370SOL    HW1 1131   1.455   1.585   2.265
  370SOL    HW2 1132   1.348   1.662   2.362
  371SOL     OW 1133   0.130   1.794   3.713
  371SOL    HW1 1134   0.089   1.720   3.766
  371SOL    HW2 1135   0.194   1.845   3.771
  372SOL     OW 1136   1.280   0.927   2.534
  372SOL    HW1 1137   1.340   0.846   2.536
  372SOL    HW2 1138   1.320   0.996   2.474
  373SOL     OW 1139   0.830   1.273   3.284
  373SOL    HW1 1140   0.825   1.306   3.379
  373SOL    HW2 1141   0.744   1.292   3.238
  374SOL     OW 1142   0.672   1.616   2.016
  374SOL    HW1 1143   0.681   1.626   1.917
  374SOL    HW2 1144   0.632   1.527   2.037
  375SOL     OW 1145   1.650   1.720   3.256
  375SOL    HW1 1146   1.703   1.730   3.172
  375SOL    HW2 1147   1.623   1.810   3.290
  376SOL     OW 1148   1.841   0.175   2.825
  376SOL    HW1 1149   1.880   0.090   2.789
  376SOL    HW2 1150   1.743   0.177   2.806
  377SOL     OW 1151   0.263   0.326   2.582
  377SOL    HW1 1152   0.184   0.377   2.548
  377SOL    HW2 1153   0.254   0.311   2.680
  378SOL     OW 1154   1.194   1.612   1.893
  378SOL    HW1 1155   1.200   1.519   1.930
  378SOL    HW2 1156   1.135   1.612   1.813
  379SOL     OW 1157   0.822   1.002   3.234
  379SOL    HW1 1158   0.862   1.001   3.142
  379SOL    HW2 1159   0.832   1.094   3.274
  380SOL     OW 1160   0.916   0.910   2.153
  380SOL    HW1 1161   0.979   0.948   2.085
  380SOL    HW2 1162   0.956   0.827   2.192
  381SOL     OW 1163   1.504   1.607   1.906
  381SOL    HW1 1164   1.412   1.644   1.913
  381SOL    HW2 1165   1.542   1.627   1.816
  382SOL     OW 1166   0.372   1.288   3.352
  382SOL    HW1 1167   0.359   1.381   3.318
  382SOL    HW2 1168   0.288   1.236   3.339
  383SOL     OW 1169   1.614   1.292   3.151
  383SOL    HW1 1170   1.674   1.295   3.231
  383SOL    HW2 1171   1.539   1.356   3.164
  384SOL     OW 1172   1.039   1.098   2.558
  384SOL    HW1 1173   0.969   1.051   2.612
  384SOL    HW2 1174   1.098   1.030   2.515
  385SOL     OW 1175   1.014   0.236   2.833
  385SOL    HW1 1176   1.006   0.200   2.740
  385SOL    HW2 1177   1.012   0.160   2.898
  386SOL     OW 1178   0.590   1.487   2.353
  386SOL    HW1 1179   0.632   1.429   2.283
  386SOL    HW2 1180   0.546   1.566   2.309
  387SOL     OW 1181   1.709   0.385   3.243
  387SOL    HW1 1182   1.782   0.454   3.247
  387SOL    HW2 1183   1.737   0.310   3.184
  388SOL     OW 1184   0.255   1.348   2.152
  388SOL    HW1 1185   0.159   1.349   2.125
  388SOL    HW2 1186   0.267   1.401   2.236
  389SOL     OW 1187   0.105   1.013   3.588
  389SOL    HW1 1188   0.028   0.980   3.642
  389SOL    HW2 1189   0.190   0.983   3.630
  390SOL     OW 1190   0.672   0.203   3.351
  390SOL    HW1 1191   0.762   0.187   3.311
  390SOL    HW2 1192   0.680   0.208   3.450
  391SOL     OW 1193   0.075   0.345   1.895
  391SOL    HW1 1194  -0.017   0.317   1.866
  391SOL    HW2 1195   0.106   0.422   1.839
  392SOL     OW 1196   1.440   0.856   3.260
  392SOL    HW1 1197   1.383   0.908   3.197
  392SOL    HW2 1198   1.536   0.868   3.236
  393SOL     OW 1199   0.072   0.166   2.180
  393SOL    HW1 1200   0.055   0.249   2.126
  393SOL    HW2 1201   0.162   0.129   2.158
  394SOL     OW 1202   1.183   1.335   1.981
  394SOL    HW1 1203   1.084   1.324   1.983
  394SOL    HW2 1204   1.217   1.350   2.074
  395SOL     OW 1205   0.613   0.842   3.293
  395SOL    HW1 1206   0.669   0.923   3.276
  395SOL    HW2 1207   0.672   0.762   3.296
  396SOL     OW 1208   1.493   1.767   2.821
  396SOL    HW1 1209   1.526   1.831   2.752
  396SOL    HW2 1210   1.559   1.761   2.896
  397SOL     OW 1211   0.716   0.565   3.570
  397SOL    HW1 1212   0.735   0.630   3.644
  397SOL    HW2 1213   0.776   0.485   3.579
  398SOL     OW 1214   1.450   1.220   3.495
  398SOL    HW1 1215   1.441   1.210   3.594
  398SOL    HW2 1216   1.546   1.213   3.469
  399SOL     OW 1217   0.390   1.741   3.422
  399SOL    HW1 1218   0.299   1.782   3.420
  399SOL    HW2 1219   0.383   1.647   3.454
  400SOL     OW 1220   1.674   0.883   3.116
  400SOL    HW1 1221   1.647   0.794   3.079
  400SOL    HW2 1222   1.675   0.951   3.043
  401SOL     OW 1223   1.225   0.325   2.311
  401SOL    HW1 1224   1.290   0.251   2.300
  401SOL    HW2 1225   1.245   0.375   2.395
  402SOL     OW 1226   0.594   0.745   2.514
  402SOL    HW1 1227   0.644   0.830   2.495
  402SOL    HW2 1228   0.506   0.747   2.466
  403SOL     OW 1229   1.777   0.342   3.504
  403SOL    HW1 1230   1.760   0.373   3.410
  403SOL    HW2 1231   1.693   0.305   3.542
  404SOL     OW 1232   1.730   0.934   3.379
  404SOL    HW1 1233   1.768   1.025   3.394
  404SOL    HW2 1234   1.722   0.917   3.280
  405SOL     OW 1235   0.859   1.374   1.878
  405SOL    HW1 1236   0.813   1.389   1.966
  405SOL    HW2 1237   0.903   1.459   1.848
  406SOL     OW 1238   0.661   1.790   2.815
  406SOL    HW1 1239   0.615   1.878   2.802
  406SOL    HW2 1240   0.760   1.802   2.808
  407SOL     OW 1241   0.859   0.956   2.723
  407SOL    HW1 1242   0.913   0.887   2.771
  407SOL    HW2 1243   0.827   1.025   2.789
  408SOL     OW 1244   1.083   0.984   1.949
  408SOL    HW1 1245   1.060   1.037   1.867
  408SOL    HW2 1246   1.164   0.928   1.930
  409SOL     OW 1247   1.861   1.569   2.713
  409SOL    HW1 1248   1.790   1.557   2.643
  409SOL    HW2 1249   1.862   1.490   2.773
  410SOL     OW 1250   0.221   1.314   3.706
  410SOL    HW1 1251   0.156   1.241   3.685
  410SOL    HW2 1252   0.225   1.328   3.804
  411SOL     OW 1253   0.079   1.240   2.515
  411SOL    HW1 1254   0.078   1.193   2.603
  411SOL    HW2 1255   0.161   1.212   2.464
  412SOL     OW 1256   0.672   1.391   3.486
  412SOL    HW1 1257   0.594   1.341   3.524
  412SOL    HW2 1258   0.669   1.486   3.517
  413SOL     OW 1259   1.824   0.192   3.089
  413SOL    HW1 1260   1.820   0.102   3.133
  413SOL    HW2 1261   1.827   0.181   2.990
  414SOL     OW 1262   0.428   0.424   2.382
  414SOL    HW1 1263   0.458   0.352   2.320
  414SOL    HW2 1264   0.389   0.384   2.465
  415SOL     OW 1265   1.705   1.487   2.966
  415SOL    HW1 1266   1.612   1.462   2.939
  415SOL    HW2 1267   1.731   1.437   3.048
  416SOL     OW 1268   0.317   0.547   3.142
  416SOL    HW1 1269   0.355   0.488   3.214
  416SOL    HW2 1270   0.357   0.521   3.054
  417SOL     OW 1271   0.812   1.586   2.549
  417SOL    HW1 1272   0.844   1.596   2.455
  417SOL    HW2 1273   0.733   1.524   2.551
  418SOL     OW 1274   1.424   0.214   2.974
  418SOL    HW1 1275   1.476   0.149   3.029
  418SOL    HW2 1276   1.375   0.277   3.035
  419SOL     OW 1277   1.001   0.034   3.016
  419SOL    HW1 1278   0.938  -0.038   2.985
  419SOL    HW2 1279   1.094  -0.002   3.016
  420SOL     OW 1280   0.770   1.330   2.163
  420SOL    HW1 1281   0.724   1.243   2.180
  420SOL    HW2 1282   0.861   1.327   2.204
  421SOL     OW 1283   0.618   1.567   3.146
  421SOL    HW1 1284   0.613   1.649   3.203
  421SOL    HW2 1285   0.707   1.564   3.101
  422SOL     OW 1286   1.352   0.052   2.030
  422SOL    HW1 1287   1.387   0.011   1.946
  422SOL    HW2 1288   1.262   0.014   2.050
  423SOL     OW 1289   1.300   0.453   2.553
  423SOL    HW1 1290   1.241   0.533   2.557
  423SOL    HW2 1291   1.315   0.418   2.646
  424SOL     OW 1292   1.593   0.221   2.744
  424SOL    HW1 1293   1.509   0.220   2.798
  424SOL    HW2 1294   1.595   0.304   2.688
  425SOL     OW 1295   0.039   1.077   2.162
  425SOL    HW1 1296   0.138   1.066   2.153
  425SOL    HW2 1297  -0.001   0.991   2.194
  426SOL     OW 1298   0.875   1.646   2.199
  426SOL    HW1 1299   0.798   1.611   2.145
  426SOL    HW2 1300   0.843   1.717   2.261
  427SOL     OW 1301   0.230   0.628   3.837
  427SOL    HW1 1302   0.137   0.626   3.874
  427SOL    HW2 1303   0.231   0.589   3.745
  428SOL     OW 1304   0.225   0.275   4.720
  428SOL    HW1 1305   0.260   0.258   4.812
  428SOL    HW2 1306   0.137   0.230   4.708
  429SOL     OW 1307   0.019   0.368   4.371
  429SOL    HW1 1308  -0.063   0.411   4.410
  429SOL    HW2 1309  -0.009   0.295   4.308
  430SOL     OW 1310   1.555   1.511   4.427
  430SOL    HW1 1311   1.498   1.495   4.508
  430SOL    HW2 1312   1.496   1.521   4.347
  431SOL     OW 1313   1.135   0.703   4.441
  431SOL    HW1 1314   1.192   0.781   4.416
  431SOL    HW2 1315   1.075   0.729   4.517
  432SOL     OW 1316   1.755   0.607   3.955
  432SOL    HW1 1317   1.743   0.594   3.856
  432SOL    HW2 1318   1.725   0.526   4.004
  433SOL     OW 1319   0.768   1.144   4.747
  433SOL    HW1 1320   0.690   1.161   4.807
  433SOL    HW2 1321   0.802   1.231   4.711
  434SOL     OW 1322   0.685   1.012   4.389
  434SOL    HW1 1323   0.754   0.996   4.459
  434SOL    HW2 1324   0.612   1.069   4.427
  435SOL     OW 1325   0.335   1.435   4.785
  435SOL    HW1 1326   0.257   1.404   4.732
  435SOL    HW2 1327   0.393   1.493   4.728
  436SOL     OW 1328   1.603   0.447   4.461
  436SOL    HW1 1329   1.529   0.493   4.411
  436SOL    HW2 1330   1.654   0.515   4.514
  437SOL     OW 1331   0.231   1.713   4.207
  437SOL    HW1 1332   0.265   1.790   4.261
  437SOL    HW2 1333   0.275   1.713   4.117
  438SOL     OW 1334   0.230   1.434   4.262
  438SOL    HW1 1335   0.204   1.530   4.262
  438SOL    HW2 1336   0.159   1.380   4.307
  439SOL     OW 1337   0.240   1.091   4.610
  439SOL    HW1 1338   0.254   1.007   4.662
  439SOL    HW2 1339   0.185   1.155   4.665
  440SOL     OW 1340   0.606   0.964   3.847
  440SOL    HW1 1341   0.613   1.048   3.793
  440SOL    HW2 1342   0.652   0.977   3.935
  441SOL     OW 1343   0.122   0.643   4.287
  441SOL    HW1 1344   0.077   0.555   4.304
  441SOL    HW2 1345   0.121   0.697   4.371
  442SOL     OW 1346   1.842   1.767   4.083
  442SOL    HW1 1347   1.896   1.738   4.163
  442SOL    HW2 1348   1.872   1.857   4.054
  443SOL     OW 1349   0.027   1.596   3.841
  443SOL    HW1 1350   0.008   1.500   3.862
  443SOL    HW2 1351  -0.006   1.654   3.916
  444SOL     OW 1352   1.689   0.922   4.336
  444SOL    HW1 1353   1.784   0.893   4.344
  444SOL    HW2 1354   1.681   0.987   4.261
  445SOL     OW 1355   1.641   1.108   4.156
  445SOL    HW1 1356   1.727   1.110   4.104
  445SOL    HW2 1357   1.655   1.155   4.244
  446SOL     OW 1358   0.613   1.365   4.450
  446SOL    HW1 1359   0.564   1.278   4.459
  446SOL    HW2 1360   0.590   1.408   4.363
  447SOL     OW 1361   0.809   0.004   4.226
  447SOL    HW1 1362   0.849   0.095   4.217
  447SOL    HW2 1363   0.709   0.012   4.232
  448SOL     OW 1364   1.525   0.999   3.914
  448SOL    HW1 1365   1.462   0.923   3.927
  448SOL    HW2 1366   1.573   1.017   4.000
  449SOL     OW 1367   1.466   1.417   4.677
  449SOL    HW1 1368   1.407   1.423   4.757
  449SOL    HW2 1369   1.451   1.329   4.631
  450SOL     OW 1370   1.667   1.714   4.296
  450SOL    HW1 1371   1.626   1.691   4.208
  450SOL    HW2 1372   1.649   1.640   4.361
  451SOL     OW 1373   0.598   0.729   3.994
  451SOL    HW1 1374   0.622   0.798   3.926
  451SOL    HW2 1375   0.520   0.762   4.048
  452SOL     OW 1376   1.281   0.345   4.668
  452SOL    HW1 1377   1.195   0.295   4.655
  452SOL    HW2 1378   1.343   0.291   4.724
  453SOL     OW 1379   1.576   1.662   4.031
  453SOL    HW1 1380   1.665   1.708   4.034
  453SOL    HW2 1381   1.555   1.638   3.936
  454SOL     OW 1382   1.041   0.701   4.153
  454SOL    HW1 1383   1.067   0.697   4.249
  454SOL    HW2 1384   0.956   0.650   4.139
  455SOL     OW 1385   0.076   0.811   4.513
  455SOL    HW1 1386   0.175   0.799   4.522
  455SOL    HW2 1387   0.052   0.906   4.534
  456SOL     OW 1388   0.865   0.348   3.919
  456SOL    HW1 1389   0.924   0.411   3.870
  456SOL    HW2 1390   0.884   0.254   3.890
  457SOL     OW 1391   1.362   1.144   4.269
  457SOL    HW1 1392   1.445   1.115   4.221
  457SOL    HW2 1393   1.313   1.211   4.213
  458SOL     OW 1394   0.550   0.196   4.609
  458SOL    HW1 1395   0.545   0.191   4.709
  458SOL    HW2 1396   0.552   0.292   4.580
  459SOL     OW 1397   1.008   1.456   4.201
  459SOL    HW1 1398   0.962   1.528   4.149
  459SOL    HW2 1399   1.004   1.476   4.299
  460SOL     OW 1400   0.351   1.801   4.577
  460SOL    HW1 1401   0.401   1.715   4.583
  460SOL    HW2 1402   0.416   1.878   4.574
  461SOL     OW 1403   1.795   1.066   4.597
  461SOL    HW1 1404   1.733   1.051   4.521
  461SOL    HW2 1405   1.743   1.077   4.682
  462SOL     OW 1406   0.321   0.943   3.966
  462SOL    HW1 1407   0.403   0.982   3.924
  462SOL    HW2 1408   0.294   0.861   3.917
  463SOL     OW 1409   1.458   0.735   4.452
  463SOL    HW1 1410   1.453   0.670   4.527
  463SOL    HW2 1411   1.538   0.794   4.465
  464SOL     OW 1412   1.111   1.776   3.961
  464SOL    HW1 1413   1.051   1.714   4.011
  464SOL    HW2 1414   1.142   1.732   3.876
  465SOL     OW 1415   1.632   1.377   3.805
  465SOL    HW1 1416   1.600   1.471   3.795
  465SOL    HW2 1417   1.556   1.314   3.793
  466SOL     OW 1418   0.464   1.743   4.047
  466SOL    HW1 1419   0.497   1.782   4.133
  466SOL    HW2 1420   0.540   1.736   3.982
  467SOL     OW 1421   1.400   0.107   4.150
  467SOL    HW1 1422   1.376   0.070   4.060
  467SOL    HW2 1423   1.499   0.123   4.154
  468SOL     OW 1424   0.249   1.785   4.965
  468SOL    HW1 1425   0.306   1.720   5.015
  468SOL    HW2 1426   0.233   1.752   4.872
  469SOL     OW 1427   0.940   1.698   4.628
  469SOL    HW1 1428   1.020   1.641   4.649
  469SOL    HW2 1429   0.891   1.658   4.551
  470SOL     OW 1430   0.382   0.700   4.204
  470SOL    HW1 1431   0.427   0.610   4.201
  470SOL    HW2 1432   0.288   0.689   4.237
  471SOL     OW 1433   0.614   0.122   3.841
  471SOL    HW1 1434   0.712   0.100   3.848
  471SOL    HW2 1435   0.583   0.105   3.748
  472SOL     OW 1436   0.803   1.402   4.648
  472SOL    HW1 1437   0.893   1.416   4.606
  472SOL    HW2 1438   0.732   1.404   4.577
  473SOL     OW 1439   0.922   0.503   4.623
  473SOL    HW1 1440   0.897   0.494   4.527
  473SOL    HW2 1441   0.970   0.421   4.654
  474SOL     OW 1442   0.539   0.064   4.236
  474SOL    HW1 1443   0.458   0.065   4.294
  474SOL    HW2 1444   0.542   0.147   4.181
  475SOL     OW 1445   1.434   1.188   3.765
  475SOL    HW1 1446   1.466   1.112   3.822
  475SOL    HW2 1447   1.342   1.215   3.795
  476SOL     OW 1448   0.297   0.035   3.895
  476SOL    HW1 1449   0.346   0.119   3.874
  476SOL    HW2 1450   0.359  -0.030   3.940
  477SOL     OW 1451   0.935   0.236   4.204
  477SOL    HW1 1452   0.887   0.277   4.126
  477SOL    HW2 1453   1.034   0.234   4.185
  478SOL     OW 1454   1.227   1.570   4.517
  478SOL    HW1 1455   1.248   1.644   4.452
  478SOL    HW2 1456   1.295   1.570   4.590
  479SOL     OW 1457   0.459   1.152   4.465
  479SOL    HW1 1458   0.388   1.125   4.530
  479SOL    HW2 1459   0.433   1.124   4.372
  480SOL     OW 1460   1.271   1.797   4.315
  480SOL    HW1 1461   1.315   1.861   4.251
  480SOL    HW2 1462   1.221   1.849   4.385
  481SOL     OW 1463   1.032   0.549   3.740
  481SOL    HW1 1464   0.991   0.631   3.701
  481SOL    HW2 1465   1.096   0.575   3.813
  482SOL     OW 1466   0.866   0.454   4.366
  482SOL    HW1 1467   0.834   0.526   4.304
  482SOL    HW2 1468   0.890   0.373   4.313
  483SOL     OW 1469   1.017   0.039   4.477
  483SOL    HW1 1470   0.945   0.044   4.408
  483SOL    HW2 1471   0.993  -0.030   4.546
  484SOL     OW 1472   1.429   1.173   4.591
  484SOL    HW1 1473   1.374   1.089   4.584
  484SOL    HW2 1474   1.455   1.202   4.499
  485SOL     OW 1475   1.466   0.590   4.716
  485SOL    HW1 1476   1.436   0.495   4.723
  485SOL    HW2 1477   1.539   0.606   4.782
  486SOL     OW 1478   1.857   0.833   4.101
  486SOL    HW1 1479   1.899   0.769   4.165
  486SOL    HW2 1480   1.819   0.782   4.023
  487SOL     OW 1481   0.488   1.385   3.898
  487SOL    HW1 1482   0.401   1.370   3.945
  487SOL    HW2 1483   0.471   1.411   3.803
  488SOL     OW 1484   1.664   1.280   4.381
  488SOL    HW1 1485   1.763   1.288   4.395
  488SOL    HW2 1486   1.619   1.364   4.412
  489SOL     OW 1487   1.390   0.575   3.802
  489SOL    HW1 1488   1.336   0.554   3.883
  489SOL    HW2 1489   1.481   0.534   3.811
  490SOL     OW 1490   0.527   0.256   4.052
  490SOL    HW1 1491   0.554   0.197   3.977
  490SOL    HW2 1492   0.527   0.351   4.021
  491SOL     OW 1493   1.638   1.099   4.803
  491SOL    HW1 1494   1.643   1.180   4.862
  491SOL    HW2 1495   1.552   1.101   4.752
  492SOL     OW 1496   0.705   1.050   4.092
  492SOL    HW1 1497   0.691   1.057   4.191
  492SOL    HW2 1498   0.789   0.999   4.074
  493SOL     OW 1499   0.367   1.100   4.225
  493SOL    HW1 1500   0.360   1.183   4.169
  493SOL    HW2 1501   0.371   1.020   4.165
  494SOL     OW 1502   0.566   0.537   4.589
  494SOL    HW1 1503   0.578   0.603   4.515
  494SOL    HW2 1504   0.612   0.571   4.672
  495SOL     OW 1505   1.252   1.348   4.112
  495SOL    HW1 1506   1.302   1.425   4.152
  495SOL    HW2 1507   1.157   1.350   4.144
  496SOL     OW 1508   1.582   0.639   4.196
  496SOL    HW1 1509   1.551   0.700   4.269
  496SOL    HW2 1510   1.632   0.691   4.127
  497SOL     OW 1511   0.573   0.870   4.753
  497SOL    HW1 1512   0.617   0.959   4.744
  497SOL    HW2 1513   0.510   0.870   4.830
  498SOL     OW 1514   1.209   0.525   3.999
  498SOL    HW1 1515   1.222   0.441   4.053
  498SOL    HW2 1516   1.180   0.599   4.059
  499SOL     OW 1517   0.732   0.634   4.788
  499SOL    HW1 1518   0.791   0.608   4.712
  499SOL    HW2 1519   0.704   0.730   4.777
  500SOL     OW 1520   0.307   0.063   4.342
  500SOL    HW1 1521   0.296   0.157   4.375
  500SOL    HW2 1522   0.302   0.000   4.419
  501SOL     OW 1523   1.622   0.367   4.098
  501SOL    HW1 1524   1.624   0.291   4.162
  501SOL    HW2 1525   1.574   0.444   4.138
  502SOL     OW 1526   1.023   0.766   4.690
  502SOL    HW1 1527   1.038   0.787   4.786
  502SOL    HW2 1528   0.993   0.671   4.681
  503SOL     OW 1529   1.540   0.274   3.849
  503SOL    HW1 1530   1.479   0.199   3.872
  503SOL    HW2 1531   1.562   0.326   3.932
  504SOL     OW 1532   1.303   0.838   3.766
  504SOL    HW1 1533   1.337   0.745   3.781
  504SOL    HW2 1534   1.321   0.865   3.671
  505SOL     OW 1535   1.068   1.333   4.573
  505SOL    HW1 1536   1.075   1.249   4.518
  505SOL    HW2 1537   1.130   1.402   4.537
  506SOL     OW 1538   0.319   0.810   4.673
  506SOL    HW1 1539   0.412   0.846   4.678
  506SOL    HW2 1540   0.313   0.725   4.725
  507SOL     OW 1541   0.339   0.509   4.730
  507SOL    HW1 1542   0.287   0.426   4.713
  507SOL    HW2 1543   0.416   0.514   4.666
  508SOL     OW 1544   0.008   1.326   3.924
  508SOL    HW1 1545  -0.085   1.347   3.893
  508SOL    HW2 1546   0.018   1.227   3.937
  509SOL     OW 1547   0.088   1.801   4.651
  509SOL    HW1 1548   0.046   1.715   4.624
  509SOL    HW2 1549   0.182   1.804   4.617
  510SOL     OW 1550   0.504   1.568   4.634
  510SOL    HW1 1551   0.570   1.642   4.643
  510SOL    HW2 1552   0.548   1.489   4.592
  511SOL     OW 1553   1.002   0.796   4.962
  511SOL    HW1 1554   1.043   0.764   5.048
  511SOL    HW2 1555   0.906   0.769   4.959
  512SOL     OW 1556   0.815   0.572   4.049
  512SOL    HW1 1557   0.822   0.483   4.003
  512SOL    HW2 1558   0.721   0.606   4.041
  513SOL     OW 1559   0.671   0.464   4.993
  513SOL    HW1 1560   0.637   0.375   4.963
  513SOL    HW2 1561   0.697   0.518   4.913
  514SOL     OW 1562   0.473   0.500   3.915
  514SOL    HW1 1563   0.534   0.580   3.919
  514SOL    HW2 1564   0.378   0.531   3.922
  515SOL     OW 1565   1.302   0.855   4.033
  515SOL    HW1 1566   1.216   0.824   4.075
  515SOL    HW2 1567   1.298   0.841   3.934
  516SOL     OW 1568   1.759   1.747   4.878
  516SOL    HW1 1569   1.820   1.777   4.805
  516SOL    HW2 1570   1.721   1.658   4.856
  517SOL     OW 1571   0.083   1.258   4.746
  517SOL    HW1 1572   0.078   1.257   4.846
  517SOL    HW2 1573   0.000   1.217   4.708
  518SOL     OW 1574   1.726   0.135   4.247
  518SOL    HW1 1575   1.799   0.118   4.180
  518SOL    HW2 1576   1.695   0.048   4.285
  519SOL     OW 1577   1.388   1.573   4.201
  519SOL    HW1 1578   1.455   1.585   4.127
  519SOL    HW2 1579   1.348   1.662   4.224
  520SOL     OW 1580   1.280   0.927   4.396
  520SOL    HW1 1581   1.340   0.846   4.398
  520SOL    HW2 1582   1.320   0.996   4.336
  521SOL     OW 1583   0.672   1.616   3.878
  521SOL    HW1 1584   0.681   1.626   3.779
  521SOL    HW2 1585   0.632   1.527   3.899
  522SOL     OW 1586   1.841   0.175   4.687
  522SOL    HW1 1587   1.880   0.090   4.651
  522SOL    HW2 1588   1.743   0.177   4.668
  523SOL     OW 1589   0.263   0.326   4.444
  523SOL    HW1 1590   0.184   0.377   4.410
  523SOL    HW2 1591   0.254   0.311   4.542
  524SOL     OW 1592   1.194   1.612   3.755
  524SOL    HW1 1593   1.200   1.519   3.792
  524SOL    HW2 1594   1.135   1.612   3.675
  525SOL     OW 1595   0.916   0.910   4.015
  525SOL    HW1 1596   0.979   0.948   3.947
  525SOL    HW2 1597   0.956   0.827   4.054
  526SOL     OW 1598   1.504   1.607   3.768
  526SOL    HW1 1599   1.412   1.644   3.775
  526SOL    HW2 1600   1.542   1.627   3.678
  527SOL     OW 1601   1.039   1.098   4.420
  527SOL    HW1 1602   0.969   1.051   4.474
  527SOL    HW2 1603   1.098   1.030   4.377
  528SOL     OW 1604   1.014   0.236   4.695
  528SOL    HW1 1605   1.006   0.200   4.602
  528SOL    HW2 1606   1.012   0.160   4.760
  529SOL     OW 1607   0.590   1.487   4.215
  529SOL    HW1 1608   0.632   1.429   4.145
  529SOL    HW2 1609   0.546   1.566   4.171
  530SOL     OW 1610   0.255   1.348   4.014
  530SOL    HW1 1611   0.159   1.349   3.987
  530SOL    HW2 1612   0.267   1.401   4.098
  531SOL     OW 1613   0.075   0.345   3.757
  531SOL    HW1 1614  -0.017   0.317   3.728
  531SOL    HW2 1615   0.106   0.422   3.701
  532SOL     OW 1616   0.072   0.166   4.042
  532SOL    HW1 1617   0.055   0.249   3.988
  532SOL    HW2 1618   0.162   0.129   4.020
  533SOL     OW 1619   1.183   1.335   3.843
  533SOL    HW1 1620   1.084   1.324   3.845
  533SOL    HW2 1621   1.217   1.350   3.936
  534SOL     OW 1622   1.493   1.767   4.683
  534SOL    HW1 1623   1.526   1.831   4.614
  534SOL    HW2 1624   1.559   1.761   4.758
  535SOL     OW 1625   1.674   0.883   4.978
  535SOL    HW1 1626   1.647   0.794   4.941
  535SOL    HW2 1627   1.675   0.951   4.905
  536SOL     OW 1628   1.225   0.325   4.173
  536SOL    HW1 1629   1.290   0.251   4.162
  536SOL    HW2 1630   1.245   0.375   4.257
  537SOL     OW 1631   0.594   0.745   4.376
  537SOL    HW1 1632   0.644   0.830   4.357
  537SOL    HW2 1633   0.506   0.747   4.328
  538SOL     OW 1634   0.859   1.374   3.740
  538SOL    HW1 1635   0.813   1.389   3.828
  538SOL    HW2 1636   0.903   1.459   3.710
  539SOL     OW 1637   0.661   1.790   4.677
  539SOL    HW1 1638   0.615   1.878   4.664
  539SOL    HW2 1639   0.760   1.802   4.670
  540SOL     OW 1640   0.859   0.956   4.585
  540SOL    HW1 1641   0.913   0.887   4.633
  540SOL    HW2 1642   0.827   1.025   4.651
  541SOL     OW 1643   1.083   0.984   3.811
  541SOL    HW1 1644   1.060   1.037   3.729
  541SOL    HW2 1645   1.164   0.928   3.792
  542SOL     OW 1646   1.861   1.569   4.575
  542SOL    HW1 1647   1.790   1.557   4.505
  542SOL    HW2 1648   1.862   1.490   4.635
  543SOL     OW 1649   0.079   1.240   4.377
  543SOL    HW1 1650   0.078   1.193   4.465
  543SOL    HW2 1651   0.161   1.212   4.326
  544SOL     OW 1652   1.824   0.192   4.951
  544SOL    HW1 1653   1.820   0.102   4.995
  544SOL    HW2 1654   1.827   0.181   4.852
  545SOL     OW 1655   0.428   0.424   4.244
  545SOL    HW1 1656   0.458   0.352   4.182
  545SOL    HW2 1657   0.389   0.384   4.327
  546SOL     OW 1658   0.812   1.586   4.411
  546SOL    HW1 1659   0.844   1.596   4.317
  546SOL    HW2 1660   0.733   1.524   4.413
  547SOL     OW 1661   0.770   1.330   4.025
  547SOL    HW1 1662   0.724   1.243   4.042
  547SOL    HW2 1663   0.861   1.327   4.066
  548SOL     OW 1664   1.352   0.052   3.892
  548SOL    HW1 1665   1.387   0.011   3.808
  548SOL    HW2 1666   1.262   0.014   3.912
  549SOL     OW 1667   1.300   0.453   4.415
  549SOL    HW1 1668   1.241   0.533   4.419
  549SOL    HW2 1669   1.315   0.418   4.508
  550SOL     OW 1670   1.593   0.221   4.606
  550SOL    HW1 1671   1.509   0.220   4.660
  550SOL    HW2 1672   1.595   0.304   4.550
  551SOL     OW 1673   0.039   1.077   4.024
  551SOL    HW1 1674   0.138   1.066   4.015
  551SOL    HW2 1675  -0.001   0.991   4.056
  552SOL     OW 1676   0.875   1.646   4.061
  552SOL    HW1 1677   0.798   1.611   4.007
  552SOL    HW2 1678   0.843   1.717   4.123
  553SOL     OW 1679   0.230   2.490   0.113
  553SOL    HW1 1680   0.137   2.488   0.150
  553SOL    HW2 1681   0.231   2.451   0.021
  554SOL     OW 1682   0.225   2.137   0.996
  554SOL    HW1 1683   0.260   2.120   1.088
  554SOL    HW2 1684   0.137   2.092   0.984
  555SOL     OW 1685   0.019   2.230   0.647
  555SOL    HW1 1686  -0.063   2.273   0.686
  555SOL    HW2 1687  -0.009   2.157   0.584
  556SOL     OW 1688   0.569   3.137   1.165
  556SOL    HW1 1689   0.476   3.130   1.128
  556SOL    HW2 1690   0.580   3.226   1.209
  557SOL     OW 1691   1.555   3.373   0.703
  557SOL    HW1 1692   1.498   3.357   0.784
  557SOL    HW2 1693   1.496   3.383   0.623
  558SOL     OW 1694   1.135   2.565   0.717
  558SOL    HW1 1695   1.192   2.643   0.692
  558SOL    HW2 1696   1.075   2.591   0.793
  559SOL     OW 1697   1.755   2.469   0.231
  559SOL    HW1 1698   1.743   2.456   0.132
  559SOL    HW2 1699   1.725   2.388   0.280
  560SOL     OW 1700   0.768   3.006   1.023
  560SOL    HW1 1701   0.690   3.023   1.083
  560SOL    HW2 1702   0.802   3.093   0.987
  561SOL     OW 1703   0.850   2.660   1.823
  561SOL    HW1 1704   0.846   2.736   1.888
  561SOL    HW2 1705   0.872   2.696   1.732
  562SOL     OW 1706   0.685   2.874   0.665
  562SOL    HW1 1707   0.754   2.858   0.735
  562SOL    HW2 1708   0.612   2.931   0.703
  563SOL     OW 1709   0.686   3.023   1.803
  563SOL    HW1 1710   0.746   3.102   1.817
  563SOL    HW2 1711   0.600   3.054   1.762
  564SOL     OW 1712   0.335   3.297   1.061
  564SOL    HW1 1713   0.257   3.266   1.008
  564SOL    HW2 1714   0.393   3.355   1.004
  565SOL     OW 1715   1.460   3.367   1.339
  565SOL    HW1 1716   1.484   3.461   1.365
  565SOL    HW2 1717   1.444   3.313   1.421
  566SOL     OW 1718   0.438   2.254   1.499
  566SOL    HW1 1719   0.520   2.198   1.508
  566SOL    HW2 1720   0.357   2.196   1.503
  567SOL     OW 1721   1.603   2.309   0.737
  567SOL    HW1 1722   1.529   2.355   0.687
  567SOL    HW2 1723   1.654   2.377   0.790
  568SOL     OW 1724   0.231   3.575   0.483
  568SOL    HW1 1725   0.265   3.652   0.537
  568SOL    HW2 1726   0.275   3.575   0.393
  569SOL     OW 1727   1.127   3.203   1.690
  569SOL    HW1 1728   1.174   3.203   1.778
  569SOL    HW2 1729   1.079   3.116   1.679
  570SOL     OW 1730   0.230   3.296   0.538
  570SOL    HW1 1731   0.204   3.392   0.538
  570SOL    HW2 1732   0.159   3.242   0.583
  571SOL     OW 1733   0.240   2.953   0.886
  571SOL    HW1 1734   0.254   2.869   0.938
  571SOL    HW2 1735   0.185   3.017   0.941
  572SOL     OW 1736   0.620   3.648   1.439
  572SOL    HW1 1737   0.528   3.631   1.474
  572SOL    HW2 1738   0.648   3.740   1.465
  573SOL     OW 1739   0.606   2.826   0.123
  573SOL    HW1 1740   0.613   2.910   0.069
  573SOL    HW2 1741   0.652   2.839   0.211
  574SOL     OW 1742   1.594   1.976   1.480
  574SOL    HW1 1743   1.576   2.043   1.408
  574SOL    HW2 1744   1.591   2.022   1.569
  575SOL     OW 1745   0.122   2.505   0.563
  575SOL    HW1 1746   0.077   2.417   0.580
  575SOL    HW2 1747   0.121   2.559   0.647
  576SOL     OW 1748   1.842   3.629   0.359
  576SOL    HW1 1749   1.896   3.600   0.439
  576SOL    HW2 1750   1.872   3.719   0.330
  577SOL     OW 1751   0.027   3.458   0.117
  577SOL    HW1 1752   0.008   3.362   0.138
  577SOL    HW2 1753  -0.006   3.516   0.192
  578SOL     OW 1754   1.689   2.784   0.612
  578SOL    HW1 1755   1.784   2.755   0.620
  578SOL    HW2 1756   1.681   2.849   0.537
  579SOL     OW 1757   1.641   2.970   0.432
  579SOL    HW1 1758   1.727   2.972   0.380
  579SOL    HW2 1759   1.655   3.017   0.520
  580SOL     OW 1760   0.113   2.599   1.597
  580SOL    HW1 1761   0.201   2.586   1.642
  580SOL    HW2 1762   0.100   2.696   1.575
  581SOL     OW 1763   0.613   3.227   0.726
  581SOL    HW1 1764   0.564   3.140   0.735
  581SOL    HW2 1765   0.590   3.270   0.639
  582SOL     OW 1766   1.293   3.090   1.423
  582SOL    HW1 1767   1.330   3.017   1.365
  582SOL    HW2 1768   1.345   3.095   1.508
  583SOL     OW 1769   0.809   1.866   0.502
  583SOL    HW1 1770   0.849   1.957   0.493
  583SOL    HW2 1771   0.709   1.874   0.508
  584SOL     OW 1772   0.197   2.838   1.264
  584SOL    HW1 1773   0.286   2.793   1.250
  584SOL    HW2 1774   0.124   2.773   1.245
  585SOL     OW 1775   1.525   2.861   0.190
  585SOL    HW1 1776   1.462   2.785   0.203
  585SOL    HW2 1777   1.573   2.879   0.276
  586SOL     OW 1778   1.187   3.654   1.616
  586SOL    HW1 1779   1.211   3.714   1.540
  586SOL    HW2 1780   1.194   3.559   1.586
  587SOL     OW 1781   0.317   2.113   1.801
  587SOL    HW1 1782   0.388   2.184   1.807
  587SOL    HW2 1783   0.229   2.152   1.829
  588SOL     OW 1784   1.466   3.279   0.953
  588SOL    HW1 1785   1.407   3.285   1.033
  588SOL    HW2 1786   1.451   3.191   0.907
  589SOL     OW 1787   1.667   3.576   0.572
  589SOL    HW1 1788   1.626   3.553   0.484
  589SOL    HW2 1789   1.649   3.502   0.637
  590SOL     OW 1790   0.598   2.591   0.270
  590SOL    HW1 1791   0.622   2.660   0.202
  590SOL    HW2 1792   0.520   2.624   0.324
  591SOL     OW 1793   1.281   2.207   0.944
  591SOL    HW1 1794   1.195   2.157   0.931
  591SOL    HW2 1795   1.343   2.153   1.000
  592SOL     OW 1796   1.576   3.524   0.307
  592SOL    HW1 1797   1.665   3.570   0.310
  592SOL    HW2 1798   1.555   3.500   0.212
  593SOL     OW 1799   0.807   2.467   1.465
  593SOL    HW1 1800   0.760   2.464   1.554
  593SOL    HW2 1801   0.756   2.412   1.399
  594SOL     OW 1802   1.394   2.331   1.674
  594SOL    HW1 1803   1.374   2.374   1.762
  594SOL    HW2 1804   1.472   2.269   1.683
  595SOL     OW 1805   0.973   2.752   1.572
  595SOL    HW1 1806   1.019   2.668   1.543
  595SOL    HW2 1807   0.917   2.786   1.497
  596SOL     OW 1808   0.991   2.272   1.242
  596SOL    HW1 1809   0.914   2.306   1.296
  596SOL    HW2 1810   0.957   2.221   1.163
  597SOL     OW 1811   1.041   2.563   0.429
  597SOL    HW1 1812   1.067   2.559   0.525
  597SOL    HW2 1813   0.956   2.512   0.415
  598SOL     OW 1814   0.076   2.673   0.789
  598SOL    HW1 1815   0.175   2.661   0.798
  598SOL    HW2 1816   0.052   2.768   0.810
  599SOL     OW 1817   0.130   3.683   1.571
  599SOL    HW1 1818   0.120   3.668   1.670
  599SOL    HW2 1819   0.044   3.719   1.535
  600SOL     OW 1820   0.865   2.210   0.195
  600SOL    HW1 1821   0.924   2.273   0.146
  600SOL    HW2 1822   0.884   2.116   0.166
  601SOL     OW 1823   1.719   2.447   1.831
  601SOL    HW1 1824   1.693   2.536   1.795
  601SOL    HW2 1825   1.717   2.379   1.758
  602SOL     OW 1826   1.362   3.006   0.545
  602SOL    HW1 1827   1.445   2.977   0.497
  602SOL    HW2 1828   1.313   3.073   0.489
  603SOL     OW 1829   0.550   2.058   0.885
  603SOL    HW1 1830   0.545   2.053   0.985
  603SOL    HW2 1831   0.552   2.154   0.856
  604SOL     OW 1832   1.008   3.318   0.477
  604SOL    HW1 1833   0.962   3.390   0.425
  604SOL    HW2 1834   1.004   3.338   0.575
  605SOL     OW 1835   0.351   3.663   0.853
  605SOL    HW1 1836   0.401   3.577   0.859
  605SOL    HW2 1837   0.416   3.740   0.850
  606SOL     OW 1838   1.795   2.928   0.873
  606SOL    HW1 1839   1.733   2.913   0.797
  606SOL    HW2 1840   1.743   2.939   0.958
  607SOL     OW 1841   1.227   3.412   1.506
  607SOL    HW1 1842   1.233   3.335   1.570
  607SOL    HW2 1843   1.175   3.386   1.426
  608SOL     OW 1844   0.321   2.805   0.242
  608SOL    HW1 1845   0.403   2.844   0.200
  608SOL    HW2 1846   0.294   2.723   0.193
  609SOL     OW 1847   1.458   2.597   0.728
  609SOL    HW1 1848   1.453   2.532   0.803
  609SOL    HW2 1849   1.538   2.656   0.741
  610SOL     OW 1850   0.461   3.128   1.727
  610SOL    HW1 1851   0.411   3.129   1.641
  610SOL    HW2 1852   0.398   3.110   1.803
  611SOL     OW 1853   1.111   3.638   0.237
  611SOL    HW1 1854   1.051   3.576   0.287
  611SOL    HW2 1855   1.142   3.594   0.152
  612SOL     OW 1856   0.202   2.147   1.498
  612SOL    HW1 1857   0.122   2.207   1.485
  612SOL    HW2 1858   0.192   2.098   1.584
  613SOL     OW 1859   1.632   3.239   0.081
  613SOL    HW1 1860   1.600   3.333   0.071
  613SOL    HW2 1861   1.556   3.176   0.069
  614SOL     OW 1862   0.464   3.605   0.323
  614SOL    HW1 1863   0.497   3.644   0.409
  614SOL    HW2 1864   0.540   3.598   0.258
  615SOL     OW 1865   1.400   1.969   0.426
  615SOL    HW1 1866   1.376   1.932   0.336
  615SOL    HW2 1867   1.499   1.985   0.430
  616SOL     OW 1868   0.249   3.647   1.241
  616SOL    HW1 1869   0.306   3.582   1.291
  616SOL    HW2 1870   0.233   3.614   1.148
  617SOL     OW 1871   0.940   3.560   0.904
  617SOL    HW1 1872   1.020   3.503   0.925
  617SOL    HW2 1873   0.891   3.520   0.827
  618SOL     OW 1874   0.382   2.562   0.480
  618SOL    HW1 1875   0.427   2.472   0.477
  618SOL    HW2 1876   0.288   2.551   0.513
  619SOL     OW 1877   1.547   2.084   1.729
  619SOL    HW1 1878   1.542   2.121   1.821
  619SOL    HW2 1879   1.475   2.015   1.717
  620SOL     OW 1880   0.614   1.984   0.117
  620SOL    HW1 1881   0.712   1.962   0.124
  620SOL    HW2 1882   0.583   1.967   0.024
  621SOL     OW 1883   0.781   2.126   1.749
  621SOL    HW1 1884   0.848   2.065   1.792
  621SOL    HW2 1885   0.708   2.145   1.814
  622SOL     OW 1886   0.888   3.376   1.195
  622SOL    HW1 1887   0.865   3.351   1.101
  622SOL    HW2 1888   0.949   3.307   1.234
  623SOL     OW 1889   1.351   2.452   1.433
  623SOL    HW1 1890   1.379   2.409   1.518
  623SOL    HW2 1891   1.376   2.548   1.434
  624SOL     OW 1892   0.803   3.264   0.924
  624SOL    HW1 1893   0.893   3.278   0.882
  624SOL    HW2 1894   0.732   3.266   0.853
  625SOL     OW 1895   0.922   2.365   0.899
  625SOL    HW1 1896   0.897   2.356   0.803
  625SOL    HW2 1897   0.970   2.283   0.930
  626SOL     OW 1898   0.539   1.926   0.512
  626SOL    HW1 1899   0.458   1.927   0.570
  626SOL    HW2 1900   0.542   2.009   0.457
  627SOL     OW 1901   1.434   3.050   0.041
  627SOL    HW1 1902   1.466   2.974   0.098
  627SOL    HW2 1903   1.342   3.077   0.071
  628SOL     OW 1904   0.935   2.098   0.480
  628SOL    HW1 1905   0.887   2.139   0.402
  628SOL    HW2 1906   1.034   2.096   0.461
  629SOL     OW 1907   1.076   2.545   1.464
  629SOL    HW1 1908   0.996   2.484   1.467
  629SOL    HW2 1909   1.157   2.492   1.440
  630SOL     OW 1910   1.227   3.432   0.793
  630SOL    HW1 1911   1.248   3.506   0.728
  630SOL    HW2 1912   1.295   3.432   0.866
  631SOL     OW 1913   0.459   3.014   0.741
  631SOL    HW1 1914   0.388   2.987   0.806
  631SOL    HW2 1915   0.433   2.986   0.648
  632SOL     OW 1916   1.271   3.659   0.591
  632SOL    HW1 1917   1.315   3.723   0.527
  632SOL    HW2 1918   1.221   3.711   0.661
  633SOL     OW 1919   1.032   2.411   0.016
  633SOL    HW1 1920   0.991   2.493  -0.023
  633SOL    HW2 1921   1.096   2.437   0.089
  634SOL     OW 1922   0.078   2.418   1.386
  634SOL    HW1 1923   0.170   2.417   1.345
  634SOL    HW2 1924   0.072   2.492   1.453
  635SOL     OW 1925   0.561   2.084   1.147
  635SOL    HW1 1926   0.599   2.000   1.184
  635SOL    HW2 1927   0.473   2.103   1.191
  636SOL     OW 1928   0.866   2.316   0.642
  636SOL    HW1 1929   0.834   2.388   0.580
  636SOL    HW2 1930   0.890   2.235   0.589
  637SOL     OW 1931   1.017   1.901   0.753
  637SOL    HW1 1932   0.945   1.906   0.684
  637SOL    HW2 1933   0.993   1.832   0.822
  638SOL     OW 1934   1.429   3.035   0.867
  638SOL    HW1 1935   1.374   2.951   0.860
  638SOL    HW2 1936   1.455   3.064   0.775
  639SOL     OW 1937   1.466   2.452   0.992
  639SOL    HW1 1938   1.436   2.357   0.999
  639SOL    HW2 1939   1.539   2.468   1.058
  640SOL     OW 1940   1.857   2.695   0.377
  640SOL    HW1 1941   1.899   2.631   0.441
  640SOL    HW2 1942   1.819   2.644   0.299
  641SOL     OW 1943   0.488   3.247   0.174
  641SOL    HW1 1944   0.401   3.232   0.221
  641SOL    HW2 1945   0.471   3.273   0.079
  642SOL     OW 1946   1.664   3.142   0.657
  642SOL    HW1 1947   1.763   3.150   0.671
  642SOL    HW2 1948   1.619   3.226   0.688
  643SOL     OW 1949   1.390   2.437   0.078
  643SOL    HW1 1950   1.336   2.416   0.159
  643SOL    HW2 1951   1.481   2.396   0.087
  644SOL     OW 1952   0.527   2.118   0.328
  644SOL    HW1 1953   0.554   2.059   0.253
  644SOL    HW2 1954   0.527   2.213   0.297
  645SOL     OW 1955   1.754   3.085   1.588
  645SOL    HW1 1956   1.845   3.046   1.575
  645SOL    HW2 1957   1.762   3.181   1.612
  646SOL     OW 1958   1.064   3.209   1.340
  646SOL    HW1 1959   0.984   3.186   1.395
  646SOL    HW2 1960   1.147   3.183   1.389
  647SOL     OW 1961   1.592   3.491   1.625
  647SOL    HW1 1962   1.619   3.525   1.535
  647SOL    HW2 1963   1.671   3.453   1.671
  648SOL     OW 1964   1.111   3.057   1.100
  648SOL    HW1 1965   1.071   3.101   1.181
  648SOL    HW2 1966   1.070   3.094   1.017
  649SOL     OW 1967   1.638   2.961   1.079
  649SOL    HW1 1968   1.643   3.042   1.138
  649SOL    HW2 1969   1.552   2.963   1.028
  650SOL     OW 1970   0.915   1.951   1.402
  650SOL    HW1 1971   0.940   1.931   1.307
  650SOL    HW2 1972   0.987   2.007   1.444
  651SOL     OW 1973   0.980   2.978   1.719
  651SOL    HW1 1974   0.881   2.984   1.729
  651SOL    HW2 1975   1.003   2.898   1.663
  652SOL     OW 1976   0.705   2.912   0.368
  652SOL    HW1 1977   0.691   2.919   0.467
  652SOL    HW2 1978   0.789   2.861   0.350
  653SOL     OW 1979   0.410   2.675   1.251
  653SOL    HW1 1980   0.496   2.687   1.301
  653SOL    HW2 1981   0.368   2.588   1.278
  654SOL     OW 1982   1.274   2.248   1.262
  654SOL    HW1 1983   1.295   2.322   1.326
  654SOL    HW2 1984   1.185   2.265   1.219
  655SOL     OW 1985   0.064   3.426   1.331
  655SOL    HW1 1986   0.018   3.508   1.297
  655SOL    HW2 1987   0.162   3.445   1.340
  656SOL     OW 1988   0.367   2.962   0.501
  656SOL    HW1 1989   0.360   3.045   0.445
  656SOL    HW2 1990   0.371   2.882   0.441
  657SOL     OW 1991   0.566   2.399   0.865
  657SOL    HW1 1992   0.578   2.465   0.791
  657SOL    HW2 1993   0.612   2.433   0.948
  658SOL     OW 1994   1.252   3.210   0.388
  658SOL    HW1 1995   1.302   3.287   0.428
  658SOL    HW2 1996   1.157   3.212   0.420
  659SOL     OW 1997   1.272   3.307   1.142
  659SOL    HW1 1998   1.319   3.320   1.229
  659SOL    HW2 1999   1.206   3.233   1.151
  660SOL     OW 2000   1.582   2.501   0.472
  660SOL    HW1 2001   1.551   2.562   0.545
  660SOL    HW2 2002   1.632   2.553   0.403
  661SOL     OW 2003   0.354   3.372   1.329
  661SOL    HW1 2004   0.333   3.328   1.242
  661SOL    HW2 2005   0.451   3.398   1.332
  662SOL     OW 2006   0.402   2.613   1.598
  662SOL    HW1 2007   0.470   2.668   1.551
  662SOL    HW2 2008   0.442   2.525   1.625
  663SOL     OW 2009   1.587   2.641   1.670
  663SOL    HW1 2010   1.495   2.679   1.665
  663SOL    HW2 2011   1.647   2.688   1.605
  664SOL     OW 2012   1.013   1.967   1.770
  664SOL    HW1 2013   1.019   2.052   1.718
  664SOL    HW2 2014   1.045   1.891   1.713
  665SOL     OW 2015   0.504   1.912   1.740
  665SOL    HW1 2016   0.462   1.855   1.670
  665SOL    HW2 2017   0.438   1.981   1.772
  666SOL     OW 2018   0.573   2.732   1.029
  666SOL    HW1 2019   0.617   2.821   1.020
  666SOL    HW2 2020   0.510   2.732   1.106
  667SOL     OW 2021   1.360   2.724   1.045
  667SOL    HW1 2022   1.285   2.724   0.979
  667SOL    HW2 2023   1.397   2.632   1.054
  668SOL     OW 2024   1.209   2.387   0.275
  668SOL    HW1 2025   1.222   2.303   0.329
  668SOL    HW2 2026   1.180   2.461   0.335
  669SOL     OW 2027   0.307   2.075   1.231
  669SOL    HW1 2028   0.284   2.112   1.321
  669SOL    HW2 2029   0.277   1.980   1.225
  670SOL     OW 2030   0.037   3.172   1.282
  670SOL    HW1 2031   0.090   3.123   1.350
  670SOL    HW2 2032   0.059   3.270   1.287
  671SOL     OW 2033   0.732   2.496   1.064
  671SOL    HW1 2034   0.791   2.470   0.988
  671SOL    HW2 2035   0.704   2.592   1.053
  672SOL     OW 2036   1.728   2.797   1.854
  672SOL    HW1 2037   1.682   2.790   1.765
  672SOL    HW2 2038   1.666   2.841   1.920
  673SOL     OW 2039   0.307   1.925   0.618
  673SOL    HW1 2040   0.296   2.019   0.651
  673SOL    HW2 2041   0.302   1.862   0.695
  674SOL     OW 2042   1.622   2.229   0.374
  674SOL    HW1 2043   1.624   2.153   0.438
  674SOL    HW2 2044   1.574   2.306   0.414
  675SOL     OW 2045   1.023   2.628   0.966
  675SOL    HW1 2046   1.038   2.649   1.062
  675SOL    HW2 2047   0.993   2.533   0.957
  676SOL     OW 2048   0.980   3.435   1.700
  676SOL    HW1 2049   0.960   3.479   1.612
  676SOL    HW2 2050   1.019   3.344   1.684
  677SOL     OW 2051   1.859   3.380   1.605
  677SOL    HW1 2052   1.873   3.407   1.510
  677SOL    HW2 2053   1.942   3.402   1.658
  678SOL     OW 2054   0.350   2.760   1.804
  678SOL    HW1 2055   0.426   2.804   1.852
  678SOL    HW2 2056   0.385   2.713   1.722
  679SOL     OW 2057   1.540   2.136   0.125
  679SOL    HW1 2058   1.479   2.061   0.148
  679SOL    HW2 2059   1.562   2.188   0.208
  680SOL     OW 2060   1.303   2.700   0.042
  680SOL    HW1 2061   1.337   2.607   0.057
  680SOL    HW2 2062   1.321   2.727  -0.053
  681SOL     OW 2063   1.068   3.195   0.849
  681SOL    HW1 2064   1.075   3.111   0.794
  681SOL    HW2 2065   1.130   3.264   0.813
  682SOL     OW 2066   0.319   2.672   0.949
  682SOL    HW1 2067   0.412   2.708   0.954
  682SOL    HW2 2068   0.313   2.587   1.001
  683SOL     OW 2069   0.339   2.371   1.006
  683SOL    HW1 2070   0.287   2.288   0.989
  683SOL    HW2 2071   0.416   2.376   0.942
  684SOL     OW 2072   1.138   2.242   1.678
  684SOL    HW1 2073   1.093   2.305   1.742
  684SOL    HW2 2074   1.231   2.273   1.661
  685SOL     OW 2075   1.160   2.069   1.477
  685SOL    HW1 2076   1.160   2.133   1.554
  685SOL    HW2 2077   1.188   2.117   1.394
  686SOL     OW 2078   0.008   3.188   0.200
  686SOL    HW1 2079  -0.085   3.209   0.169
  686SOL    HW2 2080   0.018   3.089   0.213
  687SOL     OW 2081   0.088   3.663   0.927
  687SOL    HW1 2082   0.046   3.577   0.900
  687SOL    HW2 2083   0.182   3.666   0.893
  688SOL     OW 2084   0.504   3.430   0.910
  688SOL    HW1 2085   0.570   3.504   0.919
  688SOL    HW2 2086   0.548   3.351   0.868
  689SOL     OW 2087   1.002   2.658   1.238
  689SOL    HW1 2088   1.043   2.626   1.324
  689SOL    HW2 2089   0.906   2.631   1.235
  690SOL     OW 2090   0.040   2.406   1.114
  690SOL    HW1 2091   0.125   2.373   1.073
  690SOL    HW2 2092   0.053   2.421   1.212
  691SOL     OW 2093   0.189   2.382   1.722
  691SOL    HW1 2094   0.248   2.342   1.652
  691SOL    HW2 2095   0.131   2.453   1.681
  692SOL     OW 2096   1.369   2.812   1.660
  692SOL    HW1 2097   1.408   2.901   1.680
  692SOL    HW2 2098   1.379   2.792   1.563
  693SOL     OW 2099   0.815   2.434   0.325
  693SOL    HW1 2100   0.822   2.345   0.279
  693SOL    HW2 2101   0.721   2.468   0.317
  694SOL     OW 2102   1.657   2.466   1.206
  694SOL    HW1 2103   1.619   2.397   1.268
  694SOL    HW2 2104   1.739   2.430   1.162
  695SOL     OW 2105   0.252   3.426   1.744
  695SOL    HW1 2106   0.222   3.483   1.820
  695SOL    HW2 2107   0.245   3.329   1.770
  696SOL     OW 2108   0.671   2.326   1.269
  696SOL    HW1 2109   0.637   2.237   1.239
  696SOL    HW2 2110   0.697   2.380   1.189
  697SOL     OW 2111   0.930   3.540   1.465
  697SOL    HW1 2112   0.906   3.522   1.370
  697SOL    HW2 2113   0.960   3.634   1.475
  698SOL     OW 2114   0.473   2.362   0.191
  698SOL    HW1 2115   0.534   2.442   0.195
  698SOL    HW2 2116   0.378   2.393   0.198
  699SOL     OW 2117   0.159   2.999   1.466
  699SOL    HW1 2118   0.181   2.938   1.542
  699SOL    HW2 2119   0.169   2.950   1.380
  700SOL     OW 2120   1.347   2.921   1.234
  700SOL    HW1 2121   1.371   2.858   1.160
  700SOL    HW2 2122   1.257   2.961   1.216
  701SOL     OW 2123   1.302   2.717   0.309
  701SOL    HW1 2124   1.216   2.686   0.351
  701SOL    HW2 2125   1.298   2.703   0.210
  702SOL     OW 2126   1.759   3.609   1.154
  702SOL    HW1 2127   1.820   3.639   1.081
  702SOL    HW2 2128   1.721   3.520   1.132
  703SOL     OW 2129   1.252   3.593   1.128
  703SOL    HW1 2130   1.336   3.598   1.074
  703SOL    HW2 2131   1.229   3.497   1.146
  704SOL     OW 2132   0.083   3.120   1.022
  704SOL    HW1 2133   0.078   3.119   1.122
  704SOL    HW2 2134   0.000   3.079   0.984
  705SOL     OW 2135   0.688   3.524   1.716
  705SOL    HW1 2136   0.632   3.605   1.725
  705SOL    HW2 2137   0.740   3.528   1.630
  706SOL     OW 2138   0.903   1.948   0.133
  706SOL    HW1 2139   0.954   1.949   0.047
  706SOL    HW2 2140   0.959   1.906   0.204
  707SOL     OW 2141   1.726   1.997   0.523
  707SOL    HW1 2142   1.799   1.980   0.456
  707SOL    HW2 2143   1.695   1.910   0.561
  708SOL     OW 2144   1.388   3.435   0.477
  708SOL    HW1 2145   1.455   3.447   0.403
  708SOL    HW2 2146   1.348   3.524   0.500
  709SOL     OW 2147   0.130   3.656   1.851
  709SOL    HW1 2148   0.089   3.582   1.904
  709SOL    HW2 2149   0.194   3.707   1.909
  710SOL     OW 2150   1.280   2.789   0.672
  710SOL    HW1 2151   1.340   2.708   0.674
  710SOL    HW2 2152   1.320   2.858   0.612
  711SOL     OW 2153   0.830   3.135   1.422
  711SOL    HW1 2154   0.825   3.168   1.517
  711SOL    HW2 2155   0.744   3.154   1.376
  712SOL     OW 2156   0.672   3.478   0.154
  712SOL    HW1 2157   0.681   3.488   0.055
  712SOL    HW2 2158   0.632   3.389   0.175
  713SOL     OW 2159   1.650   3.582   1.394
  713SOL    HW1 2160   1.703   3.592   1.310
  713SOL    HW2 2161   1.623   3.672   1.428
  714SOL     OW 2162   1.841   2.037   0.963
  714SOL    HW1 2163   1.880   1.952   0.927
  714SOL    HW2 2164   1.743   2.039   0.944
  715SOL     OW 2165   0.263   2.188   0.720
  715SOL    HW1 2166   0.184   2.239   0.686
  715SOL    HW2 2167   0.254   2.173   0.818
  716SOL     OW 2168   1.194   3.474   0.031
  716SOL    HW1 2169   1.200   3.381   0.068
  716SOL    HW2 2170   1.135   3.474  -0.049
  717SOL     OW 2171   0.822   2.864   1.372
  717SOL    HW1 2172   0.862   2.863   1.280
  717SOL    HW2 2173   0.832   2.956   1.412
  718SOL     OW 2174   0.916   2.772   0.291
  718SOL    HW1 2175   0.979   2.810   0.223
  718SOL    HW2 2176   0.956   2.689   0.330
  719SOL     OW 2177   1.504   3.469   0.044
  719SOL    HW1 2178   1.412   3.506   0.051
  719SOL    HW2 2179   1.542   3.489  -0.046
  720SOL     OW 2180   0.372   3.150   1.490
  720SOL    HW1 2181   0.359   3.243   1.456
  720SOL    HW2 2182   0.288   3.098   1.477
  721SOL     OW 2183   1.614   3.154   1.289
  721SOL    HW1 2184   1.674   3.157   1.369
  721SOL    HW2 2185   1.539   3.218   1.302
  722SOL     OW 2186   1.039   2.960   0.696
  722SOL    HW1 2187   0.969   2.913   0.750
  722SOL    HW2 2188   1.098   2.892   0.653
  723SOL     OW 2189   1.014   2.098   0.971
  723SOL    HW1 2190   1.006   2.062   0.878
  723SOL    HW2 2191   1.012   2.022   1.036
  724SOL     OW 2192   0.590   3.349   0.491
  724SOL    HW1 2193   0.632   3.291   0.421
  724SOL    HW2 2194   0.546   3.428   0.447
  725SOL     OW 2195   1.709   2.247   1.381
  725SOL    HW1 2196   1.782   2.316   1.385
  725SOL    HW2 2197   1.737   2.172   1.322
  726SOL     OW 2198   0.255   3.210   0.290
  726SOL    HW1 2199   0.159   3.211   0.263
  726SOL    HW2 2200   0.267   3.263   0.374
  727SOL     OW 2201   0.105   2.875   1.726
  727SOL    HW1 2202   0.028   2.842   1.780
  727SOL    HW2 2203   0.190   2.845   1.768
  728SOL     OW 2204   0.672   2.065   1.489
  728SOL    HW1 2205   0.762   2.049   1.449
  728SOL    HW2 2206   0.680   2.070   1.588
  729SOL     OW 2207   0.075   2.207   0.033
  729SOL    HW1 2208  -0.017   2.179   0.004
  729SOL    HW2 2209   0.106   2.284  -0.023
  730SOL     OW 2210   1.440   2.718   1.398
  730SOL    HW1 2211   1.383   2.770   1.335
  730SOL    HW2 2212   1.536   2.730   1.374
  731SOL     OW 2213   0.072   2.028   0.318
  731SOL    HW1 2214   0.055   2.111   0.264
  731SOL    HW2 2215   0.162   1.991   0.296
  732SOL     OW 2216   1.183   3.197   0.119
  732SOL    HW1 2217   1.084   3.186   0.121
  732SOL    HW2 2218   1.217   3.212   0.212
  733SOL     OW 2219   0.613   2.704   1.431
  733SOL    HW1 2220   0.669   2.785   1.414
  733SOL    HW2 2221   0.672   2.624   1.434
  734SOL     OW 2222   1.493   3.629   0.959
  734SOL    HW1 2223   1.526   3.693   0.890
  734SOL    HW2 2224   1.559   3.623   1.034
  735SOL     OW 2225   0.716   2.427   1.708
  735SOL    HW1 2226   0.735   2.492   1.782
  735SOL    HW2 2227   0.776   2.347   1.717
  736SOL     OW 2228   1.450   3.082   1.633
  736SOL    HW1 2229   1.441   3.072   1.732
  736SOL    HW2 2230   1.546   3.075   1.607
  737SOL     OW 2231   0.390   3.603   1.560
  737SOL    HW1 2232   0.299   3.644   1.558
  737SOL    HW2 2233   0.383   3.509   1.592
  738SOL     OW 2234   1.674   2.745   1.254
  738SOL    HW1 2235   1.647   2.656   1.217
  738SOL    HW2 2236   1.675   2.813   1.181
  739SOL     OW 2237   1.225   2.187   0.449
  739SOL    HW1 2238   1.290   2.113   0.438
  739SOL    HW2 2239   1.245   2.237   0.533
  740SOL     OW 2240   0.594   2.607   0.652
  740SOL    HW1 2241   0.644   2.692   0.633
  740SOL    HW2 2242   0.506   2.609   0.604
  741SOL     OW 2243   1.777   2.204   1.642
  741SOL    HW1 2244   1.760   2.235   1.548
  741SOL    HW2 2245   1.693   2.167   1.680
  742SOL     OW 2246   1.730   2.796   1.517
  742SOL    HW1 2247   1.768   2.887   1.532
  742SOL    HW2 2248   1.722   2.779   1.418
  743SOL     OW 2249   0.859   3.236   0.016
  743SOL    HW1 2250   0.813   3.251   0.104
  743SOL    HW2 2251   0.903   3.321  -0.014
  744SOL     OW 2252   0.661   3.652   0.953
  744SOL    HW1 2253   0.615   3.740   0.940
  744SOL    HW2 2254   0.760   3.664   0.946
  745SOL     OW 2255   0.859   2.818   0.861
  745SOL    HW1 2256   0.913   2.749   0.909
  745SOL    HW2 2257   0.827   2.887   0.927
  746SOL     OW 2258   1.083   2.846   0.087
  746SOL    HW1 2259   1.060   2.899   0.005
  746SOL    HW2 2260   1.164   2.790   0.068
  747SOL     OW 2261   1.861   3.431   0.851
  747SOL    HW1 2262   1.790   3.419   0.781
  747SOL    HW2 2263   1.862   3.352   0.911
  748SOL     OW 2264   0.221   3.176   1.844
  748SOL    HW1 2265   0.156   3.103   1.823
  748SOL    HW2 2266   0.225   3.190   1.942
  749SOL     OW 2267   0.079   3.102   0.653
  749SOL    HW1 2268   0.078   3.055   0.741
  749SOL    HW2 2269   0.161   3.074   0.602
  750SOL     OW 2270   0.672   3.253   1.624
  750SOL    HW1 2271   0.594   3.203   1.662
  750SOL    HW2 2272   0.669   3.348   1.655
  751SOL     OW 2273   1.824   2.054   1.227
  751SOL    HW1 2274   1.820   1.964   1.271
  751SOL    HW2 2275   1.827   2.043   1.128
  752SOL     OW 2276   0.428   2.286   0.520
  752SOL    HW1 2277   0.458   2.214   0.458
  752SOL    HW2 2278   0.389   2.246   0.603
  753SOL     OW 2279   1.705   3.349   1.104
  753SOL    HW1 2280   1.612   3.324   1.077
  753SOL    HW2 2281   1.731   3.299   1.186
  754SOL     OW 2282   0.317   2.409   1.280
  754SOL    HW1 2283   0.355   2.350   1.352
  754SOL    HW2 2284   0.357   2.383   1.192
  755SOL     OW 2285   0.812   3.448   0.687
  755SOL    HW1 2286   0.844   3.458   0.593
  755SOL    HW2 2287   0.733   3.386   0.689
  756SOL     OW 2288   1.424   2.076   1.112
  756SOL    HW1 2289   1.476   2.011   1.167
  756SOL    HW2 2290   1.375   2.139   1.173
  757SOL     OW 2291   1.001   1.896   1.154
  757SOL    HW1 2292   0.938   1.824   1.123
  757SOL    HW2 2293   1.094   1.860   1.154
  758SOL     OW 2294   0.770   3.192   0.301
  758SOL    HW1 2295   0.724   3.105   0.318
  758SOL    HW2 2296   0.861   3.189   0.342
  759SOL     OW 2297   0.618   3.429   1.284
  759SOL    HW1 2298   0.613   3.511   1.341
  759SOL    HW2 2299   0.707   3.426   1.239
  760SOL     OW 2300   1.352   1.914   0.168
  760SOL    HW1 2301   1.387   1.873   0.084
  760SOL    HW2 2302   1.262   1.876   0.188
  761SOL     OW 2303   1.300   2.315   0.691
  761SOL    HW1 2304   1.241   2.395   0.695
  761SOL    HW2 2305   1.315   2.280   0.784
  762SOL     OW 2306   1.593   2.083   0.882
  762SOL    HW1 2307   1.509   2.082   0.936
  762SOL    HW2 2308   1.595   2.166   0.826
  763SOL     OW 2309   0.039   2.939   0.300
  763SOL    HW1 2310   0.138   2.928   0.291
  763SOL    HW2 2311  -0.001   2.853   0.332
  764SOL     OW 2312   0.875   3.508   0.337
  764SOL    HW1 2313   0.798   3.473   0.283
  764SOL    HW2 2314   0.843   3.579   0.399
  765SOL     OW 2315   0.230   2.490   1.975
  765SOL    HW1 2316   0.137   2.488   2.012
  765SOL    HW2 2317   0.231   2.451   1.883
  766SOL     OW 2318   0.225   2.137   2.858
  766SOL    HW1 2319   0.260   2.120   2.950
  766SOL    HW2 2320   0.137   2.092   2.846
  767SOL     OW 2321   0.019   2.230   2.509
  767SOL    HW1 2322  -0.063   2.273   2.548
  767SOL    HW2 2323  -0.009   2.157   2.446
  768SOL     OW 2324   0.569   3.137   3.027
  768SOL    HW1 2325   0.476   3.130   2.990
  768SOL    HW2 2326   0.580   3.226   3.071
  769SOL     OW 2327   1.555   3.373   2.565
  769SOL    HW1 2328   1.498   3.357   2.646
  769SOL    HW2 2329   1.496   3.383   2.485
  770SOL     OW 2330   1.135   2.565   2.579
  770SOL    HW1 2331   1.192   2.643   2.554
  770SOL    HW2 2332   1.075   2.591   2.655
  771SOL     OW 2333   1.755   2.469   2.093
  771SOL    HW1 2334   1.743   2.456   1.994
  771SOL    HW2 2335   1.725   2.388   2.142
  772SOL     OW 2336   0.768   3.006   2.885
  772SOL    HW1 2337   0.690   3.023   2.945
  772SOL    HW2 2338   0.802   3.093   2.849
  773SOL     OW 2339   0.850   2.660   3.685
  773SOL    HW1 2340   0.846   2.736   3.750
  773SOL    HW2 2341   0.872   2.696   3.594
  774SOL     OW 2342   0.685   2.874   2.527
  774SOL    HW1 2343   0.754   2.858   2.597
  774SOL    HW2 2344   0.612   2.931   2.565
  775SOL     OW 2345   0.686   3.023   3.665
  775SOL    HW1 2346   0.746   3.102   3.679
  775SOL    HW2 2347   0.600   3.054   3.624
  776SOL     OW 2348   0.335   3.297   2.923
  776SOL    HW1 2349   0.257   3.266   2.870
  776SOL    HW2 2350   0.393   3.355   2.866
  777SOL     OW 2351   1.460   3.367   3.201
  777SOL    HW1 2352   1.484   3.461   3.227
  777SOL    HW2 2353   1.444   3.313   3.283
  778SOL     OW 2354   0.438   2.254   3.361
  778SOL    HW1 2355   0.520   2.198   3.370
  778SOL    HW2 2356   0.357   2.196   3.365
  779SOL     OW 2357   1.603   2.309   2.599
  779SOL    HW1 2358   1.529   2.355   2.549
  779SOL    HW2 2359   1.654   2.377   2.652
  780SOL     OW 2360   0.231   3.575   2.345
  780SOL    HW1 2361   0.265   3.652   2.399
  780SOL    HW2 2362   0.275   3.575   2.255
  781SOL     OW 2363   1.127   3.203   3.552
  781SOL    HW1 2364   1.174   3.203   3.640
  781SOL    HW2 2365   1.079   3.116   3.541
  782SOL     OW 2366   0.230   3.296   2.400
  782SOL    HW1 2367   0.204   3.392   2.400
  782SOL    HW2 2368   0.159   3.242   2.445
  783SOL     OW 2369   0.240   2.953   2.748
  783SOL    HW1 2370   0.254   2.869   2.800
  783SOL    HW2 2371   0.185   3.017   2.803
  784SOL     OW 2372   0.620   3.648   3.301
  784SOL    HW1 2373   0.528   3.631   3.336
  784SOL    HW2 2374   0.648   3.740   3.327
  785SOL     OW 2375   0.606   2.826   1.985
  785SOL    HW1 2376   0.613   2.910   1.931
  785SOL    HW2 2377   0.652   2.839   2.073
  786SOL     OW 2378   1.594   1.976   3.342
  786SOL    HW1 2379   1.576   2.043   3.270
  786SOL    HW2 2380   1.591   2.022   3.431
  787SOL     OW 2381   0.122   2.505   2.425
  787SOL    HW1 2382   0.077   2.417   2.442
  787SOL    HW2 2383   0.121   2.559   2.509
  788SOL     OW 2384   1.842   3.629   2.221
  788SOL    HW1 2385   1.896   3.600   2.301
  788SOL    HW2 2386   1.872   3.719   2.192
  789SOL     OW 2387   0.027   3.458   1.979
  789SOL    HW1 2388   0.008   3.362   2.000
  789SOL    HW2 2389  -0.006   3.516   2.054
  790SOL     OW 2390   1.689   2.784   2.474
  790SOL    HW1 2391   1.784   2.755   2.482
  790SOL    HW2 2392   1.681   2.849   2.399
  791SOL     OW 2393   1.641   2.970   2.294
  791SOL    HW1 2394   1.727   2.972   2.242
  791SOL    HW2 2395   1.655   3.017   2.382
  792SOL     OW 2396   0.113   2.599   3.459
  792SOL    HW1 2397   0.201   2.586   3.504
  792SOL    HW2 2398   0.100   2.696   3.437
  793SOL     OW 2399   0.613   3.227   2.588
  793SOL    HW1 2400   0.564   3.140   2.597
  793SOL    HW2 2401   0.590   3.270   2.501
  794SOL     OW 2402   1.293   3.090   3.285
  794SOL    HW1 2403   1.330   3.017   3.227
  794SOL    HW2 2404   1.345   3.095   3.370
  795SOL     OW 2405   0.809   1.866   2.364
  795SOL    HW1 2406   0.849   1.957   2.355
  795SOL    HW2 2407   0.709   1.874   2.370
  796SOL     OW 2408   0.197   2.838   3.126
  796SOL    HW1 2409   0.286   2.793   3.112
  796SOL    HW2 2410   0.124   2.773   3.107
  797SOL     OW 2411   1.525   2.861   2.052
  797SOL    HW1 2412   1.462   2.785   2.065
  797SOL    HW2 2413   1.573   2.879   2.138
  798SOL     OW 2414   1.187   3.654   3.478
  798SOL    HW1 2415   1.211   3.714   3.402
  798SOL    HW2 2416   1.194   3.559   3.448
  799SOL     OW 2417   0.317   2.113   3.663
  799SOL    HW1 2418   0.388   2.184   3.669
  799SOL    HW2 2419   0.229   2.152   3.691
  800SOL     OW 2420   1.466   3.279   2.815
  800SOL    HW1 2421   1.407   3.285   2.895
  800SOL    HW2 2422   1.451   3.191   2.769
  801SOL     OW 2423   1.667   3.576   2.434
  801SOL    HW1 2424   1.626   3.553   2.346
  801SOL    HW2 2425   1.649   3.502   2.499
  802SOL     OW 2426   0.598   2.591   2.132
  802SOL    HW1 2427   0.622   2.660   2.064
  802SOL    HW2 2428   0.520   2.624   2.186
  803SOL     OW 2429   1.281   2.207   2.806
  803SOL    HW1 2430   1.195   2.157   2.793
  803SOL    HW2 2431   1.343   2.153   2.862
  804SOL     OW 2432   1.576   3.524   2.169
  804SOL    HW1 2433   1.665   3.570   2.172
  804SOL    HW2 2434   1.555   3.500   2.074
  805SOL     OW 2435   0.807   2.467   3.327
  805SOL    HW1 2436   0.760   2.464   3.416
  805SOL    HW2 2437   0.756   2.412   3.261
  806SOL     OW 2438   1.394   2.331   3.536
  806SOL    HW1 2439   1.374   2.374   3.624
  806SOL    HW2 2440   1.472   2.269   3.545
  807SOL     OW 2441   0.973   2.752   3.434
  807SOL    HW1 2442   1.019   2.668   3.405
  807SOL    HW2 2443   0.917   2.786   3.359
  808SOL     OW 2444   0.991   2.272   3.104
  808SOL    HW1 2445   0.914   2.306   3.158
  808SOL    HW2 2446   0.957   2.221   3.025
  809SOL     OW 2447   1.041   2.563   2.291
  809SOL    HW1 2448   1.067   2.559   2.387
  809SOL    HW2 2449   0.956   2.512   2.277
  810SOL     OW 2450   0.076   2.673   2.651
  810SOL    HW1 2451   0.175   2.661   2.660
  810SOL    HW2 2452   0.052   2.768   2.672
  811SOL     OW 2453   0.130   3.683   3.433
  811SOL    HW1 2454   0.120   3.668   3.532
  811SOL    HW2 2455   0.044   3.719   3.397
  812SOL     OW 2456   0.865   2.210   2.057
  812SOL    HW1 2457   0.924   2.273   2.008
  812SOL    HW2 2458   0.884   2.116   2.028
  813SOL     OW 2459   1.719   2.447   3.693
  813SOL    HW1 2460   1.693   2.536   3.657
  813SOL    HW2 2461   1.717   2.379   3.620
  814SOL     OW 2462   1.362   3.006   2.407
  814SOL    HW1 2463   1.445   2.977   2.359
  814SOL    HW2 2464   1.313   3.073   2.351
  815SOL     OW 2465   0.550   2.058   2.747
  815SOL    HW1 2466   0.545   2.053   2.847
  815SOL    HW2 2467   0.552   2.154   2.718
  816SOL     OW 2468   1.008   3.318   2.339
  816SOL    HW1 2469   0.962   3.390   2.287
  816SOL    HW2 2470   1.004   3.338   2.437
  817SOL     OW 2471   0.351   3.663   2.715
  817SOL    HW1 2472   0.401   3.577   2.721
  817SOL    HW2 2473   0.416   3.740   2.712
  818SOL     OW 2474   1.795   2.928   2.735
  818SOL    HW1 2475   1.733   2.913   2.659
  818SOL    HW2 2476   1.743   2.939   2.820
  819SOL     OW 2477   1.227   3.412   3.368
  819SOL    HW1 2478   1.233   3.335   3.432
  819SOL    HW2 2479   1.175   3.386   3.288
  820SOL     OW 2480   0.321   2.805   2.104
  820SOL    HW1 2481   0.403   2.844   2.062
  820SOL    HW2 2482   0.294   2.723   2.055
  821SOL     OW 2483   1.458   2.597   2.590
  821SOL    HW1 2484   1.453   2.532   2.665
  821SOL    HW2 2485   1.538   2.656   2.603
  822SOL     OW 2486   0.461   3.128   3.589
  822SOL    HW1 2487   0.411   3.129   3.503
  822SOL    HW2 2488   0.398   3.110   3.665
  823SOL     OW 2489   1.111   3.638   2.099
  823SOL    HW1 2490   1.051   3.576   2.149
  823SOL    HW2 2491   1.142   3.594   2.014
  824SOL     OW 2492   0.202   2.147   3.360
  824SOL    HW1 2493   0.122   2.207   3.347
  824SOL    HW2 2494   0.192   2.098   3.446
  825SOL     OW 2495   1.632   3.239   1.943
  825SOL    HW1 2496   1.600   3.333   1.933
  825SOL    HW2 2497   1.556   3.176   1.931
  826SOL     OW 2498   0.464   3.605   2.185
  826SOL    HW1 2499   0.497   3.644   2.271
  826SOL    HW2 2500   0.540   3.598   2.120
  827SOL     OW 2501   1.400   1.969   2.288
  827SOL    HW1 2502   1.376   1.932   2.198
  827SOL    HW2 2503   1.499   1.985   2.292
  828SOL     OW 2504   0.249   3.647   3.103
  828SOL    HW1 2505   0.306   3.582   3.153
  828SOL    HW2 2506   0.233   3.614   3.010
  829SOL     OW 2507   0.940   3.560   2.766
  829SOL    HW1 2508   1.020   3.503   2.787
  829SOL    HW2 2509   0.891   3.520   2.689
  830SOL     OW 2510   0.382   2.562   2.342
  830SOL    HW1 2511   0.427   2.472   2.339
  830SOL    HW2 2512   0.288   2.551   2.375
  831SOL     OW 2513   1.547   2.084   3.591
  831SOL    HW1 2514   1.542   2.121   3.683
  831SOL    HW2 2515   1.475   2.015   3.579
  832SOL     OW 2516   0.614   1.984   1.979
  832SOL    HW1 2517   0.712   1.962   1.986
  832SOL    HW2 2518   0.583   1.967   1.886
  833SOL     OW 2519   0.781   2.126   3.611
  833SOL    HW1 2520   0.848   2.065   3.654
  833SOL    HW2 2521   0.708   2.145   3.676
  834SOL     OW 2522   0.888   3.376   3.057
  834SOL    HW1 2523   0.865   3.351   2.963
  834SOL    HW2 2524   0.949   3.307   3.096
  835SOL     OW 2525   1.351   2.452   3.295
  835SOL    HW1 2526   1.379   2.409   3.380
  835SOL    HW2 2527   1.376   2.548   3.296
  836SOL     OW 2528   0.803   3.264   2.786
  836SOL    HW1 2529   0.893   3.278   2.744
  836SOL    HW2 2530   0.732   3.266   2.715
  837SOL     OW 2531   0.922   2.365   2.761
  837SOL    HW1 2532   0.897   2.356   2.665
  837SOL    HW2 2533   0.970   2.283   2.792
  838SOL     OW 2534   0.539   1.926   2.374
  838SOL    HW1 2535   0.458   1.927   2.432
  838SOL    HW2 2536   0.542   2.009   2.319
  839SOL     OW 2537   1.434   3.050   1.903
  839SOL    HW1 2538   1.466   2.974   1.960
  839SOL    HW2 2539   1.342   3.077   1.933
  840SOL     OW 2540   0.297   1.897   2.033
  840SOL    HW1 2541   0.346   1.981   2.012
  840SOL    HW2 2542   0.359   1.832   2.078
  841SOL     OW 2543   0.935   2.098   2.342
  841SOL    HW1 2544   0.887   2.139   2.264
  841SOL    HW2 2545   1.034   2.096   2.323
  842SOL     OW 2546   1.076   2.545   3.326
  842SOL    HW1 2547   0.996   2.484   3.329
  842SOL    HW2 2548   1.157   2.492   3.302
  843SOL     OW 2549   1.227   3.432   2.655
  843SOL    HW1 2550   1.248   3.506   2.590
  843SOL    HW2 2551   1.295   3.432   2.728
  844SOL     OW 2552   0.459   3.014   2.603
  844SOL    HW1 2553   0.388   2.987   2.668
  844SOL    HW2 2554   0.433   2.986   2.510
  845SOL     OW 2555   1.271   3.659   2.453
  845SOL    HW1 2556   1.315   3.723   2.389
  845SOL    HW2 2557   1.221   3.711   2.523
  846SOL     OW 2558   1.032   2.411   1.878
  846SOL    HW1 2559   0.991   2.493   1.839
  846SOL    HW2 2560   1.096   2.437   1.951
  847SOL     OW 2561   0.078   2.418   3.248
  847SOL    HW1 2562   0.170   2.417   3.207
  847SOL    HW2 2563   0.072   2.492   3.315
  848SOL     OW 2564   0.561   2.084   3.009
  848SOL    HW1 2565   0.599   2.000   3.046
  848SOL    HW2 2566   0.473   2.103   3.053
  849SOL     OW 2567   0.866   2.316   2.504
  849SOL    HW1 2568   0.834   2.388   2.442
  849SOL    HW2 2569   0.890   2.235   2.451
  850SOL     OW 2570   1.017   1.901   2.615
  850SOL    HW1 2571   0.945   1.906   2.546
  850SOL    HW2 2572   0.993   1.832   2.684
  851SOL     OW 2573   1.429   3.035   2.729
  851SOL    HW1 2574   1.374   2.951   2.722
  851SOL    HW2 2575   1.455   3.064   2.637
  852SOL     OW 2576   1.466   2.452   2.854
  852SOL    HW1 2577   1.436   2.357   2.861
  852SOL    HW2 2578   1.539   2.468   2.920
  853SOL     OW 2579   1.857   2.695   2.239
  853SOL    HW1 2580   1.899   2.631   2.303
  853SOL    HW2 2581   1.819   2.644   2.161
  854SOL     OW 2582   0.488   3.247   2.036
  854SOL    HW1 2583   0.401   3.232   2.083
  854SOL    HW2 2584   0.471   3.273   1.941
  855SOL     OW 2585   1.664   3.142   2.519
  855SOL    HW1 2586   1.763   3.150   2.533
  855SOL    HW2 2587   1.619   3.226   2.550
  856SOL     OW 2588   1.390   2.437   1.940
  856SOL    HW1 2589   1.336   2.416   2.021
  856SOL    HW2 2590   1.481   2.396   1.949
  857SOL     OW 2591   0.527   2.118   2.190
  857SOL    HW1 2592   0.554   2.059   2.115
  857SOL    HW2 2593   0.527   2.213   2.159
  858SOL     OW 2594   1.754   3.085   3.450
  858SOL    HW1 2595   1.845   3.046   3.437
  858SOL    HW2 2596   1.762   3.181   3.474
  859SOL     OW 2597   1.064   3.209   3.202
  859SOL    HW1 2598   0.984   3.186   3.257
  859SOL    HW2 2599   1.147   3.183   3.251
  860SOL     OW 2600   1.592   3.491   3.487
  860SOL    HW1 2601   1.619   3.525   3.397
  860SOL    HW2 2602   1.671   3.453   3.533
  861SOL     OW 2603   1.111   3.057   2.962
  861SOL    HW1 2604   1.071   3.101   3.043
  861SOL    HW2 2605   1.070   3.094   2.879
  862SOL     OW 2606   1.638   2.961   2.941
  862SOL    HW1 2607   1.643   3.042   3.000
  862SOL    HW2 2608   1.552   2.963   2.890
  863SOL     OW 2609   0.915   1.951   3.264
  863SOL    HW1 2610   0.940   1.931   3.169
  863SOL    HW2 2611   0.987   2.007   3.306
  864SOL     OW 2612   0.980   2.978   3.581
  864SOL    HW1 2613   0.881   2.984   3.591
  864SOL    HW2 2614   1.003   2.898   3.525
  865SOL     OW 2615   0.705   2.912   2.230
  865SOL    HW1 2616   0.691   2.919   2.329
  865SOL    HW2 2617   0.789   2.861   2.212
  866SOL     OW 2618   0.410   2.675   3.113
  866SOL    HW1 2619   0.496   2.687   3.163
  866SOL    HW2 2620   0.368   2.588   3.140
  867SOL     OW 2621   1.274   2.248   3.124
  867SOL    HW1 2622   1.295   2.322   3.188
  867SOL    HW2 2623   1.185   2.265   3.081
  868SOL     OW 2624   0.064   3.426   3.193
  868SOL    HW1 2625   0.018   3.508   3.159
  868SOL    HW2 2626   0.162   3.445   3.202
  869SOL     OW 2627   0.367   2.962   2.363
  869SOL    HW1 2628   0.360   3.045   2.307
  869SOL    HW2 2629   0.371   2.882   2.303
  870SOL     OW 2630   0.566   2.399   2.727
  870SOL    HW1 2631   0.578   2.465   2.653
  870SOL    HW2 2632   0.612   2.433   2.810
  871SOL     OW 2633   1.252   3.210   2.250
  871SOL    HW1 2634   1.302   3.287   2.290
  871SOL    HW2 2635   1.157   3.212   2.282
  872SOL     OW 2636   1.272   3.307   3.004
  872SOL    HW1 2637   1.319   3.320   3.091
  872SOL    HW2 2638   1.206   3.233   3.013
  873SOL     OW 2639   1.582   2.501   2.334
  873SOL    HW1 2640   1.551   2.562   2.407
  873SOL    HW2 2641   1.632   2.553   2.265
  874SOL     OW 2642   0.354   3.372   3.191
  874SOL    HW1 2643   0.333   3.328   3.104
  874SOL    HW2 2644   0.451   3.398   3.194
  875SOL     OW 2645   0.402   2.613   3.460
  875SOL    HW1 2646   0.470   2.668   3.413
  875SOL    HW2 2647   0.442   2.525   3.487
  876SOL     OW 2648   1.587   2.641   3.532
  876SOL    HW1 2649   1.495   2.679   3.527
  876SOL    HW2 2650   1.647   2.688   3.467
  877SOL     OW 2651   1.013   1.967   3.632
  877SOL    HW1 2652   1.019   2.052   3.580
  877SOL    HW2 2653   1.045   1.891   3.575
  878SOL     OW 2654   0.504   1.912   3.602
  878SOL    HW1 2655   0.462   1.855   3.532
  878SOL    HW2 2656   0.438   1.981   3.634
  879SOL     OW 2657   0.573   2.732   2.891
  879SOL    HW1 2658   0.617   2.821   2.882
  879SOL    HW2 2659   0.510   2.732   2.968
  880SOL     OW 2660   1.360   2.724   2.907
  880SOL    HW1 2661   1.285   2.724   2.841
  880SOL    HW2 2662   1.397   2.632   2.916
  881SOL     OW 2663   1.209   2.387   2.137
  881SOL    HW1 2664   1.222   2.303   2.191
  881SOL    HW2 2665   1.180   2.461   2.197
  882SOL     OW 2666   0.307   2.075   3.093
  882SOL    HW1 2667   0.284   2.112   3.183
  882SOL    HW2 2668   0.277   1.980   3.087
  883SOL     OW 2669   0.037   3.172   3.144
  883SOL    HW1 2670   0.090   3.123   3.212
  883SOL    HW2 2671   0.059   3.270   3.149
  884SOL     OW 2672   0.732   2.496   2.926
  884SOL    HW1 2673   0.791   2.470   2.850
  884SOL    HW2 2674   0.704   2.592   2.915
  885SOL     OW 2675   1.728   2.797   3.716
  885SOL    HW1 2676   1.682   2.790   3.627
  885SOL    HW2 2677   1.666   2.841   3.782
  886SOL     OW 2678   0.307   1.925   2.480
  886SOL    HW1 2679   0.296   2.019   2.513
  886SOL    HW2 2680   0.302   1.862   2.557
  887SOL     OW 2681   1.622   2.229   2.236
  887SOL    HW1 2682   1.624   2.153   2.300
  887SOL    HW2 2683   1.574   2.306   2.276
  888SOL     OW 2684   1.023   2.628   2.828
  888SOL    HW1 2685   1.038   2.649   2.924
  888SOL    HW2 2686   0.993   2.533   2.819
  889SOL     OW 2687   0.980   3.435   3.562
  889SOL    HW1 2688   0.960   3.479   3.474
  889SOL    HW2 2689   1.019   3.344   3.546
  890SOL     OW 2690   1.859   3.380   3.467
  890SOL    HW1 2691   1.873   3.407   3.372
  890SOL    HW2 2692   1.942   3.402   3.520
  891SOL     OW 2693   0.350   2.760   3.666
  891SOL    HW1 2694   0.426   2.804   3.714
  891SOL    HW2 2695   0.385   2.713   3.584
  892SOL     OW 2696   1.540   2.136   1.987
  892SOL    HW1 2697   1.479   2.061   2.010
  892SOL    HW2 2698   1.562   2.188   2.070
  893SOL     OW 2699   1.303   2.700   1.904
  893SOL    HW1 2700   1.337   2.607   1.919
  893SOL    HW2 2701   1.321   2.727   1.809
  894SOL     OW 2702   1.068   3.195   2.711
  894SOL    HW1 2703   1.075   3.111   2.656
  894SOL    HW2 2704   1.130   3.264   2.675
  895SOL     OW 2705   0.319   2.672   2.811
  895SOL    HW1 2706   0.412   2.708   2.816
  895SOL    HW2 2707   0.313   2.587   2.863
  896SOL     OW 2708   0.339   2.371   2.868
  896SOL    HW1 2709   0.287   2.288   2.851
  896SOL    HW2 2710   0.416   2.376   2.804
  897SOL     OW 2711   1.138   2.242   3.540
  897SOL    HW1 2712   1.093   2.305   3.604
  897SOL    HW2 2713   1.231   2.273   3.523
  898SOL     OW 2714   1.160   2.069   3.339
  898SOL    HW1 2715   1.160   2.133   3.416
  898SOL    HW2 2716   1.188   2.117   3.256
  899SOL     OW 2717   0.008   3.188   2.062
  899SOL    HW1 2718  -0.085   3.209   2.031
  899SOL    HW2 2719   0.018   3.089   2.075
  900SOL     OW 2720   0.088   3.663   2.789
  900SOL    HW1 2721   0.046   3.577   2.762
  900SOL    HW2 2722   0.182   3.666   2.755
  901SOL     OW 2723   0.504   3.430   2.772
  901SOL    HW1 2724   0.570   3.504   2.781
  901SOL    HW2 2725   0.548   3.351   2.730
  902SOL     OW 2726   1.002   2.658   3.100
  902SOL    HW1 2727   1.043   2.626   3.186
  902SOL    HW2 2728   0.906   2.631   3.097
  903SOL     OW 2729   0.040   2.406   2.976
  903SOL    HW1 2730   0.125   2.373   2.935
  903SOL    HW2 2731   0.053   2.421   3.074
  904SOL     OW 2732   0.189   2.382   3.584
  904SOL    HW1 2733   0.248   2.342   3.514
  904SOL    HW2 2734   0.131   2.453   3.543
  905SOL     OW 2735   1.369   2.812   3.522
  905SOL    HW1 2736   1.408   2.901   3.542
  905SOL    HW2 2737   1.379   2.792   3.425
  906SOL     OW 2738   0.815   2.434   2.187
  906SOL    HW1 2739   0.822   2.345   2.141
  906SOL    HW2 2740   0.721   2.468   2.179
  907SOL     OW 2741   1.657   2.466   3.068
  907SOL    HW1 2742   1.619   2.397   3.130
  907SOL    HW2 2743   1.739   2.430   3.024
  908SOL     OW 2744   0.252   3.426   3.606
  908SOL    HW1 2745   0.222   3.483   3.682
  908SOL    HW2 2746   0.245   3.329   3.632
  909SOL     OW 2747   0.671   2.326   3.131
  909SOL    HW1 2748   0.637   2.237   3.101
  909SOL    HW2 2749   0.697   2.380   3.051
  910SOL     OW 2750   0.930   3.540   3.327
  910SOL    HW1 2751   0.906   3.522   3.232
  910SOL    HW2 2752   0.960   3.634   3.337
  911SOL     OW 2753   0.473   2.362   2.053
  911SOL    HW1 2754   0.534   2.442   2.057
  911SOL    HW2 2755   0.378   2.393   2.060
  912SOL     OW 2756   0.159   2.999   3.328
  912SOL    HW1 2757   0.181   2.938   3.404
  912SOL    HW2 2758   0.169   2.950   3.242
  913SOL     OW 2759   1.347   2.921   3.096
  913SOL    HW1 2760   1.371   2.858   3.022
  913SOL    HW2 2761   1.257   2.961   3.078
  914SOL     OW 2762   1.302   2.717   2.171
  914SOL    HW1 2763   1.216   2.686   2.213
  914SOL    HW2 2764   1.298   2.703   2.072
  915SOL     OW 2765   1.759   3.609   3.016
  915SOL    HW1 2766   1.820   3.639   2.943
  915SOL    HW2 2767   1.721   3.520   2.994
  916SOL     OW 2768   1.252   3.593   2.990
  916SOL    HW1 2769   1.336   3.598   2.936
  916SOL    HW2 2770   1.229   3.497   3.008
  917SOL     OW 2771   0.083   3.120   2.884
  917SOL    HW1 2772   0.078   3.119   2.984
  917SOL    HW2 2773   0.000   3.079   2.846
  918SOL     OW 2774   0.688   3.524   3.578
  918SOL    HW1 2775   0.632   3.605   3.587
  918SOL    HW2 2776   0.740   3.528   3.492
  919SOL     OW 2777   1.726   1.997   2.385
  919SOL    HW1 2778   1.799   1.980   2.318
  919SOL    HW2 2779   1.695   1.910   2.423
  920SOL     OW 2780   1.388   3.435   2.339
  920SOL    HW1 2781   1.455   3.447   2.265
  920SOL    HW2 2782   1.348   3.524   2.362
  921SOL     OW 2783   0.130   3.656   3.713
  921SOL    HW1 2784   0.089   3.582   3.766
  921SOL    HW2 2785   0.194   3.707   3.771
  922SOL     OW 2786   1.280   2.789   2.534
  922SOL    HW1 2787   1.340   2.708   2.536
  922SOL    HW2 2788   1.320   2.858   2.474
  923SOL     OW 2789   0.830   3.135   3.284
  923SOL    HW1 2790   0.825   3.168   3.379
  923SOL    HW2 2791   0.744   3.154   3.238
  924SOL     OW 2792   0.672   3.478   2.016
  924SOL    HW1 2793   0.681   3.488   1.917
  924SOL    HW2 2794   0.632   3.389   2.037
  925SOL     OW 2795   1.650   3.582   3.256
  925SOL    HW1 2796   1.703   3.592   3.172
  925SOL    HW2 2797   1.623   3.672   3.290
  926SOL     OW 2798   1.841   2.037   2.825
  926SOL    HW1 2799   1.880   1.952   2.789
  926SOL    HW2 2800   1.743   2.039   2.806
  927SOL     OW 2801   0.263   2.188   2.582
  927SOL    HW1 2802   0.184   2.239   2.548
  927SOL    HW2 2803   0.254   2.173   2.680
  928SOL     OW 2804   1.194   3.474   1.893
  928SOL    HW1 2805   1.200   3.381   1.930
  928SOL    HW2 2806   1.135   3.474   1.813
  929SOL     OW 2807   0.822   2.864   3.234
  929SOL    HW1 2808   0.862   2.863   3.142
  929SOL    HW2 2809   0.832   2.956   3.274
  930SOL     OW 2810   0.916   2.772   2.153
  930SOL    HW1 2811   0.979   2.810   2.085
  930SOL    HW2 2812   0.956   2.689   2.192
  931SOL     OW 2813   1.504   3.469   1.906
  931SOL    HW1 2814   1.412   3.506   1.913
  931SOL    HW2 2815   1.542   3.489   1.816
  932SOL     OW 2816   0.372   3.150   3.352
  932SOL    HW1 2817   0.359   3.243   3.318
  932SOL    HW2 2818   0.288   3.098   3.339
  933SOL     OW 2819   1.614   3.154   3.151
  933SOL    HW1 2820   1.674   3.157   3.231
  933SOL    HW2 2821   1.539   3.218   3.164
  934SOL     OW 2822   1.039   2.960   2.558
  934SOL    HW1 2823   0.969   2.913   2.612
  934SOL    HW2 2824   1.098   2.892   2.515
  935SOL     OW 2825   1.014   2.098   2.833
  935SOL    HW1 2826   1.006   2.062   2.740
  935SOL    HW2 2827   1.012   2.022   2.898
  936SOL     OW 2828   0.590   3.349   2.353
  936SOL    HW1 2829   0.632   3.291   2.283
  936SOL    HW2 2830   0.546   3.428   2.309
  937SOL     OW 2831   1.709   2.247   3.243
  937SOL    HW1 2832   1.782   2.316   3.247
  937SOL    HW2 2833   1.737   2.172   3.184
  938SOL     OW 2834   0.255   3.210   2.152
  938SOL    HW1 2835   0.159   3.211   2.125
  938SOL    HW2 2836   0.267   3.263   2.236
  939SOL     OW 2837   0.105   2.875   3.588
  939SOL    HW1 2838   0.028   2.842   3.642
  939SOL    HW2 2839   0.190   2.845   3.630
  940SOL     OW 2840   0.672   2.065   3.351
  940SOL    HW1 2841   0.762   2.049   3.311
  940SOL    HW2 2842   0.680   2.070   3.450
  941SOL     OW 2843   0.075   2.207   1.895
  941SOL    HW1 2844  -0.017   2.179   1.866
  941SOL    HW2 2845   0.106   2.284   1.839
  942SOL     OW 2846   1.440   2.718   3.260
  942SOL    HW1 2847   1.383   2.770   3.197
  942SOL    HW2 2848   1.536   2.730   3.236
  943SOL     OW 2849   0.072   2.028   2.180
  943SOL    HW1 2850   0.055   2.111   2.126
  943SOL    HW2 2851   0.162   1.991   2.158
  944SOL     OW 2852   1.183   3.197   1.981
  944SOL    HW1 2853   1.084   3.186   1.983
  944SOL    HW2 2854   1.217   3.212   2.074
  945SOL     OW 2855   0.613   2.704   3.293
  945SOL    HW1 2856   0.669   2.785   3.276
  945SOL    HW2 2857   0.672   2.624   3.296
  946SOL     OW 2858   1.493   3.629   2.821
  946SOL    HW1 2859   1.526   3.693   2.752
  946SOL    HW2 2860   1.559   3.623   2.896
  947SOL     OW 2861   0.716   2.427   3.570
  947SOL    HW1 2862   0.735   2.492   3.644
  947SOL    HW2 2863   0.776   2.347   3.579
  948SOL     OW 2864   1.450   3.082   3.495
  948SOL    HW1 2865   1.441   3.072   3.594
  948SOL    HW2 2866   1.546   3.075   3.469
  949SOL     OW 2867   0.390   3.603   3.422
  949SOL    HW1 2868   0.299   3.644   3.420
  949SOL    HW2 2869   0.383   3.509   3.454
  950SOL     OW 2870   1.674   2.745   3.116
  950SOL    HW1 2871   1.647   2.656   3.079
  950SOL    HW2 2872   1.675   2.813   3.043
  951SOL     OW 2873   1.225   2.187   2.311
  951SOL    HW1 2874   1.290   2.113   2.300
  951SOL    HW2 2875   1.245   2.237   2.395
  952SOL     OW 2876   0.594   2.607   2.514
  952SOL    HW1 2877   0.644   2.692   2.495
  952SOL    HW2 2878   0.506   2.609   2.466
  953SOL     OW 2879   1.777   2.204   3.504
  953SOL    HW1 2880   1.760   2.235   3.410
  953SOL    HW2 2881   1.693   2.167   3.542
  954SOL     OW 2882   1.730   2.796   3.379
  954SOL    HW1 2883   1.768   2.887   3.394
  954SOL    HW2 2884   1.722   2.779   3.280
  955SOL     OW 2885   0.859   3.236   1.878
  955SOL    HW1 2886   0.813   3.251   1.966
  955SOL    HW2 2887   0.903   3.321   1.848
  956SOL     OW 2888   0.661   3.652   2.815
  956SOL    HW1 2889   0.615   3.740   2.802
  956SOL    HW2 2890   0.760   3.664   2.808
  957SOL     OW 2891   0.859   2.818   2.723
  957SOL    HW1 2892   0.913   2.749   2.771
  957SOL    HW2 2893   0.827   2.887   2.789
  958SOL     OW 2894   1.083   2.846   1.949
  958SOL    HW1 2895   1.060   2.899   1.867
  958SOL    HW2 2896   1.164   2.790   1.930
  959SOL     OW 2897   1.861   3.431   2.713
  959SOL    HW1 2898   1.790   3.419   2.643
  959SOL    HW2 2899   1.862   3.352   2.773
  960SOL     OW 2900   0.221   3.176   3.706
  960SOL    HW1 2901   0.156   3.103   3.685
  960SOL    HW2 2902   0.225   3.190   3.804
  961SOL     OW 2903   0.079   3.102   2.515
  961SOL    HW1 2904   0.078   3.055   2.603
  961SOL    HW2 2905   0.161   3.074   2.464
  962SOL     OW 2906   0.672   3.253   3.486
  962SOL    HW1 2907   0.594   3.203   3.524
  962SOL    HW2 2908   0.669   3.348   3.517
  963SOL     OW 2909   1.824   2.054   3.089
  963SOL    HW1 2910   1.820   1.964   3.133
  963SOL    HW2 2911   1.827   2.043   2.990
  964SOL     OW 2912   0.428   2.286   2.382
  964SOL    HW1 2913   0.458   2.214   2.320
  964SOL    HW2 2914   0.389   2.246   2.465
  965SOL     OW 2915   1.705   3.349   2.966
  965SOL    HW1 2916   1.612   3.324   2.939
  965SOL    HW2 2917   1.731   3.299   3.048
  966SOL     OW 2918   0.317   2.409   3.142
  966SOL    HW1 2919   0.355   2.350   3.214
  966SOL    HW2 2920   0.357   2.383   3.054
  967SOL     OW 2921   0.812   3.448   2.549
  967SOL    HW1 2922   0.844   3.458   2.455
  967SOL    HW2 2923   0.733   3.386   2.551
  968SOL     OW 2924   1.424   2.076   2.974
  968SOL    HW1 2925   1.476   2.011   3.029
  968SOL    HW2 2926   1.375   2.139   3.035
  969SOL     OW 2927   1.001   1.896   3.016
  969SOL    HW1 2928   0.938   1.824   2.985
  969SOL    HW2 2929   1.094   1.860   3.016
  970SOL     OW 2930   0.770   3.192   2.163
  970SOL    HW1 2931   0.724   3.105   2.180
  970SOL    HW2 2932   0.861   3.189   2.204
  971SOL     OW 2933   0.618   3.429   3.146
  971SOL    HW1 2934   0.613   3.511   3.203
  971SOL    HW2 2935   0.707   3.426   3.101
  972SOL     OW 2936   1.352   1.914   2.030
  972SOL    HW1 2937   1.387   1.873   1.946
  972SOL    HW2 2938   1.262   1.876   2.050
  973SOL     OW 2939   1.300   2.315   2.553
  973SOL    HW1 2940   1.241   2.395   2.557
  973SOL    HW2 2941   1.315   2.280   2.646
  974SOL     OW 2942   1.593   2.083   2.744
  974SOL    HW1 2943   1.509   2.082   2.798
  974SOL    HW2 2944   1.595   2.166   2.688
  975SOL     OW 2945   0.039   2.939   2.162
  975SOL    HW1 2946   0.138   2.928   2.153
  975SOL    HW2 2947  -0.001   2.853   2.194
  976SOL     OW 2948   0.875   3.508   2.199
  976SOL    HW1 2949   0.798   3.473   2.145
  976SOL    HW2 2950   0.843   3.579   2.261
  977SOL     OW 2951   0.230   2.490   3.837
  977SOL    HW1 2952   0.137   2.488   3.874
  977SOL    HW2 2953   0.231   2.451   3.745
  978SOL     OW 2954   0.225   2.137   4.720
  978SOL    HW1 2955   0.260   2.120   4.812
  978SOL    HW2 2956   0.137   2.092   4.708
  979SOL     OW 2957   0.019   2.230   4.371
  979SOL    HW1 2958  -0.063   2.273   4.410
  979SOL    HW2 2959  -0.009   2.157   4.308
  980SOL     OW 2960   1.555   3.373   4.427
  980SOL    HW1 2961   1.498   3.357   4.508
  980SOL    HW2 2962   1.496   3.383   4.347
  981SOL     OW 2963   1.135   2.565   4.441
  981SOL    HW1 2964   1.192   2.643   4.416
  981SOL    HW2 2965   1.075   2.591   4.517
  982SOL     OW 2966   1.755   2.469   3.955
  982SOL    HW1 2967   1.743   2.456   3.856
  982SOL    HW2 2968   1.725   2.388   4.004
  983SOL     OW 2969   0.768   3.006   4.747
  983SOL    HW1 2970   0.690   3.023   4.807
  983SOL    HW2 2971   0.802   3.093   4.711
  984SOL     OW 2972   0.685   2.874   4.389
  984SOL    HW1 2973   0.754   2.858   4.459
  984SOL    HW2 2974   0.612   2.931   4.427
  985SOL     OW 2975   0.335   3.297   4.785
  985SOL    HW1 2976   0.257   3.266   4.732
  985SOL    HW2 2977   0.393   3.355   4.728
  986SOL     OW 2978   1.603   2.309   4.461
  986SOL    HW1 2979   1.529   2.355   4.411
  986SOL    HW2 2980   1.654   2.377   4.514
  987SOL     OW 2981   0.231   3.575   4.207
  987SOL    HW1 2982   0.265   3.652   4.261
  987SOL    HW2 2983   0.275   3.575   4.117
  988SOL     OW 2984   0.230   3.296   4.262
  988SOL    HW1 2985   0.204   3.392   4.262
  988SOL    HW2 2986   0.159   3.242   4.307
  989SOL     OW 2987   0.240   2.953   4.610
  989SOL    HW1 2988   0.254   2.869   4.662
  989SOL    HW2 2989   0.185   3.017   4.665
  990SOL     OW 2990   0.606   2.826   3.847
  990SOL    HW1 2991   0.613   2.910   3.793
  990SOL    HW2 2992   0.652   2.839   3.935
  991SOL     OW 2993   0.122   2.505   4.287
  991SOL    HW1 2994   0.077   2.417   4.304
  991SOL    HW2 2995   0.121   2.559   4.371
  992SOL     OW 2996   1.842   3.629   4.083
  992SOL    HW1 2997   1.896   3.600   4.163
  992SOL    HW2 2998   1.872   3.719   4.054
  993SOL     OW 2999   0.027   3.458   3.841
  993SOL    HW1 3000   0.008   3.362   3.862
  993SOL    HW2 3001  -0.006   3.516   3.916
  994SOL     OW 3002   1.689   2.784   4.336
  994SOL    HW1 3003   1.784   2.755   4.344
  994SOL    HW2 3004   1.681   2.849   4.261
  995SOL     OW 3005   1.641   2.970   4.156
  995SOL    HW1 3006   1.727   2.972   4.104
  995SOL    HW2 3007   1.655   3.017   4.244
  996SOL     OW 3008   0.613   3.227   4.450
  996SOL    HW1 3009   0.564   3.140   4.459
  996SOL    HW2 3010   0.590   3.270   4.363
  997SOL     OW 3011   0.809   1.866   4.226
  997SOL    HW1 3012   0.849   1.957   4.217
  997SOL    HW2 3013   0.709   1.874   4.232
  998SOL     OW 3014   1.525   2.861   3.914
  998SOL    HW1 3015   1.462   2.785   3.927
  998SOL    HW2 3016   1.573   2.879   4.000
  999SOL     OW 3017   1.466   3.279   4.677
  999SOL    HW1 3018   1.407   3.285   4.757
  999SOL    HW2 3019   1.451   3.191   4.631
 1000SOL     OW 3020   1.667   3.576   4.296
 1000SOL    HW1 3021   1.626   3.553   4.208
 1000SOL    HW2 3022   1.649   3.502   4.361
 1001SOL     OW 3023   0.598   2.591   3.994
 1001SOL    HW1 3024   0.622   2.660   3.926
 1001SOL    HW2 3025   0.520   2.624   4.048
 1002SOL     OW 3026   1.281   2.207   4.668
 1002SOL    HW1 3027   1.195   2.157   4.655
 1002SOL    HW2 3028   1.343   2.153   4.724
 1003SOL     OW 3029   1.576   3.524   4.031
 1003SOL    HW1 3030   1.665   3.570   4.034
 1003SOL    HW2 3031   1.555   3.500   3.936
 1004SOL     OW 3032   1.041   2.563   4.153
 1004SOL    HW1 3033   1.067   2.559   4.249
 1004SOL    HW2 3034   0.956   2.512   4.139
 1005SOL     OW 3035   0.076   2.673   4.513
 1005SOL    HW1 3036   0.175   2.661   4.522
 1005SOL    HW2 3037   0.052   2.768   4.534
 1006SOL     OW 3038   0.865   2.210   3.919
 1006SOL    HW1 3039   0.924   2.273   3.870
 1006SOL    HW2 3040   0.884   2.116   3.890
 1007SOL     OW 3041   1.362   3.006   4.269
 1007SOL    HW1 3042   1.445   2.977   4.221
 1007SOL    HW2 3043   1.313   3.073   4.213
 1008SOL     OW 3044   0.550   2.058   4.609
 1008SOL    HW1 3045   0.545   2.053   4.709
 1008SOL    HW2 3046   0.552   2.154   4.580
 1009SOL     OW 3047   1.008   3.318   4.201
 1009SOL    HW1 3048   0.962   3.390   4.149
 1009SOL    HW2 3049   1.004   3.338   4.299
 1010SOL     OW 3050   0.351   3.663   4.577
 1010SOL    HW1 3051   0.401   3.577   4.583
 1010SOL    HW2 3052   0.416   3.740   4.574
 1011SOL     OW 3053   1.795   2.928   4.597
 1011SOL    HW1 3054   1.733   2.913   4.521
 1011SOL    HW2 3055   1.743   2.939   4.682
 1012SOL     OW 3056   0.321   2.805   3.966
 1012SOL    HW1 3057   0.403   2.844   3.924
 1012SOL    HW2 3058   0.294   2.723   3.917
 1013SOL     OW 3059   1.458   2.597   4.452
 1013SOL    HW1 3060   1.453   2.532   4.527
 1013SOL    HW2 3061   1.538   2.656   4.465
 1014SOL     OW 3062   1.111   3.638   3.961
 1014SOL    HW1 3063   1.051   3.576   4.011
 1014SOL    HW2 3064   1.142   3.594   3.876
 1015SOL     OW 3065   1.632   3.239   3.805
 1015SOL    HW1 3066   1.600   3.333   3.795
 1015SOL    HW2 3067   1.556   3.176   3.793
 1016SOL     OW 3068   0.464   3.605   4.047
 1016SOL    HW1 3069   0.497   3.644   4.133
 1016SOL    HW2 3070   0.540   3.598   3.982
 1017SOL     OW 3071   1.400   1.969   4.150
 1017SOL    HW1 3072   1.376   1.932   4.060
 1017SOL    HW2 3073   1.499   1.985   4.154
 1018SOL     OW 3074   0.249   3.647   4.965
 1018SOL    HW1 3075   0.306   3.582   5.015
 1018SOL    HW2 3076   0.233   3.614   4.872
 1019SOL     OW 3077   0.940   3.560   4.628
 1019SOL    HW1 3078   1.020   3.503   4.649
 1019SOL    HW2 3079   0.891   3.520   4.551
 1020SOL     OW 3080   0.382   2.562   4.204
 1020SOL    HW1 3081   0.427   2.472   4.201
 1020SOL    HW2 3082   0.288   2.551   4.237
 1021SOL     OW 3083   0.614   1.984   3.841
 1021SOL    HW1 3084   0.712   1.962   3.848
 1021SOL    HW2 3085   0.583   1.967   3.748
 1022SOL     OW 3086   0.803   3.264   4.648
 1022SOL    HW1 3087   0.893   3.278   4.606
 1022SOL    HW2 3088   0.732   3.266   4.577
 1023SOL     OW 3089   0.922   2.365   4.623
 1023SOL    HW1 3090   0.897   2.356   4.527
 1023SOL    HW2 3091   0.970   2.283   4.654
 1024SOL     OW 3092   0.539   1.926   4.236
 1024SOL    HW1 3093   0.458   1.927   4.294
 1024SOL    HW2 3094   0.542   2.009   4.181
 1025SOL     OW 3095   1.434   3.050   3.765
 1025SOL    HW1 3096   1.466   2.974   3.822
 1025SOL    HW2 3097   1.342   3.077   3.795
 1026SOL     OW 3098   0.297   1.897   3.895
 1026SOL    HW1 3099   0.346   1.981   3.874
 1026SOL    HW2 3100   0.359   1.832   3.940
 1027SOL     OW 3101   0.935   2.098   4.204
 1027SOL    HW1 3102   0.887   2.139   4.126
 1027SOL    HW2 3103   1.034   2.096   4.185
 1028SOL     OW 3104   1.227   3.432   4.517
 1028SOL    HW1 3105   1.248   3.506   4.452
 1028SOL    HW2 3106   1.295   3.432   4.590
 1029SOL     OW 3107   0.459   3.014   4.465
 1029SOL    HW1 3108   0.388   2.987   4.530
 1029SOL    HW2 3109   0.433   2.986   4.372
 1030SOL     OW 3110   1.271   3.659   4.315
 1030SOL    HW1 3111   1.315   3.723   4.251
 1030SOL    HW2 3112   1.221   3.711   4.385
 1031SOL     OW 3113   1.032   2.411   3.740
 1031SOL    HW1 3114   0.991   2.493   3.701
 1031SOL    HW2 3115   1.096   2.437   3.813
 1032SOL     OW 3116   0.866   2.316   4.366
 1032SOL    HW1 3117   0.834   2.388   4.304
 1032SOL    HW2 3118   0.890   2.235   4.313
 1033SOL     OW 3119   1.017   1.901   4.477
 1033SOL    HW1 3120   0.945   1.906   4.408
 1033SOL    HW2 3121   0.993   1.832   4.546
 1034SOL     OW 3122   1.429   3.035   4.591
 1034SOL    HW1 3123   1.374   2.951   4.584
 1034SOL    HW2 3124   1.455   3.064   4.499
 1035SOL     OW 3125   1.466   2.452   4.716
 1035SOL    HW1 3126   1.436   2.357   4.723
 1035SOL    HW2 3127   1.539   2.468   4.782
 1036SOL     OW 3128   1.857   2.695   4.101
 1036SOL    HW1 3129   1.899   2.631   4.165
 1036SOL    HW2 3130   1.819   2.644   4.023
 1037SOL     OW 3131   0.488   3.247   3.898
 1037SOL    HW1 3132   0.401   3.232   3.945
 1037SOL    HW2 3133   0.471   3.273   3.803
 1038SOL     OW 3134   1.664   3.142   4.381
 1038SOL    HW1 3135   1.763   3.150   4.395
 1038SOL    HW2 3136   1.619   3.226   4.412
 1039SOL     OW 3137   1.390   2.437   3.802
 1039SOL    HW1 3138   1.336   2.416   3.883
 1039SOL    HW2 3139   1.481   2.396   3.811
 1040SOL     OW 3140   0.527   2.118   4.052
 1040SOL    HW1 3141   0.554   2.059   3.977
 1040SOL    HW2 3142   0.527   2.213   4.021
 1041SOL     OW 3143   1.638   2.961   4.803
 1041SOL    HW1 3144   1.643   3.042   4.862
 1041SOL    HW2 3145   1.552   2.963   4.752
 1042SOL     OW 3146   0.705   2.912   4.092
 1042SOL    HW1 3147   0.691   2.919   4.191
 1042SOL    HW2 3148   0.789   2.861   4.074
 1043SOL     OW 3149   0.367   2.962   4.225
 1043SOL    HW1 3150   0.360   3.045   4.169
 1043SOL    HW2 3151   0.371   2.882   4.165
 1044SOL     OW 3152   0.566   2.399   4.589
 1044SOL    HW1 3153   0.578   2.465   4.515
 1044SOL    HW2 3154   0.612   2.433   4.672
 1045SOL     OW 3155   1.252   3.210   4.112
 1045SOL    HW1 3156   1.302   3.287   4.152
 1045SOL    HW2 3157   1.157   3.212   4.144
 1046SOL     OW 3158   1.582   2.501   4.196
 1046SOL    HW1 3159   1.551   2.562   4.269
 1046SOL    HW2 3160   1.632   2.553   4.127
 1047SOL     OW 3161   0.573   2.732   4.753
 1047SOL    HW1 3162   0.617   2.821   4.744
 1047SOL    HW2 3163   0.510   2.732   4.830
 1048SOL     OW 3164   1.209   2.387   3.999
 1048SOL    HW1 3165   1.222   2.303   4.053
 1048SOL    HW2 3166   1.180   2.461   4.059
 1049SOL     OW 3167   0.307   2.075   4.955
 1049SOL    HW1 3168   0.284   2.112   5.045
 1049SOL    HW2 3169   0.277   1.980   4.949
 1050SOL     OW 3170   0.732   2.496   4.788
 1050SOL    HW1 3171   0.791   2.470   4.712
 1050SOL    HW2 3172   0.704   2.592   4.777
 1051SOL     OW 3173   0.307   1.925   4.342
 1051SOL    HW1 3174   0.296   2.019   4.375
 1051SOL    HW2 3175   0.302   1.862   4.419
 1052SOL     OW 3176   1.622   2.229   4.098
 1052SOL    HW1 3177   1.624   2.153   4.162
 1052SOL    HW2 3178   1.574   2.306   4.138
 1053SOL     OW 3179   1.023   2.628   4.690
 1053SOL    HW1 3180   1.038   2.649   4.786
 1053SOL    HW2 3181   0.993   2.533   4.681
 1054SOL     OW 3182   1.540   2.136   3.849
 1054SOL    HW1 3183   1.479   2.061   3.872
 1054SOL    HW2 3184   1.562   2.188   3.932
 1055SOL     OW 3185   1.303   2.700   3.766
 1055SOL    HW1 3186   1.337   2.607   3.781
 1055SOL    HW2 3187   1.321   2.727   3.671
 1056SOL     OW 3188   1.068   3.195   4.573
 1056SOL    HW1 3189   1.075   3.111   4.518
 1056SOL    HW2 3190   1.130   3.264   4.537
 1057SOL     OW 3191   0.319   2.672   4.673
 1057SOL    HW1 3192   0.412   2.708   4.678
 1057SOL    HW2 3193   0.313   2.587   4.725
 1058SOL     OW 3194   0.339   2.371   4.730
 1058SOL    HW1 3195   0.287   2.288   4.713
 1058SOL    HW2 3196   0.416   2.376   4.666
 1059SOL     OW 3197   0.008   3.188   3.924
 1059SOL    HW1 3198  -0.085   3.209   3.893
 1059SOL    HW2 3199   0.018   3.089   3.937
 1060SOL     OW 3200   0.088   3.663   4.651
 1060SOL    HW1 3201   0.046   3.577   4.624
 1060SOL    HW2 3202   0.182   3.666   4.617
 1061SOL     OW 3203   0.504   3.430   4.634
 1061SOL    HW1 3204   0.570   3.504   4.643
 1061SOL    HW2 3205   0.548   3.351   4.592
 1062SOL     OW 3206   1.002   2.658   4.962
 1062SOL    HW1 3207   1.043   2.626   5.048
 1062SOL    HW2 3208   0.906   2.631   4.959
 1063SOL     OW 3209   0.815   2.434   4.049
 1063SOL    HW1 3210   0.822   2.345   4.003
 1063SOL    HW2 3211   0.721   2.468   4.041
 1064SOL     OW 3212   0.671   2.326   4.993
 1064SOL    HW1 3213   0.637   2.237   4.963
 1064SOL    HW2 3214   0.697   2.380   4.913
 1065SOL     OW 3215   0.473   2.362   3.915
 1065SOL    HW1 3216   0.534   2.442   3.919
 1065SOL    HW2 3217   0.378   2.393   3.922
 1066SOL     OW 3218   1.302   2.717   4.033
 1066SOL    HW1 3219   1.216   2.686   4.075
 1066SOL    HW2 3220   1.298   2.703   3.934
 1067SOL     OW 3221   1.759   3.609   4.878
 1067SOL    HW1 3222   1.820   3.639   4.805
 1067SOL    HW2 3223   1.721   3.520   4.856
 1068SOL     OW 3224   0.083   3.120   4.746
 1068SOL    HW1 3225   0.078   3.119   4.846
 1068SOL    HW2 3226   0.000   3.079   4.708
 1069SOL     OW 3227   1.726   1.997   4.247
 1069SOL    HW1 3228   1.799   1.980   4.180
 1069SOL    HW2 3229   1.695   1.910   4.285
 1070SOL     OW 3230   1.388   3.435   4.201
 1070SOL    HW1 3231   1.455   3.447   4.127
 1070SOL    HW2 3232   1.348   3.524   4.224
 1071SOL     OW 3233   1.280   2.789   4.396
 1071SOL    HW1 3234   1.340   2.708   4.398
 1071SOL    HW2 3235   1.320   2.858   4.336
 1072SOL     OW 3236   0.672   3.478   3.878
 1072SOL    HW1 3237   0.681   3.488   3.779
 1072SOL    HW2 3238   0.632   3.389   3.899
 1073SOL     OW 3239   1.841   2.037   4.687
 1073SOL    HW1 3240   1.880   1.952   4.651
 1073SOL    HW2 3241   1.743   2.039   4.668
 1074SOL     OW 3242   0.263   2.188   4.444
 1074SOL    HW1 3243   0.184   2.239   4.410
 1074SOL    HW2 3244   0.254   2.173   4.542
 1075SOL     OW 3245   1.194   3.474   3.755
 1075SOL    HW1 3246   1.200   3.381   3.792
 1075SOL    HW2 3247   1.135   3.474   3.675
 1076SOL     OW 3248   0.916   2.772   4.015
 1076SOL    HW1 3249   0.979   2.810   3.947
 1076SOL    HW2 3250   0.956   2.689   4.054
 1077SOL     OW 3251   1.504   3.469   3.768
 1077SOL    HW1 3252   1.412   3.506   3.775
 1077SOL    HW2 3253   1.542   3.489   3.678
 1078SOL     OW 3254   1.039   2.960   4.420
 1078SOL    HW1 3255   0.969   2.913   4.474
 1078SOL    HW2 3256   1.098   2.892   4.377
 1079SOL     OW 3257   1.014   2.098   4.695
 1079SOL    HW1 3258   1.006   2.062   4.602
 1079SOL    HW2 3259   1.012   2.022   4.760
 1080SOL     OW 3260   0.590   3.349   4.215
 1080SOL    HW1 3261   0.632   3.291   4.145
 1080SOL    HW2 3262   0.546   3.428   4.171
 1081SOL     OW 3263   0.255   3.210   4.014
 1081SOL    HW1 3264   0.159   3.211   3.987
 1081SOL    HW2 3265   0.267   3.263   4.098
 1082SOL     OW 3266   0.075   2.207   3.757
 1082SOL    HW1 3267  -0.017   2.179   3.728
 1082SOL    HW2 3268   0.106   2.284   3.701
 1083SOL     OW 3269   0.072   2.028   4.042
 1083SOL    HW1 3270   0.055   2.111   3.988
 1083SOL    HW2 3271   0.162   1.991   4.020
 1084SOL     OW 3272   1.183   3.197   3.843
 1084SOL    HW1 3273   1.084   3.186   3.845
 1084SOL    HW2 3274   1.217   3.212   3.936
 1085SOL     OW 3275   1.493   3.629   4.683
 1085SOL    HW1 3276   1.526   3.693   4.614
 1085SOL    HW2 3277   1.559   3.623   4.758
 1086SOL     OW 3278   1.674   2.745   4.978
 1086SOL    HW1 3279   1.647   2.656   4.941
 1086SOL    HW2 3280   1.675   2.813   4.905
 1087SOL     OW 3281   1.225   2.187   4.173
 1087SOL    HW1 3282   1.290   2.113   4.162
 1087SOL    HW2 3283   1.245   2.237   4.257
 1088SOL     OW 3284   0.594   2.607   4.376
 1088SOL    HW1 3285   0.644   2.692   4.357
 1088SOL    HW2 3286   0.506   2.609   4.328
 1089SOL     OW 3287   0.859   3.236   3.740
 1089SOL    HW1 3288   0.813   3.251   3.828
 1089SOL    HW2 3289   0.903   3.321   3.710
 1090SOL     OW 3290   0.661   3.652   4.677
 1090SOL    HW1 3291   0.615   3.740   4.664
 1090SOL    HW2 3292   0.760   3.664   4.670
 1091SOL     OW 3293   0.859   2.818   4.585
 1091SOL    HW1 3294   0.913   2.749   4.633
 1091SOL    HW2 3295   0.827   2.887   4.651
 1092SOL     OW 3296   1.083   2.846   3.811
 1092SOL    HW1 3297   1.060   2.899   3.729
 1092SOL    HW2 3298   1.164   2.790   3.792
 1093SOL     OW 3299   1.861   3.431   4.575
 1093SOL    HW1 3300   1.790   3.419   4.505
 1093SOL    HW2 3301   1.862   3.352   4.635
 1094SOL     OW 3302   0.079   3.102   4.377
 1094SOL    HW1 3303   0.078   3.055   4.465
 1094SOL    HW2 3304   0.161   3.074   4.326
 1095SOL     OW 3305   1.824   2.054   4.951
 1095SOL    HW1 3306   1.820   1.964   4.995
 1095SOL    HW2 3307   1.827   2.043   4.852
 1096SOL     OW 3308   0.428   2.286   4.244
 1096SOL    HW1 3309   0.458   2.214   4.182
 1096SOL    HW2 3310   0.389   2.246   4.327
 1097SOL     OW 3311   0.812   3.448   4.411
 1097SOL    HW1 3312   0.844   3.458   4.317
 1097SOL    HW2 3313   0.733   3.386   4.413
 1098SOL     OW 3314   0.770   3.192   4.025
 1098SOL    HW1 3315   0.724   3.105   4.042
 1098SOL    HW2 3316   0.861   3.189   4.066
 1099SOL     OW 3317   1.352   1.914   3.892
 1099SOL    HW1 3318   1.387   1.873   3.808
 1099SOL    HW2 3319   1.262   1.876   3.912
 1100SOL     OW 3320   1.300   2.315   4.415
 1100SOL    HW1 3321   1.241   2.395   4.419
 1100SOL    HW2 3322   1.315   2.280   4.508
 1101SOL     OW 3323   1.593   2.083   4.606
 1101SOL    HW1 3324   1.509   2.082   4.660
 1101SOL    HW2 3325   1.595   2.166   4.550
 1102SOL     OW 3326   0.039   2.939   4.024
 1102SOL    HW1 3327   0.138   2.928   4.015
 1102SOL    HW2 3328  -0.001   2.853   4.056
 1103SOL     OW 3329   0.875   3.508   4.061
 1103SOL    HW1 3330   0.798   3.473   4.007
 1103SOL    HW2 3331   0.843   3.579   4.123
 1104SOL     OW 3332   0.230   4.352   0.113
 1104SOL    HW1 3333   0.137   4.350   0.150
 1104SOL    HW2 3334   0.231   4.313   0.021
 1105SOL     OW 3335   0.225   3.999   0.996
 1105SOL    HW1 3336   0.260   3.982   1.088
 1105SOL    HW2 3337   0.137   3.954   0.984
 1106SOL     OW 3338   0.019   4.092   0.647
 1106SOL    HW1 3339  -0.063   4.135   0.686
 1106SOL    HW2 3340  -0.009   4.019   0.584
 1107SOL     OW 3341   1.135   4.427   0.717
 1107SOL    HW1 3342   1.192   4.505   0.692
 1107SOL    HW2 3343   1.075   4.453   0.793
 1108SOL     OW 3344   1.755   4.331   0.231
 1108SOL    HW1 3345   1.743   4.318   0.132
 1108SOL    HW2 3346   1.725   4.250   0.280
 1109SOL     OW 3347   0.768   4.868   1.023
 1109SOL    HW1 3348   0.690   4.885   1.083
 1109SOL    HW2 3349   0.802   4.955   0.987
 1110SOL     OW 3350   0.850   4.522   1.823
 1110SOL    HW1 3351   0.846   4.598   1.888
 1110SOL    HW2 3352   0.872   4.558   1.732
 1111SOL     OW 3353   0.685   4.736   0.665
 1111SOL    HW1 3354   0.754   4.720   0.735
 1111SOL    HW2 3355   0.612   4.793   0.703
 1112SOL     OW 3356   0.438   4.116   1.499
 1112SOL    HW1 3357   0.520   4.060   1.508
 1112SOL    HW2 3358   0.357   4.058   1.503
 1113SOL     OW 3359   1.603   4.171   0.737
 1113SOL    HW1 3360   1.529   4.217   0.687
 1113SOL    HW2 3361   1.654   4.239   0.790
 1114SOL     OW 3362   0.230   5.158   0.538
 1114SOL    HW1 3363   0.204   5.254   0.538
 1114SOL    HW2 3364   0.159   5.104   0.583
 1115SOL     OW 3365   0.240   4.815   0.886
 1115SOL    HW1 3366   0.254   4.731   0.938
 1115SOL    HW2 3367   0.185   4.879   0.941
 1116SOL     OW 3368   0.606   4.688   0.123
 1116SOL    HW1 3369   0.613   4.772   0.069
 1116SOL    HW2 3370   0.652   4.701   0.211
 1117SOL     OW 3371   1.594   3.838   1.480
 1117SOL    HW1 3372   1.576   3.905   1.408
 1117SOL    HW2 3373   1.591   3.884   1.569
 1118SOL     OW 3374   0.122   4.367   0.563
 1118SOL    HW1 3375   0.077   4.279   0.580
 1118SOL    HW2 3376   0.121   4.421   0.647
 1119SOL     OW 3377   1.689   4.646   0.612
 1119SOL    HW1 3378   1.784   4.617   0.620
 1119SOL    HW2 3379   1.681   4.711   0.537
 1120SOL     OW 3380   0.113   4.461   1.597
 1120SOL    HW1 3381   0.201   4.448   1.642
 1120SOL    HW2 3382   0.100   4.558   1.575
 1121SOL     OW 3383   1.293   4.952   1.423
 1121SOL    HW1 3384   1.330   4.879   1.365
 1121SOL    HW2 3385   1.345   4.957   1.508
 1122SOL     OW 3386   0.809   3.728   0.502
 1122SOL    HW1 3387   0.849   3.819   0.493
 1122SOL    HW2 3388   0.709   3.736   0.508
 1123SOL     OW 3389   0.197   4.700   1.264
 1123SOL    HW1 3390   0.286   4.655   1.250
 1123SOL    HW2 3391   0.124   4.635   1.245
 1124SOL     OW 3392   1.525   4.723   0.190
 1124SOL    HW1 3393   1.462   4.647   0.203
 1124SOL    HW2 3394   1.573   4.741   0.276
 1125SOL     OW 3395   0.317   3.975   1.801
 1125SOL    HW1 3396   0.388   4.046   1.807
 1125SOL    HW2 3397   0.229   4.014   1.829
 1126SOL     OW 3398   0.598   4.453   0.270
 1126SOL    HW1 3399   0.622   4.522   0.202
 1126SOL    HW2 3400   0.520   4.486   0.324
 1127SOL     OW 3401   1.281   4.069   0.944
 1127SOL    HW1 3402   1.195   4.019   0.931
 1127SOL    HW2 3403   1.343   4.015   1.000
 1128SOL     OW 3404   0.807   4.329   1.465
 1128SOL    HW1 3405   0.760   4.326   1.554
 1128SOL    HW2 3406   0.756   4.274   1.399
 1129SOL     OW 3407   1.394   4.193   1.674
 1129SOL    HW1 3408   1.374   4.236   1.762
 1129SOL    HW2 3409   1.472   4.131   1.683
 1130SOL     OW 3410   0.973   4.614   1.572
 1130SOL    HW1 3411   1.019   4.530   1.543
 1130SOL    HW2 3412   0.917   4.648   1.497
 1131SOL     OW 3413   0.991   4.134   1.242
 1131SOL    HW1 3414   0.914   4.168   1.296
 1131SOL    HW2 3415   0.957   4.083   1.163
 1132SOL     OW 3416   1.041   4.425   0.429
 1132SOL    HW1 3417   1.067   4.421   0.525
 1132SOL    HW2 3418   0.956   4.374   0.415
 1133SOL     OW 3419   0.076   4.535   0.789
 1133SOL    HW1 3420   0.175   4.523   0.798
 1133SOL    HW2 3421   0.052   4.630   0.810
 1134SOL     OW 3422   0.865   4.072   0.195
 1134SOL    HW1 3423   0.924   4.135   0.146
 1134SOL    HW2 3424   0.884   3.978   0.166
 1135SOL     OW 3425   1.719   4.309   1.831
 1135SOL    HW1 3426   1.693   4.398   1.795
 1135SOL    HW2 3427   1.717   4.241   1.758
 1136SOL     OW 3428   0.550   3.920   0.885
 1136SOL    HW1 3429   0.545   3.915   0.985
 1136SOL    HW2 3430   0.552   4.016   0.856
 1137SOL     OW 3431   1.795   4.790   0.873
 1137SOL    HW1 3432   1.733   4.775   0.797
 1137SOL    HW2 3433   1.743   4.801   0.958
 1138SOL     OW 3434   1.458   4.459   0.728
 1138SOL    HW1 3435   1.453   4.394   0.803
 1138SOL    HW2 3436   1.538   4.518   0.741
 1139SOL     OW 3437   0.202   4.009   1.498
 1139SOL    HW1 3438   0.122   4.069   1.485
 1139SOL    HW2 3439   0.192   3.960   1.584
 1140SOL     OW 3440   1.400   3.831   0.426
 1140SOL    HW1 3441   1.376   3.794   0.336
 1140SOL    HW2 3442   1.499   3.847   0.430
 1141SOL     OW 3443   0.382   4.424   0.480
 1141SOL    HW1 3444   0.427   4.334   0.477
 1141SOL    HW2 3445   0.288   4.413   0.513
 1142SOL     OW 3446   1.547   3.946   1.729
 1142SOL    HW1 3447   1.542   3.983   1.821
 1142SOL    HW2 3448   1.475   3.877   1.717
 1143SOL     OW 3449   0.614   3.846   0.117
 1143SOL    HW1 3450   0.712   3.824   0.124
 1143SOL    HW2 3451   0.583   3.829   0.024
 1144SOL     OW 3452   0.781   3.988   1.749
 1144SOL    HW1 3453   0.848   3.927   1.792
 1144SOL    HW2 3454   0.708   4.007   1.814
 1145SOL     OW 3455   1.351   4.314   1.433
 1145SOL    HW1 3456   1.379   4.271   1.518
 1145SOL    HW2 3457   1.376   4.410   1.434
 1146SOL     OW 3458   0.922   4.227   0.899
 1146SOL    HW1 3459   0.897   4.218   0.803
 1146SOL    HW2 3460   0.970   4.145   0.930
 1147SOL     OW 3461   0.539   3.788   0.512
 1147SOL    HW1 3462   0.458   3.789   0.570
 1147SOL    HW2 3463   0.542   3.871   0.457
 1148SOL     OW 3464   0.935   3.960   0.480
 1148SOL    HW1 3465   0.887   4.001   0.402
 1148SOL    HW2 3466   1.034   3.958   0.461
 1149SOL     OW 3467   1.076   4.407   1.464
 1149SOL    HW1 3468   0.996   4.346   1.467
 1149SOL    HW2 3469   1.157   4.354   1.440
 1150SOL     OW 3470   1.032   4.273   0.016
 1150SOL    HW1 3471   0.991   4.355  -0.023
 1150SOL    HW2 3472   1.096   4.299   0.089
 1151SOL     OW 3473   0.078   4.280   1.386
 1151SOL    HW1 3474   0.170   4.279   1.345
 1151SOL    HW2 3475   0.072   4.354   1.453
 1152SOL     OW 3476   0.561   3.946   1.147
 1152SOL    HW1 3477   0.599   3.862   1.184
 1152SOL    HW2 3478   0.473   3.965   1.191
 1153SOL     OW 3479   0.866   4.178   0.642
 1153SOL    HW1 3480   0.834   4.250   0.580
 1153SOL    HW2 3481   0.890   4.097   0.589
 1154SOL     OW 3482   1.017   3.763   0.753
 1154SOL    HW1 3483   0.945   3.768   0.684
 1154SOL    HW2 3484   0.993   3.694   0.822
 1155SOL     OW 3485   1.429   4.897   0.867
 1155SOL    HW1 3486   1.374   4.813   0.860
 1155SOL    HW2 3487   1.455   4.926   0.775
 1156SOL     OW 3488   1.466   4.314   0.992
 1156SOL    HW1 3489   1.436   4.219   0.999
 1156SOL    HW2 3490   1.539   4.330   1.058
 1157SOL     OW 3491   1.857   4.557   0.377
 1157SOL    HW1 3492   1.899   4.493   0.441
 1157SOL    HW2 3493   1.819   4.506   0.299
 1158SOL     OW 3494   1.390   4.299   0.078
 1158SOL    HW1 3495   1.336   4.278   0.159
 1158SOL    HW2 3496   1.481   4.258   0.087
 1159SOL     OW 3497   0.527   3.980   0.328
 1159SOL    HW1 3498   0.554   3.921   0.253
 1159SOL    HW2 3499   0.527   4.075   0.297
 1160SOL     OW 3500   1.754   4.947   1.588
 1160SOL    HW1 3501   1.845   4.908   1.575
 1160SOL    HW2 3502   1.762   5.043   1.612
 1161SOL     OW 3503   1.638   4.823   1.079
 1161SOL    HW1 3504   1.643   4.904   1.138
 1161SOL    HW2 3505   1.552   4.825   1.028
 1162SOL     OW 3506   0.915   3.813   1.402
 1162SOL    HW1 3507   0.940   3.793   1.307
 1162SOL    HW2 3508   0.987   3.869   1.444
 1163SOL     OW 3509   0.410   4.537   1.251
 1163SOL    HW1 3510   0.496   4.549   1.301
 1163SOL    HW2 3511   0.368   4.450   1.278
 1164SOL     OW 3512   1.274   4.110   1.262
 1164SOL    HW1 3513   1.295   4.184   1.326
 1164SOL    HW2 3514   1.185   4.127   1.219
 1165SOL     OW 3515   0.566   4.261   0.865
 1165SOL    HW1 3516   0.578   4.327   0.791
 1165SOL    HW2 3517   0.612   4.295   0.948
 1166SOL     OW 3518   1.582   4.363   0.472
 1166SOL    HW1 3519   1.551   4.424   0.545
 1166SOL    HW2 3520   1.632   4.415   0.403
 1167SOL     OW 3521   0.402   4.475   1.598
 1167SOL    HW1 3522   0.470   4.530   1.551
 1167SOL    HW2 3523   0.442   4.387   1.625
 1168SOL     OW 3524   1.587   4.503   1.670
 1168SOL    HW1 3525   1.495   4.541   1.665
 1168SOL    HW2 3526   1.647   4.550   1.605
 1169SOL     OW 3527   1.013   3.829   1.770
 1169SOL    HW1 3528   1.019   3.914   1.718
 1169SOL    HW2 3529   1.045   3.753   1.713
 1170SOL     OW 3530   0.504   3.774   1.740
 1170SOL    HW1 3531   0.462   3.717   1.670
 1170SOL    HW2 3532   0.438   3.843   1.772
 1171SOL     OW 3533   0.573   4.594   1.029
 1171SOL    HW1 3534   0.617   4.683   1.020
 1171SOL    HW2 3535   0.510   4.594   1.106
 1172SOL     OW 3536   1.360   4.586   1.045
 1172SOL    HW1 3537   1.285   4.586   0.979
 1172SOL    HW2 3538   1.397   4.494   1.054
 1173SOL     OW 3539   1.209   4.249   0.275
 1173SOL    HW1 3540   1.222   4.165   0.329
 1173SOL    HW2 3541   1.180   4.323   0.335
 1174SOL     OW 3542   0.307   3.937   1.231
 1174SOL    HW1 3543   0.284   3.974   1.321
 1174SOL    HW2 3544   0.277   3.842   1.225
 1175SOL     OW 3545   0.037   5.034   1.282
 1175SOL    HW1 3546   0.090   4.985   1.350
 1175SOL    HW2 3547   0.059   5.132   1.287
 1176SOL     OW 3548   0.732   4.358   1.064
 1176SOL    HW1 3549   0.791   4.332   0.988
 1176SOL    HW2 3550   0.704   4.454   1.053
 1177SOL     OW 3551   1.728   4.659   1.854
 1177SOL    HW1 3552   1.682   4.652   1.765
 1177SOL    HW2 3553   1.666   4.703   1.920
 1178SOL     OW 3554   0.307   3.787   0.618
 1178SOL    HW1 3555   0.296   3.881   0.651
 1178SOL    HW2 3556   0.302   3.724   0.695
 1179SOL     OW 3557   1.622   4.091   0.374
 1179SOL    HW1 3558   1.624   4.015   0.438
 1179SOL    HW2 3559   1.574   4.168   0.414
 1180SOL     OW 3560   1.023   4.490   0.966
 1180SOL    HW1 3561   1.038   4.511   1.062
 1180SOL    HW2 3562   0.993   4.395   0.957
 1181SOL     OW 3563   0.350   4.622   1.804
 1181SOL    HW1 3564   0.426   4.666   1.852
 1181SOL    HW2 3565   0.385   4.575   1.722
 1182SOL     OW 3566   1.540   3.998   0.125
 1182SOL    HW1 3567   1.479   3.923   0.148
 1182SOL    HW2 3568   1.562   4.050   0.208
 1183SOL     OW 3569   1.303   4.562   0.042
 1183SOL    HW1 3570   1.337   4.469   0.057
 1183SOL    HW2 3571   1.321   4.589  -0.053
 1184SOL     OW 3572   0.319   4.534   0.949
 1184SOL    HW1 3573   0.412   4.570   0.954
 1184SOL    HW2 3574   0.313   4.449   1.001
 1185SOL     OW 3575   0.339   4.233   1.006
 1185SOL    HW1 3576   0.287   4.150   0.989
 1185SOL    HW2 3577   0.416   4.238   0.942
 1186SOL     OW 3578   1.138   4.104   1.678
 1186SOL    HW1 3579   1.093   4.167   1.742
 1186SOL    HW2 3580   1.231   4.135   1.661
 1187SOL     OW 3581   1.160   3.931   1.477
 1187SOL    HW1 3582   1.160   3.995   1.554
 1187SOL    HW2 3583   1.188   3.979   1.394
 1188SOL     OW 3584   1.002   4.520   1.238
 1188SOL    HW1 3585   1.043   4.488   1.324
 1188SOL    HW2 3586   0.906   4.493   1.235
 1189SOL     OW 3587   0.040   4.268   1.114
 1189SOL    HW1 3588   0.125   4.235   1.073
 1189SOL    HW2 3589   0.053   4.283   1.212
 1190SOL     OW 3590   0.189   4.244   1.722
 1190SOL    HW1 3591   0.248   4.204   1.652
 1190SOL    HW2 3592   0.131   4.315   1.681
 1191SOL     OW 3593   1.369   4.674   1.660
 1191SOL    HW1 3594   1.408   4.763   1.680
 1191SOL    HW2 3595   1.379   4.654   1.563
 1192SOL     OW 3596   0.815   4.296   0.325
 1192SOL    HW1 3597   0.822   4.207   0.279
 1192SOL    HW2 3598   0.721   4.330   0.317
 1193SOL     OW 3599   1.657   4.328   1.206
 1193SOL    HW1 3600   1.619   4.259   1.268
 1193SOL    HW2 3601   1.739   4.292   1.162
 1194SOL     OW 3602   0.671   4.188   1.269
 1194SOL    HW1 3603   0.637   4.099   1.239
 1194SOL    HW2 3604   0.697   4.242   1.189
 1195SOL     OW 3605   0.473   4.224   0.191
 1195SOL    HW1 3606   0.534   4.304   0.195
 1195SOL    HW2 3607   0.378   4.255   0.198
 1196SOL     OW 3608   0.159   4.861   1.466
 1196SOL    HW1 3609   0.181   4.800   1.542
 1196SOL    HW2 3610   0.169   4.812   1.380
 1197SOL     OW 3611   1.347   4.783   1.234
 1197SOL    HW1 3612   1.371   4.720   1.160
 1197SOL    HW2 3613   1.257   4.823   1.216
 1198SOL     OW 3614   1.302   4.579   0.309
 1198SOL    HW1 3615   1.216   4.548   0.351
 1198SOL    HW2 3616   1.298   4.565   0.210
 1199SOL     OW 3617   0.903   3.810   0.133
 1199SOL    HW1 3618   0.954   3.811   0.047
 1199SOL    HW2 3619   0.959   3.768   0.204
 1200SOL     OW 3620   1.726   3.859   0.523
 1200SOL    HW1 3621   1.799   3.842   0.456
 1200SOL    HW2 3622   1.695   3.772   0.561
 1201SOL     OW 3623   1.280   4.651   0.672
 1201SOL    HW1 3624   1.340   4.570   0.674
 1201SOL    HW2 3625   1.320   4.720   0.612
 1202SOL     OW 3626   1.841   3.899   0.963
 1202SOL    HW1 3627   1.880   3.814   0.927
 1202SOL    HW2 3628   1.743   3.901   0.944
 1203SOL     OW 3629   0.263   4.050   0.720
 1203SOL    HW1 3630   0.184   4.101   0.686
 1203SOL    HW2 3631   0.254   4.035   0.818
 1204SOL     OW 3632   0.916   4.634   0.291
 1204SOL    HW1 3633   0.979   4.672   0.223
 1204SOL    HW2 3634   0.956   4.551   0.330
 1205SOL     OW 3635   1.014   3.960   0.971
 1205SOL    HW1 3636   1.006   3.924   0.878
 1205SOL    HW2 3637   1.012   3.884   1.036
 1206SOL     OW 3638   1.709   4.109   1.381
 1206SOL    HW1 3639   1.782   4.178   1.385
 1206SOL    HW2 3640   1.737   4.034   1.322
 1207SOL     OW 3641   0.105   4.737   1.726
 1207SOL    HW1 3642   0.028   4.704   1.780
 1207SOL    HW2 3643   0.190   4.707   1.768
 1208SOL     OW 3644   0.672   3.927   1.489
 1208SOL    HW1 3645   0.762   3.911   1.449
 1208SOL    HW2 3646   0.680   3.932   1.588
 1209SOL     OW 3647   0.075   4.069   0.033
 1209SOL    HW1 3648  -0.017   4.041   0.004
 1209SOL    HW2 3649   0.106   4.146  -0.023
 1210SOL     OW 3650   1.440   4.580   1.398
 1210SOL    HW1 3651   1.383   4.632   1.335
 1210SOL    HW2 3652   1.536   4.592   1.374
 1211SOL     OW 3653   0.072   3.890   0.318
 1211SOL    HW1 3654   0.055   3.973   0.264
 1211SOL    HW2 3655   0.162   3.853   0.296
 1212SOL     OW 3656   1.183   5.059   0.119
 1212SOL    HW1 3657   1.084   5.048   0.121
 1212SOL    HW2 3658   1.217   5.074   0.212
 1213SOL     OW 3659   0.613   4.566   1.431
 1213SOL    HW1 3660   0.669   4.647   1.414
 1213SOL    HW2 3661   0.672   4.486   1.434
 1214SOL     OW 3662   0.716   4.289   1.708
 1214SOL    HW1 3663   0.735   4.354   1.782
 1214SOL    HW2 3664   0.776   4.209   1.717
 1215SOL     OW 3665   1.674   4.607   1.254
 1215SOL    HW1 3666   1.647   4.518   1.217
 1215SOL    HW2 3667   1.675   4.675   1.181
 1216SOL     OW 3668   1.225   4.049   0.449
 1216SOL    HW1 3669   1.290   3.975   0.438
 1216SOL    HW2 3670   1.245   4.099   0.533
 1217SOL     OW 3671   0.594   4.469   0.652
 1217SOL    HW1 3672   0.644   4.554   0.633
 1217SOL    HW2 3673   0.506   4.471   0.604
 1218SOL     OW 3674   1.777   4.066   1.642
 1218SOL    HW1 3675   1.760   4.097   1.548
 1218SOL    HW2 3676   1.693   4.029   1.680
 1219SOL     OW 3677   1.730   4.658   1.517
 1219SOL    HW1 3678   1.768   4.749   1.532
 1219SOL    HW2 3679   1.722   4.641   1.418
 1220SOL     OW 3680   0.859   4.680   0.861
 1220SOL    HW1 3681   0.913   4.611   0.909
 1220SOL    HW2 3682   0.827   4.749   0.927
 1221SOL     OW 3683   1.083   4.708   0.087
 1221SOL    HW1 3684   1.060   4.761   0.005
 1221SOL    HW2 3685   1.164   4.652   0.068
 1222SOL     OW 3686   1.824   3.916   1.227
 1222SOL    HW1 3687   1.820   3.826   1.271
 1222SOL    HW2 3688   1.827   3.905   1.128
 1223SOL     OW 3689   0.428   4.148   0.520
 1223SOL    HW1 3690   0.458   4.076   0.458
 1223SOL    HW2 3691   0.389   4.108   0.603
 1224SOL     OW 3692   0.317   4.271   1.280
 1224SOL    HW1 3693   0.355   4.212   1.352
 1224SOL    HW2 3694   0.357   4.245   1.192
 1225SOL     OW 3695   1.424   3.938   1.112
 1225SOL    HW1 3696   1.476   3.873   1.167
 1225SOL    HW2 3697   1.375   4.001   1.173
 1226SOL     OW 3698   1.001   3.758   1.154
 1226SOL    HW1 3699   0.938   3.686   1.123
 1226SOL    HW2 3700   1.094   3.722   1.154
 1227SOL     OW 3701   1.352   3.776   0.168
 1227SOL    HW1 3702   1.387   3.735   0.084
 1227SOL    HW2 3703   1.262   3.738   0.188
 1228SOL     OW 3704   1.300   4.177   0.691
 1228SOL    HW1 3705   1.241   4.257   0.695
 1228SOL    HW2 3706   1.315   4.142   0.784
 1229SOL     OW 3707   1.593   3.945   0.882
 1229SOL    HW1 3708   1.509   3.944   0.936
 1229SOL    HW2 3709   1.595   4.028   0.826
 1230SOL     OW 3710   0.039   4.801   0.300
 1230SOL    HW1 3711   0.138   4.790   0.291
 1230SOL    HW2 3712  -0.001   4.715   0.332
 1231SOL     OW 3713   0.230   4.352   1.975
 1231SOL    HW1 3714   0.137   4.350   2.012
 1231SOL    HW2 3715   0.231   4.313   1.883
 1232SOL     OW 3716   0.225   3.999   2.858
 1232SOL    HW1 3717   0.260   3.982   2.950
 1232SOL    HW2 3718   0.137   3.954   2.846
 1233SOL     OW 3719   0.019   4.092   2.509
 1233SOL    HW1 3720  -0.063   4.135   2.548
 1233SOL    HW2 3721  -0.009   4.019   2.446
 1234SOL     OW 3722   1.135   4.427   2.579
 1234SOL    HW1 3723   1.192   4.505   2.554
 1234SOL    HW2 3724   1.075   4.453   2.655
 1235SOL     OW 3725   1.755   4.331   2.093
 1235SOL    HW1 3726   1.743   4.318   1.994
 1235SOL    HW2 3727   1.725   4.250   2.142
 1236SOL     OW 3728   0.768   4.868   2.885
 1236SOL    HW1 3729   0.690   4.885   2.945
 1236SOL    HW2 3730   0.802   4.955   2.849
 1237SOL     OW 3731   0.850   4.522   3.685
 1237SOL    HW1 3732   0.846   4.598   3.750
 1237SOL    HW2 3733   0.872   4.558   3.594
 1238SOL     OW 3734   0.685   4.736   2.527
 1238SOL    HW1 3735   0.754   4.720   2.597
 1238SOL    HW2 3736   0.612   4.793   2.565
 1239SOL     OW 3737   0.438   4.116   3.361
 1239SOL    HW1 3738   0.520   4.060   3.370
 1239SOL    HW2 3739   0.357   4.058   3.365
 1240SOL     OW 3740   1.603   4.171   2.599
 1240SOL    HW1 3741   1.529   4.217   2.549
 1240SOL    HW2 3742   1.654   4.239   2.652
 1241SOL     OW 3743   0.230   5.158   2.400
 1241SOL    HW1 3744   0.204   5.254   2.400
 1241SOL    HW2 3745   0.159   5.104   2.445
 1242SOL     OW 3746   0.240   4.815   2.748
 1242SOL    HW1 3747   0.254   4.731   2.800
 1242SOL    HW2 3748   0.185   4.879   2.803
 1243SOL     OW 3749   0.606   4.688   1.985
 1243SOL    HW1 3750   0.613   4.772   1.931
 1243SOL    HW2 3751   0.652   4.701   2.073
 1244SOL     OW 3752   1.594   3.838   3.342
 1244SOL    HW1 3753   1.576   3.905   3.270
 1244SOL    HW2 3754   1.591   3.884   3.431
 1245SOL     OW 3755   0.122   4.367   2.425
 1245SOL    HW1 3756   0.077   4.279   2.442
 1245SOL    HW2 3757   0.121   4.421   2.509
 1246SOL     OW 3758   1.689   4.646   2.474
 1246SOL    HW1 3759   1.784   4.617   2.482
 1246SOL    HW2 3760   1.681   4.711   2.399
 1247SOL     OW 3761   0.113   4.461   3.459
 1247SOL    HW1 3762   0.201   4.448   3.504
 1247SOL    HW2 3763   0.100   4.558   3.437
 1248SOL     OW 3764   1.293   4.952   3.285
 1248SOL    HW1 3765   1.330   4.879   3.227
 1248SOL    HW2 3766   1.345   4.957   3.370
 1249SOL     OW 3767   0.809   3.728   2.364
 1249SOL    HW1 3768   0.849   3.819   2.355
 1249SOL    HW2 3769   0.709   3.736   2.370
 1250SOL     OW 3770   0.197   4.700   3.126
 1250SOL    HW1 3771   0.286   4.655   3.112
 1250SOL    HW2 3772   0.124   4.635   3.107
 1251SOL     OW 3773   1.525   4.723   2.052
 1251SOL    HW1 3774   1.462   4.647   2.065
 1251SOL    HW2 3775   1.573   4.741   2.138
 1252SOL     OW 3776   0.317   3.975   3.663
 1252SOL    HW1 3777   0.388   4.046   3.669
 1252SOL    HW2 3778   0.229   4.014   3.691
 1253SOL     OW 3779   0.598   4.453   2.132
 1253SOL    HW1 3780   0.622   4.522   2.064
 1253SOL    HW2 3781   0.520   4.486   2.186
 1254SOL     OW 3782   1.281   4.069   2.806
 1254SOL    HW1 3783   1.195   4.019   2.793
 1254SOL    HW2 3784   1.343   4.015   2.862
 1255SOL     OW 3785   0.807   4.329   3.327
 1255SOL    HW1 3786   0.760   4.326   3.416
 1255SOL    HW2 3787   0.756   4.274   3.261
 1256SOL     OW 3788   1.394   4.193   3.536
 1256SOL    HW1 3789   1.374   4.236   3.624
 1256SOL    HW2 3790   1.472   4.131   3.545
 1257SOL     OW 3791   0.973   4.614   3.434
 1257SOL    HW1 3792   1.019   4.530   3.405
 1257SOL    HW2 3793   0.917   4.648   3.359
 1258SOL     OW 3794   0.991   4.134   3.104
 1258SOL    HW1 3795   0.914   4.168   3.158
 1258SOL    HW2 3796   0.957   4.083   3.025
 1259SOL     OW 3797   1.041   4.425   2.291
 1259SOL    HW1 3798   1.067   4.421   2.387
 1259SOL    HW2 3799   0.956   4.374   2.277
 1260SOL     OW 3800   0.076   4.535   2.651
 1260SOL    HW1 3801   0.175   4.523   2.660
 1260SOL    HW2 3802   0.052   4.630   2.672
 1261SOL     OW 3803   0.865   4.072   2.057
 1261SOL    HW1 3804   0.924   4.135   2.008
 1261SOL    HW2 3805   0.884   3.978   2.028
 1262SOL     OW 3806   1.719   4.309   3.693
 1262SOL    HW1 3807   1.693   4.398   3.657
 1262SOL    HW2 3808   1.717   4.241   3.620
 1263SOL     OW 3809   0.550   3.920   2.747
 1263SOL    HW1 3810   0.545   3.915   2.847
 1263SOL    HW2 3811   0.552   4.016   2.718
 1264SOL     OW 3812   1.795   4.790   2.735
 1264SOL    HW1 3813   1.733   4.775   2.659
 1264SOL    HW2 3814   1.743   4.801   2.820
 1265SOL     OW 3815   1.458   4.459   2.590
 1265SOL    HW1 3816   1.453   4.394   2.665
 1265SOL    HW2 3817   1.538   4.518   2.603
 1266SOL     OW 3818   0.202   4.009   3.360
 1266SOL    HW1 3819   0.122   4.069   3.347
 1266SOL    HW2 3820   0.192   3.960   3.446
 1267SOL     OW 3821   1.400   3.831   2.288
 1267SOL    HW1 3822   1.376   3.794   2.198
 1267SOL    HW2 3823   1.499   3.847   2.292
 1268SOL     OW 3824   0.382   4.424   2.342
 1268SOL    HW1 3825   0.427   4.334   2.339
 1268SOL    HW2 3826   0.288   4.413   2.375
 1269SOL     OW 3827   1.547   3.946   3.591
 1269SOL    HW1 3828   1.542   3.983   3.683
 1269SOL    HW2 3829   1.475   3.877   3.579
 1270SOL     OW 3830   0.614   3.846   1.979
 1270SOL    HW1 3831   0.712   3.824   1.986
 1270SOL    HW2 3832   0.583   3.829   1.886
 1271SOL     OW 3833   0.781   3.988   3.611
 1271SOL    HW1 3834   0.848   3.927   3.654
 1271SOL    HW2 3835   0.708   4.007   3.676
 1272SOL     OW 3836   1.351   4.314   3.295
 1272SOL    HW1 3837   1.379   4.271   3.380
 1272SOL    HW2 3838   1.376   4.410   3.296
 1273SOL     OW 3839   0.922   4.227   2.761
 1273SOL    HW1 3840   0.897   4.218   2.665
 1273SOL    HW2 3841   0.970   4.145   2.792
 1274SOL     OW 3842   0.539   3.788   2.374
 1274SOL    HW1 3843   0.458   3.789   2.432
 1274SOL    HW2 3844   0.542   3.871   2.319
 1275SOL     OW 3845   0.297   3.759   2.033
 1275SOL    HW1 3846   0.346   3.843   2.012
 1275SOL    HW2 3847   0.359   3.694   2.078
 1276SOL     OW 3848   0.935   3.960   2.342
 1276SOL    HW1 3849   0.887   4.001   2.264
 1276SOL    HW2 3850   1.034   3.958   2.323
 1277SOL     OW 3851   1.076   4.407   3.326
 1277SOL    HW1 3852   0.996   4.346   3.329
 1277SOL    HW2 3853   1.157   4.354   3.302
 1278SOL     OW 3854   1.032   4.273   1.878
 1278SOL    HW1 3855   0.991   4.355   1.839
 1278SOL    HW2 3856   1.096   4.299   1.951
 1279SOL     OW 3857   0.078   4.280   3.248
 1279SOL    HW1 3858   0.170   4.279   3.207
 1279SOL    HW2 3859   0.072   4.354   3.315
 1280SOL     OW 3860   0.561   3.946   3.009
 1280SOL    HW1 3861   0.599   3.862   3.046
 1280SOL    HW2 3862   0.473   3.965   3.053
 1281SOL     OW 3863   0.866   4.178   2.504
 1281SOL    HW1 3864   0.834   4.250   2.442
 1281SOL    HW2 3865   0.890   4.097   2.451
 1282SOL     OW 3866   1.017   3.763   2.615
 1282SOL    HW1 3867   0.945   3.768   2.546
 1282SOL    HW2 3868   0.993   3.694   2.684
 1283SOL     OW 3869   1.429   4.897   2.729
 1283SOL    HW1 3870   1.374   4.813   2.722
 1283SOL    HW2 3871   1.455   4.926   2.637
 1284SOL     OW 3872   1.466   4.314   2.854
 1284SOL    HW1 3873   1.436   4.219   2.861
 1284SOL    HW2 3874   1.539   4.330   2.920
 1285SOL     OW 3875   1.857   4.557   2.239
 1285SOL    HW1 3876   1.899   4.493   2.303
 1285SOL    HW2 3877   1.819   4.506   2.161
 1286SOL     OW 3878   1.390   4.299   1.940
 1286SOL    HW1 3879   1.336   4.278   2.021
 1286SOL    HW2 3880   1.481   4.258   1.949
 1287SOL     OW 3881   0.527   3.980   2.190
 1287SOL    HW1 3882   0.554   3.921   2.115
 1287SOL    HW2 3883   0.527   4.075   2.159
 1288SOL     OW 3884   1.754   4.947   3.450
 1288SOL    HW1 3885   1.845   4.908   3.437
 1288SOL    HW2 3886   1.762   5.043   3.474
 1289SOL     OW 3887   1.638   4.823   2.941
 1289SOL    HW1 3888   1.643   4.904   3.000
 1289SOL    HW2 3889   1.552   4.825   2.890
 1290SOL     OW 3890   0.915   3.813   3.264
 1290SOL    HW1 3891   0.940   3.793   3.169
 1290SOL    HW2 3892   0.987   3.869   3.306
 1291SOL     OW 3893   0.410   4.537   3.113
 1291SOL    HW1 3894   0.496   4.549   3.163
 1291SOL    HW2 3895   0.368   4.450   3.140
 1292SOL     OW 3896   1.274   4.110   3.124
 1292SOL    HW1 3897   1.295   4.184   3.188
 1292SOL    HW2 3898   1.185   4.127   3.081
 1293SOL     OW 3899   0.566   4.261   2.727
 1293SOL    HW1 3900   0.578   4.327   2.653
 1293SOL    HW2 3901   0.612   4.295   2.810
 1294SOL     OW 3902   1.582   4.363   2.334
 1294SOL    HW1 3903   1.551   4.424   2.407
 1294SOL    HW2 3904   1.632   4.415   2.265
 1295SOL     OW 3905   0.402   4.475   3.460
 1295SOL    HW1 3906   0.470   4.530   3.413
 1295SOL    HW2 3907   0.442   4.387   3.487
 1296SOL     OW 3908   1.587   4.503   3.532
 1296SOL    HW1 3909   1.495   4.541   3.527
 1296SOL    HW2 3910   1.647   4.550   3.467
 1297SOL     OW 3911   1.013   3.829   3.632
 1297SOL    HW1 3912   1.019   3.914   3.580
 1297SOL    HW2 3913   1.045   3.753   3.575
 1298SOL     OW 3914   0.504   3.774   3.602
 1298SOL    HW1 3915   0.462   3.717   3.532
 1298SOL    HW2 3916   0.438   3.843   3.634
 1299SOL     OW 3917   0.573   4.594   2.891
 1299SOL    HW1 3918   0.617   4.683   2.882
 1299SOL    HW2 3919   0.510   4.594   2.968
 1300SOL     OW 3920   1.360   4.586   2.907
 1300SOL    HW1 3921   1.285   4.586   2.841
 1300SOL    HW2 3922   1.397   4.494   2.916
 1301SOL     OW 3923   1.209   4.249   2.137
 1301SOL    HW1 3924   1.222   4.165   2.191
 1301SOL    HW2 3925   1.180   4.323   2.197
 1302SOL     OW 3926   0.307   3.937   3.093
 1302SOL    HW1 3927   0.284   3.974   3.183
 1302SOL    HW2 3928   0.277   3.842   3.087
 1303SOL     OW 3929   0.037   5.034   3.144
 1303SOL    HW1 3930   0.090   4.985   3.212
 1303SOL    HW2 3931   0.059   5.132   3.149
 1304SOL     OW 3932   0.732   4.358   2.926
 1304SOL    HW1 3933   0.791   4.332   2.850
 1304SOL    HW2 3934   0.704   4.454   2.915
 1305SOL     OW 3935   1.728   4.659   3.716
 1305SOL    HW1 3936   1.682   4.652   3.627
 1305SOL    HW2 3937   1.666   4.703   3.782
 1306SOL     OW 3938   0.307   3.787   2.480
 1306SOL    HW1 3939   0.296   3.881   2.513
 1306SOL    HW2 3940   0.302   3.724   2.557
 1307SOL     OW 3941   1.622   4.091   2.236
 1307SOL    HW1 3942   1.624   4.015   2.300
 1307SOL    HW2 3943   1.574   4.168   2.276
 1308SOL     OW 3944   1.023   4.490   2.828
 1308SOL    HW1 3945   1.038   4.511   2.924
 1308SOL    HW2 3946   0.993   4.395   2.819
 1309SOL     OW 3947   0.350   4.622   3.666
 1309SOL    HW1 3948   0.426   4.666   3.714
 1309SOL    HW2 3949   0.385   4.575   3.584
 1310SOL     OW 3950   1.540   3.998   1.987
 1310SOL    HW1 3951   1.479   3.923   2.010
 1310SOL    HW2 3952   1.562   4.050   2.070
 1311SOL     OW 3953   1.303   4.562   1.904
 1311SOL    HW1 3954   1.337   4.469   1.919
 1311SOL    HW2 3955   1.321   4.589   1.809
 1312SOL     OW 3956   0.319   4.534   2.811
 1312SOL    HW1 3957   0.412   4.570   2.816
 1312SOL    HW2 3958   0.313   4.449   2.863
 1313SOL     OW 3959   0.339   4.233   2.868
 1313SOL    HW1 3960   0.287   4.150   2.851
 1313SOL    HW2 3961   0.416   4.238   2.804
 1314SOL     OW 3962   1.138   4.104   3.540
 1314SOL    HW1 3963   1.093   4.167   3.604
 1314SOL    HW2 3964   1.231   4.135   3.523
 1315SOL     OW 3965   1.160   3.931   3.339
 1315SOL    HW1 3966   1.160   3.995   3.416
 1315SOL    HW2 3967   1.188   3.979   3.256
 1316SOL     OW 3968   1.002   4.520   3.100
 1316SOL    HW1 3969   1.043   4.488   3.186
 1316SOL    HW2 3970   0.906   4.493   3.097
 1317SOL     OW 3971   0.040   4.268   2.976
 1317SOL    HW1 3972   0.125   4.235   2.935
 1317SOL    HW2 3973   0.053   4.283   3.074
 1318SOL     OW 3974   0.189   4.244   3.584
 1318SOL    HW1 3975   0.248   4.204   3.514
 1318SOL    HW2 3976   0.131   4.315   3.543
 1319SOL     OW 3977   1.369   4.674   3.522
 1319SOL    HW1 3978   1.408   4.763   3.542
 1319SOL    HW2 3979   1.379   4.654   3.425
 1320SOL     OW 3980   0.815   4.296   2.187
 1320SOL    HW1 3981   0.822   4.207   2.141
 1320SOL    HW2 3982   0.721   4.330   2.179
 1321SOL     OW 3983   1.657   4.328   3.068
 1321SOL    HW1 3984   1.619   4.259   3.130
 1321SOL    HW2 3985   1.739   4.292   3.024
 1322SOL     OW 3986   0.671   4.188   3.131
 1322SOL    HW1 3987   0.637   4.099   3.101
 1322SOL    HW2 3988   0.697   4.242   3.051
 1323SOL     OW 3989   0.473   4.224   2.053
 1323SOL    HW1 3990   0.534   4.304   2.057
 1323SOL    HW2 3991   0.378   4.255   2.060
 1324SOL     OW 3992   0.159   4.861   3.328
 1324SOL    HW1 3993   0.181   4.800   3.404
 1324SOL    HW2 3994   0.169   4.812   3.242
 1325SOL     OW 3995   1.347   4.783   3.096
 1325SOL    HW1 3996   1.371   4.720   3.022
 1325SOL    HW2 3997   1.257   4.823   3.078
 1326SOL     OW 3998   1.302   4.579   2.171
 1326SOL    HW1 3999   1.216   4.548   2.213
 1326SOL    HW2 4000   1.298   4.565   2.072
 1327SOL     OW 4001   1.726   3.859   2.385
 1327SOL    HW1 4002   1.799   3.842   2.318
 1327SOL    HW2 4003   1.695   3.772   2.423
 1328SOL     OW 4004   1.280   4.651   2.534
 1328SOL    HW1 4005   1.340   4.570   2.536
 1328SOL    HW2 4006   1.320   4.720   2.474
 1329SOL     OW 4007   1.841   3.899   2.825
 1329SOL    HW1 4008   1.880   3.814   2.789
 1329SOL    HW2 4009   1.743   3.901   2.806
 1330SOL     OW 4010   0.263   4.050   2.582
 1330SOL    HW1 4011   0.184   4.101   2.548
 1330SOL    HW2 4012   0.254   4.035   2.680
 1331SOL     OW 4013   0.916   4.634   2.153
 1331SOL    HW1 4014   0.979   4.672   2.085
 1331SOL    HW2 4015   0.956   4.551   2.192
 1332SOL     OW 4016   1.014   3.960   2.833
 1332SOL    HW1 4017   1.006   3.924   2.740
 1332SOL    HW2 4018   1.012   3.884   2.898
 1333SOL     OW 4019   1.709   4.109   3.243
 1333SOL    HW1 4020   1.782   4.178   3.247
 1333SOL    HW2 4021   1.737   4.034   3.184
 1334SOL     OW 4022   0.105   4.737   3.588
 1334SOL    HW1 4023   0.028   4.704   3.642
 1334SOL    HW2 4024   0.190   4.707   3.630
 1335SOL     OW 4025   0.672   3.927   3.351
 1335SOL    HW1 4026   0.762   3.911   3.311
 1335SOL    HW2 4027   0.680   3.932   3.450
 1336SOL     OW 4028   0.075   4.069   1.895
 1336SOL    HW1 4029  -0.017   4.041   1.866
 1336SOL    HW2 4030   0.106   4.146   1.839
 1337SOL     OW 4031   1.440   4.580   3.260
 1337SOL    HW1 4032   1.383   4.632   3.197
 1337SOL    HW2 4033   1.536   4.592   3.236
 1338SOL     OW 4034   0.072   3.890   2.180
 1338SOL    HW1 4035   0.055   3.973   2.126
 1338SOL    HW2 4036   0.162   3.853   2.158
 1339SOL     OW 4037   1.183   5.059   1.981
 1339SOL    HW1 4038   1.084   5.048   1.983
 1339SOL    HW2 4039   1.217   5.074   2.074
 1340SOL     OW 4040   0.613   4.566   3.293
 1340SOL    HW1 4041   0.669   4.647   3.276
 1340SOL    HW2 4042   0.672   4.486   3.296
 1341SOL     OW 4043   0.716   4.289   3.570
 1341SOL    HW1 4044   0.735   4.354   3.644
 1341SOL    HW2 4045   0.776   4.209   3.579
 1342SOL     OW 4046   1.674   4.607   3.116
 1342SOL    HW1 4047   1.647   4.518   3.079
 1342SOL    HW2 4048   1.675   4.675   3.043
 1343SOL     OW 4049   1.225   4.049   2.311
 1343SOL    HW1 4050   1.290   3.975   2.300
 1343SOL    HW2 4051   1.245   4.099   2.395
 1344SOL     OW 4052   0.594   4.469   2.514
 1344SOL    HW1 4053   0.644   4.554   2.495
 1344SOL    HW2 4054   0.506   4.471   2.466
 1345SOL     OW 4055   1.777   4.066   3.504
 1345SOL    HW1 4056   1.760   4.097   3.410
 1345SOL    HW2 4057   1.693   4.029   3.542
 1346SOL     OW 4058   1.730   4.658   3.379
 1346SOL    HW1 4059   1.768   4.749   3.394
 1346SOL    HW2 4060   1.722   4.641   3.280
 1347SOL     OW 4061   0.859   4.680   2.723
 1347SOL    HW1 4062   0.913   4.611   2.771
 1347SOL    HW2 4063   0.827   4.749   2.789
 1348SOL     OW 4064   1.083   4.708   1.949
 1348SOL    HW1 4065   1.060   4.761   1.867
 1348SOL    HW2 4066   1.164   4.652   1.930
 1349SOL     OW 4067   1.824   3.916   3.089
 1349SOL    HW1 4068   1.820   3.826   3.133
 1349SOL    HW2 4069   1.827   3.905   2.990
 1350SOL     OW 4070   0.428   4.148   2.382
 1350SOL    HW1 4071   0.458   4.076   2.320
 1350SOL    HW2 4072   0.389   4.108   2.465
 1351SOL     OW 4073   0.317   4.271   3.142
 1351SOL    HW1 4074   0.355   4.212   3.214
 1351SOL    HW2 4075   0.357   4.245   3.054
 1352SOL     OW 4076   1.424   3.938   2.974
 1352SOL    HW1 4077   1.476   3.873   3.029
 1352SOL    HW2 4078   1.375   4.001   3.035
 1353SOL     OW 4079   1.001   3.758   3.016
 1353SOL    HW1 4080   0.938   3.686   2.985
 1353SOL    HW2 4081   1.094   3.722   3.016
 1354SOL     OW 4082   1.352   3.776   2.030
 1354SOL    HW1 4083   1.387   3.735   1.946
 1354SOL    HW2 4084   1.262   3.738   2.050
 1355SOL     OW 4085   1.300   4.177   2.553
 1355SOL    HW1 4086   1.241   4.257   2.557
 1355SOL    HW2 4087   1.315   4.142   2.646
 1356SOL     OW 4088   1.593   3.945   2.744
 1356SOL    HW1 4089   1.509   3.944   2.798
 1356SOL    HW2 4090   1.595   4.028   2.688
 1357SOL     OW 4091   0.039   4.801   2.162
 1357SOL    HW1 4092   0.138   4.790   2.153
 1357SOL    HW2 4093  -0.001   4.715   2.194
 1358SOL     OW 4094   0.230   4.352   3.837
 1358SOL    HW1 4095   0.137   4.350   3.874
 1358SOL    HW2 4096   0.231   4.313   3.745
 1359SOL     OW 4097   0.225   3.999   4.720
 1359SOL    HW1 4098   0.260   3.982   4.812
 1359SOL    HW2 4099   0.137   3.954   4.708
 1360SOL     OW 4100   0.019   4.092   4.371
 1360SOL    HW1 4101  -0.063   4.135   4.410
 1360SOL    HW2 4102  -0.009   4.019   4.308
 1361SOL     OW 4103   1.135   4.427   4.441
 1361SOL    HW1 4104   1.192   4.505   4.416
 1361SOL    HW2 4105   1.075   4.453   4.517
 1362SOL     OW 4106   1.755   4.331   3.955
 1362SOL    HW1 4107   1.743   4.318   3.856
 1362SOL    HW2 4108   1.725   4.250   4.004
 1363SOL     OW 4109   0.768   4.868   4.747
 1363SOL    HW1 4110   0.690   4.885   4.807
 1363SOL    HW2 4111   0.802   4.955   4.711
 1364SOL     OW 4112   0.685   4.736   4.389
 1364SOL    HW1 4113   0.754   4.720   4.459
 1364SOL    HW2 4114   0.612   4.793   4.427
 1365SOL     OW 4115   1.603   4.171   4.461
 1365SOL    HW1 4116   1.529   4.217   4.411
 1365SOL    HW2 4117   1.654   4.239   4.514
 1366SOL     OW 4118   0.230   5.158   4.262
 1366SOL    HW1 4119   0.204   5.254   4.262
 1366SOL    HW2 4120   0.159   5.104   4.307
 1367SOL     OW 4121   0.240   4.815   4.610
 1367SOL    HW1 4122   0.254   4.731   4.662
 1367SOL    HW2 4123   0.185   4.879   4.665
 1368SOL     OW 4124   0.606   4.688   3.847
 1368SOL    HW1 4125   0.613   4.772   3.793
 1368SOL    HW2 4126   0.652   4.701   3.935
 1369SOL     OW 4127   0.122   4.367   4.287
 1369SOL    HW1 4128   0.077   4.279   4.304
 1369SOL    HW2 4129   0.121   4.421   4.371
 1370SOL     OW 4130   1.689   4.646   4.336
 1370SOL    HW1 4131   1.784   4.617   4.344
 1370SOL    HW2 4132   1.681   4.711   4.261
 1371SOL     OW 4133   0.809   3.728   4.226
 1371SOL    HW1 4134   0.849   3.819   4.217
 1371SOL    HW2 4135   0.709   3.736   4.232
 1372SOL     OW 4136   0.197   4.700   4.988
 1372SOL    HW1 4137   0.286   4.655   4.974
 1372SOL    HW2 4138   0.124   4.635   4.969
 1373SOL     OW 4139   1.525   4.723   3.914
 1373SOL    HW1 4140   1.462   4.647   3.927
 1373SOL    HW2 4141   1.573   4.741   4.000
 1374SOL     OW 4142   0.598   4.453   3.994
 1374SOL    HW1 4143   0.622   4.522   3.926
 1374SOL    HW2 4144   0.520   4.486   4.048
 1375SOL     OW 4145   1.281   4.069   4.668
 1375SOL    HW1 4146   1.195   4.019   4.655
 1375SOL    HW2 4147   1.343   4.015   4.724
 1376SOL     OW 4148   1.041   4.425   4.153
 1376SOL    HW1 4149   1.067   4.421   4.249
 1376SOL    HW2 4150   0.956   4.374   4.139
 1377SOL     OW 4151   0.076   4.535   4.513
 1377SOL    HW1 4152   0.175   4.523   4.522
 1377SOL    HW2 4153   0.052   4.630   4.534
 1378SOL     OW 4154   0.865   4.072   3.919
 1378SOL    HW1 4155   0.924   4.135   3.870
 1378SOL    HW2 4156   0.884   3.978   3.890
 1379SOL     OW 4157   0.550   3.920   4.609
 1379SOL    HW1 4158   0.545   3.915   4.709
 1379SOL    HW2 4159   0.552   4.016   4.580
 1380SOL     OW 4160   1.795   4.790   4.597
 1380SOL    HW1 4161   1.733   4.775   4.521
 1380SOL    HW2 4162   1.743   4.801   4.682
 1381SOL     OW 4163   1.458   4.459   4.452
 1381SOL    HW1 4164   1.453   4.394   4.527
 1381SOL    HW2 4165   1.538   4.518   4.465
 1382SOL     OW 4166   1.400   3.831   4.150
 1382SOL    HW1 4167   1.376   3.794   4.060
 1382SOL    HW2 4168   1.499   3.847   4.154
 1383SOL     OW 4169   0.382   4.424   4.204
 1383SOL    HW1 4170   0.427   4.334   4.201
 1383SOL    HW2 4171   0.288   4.413   4.237
 1384SOL     OW 4172   0.614   3.846   3.841
 1384SOL    HW1 4173   0.712   3.824   3.848
 1384SOL    HW2 4174   0.583   3.829   3.748
 1385SOL     OW 4175   0.922   4.227   4.623
 1385SOL    HW1 4176   0.897   4.218   4.527
 1385SOL    HW2 4177   0.970   4.145   4.654
 1386SOL     OW 4178   0.539   3.788   4.236
 1386SOL    HW1 4179   0.458   3.789   4.294
 1386SOL    HW2 4180   0.542   3.871   4.181
 1387SOL     OW 4181   0.297   3.759   3.895
 1387SOL    HW1 4182   0.346   3.843   3.874
 1387SOL    HW2 4183   0.359   3.694   3.940
 1388SOL     OW 4184   0.935   3.960   4.204
 1388SOL    HW1 4185   0.887   4.001   4.126
 1388SOL    HW2 4186   1.034   3.958   4.185
 1389SOL     OW 4187   1.032   4.273   3.740
 1389SOL    HW1 4188   0.991   4.355   3.701
 1389SOL    HW2 4189   1.096   4.299   3.813
 1390SOL     OW 4190   0.866   4.178   4.366
 1390SOL    HW1 4191   0.834   4.250   4.304
 1390SOL    HW2 4192   0.890   4.097   4.313
 1391SOL     OW 4193   1.017   3.763   4.477
 1391SOL    HW1 4194   0.945   3.768   4.408
 1391SOL    HW2 4195   0.993   3.694   4.546
 1392SOL     OW 4196   1.429   4.897   4.591
 1392SOL    HW1 4197   1.374   4.813   4.584
 1392SOL    HW2 4198   1.455   4.926   4.499
 1393SOL     OW 4199   1.466   4.314   4.716
 1393SOL    HW1 4200   1.436   4.219   4.723
 1393SOL    HW2 4201   1.539   4.330   4.782
 1394SOL     OW 4202   1.857   4.557   4.101
 1394SOL    HW1 4203   1.899   4.493   4.165
 1394SOL    HW2 4204   1.819   4.506   4.023
 1395SOL     OW 4205   1.390   4.299   3.802
 1395SOL    HW1 4206   1.336   4.278   3.883
 1395SOL    HW2 4207   1.481   4.258   3.811
 1396SOL     OW 4208   0.527   3.980   4.052
 1396SOL    HW1 4209   0.554   3.921   3.977
 1396SOL    HW2 4210   0.527   4.075   4.021
 1397SOL     OW 4211   1.638   4.823   4.803
 1397SOL    HW1 4212   1.643   4.904   4.862
 1397SOL    HW2 4213   1.552   4.825   4.752
 1398SOL     OW 4214   0.566   4.261   4.589
 1398SOL    HW1 4215   0.578   4.327   4.515
 1398SOL    HW2 4216   0.612   4.295   4.672
 1399SOL     OW 4217   1.582   4.363   4.196
 1399SOL    HW1 4218   1.551   4.424   4.269
 1399SOL    HW2 4219   1.632   4.415   4.127
 1400SOL     OW 4220   0.573   4.594   4.753
 1400SOL    HW1 4221   0.617   4.683   4.744
 1400SOL    HW2 4222   0.510   4.594   4.830
 1401SOL     OW 4223   1.209   4.249   3.999
 1401SOL    HW1 4224   1.222   4.165   4.053
 1401SOL    HW2 4225   1.180   4.323   4.059
 1402SOL     OW 4226   0.307   3.937   4.955
 1402SOL    HW1 4227   0.284   3.974   5.045
 1402SOL    HW2 4228   0.277   3.842   4.949
 1403SOL     OW 4229   0.732   4.358   4.788
 1403SOL    HW1 4230   0.791   4.332   4.712
 1403SOL    HW2 4231   0.704   4.454   4.777
 1404SOL     OW 4232   0.307   3.787   4.342
 1404SOL    HW1 4233   0.296   3.881   4.375
 1404SOL    HW2 4234   0.302   3.724   4.419
 1405SOL     OW 4235   1.622   4.091   4.098
 1405SOL    HW1 4236   1.624   4.015   4.162
 1405SOL    HW2 4237   1.574   4.168   4.138
 1406SOL     OW 4238   1.023   4.490   4.690
 1406SOL    HW1 4239   1.038   4.511   4.786
 1406SOL    HW2 4240   0.993   4.395   4.681
 1407SOL     OW 4241   1.540   3.998   3.849
 1407SOL    HW1 4242   1.479   3.923   3.872
 1407SOL    HW2 4243   1.562   4.050   3.932
 1408SOL     OW 4244   1.303   4.562   3.766
 1408SOL    HW1 4245   1.337   4.469   3.781
 1408SOL    HW2 4246   1.321   4.589   3.671
 1409SOL     OW 4247   0.319   4.534   4.673
 1409SOL    HW1 4248   0.412   4.570   4.678
 1409SOL    HW2 4249   0.313   4.449   4.725
 1410SOL     OW 4250   0.339   4.233   4.730
 1410SOL    HW1 4251   0.287   4.150   4.713
 1410SOL    HW2 4252   0.416   4.238   4.666
 1411SOL     OW 4253   1.002   4.520   4.962
 1411SOL    HW1 4254   1.043   4.488   5.048
 1411SOL    HW2 4255   0.906   4.493   4.959
 1412SOL     OW 4256   0.815   4.296   4.049
 1412SOL    HW1 4257   0.822   4.207   4.003
 1412SOL    HW2 4258   0.721   4.330   4.041
 1413SOL     OW 4259   0.671   4.188   4.993
 1413SOL    HW1 4260   0.637   4.099   4.963
 1413SOL    HW2 4261   0.697   4.242   4.913
 1414SOL     OW 4262   0.473   4.224   3.915
 1414SOL    HW1 4263   0.534   4.304   3.919
 1414SOL    HW2 4264   0.378   4.255   3.922
 1415SOL     OW 4265   1.302   4.579   4.033
 1415SOL    HW1 4266   1.216   4.548   4.075
 1415SOL    HW2 4267   1.298   4.565   3.934
 1416SOL     OW 4268   1.726   3.859   4.247
 1416SOL    HW1 4269   1.799   3.842   4.180
 1416SOL    HW2 4270   1.695   3.772   4.285
 1417SOL     OW 4271   1.280   4.651   4.396
 1417SOL    HW1 4272   1.340   4.570   4.398
 1417SOL    HW2 4273   1.320   4.720   4.336
 1418SOL     OW 4274   1.841   3.899   4.687
 1418SOL    HW1 4275   1.880   3.814   4.651
 1418SOL    HW2 4276   1.743   3.901   4.668
 1419SOL     OW 4277   0.263   4.050   4.444
 1419SOL    HW1 4278   0.184   4.101   4.410
 1419SOL    HW2 4279   0.254   4.035   4.542
 1420SOL     OW 4280   0.916   4.634   4.015
 1420SOL    HW1 4281   0.979   4.672   3.947
 1420SOL    HW2 4282   0.956   4.551   4.054
 1421SOL     OW 4283   1.014   3.960   4.695
 1421SOL    HW1 4284   1.006   3.924   4.602
 1421SOL    HW2 4285   1.012   3.884   4.760
 1422SOL     OW 4286   0.075   4.069   3.757
 1422SOL    HW1 4287  -0.017   4.041   3.728
 1422SOL    HW2 4288   0.106   4.146   3.701
 1423SOL     OW 4289   0.072   3.890   4.042
 1423SOL    HW1 4290   0.055   3.973   3.988
 1423SOL    HW2 4291   0.162   3.853   4.020
 1424SOL     OW 4292   1.183   5.059   3.843
 1424SOL    HW1 4293   1.084   5.048   3.845
 1424SOL    HW2 4294   1.217   5.074   3.936
 1425SOL     OW 4295   1.674   4.607   4.978
 1425SOL    HW1 4296   1.647   4.518   4.941
 1425SOL    HW2 4297   1.675   4.675   4.905
 1426SOL     OW 4298   1.225   4.049   4.173
 1426SOL    HW1 4299   1.290   3.975   4.162
 1426SOL    HW2 4300   1.245   4.099   4.257
 1427SOL     OW 4301   0.594   4.469   4.376
 1427SOL    HW1 4302   0.644   4.554   4.357
 1427SOL    HW2 4303   0.506   4.471   4.328
 1428SOL     OW 4304   0.859   4.680   4.585
 1428SOL    HW1 4305   0.913   4.611   4.633
 1428SOL    HW2 4306   0.827   4.749   4.651
 1429SOL     OW 4307   1.083   4.708   3.811
 1429SOL    HW1 4308   1.060   4.761   3.729
 1429SOL    HW2 4309   1.164   4.652   3.792
 1430SOL     OW 4310   1.824   3.916   4.951
 1430SOL    HW1 4311   1.820   3.826   4.995
 1430SOL    HW2 4312   1.827   3.905   4.852
 1431SOL     OW 4313   0.428   4.148   4.244
 1431SOL    HW1 4314   0.458   4.076   4.182
 1431SOL    HW2 4315   0.389   4.108   4.327
 1432SOL     OW 4316   1.352   3.776   3.892
 1432SOL    HW1 4317   1.387   3.735   3.808
 1432SOL    HW2 4318   1.262   3.738   3.912
 1433SOL     OW 4319   1.300   4.177   4.415
 1433SOL    HW1 4320   1.241   4.257   4.419
 1433SOL    HW2 4321   1.315   4.142   4.508
 1434SOL     OW 4322   1.593   3.945   4.606
 1434SOL    HW1 4323   1.509   3.944   4.660
 1434SOL    HW2 4324   1.595   4.028   4.550
 1435SOL     OW 4325   0.039   4.801   4.024
 1435SOL    HW1 4326   0.138   4.790   4.015
 1435SOL    HW2 4327  -0.001   4.715   4.056
 1436SOL     OW 4328   2.092   0.628   0.113
 1436SOL    HW1 4329   1.999   0.626   0.150
 1436SOL    HW2 4330   2.093   0.589   0.021
 1437SOL     OW 4331   2.087   0.275   0.996
 1437SOL    HW1 4332   2.122   0.258   1.088
 1437SOL    HW2 4333   1.999   0.230   0.984
 1438SOL     OW 4334   1.881   0.368   0.647
 1438SOL    HW1 4335   1.799   0.411   0.686
 1438SOL    HW2 4336   1.853   0.295   0.584
 1439SOL     OW 4337   2.431   1.275   1.165
 1439SOL    HW1 4338   2.338   1.268   1.128
 1439SOL    HW2 4339   2.442   1.364   1.209
 1440SOL     OW 4340   3.417   1.511   0.703
 1440SOL    HW1 4341   3.360   1.495   0.784
 1440SOL    HW2 4342   3.358   1.521   0.623
 1441SOL     OW 4343   2.997   0.703   0.717
 1441SOL    HW1 4344   3.054   0.781   0.692
 1441SOL    HW2 4345   2.937   0.729   0.793
 1442SOL     OW 4346   3.617   0.607   0.231
 1442SOL    HW1 4347   3.605   0.594   0.132
 1442SOL    HW2 4348   3.587   0.526   0.280
 1443SOL     OW 4349   2.630   1.144   1.023
 1443SOL    HW1 4350   2.552   1.161   1.083
 1443SOL    HW2 4351   2.664   1.231   0.987
 1444SOL     OW 4352   2.712   0.798   1.823
 1444SOL    HW1 4353   2.708   0.874   1.888
 1444SOL    HW2 4354   2.734   0.834   1.732
 1445SOL     OW 4355   2.547   1.012   0.665
 1445SOL    HW1 4356   2.616   0.996   0.735
 1445SOL    HW2 4357   2.474   1.069   0.703
 1446SOL     OW 4358   2.548   1.161   1.803
 1446SOL    HW1 4359   2.608   1.240   1.817
 1446SOL    HW2 4360   2.462   1.192   1.762
 1447SOL     OW 4361   2.197   1.435   1.061
 1447SOL    HW1 4362   2.119   1.404   1.008
 1447SOL    HW2 4363   2.255   1.493   1.004
 1448SOL     OW 4364   3.322   1.505   1.339
 1448SOL    HW1 4365   3.346   1.599   1.365
 1448SOL    HW2 4366   3.306   1.451   1.421
 1449SOL     OW 4367   2.300   0.392   1.499
 1449SOL    HW1 4368   2.382   0.336   1.508
 1449SOL    HW2 4369   2.219   0.334   1.503
 1450SOL     OW 4370   3.465   0.447   0.737
 1450SOL    HW1 4371   3.391   0.493   0.687
 1450SOL    HW2 4372   3.516   0.515   0.790
 1451SOL     OW 4373   2.093   1.713   0.483
 1451SOL    HW1 4374   2.127   1.790   0.537
 1451SOL    HW2 4375   2.137   1.713   0.393
 1452SOL     OW 4376   2.989   1.341   1.690
 1452SOL    HW1 4377   3.036   1.341   1.778
 1452SOL    HW2 4378   2.941   1.254   1.679
 1453SOL     OW 4379   2.092   1.434   0.538
 1453SOL    HW1 4380   2.066   1.530   0.538
 1453SOL    HW2 4381   2.021   1.380   0.583
 1454SOL     OW 4382   2.102   1.091   0.886
 1454SOL    HW1 4383   2.116   1.007   0.938
 1454SOL    HW2 4384   2.047   1.155   0.941
 1455SOL     OW 4385   2.482   1.786   1.439
 1455SOL    HW1 4386   2.390   1.769   1.474
 1455SOL    HW2 4387   2.510   1.878   1.465
 1456SOL     OW 4388   2.468   0.964   0.123
 1456SOL    HW1 4389   2.475   1.048   0.069
 1456SOL    HW2 4390   2.514   0.977   0.211
 1457SOL     OW 4391   3.456   0.114   1.480
 1457SOL    HW1 4392   3.438   0.181   1.408
 1457SOL    HW2 4393   3.453   0.160   1.569
 1458SOL     OW 4394   1.984   0.643   0.563
 1458SOL    HW1 4395   1.939   0.555   0.580
 1458SOL    HW2 4396   1.983   0.697   0.647
 1459SOL     OW 4397   3.704   1.767   0.359
 1459SOL    HW1 4398   3.758   1.738   0.439
 1459SOL    HW2 4399   3.734   1.857   0.330
 1460SOL     OW 4400   1.889   1.596   0.117
 1460SOL    HW1 4401   1.870   1.500   0.138
 1460SOL    HW2 4402   1.856   1.654   0.192
 1461SOL     OW 4403   3.551   0.922   0.612
 1461SOL    HW1 4404   3.646   0.893   0.620
 1461SOL    HW2 4405   3.543   0.987   0.537
 1462SOL     OW 4406   3.503   1.108   0.432
 1462SOL    HW1 4407   3.589   1.110   0.380
 1462SOL    HW2 4408   3.517   1.155   0.520
 1463SOL     OW 4409   1.975   0.737   1.597
 1463SOL    HW1 4410   2.063   0.724   1.642
 1463SOL    HW2 4411   1.962   0.834   1.575
 1464SOL     OW 4412   2.475   1.365   0.726
 1464SOL    HW1 4413   2.426   1.278   0.735
 1464SOL    HW2 4414   2.452   1.408   0.639
 1465SOL     OW 4415   3.155   1.228   1.423
 1465SOL    HW1 4416   3.192   1.155   1.365
 1465SOL    HW2 4417   3.207   1.233   1.508
 1466SOL     OW 4418   2.671   0.004   0.502
 1466SOL    HW1 4419   2.711   0.095   0.493
 1466SOL    HW2 4420   2.571   0.012   0.508
 1467SOL     OW 4421   2.059   0.976   1.264
 1467SOL    HW1 4422   2.148   0.931   1.250
 1467SOL    HW2 4423   1.986   0.911   1.245
 1468SOL     OW 4424   3.387   0.999   0.190
 1468SOL    HW1 4425   3.324   0.923   0.203
 1468SOL    HW2 4426   3.435   1.017   0.276
 1469SOL     OW 4427   3.049   1.792   1.616
 1469SOL    HW1 4428   3.073   1.852   1.540
 1469SOL    HW2 4429   3.056   1.697   1.586
 1470SOL     OW 4430   2.179   0.251   1.801
 1470SOL    HW1 4431   2.250   0.322   1.807
 1470SOL    HW2 4432   2.091   0.290   1.829
 1471SOL     OW 4433   3.328   1.417   0.953
 1471SOL    HW1 4434   3.269   1.423   1.033
 1471SOL    HW2 4435   3.313   1.329   0.907
 1472SOL     OW 4436   3.529   1.714   0.572
 1472SOL    HW1 4437   3.488   1.691   0.484
 1472SOL    HW2 4438   3.511   1.640   0.637
 1473SOL     OW 4439   2.460   0.729   0.270
 1473SOL    HW1 4440   2.484   0.798   0.202
 1473SOL    HW2 4441   2.382   0.762   0.324
 1474SOL     OW 4442   3.143   0.345   0.944
 1474SOL    HW1 4443   3.057   0.295   0.931
 1474SOL    HW2 4444   3.205   0.291   1.000
 1475SOL     OW 4445   3.438   1.662   0.307
 1475SOL    HW1 4446   3.527   1.708   0.310
 1475SOL    HW2 4447   3.417   1.638   0.212
 1476SOL     OW 4448   2.669   0.605   1.465
 1476SOL    HW1 4449   2.622   0.602   1.554
 1476SOL    HW2 4450   2.618   0.550   1.399
 1477SOL     OW 4451   3.256   0.469   1.674
 1477SOL    HW1 4452   3.236   0.512   1.762
 1477SOL    HW2 4453   3.334   0.407   1.683
 1478SOL     OW 4454   2.835   0.890   1.572
 1478SOL    HW1 4455   2.881   0.806   1.543
 1478SOL    HW2 4456   2.779   0.924   1.497
 1479SOL     OW 4457   2.853   0.410   1.242
 1479SOL    HW1 4458   2.776   0.444   1.296
 1479SOL    HW2 4459   2.819   0.359   1.163
 1480SOL     OW 4460   2.903   0.701   0.429
 1480SOL    HW1 4461   2.929   0.697   0.525
 1480SOL    HW2 4462   2.818   0.650   0.415
 1481SOL     OW 4463   1.938   0.811   0.789
 1481SOL    HW1 4464   2.037   0.799   0.798
 1481SOL    HW2 4465   1.914   0.906   0.810
 1482SOL     OW 4466   1.992   1.821   1.571
 1482SOL    HW1 4467   1.982   1.806   1.670
 1482SOL    HW2 4468   1.906   1.857   1.535
 1483SOL     OW 4469   2.727   0.348   0.195
 1483SOL    HW1 4470   2.786   0.411   0.146
 1483SOL    HW2 4471   2.746   0.254   0.166
 1484SOL     OW 4472   3.581   0.585   1.831
 1484SOL    HW1 4473   3.555   0.674   1.795
 1484SOL    HW2 4474   3.579   0.517   1.758
 1485SOL     OW 4475   3.224   1.144   0.545
 1485SOL    HW1 4476   3.307   1.115   0.497
 1485SOL    HW2 4477   3.175   1.211   0.489
 1486SOL     OW 4478   2.412   0.196   0.885
 1486SOL    HW1 4479   2.407   0.191   0.985
 1486SOL    HW2 4480   2.414   0.292   0.856
 1487SOL     OW 4481   2.870   1.456   0.477
 1487SOL    HW1 4482   2.824   1.528   0.425
 1487SOL    HW2 4483   2.866   1.476   0.575
 1488SOL     OW 4484   2.213   1.801   0.853
 1488SOL    HW1 4485   2.263   1.715   0.859
 1488SOL    HW2 4486   2.278   1.878   0.850
 1489SOL     OW 4487   3.657   1.066   0.873
 1489SOL    HW1 4488   3.595   1.051   0.797
 1489SOL    HW2 4489   3.605   1.077   0.958
 1490SOL     OW 4490   3.089   1.550   1.506
 1490SOL    HW1 4491   3.095   1.473   1.570
 1490SOL    HW2 4492   3.037   1.524   1.426
 1491SOL     OW 4493   2.183   0.943   0.242
 1491SOL    HW1 4494   2.265   0.982   0.200
 1491SOL    HW2 4495   2.156   0.861   0.193
 1492SOL     OW 4496   3.320   0.735   0.728
 1492SOL    HW1 4497   3.315   0.670   0.803
 1492SOL    HW2 4498   3.400   0.794   0.741
 1493SOL     OW 4499   2.323   1.266   1.727
 1493SOL    HW1 4500   2.273   1.267   1.641
 1493SOL    HW2 4501   2.260   1.248   1.803
 1494SOL     OW 4502   2.973   1.776   0.237
 1494SOL    HW1 4503   2.913   1.714   0.287
 1494SOL    HW2 4504   3.004   1.732   0.152
 1495SOL     OW 4505   2.064   0.285   1.498
 1495SOL    HW1 4506   1.984   0.345   1.485
 1495SOL    HW2 4507   2.054   0.236   1.584
 1496SOL     OW 4508   3.494   1.377   0.081
 1496SOL    HW1 4509   3.462   1.471   0.071
 1496SOL    HW2 4510   3.418   1.314   0.069
 1497SOL     OW 4511   2.326   1.743   0.323
 1497SOL    HW1 4512   2.359   1.782   0.409
 1497SOL    HW2 4513   2.402   1.736   0.258
 1498SOL     OW 4514   3.262   0.107   0.426
 1498SOL    HW1 4515   3.238   0.070   0.336
 1498SOL    HW2 4516   3.361   0.123   0.430
 1499SOL     OW 4517   2.111   1.785   1.241
 1499SOL    HW1 4518   2.168   1.720   1.291
 1499SOL    HW2 4519   2.095   1.752   1.148
 1500SOL     OW 4520   2.802   1.698   0.904
 1500SOL    HW1 4521   2.882   1.641   0.925
 1500SOL    HW2 4522   2.753   1.658   0.827
 1501SOL     OW 4523   2.244   0.700   0.480
 1501SOL    HW1 4524   2.289   0.610   0.477
 1501SOL    HW2 4525   2.150   0.689   0.513
 1502SOL     OW 4526   3.409   0.222   1.729
 1502SOL    HW1 4527   3.404   0.259   1.821
 1502SOL    HW2 4528   3.337   0.153   1.717
 1503SOL     OW 4529   2.476   0.122   0.117
 1503SOL    HW1 4530   2.574   0.100   0.124
 1503SOL    HW2 4531   2.445   0.105   0.024
 1504SOL     OW 4532   2.643   0.264   1.749
 1504SOL    HW1 4533   2.710   0.203   1.792
 1504SOL    HW2 4534   2.570   0.283   1.814
 1505SOL     OW 4535   2.750   1.514   1.195
 1505SOL    HW1 4536   2.727   1.489   1.101
 1505SOL    HW2 4537   2.811   1.445   1.234
 1506SOL     OW 4538   3.213   0.590   1.433
 1506SOL    HW1 4539   3.241   0.547   1.518
 1506SOL    HW2 4540   3.238   0.686   1.434
 1507SOL     OW 4541   2.665   1.402   0.924
 1507SOL    HW1 4542   2.755   1.416   0.882
 1507SOL    HW2 4543   2.594   1.404   0.853
 1508SOL     OW 4544   2.784   0.503   0.899
 1508SOL    HW1 4545   2.759   0.494   0.803
 1508SOL    HW2 4546   2.832   0.421   0.930
 1509SOL     OW 4547   2.401   0.064   0.512
 1509SOL    HW1 4548   2.320   0.065   0.570
 1509SOL    HW2 4549   2.404   0.147   0.457
 1510SOL     OW 4550   3.296   1.188   0.041
 1510SOL    HW1 4551   3.328   1.112   0.098
 1510SOL    HW2 4552   3.204   1.215   0.071
 1511SOL     OW 4553   2.159   0.035   0.171
 1511SOL    HW1 4554   2.208   0.119   0.150
 1511SOL    HW2 4555   2.221  -0.030   0.216
 1512SOL     OW 4556   2.797   0.236   0.480
 1512SOL    HW1 4557   2.749   0.277   0.402
 1512SOL    HW2 4558   2.896   0.234   0.461
 1513SOL     OW 4559   2.938   0.683   1.464
 1513SOL    HW1 4560   2.858   0.622   1.467
 1513SOL    HW2 4561   3.019   0.630   1.440
 1514SOL     OW 4562   3.089   1.570   0.793
 1514SOL    HW1 4563   3.110   1.644   0.728
 1514SOL    HW2 4564   3.157   1.570   0.866
 1515SOL     OW 4565   2.321   1.152   0.741
 1515SOL    HW1 4566   2.250   1.125   0.806
 1515SOL    HW2 4567   2.295   1.124   0.648
 1516SOL     OW 4568   3.133   1.797   0.591
 1516SOL    HW1 4569   3.177   1.861   0.527
 1516SOL    HW2 4570   3.083   1.849   0.661
 1517SOL     OW 4571   2.894   0.549   0.016
 1517SOL    HW1 4572   2.853   0.631  -0.023
 1517SOL    HW2 4573   2.958   0.575   0.089
 1518SOL     OW 4574   1.940   0.556   1.386
 1518SOL    HW1 4575   2.032   0.555   1.345
 1518SOL    HW2 4576   1.934   0.630   1.453
 1519SOL     OW 4577   2.423   0.222   1.147
 1519SOL    HW1 4578   2.461   0.138   1.184
 1519SOL    HW2 4579   2.335   0.241   1.191
 1520SOL     OW 4580   2.728   0.454   0.642
 1520SOL    HW1 4581   2.696   0.526   0.580
 1520SOL    HW2 4582   2.752   0.373   0.589
 1521SOL     OW 4583   2.879   0.039   0.753
 1521SOL    HW1 4584   2.807   0.044   0.684
 1521SOL    HW2 4585   2.855  -0.030   0.822
 1522SOL     OW 4586   3.291   1.173   0.867
 1522SOL    HW1 4587   3.236   1.089   0.860
 1522SOL    HW2 4588   3.317   1.202   0.775
 1523SOL     OW 4589   3.328   0.590   0.992
 1523SOL    HW1 4590   3.298   0.495   0.999
 1523SOL    HW2 4591   3.401   0.606   1.058
 1524SOL     OW 4592   3.719   0.833   0.377
 1524SOL    HW1 4593   3.761   0.769   0.441
 1524SOL    HW2 4594   3.681   0.782   0.299
 1525SOL     OW 4595   2.350   1.385   0.174
 1525SOL    HW1 4596   2.263   1.370   0.221
 1525SOL    HW2 4597   2.333   1.411   0.079
 1526SOL     OW 4598   3.526   1.280   0.657
 1526SOL    HW1 4599   3.625   1.288   0.671
 1526SOL    HW2 4600   3.481   1.364   0.688
 1527SOL     OW 4601   3.252   0.575   0.078
 1527SOL    HW1 4602   3.198   0.554   0.159
 1527SOL    HW2 4603   3.343   0.534   0.087
 1528SOL     OW 4604   2.389   0.256   0.328
 1528SOL    HW1 4605   2.416   0.197   0.253
 1528SOL    HW2 4606   2.389   0.351   0.297
 1529SOL     OW 4607   3.616   1.223   1.588
 1529SOL    HW1 4608   3.707   1.184   1.575
 1529SOL    HW2 4609   3.624   1.319   1.612
 1530SOL     OW 4610   2.926   1.347   1.340
 1530SOL    HW1 4611   2.846   1.324   1.395
 1530SOL    HW2 4612   3.009   1.321   1.389
 1531SOL     OW 4613   3.454   1.629   1.625
 1531SOL    HW1 4614   3.481   1.663   1.535
 1531SOL    HW2 4615   3.533   1.591   1.671
 1532SOL     OW 4616   2.973   1.195   1.100
 1532SOL    HW1 4617   2.933   1.239   1.181
 1532SOL    HW2 4618   2.932   1.232   1.017
 1533SOL     OW 4619   3.500   1.099   1.079
 1533SOL    HW1 4620   3.505   1.180   1.138
 1533SOL    HW2 4621   3.414   1.101   1.028
 1534SOL     OW 4622   2.777   0.089   1.402
 1534SOL    HW1 4623   2.802   0.069   1.307
 1534SOL    HW2 4624   2.849   0.145   1.444
 1535SOL     OW 4625   2.842   1.116   1.719
 1535SOL    HW1 4626   2.743   1.122   1.729
 1535SOL    HW2 4627   2.865   1.036   1.663
 1536SOL     OW 4628   2.567   1.050   0.368
 1536SOL    HW1 4629   2.553   1.057   0.467
 1536SOL    HW2 4630   2.651   0.999   0.350
 1537SOL     OW 4631   2.272   0.813   1.251
 1537SOL    HW1 4632   2.358   0.825   1.301
 1537SOL    HW2 4633   2.230   0.726   1.278
 1538SOL     OW 4634   3.136   0.386   1.262
 1538SOL    HW1 4635   3.157   0.460   1.326
 1538SOL    HW2 4636   3.047   0.403   1.219
 1539SOL     OW 4637   1.926   1.564   1.331
 1539SOL    HW1 4638   1.880   1.646   1.297
 1539SOL    HW2 4639   2.024   1.583   1.340
 1540SOL     OW 4640   2.229   1.100   0.501
 1540SOL    HW1 4641   2.222   1.183   0.445
 1540SOL    HW2 4642   2.233   1.020   0.441
 1541SOL     OW 4643   2.428   0.537   0.865
 1541SOL    HW1 4644   2.440   0.603   0.791
 1541SOL    HW2 4645   2.474   0.571   0.948
 1542SOL     OW 4646   3.114   1.348   0.388
 1542SOL    HW1 4647   3.164   1.425   0.428
 1542SOL    HW2 4648   3.019   1.350   0.420
 1543SOL     OW 4649   3.134   1.445   1.142
 1543SOL    HW1 4650   3.181   1.458   1.229
 1543SOL    HW2 4651   3.068   1.371   1.151
 1544SOL     OW 4652   3.444   0.639   0.472
 1544SOL    HW1 4653   3.413   0.700   0.545
 1544SOL    HW2 4654   3.494   0.691   0.403
 1545SOL     OW 4655   2.216   1.510   1.329
 1545SOL    HW1 4656   2.195   1.466   1.242
 1545SOL    HW2 4657   2.313   1.536   1.332
 1546SOL     OW 4658   2.264   0.751   1.598
 1546SOL    HW1 4659   2.332   0.806   1.551
 1546SOL    HW2 4660   2.304   0.663   1.625
 1547SOL     OW 4661   3.449   0.779   1.670
 1547SOL    HW1 4662   3.357   0.817   1.665
 1547SOL    HW2 4663   3.509   0.826   1.605
 1548SOL     OW 4664   2.875   0.105   1.770
 1548SOL    HW1 4665   2.881   0.190   1.718
 1548SOL    HW2 4666   2.907   0.029   1.713
 1549SOL     OW 4667   2.366   0.050   1.740
 1549SOL    HW1 4668   2.324  -0.007   1.670
 1549SOL    HW2 4669   2.300   0.119   1.772
 1550SOL     OW 4670   2.435   0.870   1.029
 1550SOL    HW1 4671   2.479   0.959   1.020
 1550SOL    HW2 4672   2.372   0.870   1.106
 1551SOL     OW 4673   3.222   0.862   1.045
 1551SOL    HW1 4674   3.147   0.862   0.979
 1551SOL    HW2 4675   3.259   0.770   1.054
 1552SOL     OW 4676   3.071   0.525   0.275
 1552SOL    HW1 4677   3.084   0.441   0.329
 1552SOL    HW2 4678   3.042   0.599   0.335
 1553SOL     OW 4679   2.169   0.213   1.231
 1553SOL    HW1 4680   2.146   0.250   1.321
 1553SOL    HW2 4681   2.139   0.118   1.225
 1554SOL     OW 4682   1.899   1.310   1.282
 1554SOL    HW1 4683   1.952   1.261   1.350
 1554SOL    HW2 4684   1.921   1.408   1.287
 1555SOL     OW 4685   2.594   0.634   1.064
 1555SOL    HW1 4686   2.653   0.608   0.988
 1555SOL    HW2 4687   2.566   0.730   1.053
 1556SOL     OW 4688   3.590   0.935   1.854
 1556SOL    HW1 4689   3.544   0.928   1.765
 1556SOL    HW2 4690   3.528   0.979   1.920
 1557SOL     OW 4691   2.169   0.063   0.618
 1557SOL    HW1 4692   2.158   0.157   0.651
 1557SOL    HW2 4693   2.164   0.000   0.695
 1558SOL     OW 4694   3.484   0.367   0.374
 1558SOL    HW1 4695   3.486   0.291   0.438
 1558SOL    HW2 4696   3.436   0.444   0.414
 1559SOL     OW 4697   2.885   0.766   0.966
 1559SOL    HW1 4698   2.900   0.787   1.062
 1559SOL    HW2 4699   2.855   0.671   0.957
 1560SOL     OW 4700   2.842   1.573   1.700
 1560SOL    HW1 4701   2.822   1.617   1.612
 1560SOL    HW2 4702   2.881   1.482   1.684
 1561SOL     OW 4703   3.721   1.518   1.605
 1561SOL    HW1 4704   3.735   1.545   1.510
 1561SOL    HW2 4705   3.804   1.540   1.658
 1562SOL     OW 4706   2.212   0.898   1.804
 1562SOL    HW1 4707   2.288   0.942   1.852
 1562SOL    HW2 4708   2.247   0.851   1.722
 1563SOL     OW 4709   3.402   0.274   0.125
 1563SOL    HW1 4710   3.341   0.199   0.148
 1563SOL    HW2 4711   3.424   0.326   0.208
 1564SOL     OW 4712   3.165   0.838   0.042
 1564SOL    HW1 4713   3.199   0.745   0.057
 1564SOL    HW2 4714   3.183   0.865  -0.053
 1565SOL     OW 4715   2.930   1.333   0.849
 1565SOL    HW1 4716   2.937   1.249   0.794
 1565SOL    HW2 4717   2.992   1.402   0.813
 1566SOL     OW 4718   2.181   0.810   0.949
 1566SOL    HW1 4719   2.274   0.846   0.954
 1566SOL    HW2 4720   2.175   0.725   1.001
 1567SOL     OW 4721   2.201   0.509   1.006
 1567SOL    HW1 4722   2.149   0.426   0.989
 1567SOL    HW2 4723   2.278   0.514   0.942
 1568SOL     OW 4724   3.000   0.380   1.678
 1568SOL    HW1 4725   2.955   0.443   1.742
 1568SOL    HW2 4726   3.093   0.411   1.661
 1569SOL     OW 4727   3.022   0.207   1.477
 1569SOL    HW1 4728   3.022   0.271   1.554
 1569SOL    HW2 4729   3.050   0.255   1.394
 1570SOL     OW 4730   1.870   1.326   0.200
 1570SOL    HW1 4731   1.777   1.347   0.169
 1570SOL    HW2 4732   1.880   1.227   0.213
 1571SOL     OW 4733   1.950   1.801   0.927
 1571SOL    HW1 4734   1.908   1.715   0.900
 1571SOL    HW2 4735   2.044   1.804   0.893
 1572SOL     OW 4736   2.366   1.568   0.910
 1572SOL    HW1 4737   2.432   1.642   0.919
 1572SOL    HW2 4738   2.410   1.489   0.868
 1573SOL     OW 4739   2.864   0.796   1.238
 1573SOL    HW1 4740   2.905   0.764   1.324
 1573SOL    HW2 4741   2.768   0.769   1.235
 1574SOL     OW 4742   1.902   0.544   1.114
 1574SOL    HW1 4743   1.987   0.511   1.073
 1574SOL    HW2 4744   1.915   0.559   1.212
 1575SOL     OW 4745   2.051   0.520   1.722
 1575SOL    HW1 4746   2.110   0.480   1.652
 1575SOL    HW2 4747   1.993   0.591   1.681
 1576SOL     OW 4748   3.231   0.950   1.660
 1576SOL    HW1 4749   3.270   1.039   1.680
 1576SOL    HW2 4750   3.241   0.930   1.563
 1577SOL     OW 4751   2.677   0.572   0.325
 1577SOL    HW1 4752   2.684   0.483   0.279
 1577SOL    HW2 4753   2.583   0.606   0.317
 1578SOL     OW 4754   3.519   0.604   1.206
 1578SOL    HW1 4755   3.481   0.535   1.268
 1578SOL    HW2 4756   3.601   0.568   1.162
 1579SOL     OW 4757   2.114   1.564   1.744
 1579SOL    HW1 4758   2.084   1.621   1.820
 1579SOL    HW2 4759   2.107   1.467   1.770
 1580SOL     OW 4760   2.533   0.464   1.269
 1580SOL    HW1 4761   2.499   0.375   1.239
 1580SOL    HW2 4762   2.559   0.518   1.189
 1581SOL     OW 4763   2.792   1.678   1.465
 1581SOL    HW1 4764   2.768   1.660   1.370
 1581SOL    HW2 4765   2.822   1.772   1.475
 1582SOL     OW 4766   2.335   0.500   0.191
 1582SOL    HW1 4767   2.396   0.580   0.195
 1582SOL    HW2 4768   2.240   0.531   0.198
 1583SOL     OW 4769   2.021   1.137   1.466
 1583SOL    HW1 4770   2.043   1.076   1.542
 1583SOL    HW2 4771   2.031   1.088   1.380
 1584SOL     OW 4772   3.209   1.059   1.234
 1584SOL    HW1 4773   3.233   0.996   1.160
 1584SOL    HW2 4774   3.119   1.099   1.216
 1585SOL     OW 4775   3.164   0.855   0.309
 1585SOL    HW1 4776   3.078   0.824   0.351
 1585SOL    HW2 4777   3.160   0.841   0.210
 1586SOL     OW 4778   3.621   1.747   1.154
 1586SOL    HW1 4779   3.682   1.777   1.081
 1586SOL    HW2 4780   3.583   1.658   1.132
 1587SOL     OW 4781   3.114   1.731   1.128
 1587SOL    HW1 4782   3.198   1.736   1.074
 1587SOL    HW2 4783   3.091   1.635   1.146
 1588SOL     OW 4784   1.945   1.258   1.022
 1588SOL    HW1 4785   1.940   1.257   1.122
 1588SOL    HW2 4786   1.862   1.217   0.984
 1589SOL     OW 4787   2.550   1.662   1.716
 1589SOL    HW1 4788   2.494   1.743   1.725
 1589SOL    HW2 4789   2.602   1.666   1.630
 1590SOL     OW 4790   2.765   0.086   0.133
 1590SOL    HW1 4791   2.816   0.087   0.047
 1590SOL    HW2 4792   2.821   0.044   0.204
 1591SOL     OW 4793   3.588   0.135   0.523
 1591SOL    HW1 4794   3.661   0.118   0.456
 1591SOL    HW2 4795   3.557   0.048   0.561
 1592SOL     OW 4796   3.250   1.573   0.477
 1592SOL    HW1 4797   3.317   1.585   0.403
 1592SOL    HW2 4798   3.210   1.662   0.500
 1593SOL     OW 4799   1.992   1.794   1.851
 1593SOL    HW1 4800   1.951   1.720   1.904
 1593SOL    HW2 4801   2.056   1.845   1.909
 1594SOL     OW 4802   3.142   0.927   0.672
 1594SOL    HW1 4803   3.202   0.846   0.674
 1594SOL    HW2 4804   3.182   0.996   0.612
 1595SOL     OW 4805   2.692   1.273   1.422
 1595SOL    HW1 4806   2.687   1.306   1.517
 1595SOL    HW2 4807   2.606   1.292   1.376
 1596SOL     OW 4808   2.534   1.616   0.154
 1596SOL    HW1 4809   2.543   1.626   0.055
 1596SOL    HW2 4810   2.494   1.527   0.175
 1597SOL     OW 4811   3.512   1.720   1.394
 1597SOL    HW1 4812   3.565   1.730   1.310
 1597SOL    HW2 4813   3.485   1.810   1.428
 1598SOL     OW 4814   3.703   0.175   0.963
 1598SOL    HW1 4815   3.742   0.090   0.927
 1598SOL    HW2 4816   3.605   0.177   0.944
 1599SOL     OW 4817   2.125   0.326   0.720
 1599SOL    HW1 4818   2.046   0.377   0.686
 1599SOL    HW2 4819   2.116   0.311   0.818
 1600SOL     OW 4820   3.056   1.612   0.031
 1600SOL    HW1 4821   3.062   1.519   0.068
 1600SOL    HW2 4822   2.997   1.612  -0.049
 1601SOL     OW 4823   2.684   1.002   1.372
 1601SOL    HW1 4824   2.724   1.001   1.280
 1601SOL    HW2 4825   2.694   1.094   1.412
 1602SOL     OW 4826   2.778   0.910   0.291
 1602SOL    HW1 4827   2.841   0.948   0.223
 1602SOL    HW2 4828   2.818   0.827   0.330
 1603SOL     OW 4829   3.366   1.607   0.044
 1603SOL    HW1 4830   3.274   1.644   0.051
 1603SOL    HW2 4831   3.404   1.627  -0.046
 1604SOL     OW 4832   2.234   1.288   1.490
 1604SOL    HW1 4833   2.221   1.381   1.456
 1604SOL    HW2 4834   2.150   1.236   1.477
 1605SOL     OW 4835   3.476   1.292   1.289
 1605SOL    HW1 4836   3.536   1.295   1.369
 1605SOL    HW2 4837   3.401   1.356   1.302
 1606SOL     OW 4838   2.901   1.098   0.696
 1606SOL    HW1 4839   2.831   1.051   0.750
 1606SOL    HW2 4840   2.960   1.030   0.653
 1607SOL     OW 4841   2.876   0.236   0.971
 1607SOL    HW1 4842   2.868   0.200   0.878
 1607SOL    HW2 4843   2.874   0.160   1.036
 1608SOL     OW 4844   2.452   1.487   0.491
 1608SOL    HW1 4845   2.494   1.429   0.421
 1608SOL    HW2 4846   2.408   1.566   0.447
 1609SOL     OW 4847   3.571   0.385   1.381
 1609SOL    HW1 4848   3.644   0.454   1.385
 1609SOL    HW2 4849   3.599   0.310   1.322
 1610SOL     OW 4850   2.117   1.348   0.290
 1610SOL    HW1 4851   2.021   1.349   0.263
 1610SOL    HW2 4852   2.129   1.401   0.374
 1611SOL     OW 4853   1.967   1.013   1.726
 1611SOL    HW1 4854   1.890   0.980   1.780
 1611SOL    HW2 4855   2.052   0.983   1.768
 1612SOL     OW 4856   2.534   0.203   1.489
 1612SOL    HW1 4857   2.624   0.187   1.449
 1612SOL    HW2 4858   2.542   0.208   1.588
 1613SOL     OW 4859   1.937   0.345   0.033
 1613SOL    HW1 4860   1.845   0.317   0.004
 1613SOL    HW2 4861   1.968   0.422  -0.023
 1614SOL     OW 4862   3.302   0.856   1.398
 1614SOL    HW1 4863   3.245   0.908   1.335
 1614SOL    HW2 4864   3.398   0.868   1.374
 1615SOL     OW 4865   1.934   0.166   0.318
 1615SOL    HW1 4866   1.917   0.249   0.264
 1615SOL    HW2 4867   2.024   0.129   0.296
 1616SOL     OW 4868   3.045   1.335   0.119
 1616SOL    HW1 4869   2.946   1.324   0.121
 1616SOL    HW2 4870   3.079   1.350   0.212
 1617SOL     OW 4871   2.475   0.842   1.431
 1617SOL    HW1 4872   2.531   0.923   1.414
 1617SOL    HW2 4873   2.534   0.762   1.434
 1618SOL     OW 4874   3.355   1.767   0.959
 1618SOL    HW1 4875   3.388   1.831   0.890
 1618SOL    HW2 4876   3.421   1.761   1.034
 1619SOL     OW 4877   2.578   0.565   1.708
 1619SOL    HW1 4878   2.597   0.630   1.782
 1619SOL    HW2 4879   2.638   0.485   1.717
 1620SOL     OW 4880   3.312   1.220   1.633
 1620SOL    HW1 4881   3.303   1.210   1.732
 1620SOL    HW2 4882   3.408   1.213   1.607
 1621SOL     OW 4883   2.252   1.741   1.560
 1621SOL    HW1 4884   2.161   1.782   1.558
 1621SOL    HW2 4885   2.245   1.647   1.592
 1622SOL     OW 4886   3.536   0.883   1.254
 1622SOL    HW1 4887   3.509   0.794   1.217
 1622SOL    HW2 4888   3.537   0.951   1.181
 1623SOL     OW 4889   3.087   0.325   0.449
 1623SOL    HW1 4890   3.152   0.251   0.438
 1623SOL    HW2 4891   3.107   0.375   0.533
 1624SOL     OW 4892   2.456   0.745   0.652
 1624SOL    HW1 4893   2.506   0.830   0.633
 1624SOL    HW2 4894   2.368   0.747   0.604
 1625SOL     OW 4895   3.639   0.342   1.642
 1625SOL    HW1 4896   3.622   0.373   1.548
 1625SOL    HW2 4897   3.555   0.305   1.680
 1626SOL     OW 4898   3.592   0.934   1.517
 1626SOL    HW1 4899   3.630   1.025   1.532
 1626SOL    HW2 4900   3.584   0.917   1.418
 1627SOL     OW 4901   2.721   1.374   0.016
 1627SOL    HW1 4902   2.675   1.389   0.104
 1627SOL    HW2 4903   2.765   1.459  -0.014
 1628SOL     OW 4904   2.523   1.790   0.953
 1628SOL    HW1 4905   2.477   1.878   0.940
 1628SOL    HW2 4906   2.622   1.802   0.946
 1629SOL     OW 4907   2.721   0.956   0.861
 1629SOL    HW1 4908   2.775   0.887   0.909
 1629SOL    HW2 4909   2.689   1.025   0.927
 1630SOL     OW 4910   2.945   0.984   0.087
 1630SOL    HW1 4911   2.922   1.037   0.005
 1630SOL    HW2 4912   3.026   0.928   0.068
 1631SOL     OW 4913   3.723   1.569   0.851
 1631SOL    HW1 4914   3.652   1.557   0.781
 1631SOL    HW2 4915   3.724   1.490   0.911
 1632SOL     OW 4916   2.083   1.314   1.844
 1632SOL    HW1 4917   2.018   1.241   1.823
 1632SOL    HW2 4918   2.087   1.328   1.942
 1633SOL     OW 4919   1.941   1.240   0.653
 1633SOL    HW1 4920   1.940   1.193   0.741
 1633SOL    HW2 4921   2.023   1.212   0.602
 1634SOL     OW 4922   2.534   1.391   1.624
 1634SOL    HW1 4923   2.456   1.341   1.662
 1634SOL    HW2 4924   2.531   1.486   1.655
 1635SOL     OW 4925   3.686   0.192   1.227
 1635SOL    HW1 4926   3.682   0.102   1.271
 1635SOL    HW2 4927   3.689   0.181   1.128
 1636SOL     OW 4928   2.290   0.424   0.520
 1636SOL    HW1 4929   2.320   0.352   0.458
 1636SOL    HW2 4930   2.251   0.384   0.603
 1637SOL     OW 4931   3.567   1.487   1.104
 1637SOL    HW1 4932   3.474   1.462   1.077
 1637SOL    HW2 4933   3.593   1.437   1.186
 1638SOL     OW 4934   2.179   0.547   1.280
 1638SOL    HW1 4935   2.217   0.488   1.352
 1638SOL    HW2 4936   2.219   0.521   1.192
 1639SOL     OW 4937   2.674   1.586   0.687
 1639SOL    HW1 4938   2.706   1.596   0.593
 1639SOL    HW2 4939   2.595   1.524   0.689
 1640SOL     OW 4940   3.286   0.214   1.112
 1640SOL    HW1 4941   3.338   0.149   1.167
 1640SOL    HW2 4942   3.237   0.277   1.173
 1641SOL     OW 4943   2.863   0.034   1.154
 1641SOL    HW1 4944   2.800  -0.038   1.123
 1641SOL    HW2 4945   2.956  -0.002   1.154
 1642SOL     OW 4946   2.632   1.330   0.301
 1642SOL    HW1 4947   2.586   1.243   0.318
 1642SOL    HW2 4948   2.723   1.327   0.342
 1643SOL     OW 4949   2.480   1.567   1.284
 1643SOL    HW1 4950   2.475   1.649   1.341
 1643SOL    HW2 4951   2.569   1.564   1.239
 1644SOL     OW 4952   3.214   0.052   0.168
 1644SOL    HW1 4953   3.249   0.011   0.084
 1644SOL    HW2 4954   3.124   0.014   0.188
 1645SOL     OW 4955   3.162   0.453   0.691
 1645SOL    HW1 4956   3.103   0.533   0.695
 1645SOL    HW2 4957   3.177   0.418   0.784
 1646SOL     OW 4958   3.455   0.221   0.882
 1646SOL    HW1 4959   3.371   0.220   0.936
 1646SOL    HW2 4960   3.457   0.304   0.826
 1647SOL     OW 4961   1.901   1.077   0.300
 1647SOL    HW1 4962   2.000   1.066   0.291
 1647SOL    HW2 4963   1.861   0.991   0.332
 1648SOL     OW 4964   2.737   1.646   0.337
 1648SOL    HW1 4965   2.660   1.611   0.283
 1648SOL    HW2 4966   2.705   1.717   0.399
 1649SOL     OW 4967   2.092   0.628   1.975
 1649SOL    HW1 4968   1.999   0.626   2.012
 1649SOL    HW2 4969   2.093   0.589   1.883
 1650SOL     OW 4970   2.087   0.275   2.858
 1650SOL    HW1 4971   2.122   0.258   2.950
 1650SOL    HW2 4972   1.999   0.230   2.846
 1651SOL     OW 4973   1.881   0.368   2.509
 1651SOL    HW1 4974   1.799   0.411   2.548
 1651SOL    HW2 4975   1.853   0.295   2.446
 1652SOL     OW 4976   2.431   1.275   3.027
 1652SOL    HW1 4977   2.338   1.268   2.990
 1652SOL    HW2 4978   2.442   1.364   3.071
 1653SOL     OW 4979   3.417   1.511   2.565
 1653SOL    HW1 4980   3.360   1.495   2.646
 1653SOL    HW2 4981   3.358   1.521   2.485
 1654SOL     OW 4982   2.997   0.703   2.579
 1654SOL    HW1 4983   3.054   0.781   2.554
 1654SOL    HW2 4984   2.937   0.729   2.655
 1655SOL     OW 4985   3.617   0.607   2.093
 1655SOL    HW1 4986   3.605   0.594   1.994
 1655SOL    HW2 4987   3.587   0.526   2.142
 1656SOL     OW 4988   2.630   1.144   2.885
 1656SOL    HW1 4989   2.552   1.161   2.945
 1656SOL    HW2 4990   2.664   1.231   2.849
 1657SOL     OW 4991   2.712   0.798   3.685
 1657SOL    HW1 4992   2.708   0.874   3.750
 1657SOL    HW2 4993   2.734   0.834   3.594
 1658SOL     OW 4994   2.547   1.012   2.527
 1658SOL    HW1 4995   2.616   0.996   2.597
 1658SOL    HW2 4996   2.474   1.069   2.565
 1659SOL     OW 4997   2.548   1.161   3.665
 1659SOL    HW1 4998   2.608   1.240   3.679
 1659SOL    HW2 4999   2.462   1.192   3.624
 1660SOL     OW 5000   2.197   1.435   2.923
 1660SOL    HW1 5001   2.119   1.404   2.870
 1660SOL    HW2 5002   2.255   1.493   2.866
 1661SOL     OW 5003   3.322   1.505   3.201
 1661SOL    HW1 5004   3.346   1.599   3.227
 1661SOL    HW2 5005   3.306   1.451   3.283
 1662SOL     OW 5006   2.300   0.392   3.361
 1662SOL    HW1 5007   2.382   0.336   3.370
 1662SOL    HW2 5008   2.219   0.334   3.365
 1663SOL     OW 5009   3.465   0.447   2.599
 1663SOL    HW1 5010   3.391   0.493   2.549
 1663SOL    HW2 5011   3.516   0.515   2.652
 1664SOL     OW 5012   2.093   1.713   2.345
 1664SOL    HW1 5013   2.127   1.790   2.399
 1664SOL    HW2 5014   2.137   1.713   2.255
 1665SOL     OW 5015   2.989   1.341   3.552
 1665SOL    HW1 5016   3.036   1.341   3.640
 1665SOL    HW2 5017   2.941   1.254   3.541
 1666SOL     OW 5018   2.092   1.434   2.400
 1666SOL    HW1 5019   2.066   1.530   2.400
 1666SOL    HW2 5020   2.021   1.380   2.445
 1667SOL     OW 5021   2.102   1.091   2.748
 1667SOL    HW1 5022   2.116   1.007   2.800
 1667SOL    HW2 5023   2.047   1.155   2.803
 1668SOL     OW 5024   2.482   1.786   3.301
 1668SOL    HW1 5025   2.390   1.769   3.336
 1668SOL    HW2 5026   2.510   1.878   3.327
 1669SOL     OW 5027   2.468   0.964   1.985
 1669SOL    HW1 5028   2.475   1.048   1.931
 1669SOL    HW2 5029   2.514   0.977   2.073
 1670SOL     OW 5030   3.456   0.114   3.342
 1670SOL    HW1 5031   3.438   0.181   3.270
 1670SOL    HW2 5032   3.453   0.160   3.431
 1671SOL     OW 5033   1.984   0.643   2.425
 1671SOL    HW1 5034   1.939   0.555   2.442
 1671SOL    HW2 5035   1.983   0.697   2.509
 1672SOL     OW 5036   3.704   1.767   2.221
 1672SOL    HW1 5037   3.758   1.738   2.301
 1672SOL    HW2 5038   3.734   1.857   2.192
 1673SOL     OW 5039   1.889   1.596   1.979
 1673SOL    HW1 5040   1.870   1.500   2.000
 1673SOL    HW2 5041   1.856   1.654   2.054
 1674SOL     OW 5042   3.551   0.922   2.474
 1674SOL    HW1 5043   3.646   0.893   2.482
 1674SOL    HW2 5044   3.543   0.987   2.399
 1675SOL     OW 5045   3.503   1.108   2.294
 1675SOL    HW1 5046   3.589   1.110   2.242
 1675SOL    HW2 5047   3.517   1.155   2.382
 1676SOL     OW 5048   1.975   0.737   3.459
 1676SOL    HW1 5049   2.063   0.724   3.504
 1676SOL    HW2 5050   1.962   0.834   3.437
 1677SOL     OW 5051   2.475   1.365   2.588
 1677SOL    HW1 5052   2.426   1.278   2.597
 1677SOL    HW2 5053   2.452   1.408   2.501
 1678SOL     OW 5054   3.155   1.228   3.285
 1678SOL    HW1 5055   3.192   1.155   3.227
 1678SOL    HW2 5056   3.207   1.233   3.370
 1679SOL     OW 5057   2.671   0.004   2.364
 1679SOL    HW1 5058   2.711   0.095   2.355
 1679SOL    HW2 5059   2.571   0.012   2.370
 1680SOL     OW 5060   2.059   0.976   3.126
 1680SOL    HW1 5061   2.148   0.931   3.112
 1680SOL    HW2 5062   1.986   0.911   3.107
 1681SOL     OW 5063   3.387   0.999   2.052
 1681SOL    HW1 5064   3.324   0.923   2.065
 1681SOL    HW2 5065   3.435   1.017   2.138
 1682SOL     OW 5066   3.049   1.792   3.478
 1682SOL    HW1 5067   3.073   1.852   3.402
 1682SOL    HW2 5068   3.056   1.697   3.448
 1683SOL     OW 5069   2.179   0.251   3.663
 1683SOL    HW1 5070   2.250   0.322   3.669
 1683SOL    HW2 5071   2.091   0.290   3.691
 1684SOL     OW 5072   3.328   1.417   2.815
 1684SOL    HW1 5073   3.269   1.423   2.895
 1684SOL    HW2 5074   3.313   1.329   2.769
 1685SOL     OW 5075   3.529   1.714   2.434
 1685SOL    HW1 5076   3.488   1.691   2.346
 1685SOL    HW2 5077   3.511   1.640   2.499
 1686SOL     OW 5078   2.460   0.729   2.132
 1686SOL    HW1 5079   2.484   0.798   2.064
 1686SOL    HW2 5080   2.382   0.762   2.186
 1687SOL     OW 5081   3.143   0.345   2.806
 1687SOL    HW1 5082   3.057   0.295   2.793
 1687SOL    HW2 5083   3.205   0.291   2.862
 1688SOL     OW 5084   3.438   1.662   2.169
 1688SOL    HW1 5085   3.527   1.708   2.172
 1688SOL    HW2 5086   3.417   1.638   2.074
 1689SOL     OW 5087   2.669   0.605   3.327
 1689SOL    HW1 5088   2.622   0.602   3.416
 1689SOL    HW2 5089   2.618   0.550   3.261
 1690SOL     OW 5090   3.256   0.469   3.536
 1690SOL    HW1 5091   3.236   0.512   3.624
 1690SOL    HW2 5092   3.334   0.407   3.545
 1691SOL     OW 5093   2.835   0.890   3.434
 1691SOL    HW1 5094   2.881   0.806   3.405
 1691SOL    HW2 5095   2.779   0.924   3.359
 1692SOL     OW 5096   2.853   0.410   3.104
 1692SOL    HW1 5097   2.776   0.444   3.158
 1692SOL    HW2 5098   2.819   0.359   3.025
 1693SOL     OW 5099   2.903   0.701   2.291
 1693SOL    HW1 5100   2.929   0.697   2.387
 1693SOL    HW2 5101   2.818   0.650   2.277
 1694SOL     OW 5102   1.938   0.811   2.651
 1694SOL    HW1 5103   2.037   0.799   2.660
 1694SOL    HW2 5104   1.914   0.906   2.672
 1695SOL     OW 5105   1.992   1.821   3.433
 1695SOL    HW1 5106   1.982   1.806   3.532
 1695SOL    HW2 5107   1.906   1.857   3.397
 1696SOL     OW 5108   2.727   0.348   2.057
 1696SOL    HW1 5109   2.786   0.411   2.008
 1696SOL    HW2 5110   2.746   0.254   2.028
 1697SOL     OW 5111   3.581   0.585   3.693
 1697SOL    HW1 5112   3.555   0.674   3.657
 1697SOL    HW2 5113   3.579   0.517   3.620
 1698SOL     OW 5114   3.224   1.144   2.407
 1698SOL    HW1 5115   3.307   1.115   2.359
 1698SOL    HW2 5116   3.175   1.211   2.351
 1699SOL     OW 5117   2.412   0.196   2.747
 1699SOL    HW1 5118   2.407   0.191   2.847
 1699SOL    HW2 5119   2.414   0.292   2.718
 1700SOL     OW 5120   2.870   1.456   2.339
 1700SOL    HW1 5121   2.824   1.528   2.287
 1700SOL    HW2 5122   2.866   1.476   2.437
 1701SOL     OW 5123   2.213   1.801   2.715
 1701SOL    HW1 5124   2.263   1.715   2.721
 1701SOL    HW2 5125   2.278   1.878   2.712
 1702SOL     OW 5126   3.657   1.066   2.735
 1702SOL    HW1 5127   3.595   1.051   2.659
 1702SOL    HW2 5128   3.605   1.077   2.820
 1703SOL     OW 5129   3.089   1.550   3.368
 1703SOL    HW1 5130   3.095   1.473   3.432
 1703SOL    HW2 5131   3.037   1.524   3.288
 1704SOL     OW 5132   2.183   0.943   2.104
 1704SOL    HW1 5133   2.265   0.982   2.062
 1704SOL    HW2 5134   2.156   0.861   2.055
 1705SOL     OW 5135   3.320   0.735   2.590
 1705SOL    HW1 5136   3.315   0.670   2.665
 1705SOL    HW2 5137   3.400   0.794   2.603
 1706SOL     OW 5138   2.323   1.266   3.589
 1706SOL    HW1 5139   2.273   1.267   3.503
 1706SOL    HW2 5140   2.260   1.248   3.665
 1707SOL     OW 5141   2.973   1.776   2.099
 1707SOL    HW1 5142   2.913   1.714   2.149
 1707SOL    HW2 5143   3.004   1.732   2.014
 1708SOL     OW 5144   2.064   0.285   3.360
 1708SOL    HW1 5145   1.984   0.345   3.347
 1708SOL    HW2 5146   2.054   0.236   3.446
 1709SOL     OW 5147   3.494   1.377   1.943
 1709SOL    HW1 5148   3.462   1.471   1.933
 1709SOL    HW2 5149   3.418   1.314   1.931
 1710SOL     OW 5150   2.326   1.743   2.185
 1710SOL    HW1 5151   2.359   1.782   2.271
 1710SOL    HW2 5152   2.402   1.736   2.120
 1711SOL     OW 5153   3.262   0.107   2.288
 1711SOL    HW1 5154   3.238   0.070   2.198
 1711SOL    HW2 5155   3.361   0.123   2.292
 1712SOL     OW 5156   2.111   1.785   3.103
 1712SOL    HW1 5157   2.168   1.720   3.153
 1712SOL    HW2 5158   2.095   1.752   3.010
 1713SOL     OW 5159   2.802   1.698   2.766
 1713SOL    HW1 5160   2.882   1.641   2.787
 1713SOL    HW2 5161   2.753   1.658   2.689
 1714SOL     OW 5162   2.244   0.700   2.342
 1714SOL    HW1 5163   2.289   0.610   2.339
 1714SOL    HW2 5164   2.150   0.689   2.375
 1715SOL     OW 5165   3.409   0.222   3.591
 1715SOL    HW1 5166   3.404   0.259   3.683
 1715SOL    HW2 5167   3.337   0.153   3.579
 1716SOL     OW 5168   2.476   0.122   1.979
 1716SOL    HW1 5169   2.574   0.100   1.986
 1716SOL    HW2 5170   2.445   0.105   1.886
 1717SOL     OW 5171   2.643   0.264   3.611
 1717SOL    HW1 5172   2.710   0.203   3.654
 1717SOL    HW2 5173   2.570   0.283   3.676
 1718SOL     OW 5174   2.750   1.514   3.057
 1718SOL    HW1 5175   2.727   1.489   2.963
 1718SOL    HW2 5176   2.811   1.445   3.096
 1719SOL     OW 5177   3.213   0.590   3.295
 1719SOL    HW1 5178   3.241   0.547   3.380
 1719SOL    HW2 5179   3.238   0.686   3.296
 1720SOL     OW 5180   2.665   1.402   2.786
 1720SOL    HW1 5181   2.755   1.416   2.744
 1720SOL    HW2 5182   2.594   1.404   2.715
 1721SOL     OW 5183   2.784   0.503   2.761
 1721SOL    HW1 5184   2.759   0.494   2.665
 1721SOL    HW2 5185   2.832   0.421   2.792
 1722SOL     OW 5186   2.401   0.064   2.374
 1722SOL    HW1 5187   2.320   0.065   2.432
 1722SOL    HW2 5188   2.404   0.147   2.319
 1723SOL     OW 5189   3.296   1.188   1.903
 1723SOL    HW1 5190   3.328   1.112   1.960
 1723SOL    HW2 5191   3.204   1.215   1.933
 1724SOL     OW 5192   2.159   0.035   2.033
 1724SOL    HW1 5193   2.208   0.119   2.012
 1724SOL    HW2 5194   2.221  -0.030   2.078
 1725SOL     OW 5195   2.797   0.236   2.342
 1725SOL    HW1 5196   2.749   0.277   2.264
 1725SOL    HW2 5197   2.896   0.234   2.323
 1726SOL     OW 5198   2.938   0.683   3.326
 1726SOL    HW1 5199   2.858   0.622   3.329
 1726SOL    HW2 5200   3.019   0.630   3.302
 1727SOL     OW 5201   3.089   1.570   2.655
 1727SOL    HW1 5202   3.110   1.644   2.590
 1727SOL    HW2 5203   3.157   1.570   2.728
 1728SOL     OW 5204   2.321   1.152   2.603
 1728SOL    HW1 5205   2.250   1.125   2.668
 1728SOL    HW2 5206   2.295   1.124   2.510
 1729SOL     OW 5207   3.133   1.797   2.453
 1729SOL    HW1 5208   3.177   1.861   2.389
 1729SOL    HW2 5209   3.083   1.849   2.523
 1730SOL     OW 5210   2.894   0.549   1.878
 1730SOL    HW1 5211   2.853   0.631   1.839
 1730SOL    HW2 5212   2.958   0.575   1.951
 1731SOL     OW 5213   1.940   0.556   3.248
 1731SOL    HW1 5214   2.032   0.555   3.207
 1731SOL    HW2 5215   1.934   0.630   3.315
 1732SOL     OW 5216   2.423   0.222   3.009
 1732SOL    HW1 5217   2.461   0.138   3.046
 1732SOL    HW2 5218   2.335   0.241   3.053
 1733SOL     OW 5219   2.728   0.454   2.504
 1733SOL    HW1 5220   2.696   0.526   2.442
 1733SOL    HW2 5221   2.752   0.373   2.451
 1734SOL     OW 5222   2.879   0.039   2.615
 1734SOL    HW1 5223   2.807   0.044   2.546
 1734SOL    HW2 5224   2.855  -0.030   2.684
 1735SOL     OW 5225   3.291   1.173   2.729
 1735SOL    HW1 5226   3.236   1.089   2.722
 1735SOL    HW2 5227   3.317   1.202   2.637
 1736SOL     OW 5228   3.328   0.590   2.854
 1736SOL    HW1 5229   3.298   0.495   2.861
 1736SOL    HW2 5230   3.401   0.606   2.920
 1737SOL     OW 5231   3.719   0.833   2.239
 1737SOL    HW1 5232   3.761   0.769   2.303
 1737SOL    HW2 5233   3.681   0.782   2.161
 1738SOL     OW 5234   2.350   1.385   2.036
 1738SOL    HW1 5235   2.263   1.370   2.083
 1738SOL    HW2 5236   2.333   1.411   1.941
 1739SOL     OW 5237   3.526   1.280   2.519
 1739SOL    HW1 5238   3.625   1.288   2.533
 1739SOL    HW2 5239   3.481   1.364   2.550
 1740SOL     OW 5240   3.252   0.575   1.940
 1740SOL    HW1 5241   3.198   0.554   2.021
 1740SOL    HW2 5242   3.343   0.534   1.949
 1741SOL     OW 5243   2.389   0.256   2.190
 1741SOL    HW1 5244   2.416   0.197   2.115
 1741SOL    HW2 5245   2.389   0.351   2.159
 1742SOL     OW 5246   3.616   1.223   3.450
 1742SOL    HW1 5247   3.707   1.184   3.437
 1742SOL    HW2 5248   3.624   1.319   3.474
 1743SOL     OW 5249   2.926   1.347   3.202
 1743SOL    HW1 5250   2.846   1.324   3.257
 1743SOL    HW2 5251   3.009   1.321   3.251
 1744SOL     OW 5252   3.454   1.629   3.487
 1744SOL    HW1 5253   3.481   1.663   3.397
 1744SOL    HW2 5254   3.533   1.591   3.533
 1745SOL     OW 5255   2.973   1.195   2.962
 1745SOL    HW1 5256   2.933   1.239   3.043
 1745SOL    HW2 5257   2.932   1.232   2.879
 1746SOL     OW 5258   3.500   1.099   2.941
 1746SOL    HW1 5259   3.505   1.180   3.000
 1746SOL    HW2 5260   3.414   1.101   2.890
 1747SOL     OW 5261   2.777   0.089   3.264
 1747SOL    HW1 5262   2.802   0.069   3.169
 1747SOL    HW2 5263   2.849   0.145   3.306
 1748SOL     OW 5264   2.842   1.116   3.581
 1748SOL    HW1 5265   2.743   1.122   3.591
 1748SOL    HW2 5266   2.865   1.036   3.525
 1749SOL     OW 5267   2.567   1.050   2.230
 1749SOL    HW1 5268   2.553   1.057   2.329
 1749SOL    HW2 5269   2.651   0.999   2.212
 1750SOL     OW 5270   2.272   0.813   3.113
 1750SOL    HW1 5271   2.358   0.825   3.163
 1750SOL    HW2 5272   2.230   0.726   3.140
 1751SOL     OW 5273   3.136   0.386   3.124
 1751SOL    HW1 5274   3.157   0.460   3.188
 1751SOL    HW2 5275   3.047   0.403   3.081
 1752SOL     OW 5276   1.926   1.564   3.193
 1752SOL    HW1 5277   1.880   1.646   3.159
 1752SOL    HW2 5278   2.024   1.583   3.202
 1753SOL     OW 5279   2.229   1.100   2.363
 1753SOL    HW1 5280   2.222   1.183   2.307
 1753SOL    HW2 5281   2.233   1.020   2.303
 1754SOL     OW 5282   2.428   0.537   2.727
 1754SOL    HW1 5283   2.440   0.603   2.653
 1754SOL    HW2 5284   2.474   0.571   2.810
 1755SOL     OW 5285   3.114   1.348   2.250
 1755SOL    HW1 5286   3.164   1.425   2.290
 1755SOL    HW2 5287   3.019   1.350   2.282
 1756SOL     OW 5288   3.134   1.445   3.004
 1756SOL    HW1 5289   3.181   1.458   3.091
 1756SOL    HW2 5290   3.068   1.371   3.013
 1757SOL     OW 5291   3.444   0.639   2.334
 1757SOL    HW1 5292   3.413   0.700   2.407
 1757SOL    HW2 5293   3.494   0.691   2.265
 1758SOL     OW 5294   2.216   1.510   3.191
 1758SOL    HW1 5295   2.195   1.466   3.104
 1758SOL    HW2 5296   2.313   1.536   3.194
 1759SOL     OW 5297   2.264   0.751   3.460
 1759SOL    HW1 5298   2.332   0.806   3.413
 1759SOL    HW2 5299   2.304   0.663   3.487
 1760SOL     OW 5300   3.449   0.779   3.532
 1760SOL    HW1 5301   3.357   0.817   3.527
 1760SOL    HW2 5302   3.509   0.826   3.467
 1761SOL     OW 5303   2.875   0.105   3.632
 1761SOL    HW1 5304   2.881   0.190   3.580
 1761SOL    HW2 5305   2.907   0.029   3.575
 1762SOL     OW 5306   2.366   0.050   3.602
 1762SOL    HW1 5307   2.324  -0.007   3.532
 1762SOL    HW2 5308   2.300   0.119   3.634
 1763SOL     OW 5309   2.435   0.870   2.891
 1763SOL    HW1 5310   2.479   0.959   2.882
 1763SOL    HW2 5311   2.372   0.870   2.968
 1764SOL     OW 5312   3.222   0.862   2.907
 1764SOL    HW1 5313   3.147   0.862   2.841
 1764SOL    HW2 5314   3.259   0.770   2.916
 1765SOL     OW 5315   3.071   0.525   2.137
 1765SOL    HW1 5316   3.084   0.441   2.191
 1765SOL    HW2 5317   3.042   0.599   2.197
 1766SOL     OW 5318   2.169   0.213   3.093
 1766SOL    HW1 5319   2.146   0.250   3.183
 1766SOL    HW2 5320   2.139   0.118   3.087
 1767SOL     OW 5321   1.899   1.310   3.144
 1767SOL    HW1 5322   1.952   1.261   3.212
 1767SOL    HW2 5323   1.921   1.408   3.149
 1768SOL     OW 5324   2.594   0.634   2.926
 1768SOL    HW1 5325   2.653   0.608   2.850
 1768SOL    HW2 5326   2.566   0.730   2.915
 1769SOL     OW 5327   3.590   0.935   3.716
 1769SOL    HW1 5328   3.544   0.928   3.627
 1769SOL    HW2 5329   3.528   0.979   3.782
 1770SOL     OW 5330   2.169   0.063   2.480
 1770SOL    HW1 5331   2.158   0.157   2.513
 1770SOL    HW2 5332   2.164   0.000   2.557
 1771SOL     OW 5333   3.484   0.367   2.236
 1771SOL    HW1 5334   3.486   0.291   2.300
 1771SOL    HW2 5335   3.436   0.444   2.276
 1772SOL     OW 5336   2.885   0.766   2.828
 1772SOL    HW1 5337   2.900   0.787   2.924
 1772SOL    HW2 5338   2.855   0.671   2.819
 1773SOL     OW 5339   2.842   1.573   3.562
 1773SOL    HW1 5340   2.822   1.617   3.474
 1773SOL    HW2 5341   2.881   1.482   3.546
 1774SOL     OW 5342   3.721   1.518   3.467
 1774SOL    HW1 5343   3.735   1.545   3.372
 1774SOL    HW2 5344   3.804   1.540   3.520
 1775SOL     OW 5345   2.212   0.898   3.666
 1775SOL    HW1 5346   2.288   0.942   3.714
 1775SOL    HW2 5347   2.247   0.851   3.584
 1776SOL     OW 5348   3.402   0.274   1.987
 1776SOL    HW1 5349   3.341   0.199   2.010
 1776SOL    HW2 5350   3.424   0.326   2.070
 1777SOL     OW 5351   3.165   0.838   1.904
 1777SOL    HW1 5352   3.199   0.745   1.919
 1777SOL    HW2 5353   3.183   0.865   1.809
 1778SOL     OW 5354   2.930   1.333   2.711
 1778SOL    HW1 5355   2.937   1.249   2.656
 1778SOL    HW2 5356   2.992   1.402   2.675
 1779SOL     OW 5357   2.181   0.810   2.811
 1779SOL    HW1 5358   2.274   0.846   2.816
 1779SOL    HW2 5359   2.175   0.725   2.863
 1780SOL     OW 5360   2.201   0.509   2.868
 1780SOL    HW1 5361   2.149   0.426   2.851
 1780SOL    HW2 5362   2.278   0.514   2.804
 1781SOL     OW 5363   3.000   0.380   3.540
 1781SOL    HW1 5364   2.955   0.443   3.604
 1781SOL    HW2 5365   3.093   0.411   3.523
 1782SOL     OW 5366   3.022   0.207   3.339
 1782SOL    HW1 5367   3.022   0.271   3.416
 1782SOL    HW2 5368   3.050   0.255   3.256
 1783SOL     OW 5369   1.870   1.326   2.062
 1783SOL    HW1 5370   1.777   1.347   2.031
 1783SOL    HW2 5371   1.880   1.227   2.075
 1784SOL     OW 5372   1.950   1.801   2.789
 1784SOL    HW1 5373   1.908   1.715   2.762
 1784SOL    HW2 5374   2.044   1.804   2.755
 1785SOL     OW 5375   2.366   1.568   2.772
 1785SOL    HW1 5376   2.432   1.642   2.781
 1785SOL    HW2 5377   2.410   1.489   2.730
 1786SOL     OW 5378   2.864   0.796   3.100
 1786SOL    HW1 5379   2.905   0.764   3.186
 1786SOL    HW2 5380   2.768   0.769   3.097
 1787SOL     OW 5381   1.902   0.544   2.976
 1787SOL    HW1 5382   1.987   0.511   2.935
 1787SOL    HW2 5383   1.915   0.559   3.074
 1788SOL     OW 5384   2.051   0.520   3.584
 1788SOL    HW1 5385   2.110   0.480   3.514
 1788SOL    HW2 5386   1.993   0.591   3.543
 1789SOL     OW 5387   3.231   0.950   3.522
 1789SOL    HW1 5388   3.270   1.039   3.542
 1789SOL    HW2 5389   3.241   0.930   3.425
 1790SOL     OW 5390   2.677   0.572   2.187
 1790SOL    HW1 5391   2.684   0.483   2.141
 1790SOL    HW2 5392   2.583   0.606   2.179
 1791SOL     OW 5393   3.519   0.604   3.068
 1791SOL    HW1 5394   3.481   0.535   3.130
 1791SOL    HW2 5395   3.601   0.568   3.024
 1792SOL     OW 5396   2.114   1.564   3.606
 1792SOL    HW1 5397   2.084   1.621   3.682
 1792SOL    HW2 5398   2.107   1.467   3.632
 1793SOL     OW 5399   2.533   0.464   3.131
 1793SOL    HW1 5400   2.499   0.375   3.101
 1793SOL    HW2 5401   2.559   0.518   3.051
 1794SOL     OW 5402   2.792   1.678   3.327
 1794SOL    HW1 5403   2.768   1.660   3.232
 1794SOL    HW2 5404   2.822   1.772   3.337
 1795SOL     OW 5405   2.335   0.500   2.053
 1795SOL    HW1 5406   2.396   0.580   2.057
 1795SOL    HW2 5407   2.240   0.531   2.060
 1796SOL     OW 5408   2.021   1.137   3.328
 1796SOL    HW1 5409   2.043   1.076   3.404
 1796SOL    HW2 5410   2.031   1.088   3.242
 1797SOL     OW 5411   3.209   1.059   3.096
 1797SOL    HW1 5412   3.233   0.996   3.022
 1797SOL    HW2 5413   3.119   1.099   3.078
 1798SOL     OW 5414   3.164   0.855   2.171
 1798SOL    HW1 5415   3.078   0.824   2.213
 1798SOL    HW2 5416   3.160   0.841   2.072
 1799SOL     OW 5417   3.621   1.747   3.016
 1799SOL    HW1 5418   3.682   1.777   2.943
 1799SOL    HW2 5419   3.583   1.658   2.994
 1800SOL     OW 5420   3.114   1.731   2.990
 1800SOL    HW1 5421   3.198   1.736   2.936
 1800SOL    HW2 5422   3.091   1.635   3.008
 1801SOL     OW 5423   1.945   1.258   2.884
 1801SOL    HW1 5424   1.940   1.257   2.984
 1801SOL    HW2 5425   1.862   1.217   2.846
 1802SOL     OW 5426   2.550   1.662   3.578
 1802SOL    HW1 5427   2.494   1.743   3.587
 1802SOL    HW2 5428   2.602   1.666   3.492
 1803SOL     OW 5429   3.588   0.135   2.385
 1803SOL    HW1 5430   3.661   0.118   2.318
 1803SOL    HW2 5431   3.557   0.048   2.423
 1804SOL     OW 5432   3.250   1.573   2.339
 1804SOL    HW1 5433   3.317   1.585   2.265
 1804SOL    HW2 5434   3.210   1.662   2.362
 1805SOL     OW 5435   1.992   1.794   3.713
 1805SOL    HW1 5436   1.951   1.720   3.766
 1805SOL    HW2 5437   2.056   1.845   3.771
 1806SOL     OW 5438   3.142   0.927   2.534
 1806SOL    HW1 5439   3.202   0.846   2.536
 1806SOL    HW2 5440   3.182   0.996   2.474
 1807SOL     OW 5441   2.692   1.273   3.284
 1807SOL    HW1 5442   2.687   1.306   3.379
 1807SOL    HW2 5443   2.606   1.292   3.238
 1808SOL     OW 5444   2.534   1.616   2.016
 1808SOL    HW1 5445   2.543   1.626   1.917
 1808SOL    HW2 5446   2.494   1.527   2.037
 1809SOL     OW 5447   3.512   1.720   3.256
 1809SOL    HW1 5448   3.565   1.730   3.172
 1809SOL    HW2 5449   3.485   1.810   3.290
 1810SOL     OW 5450   3.703   0.175   2.825
 1810SOL    HW1 5451   3.742   0.090   2.789
 1810SOL    HW2 5452   3.605   0.177   2.806
 1811SOL     OW 5453   2.125   0.326   2.582
 1811SOL    HW1 5454   2.046   0.377   2.548
 1811SOL    HW2 5455   2.116   0.311   2.680
 1812SOL     OW 5456   3.056   1.612   1.893
 1812SOL    HW1 5457   3.062   1.519   1.930
 1812SOL    HW2 5458   2.997   1.612   1.813
 1813SOL     OW 5459   2.684   1.002   3.234
 1813SOL    HW1 5460   2.724   1.001   3.142
 1813SOL    HW2 5461   2.694   1.094   3.274
 1814SOL     OW 5462   2.778   0.910   2.153
 1814SOL    HW1 5463   2.841   0.948   2.085
 1814SOL    HW2 5464   2.818   0.827   2.192
 1815SOL     OW 5465   3.366   1.607   1.906
 1815SOL    HW1 5466   3.274   1.644   1.913
 1815SOL    HW2 5467   3.404   1.627   1.816
 1816SOL     OW 5468   2.234   1.288   3.352
 1816SOL    HW1 5469   2.221   1.381   3.318
 1816SOL    HW2 5470   2.150   1.236   3.339
 1817SOL     OW 5471   3.476   1.292   3.151
 1817SOL    HW1 5472   3.536   1.295   3.231
 1817SOL    HW2 5473   3.401   1.356   3.164
 1818SOL     OW 5474   2.901   1.098   2.558
 1818SOL    HW1 5475   2.831   1.051   2.612
 1818SOL    HW2 5476   2.960   1.030   2.515
 1819SOL     OW 5477   2.876   0.236   2.833
 1819SOL    HW1 5478   2.868   0.200   2.740
 1819SOL    HW2 5479   2.874   0.160   2.898
 1820SOL     OW 5480   2.452   1.487   2.353
 1820SOL    HW1 5481   2.494   1.429   2.283
 1820SOL    HW2 5482   2.408   1.566   2.309
 1821SOL     OW 5483   3.571   0.385   3.243
 1821SOL    HW1 5484   3.644   0.454   3.247
 1821SOL    HW2 5485   3.599   0.310   3.184
 1822SOL     OW 5486   2.117   1.348   2.152
 1822SOL    HW1 5487   2.021   1.349   2.125
 1822SOL    HW2 5488   2.129   1.401   2.236
 1823SOL     OW 5489   1.967   1.013   3.588
 1823SOL    HW1 5490   1.890   0.980   3.642
 1823SOL    HW2 5491   2.052   0.983   3.630
 1824SOL     OW 5492   2.534   0.203   3.351
 1824SOL    HW1 5493   2.624   0.187   3.311
 1824SOL    HW2 5494   2.542   0.208   3.450
 1825SOL     OW 5495   1.937   0.345   1.895
 1825SOL    HW1 5496   1.845   0.317   1.866
 1825SOL    HW2 5497   1.968   0.422   1.839
 1826SOL     OW 5498   3.302   0.856   3.260
 1826SOL    HW1 5499   3.245   0.908   3.197
 1826SOL    HW2 5500   3.398   0.868   3.236
 1827SOL     OW 5501   1.934   0.166   2.180
 1827SOL    HW1 5502   1.917   0.249   2.126
 1827SOL    HW2 5503   2.024   0.129   2.158
 1828SOL     OW 5504   3.045   1.335   1.981
 1828SOL    HW1 5505   2.946   1.324   1.983
 1828SOL    HW2 5506   3.079   1.350   2.074
 1829SOL     OW 5507   2.475   0.842   3.293
 1829SOL    HW1 5508   2.531   0.923   3.276
 1829SOL    HW2 5509   2.534   0.762   3.296
 1830SOL     OW 5510   3.355   1.767   2.821
 1830SOL    HW1 5511   3.388   1.831   2.752
 1830SOL    HW2 5512   3.421   1.761   2.896
 1831SOL     OW 5513   2.578   0.565   3.570
 1831SOL    HW1 5514   2.597   0.630   3.644
 1831SOL    HW2 5515   2.638   0.485   3.579
 1832SOL     OW 5516   3.312   1.220   3.495
 1832SOL    HW1 5517   3.303   1.210   3.594
 1832SOL    HW2 5518   3.408   1.213   3.469
 1833SOL     OW 5519   2.252   1.741   3.422
 1833SOL    HW1 5520   2.161   1.782   3.420
 1833SOL    HW2 5521   2.245   1.647   3.454
 1834SOL     OW 5522   3.536   0.883   3.116
 1834SOL    HW1 5523   3.509   0.794   3.079
 1834SOL    HW2 5524   3.537   0.951   3.043
 1835SOL     OW 5525   3.087   0.325   2.311
 1835SOL    HW1 5526   3.152   0.251   2.300
 1835SOL    HW2 5527   3.107   0.375   2.395
 1836SOL     OW 5528   2.456   0.745   2.514
 1836SOL    HW1 5529   2.506   0.830   2.495
 1836SOL    HW2 5530   2.368   0.747   2.466
 1837SOL     OW 5531   3.639   0.342   3.504
 1837SOL    HW1 5532   3.622   0.373   3.410
 1837SOL    HW2 5533   3.555   0.305   3.542
 1838SOL     OW 5534   3.592   0.934   3.379
 1838SOL    HW1 5535   3.630   1.025   3.394
 1838SOL    HW2 5536   3.584   0.917   3.280
 1839SOL     OW 5537   2.721   1.374   1.878
 1839SOL    HW1 5538   2.675   1.389   1.966
 1839SOL    HW2 5539   2.765   1.459   1.848
 1840SOL     OW 5540   2.523   1.790   2.815
 1840SOL    HW1 5541   2.477   1.878   2.802
 1840SOL    HW2 5542   2.622   1.802   2.808
 1841SOL     OW 5543   2.721   0.956   2.723
 1841SOL    HW1 5544   2.775   0.887   2.771
 1841SOL    HW2 5545   2.689   1.025   2.789
 1842SOL     OW 5546   2.945   0.984   1.949
 1842SOL    HW1 5547   2.922   1.037   1.867
 1842SOL    HW2 5548   3.026   0.928   1.930
 1843SOL     OW 5549   3.723   1.569   2.713
 1843SOL    HW1 5550   3.652   1.557   2.643
 1843SOL    HW2 5551   3.724   1.490   2.773
 1844SOL     OW 5552   2.083   1.314   3.706
 1844SOL    HW1 5553   2.018   1.241   3.685
 1844SOL    HW2 5554   2.087   1.328   3.804
 1845SOL     OW 5555   1.941   1.240   2.515
 1845SOL    HW1 5556   1.940   1.193   2.603
 1845SOL    HW2 5557   2.023   1.212   2.464
 1846SOL     OW 5558   2.534   1.391   3.486
 1846SOL    HW1 5559   2.456   1.341   3.524
 1846SOL    HW2 5560   2.531   1.486   3.517
 1847SOL     OW 5561   3.686   0.192   3.089
 1847SOL    HW1 5562   3.682   0.102   3.133
 1847SOL    HW2 5563   3.689   0.181   2.990
 1848SOL     OW 5564   2.290   0.424   2.382
 1848SOL    HW1 5565   2.320   0.352   2.320
 1848SOL    HW2 5566   2.251   0.384   2.465
 1849SOL     OW 5567   3.567   1.487   2.966
 1849SOL    HW1 5568   3.474   1.462   2.939
 1849SOL    HW2 5569   3.593   1.437   3.048
 1850SOL     OW 5570   2.179   0.547   3.142
 1850SOL    HW1 5571   2.217   0.488   3.214
 1850SOL    HW2 5572   2.219   0.521   3.054
 1851SOL     OW 5573   2.674   1.586   2.549
 1851SOL    HW1 5574   2.706   1.596   2.455
 1851SOL    HW2 5575   2.595   1.524   2.551
 1852SOL     OW 5576   3.286   0.214   2.974
 1852SOL    HW1 5577   3.338   0.149   3.029
 1852SOL    HW2 5578   3.237   0.277   3.035
 1853SOL     OW 5579   2.863   0.034   3.016
 1853SOL    HW1 5580   2.800  -0.038   2.985
 1853SOL    HW2 5581   2.956  -0.002   3.016
 1854SOL     OW 5582   2.632   1.330   2.163
 1854SOL    HW1 5583   2.586   1.243   2.180
 1854SOL    HW2 5584   2.723   1.327   2.204
 1855SOL     OW 5585   2.480   1.567   3.146
 1855SOL    HW1 5586   2.475   1.649   3.203
 1855SOL    HW2 5587   2.569   1.564   3.101
 1856SOL     OW 5588   3.214   0.052   2.030
 1856SOL    HW1 5589   3.249   0.011   1.946
 1856SOL    HW2 5590   3.124   0.014   2.050
 1857SOL     OW 5591   3.162   0.453   2.553
 1857SOL    HW1 5592   3.103   0.533   2.557
 1857SOL    HW2 5593   3.177   0.418   2.646
 1858SOL     OW 5594   3.455   0.221   2.744
 1858SOL    HW1 5595   3.371   0.220   2.798
 1858SOL    HW2 5596   3.457   0.304   2.688
 1859SOL     OW 5597   1.901   1.077   2.162
 1859SOL    HW1 5598   2.000   1.066   2.153
 1859SOL    HW2 5599   1.861   0.991   2.194
 1860SOL     OW 5600   2.737   1.646   2.199
 1860SOL    HW1 5601   2.660   1.611   2.145
 1860SOL    HW2 5602   2.705   1.717   2.261
 1861SOL     OW 5603   2.092   0.628   3.837
 1861SOL    HW1 5604   1.999   0.626   3.874
 1861SOL    HW2 5605   2.093   0.589   3.745
 1862SOL     OW 5606   2.087   0.275   4.720
 1862SOL    HW1 5607   2.122   0.258   4.812
 1862SOL    HW2 5608   1.999   0.230   4.708
 1863SOL     OW 5609   1.881   0.368   4.371
 1863SOL    HW1 5610   1.799   0.411   4.410
 1863SOL    HW2 5611   1.853   0.295   4.308
 1864SOL     OW 5612   3.417   1.511   4.427
 1864SOL    HW1 5613   3.360   1.495   4.508
 1864SOL    HW2 5614   3.358   1.521   4.347
 1865SOL     OW 5615   2.997   0.703   4.441
 1865SOL    HW1 5616   3.054   0.781   4.416
 1865SOL    HW2 5617   2.937   0.729   4.517
 1866SOL     OW 5618   3.617   0.607   3.955
 1866SOL    HW1 5619   3.605   0.594   3.856
 1866SOL    HW2 5620   3.587   0.526   4.004
 1867SOL     OW 5621   2.630   1.144   4.747
 1867SOL    HW1 5622   2.552   1.161   4.807
 1867SOL    HW2 5623   2.664   1.231   4.711
 1868SOL     OW 5624   2.547   1.012   4.389
 1868SOL    HW1 5625   2.616   0.996   4.459
 1868SOL    HW2 5626   2.474   1.069   4.427
 1869SOL     OW 5627   2.197   1.435   4.785
 1869SOL    HW1 5628   2.119   1.404   4.732
 1869SOL    HW2 5629   2.255   1.493   4.728
 1870SOL     OW 5630   3.465   0.447   4.461
 1870SOL    HW1 5631   3.391   0.493   4.411
 1870SOL    HW2 5632   3.516   0.515   4.514
 1871SOL     OW 5633   2.093   1.713   4.207
 1871SOL    HW1 5634   2.127   1.790   4.261
 1871SOL    HW2 5635   2.137   1.713   4.117
 1872SOL     OW 5636   2.092   1.434   4.262
 1872SOL    HW1 5637   2.066   1.530   4.262
 1872SOL    HW2 5638   2.021   1.380   4.307
 1873SOL     OW 5639   2.102   1.091   4.610
 1873SOL    HW1 5640   2.116   1.007   4.662
 1873SOL    HW2 5641   2.047   1.155   4.665
 1874SOL     OW 5642   2.468   0.964   3.847
 1874SOL    HW1 5643   2.475   1.048   3.793
 1874SOL    HW2 5644   2.514   0.977   3.935
 1875SOL     OW 5645   1.984   0.643   4.287
 1875SOL    HW1 5646   1.939   0.555   4.304
 1875SOL    HW2 5647   1.983   0.697   4.371
 1876SOL     OW 5648   3.704   1.767   4.083
 1876SOL    HW1 5649   3.758   1.738   4.163
 1876SOL    HW2 5650   3.734   1.857   4.054
 1877SOL     OW 5651   1.889   1.596   3.841
 1877SOL    HW1 5652   1.870   1.500   3.862
 1877SOL    HW2 5653   1.856   1.654   3.916
 1878SOL     OW 5654   3.551   0.922   4.336
 1878SOL    HW1 5655   3.646   0.893   4.344
 1878SOL    HW2 5656   3.543   0.987   4.261
 1879SOL     OW 5657   3.503   1.108   4.156
 1879SOL    HW1 5658   3.589   1.110   4.104
 1879SOL    HW2 5659   3.517   1.155   4.244
 1880SOL     OW 5660   2.475   1.365   4.450
 1880SOL    HW1 5661   2.426   1.278   4.459
 1880SOL    HW2 5662   2.452   1.408   4.363
 1881SOL     OW 5663   2.671   0.004   4.226
 1881SOL    HW1 5664   2.711   0.095   4.217
 1881SOL    HW2 5665   2.571   0.012   4.232
 1882SOL     OW 5666   3.387   0.999   3.914
 1882SOL    HW1 5667   3.324   0.923   3.927
 1882SOL    HW2 5668   3.435   1.017   4.000
 1883SOL     OW 5669   3.328   1.417   4.677
 1883SOL    HW1 5670   3.269   1.423   4.757
 1883SOL    HW2 5671   3.313   1.329   4.631
 1884SOL     OW 5672   3.529   1.714   4.296
 1884SOL    HW1 5673   3.488   1.691   4.208
 1884SOL    HW2 5674   3.511   1.640   4.361
 1885SOL     OW 5675   2.460   0.729   3.994
 1885SOL    HW1 5676   2.484   0.798   3.926
 1885SOL    HW2 5677   2.382   0.762   4.048
 1886SOL     OW 5678   3.143   0.345   4.668
 1886SOL    HW1 5679   3.057   0.295   4.655
 1886SOL    HW2 5680   3.205   0.291   4.724
 1887SOL     OW 5681   3.438   1.662   4.031
 1887SOL    HW1 5682   3.527   1.708   4.034
 1887SOL    HW2 5683   3.417   1.638   3.936
 1888SOL     OW 5684   2.903   0.701   4.153
 1888SOL    HW1 5685   2.929   0.697   4.249
 1888SOL    HW2 5686   2.818   0.650   4.139
 1889SOL     OW 5687   1.938   0.811   4.513
 1889SOL    HW1 5688   2.037   0.799   4.522
 1889SOL    HW2 5689   1.914   0.906   4.534
 1890SOL     OW 5690   2.727   0.348   3.919
 1890SOL    HW1 5691   2.786   0.411   3.870
 1890SOL    HW2 5692   2.746   0.254   3.890
 1891SOL     OW 5693   3.224   1.144   4.269
 1891SOL    HW1 5694   3.307   1.115   4.221
 1891SOL    HW2 5695   3.175   1.211   4.213
 1892SOL     OW 5696   2.412   0.196   4.609
 1892SOL    HW1 5697   2.407   0.191   4.709
 1892SOL    HW2 5698   2.414   0.292   4.580
 1893SOL     OW 5699   2.870   1.456   4.201
 1893SOL    HW1 5700   2.824   1.528   4.149
 1893SOL    HW2 5701   2.866   1.476   4.299
 1894SOL     OW 5702   2.213   1.801   4.577
 1894SOL    HW1 5703   2.263   1.715   4.583
 1894SOL    HW2 5704   2.278   1.878   4.574
 1895SOL     OW 5705   3.657   1.066   4.597
 1895SOL    HW1 5706   3.595   1.051   4.521
 1895SOL    HW2 5707   3.605   1.077   4.682
 1896SOL     OW 5708   2.183   0.943   3.966
 1896SOL    HW1 5709   2.265   0.982   3.924
 1896SOL    HW2 5710   2.156   0.861   3.917
 1897SOL     OW 5711   3.320   0.735   4.452
 1897SOL    HW1 5712   3.315   0.670   4.527
 1897SOL    HW2 5713   3.400   0.794   4.465
 1898SOL     OW 5714   2.973   1.776   3.961
 1898SOL    HW1 5715   2.913   1.714   4.011
 1898SOL    HW2 5716   3.004   1.732   3.876
 1899SOL     OW 5717   3.494   1.377   3.805
 1899SOL    HW1 5718   3.462   1.471   3.795
 1899SOL    HW2 5719   3.418   1.314   3.793
 1900SOL     OW 5720   2.326   1.743   4.047
 1900SOL    HW1 5721   2.359   1.782   4.133
 1900SOL    HW2 5722   2.402   1.736   3.982
 1901SOL     OW 5723   3.262   0.107   4.150
 1901SOL    HW1 5724   3.238   0.070   4.060
 1901SOL    HW2 5725   3.361   0.123   4.154
 1902SOL     OW 5726   2.111   1.785   4.965
 1902SOL    HW1 5727   2.168   1.720   5.015
 1902SOL    HW2 5728   2.095   1.752   4.872
 1903SOL     OW 5729   2.802   1.698   4.628
 1903SOL    HW1 5730   2.882   1.641   4.649
 1903SOL    HW2 5731   2.753   1.658   4.551
 1904SOL     OW 5732   2.244   0.700   4.204
 1904SOL    HW1 5733   2.289   0.610   4.201
 1904SOL    HW2 5734   2.150   0.689   4.237
 1905SOL     OW 5735   2.476   0.122   3.841
 1905SOL    HW1 5736   2.574   0.100   3.848
 1905SOL    HW2 5737   2.445   0.105   3.748
 1906SOL     OW 5738   2.665   1.402   4.648
 1906SOL    HW1 5739   2.755   1.416   4.606
 1906SOL    HW2 5740   2.594   1.404   4.577
 1907SOL     OW 5741   2.784   0.503   4.623
 1907SOL    HW1 5742   2.759   0.494   4.527
 1907SOL    HW2 5743   2.832   0.421   4.654
 1908SOL     OW 5744   2.401   0.064   4.236
 1908SOL    HW1 5745   2.320   0.065   4.294
 1908SOL    HW2 5746   2.404   0.147   4.181
 1909SOL     OW 5747   3.296   1.188   3.765
 1909SOL    HW1 5748   3.328   1.112   3.822
 1909SOL    HW2 5749   3.204   1.215   3.795
 1910SOL     OW 5750   2.159   0.035   3.895
 1910SOL    HW1 5751   2.208   0.119   3.874
 1910SOL    HW2 5752   2.221  -0.030   3.940
 1911SOL     OW 5753   2.797   0.236   4.204
 1911SOL    HW1 5754   2.749   0.277   4.126
 1911SOL    HW2 5755   2.896   0.234   4.185
 1912SOL     OW 5756   3.089   1.570   4.517
 1912SOL    HW1 5757   3.110   1.644   4.452
 1912SOL    HW2 5758   3.157   1.570   4.590
 1913SOL     OW 5759   2.321   1.152   4.465
 1913SOL    HW1 5760   2.250   1.125   4.530
 1913SOL    HW2 5761   2.295   1.124   4.372
 1914SOL     OW 5762   3.133   1.797   4.315
 1914SOL    HW1 5763   3.177   1.861   4.251
 1914SOL    HW2 5764   3.083   1.849   4.385
 1915SOL     OW 5765   2.894   0.549   3.740
 1915SOL    HW1 5766   2.853   0.631   3.701
 1915SOL    HW2 5767   2.958   0.575   3.813
 1916SOL     OW 5768   2.728   0.454   4.366
 1916SOL    HW1 5769   2.696   0.526   4.304
 1916SOL    HW2 5770   2.752   0.373   4.313
 1917SOL     OW 5771   2.879   0.039   4.477
 1917SOL    HW1 5772   2.807   0.044   4.408
 1917SOL    HW2 5773   2.855  -0.030   4.546
 1918SOL     OW 5774   3.291   1.173   4.591
 1918SOL    HW1 5775   3.236   1.089   4.584
 1918SOL    HW2 5776   3.317   1.202   4.499
 1919SOL     OW 5777   3.328   0.590   4.716
 1919SOL    HW1 5778   3.298   0.495   4.723
 1919SOL    HW2 5779   3.401   0.606   4.782
 1920SOL     OW 5780   3.719   0.833   4.101
 1920SOL    HW1 5781   3.761   0.769   4.165
 1920SOL    HW2 5782   3.681   0.782   4.023
 1921SOL     OW 5783   2.350   1.385   3.898
 1921SOL    HW1 5784   2.263   1.370   3.945
 1921SOL    HW2 5785   2.333   1.411   3.803
 1922SOL     OW 5786   3.526   1.280   4.381
 1922SOL    HW1 5787   3.625   1.288   4.395
 1922SOL    HW2 5788   3.481   1.364   4.412
 1923SOL     OW 5789   3.252   0.575   3.802
 1923SOL    HW1 5790   3.198   0.554   3.883
 1923SOL    HW2 5791   3.343   0.534   3.811
 1924SOL     OW 5792   2.389   0.256   4.052
 1924SOL    HW1 5793   2.416   0.197   3.977
 1924SOL    HW2 5794   2.389   0.351   4.021
 1925SOL     OW 5795   3.500   1.099   4.803
 1925SOL    HW1 5796   3.505   1.180   4.862
 1925SOL    HW2 5797   3.414   1.101   4.752
 1926SOL     OW 5798   2.567   1.050   4.092
 1926SOL    HW1 5799   2.553   1.057   4.191
 1926SOL    HW2 5800   2.651   0.999   4.074
 1927SOL     OW 5801   2.229   1.100   4.225
 1927SOL    HW1 5802   2.222   1.183   4.169
 1927SOL    HW2 5803   2.233   1.020   4.165
 1928SOL     OW 5804   2.428   0.537   4.589
 1928SOL    HW1 5805   2.440   0.603   4.515
 1928SOL    HW2 5806   2.474   0.571   4.672
 1929SOL     OW 5807   3.114   1.348   4.112
 1929SOL    HW1 5808   3.164   1.425   4.152
 1929SOL    HW2 5809   3.019   1.350   4.144
 1930SOL     OW 5810   3.444   0.639   4.196
 1930SOL    HW1 5811   3.413   0.700   4.269
 1930SOL    HW2 5812   3.494   0.691   4.127
 1931SOL     OW 5813   2.435   0.870   4.753
 1931SOL    HW1 5814   2.479   0.959   4.744
 1931SOL    HW2 5815   2.372   0.870   4.830
 1932SOL     OW 5816   3.071   0.525   3.999
 1932SOL    HW1 5817   3.084   0.441   4.053
 1932SOL    HW2 5818   3.042   0.599   4.059
 1933SOL     OW 5819   2.594   0.634   4.788
 1933SOL    HW1 5820   2.653   0.608   4.712
 1933SOL    HW2 5821   2.566   0.730   4.777
 1934SOL     OW 5822   2.169   0.063   4.342
 1934SOL    HW1 5823   2.158   0.157   4.375
 1934SOL    HW2 5824   2.164   0.000   4.419
 1935SOL     OW 5825   3.484   0.367   4.098
 1935SOL    HW1 5826   3.486   0.291   4.162
 1935SOL    HW2 5827   3.436   0.444   4.138
 1936SOL     OW 5828   2.885   0.766   4.690
 1936SOL    HW1 5829   2.900   0.787   4.786
 1936SOL    HW2 5830   2.855   0.671   4.681
 1937SOL     OW 5831   3.402   0.274   3.849
 1937SOL    HW1 5832   3.341   0.199   3.872
 1937SOL    HW2 5833   3.424   0.326   3.932
 1938SOL     OW 5834   3.165   0.838   3.766
 1938SOL    HW1 5835   3.199   0.745   3.781
 1938SOL    HW2 5836   3.183   0.865   3.671
 1939SOL     OW 5837   2.930   1.333   4.573
 1939SOL    HW1 5838   2.937   1.249   4.518
 1939SOL    HW2 5839   2.992   1.402   4.537
 1940SOL     OW 5840   2.181   0.810   4.673
 1940SOL    HW1 5841   2.274   0.846   4.678
 1940SOL    HW2 5842   2.175   0.725   4.725
 1941SOL     OW 5843   2.201   0.509   4.730
 1941SOL    HW1 5844   2.149   0.426   4.713
 1941SOL    HW2 5845   2.278   0.514   4.666
 1942SOL     OW 5846   1.870   1.326   3.924
 1942SOL    HW1 5847   1.777   1.347   3.893
 1942SOL    HW2 5848   1.880   1.227   3.937
 1943SOL     OW 5849   1.950   1.801   4.651
 1943SOL    HW1 5850   1.908   1.715   4.624
 1943SOL    HW2 5851   2.044   1.804   4.617
 1944SOL     OW 5852   2.366   1.568   4.634
 1944SOL    HW1 5853   2.432   1.642   4.643
 1944SOL    HW2 5854   2.410   1.489   4.592
 1945SOL     OW 5855   2.864   0.796   4.962
 1945SOL    HW1 5856   2.905   0.764   5.048
 1945SOL    HW2 5857   2.768   0.769   4.959
 1946SOL     OW 5858   2.677   0.572   4.049
 1946SOL    HW1 5859   2.684   0.483   4.003
 1946SOL    HW2 5860   2.583   0.606   4.041
 1947SOL     OW 5861   2.533   0.464   4.993
 1947SOL    HW1 5862   2.499   0.375   4.963
 1947SOL    HW2 5863   2.559   0.518   4.913
 1948SOL     OW 5864   2.335   0.500   3.915
 1948SOL    HW1 5865   2.396   0.580   3.919
 1948SOL    HW2 5866   2.240   0.531   3.922
 1949SOL     OW 5867   3.164   0.855   4.033
 1949SOL    HW1 5868   3.078   0.824   4.075
 1949SOL    HW2 5869   3.160   0.841   3.934
 1950SOL     OW 5870   3.621   1.747   4.878
 1950SOL    HW1 5871   3.682   1.777   4.805
 1950SOL    HW2 5872   3.583   1.658   4.856
 1951SOL     OW 5873   1.945   1.258   4.746
 1951SOL    HW1 5874   1.940   1.257   4.846
 1951SOL    HW2 5875   1.862   1.217   4.708
 1952SOL     OW 5876   3.588   0.135   4.247
 1952SOL    HW1 5877   3.661   0.118   4.180
 1952SOL    HW2 5878   3.557   0.048   4.285
 1953SOL     OW 5879   3.250   1.573   4.201
 1953SOL    HW1 5880   3.317   1.585   4.127
 1953SOL    HW2 5881   3.210   1.662   4.224
 1954SOL     OW 5882   3.142   0.927   4.396
 1954SOL    HW1 5883   3.202   0.846   4.398
 1954SOL    HW2 5884   3.182   0.996   4.336
 1955SOL     OW 5885   2.534   1.616   3.878
 1955SOL    HW1 5886   2.543   1.626   3.779
 1955SOL    HW2 5887   2.494   1.527   3.899
 1956SOL     OW 5888   3.703   0.175   4.687
 1956SOL    HW1 5889   3.742   0.090   4.651
 1956SOL    HW2 5890   3.605   0.177   4.668
 1957SOL     OW 5891   2.125   0.326   4.444
 1957SOL    HW1 5892   2.046   0.377   4.410
 1957SOL    HW2 5893   2.116   0.311   4.542
 1958SOL     OW 5894   3.056   1.612   3.755
 1958SOL    HW1 5895   3.062   1.519   3.792
 1958SOL    HW2 5896   2.997   1.612   3.675
 1959SOL     OW 5897   2.778   0.910   4.015
 1959SOL    HW1 5898   2.841   0.948   3.947
 1959SOL    HW2 5899   2.818   0.827   4.054
 1960SOL     OW 5900   3.366   1.607   3.768
 1960SOL    HW1 5901   3.274   1.644   3.775
 1960SOL    HW2 5902   3.404   1.627   3.678
 1961SOL     OW 5903   2.901   1.098   4.420
 1961SOL    HW1 5904   2.831   1.051   4.474
 1961SOL    HW2 5905   2.960   1.030   4.377
 1962SOL     OW 5906   2.876   0.236   4.695
 1962SOL    HW1 5907   2.868   0.200   4.602
 1962SOL    HW2 5908   2.874   0.160   4.760
 1963SOL     OW 5909   2.452   1.487   4.215
 1963SOL    HW1 5910   2.494   1.429   4.145
 1963SOL    HW2 5911   2.408   1.566   4.171
 1964SOL     OW 5912   2.117   1.348   4.014
 1964SOL    HW1 5913   2.021   1.349   3.987
 1964SOL    HW2 5914   2.129   1.401   4.098
 1965SOL     OW 5915   1.937   0.345   3.757
 1965SOL    HW1 5916   1.845   0.317   3.728
 1965SOL    HW2 5917   1.968   0.422   3.701
 1966SOL     OW 5918   1.934   0.166   4.042
 1966SOL    HW1 5919   1.917   0.249   3.988
 1966SOL    HW2 5920   2.024   0.129   4.020
 1967SOL     OW 5921   3.045   1.335   3.843
 1967SOL    HW1 5922   2.946   1.324   3.845
 1967SOL    HW2 5923   3.079   1.350   3.936
 1968SOL     OW 5924   3.355   1.767   4.683
 1968SOL    HW1 5925   3.388   1.831   4.614
 1968SOL    HW2 5926   3.421   1.761   4.758
 1969SOL     OW 5927   3.536   0.883   4.978
 1969SOL    HW1 5928   3.509   0.794   4.941
 1969SOL    HW2 5929   3.537   0.951   4.905
 1970SOL     OW 5930   3.087   0.325   4.173
 1970SOL    HW1 5931   3.152   0.251   4.162
 1970SOL    HW2 5932   3.107   0.375   4.257
 1971SOL     OW 5933   2.456   0.745   4.376
 1971SOL    HW1 5934   2.506   0.830   4.357
 1971SOL    HW2 5935   2.368   0.747   4.328
 1972SOL     OW 5936   2.721   1.374   3.740
 1972SOL    HW1 5937   2.675   1.389   3.828
 1972SOL    HW2 5938   2.765   1.459   3.710
 1973SOL     OW 5939   2.523   1.790   4.677
 1973SOL    HW1 5940   2.477   1.878   4.664
 1973SOL    HW2 5941   2.622   1.802   4.670
 1974SOL     OW 5942   2.721   0.956   4.585
 1974SOL    HW1 5943   2.775   0.887   4.633
 1974SOL    HW2 5944   2.689   1.025   4.651
 1975SOL     OW 5945   2.945   0.984   3.811
 1975SOL    HW1 5946   2.922   1.037   3.729
 1975SOL    HW2 5947   3.026   0.928   3.792
 1976SOL     OW 5948   3.723   1.569   4.575
 1976SOL    HW1 5949   3.652   1.557   4.505
 1976SOL    HW2 5950   3.724   1.490   4.635
 1977SOL     OW 5951   1.941   1.240   4.377
 1977SOL    HW1 5952   1.940   1.193   4.465
 1977SOL    HW2 5953   2.023   1.212   4.326
 1978SOL     OW 5954   3.686   0.192   4.951
 1978SOL    HW1 5955   3.682   0.102   4.995
 1978SOL    HW2 5956   3.689   0.181   4.852
 1979SOL     OW 5957   2.290   0.424   4.244
 1979SOL    HW1 5958   2.320   0.352   4.182
 1979SOL    HW2 5959   2.251   0.384   4.327
 1980SOL     OW 5960   2.674   1.586   4.411
 1980SOL    HW1 5961   2.706   1.596   4.317
 1980SOL    HW2 5962   2.595   1.524   4.413
 1981SOL     OW 5963   2.632   1.330   4.025
 1981SOL    HW1 5964   2.586   1.243   4.042
 1981SOL    HW2 5965   2.723   1.327   4.066
 1982SOL     OW 5966   3.214   0.052   3.892
 1982SOL    HW1 5967   3.249   0.011   3.808
 1982SOL    HW2 5968   3.124   0.014   3.912
 1983SOL     OW 5969   3.162   0.453   4.415
 1983SOL    HW1 5970   3.103   0.533   4.419
 1983SOL    HW2 5971   3.177   0.418   4.508
 1984SOL     OW 5972   3.455   0.221   4.606
 1984SOL    HW1 5973   3.371   0.220   4.660
 1984SOL    HW2 5974   3.457   0.304   4.550
 1985SOL     OW 5975   1.901   1.077   4.024
 1985SOL    HW1 5976   2.000   1.066   4.015
 1985SOL    HW2 5977   1.861   0.991   4.056
 1986SOL     OW 5978   2.737   1.646   4.061
 1986SOL    HW1 5979   2.660   1.611   4.007
 1986SOL    HW2 5980   2.705   1.717   4.123
 1987SOL     OW 5981   2.092   2.490   0.113
 1987SOL    HW1 5982   1.999   2.488   0.150
 1987SOL    HW2 5983   2.093   2.451   0.021
 1988SOL     OW 5984   2.087   2.137   0.996
 1988SOL    HW1 5985   2.122   2.120   1.088
 1988SOL    HW2 5986   1.999   2.092   0.984
 1989SOL     OW 5987   1.881   2.230   0.647
 1989SOL    HW1 5988   1.799   2.273   0.686
 1989SOL    HW2 5989   1.853   2.157   0.584
 1990SOL     OW 5990   2.431   3.137   1.165
 1990SOL    HW1 5991   2.338   3.130   1.128
 1990SOL    HW2 5992   2.442   3.226   1.209
 1991SOL     OW 5993   3.417   3.373   0.703
 1991SOL    HW1 5994   3.360   3.357   0.784
 1991SOL    HW2 5995   3.358   3.383   0.623
 1992SOL     OW 5996   2.997   2.565   0.717
 1992SOL    HW1 5997   3.054   2.643   0.692
 1992SOL    HW2 5998   2.937   2.591   0.793
 1993SOL     OW 5999   3.617   2.469   0.231
 1993SOL    HW1 6000   3.605   2.456   0.132
 1993SOL    HW2 6001   3.587   2.388   0.280
 1994SOL     OW 6002   2.630   3.006   1.023
 1994SOL    HW1 6003   2.552   3.023   1.083
 1994SOL    HW2 6004   2.664   3.093   0.987
 1995SOL     OW 6005   2.712   2.660   1.823
 1995SOL    HW1 6006   2.708   2.736   1.888
 1995SOL    HW2 6007   2.734   2.696   1.732
 1996SOL     OW 6008   2.547   2.874   0.665
 1996SOL    HW1 6009   2.616   2.858   0.735
 1996SOL    HW2 6010   2.474   2.931   0.703
 1997SOL     OW 6011   2.548   3.023   1.803
 1997SOL    HW1 6012   2.608   3.102   1.817
 1997SOL    HW2 6013   2.462   3.054   1.762
 1998SOL     OW 6014   2.197   3.297   1.061
 1998SOL    HW1 6015   2.119   3.266   1.008
 1998SOL    HW2 6016   2.255   3.355   1.004
 1999SOL     OW 6017   3.322   3.367   1.339
 1999SOL    HW1 6018   3.346   3.461   1.365
 1999SOL    HW2 6019   3.306   3.313   1.421
 2000SOL     OW 6020   2.300   2.254   1.499
 2000SOL    HW1 6021   2.382   2.198   1.508
 2000SOL    HW2 6022   2.219   2.196   1.503
 2001SOL     OW 6023   3.465   2.309   0.737
 2001SOL    HW1 6024   3.391   2.355   0.687
 2001SOL    HW2 6025   3.516   2.377   0.790
 2002SOL     OW 6026   2.093   3.575   0.483
 2002SOL    HW1 6027   2.127   3.652   0.537
 2002SOL    HW2 6028   2.137   3.575   0.393
 2003SOL     OW 6029   2.989   3.203   1.690
 2003SOL    HW1 6030   3.036   3.203   1.778
 2003SOL    HW2 6031   2.941   3.116   1.679
 2004SOL     OW 6032   2.092   3.296   0.538
 2004SOL    HW1 6033   2.066   3.392   0.538
 2004SOL    HW2 6034   2.021   3.242   0.583
 2005SOL     OW 6035   2.102   2.953   0.886
 2005SOL    HW1 6036   2.116   2.869   0.938
 2005SOL    HW2 6037   2.047   3.017   0.941
 2006SOL     OW 6038   2.482   3.648   1.439
 2006SOL    HW1 6039   2.390   3.631   1.474
 2006SOL    HW2 6040   2.510   3.740   1.465
 2007SOL     OW 6041   2.468   2.826   0.123
 2007SOL    HW1 6042   2.475   2.910   0.069
 2007SOL    HW2 6043   2.514   2.839   0.211
 2008SOL     OW 6044   3.456   1.976   1.480
 2008SOL    HW1 6045   3.438   2.043   1.408
 2008SOL    HW2 6046   3.453   2.022   1.569
 2009SOL     OW 6047   1.984   2.505   0.563
 2009SOL    HW1 6048   1.939   2.417   0.580
 2009SOL    HW2 6049   1.983   2.559   0.647
 2010SOL     OW 6050   3.704   3.629   0.359
 2010SOL    HW1 6051   3.758   3.600   0.439
 2010SOL    HW2 6052   3.734   3.719   0.330
 2011SOL     OW 6053   1.889   3.458   0.117
 2011SOL    HW1 6054   1.870   3.362   0.138
 2011SOL    HW2 6055   1.856   3.516   0.192
 2012SOL     OW 6056   3.551   2.784   0.612
 2012SOL    HW1 6057   3.646   2.755   0.620
 2012SOL    HW2 6058   3.543   2.849   0.537
 2013SOL     OW 6059   3.503   2.970   0.432
 2013SOL    HW1 6060   3.589   2.972   0.380
 2013SOL    HW2 6061   3.517   3.017   0.520
 2014SOL     OW 6062   1.975   2.599   1.597
 2014SOL    HW1 6063   2.063   2.586   1.642
 2014SOL    HW2 6064   1.962   2.696   1.575
 2015SOL     OW 6065   2.475   3.227   0.726
 2015SOL    HW1 6066   2.426   3.140   0.735
 2015SOL    HW2 6067   2.452   3.270   0.639
 2016SOL     OW 6068   3.155   3.090   1.423
 2016SOL    HW1 6069   3.192   3.017   1.365
 2016SOL    HW2 6070   3.207   3.095   1.508
 2017SOL     OW 6071   2.671   1.866   0.502
 2017SOL    HW1 6072   2.711   1.957   0.493
 2017SOL    HW2 6073   2.571   1.874   0.508
 2018SOL     OW 6074   2.059   2.838   1.264
 2018SOL    HW1 6075   2.148   2.793   1.250
 2018SOL    HW2 6076   1.986   2.773   1.245
 2019SOL     OW 6077   3.387   2.861   0.190
 2019SOL    HW1 6078   3.324   2.785   0.203
 2019SOL    HW2 6079   3.435   2.879   0.276
 2020SOL     OW 6080   3.049   3.654   1.616
 2020SOL    HW1 6081   3.073   3.714   1.540
 2020SOL    HW2 6082   3.056   3.559   1.586
 2021SOL     OW 6083   2.179   2.113   1.801
 2021SOL    HW1 6084   2.250   2.184   1.807
 2021SOL    HW2 6085   2.091   2.152   1.829
 2022SOL     OW 6086   3.328   3.279   0.953
 2022SOL    HW1 6087   3.269   3.285   1.033
 2022SOL    HW2 6088   3.313   3.191   0.907
 2023SOL     OW 6089   3.529   3.576   0.572
 2023SOL    HW1 6090   3.488   3.553   0.484
 2023SOL    HW2 6091   3.511   3.502   0.637
 2024SOL     OW 6092   2.460   2.591   0.270
 2024SOL    HW1 6093   2.484   2.660   0.202
 2024SOL    HW2 6094   2.382   2.624   0.324
 2025SOL     OW 6095   3.143   2.207   0.944
 2025SOL    HW1 6096   3.057   2.157   0.931
 2025SOL    HW2 6097   3.205   2.153   1.000
 2026SOL     OW 6098   3.438   3.524   0.307
 2026SOL    HW1 6099   3.527   3.570   0.310
 2026SOL    HW2 6100   3.417   3.500   0.212
 2027SOL     OW 6101   2.669   2.467   1.465
 2027SOL    HW1 6102   2.622   2.464   1.554
 2027SOL    HW2 6103   2.618   2.412   1.399
 2028SOL     OW 6104   3.256   2.331   1.674
 2028SOL    HW1 6105   3.236   2.374   1.762
 2028SOL    HW2 6106   3.334   2.269   1.683
 2029SOL     OW 6107   2.835   2.752   1.572
 2029SOL    HW1 6108   2.881   2.668   1.543
 2029SOL    HW2 6109   2.779   2.786   1.497
 2030SOL     OW 6110   2.853   2.272   1.242
 2030SOL    HW1 6111   2.776   2.306   1.296
 2030SOL    HW2 6112   2.819   2.221   1.163
 2031SOL     OW 6113   2.903   2.563   0.429
 2031SOL    HW1 6114   2.929   2.559   0.525
 2031SOL    HW2 6115   2.818   2.512   0.415
 2032SOL     OW 6116   1.938   2.673   0.789
 2032SOL    HW1 6117   2.037   2.661   0.798
 2032SOL    HW2 6118   1.914   2.768   0.810
 2033SOL     OW 6119   1.992   3.683   1.571
 2033SOL    HW1 6120   1.982   3.668   1.670
 2033SOL    HW2 6121   1.906   3.719   1.535
 2034SOL     OW 6122   2.727   2.210   0.195
 2034SOL    HW1 6123   2.786   2.273   0.146
 2034SOL    HW2 6124   2.746   2.116   0.166
 2035SOL     OW 6125   3.581   2.447   1.831
 2035SOL    HW1 6126   3.555   2.536   1.795
 2035SOL    HW2 6127   3.579   2.379   1.758
 2036SOL     OW 6128   3.224   3.006   0.545
 2036SOL    HW1 6129   3.307   2.977   0.497
 2036SOL    HW2 6130   3.175   3.073   0.489
 2037SOL     OW 6131   2.412   2.058   0.885
 2037SOL    HW1 6132   2.407   2.053   0.985
 2037SOL    HW2 6133   2.414   2.154   0.856
 2038SOL     OW 6134   2.870   3.318   0.477
 2038SOL    HW1 6135   2.824   3.390   0.425
 2038SOL    HW2 6136   2.866   3.338   0.575
 2039SOL     OW 6137   2.213   3.663   0.853
 2039SOL    HW1 6138   2.263   3.577   0.859
 2039SOL    HW2 6139   2.278   3.740   0.850
 2040SOL     OW 6140   3.657   2.928   0.873
 2040SOL    HW1 6141   3.595   2.913   0.797
 2040SOL    HW2 6142   3.605   2.939   0.958
 2041SOL     OW 6143   3.089   3.412   1.506
 2041SOL    HW1 6144   3.095   3.335   1.570
 2041SOL    HW2 6145   3.037   3.386   1.426
 2042SOL     OW 6146   2.183   2.805   0.242
 2042SOL    HW1 6147   2.265   2.844   0.200
 2042SOL    HW2 6148   2.156   2.723   0.193
 2043SOL     OW 6149   3.320   2.597   0.728
 2043SOL    HW1 6150   3.315   2.532   0.803
 2043SOL    HW2 6151   3.400   2.656   0.741
 2044SOL     OW 6152   2.323   3.128   1.727
 2044SOL    HW1 6153   2.273   3.129   1.641
 2044SOL    HW2 6154   2.260   3.110   1.803
 2045SOL     OW 6155   2.973   3.638   0.237
 2045SOL    HW1 6156   2.913   3.576   0.287
 2045SOL    HW2 6157   3.004   3.594   0.152
 2046SOL     OW 6158   2.064   2.147   1.498
 2046SOL    HW1 6159   1.984   2.207   1.485
 2046SOL    HW2 6160   2.054   2.098   1.584
 2047SOL     OW 6161   3.494   3.239   0.081
 2047SOL    HW1 6162   3.462   3.333   0.071
 2047SOL    HW2 6163   3.418   3.176   0.069
 2048SOL     OW 6164   2.326   3.605   0.323
 2048SOL    HW1 6165   2.359   3.644   0.409
 2048SOL    HW2 6166   2.402   3.598   0.258
 2049SOL     OW 6167   3.262   1.969   0.426
 2049SOL    HW1 6168   3.238   1.932   0.336
 2049SOL    HW2 6169   3.361   1.985   0.430
 2050SOL     OW 6170   2.111   3.647   1.241
 2050SOL    HW1 6171   2.168   3.582   1.291
 2050SOL    HW2 6172   2.095   3.614   1.148
 2051SOL     OW 6173   2.802   3.560   0.904
 2051SOL    HW1 6174   2.882   3.503   0.925
 2051SOL    HW2 6175   2.753   3.520   0.827
 2052SOL     OW 6176   2.244   2.562   0.480
 2052SOL    HW1 6177   2.289   2.472   0.477
 2052SOL    HW2 6178   2.150   2.551   0.513
 2053SOL     OW 6179   3.409   2.084   1.729
 2053SOL    HW1 6180   3.404   2.121   1.821
 2053SOL    HW2 6181   3.337   2.015   1.717
 2054SOL     OW 6182   2.476   1.984   0.117
 2054SOL    HW1 6183   2.574   1.962   0.124
 2054SOL    HW2 6184   2.445   1.967   0.024
 2055SOL     OW 6185   2.643   2.126   1.749
 2055SOL    HW1 6186   2.710   2.065   1.792
 2055SOL    HW2 6187   2.570   2.145   1.814
 2056SOL     OW 6188   2.750   3.376   1.195
 2056SOL    HW1 6189   2.727   3.351   1.101
 2056SOL    HW2 6190   2.811   3.307   1.234
 2057SOL     OW 6191   3.213   2.452   1.433
 2057SOL    HW1 6192   3.241   2.409   1.518
 2057SOL    HW2 6193   3.238   2.548   1.434
 2058SOL     OW 6194   2.665   3.264   0.924
 2058SOL    HW1 6195   2.755   3.278   0.882
 2058SOL    HW2 6196   2.594   3.266   0.853
 2059SOL     OW 6197   2.784   2.365   0.899
 2059SOL    HW1 6198   2.759   2.356   0.803
 2059SOL    HW2 6199   2.832   2.283   0.930
 2060SOL     OW 6200   2.401   1.926   0.512
 2060SOL    HW1 6201   2.320   1.927   0.570
 2060SOL    HW2 6202   2.404   2.009   0.457
 2061SOL     OW 6203   3.296   3.050   0.041
 2061SOL    HW1 6204   3.328   2.974   0.098
 2061SOL    HW2 6205   3.204   3.077   0.071
 2062SOL     OW 6206   2.797   2.098   0.480
 2062SOL    HW1 6207   2.749   2.139   0.402
 2062SOL    HW2 6208   2.896   2.096   0.461
 2063SOL     OW 6209   2.938   2.545   1.464
 2063SOL    HW1 6210   2.858   2.484   1.467
 2063SOL    HW2 6211   3.019   2.492   1.440
 2064SOL     OW 6212   3.089   3.432   0.793
 2064SOL    HW1 6213   3.110   3.506   0.728
 2064SOL    HW2 6214   3.157   3.432   0.866
 2065SOL     OW 6215   2.321   3.014   0.741
 2065SOL    HW1 6216   2.250   2.987   0.806
 2065SOL    HW2 6217   2.295   2.986   0.648
 2066SOL     OW 6218   3.133   3.659   0.591
 2066SOL    HW1 6219   3.177   3.723   0.527
 2066SOL    HW2 6220   3.083   3.711   0.661
 2067SOL     OW 6221   2.894   2.411   0.016
 2067SOL    HW1 6222   2.853   2.493  -0.023
 2067SOL    HW2 6223   2.958   2.437   0.089
 2068SOL     OW 6224   1.940   2.418   1.386
 2068SOL    HW1 6225   2.032   2.417   1.345
 2068SOL    HW2 6226   1.934   2.492   1.453
 2069SOL     OW 6227   2.423   2.084   1.147
 2069SOL    HW1 6228   2.461   2.000   1.184
 2069SOL    HW2 6229   2.335   2.103   1.191
 2070SOL     OW 6230   2.728   2.316   0.642
 2070SOL    HW1 6231   2.696   2.388   0.580
 2070SOL    HW2 6232   2.752   2.235   0.589
 2071SOL     OW 6233   2.879   1.901   0.753
 2071SOL    HW1 6234   2.807   1.906   0.684
 2071SOL    HW2 6235   2.855   1.832   0.822
 2072SOL     OW 6236   3.291   3.035   0.867
 2072SOL    HW1 6237   3.236   2.951   0.860
 2072SOL    HW2 6238   3.317   3.064   0.775
 2073SOL     OW 6239   3.328   2.452   0.992
 2073SOL    HW1 6240   3.298   2.357   0.999
 2073SOL    HW2 6241   3.401   2.468   1.058
 2074SOL     OW 6242   3.719   2.695   0.377
 2074SOL    HW1 6243   3.761   2.631   0.441
 2074SOL    HW2 6244   3.681   2.644   0.299
 2075SOL     OW 6245   2.350   3.247   0.174
 2075SOL    HW1 6246   2.263   3.232   0.221
 2075SOL    HW2 6247   2.333   3.273   0.079
 2076SOL     OW 6248   3.526   3.142   0.657
 2076SOL    HW1 6249   3.625   3.150   0.671
 2076SOL    HW2 6250   3.481   3.226   0.688
 2077SOL     OW 6251   3.252   2.437   0.078
 2077SOL    HW1 6252   3.198   2.416   0.159
 2077SOL    HW2 6253   3.343   2.396   0.087
 2078SOL     OW 6254   2.389   2.118   0.328
 2078SOL    HW1 6255   2.416   2.059   0.253
 2078SOL    HW2 6256   2.389   2.213   0.297
 2079SOL     OW 6257   3.616   3.085   1.588
 2079SOL    HW1 6258   3.707   3.046   1.575
 2079SOL    HW2 6259   3.624   3.181   1.612
 2080SOL     OW 6260   2.926   3.209   1.340
 2080SOL    HW1 6261   2.846   3.186   1.395
 2080SOL    HW2 6262   3.009   3.183   1.389
 2081SOL     OW 6263   3.454   3.491   1.625
 2081SOL    HW1 6264   3.481   3.525   1.535
 2081SOL    HW2 6265   3.533   3.453   1.671
 2082SOL     OW 6266   2.973   3.057   1.100
 2082SOL    HW1 6267   2.933   3.101   1.181
 2082SOL    HW2 6268   2.932   3.094   1.017
 2083SOL     OW 6269   3.500   2.961   1.079
 2083SOL    HW1 6270   3.505   3.042   1.138
 2083SOL    HW2 6271   3.414   2.963   1.028
 2084SOL     OW 6272   2.777   1.951   1.402
 2084SOL    HW1 6273   2.802   1.931   1.307
 2084SOL    HW2 6274   2.849   2.007   1.444
 2085SOL     OW 6275   2.842   2.978   1.719
 2085SOL    HW1 6276   2.743   2.984   1.729
 2085SOL    HW2 6277   2.865   2.898   1.663
 2086SOL     OW 6278   2.567   2.912   0.368
 2086SOL    HW1 6279   2.553   2.919   0.467
 2086SOL    HW2 6280   2.651   2.861   0.350
 2087SOL     OW 6281   2.272   2.675   1.251
 2087SOL    HW1 6282   2.358   2.687   1.301
 2087SOL    HW2 6283   2.230   2.588   1.278
 2088SOL     OW 6284   3.136   2.248   1.262
 2088SOL    HW1 6285   3.157   2.322   1.326
 2088SOL    HW2 6286   3.047   2.265   1.219
 2089SOL     OW 6287   1.926   3.426   1.331
 2089SOL    HW1 6288   1.880   3.508   1.297
 2089SOL    HW2 6289   2.024   3.445   1.340
 2090SOL     OW 6290   2.229   2.962   0.501
 2090SOL    HW1 6291   2.222   3.045   0.445
 2090SOL    HW2 6292   2.233   2.882   0.441
 2091SOL     OW 6293   2.428   2.399   0.865
 2091SOL    HW1 6294   2.440   2.465   0.791
 2091SOL    HW2 6295   2.474   2.433   0.948
 2092SOL     OW 6296   3.114   3.210   0.388
 2092SOL    HW1 6297   3.164   3.287   0.428
 2092SOL    HW2 6298   3.019   3.212   0.420
 2093SOL     OW 6299   3.134   3.307   1.142
 2093SOL    HW1 6300   3.181   3.320   1.229
 2093SOL    HW2 6301   3.068   3.233   1.151
 2094SOL     OW 6302   3.444   2.501   0.472
 2094SOL    HW1 6303   3.413   2.562   0.545
 2094SOL    HW2 6304   3.494   2.553   0.403
 2095SOL     OW 6305   2.216   3.372   1.329
 2095SOL    HW1 6306   2.195   3.328   1.242
 2095SOL    HW2 6307   2.313   3.398   1.332
 2096SOL     OW 6308   2.264   2.613   1.598
 2096SOL    HW1 6309   2.332   2.668   1.551
 2096SOL    HW2 6310   2.304   2.525   1.625
 2097SOL     OW 6311   3.449   2.641   1.670
 2097SOL    HW1 6312   3.357   2.679   1.665
 2097SOL    HW2 6313   3.509   2.688   1.605
 2098SOL     OW 6314   2.875   1.967   1.770
 2098SOL    HW1 6315   2.881   2.052   1.718
 2098SOL    HW2 6316   2.907   1.891   1.713
 2099SOL     OW 6317   2.366   1.912   1.740
 2099SOL    HW1 6318   2.324   1.855   1.670
 2099SOL    HW2 6319   2.300   1.981   1.772
 2100SOL     OW 6320   2.435   2.732   1.029
 2100SOL    HW1 6321   2.479   2.821   1.020
 2100SOL    HW2 6322   2.372   2.732   1.106
 2101SOL     OW 6323   3.222   2.724   1.045
 2101SOL    HW1 6324   3.147   2.724   0.979
 2101SOL    HW2 6325   3.259   2.632   1.054
 2102SOL     OW 6326   3.071   2.387   0.275
 2102SOL    HW1 6327   3.084   2.303   0.329
 2102SOL    HW2 6328   3.042   2.461   0.335
 2103SOL     OW 6329   2.169   2.075   1.231
 2103SOL    HW1 6330   2.146   2.112   1.321
 2103SOL    HW2 6331   2.139   1.980   1.225
 2104SOL     OW 6332   1.899   3.172   1.282
 2104SOL    HW1 6333   1.952   3.123   1.350
 2104SOL    HW2 6334   1.921   3.270   1.287
 2105SOL     OW 6335   2.594   2.496   1.064
 2105SOL    HW1 6336   2.653   2.470   0.988
 2105SOL    HW2 6337   2.566   2.592   1.053
 2106SOL     OW 6338   3.590   2.797   1.854
 2106SOL    HW1 6339   3.544   2.790   1.765
 2106SOL    HW2 6340   3.528   2.841   1.920
 2107SOL     OW 6341   2.169   1.925   0.618
 2107SOL    HW1 6342   2.158   2.019   0.651
 2107SOL    HW2 6343   2.164   1.862   0.695
 2108SOL     OW 6344   3.484   2.229   0.374
 2108SOL    HW1 6345   3.486   2.153   0.438
 2108SOL    HW2 6346   3.436   2.306   0.414
 2109SOL     OW 6347   2.885   2.628   0.966
 2109SOL    HW1 6348   2.900   2.649   1.062
 2109SOL    HW2 6349   2.855   2.533   0.957
 2110SOL     OW 6350   2.842   3.435   1.700
 2110SOL    HW1 6351   2.822   3.479   1.612
 2110SOL    HW2 6352   2.881   3.344   1.684
 2111SOL     OW 6353   3.721   3.380   1.605
 2111SOL    HW1 6354   3.735   3.407   1.510
 2111SOL    HW2 6355   3.804   3.402   1.658
 2112SOL     OW 6356   2.212   2.760   1.804
 2112SOL    HW1 6357   2.288   2.804   1.852
 2112SOL    HW2 6358   2.247   2.713   1.722
 2113SOL     OW 6359   3.402   2.136   0.125
 2113SOL    HW1 6360   3.341   2.061   0.148
 2113SOL    HW2 6361   3.424   2.188   0.208
 2114SOL     OW 6362   3.165   2.700   0.042
 2114SOL    HW1 6363   3.199   2.607   0.057
 2114SOL    HW2 6364   3.183   2.727  -0.053
 2115SOL     OW 6365   2.930   3.195   0.849
 2115SOL    HW1 6366   2.937   3.111   0.794
 2115SOL    HW2 6367   2.992   3.264   0.813
 2116SOL     OW 6368   2.181   2.672   0.949
 2116SOL    HW1 6369   2.274   2.708   0.954
 2116SOL    HW2 6370   2.175   2.587   1.001
 2117SOL     OW 6371   2.201   2.371   1.006
 2117SOL    HW1 6372   2.149   2.288   0.989
 2117SOL    HW2 6373   2.278   2.376   0.942
 2118SOL     OW 6374   3.000   2.242   1.678
 2118SOL    HW1 6375   2.955   2.305   1.742
 2118SOL    HW2 6376   3.093   2.273   1.661
 2119SOL     OW 6377   3.022   2.069   1.477
 2119SOL    HW1 6378   3.022   2.133   1.554
 2119SOL    HW2 6379   3.050   2.117   1.394
 2120SOL     OW 6380   1.870   3.188   0.200
 2120SOL    HW1 6381   1.777   3.209   0.169
 2120SOL    HW2 6382   1.880   3.089   0.213
 2121SOL     OW 6383   1.950   3.663   0.927
 2121SOL    HW1 6384   1.908   3.577   0.900
 2121SOL    HW2 6385   2.044   3.666   0.893
 2122SOL     OW 6386   2.366   3.430   0.910
 2122SOL    HW1 6387   2.432   3.504   0.919
 2122SOL    HW2 6388   2.410   3.351   0.868
 2123SOL     OW 6389   2.864   2.658   1.238
 2123SOL    HW1 6390   2.905   2.626   1.324
 2123SOL    HW2 6391   2.768   2.631   1.235
 2124SOL     OW 6392   1.902   2.406   1.114
 2124SOL    HW1 6393   1.987   2.373   1.073
 2124SOL    HW2 6394   1.915   2.421   1.212
 2125SOL     OW 6395   2.051   2.382   1.722
 2125SOL    HW1 6396   2.110   2.342   1.652
 2125SOL    HW2 6397   1.993   2.453   1.681
 2126SOL     OW 6398   3.231   2.812   1.660
 2126SOL    HW1 6399   3.270   2.901   1.680
 2126SOL    HW2 6400   3.241   2.792   1.563
 2127SOL     OW 6401   2.677   2.434   0.325
 2127SOL    HW1 6402   2.684   2.345   0.279
 2127SOL    HW2 6403   2.583   2.468   0.317
 2128SOL     OW 6404   3.519   2.466   1.206
 2128SOL    HW1 6405   3.481   2.397   1.268
 2128SOL    HW2 6406   3.601   2.430   1.162
 2129SOL     OW 6407   2.114   3.426   1.744
 2129SOL    HW1 6408   2.084   3.483   1.820
 2129SOL    HW2 6409   2.107   3.329   1.770
 2130SOL     OW 6410   2.533   2.326   1.269
 2130SOL    HW1 6411   2.499   2.237   1.239
 2130SOL    HW2 6412   2.559   2.380   1.189
 2131SOL     OW 6413   2.792   3.540   1.465
 2131SOL    HW1 6414   2.768   3.522   1.370
 2131SOL    HW2 6415   2.822   3.634   1.475
 2132SOL     OW 6416   2.335   2.362   0.191
 2132SOL    HW1 6417   2.396   2.442   0.195
 2132SOL    HW2 6418   2.240   2.393   0.198
 2133SOL     OW 6419   2.021   2.999   1.466
 2133SOL    HW1 6420   2.043   2.938   1.542
 2133SOL    HW2 6421   2.031   2.950   1.380
 2134SOL     OW 6422   3.209   2.921   1.234
 2134SOL    HW1 6423   3.233   2.858   1.160
 2134SOL    HW2 6424   3.119   2.961   1.216
 2135SOL     OW 6425   3.164   2.717   0.309
 2135SOL    HW1 6426   3.078   2.686   0.351
 2135SOL    HW2 6427   3.160   2.703   0.210
 2136SOL     OW 6428   3.621   3.609   1.154
 2136SOL    HW1 6429   3.682   3.639   1.081
 2136SOL    HW2 6430   3.583   3.520   1.132
 2137SOL     OW 6431   3.114   3.593   1.128
 2137SOL    HW1 6432   3.198   3.598   1.074
 2137SOL    HW2 6433   3.091   3.497   1.146
 2138SOL     OW 6434   1.945   3.120   1.022
 2138SOL    HW1 6435   1.940   3.119   1.122
 2138SOL    HW2 6436   1.862   3.079   0.984
 2139SOL     OW 6437   2.550   3.524   1.716
 2139SOL    HW1 6438   2.494   3.605   1.725
 2139SOL    HW2 6439   2.602   3.528   1.630
 2140SOL     OW 6440   2.765   1.948   0.133
 2140SOL    HW1 6441   2.816   1.949   0.047
 2140SOL    HW2 6442   2.821   1.906   0.204
 2141SOL     OW 6443   3.588   1.997   0.523
 2141SOL    HW1 6444   3.661   1.980   0.456
 2141SOL    HW2 6445   3.557   1.910   0.561
 2142SOL     OW 6446   3.250   3.435   0.477
 2142SOL    HW1 6447   3.317   3.447   0.403
 2142SOL    HW2 6448   3.210   3.524   0.500
 2143SOL     OW 6449   1.992   3.656   1.851
 2143SOL    HW1 6450   1.951   3.582   1.904
 2143SOL    HW2 6451   2.056   3.707   1.909
 2144SOL     OW 6452   3.142   2.789   0.672
 2144SOL    HW1 6453   3.202   2.708   0.674
 2144SOL    HW2 6454   3.182   2.858   0.612
 2145SOL     OW 6455   2.692   3.135   1.422
 2145SOL    HW1 6456   2.687   3.168   1.517
 2145SOL    HW2 6457   2.606   3.154   1.376
 2146SOL     OW 6458   2.534   3.478   0.154
 2146SOL    HW1 6459   2.543   3.488   0.055
 2146SOL    HW2 6460   2.494   3.389   0.175
 2147SOL     OW 6461   3.512   3.582   1.394
 2147SOL    HW1 6462   3.565   3.592   1.310
 2147SOL    HW2 6463   3.485   3.672   1.428
 2148SOL     OW 6464   3.703   2.037   0.963
 2148SOL    HW1 6465   3.742   1.952   0.927
 2148SOL    HW2 6466   3.605   2.039   0.944
 2149SOL     OW 6467   2.125   2.188   0.720
 2149SOL    HW1 6468   2.046   2.239   0.686
 2149SOL    HW2 6469   2.116   2.173   0.818
 2150SOL     OW 6470   3.056   3.474   0.031
 2150SOL    HW1 6471   3.062   3.381   0.068
 2150SOL    HW2 6472   2.997   3.474  -0.049
 2151SOL     OW 6473   2.684   2.864   1.372
 2151SOL    HW1 6474   2.724   2.863   1.280
 2151SOL    HW2 6475   2.694   2.956   1.412
 2152SOL     OW 6476   2.778   2.772   0.291
 2152SOL    HW1 6477   2.841   2.810   0.223
 2152SOL    HW2 6478   2.818   2.689   0.330
 2153SOL     OW 6479   3.366   3.469   0.044
 2153SOL    HW1 6480   3.274   3.506   0.051
 2153SOL    HW2 6481   3.404   3.489  -0.046
 2154SOL     OW 6482   2.234   3.150   1.490
 2154SOL    HW1 6483   2.221   3.243   1.456
 2154SOL    HW2 6484   2.150   3.098   1.477
 2155SOL     OW 6485   3.476   3.154   1.289
 2155SOL    HW1 6486   3.536   3.157   1.369
 2155SOL    HW2 6487   3.401   3.218   1.302
 2156SOL     OW 6488   2.901   2.960   0.696
 2156SOL    HW1 6489   2.831   2.913   0.750
 2156SOL    HW2 6490   2.960   2.892   0.653
 2157SOL     OW 6491   2.876   2.098   0.971
 2157SOL    HW1 6492   2.868   2.062   0.878
 2157SOL    HW2 6493   2.874   2.022   1.036
 2158SOL     OW 6494   2.452   3.349   0.491
 2158SOL    HW1 6495   2.494   3.291   0.421
 2158SOL    HW2 6496   2.408   3.428   0.447
 2159SOL     OW 6497   3.571   2.247   1.381
 2159SOL    HW1 6498   3.644   2.316   1.385
 2159SOL    HW2 6499   3.599   2.172   1.322
 2160SOL     OW 6500   2.117   3.210   0.290
 2160SOL    HW1 6501   2.021   3.211   0.263
 2160SOL    HW2 6502   2.129   3.263   0.374
 2161SOL     OW 6503   1.967   2.875   1.726
 2161SOL    HW1 6504   1.890   2.842   1.780
 2161SOL    HW2 6505   2.052   2.845   1.768
 2162SOL     OW 6506   2.534   2.065   1.489
 2162SOL    HW1 6507   2.624   2.049   1.449
 2162SOL    HW2 6508   2.542   2.070   1.588
 2163SOL     OW 6509   1.937   2.207   0.033
 2163SOL    HW1 6510   1.845   2.179   0.004
 2163SOL    HW2 6511   1.968   2.284  -0.023
 2164SOL     OW 6512   3.302   2.718   1.398
 2164SOL    HW1 6513   3.245   2.770   1.335
 2164SOL    HW2 6514   3.398   2.730   1.374
 2165SOL     OW 6515   1.934   2.028   0.318
 2165SOL    HW1 6516   1.917   2.111   0.264
 2165SOL    HW2 6517   2.024   1.991   0.296
 2166SOL     OW 6518   3.045   3.197   0.119
 2166SOL    HW1 6519   2.946   3.186   0.121
 2166SOL    HW2 6520   3.079   3.212   0.212
 2167SOL     OW 6521   2.475   2.704   1.431
 2167SOL    HW1 6522   2.531   2.785   1.414
 2167SOL    HW2 6523   2.534   2.624   1.434
 2168SOL     OW 6524   3.355   3.629   0.959
 2168SOL    HW1 6525   3.388   3.693   0.890
 2168SOL    HW2 6526   3.421   3.623   1.034
 2169SOL     OW 6527   2.578   2.427   1.708
 2169SOL    HW1 6528   2.597   2.492   1.782
 2169SOL    HW2 6529   2.638   2.347   1.717
 2170SOL     OW 6530   3.312   3.082   1.633
 2170SOL    HW1 6531   3.303   3.072   1.732
 2170SOL    HW2 6532   3.408   3.075   1.607
 2171SOL     OW 6533   2.252   3.603   1.560
 2171SOL    HW1 6534   2.161   3.644   1.558
 2171SOL    HW2 6535   2.245   3.509   1.592
 2172SOL     OW 6536   3.536   2.745   1.254
 2172SOL    HW1 6537   3.509   2.656   1.217
 2172SOL    HW2 6538   3.537   2.813   1.181
 2173SOL     OW 6539   3.087   2.187   0.449
 2173SOL    HW1 6540   3.152   2.113   0.438
 2173SOL    HW2 6541   3.107   2.237   0.533
 2174SOL     OW 6542   2.456   2.607   0.652
 2174SOL    HW1 6543   2.506   2.692   0.633
 2174SOL    HW2 6544   2.368   2.609   0.604
 2175SOL     OW 6545   3.639   2.204   1.642
 2175SOL    HW1 6546   3.622   2.235   1.548
 2175SOL    HW2 6547   3.555   2.167   1.680
 2176SOL     OW 6548   3.592   2.796   1.517
 2176SOL    HW1 6549   3.630   2.887   1.532
 2176SOL    HW2 6550   3.584   2.779   1.418
 2177SOL     OW 6551   2.721   3.236   0.016
 2177SOL    HW1 6552   2.675   3.251   0.104
 2177SOL    HW2 6553   2.765   3.321  -0.014
 2178SOL     OW 6554   2.523   3.652   0.953
 2178SOL    HW1 6555   2.477   3.740   0.940
 2178SOL    HW2 6556   2.622   3.664   0.946
 2179SOL     OW 6557   2.721   2.818   0.861
 2179SOL    HW1 6558   2.775   2.749   0.909
 2179SOL    HW2 6559   2.689   2.887   0.927
 2180SOL     OW 6560   2.945   2.846   0.087
 2180SOL    HW1 6561   2.922   2.899   0.005
 2180SOL    HW2 6562   3.026   2.790   0.068
 2181SOL     OW 6563   3.723   3.431   0.851
 2181SOL    HW1 6564   3.652   3.419   0.781
 2181SOL    HW2 6565   3.724   3.352   0.911
 2182SOL     OW 6566   2.083   3.176   1.844
 2182SOL    HW1 6567   2.018   3.103   1.823
 2182SOL    HW2 6568   2.087   3.190   1.942
 2183SOL     OW 6569   1.941   3.102   0.653
 2183SOL    HW1 6570   1.940   3.055   0.741
 2183SOL    HW2 6571   2.023   3.074   0.602
 2184SOL     OW 6572   2.534   3.253   1.624
 2184SOL    HW1 6573   2.456   3.203   1.662
 2184SOL    HW2 6574   2.531   3.348   1.655
 2185SOL     OW 6575   3.686   2.054   1.227
 2185SOL    HW1 6576   3.682   1.964   1.271
 2185SOL    HW2 6577   3.689   2.043   1.128
 2186SOL     OW 6578   2.290   2.286   0.520
 2186SOL    HW1 6579   2.320   2.214   0.458
 2186SOL    HW2 6580   2.251   2.246   0.603
 2187SOL     OW 6581   3.567   3.349   1.104
 2187SOL    HW1 6582   3.474   3.324   1.077
 2187SOL    HW2 6583   3.593   3.299   1.186
 2188SOL     OW 6584   2.179   2.409   1.280
 2188SOL    HW1 6585   2.217   2.350   1.352
 2188SOL    HW2 6586   2.219   2.383   1.192
 2189SOL     OW 6587   2.674   3.448   0.687
 2189SOL    HW1 6588   2.706   3.458   0.593
 2189SOL    HW2 6589   2.595   3.386   0.689
 2190SOL     OW 6590   3.286   2.076   1.112
 2190SOL    HW1 6591   3.338   2.011   1.167
 2190SOL    HW2 6592   3.237   2.139   1.173
 2191SOL     OW 6593   2.863   1.896   1.154
 2191SOL    HW1 6594   2.800   1.824   1.123
 2191SOL    HW2 6595   2.956   1.860   1.154
 2192SOL     OW 6596   2.632   3.192   0.301
 2192SOL    HW1 6597   2.586   3.105   0.318
 2192SOL    HW2 6598   2.723   3.189   0.342
 2193SOL     OW 6599   2.480   3.429   1.284
 2193SOL    HW1 6600   2.475   3.511   1.341
 2193SOL    HW2 6601   2.569   3.426   1.239
 2194SOL     OW 6602   3.214   1.914   0.168
 2194SOL    HW1 6603   3.249   1.873   0.084
 2194SOL    HW2 6604   3.124   1.876   0.188
 2195SOL     OW 6605   3.162   2.315   0.691
 2195SOL    HW1 6606   3.103   2.395   0.695
 2195SOL    HW2 6607   3.177   2.280   0.784
 2196SOL     OW 6608   3.455   2.083   0.882
 2196SOL    HW1 6609   3.371   2.082   0.936
 2196SOL    HW2 6610   3.457   2.166   0.826
 2197SOL     OW 6611   1.901   2.939   0.300
 2197SOL    HW1 6612   2.000   2.928   0.291
 2197SOL    HW2 6613   1.861   2.853   0.332
 2198SOL     OW 6614   2.737   3.508   0.337
 2198SOL    HW1 6615   2.660   3.473   0.283
 2198SOL    HW2 6616   2.705   3.579   0.399
 2199SOL     OW 6617   2.092   2.490   1.975
 2199SOL    HW1 6618   1.999   2.488   2.012
 2199SOL    HW2 6619   2.093   2.451   1.883
 2200SOL     OW 6620   2.087   2.137   2.858
 2200SOL    HW1 6621   2.122   2.120   2.950
 2200SOL    HW2 6622   1.999   2.092   2.846
 2201SOL     OW 6623   1.881   2.230   2.509
 2201SOL    HW1 6624   1.799   2.273   2.548
 2201SOL    HW2 6625   1.853   2.157   2.446
 2202SOL     OW 6626   2.431   3.137   3.027
 2202SOL    HW1 6627   2.338   3.130   2.990
 2202SOL    HW2 6628   2.442   3.226   3.071
 2203SOL     OW 6629   3.417   3.373   2.565
 2203SOL    HW1 6630   3.360   3.357   2.646
 2203SOL    HW2 6631   3.358   3.383   2.485
 2204SOL     OW 6632   2.997   2.565   2.579
 2204SOL    HW1 6633   3.054   2.643   2.554
 2204SOL    HW2 6634   2.937   2.591   2.655
 2205SOL     OW 6635   3.617   2.469   2.093
 2205SOL    HW1 6636   3.605   2.456   1.994
 2205SOL    HW2 6637   3.587   2.388   2.142
 2206SOL     OW 6638   2.630   3.006   2.885
 2206SOL    HW1 6639   2.552   3.023   2.945
 2206SOL    HW2 6640   2.664   3.093   2.849
 2207SOL     OW 6641   2.712   2.660   3.685
 2207SOL    HW1 6642   2.708   2.736   3.750
 2207SOL    HW2 6643   2.734   2.696   3.594
 2208SOL     OW 6644   2.547   2.874   2.527
 2208SOL    HW1 6645   2.616   2.858   2.597
 2208SOL    HW2 6646   2.474   2.931   2.565
 2209SOL     OW 6647   2.548   3.023   3.665
 2209SOL    HW1 6648   2.608   3.102   3.679
 2209SOL    HW2 6649   2.462   3.054   3.624
 2210SOL     OW 6650   2.197   3.297   2.923
 2210SOL    HW1 6651   2.119   3.266   2.870
 2210SOL    HW2 6652   2.255   3.355   2.866
 2211SOL     OW 6653   3.322   3.367   3.201
 2211SOL    HW1 6654   3.346   3.461   3.227
 2211SOL    HW2 6655   3.306   3.313   3.283
 2212SOL     OW 6656   2.300   2.254   3.361
 2212SOL    HW1 6657   2.382   2.198   3.370
 2212SOL    HW2 6658   2.219   2.196   3.365
 2213SOL     OW 6659   3.465   2.309   2.599
 2213SOL    HW1 6660   3.391   2.355   2.549
 2213SOL    HW2 6661   3.516   2.377   2.652
 2214SOL     OW 6662   2.093   3.575   2.345
 2214SOL    HW1 6663   2.127   3.652   2.399
 2214SOL    HW2 6664   2.137   3.575   2.255
 2215SOL     OW 6665   2.989   3.203   3.552
 2215SOL    HW1 6666   3.036   3.203   3.640
 2215SOL    HW2 6667   2.941   3.116   3.541
 2216SOL     OW 6668   2.092   3.296   2.400
 2216SOL    HW1 6669   2.066   3.392   2.400
 2216SOL    HW2 6670   2.021   3.242   2.445
 2217SOL     OW 6671   2.102   2.953   2.748
 2217SOL    HW1 6672   2.116   2.869   2.800
 2217SOL    HW2 6673   2.047   3.017   2.803
 2218SOL     OW 6674   2.482   3.648   3.301
 2218SOL    HW1 6675   2.390   3.631   3.336
 2218SOL    HW2 6676   2.510   3.740   3.327
 2219SOL     OW 6677   2.468   2.826   1.985
 2219SOL    HW1 6678   2.475   2.910   1.931
 2219SOL    HW2 6679   2.514   2.839   2.073
 2220SOL     OW 6680   3.456   1.976   3.342
 2220SOL    HW1 6681   3.438   2.043   3.270
 2220SOL    HW2 6682   3.453   2.022   3.431
 2221SOL     OW 6683   1.984   2.505   2.425
 2221SOL    HW1 6684   1.939   2.417   2.442
 2221SOL    HW2 6685   1.983   2.559   2.509
 2222SOL     OW 6686   3.704   3.629   2.221
 2222SOL    HW1 6687   3.758   3.600   2.301
 2222SOL    HW2 6688   3.734   3.719   2.192
 2223SOL     OW 6689   1.889   3.458   1.979
 2223SOL    HW1 6690   1.870   3.362   2.000
 2223SOL    HW2 6691   1.856   3.516   2.054
 2224SOL     OW 6692   3.551   2.784   2.474
 2224SOL    HW1 6693   3.646   2.755   2.482
 2224SOL    HW2 6694   3.543   2.849   2.399
 2225SOL     OW 6695   3.503   2.970   2.294
 2225SOL    HW1 6696   3.589   2.972   2.242
 2225SOL    HW2 6697   3.517   3.017   2.382
 2226SOL     OW 6698   1.975   2.599   3.459
 2226SOL    HW1 6699   2.063   2.586   3.504
 2226SOL    HW2 6700   1.962   2.696   3.437
 2227SOL     OW 6701   2.475   3.227   2.588
 2227SOL    HW1 6702   2.426   3.140   2.597
 2227SOL    HW2 6703   2.452   3.270   2.501
 2228SOL     OW 6704   3.155   3.090   3.285
 2228SOL    HW1 6705   3.192   3.017   3.227
 2228SOL    HW2 6706   3.207   3.095   3.370
 2229SOL     OW 6707   2.671   1.866   2.364
 2229SOL    HW1 6708   2.711   1.957   2.355
 2229SOL    HW2 6709   2.571   1.874   2.370
 2230SOL     OW 6710   2.059   2.838   3.126
 2230SOL    HW1 6711   2.148   2.793   3.112
 2230SOL    HW2 6712   1.986   2.773   3.107
 2231SOL     OW 6713   3.387   2.861   2.052
 2231SOL    HW1 6714   3.324   2.785   2.065
 2231SOL    HW2 6715   3.435   2.879   2.138
 2232SOL     OW 6716   3.049   3.654   3.478
 2232SOL    HW1 6717   3.073   3.714   3.402
 2232SOL    HW2 6718   3.056   3.559   3.448
 2233SOL     OW 6719   2.179   2.113   3.663
 2233SOL    HW1 6720   2.250   2.184   3.669
 2233SOL    HW2 6721   2.091   2.152   3.691
 2234SOL     OW 6722   3.328   3.279   2.815
 2234SOL    HW1 6723   3.269   3.285   2.895
 2234SOL    HW2 6724   3.313   3.191   2.769
 2235SOL     OW 6725   3.529   3.576   2.434
 2235SOL    HW1 6726   3.488   3.553   2.346
 2235SOL    HW2 6727   3.511   3.502   2.499
 2236SOL     OW 6728   3.143   2.207   2.806
 2236SOL    HW1 6729   3.057   2.157   2.793
 2236SOL    HW2 6730   3.205   2.153   2.862
 2237SOL     OW 6731   3.438   3.524   2.169
 2237SOL    HW1 6732   3.527   3.570   2.172
 2237SOL    HW2 6733   3.417   3.500   2.074
 2238SOL     OW 6734   2.669   2.467   3.327
 2238SOL    HW1 6735   2.622   2.464   3.416
 2238SOL    HW2 6736   2.618   2.412   3.261
 2239SOL     OW 6737   3.256   2.331   3.536
 2239SOL    HW1 6738   3.236   2.374   3.624
 2239SOL    HW2 6739   3.334   2.269   3.545
 2240SOL     OW 6740   2.835   2.752   3.434
 2240SOL    HW1 6741   2.881   2.668   3.405
 2240SOL    HW2 6742   2.779   2.786   3.359
 2241SOL     OW 6743   2.853   2.272   3.104
 2241SOL    HW1 6744   2.776   2.306   3.158
 2241SOL    HW2 6745   2.819   2.221   3.025
 2242SOL     OW 6746   2.903   2.563   2.291
 2242SOL    HW1 6747   2.929   2.559   2.387
 2242SOL    HW2 6748   2.818   2.512   2.277
 2243SOL     OW 6749   1.938   2.673   2.651
 2243SOL    HW1 6750   2.037   2.661   2.660
 2243SOL    HW2 6751   1.914   2.768   2.672
 2244SOL     OW 6752   1.992   3.683   3.433
 2244SOL    HW1 6753   1.982   3.668   3.532
 2244SOL    HW2 6754   1.906   3.719   3.397
 2245SOL     OW 6755   2.727   2.210   2.057
 2245SOL    HW1 6756   2.786   2.273   2.008
 2245SOL    HW2 6757   2.746   2.116   2.028
 2246SOL     OW 6758   3.581   2.447   3.693
 2246SOL    HW1 6759   3.555   2.536   3.657
 2246SOL    HW2 6760   3.579   2.379   3.620
 2247SOL     OW 6761   3.224   3.006   2.407
 2247SOL    HW1 6762   3.307   2.977   2.359
 2247SOL    HW2 6763   3.175   3.073   2.351
 2248SOL     OW 6764   2.870   3.318   2.339
 2248SOL    HW1 6765   2.824   3.390   2.287
 2248SOL    HW2 6766   2.866   3.338   2.437
 2249SOL     OW 6767   2.213   3.663   2.715
 2249SOL    HW1 6768   2.263   3.577   2.721
 2249SOL    HW2 6769   2.278   3.740   2.712
 2250SOL     OW 6770   3.657   2.928   2.735
 2250SOL    HW1 6771   3.595   2.913   2.659
 2250SOL    HW2 6772   3.605   2.939   2.820
 2251SOL     OW 6773   3.089   3.412   3.368
 2251SOL    HW1 6774   3.095   3.335   3.432
 2251SOL    HW2 6775   3.037   3.386   3.288
 2252SOL     OW 6776   2.183   2.805   2.104
 2252SOL    HW1 6777   2.265   2.844   2.062
 2252SOL    HW2 6778   2.156   2.723   2.055
 2253SOL     OW 6779   3.320   2.597   2.590
 2253SOL    HW1 6780   3.315   2.532   2.665
 2253SOL    HW2 6781   3.400   2.656   2.603
 2254SOL     OW 6782   2.323   3.128   3.589
 2254SOL    HW1 6783   2.273   3.129   3.503
 2254SOL    HW2 6784   2.260   3.110   3.665
 2255SOL     OW 6785   2.973   3.638   2.099
 2255SOL    HW1 6786   2.913   3.576   2.149
 2255SOL    HW2 6787   3.004   3.594   2.014
 2256SOL     OW 6788   2.064   2.147   3.360
 2256SOL    HW1 6789   1.984   2.207   3.347
 2256SOL    HW2 6790   2.054   2.098   3.446
 2257SOL     OW 6791   3.494   3.239   1.943
 2257SOL    HW1 6792   3.462   3.333   1.933
 2257SOL    HW2 6793   3.418   3.176   1.931
 2258SOL     OW 6794   2.326   3.605   2.185
 2258SOL    HW1 6795   2.359   3.644   2.271
 2258SOL    HW2 6796   2.402   3.598   2.120
 2259SOL     OW 6797   3.262   1.969   2.288
 2259SOL    HW1 6798   3.238   1.932   2.198
 2259SOL    HW2 6799   3.361   1.985   2.292
 2260SOL     OW 6800   2.111   3.647   3.103
 2260SOL    HW1 6801   2.168   3.582   3.153
 2260SOL    HW2 6802   2.095   3.614   3.010
 2261SOL     OW 6803   2.802   3.560   2.766
 2261SOL    HW1 6804   2.882   3.503   2.787
 2261SOL    HW2 6805   2.753   3.520   2.689
 2262SOL     OW 6806   3.409   2.084   3.591
 2262SOL    HW1 6807   3.404   2.121   3.683
 2262SOL    HW2 6808   3.337   2.015   3.579
 2263SOL     OW 6809   2.476   1.984   1.979
 2263SOL    HW1 6810   2.574   1.962   1.986
 2263SOL    HW2 6811   2.445   1.967   1.886
 2264SOL     OW 6812   2.643   2.126   3.611
 2264SOL    HW1 6813   2.710   2.065   3.654
 2264SOL    HW2 6814   2.570   2.145   3.676
 2265SOL     OW 6815   2.750   3.376   3.057
 2265SOL    HW1 6816   2.727   3.351   2.963
 2265SOL    HW2 6817   2.811   3.307   3.096
 2266SOL     OW 6818   3.213   2.452   3.295
 2266SOL    HW1 6819   3.241   2.409   3.380
 2266SOL    HW2 6820   3.238   2.548   3.296
 2267SOL     OW 6821   2.665   3.264   2.786
 2267SOL    HW1 6822   2.755   3.278   2.744
 2267SOL    HW2 6823   2.594   3.266   2.715
 2268SOL     OW 6824   2.784   2.365   2.761
 2268SOL    HW1 6825   2.759   2.356   2.665
 2268SOL    HW2 6826   2.832   2.283   2.792
 2269SOL     OW 6827   2.401   1.926   2.374
 2269SOL    HW1 6828   2.320   1.927   2.432
 2269SOL    HW2 6829   2.404   2.009   2.319
 2270SOL     OW 6830   3.296   3.050   1.903
 2270SOL    HW1 6831   3.328   2.974   1.960
 2270SOL    HW2 6832   3.204   3.077   1.933
 2271SOL     OW 6833   2.159   1.897   2.033
 2271SOL    HW1 6834   2.208   1.981   2.012
 2271SOL    HW2 6835   2.221   1.832   2.078
 2272SOL     OW 6836   2.797   2.098   2.342
 2272SOL    HW1 6837   2.749   2.139   2.264
 2272SOL    HW2 6838   2.896   2.096   2.323
 2273SOL     OW 6839   2.938   2.545   3.326
 2273SOL    HW1 6840   2.858   2.484   3.329
 2273SOL    HW2 6841   3.019   2.492   3.302
 2274SOL     OW 6842   3.089   3.432   2.655
 2274SOL    HW1 6843   3.110   3.506   2.590
 2274SOL    HW2 6844   3.157   3.432   2.728
 2275SOL     OW 6845   2.321   3.014   2.603
 2275SOL    HW1 6846   2.250   2.987   2.668
 2275SOL    HW2 6847   2.295   2.986   2.510
 2276SOL     OW 6848   3.133   3.659   2.453
 2276SOL    HW1 6849   3.177   3.723   2.389
 2276SOL    HW2 6850   3.083   3.711   2.523
 2277SOL     OW 6851   2.894   2.411   1.878
 2277SOL    HW1 6852   2.853   2.493   1.839
 2277SOL    HW2 6853   2.958   2.437   1.951
 2278SOL     OW 6854   1.940   2.418   3.248
 2278SOL    HW1 6855   2.032   2.417   3.207
 2278SOL    HW2 6856   1.934   2.492   3.315
 2279SOL     OW 6857   2.423   2.084   3.009
 2279SOL    HW1 6858   2.461   2.000   3.046
 2279SOL    HW2 6859   2.335   2.103   3.053
 2280SOL     OW 6860   2.879   1.901   2.615
 2280SOL    HW1 6861   2.807   1.906   2.546
 2280SOL    HW2 6862   2.855   1.832   2.684
 2281SOL     OW 6863   3.291   3.035   2.729
 2281SOL    HW1 6864   3.236   2.951   2.722
 2281SOL    HW2 6865   3.317   3.064   2.637
 2282SOL     OW 6866   3.328   2.452   2.854
 2282SOL    HW1 6867   3.298   2.357   2.861
 2282SOL    HW2 6868   3.401   2.468   2.920
 2283SOL     OW 6869   3.719   2.695   2.239
 2283SOL    HW1 6870   3.761   2.631   2.303
 2283SOL    HW2 6871   3.681   2.644   2.161
 2284SOL     OW 6872   2.350   3.247   2.036
 2284SOL    HW1 6873   2.263   3.232   2.083
 2284SOL    HW2 6874   2.333   3.273   1.941
 2285SOL     OW 6875   3.526   3.142   2.519
 2285SOL    HW1 6876   3.625   3.150   2.533
 2285SOL    HW2 6877   3.481   3.226   2.550
 2286SOL     OW 6878   3.252   2.437   1.940
 2286SOL    HW1 6879   3.198   2.416   2.021
 2286SOL    HW2 6880   3.343   2.396   1.949
 2287SOL     OW 6881   2.389   2.118   2.190
 2287SOL    HW1 6882   2.416   2.059   2.115
 2287SOL    HW2 6883   2.389   2.213   2.159
 2288SOL     OW 6884   3.616   3.085   3.450
 2288SOL    HW1 6885   3.707   3.046   3.437
 2288SOL    HW2 6886   3.624   3.181   3.474
 2289SOL     OW 6887   2.926   3.209   3.202
 2289SOL    HW1 6888   2.846   3.186   3.257
 2289SOL    HW2 6889   3.009   3.183   3.251
 2290SOL     OW 6890   3.454   3.491   3.487
 2290SOL    HW1 6891   3.481   3.525   3.397
 2290SOL    HW2 6892   3.533   3.453   3.533
 2291SOL     OW 6893   2.973   3.057   2.962
 2291SOL    HW1 6894   2.933   3.101   3.043
 2291SOL    HW2 6895   2.932   3.094   2.879
 2292SOL     OW 6896   3.500   2.961   2.941
 2292SOL    HW1 6897   3.505   3.042   3.000
 2292SOL    HW2 6898   3.414   2.963   2.890
 2293SOL     OW 6899   2.777   1.951   3.264
 2293SOL    HW1 6900   2.802   1.931   3.169
 2293SOL    HW2 6901   2.849   2.007   3.306
 2294SOL     OW 6902   2.842   2.978   3.581
 2294SOL    HW1 6903   2.743   2.984   3.591
 2294SOL    HW2 6904   2.865   2.898   3.525
 2295SOL     OW 6905   2.567   2.912   2.230
 2295SOL    HW1 6906   2.553   2.919   2.329
 2295SOL    HW2 6907   2.651   2.861   2.212
 2296SOL     OW 6908   2.272   2.675   3.113
 2296SOL    HW1 6909   2.358   2.687   3.163
 2296SOL    HW2 6910   2.230   2.588   3.140
 2297SOL     OW 6911   3.136   2.248   3.124
 2297SOL    HW1 6912   3.157   2.322   3.188
 2297SOL    HW2 6913   3.047   2.265   3.081
 2298SOL     OW 6914   1.926   3.426   3.193
 2298SOL    HW1 6915   1.880   3.508   3.159
 2298SOL    HW2 6916   2.024   3.445   3.202
 2299SOL     OW 6917   2.229   2.962   2.363
 2299SOL    HW1 6918   2.222   3.045   2.307
 2299SOL    HW2 6919   2.233   2.882   2.303
 2300SOL     OW 6920   3.114   3.210   2.250
 2300SOL    HW1 6921   3.164   3.287   2.290
 2300SOL    HW2 6922   3.019   3.212   2.282
 2301SOL     OW 6923   3.134   3.307   3.004
 2301SOL    HW1 6924   3.181   3.320   3.091
 2301SOL    HW2 6925   3.068   3.233   3.013
 2302SOL     OW 6926   3.444   2.501   2.334
 2302SOL    HW1 6927   3.413   2.562   2.407
 2302SOL    HW2 6928   3.494   2.553   2.265
 2303SOL     OW 6929   2.216   3.372   3.191
 2303SOL    HW1 6930   2.195   3.328   3.104
 2303SOL    HW2 6931   2.313   3.398   3.194
 2304SOL     OW 6932   2.264   2.613   3.460
 2304SOL    HW1 6933   2.332   2.668   3.413
 2304SOL    HW2 6934   2.304   2.525   3.487
 2305SOL     OW 6935   3.449   2.641   3.532
 2305SOL    HW1 6936   3.357   2.679   3.527
 2305SOL    HW2 6937   3.509   2.688   3.467
 2306SOL     OW 6938   2.875   1.967   3.632
 2306SOL    HW1 6939   2.881   2.052   3.580
 2306SOL    HW2 6940   2.907   1.891   3.575
 2307SOL     OW 6941   2.366   1.912   3.602
 2307SOL    HW1 6942   2.324   1.855   3.532
 2307SOL    HW2 6943   2.300   1.981   3.634
 2308SOL     OW 6944   2.435   2.732   2.891
 2308SOL    HW1 6945   2.479   2.821   2.882
 2308SOL    HW2 6946   2.372   2.732   2.968
 2309SOL     OW 6947   3.222   2.724   2.907
 2309SOL    HW1 6948   3.147   2.724   2.841
 2309SOL    HW2 6949   3.259   2.632   2.916
 2310SOL     OW 6950   3.071   2.387   2.137
 2310SOL    HW1 6951   3.084   2.303   2.191
 2310SOL    HW2 6952   3.042   2.461   2.197
 2311SOL     OW 6953   2.169   2.075   3.093
 2311SOL    HW1 6954   2.146   2.112   3.183
 2311SOL    HW2 6955   2.139   1.980   3.087
 2312SOL     OW 6956   1.899   3.172   3.144
 2312SOL    HW1 6957   1.952   3.123   3.212
 2312SOL    HW2 6958   1.921   3.270   3.149
 2313SOL     OW 6959   2.594   2.496   2.926
 2313SOL    HW1 6960   2.653   2.470   2.850
 2313SOL    HW2 6961   2.566   2.592   2.915
 2314SOL     OW 6962   3.590   2.797   3.716
 2314SOL    HW1 6963   3.544   2.790   3.627
 2314SOL    HW2 6964   3.528   2.841   3.782
 2315SOL     OW 6965   2.169   1.925   2.480
 2315SOL    HW1 6966   2.158   2.019   2.513
 2315SOL    HW2 6967   2.164   1.862   2.557
 2316SOL     OW 6968   3.484   2.229   2.236
 2316SOL    HW1 6969   3.486   2.153   2.300
 2316SOL    HW2 6970   3.436   2.306   2.276
 2317SOL     OW 6971   2.885   2.628   2.828
 2317SOL    HW1 6972   2.900   2.649   2.924
 2317SOL    HW2 6973   2.855   2.533   2.819
 2318SOL     OW 6974   2.842   3.435   3.562
 2318SOL    HW1 6975   2.822   3.479   3.474
 2318SOL    HW2 6976   2.881   3.344   3.546
 2319SOL     OW 6977   3.721   3.380   3.467
 2319SOL    HW1 6978   3.735   3.407   3.372
 2319SOL    HW2 6979   3.804   3.402   3.520
 2320SOL     OW 6980   2.212   2.760   3.666
 2320SOL    HW1 6981   2.288   2.804   3.714
 2320SOL    HW2 6982   2.247   2.713   3.584
 2321SOL     OW 6983   3.402   2.136   1.987
 2321SOL    HW1 6984   3.341   2.061   2.010
 2321SOL    HW2 6985   3.424   2.188   2.070
 2322SOL     OW 6986   3.165   2.700   1.904
 2322SOL    HW1 6987   3.199   2.607   1.919
 2322SOL    HW2 6988   3.183   2.727   1.809
 2323SOL     OW 6989   2.930   3.195   2.711
 2323SOL    HW1 6990   2.937   3.111   2.656
 2323SOL    HW2 6991   2.992   3.264   2.675
 2324SOL     OW 6992   2.181   2.672   2.811
 2324SOL    HW1 6993   2.274   2.708   2.816
 2324SOL    HW2 6994   2.175   2.587   2.863
 2325SOL     OW 6995   3.000   2.242   3.540
 2325SOL    HW1 6996   2.955   2.305   3.604
 2325SOL    HW2 6997   3.093   2.273   3.523
 2326SOL     OW 6998   3.022   2.069   3.339
 2326SOL    HW1 6999   3.022   2.133   3.416
 2326SOL    HW2 7000   3.050   2.117   3.256
 2327SOL     OW 7001   1.870   3.188   2.062
 2327SOL    HW1 7002   1.777   3.209   2.031
 2327SOL    HW2 7003   1.880   3.089   2.075
 2328SOL     OW 7004   1.950   3.663   2.789
 2328SOL    HW1 7005   1.908   3.577   2.762
 2328SOL    HW2 7006   2.044   3.666   2.755
 2329SOL     OW 7007   2.366   3.430   2.772
 2329SOL    HW1 7008   2.432   3.504   2.781
 2329SOL    HW2 7009   2.410   3.351   2.730
 2330SOL     OW 7010   2.864   2.658   3.100
 2330SOL    HW1 7011   2.905   2.626   3.186
 2330SOL    HW2 7012   2.768   2.631   3.097
 2331SOL     OW 7013   1.902   2.406   2.976
 2331SOL    HW1 7014   1.987   2.373   2.935
 2331SOL    HW2 7015   1.915   2.421   3.074
 2332SOL     OW 7016   2.051   2.382   3.584
 2332SOL    HW1 7017   2.110   2.342   3.514
 2332SOL    HW2 7018   1.993   2.453   3.543
 2333SOL     OW 7019   3.231   2.812   3.522
 2333SOL    HW1 7020   3.270   2.901   3.542
 2333SOL    HW2 7021   3.241   2.792   3.425
 2334SOL     OW 7022   3.519   2.466   3.068
 2334SOL    HW1 7023   3.481   2.397   3.130
 2334SOL    HW2 7024   3.601   2.430   3.024
 2335SOL     OW 7025   2.114   3.426   3.606
 2335SOL    HW1 7026   2.084   3.483   3.682
 2335SOL    HW2 7027   2.107   3.329   3.632
 2336SOL     OW 7028   2.533   2.326   3.131
 2336SOL    HW1 7029   2.499   2.237   3.101
 2336SOL    HW2 7030   2.559   2.380   3.051
 2337SOL     OW 7031   2.792   3.540   3.327
 2337SOL    HW1 7032   2.768   3.522   3.232
 2337SOL    HW2 7033   2.822   3.634   3.337
 2338SOL     OW 7034   2.021   2.999   3.328
 2338SOL    HW1 7035   2.043   2.938   3.404
 2338SOL    HW2 7036   2.031   2.950   3.242
 2339SOL     OW 7037   3.209   2.921   3.096
 2339SOL    HW1 7038   3.233   2.858   3.022
 2339SOL    HW2 7039   3.119   2.961   3.078
 2340SOL     OW 7040   3.164   2.717   2.171
 2340SOL    HW1 7041   3.078   2.686   2.213
 2340SOL    HW2 7042   3.160   2.703   2.072
 2341SOL     OW 7043   3.621   3.609   3.016
 2341SOL    HW1 7044   3.682   3.639   2.943
 2341SOL    HW2 7045   3.583   3.520   2.994
 2342SOL     OW 7046   3.114   3.593   2.990
 2342SOL    HW1 7047   3.198   3.598   2.936
 2342SOL    HW2 7048   3.091   3.497   3.008
 2343SOL     OW 7049   1.945   3.120   2.884
 2343SOL    HW1 7050   1.940   3.119   2.984
 2343SOL    HW2 7051   1.862   3.079   2.846
 2344SOL     OW 7052   2.550   3.524   3.578
 2344SOL    HW1 7053   2.494   3.605   3.587
 2344SOL    HW2 7054   2.602   3.528   3.492
 2345SOL     OW 7055   3.588   1.997   2.385
 2345SOL    HW1 7056   3.661   1.980   2.318
 2345SOL    HW2 7057   3.557   1.910   2.423
 2346SOL     OW 7058   3.250   3.435   2.339
 2346SOL    HW1 7059   3.317   3.447   2.265
 2346SOL    HW2 7060   3.210   3.524   2.362
 2347SOL     OW 7061   1.992   3.656   3.713
 2347SOL    HW1 7062   1.951   3.582   3.766
 2347SOL    HW2 7063   2.056   3.707   3.771
 2348SOL     OW 7064   3.142   2.789   2.534
 2348SOL    HW1 7065   3.202   2.708   2.536
 2348SOL    HW2 7066   3.182   2.858   2.474
 2349SOL     OW 7067   2.692   3.135   3.284
 2349SOL    HW1 7068   2.687   3.168   3.379
 2349SOL    HW2 7069   2.606   3.154   3.238
 2350SOL     OW 7070   2.534   3.478   2.016
 2350SOL    HW1 7071   2.543   3.488   1.917
 2350SOL    HW2 7072   2.494   3.389   2.037
 2351SOL     OW 7073   3.512   3.582   3.256
 2351SOL    HW1 7074   3.565   3.592   3.172
 2351SOL    HW2 7075   3.485   3.672   3.290
 2352SOL     OW 7076   3.703   2.037   2.825
 2352SOL    HW1 7077   3.742   1.952   2.789
 2352SOL    HW2 7078   3.605   2.039   2.806
 2353SOL     OW 7079   2.125   2.188   2.582
 2353SOL    HW1 7080   2.046   2.239   2.548
 2353SOL    HW2 7081   2.116   2.173   2.680
 2354SOL     OW 7082   3.056   3.474   1.893
 2354SOL    HW1 7083   3.062   3.381   1.930
 2354SOL    HW2 7084   2.997   3.474   1.813
 2355SOL     OW 7085   2.684   2.864   3.234
 2355SOL    HW1 7086   2.724   2.863   3.142
 2355SOL    HW2 7087   2.694   2.956   3.274
 2356SOL     OW 7088   2.778   2.772   2.153
 2356SOL    HW1 7089   2.841   2.810   2.085
 2356SOL    HW2 7090   2.818   2.689   2.192
 2357SOL     OW 7091   3.366   3.469   1.906
 2357SOL    HW1 7092   3.274   3.506   1.913
 2357SOL    HW2 7093   3.404   3.489   1.816
 2358SOL     OW 7094   2.234   3.150   3.352
 2358SOL    HW1 7095   2.221   3.243   3.318
 2358SOL    HW2 7096   2.150   3.098   3.339
 2359SOL     OW 7097   3.476   3.154   3.151
 2359SOL    HW1 7098   3.536   3.157   3.231
 2359SOL    HW2 7099   3.401   3.218   3.164
 2360SOL     OW 7100   2.901   2.960   2.558
 2360SOL    HW1 7101   2.831   2.913   2.612
 2360SOL    HW2 7102   2.960   2.892   2.515
 2361SOL     OW 7103   2.876   2.098   2.833
 2361SOL    HW1 7104   2.868   2.062   2.740
 2361SOL    HW2 7105   2.874   2.022   2.898
 2362SOL     OW 7106   2.452   3.349   2.353
 2362SOL    HW1 7107   2.494   3.291   2.283
 2362SOL    HW2 7108   2.408   3.428   2.309
 2363SOL     OW 7109   3.571   2.247   3.243
 2363SOL    HW1 7110   3.644   2.316   3.247
 2363SOL    HW2 7111   3.599   2.172   3.184
 2364SOL     OW 7112   2.117   3.210   2.152
 2364SOL    HW1 7113   2.021   3.211   2.125
 2364SOL    HW2 7114   2.129   3.263   2.236
 2365SOL     OW 7115   1.967   2.875   3.588
 2365SOL    HW1 7116   1.890   2.842   3.642
 2365SOL    HW2 7117   2.052   2.845   3.630
 2366SOL     OW 7118   2.534   2.065   3.351
 2366SOL    HW1 7119   2.624   2.049   3.311
 2366SOL    HW2 7120   2.542   2.070   3.450
 2367SOL     OW 7121   1.937   2.207   1.895
 2367SOL    HW1 7122   1.845   2.179   1.866
 2367SOL    HW2 7123   1.968   2.284   1.839
 2368SOL     OW 7124   3.302   2.718   3.260
 2368SOL    HW1 7125   3.245   2.770   3.197
 2368SOL    HW2 7126   3.398   2.730   3.236
 2369SOL     OW 7127   1.934   2.028   2.180
 2369SOL    HW1 7128   1.917   2.111   2.126
 2369SOL    HW2 7129   2.024   1.991   2.158
 2370SOL     OW 7130   3.045   3.197   1.981
 2370SOL    HW1 7131   2.946   3.186   1.983
 2370SOL    HW2 7132   3.079   3.212   2.074
 2371SOL     OW 7133   2.475   2.704   3.293
 2371SOL    HW1 7134   2.531   2.785   3.276
 2371SOL    HW2 7135   2.534   2.624   3.296
 2372SOL     OW 7136   3.355   3.629   2.821
 2372SOL    HW1 7137   3.388   3.693   2.752
 2372SOL    HW2 7138   3.421   3.623   2.896
 2373SOL     OW 7139   2.578   2.427   3.570
 2373SOL    HW1 7140   2.597   2.492   3.644
 2373SOL    HW2 7141   2.638   2.347   3.579
 2374SOL     OW 7142   3.312   3.082   3.495
 2374SOL    HW1 7143   3.303   3.072   3.594
 2374SOL    HW2 7144   3.408   3.075   3.469
 2375SOL     OW 7145   2.252   3.603   3.422
 2375SOL    HW1 7146   2.161   3.644   3.420
 2375SOL    HW2 7147   2.245   3.509   3.454
 2376SOL     OW 7148   3.536   2.745   3.116
 2376SOL    HW1 7149   3.509   2.656   3.079
 2376SOL    HW2 7150   3.537   2.813   3.043
 2377SOL     OW 7151   3.087   2.187   2.311
 2377SOL    HW1 7152   3.152   2.113   2.300
 2377SOL    HW2 7153   3.107   2.237   2.395
 2378SOL     OW 7154   3.639   2.204   3.504
 2378SOL    HW1 7155   3.622   2.235   3.410
 2378SOL    HW2 7156   3.555   2.167   3.542
 2379SOL     OW 7157   3.592   2.796   3.379
 2379SOL    HW1 7158   3.630   2.887   3.394
 2379SOL    HW2 7159   3.584   2.779   3.280
 2380SOL     OW 7160   2.721   3.236   1.878
 2380SOL    HW1 7161   2.675   3.251   1.966
 2380SOL    HW2 7162   2.765   3.321   1.848
 2381SOL     OW 7163   2.523   3.652   2.815
 2381SOL    HW1 7164   2.477   3.740   2.802
 2381SOL    HW2 7165   2.622   3.664   2.808
 2382SOL     OW 7166   2.721   2.818   2.723
 2382SOL    HW1 7167   2.775   2.749   2.771
 2382SOL    HW2 7168   2.689   2.887   2.789
 2383SOL     OW 7169   2.945   2.846   1.949
 2383SOL    HW1 7170   2.922   2.899   1.867
 2383SOL    HW2 7171   3.026   2.790   1.930
 2384SOL     OW 7172   3.723   3.431   2.713
 2384SOL    HW1 7173   3.652   3.419   2.643
 2384SOL    HW2 7174   3.724   3.352   2.773
 2385SOL     OW 7175   2.083   3.176   3.706
 2385SOL    HW1 7176   2.018   3.103   3.685
 2385SOL    HW2 7177   2.087   3.190   3.804
 2386SOL     OW 7178   1.941   3.102   2.515
 2386SOL    HW1 7179   1.940   3.055   2.603
 2386SOL    HW2 7180   2.023   3.074   2.464
 2387SOL     OW 7181   2.534   3.253   3.486
 2387SOL    HW1 7182   2.456   3.203   3.524
 2387SOL    HW2 7183   2.531   3.348   3.517
 2388SOL     OW 7184   3.686   2.054   3.089
 2388SOL    HW1 7185   3.682   1.964   3.133
 2388SOL    HW2 7186   3.689   2.043   2.990
 2389SOL     OW 7187   3.567   3.349   2.966
 2389SOL    HW1 7188   3.474   3.324   2.939
 2389SOL    HW2 7189   3.593   3.299   3.048
 2390SOL     OW 7190   2.179   2.409   3.142
 2390SOL    HW1 7191   2.217   2.350   3.214
 2390SOL    HW2 7192   2.219   2.383   3.054
 2391SOL     OW 7193   2.674   3.448   2.549
 2391SOL    HW1 7194   2.706   3.458   2.455
 2391SOL    HW2 7195   2.595   3.386   2.551
 2392SOL     OW 7196   3.286   2.076   2.974
 2392SOL    HW1 7197   3.338   2.011   3.029
 2392SOL    HW2 7198   3.237   2.139   3.035
 2393SOL     OW 7199   2.863   1.896   3.016
 2393SOL    HW1 7200   2.800   1.824   2.985
 2393SOL    HW2 7201   2.956   1.860   3.016
 2394SOL     OW 7202   2.632   3.192   2.163
 2394SOL    HW1 7203   2.586   3.105   2.180
 2394SOL    HW2 7204   2.723   3.189   2.204
 2395SOL     OW 7205   2.480   3.429   3.146
 2395SOL    HW1 7206   2.475   3.511   3.203
 2395SOL    HW2 7207   2.569   3.426   3.101
 2396SOL     OW 7208   3.214   1.914   2.030
 2396SOL    HW1 7209   3.249   1.873   1.946
 2396SOL    HW2 7210   3.124   1.876   2.050
 2397SOL     OW 7211   3.162   2.315   2.553
 2397SOL    HW1 7212   3.103   2.395   2.557
 2397SOL    HW2 7213   3.177   2.280   2.646
 2398SOL     OW 7214   3.455   2.083   2.744
 2398SOL    HW1 7215   3.371   2.082   2.798
 2398SOL    HW2 7216   3.457   2.166   2.688
 2399SOL     OW 7217   1.901   2.939   2.162
 2399SOL    HW1 7218   2.000   2.928   2.153
 2399SOL    HW2 7219   1.861   2.853   2.194
 2400SOL     OW 7220   2.737   3.508   2.199
 2400SOL    HW1 7221   2.660   3.473   2.145
 2400SOL    HW2 7222   2.705   3.579   2.261
 2401SOL     OW 7223   2.092   2.490   3.837
 2401SOL    HW1 7224   1.999   2.488   3.874
 2401SOL    HW2 7225   2.093   2.451   3.745
 2402SOL     OW 7226   2.087   2.137   4.720
 2402SOL    HW1 7227   2.122   2.120   4.812
 2402SOL    HW2 7228   1.999   2.092   4.708
 2403SOL     OW 7229   1.881   2.230   4.371
 2403SOL    HW1 7230   1.799   2.273   4.410
 2403SOL    HW2 7231   1.853   2.157   4.308
 2404SOL     OW 7232   3.417   3.373   4.427
 2404SOL    HW1 7233   3.360   3.357   4.508
 2404SOL    HW2 7234   3.358   3.383   4.347
 2405SOL     OW 7235   2.997   2.565   4.441
 2405SOL    HW1 7236   3.054   2.643   4.416
 2405SOL    HW2 7237   2.937   2.591   4.517
 2406SOL     OW 7238   3.617   2.469   3.955
 2406SOL    HW1 7239   3.605   2.456   3.856
 2406SOL    HW2 7240   3.587   2.388   4.004
 2407SOL     OW 7241   2.630   3.006   4.747
 2407SOL    HW1 7242   2.552   3.023   4.807
 2407SOL    HW2 7243   2.664   3.093   4.711
 2408SOL     OW 7244   2.547   2.874   4.389
 2408SOL    HW1 7245   2.616   2.858   4.459
 2408SOL    HW2 7246   2.474   2.931   4.427
 2409SOL     OW 7247   2.197   3.297   4.785
 2409SOL    HW1 7248   2.119   3.266   4.732
 2409SOL    HW2 7249   2.255   3.355   4.728
 2410SOL     OW 7250   3.465   2.309   4.461
 2410SOL    HW1 7251   3.391   2.355   4.411
 2410SOL    HW2 7252   3.516   2.377   4.514
 2411SOL     OW 7253   2.093   3.575   4.207
 2411SOL    HW1 7254   2.127   3.652   4.261
 2411SOL    HW2 7255   2.137   3.575   4.117
 2412SOL     OW 7256   2.092   3.296   4.262
 2412SOL    HW1 7257   2.066   3.392   4.262
 2412SOL    HW2 7258   2.021   3.242   4.307
 2413SOL     OW 7259   2.102   2.953   4.610
 2413SOL    HW1 7260   2.116   2.869   4.662
 2413SOL    HW2 7261   2.047   3.017   4.665
 2414SOL     OW 7262   2.468   2.826   3.847
 2414SOL    HW1 7263   2.475   2.910   3.793
 2414SOL    HW2 7264   2.514   2.839   3.935
 2415SOL     OW 7265   1.984   2.505   4.287
 2415SOL    HW1 7266   1.939   2.417   4.304
 2415SOL    HW2 7267   1.983   2.559   4.371
 2416SOL     OW 7268   3.704   3.629   4.083
 2416SOL    HW1 7269   3.758   3.600   4.163
 2416SOL    HW2 7270   3.734   3.719   4.054
 2417SOL     OW 7271   1.889   3.458   3.841
 2417SOL    HW1 7272   1.870   3.362   3.862
 2417SOL    HW2 7273   1.856   3.516   3.916
 2418SOL     OW 7274   3.551   2.784   4.336
 2418SOL    HW1 7275   3.646   2.755   4.344
 2418SOL    HW2 7276   3.543   2.849   4.261
 2419SOL     OW 7277   3.503   2.970   4.156
 2419SOL    HW1 7278   3.589   2.972   4.104
 2419SOL    HW2 7279   3.517   3.017   4.244
 2420SOL     OW 7280   2.475   3.227   4.450
 2420SOL    HW1 7281   2.426   3.140   4.459
 2420SOL    HW2 7282   2.452   3.270   4.363
 2421SOL     OW 7283   2.671   1.866   4.226
 2421SOL    HW1 7284   2.711   1.957   4.217
 2421SOL    HW2 7285   2.571   1.874   4.232
 2422SOL     OW 7286   3.387   2.861   3.914
 2422SOL    HW1 7287   3.324   2.785   3.927
 2422SOL    HW2 7288   3.435   2.879   4.000
 2423SOL     OW 7289   3.328   3.279   4.677
 2423SOL    HW1 7290   3.269   3.285   4.757
 2423SOL    HW2 7291   3.313   3.191   4.631
 2424SOL     OW 7292   3.529   3.576   4.296
 2424SOL    HW1 7293   3.488   3.553   4.208
 2424SOL    HW2 7294   3.511   3.502   4.361
 2425SOL     OW 7295   2.460   2.591   3.994
 2425SOL    HW1 7296   2.484   2.660   3.926
 2425SOL    HW2 7297   2.382   2.624   4.048
 2426SOL     OW 7298   3.143   2.207   4.668
 2426SOL    HW1 7299   3.057   2.157   4.655
 2426SOL    HW2 7300   3.205   2.153   4.724
 2427SOL     OW 7301   3.438   3.524   4.031
 2427SOL    HW1 7302   3.527   3.570   4.034
 2427SOL    HW2 7303   3.417   3.500   3.936
 2428SOL     OW 7304   2.903   2.563   4.153
 2428SOL    HW1 7305   2.929   2.559   4.249
 2428SOL    HW2 7306   2.818   2.512   4.139
 2429SOL     OW 7307   1.938   2.673   4.513
 2429SOL    HW1 7308   2.037   2.661   4.522
 2429SOL    HW2 7309   1.914   2.768   4.534
 2430SOL     OW 7310   2.727   2.210   3.919
 2430SOL    HW1 7311   2.786   2.273   3.870
 2430SOL    HW2 7312   2.746   2.116   3.890
 2431SOL     OW 7313   3.224   3.006   4.269
 2431SOL    HW1 7314   3.307   2.977   4.221
 2431SOL    HW2 7315   3.175   3.073   4.213
 2432SOL     OW 7316   2.412   2.058   4.609
 2432SOL    HW1 7317   2.407   2.053   4.709
 2432SOL    HW2 7318   2.414   2.154   4.580
 2433SOL     OW 7319   2.870   3.318   4.201
 2433SOL    HW1 7320   2.824   3.390   4.149
 2433SOL    HW2 7321   2.866   3.338   4.299
 2434SOL     OW 7322   2.213   3.663   4.577
 2434SOL    HW1 7323   2.263   3.577   4.583
 2434SOL    HW2 7324   2.278   3.740   4.574
 2435SOL     OW 7325   3.657   2.928   4.597
 2435SOL    HW1 7326   3.595   2.913   4.521
 2435SOL    HW2 7327   3.605   2.939   4.682
 2436SOL     OW 7328   2.183   2.805   3.966
 2436SOL    HW1 7329   2.265   2.844   3.924
 2436SOL    HW2 7330   2.156   2.723   3.917
 2437SOL     OW 7331   3.320   2.597   4.452
 2437SOL    HW1 7332   3.315   2.532   4.527
 2437SOL    HW2 7333   3.400   2.656   4.465
 2438SOL     OW 7334   2.973   3.638   3.961
 2438SOL    HW1 7335   2.913   3.576   4.011
 2438SOL    HW2 7336   3.004   3.594   3.876
 2439SOL     OW 7337   3.494   3.239   3.805
 2439SOL    HW1 7338   3.462   3.333   3.795
 2439SOL    HW2 7339   3.418   3.176   3.793
 2440SOL     OW 7340   2.326   3.605   4.047
 2440SOL    HW1 7341   2.359   3.644   4.133
 2440SOL    HW2 7342   2.402   3.598   3.982
 2441SOL     OW 7343   3.262   1.969   4.150
 2441SOL    HW1 7344   3.238   1.932   4.060
 2441SOL    HW2 7345   3.361   1.985   4.154
 2442SOL     OW 7346   2.111   3.647   4.965
 2442SOL    HW1 7347   2.168   3.582   5.015
 2442SOL    HW2 7348   2.095   3.614   4.872
 2443SOL     OW 7349   2.802   3.560   4.628
 2443SOL    HW1 7350   2.882   3.503   4.649
 2443SOL    HW2 7351   2.753   3.520   4.551
 2444SOL     OW 7352   2.244   2.562   4.204
 2444SOL    HW1 7353   2.289   2.472   4.201
 2444SOL    HW2 7354   2.150   2.551   4.237
 2445SOL     OW 7355   2.476   1.984   3.841
 2445SOL    HW1 7356   2.574   1.962   3.848
 2445SOL    HW2 7357   2.445   1.967   3.748
 2446SOL     OW 7358   2.665   3.264   4.648
 2446SOL    HW1 7359   2.755   3.278   4.606
 2446SOL    HW2 7360   2.594   3.266   4.577
 2447SOL     OW 7361   2.784   2.365   4.623
 2447SOL    HW1 7362   2.759   2.356   4.527
 2447SOL    HW2 7363   2.832   2.283   4.654
 2448SOL     OW 7364   2.401   1.926   4.236
 2448SOL    HW1 7365   2.320   1.927   4.294
 2448SOL    HW2 7366   2.404   2.009   4.181
 2449SOL     OW 7367   3.296   3.050   3.765
 2449SOL    HW1 7368   3.328   2.974   3.822
 2449SOL    HW2 7369   3.204   3.077   3.795
 2450SOL     OW 7370   2.159   1.897   3.895
 2450SOL    HW1 7371   2.208   1.981   3.874
 2450SOL    HW2 7372   2.221   1.832   3.940
 2451SOL     OW 7373   2.797   2.098   4.204
 2451SOL    HW1 7374   2.749   2.139   4.126
 2451SOL    HW2 7375   2.896   2.096   4.185
 2452SOL     OW 7376   3.089   3.432   4.517
 2452SOL    HW1 7377   3.110   3.506   4.452
 2452SOL    HW2 7378   3.157   3.432   4.590
 2453SOL     OW 7379   2.321   3.014   4.465
 2453SOL    HW1 7380   2.250   2.987   4.530
 2453SOL    HW2 7381   2.295   2.986   4.372
 2454SOL     OW 7382   3.133   3.659   4.315
 2454SOL    HW1 7383   3.177   3.723   4.251
 2454SOL    HW2 7384   3.083   3.711   4.385
 2455SOL     OW 7385   2.894   2.411   3.740
 2455SOL    HW1 7386   2.853   2.493   3.701
 2455SOL    HW2 7387   2.958   2.437   3.813
 2456SOL     OW 7388   2.728   2.316   4.366
 2456SOL    HW1 7389   2.696   2.388   4.304
 2456SOL    HW2 7390   2.752   2.235   4.313
 2457SOL     OW 7391   2.879   1.901   4.477
 2457SOL    HW1 7392   2.807   1.906   4.408
 2457SOL    HW2 7393   2.855   1.832   4.546
 2458SOL     OW 7394   3.291   3.035   4.591
 2458SOL    HW1 7395   3.236   2.951   4.584
 2458SOL    HW2 7396   3.317   3.064   4.499
 2459SOL     OW 7397   3.328   2.452   4.716
 2459SOL    HW1 7398   3.298   2.357   4.723
 2459SOL    HW2 7399   3.401   2.468   4.782
 2460SOL     OW 7400   3.719   2.695   4.101
 2460SOL    HW1 7401   3.761   2.631   4.165
 2460SOL    HW2 7402   3.681   2.644   4.023
 2461SOL     OW 7403   2.350   3.247   3.898
 2461SOL    HW1 7404   2.263   3.232   3.945
 2461SOL    HW2 7405   2.333   3.273   3.803
 2462SOL     OW 7406   3.526   3.142   4.381
 2462SOL    HW1 7407   3.625   3.150   4.395
 2462SOL    HW2 7408   3.481   3.226   4.412
 2463SOL     OW 7409   3.252   2.437   3.802
 2463SOL    HW1 7410   3.198   2.416   3.883
 2463SOL    HW2 7411   3.343   2.396   3.811
 2464SOL     OW 7412   2.389   2.118   4.052
 2464SOL    HW1 7413   2.416   2.059   3.977
 2464SOL    HW2 7414   2.389   2.213   4.021
 2465SOL     OW 7415   3.500   2.961   4.803
 2465SOL    HW1 7416   3.505   3.042   4.862
 2465SOL    HW2 7417   3.414   2.963   4.752
 2466SOL     OW 7418   2.567   2.912   4.092
 2466SOL    HW1 7419   2.553   2.919   4.191
 2466SOL    HW2 7420   2.651   2.861   4.074
 2467SOL     OW 7421   2.229   2.962   4.225
 2467SOL    HW1 7422   2.222   3.045   4.169
 2467SOL    HW2 7423   2.233   2.882   4.165
 2468SOL     OW 7424   2.428   2.399   4.589
 2468SOL    HW1 7425   2.440   2.465   4.515
 2468SOL    HW2 7426   2.474   2.433   4.672
 2469SOL     OW 7427   3.114   3.210   4.112
 2469SOL    HW1 7428   3.164   3.287   4.152
 2469SOL    HW2 7429   3.019   3.212   4.144
 2470SOL     OW 7430   3.444   2.501   4.196
 2470SOL    HW1 7431   3.413   2.562   4.269
 2470SOL    HW2 7432   3.494   2.553   4.127
 2471SOL     OW 7433   2.435   2.732   4.753
 2471SOL    HW1 7434   2.479   2.821   4.744
 2471SOL    HW2 7435   2.372   2.732   4.830
 2472SOL     OW 7436   3.071   2.387   3.999
 2472SOL    HW1 7437   3.084   2.303   4.053
 2472SOL    HW2 7438   3.042   2.461   4.059
 2473SOL     OW 7439   2.169   2.075   4.955
 2473SOL    HW1 7440   2.146   2.112   5.045
 2473SOL    HW2 7441   2.139   1.980   4.949
 2474SOL     OW 7442   2.594   2.496   4.788
 2474SOL    HW1 7443   2.653   2.470   4.712
 2474SOL    HW2 7444   2.566   2.592   4.777
 2475SOL     OW 7445   2.169   1.925   4.342
 2475SOL    HW1 7446   2.158   2.019   4.375
 2475SOL    HW2 7447   2.164   1.862   4.419
 2476SOL     OW 7448   3.484   2.229   4.098
 2476SOL    HW1 7449   3.486   2.153   4.162
 2476SOL    HW2 7450   3.436   2.306   4.138
 2477SOL     OW 7451   2.885   2.628   4.690
 2477SOL    HW1 7452   2.900   2.649   4.786
 2477SOL    HW2 7453   2.855   2.533   4.681
 2478SOL     OW 7454   3.402   2.136   3.849
 2478SOL    HW1 7455   3.341   2.061   3.872
 2478SOL    HW2 7456   3.424   2.188   3.932
 2479SOL     OW 7457   3.165   2.700   3.766
 2479SOL    HW1 7458   3.199   2.607   3.781
 2479SOL    HW2 7459   3.183   2.727   3.671
 2480SOL     OW 7460   2.930   3.195   4.573
 2480SOL    HW1 7461   2.937   3.111   4.518
 2480SOL    HW2 7462   2.992   3.264   4.537
 2481SOL     OW 7463   2.181   2.672   4.673
 2481SOL    HW1 7464   2.274   2.708   4.678
 2481SOL    HW2 7465   2.175   2.587   4.725
 2482SOL     OW 7466   2.201   2.371   4.730
 2482SOL    HW1 7467   2.149   2.288   4.713
 2482SOL    HW2 7468   2.278   2.376   4.666
 2483SOL     OW 7469   1.870   3.188   3.924
 2483SOL    HW1 7470   1.777   3.209   3.893
 2483SOL    HW2 7471   1.880   3.089   3.937
 2484SOL     OW 7472   1.950   3.663   4.651
 2484SOL    HW1 7473   1.908   3.577   4.624
 2484SOL    HW2 7474   2.044   3.666   4.617
 2485SOL     OW 7475   2.366   3.430   4.634
 2485SOL    HW1 7476   2.432   3.504   4.643
 2485SOL    HW2 7477   2.410   3.351   4.592
 2486SOL     OW 7478   2.864   2.658   4.962
 2486SOL    HW1 7479   2.905   2.626   5.048
 2486SOL    HW2 7480   2.768   2.631   4.959
 2487SOL     OW 7481   2.677   2.434   4.049
 2487SOL    HW1 7482   2.684   2.345   4.003
 2487SOL    HW2 7483   2.583   2.468   4.041
 2488SOL     OW 7484   2.533   2.326   4.993
 2488SOL    HW1 7485   2.499   2.237   4.963
 2488SOL    HW2 7486   2.559   2.380   4.913
 2489SOL     OW 7487   2.335   2.362   3.915
 2489SOL    HW1 7488   2.396   2.442   3.919
 2489SOL    HW2 7489   2.240   2.393   3.922
 2490SOL     OW 7490   3.164   2.717   4.033
 2490SOL    HW1 7491   3.078   2.686   4.075
 2490SOL    HW2 7492   3.160   2.703   3.934
 2491SOL     OW 7493   3.621   3.609   4.878
 2491SOL    HW1 7494   3.682   3.639   4.805
 2491SOL    HW2 7495   3.583   3.520   4.856
 2492SOL     OW 7496   1.945   3.120   4.746
 2492SOL    HW1 7497   1.940   3.119   4.846
 2492SOL    HW2 7498   1.862   3.079   4.708
 2493SOL     OW 7499   3.588   1.997   4.247
 2493SOL    HW1 7500   3.661   1.980   4.180
 2493SOL    HW2 7501   3.557   1.910   4.285
 2494SOL     OW 7502   3.250   3.435   4.201
 2494SOL    HW1 7503   3.317   3.447   4.127
 2494SOL    HW2 7504   3.210   3.524   4.224
 2495SOL     OW 7505   3.142   2.789   4.396
 2495SOL    HW1 7506   3.202   2.708   4.398
 2495SOL    HW2 7507   3.182   2.858   4.336
 2496SOL     OW 7508   2.534   3.478   3.878
 2496SOL    HW1 7509   2.543   3.488   3.779
 2496SOL    HW2 7510   2.494   3.389   3.899
 2497SOL     OW 7511   3.703   2.037   4.687
 2497SOL    HW1 7512   3.742   1.952   4.651
 2497SOL    HW2 7513   3.605   2.039   4.668
 2498SOL     OW 7514   2.125   2.188   4.444
 2498SOL    HW1 7515   2.046   2.239   4.410
 2498SOL    HW2 7516   2.116   2.173   4.542
 2499SOL     OW 7517   3.056   3.474   3.755
 2499SOL    HW1 7518   3.062   3.381   3.792
 2499SOL    HW2 7519   2.997   3.474   3.675
 2500SOL     OW 7520   2.778   2.772   4.015
 2500SOL    HW1 7521   2.841   2.810   3.947
 2500SOL    HW2 7522   2.818   2.689   4.054
 2501SOL     OW 7523   3.366   3.469   3.768
 2501SOL    HW1 7524   3.274   3.506   3.775
 2501SOL    HW2 7525   3.404   3.489   3.678
 2502SOL     OW 7526   2.901   2.960   4.420
 2502SOL    HW1 7527   2.831   2.913   4.474
 2502SOL    HW2 7528   2.960   2.892   4.377
 2503SOL     OW 7529   2.876   2.098   4.695
 2503SOL    HW1 7530   2.868   2.062   4.602
 2503SOL    HW2 7531   2.874   2.022   4.760
 2504SOL     OW 7532   2.452   3.349   4.215
 2504SOL    HW1 7533   2.494   3.291   4.145
 2504SOL    HW2 7534   2.408   3.428   4.171
 2505SOL     OW 7535   2.117   3.210   4.014
 2505SOL    HW1 7536   2.021   3.211   3.987
 2505SOL    HW2 7537   2.129   3.263   4.098
 2506SOL     OW 7538   1.937   2.207   3.757
 2506SOL    HW1 7539   1.845   2.179   3.728
 2506SOL    HW2 7540   1.968   2.284   3.701
 2507SOL     OW 7541   1.934   2.028   4.042
 2507SOL    HW1 7542   1.917   2.111   3.988
 2507SOL    HW2 7543   2.024   1.991   4.020
 2508SOL     OW 7544   3.045   3.197   3.843
 2508SOL    HW1 7545   2.946   3.186   3.845
 2508SOL    HW2 7546   3.079   3.212   3.936
 2509SOL     OW 7547   3.355   3.629   4.683
 2509SOL    HW1 7548   3.388   3.693   4.614
 2509SOL    HW2 7549   3.421   3.623   4.758
 2510SOL     OW 7550   3.536   2.745   4.978
 2510SOL    HW1 7551   3.509   2.656   4.941
 2510SOL    HW2 7552   3.537   2.813   4.905
 2511SOL     OW 7553   3.087   2.187   4.173
 2511SOL    HW1 7554   3.152   2.113   4.162
 2511SOL    HW2 7555   3.107   2.237   4.257
 2512SOL     OW 7556   2.456   2.607   4.376
 2512SOL    HW1 7557   2.506   2.692   4.357
 2512SOL    HW2 7558   2.368   2.609   4.328
 2513SOL     OW 7559   2.721   3.236   3.740
 2513SOL    HW1 7560   2.675   3.251   3.828
 2513SOL    HW2 7561   2.765   3.321   3.710
 2514SOL     OW 7562   2.523   3.652   4.677
 2514SOL    HW1 7563   2.477   3.740   4.664
 2514SOL    HW2 7564   2.622   3.664   4.670
 2515SOL     OW 7565   2.721   2.818   4.585
 2515SOL    HW1 7566   2.775   2.749   4.633
 2515SOL    HW2 7567   2.689   2.887   4.651
 2516SOL     OW 7568   2.945   2.846   3.811
 2516SOL    HW1 7569   2.922   2.899   3.729
 2516SOL    HW2 7570   3.026   2.790   3.792
 2517SOL     OW 7571   3.723   3.431   4.575
 2517SOL    HW1 7572   3.652   3.419   4.505
 2517SOL    HW2 7573   3.724   3.352   4.635
 2518SOL     OW 7574   1.941   3.102   4.377
 2518SOL    HW1 7575   1.940   3.055   4.465
 2518SOL    HW2 7576   2.023   3.074   4.326
 2519SOL     OW 7577   3.686   2.054   4.951
 2519SOL    HW1 7578   3.682   1.964   4.995
 2519SOL    HW2 7579   3.689   2.043   4.852
 2520SOL     OW 7580   2.290   2.286   4.244
 2520SOL    HW1 7581   2.320   2.214   4.182
 2520SOL    HW2 7582   2.251   2.246   4.327
 2521SOL     OW 7583   2.674   3.448   4.411
 2521SOL    HW1 7584   2.706   3.458   4.317
 2521SOL    HW2 7585   2.595   3.386   4.413
 2522SOL     OW 7586   2.632   3.192   4.025
 2522SOL    HW1 7587   2.586   3.105   4.042
 2522SOL    HW2 7588   2.723   3.189   4.066
 2523SOL     OW 7589   3.214   1.914   3.892
 2523SOL    HW1 7590   3.249   1.873   3.808
 2523SOL    HW2 7591   3.124   1.876   3.912
 2524SOL     OW 7592   3.162   2.315   4.415
 2524SOL    HW1 7593   3.103   2.395   4.419
 2524SOL    HW2 7594   3.177   2.280   4.508
 2525SOL     OW 7595   3.455   2.083   4.606
 2525SOL    HW1 7596   3.371   2.082   4.660
 2525SOL    HW2 7597   3.457   2.166   4.550
 2526SOL     OW 7598   1.901   2.939   4.024
 2526SOL    HW1 7599   2.000   2.928   4.015
 2526SOL    HW2 7600   1.861   2.853   4.056
 2527SOL     OW 7601   2.737   3.508   4.061
 2527SOL    HW1 7602   2.660   3.473   4.007
 2527SOL    HW2 7603   2.705   3.579   4.123
 2528SOL     OW 7604   2.092   4.352   0.113
 2528SOL    HW1 7605   1.999   4.350   0.150
 2528SOL    HW2 7606   2.093   4.313   0.021
 2529SOL     OW 7607   2.087   3.999   0.996
 2529SOL    HW1 7608   2.122   3.982   1.088
 2529SOL    HW2 7609   1.999   3.954   0.984
 2530SOL     OW 7610   1.881   4.092   0.647
 2530SOL    HW1 7611   1.799   4.135   0.686
 2530SOL    HW2 7612   1.853   4.019   0.584
 2531SOL     OW 7613   2.997   4.427   0.717
 2531SOL    HW1 7614   3.054   4.505   0.692
 2531SOL    HW2 7615   2.937   4.453   0.793
 2532SOL     OW 7616   3.617   4.331   0.231
 2532SOL    HW1 7617   3.605   4.318   0.132
 2532SOL    HW2 7618   3.587   4.250   0.280
 2533SOL     OW 7619   2.630   4.868   1.023
 2533SOL    HW1 7620   2.552   4.885   1.083
 2533SOL    HW2 7621   2.664   4.955   0.987
 2534SOL     OW 7622   2.712   4.522   1.823
 2534SOL    HW1 7623   2.708   4.598   1.888
 2534SOL    HW2 7624   2.734   4.558   1.732
 2535SOL     OW 7625   2.547   4.736   0.665
 2535SOL    HW1 7626   2.616   4.720   0.735
 2535SOL    HW2 7627   2.474   4.793   0.703
 2536SOL     OW 7628   2.300   4.116   1.499
 2536SOL    HW1 7629   2.382   4.060   1.508
 2536SOL    HW2 7630   2.219   4.058   1.503
 2537SOL     OW 7631   3.465   4.171   0.737
 2537SOL    HW1 7632   3.391   4.217   0.687
 2537SOL    HW2 7633   3.516   4.239   0.790
 2538SOL     OW 7634   2.092   5.158   0.538
 2538SOL    HW1 7635   2.066   5.254   0.538
 2538SOL    HW2 7636   2.021   5.104   0.583
 2539SOL     OW 7637   2.102   4.815   0.886
 2539SOL    HW1 7638   2.116   4.731   0.938
 2539SOL    HW2 7639   2.047   4.879   0.941
 2540SOL     OW 7640   2.468   4.688   0.123
 2540SOL    HW1 7641   2.475   4.772   0.069
 2540SOL    HW2 7642   2.514   4.701   0.211
 2541SOL     OW 7643   3.456   3.838   1.480
 2541SOL    HW1 7644   3.438   3.905   1.408
 2541SOL    HW2 7645   3.453   3.884   1.569
 2542SOL     OW 7646   1.984   4.367   0.563
 2542SOL    HW1 7647   1.939   4.279   0.580
 2542SOL    HW2 7648   1.983   4.421   0.647
 2543SOL     OW 7649   3.551   4.646   0.612
 2543SOL    HW1 7650   3.646   4.617   0.620
 2543SOL    HW2 7651   3.543   4.711   0.537
 2544SOL     OW 7652   1.975   4.461   1.597
 2544SOL    HW1 7653   2.063   4.448   1.642
 2544SOL    HW2 7654   1.962   4.558   1.575
 2545SOL     OW 7655   3.155   4.952   1.423
 2545SOL    HW1 7656   3.192   4.879   1.365
 2545SOL    HW2 7657   3.207   4.957   1.508
 2546SOL     OW 7658   2.671   3.728   0.502
 2546SOL    HW1 7659   2.711   3.819   0.493
 2546SOL    HW2 7660   2.571   3.736   0.508
 2547SOL     OW 7661   2.059   4.700   1.264
 2547SOL    HW1 7662   2.148   4.655   1.250
 2547SOL    HW2 7663   1.986   4.635   1.245
 2548SOL     OW 7664   3.387   4.723   0.190
 2548SOL    HW1 7665   3.324   4.647   0.203
 2548SOL    HW2 7666   3.435   4.741   0.276
 2549SOL     OW 7667   2.179   3.975   1.801
 2549SOL    HW1 7668   2.250   4.046   1.807
 2549SOL    HW2 7669   2.091   4.014   1.829
 2550SOL     OW 7670   2.460   4.453   0.270
 2550SOL    HW1 7671   2.484   4.522   0.202
 2550SOL    HW2 7672   2.382   4.486   0.324
 2551SOL     OW 7673   3.143   4.069   0.944
 2551SOL    HW1 7674   3.057   4.019   0.931
 2551SOL    HW2 7675   3.205   4.015   1.000
 2552SOL     OW 7676   2.669   4.329   1.465
 2552SOL    HW1 7677   2.622   4.326   1.554
 2552SOL    HW2 7678   2.618   4.274   1.399
 2553SOL     OW 7679   3.256   4.193   1.674
 2553SOL    HW1 7680   3.236   4.236   1.762
 2553SOL    HW2 7681   3.334   4.131   1.683
 2554SOL     OW 7682   2.835   4.614   1.572
 2554SOL    HW1 7683   2.881   4.530   1.543
 2554SOL    HW2 7684   2.779   4.648   1.497
 2555SOL     OW 7685   2.853   4.134   1.242
 2555SOL    HW1 7686   2.776   4.168   1.296
 2555SOL    HW2 7687   2.819   4.083   1.163
 2556SOL     OW 7688   2.903   4.425   0.429
 2556SOL    HW1 7689   2.929   4.421   0.525
 2556SOL    HW2 7690   2.818   4.374   0.415
 2557SOL     OW 7691   1.938   4.535   0.789
 2557SOL    HW1 7692   2.037   4.523   0.798
 2557SOL    HW2 7693   1.914   4.630   0.810
 2558SOL     OW 7694   2.727   4.072   0.195
 2558SOL    HW1 7695   2.786   4.135   0.146
 2558SOL    HW2 7696   2.746   3.978   0.166
 2559SOL     OW 7697   3.581   4.309   1.831
 2559SOL    HW1 7698   3.555   4.398   1.795
 2559SOL    HW2 7699   3.579   4.241   1.758
 2560SOL     OW 7700   2.412   3.920   0.885
 2560SOL    HW1 7701   2.407   3.915   0.985
 2560SOL    HW2 7702   2.414   4.016   0.856
 2561SOL     OW 7703   3.657   4.790   0.873
 2561SOL    HW1 7704   3.595   4.775   0.797
 2561SOL    HW2 7705   3.605   4.801   0.958
 2562SOL     OW 7706   3.320   4.459   0.728
 2562SOL    HW1 7707   3.315   4.394   0.803
 2562SOL    HW2 7708   3.400   4.518   0.741
 2563SOL     OW 7709   2.064   4.009   1.498
 2563SOL    HW1 7710   1.984   4.069   1.485
 2563SOL    HW2 7711   2.054   3.960   1.584
 2564SOL     OW 7712   3.262   3.831   0.426
 2564SOL    HW1 7713   3.238   3.794   0.336
 2564SOL    HW2 7714   3.361   3.847   0.430
 2565SOL     OW 7715   2.244   4.424   0.480
 2565SOL    HW1 7716   2.289   4.334   0.477
 2565SOL    HW2 7717   2.150   4.413   0.513
 2566SOL     OW 7718   3.409   3.946   1.729
 2566SOL    HW1 7719   3.404   3.983   1.821
 2566SOL    HW2 7720   3.337   3.877   1.717
 2567SOL     OW 7721   2.476   3.846   0.117
 2567SOL    HW1 7722   2.574   3.824   0.124
 2567SOL    HW2 7723   2.445   3.829   0.024
 2568SOL     OW 7724   2.643   3.988   1.749
 2568SOL    HW1 7725   2.710   3.927   1.792
 2568SOL    HW2 7726   2.570   4.007   1.814
 2569SOL     OW 7727   3.213   4.314   1.433
 2569SOL    HW1 7728   3.241   4.271   1.518
 2569SOL    HW2 7729   3.238   4.410   1.434
 2570SOL     OW 7730   2.784   4.227   0.899
 2570SOL    HW1 7731   2.759   4.218   0.803
 2570SOL    HW2 7732   2.832   4.145   0.930
 2571SOL     OW 7733   2.401   3.788   0.512
 2571SOL    HW1 7734   2.320   3.789   0.570
 2571SOL    HW2 7735   2.404   3.871   0.457
 2572SOL     OW 7736   2.797   3.960   0.480
 2572SOL    HW1 7737   2.749   4.001   0.402
 2572SOL    HW2 7738   2.896   3.958   0.461
 2573SOL     OW 7739   2.938   4.407   1.464
 2573SOL    HW1 7740   2.858   4.346   1.467
 2573SOL    HW2 7741   3.019   4.354   1.440
 2574SOL     OW 7742   2.894   4.273   0.016
 2574SOL    HW1 7743   2.853   4.355  -0.023
 2574SOL    HW2 7744   2.958   4.299   0.089
 2575SOL     OW 7745   1.940   4.280   1.386
 2575SOL    HW1 7746   2.032   4.279   1.345
 2575SOL    HW2 7747   1.934   4.354   1.453
 2576SOL     OW 7748   2.423   3.946   1.147
 2576SOL    HW1 7749   2.461   3.862   1.184
 2576SOL    HW2 7750   2.335   3.965   1.191
 2577SOL     OW 7751   2.728   4.178   0.642
 2577SOL    HW1 7752   2.696   4.250   0.580
 2577SOL    HW2 7753   2.752   4.097   0.589
 2578SOL     OW 7754   2.879   3.763   0.753
 2578SOL    HW1 7755   2.807   3.768   0.684
 2578SOL    HW2 7756   2.855   3.694   0.822
 2579SOL     OW 7757   3.291   4.897   0.867
 2579SOL    HW1 7758   3.236   4.813   0.860
 2579SOL    HW2 7759   3.317   4.926   0.775
 2580SOL     OW 7760   3.328   4.314   0.992
 2580SOL    HW1 7761   3.298   4.219   0.999
 2580SOL    HW2 7762   3.401   4.330   1.058
 2581SOL     OW 7763   3.719   4.557   0.377
 2581SOL    HW1 7764   3.761   4.493   0.441
 2581SOL    HW2 7765   3.681   4.506   0.299
 2582SOL     OW 7766   3.252   4.299   0.078
 2582SOL    HW1 7767   3.198   4.278   0.159
 2582SOL    HW2 7768   3.343   4.258   0.087
 2583SOL     OW 7769   2.389   3.980   0.328
 2583SOL    HW1 7770   2.416   3.921   0.253
 2583SOL    HW2 7771   2.389   4.075   0.297
 2584SOL     OW 7772   3.616   4.947   1.588
 2584SOL    HW1 7773   3.707   4.908   1.575
 2584SOL    HW2 7774   3.624   5.043   1.612
 2585SOL     OW 7775   3.500   4.823   1.079
 2585SOL    HW1 7776   3.505   4.904   1.138
 2585SOL    HW2 7777   3.414   4.825   1.028
 2586SOL     OW 7778   2.777   3.813   1.402
 2586SOL    HW1 7779   2.802   3.793   1.307
 2586SOL    HW2 7780   2.849   3.869   1.444
 2587SOL     OW 7781   2.272   4.537   1.251
 2587SOL    HW1 7782   2.358   4.549   1.301
 2587SOL    HW2 7783   2.230   4.450   1.278
 2588SOL     OW 7784   3.136   4.110   1.262
 2588SOL    HW1 7785   3.157   4.184   1.326
 2588SOL    HW2 7786   3.047   4.127   1.219
 2589SOL     OW 7787   2.428   4.261   0.865
 2589SOL    HW1 7788   2.440   4.327   0.791
 2589SOL    HW2 7789   2.474   4.295   0.948
 2590SOL     OW 7790   3.444   4.363   0.472
 2590SOL    HW1 7791   3.413   4.424   0.545
 2590SOL    HW2 7792   3.494   4.415   0.403
 2591SOL     OW 7793   2.264   4.475   1.598
 2591SOL    HW1 7794   2.332   4.530   1.551
 2591SOL    HW2 7795   2.304   4.387   1.625
 2592SOL     OW 7796   3.449   4.503   1.670
 2592SOL    HW1 7797   3.357   4.541   1.665
 2592SOL    HW2 7798   3.509   4.550   1.605
 2593SOL     OW 7799   2.875   3.829   1.770
 2593SOL    HW1 7800   2.881   3.914   1.718
 2593SOL    HW2 7801   2.907   3.753   1.713
 2594SOL     OW 7802   2.366   3.774   1.740
 2594SOL    HW1 7803   2.324   3.717   1.670
 2594SOL    HW2 7804   2.300   3.843   1.772
 2595SOL     OW 7805   2.435   4.594   1.029
 2595SOL    HW1 7806   2.479   4.683   1.020
 2595SOL    HW2 7807   2.372   4.594   1.106
 2596SOL     OW 7808   3.222   4.586   1.045
 2596SOL    HW1 7809   3.147   4.586   0.979
 2596SOL    HW2 7810   3.259   4.494   1.054
 2597SOL     OW 7811   3.071   4.249   0.275
 2597SOL    HW1 7812   3.084   4.165   0.329
 2597SOL    HW2 7813   3.042   4.323   0.335
 2598SOL     OW 7814   2.169   3.937   1.231
 2598SOL    HW1 7815   2.146   3.974   1.321
 2598SOL    HW2 7816   2.139   3.842   1.225
 2599SOL     OW 7817   2.594   4.358   1.064
 2599SOL    HW1 7818   2.653   4.332   0.988
 2599SOL    HW2 7819   2.566   4.454   1.053
 2600SOL     OW 7820   3.590   4.659   1.854
 2600SOL    HW1 7821   3.544   4.652   1.765
 2600SOL    HW2 7822   3.528   4.703   1.920
 2601SOL     OW 7823   2.169   3.787   0.618
 2601SOL    HW1 7824   2.158   3.881   0.651
 2601SOL    HW2 7825   2.164   3.724   0.695
 2602SOL     OW 7826   3.484   4.091   0.374
 2602SOL    HW1 7827   3.486   4.015   0.438
 2602SOL    HW2 7828   3.436   4.168   0.414
 2603SOL     OW 7829   2.885   4.490   0.966
 2603SOL    HW1 7830   2.900   4.511   1.062
 2603SOL    HW2 7831   2.855   4.395   0.957
 2604SOL     OW 7832   2.212   4.622   1.804
 2604SOL    HW1 7833   2.288   4.666   1.852
 2604SOL    HW2 7834   2.247   4.575   1.722
 2605SOL     OW 7835   3.402   3.998   0.125
 2605SOL    HW1 7836   3.341   3.923   0.148
 2605SOL    HW2 7837   3.424   4.050   0.208
 2606SOL     OW 7838   3.165   4.562   0.042
 2606SOL    HW1 7839   3.199   4.469   0.057
 2606SOL    HW2 7840   3.183   4.589  -0.053
 2607SOL     OW 7841   2.181   4.534   0.949
 2607SOL    HW1 7842   2.274   4.570   0.954
 2607SOL    HW2 7843   2.175   4.449   1.001
 2608SOL     OW 7844   2.201   4.233   1.006
 2608SOL    HW1 7845   2.149   4.150   0.989
 2608SOL    HW2 7846   2.278   4.238   0.942
 2609SOL     OW 7847   3.000   4.104   1.678
 2609SOL    HW1 7848   2.955   4.167   1.742
 2609SOL    HW2 7849   3.093   4.135   1.661
 2610SOL     OW 7850   3.022   3.931   1.477
 2610SOL    HW1 7851   3.022   3.995   1.554
 2610SOL    HW2 7852   3.050   3.979   1.394
 2611SOL     OW 7853   2.864   4.520   1.238
 2611SOL    HW1 7854   2.905   4.488   1.324
 2611SOL    HW2 7855   2.768   4.493   1.235
 2612SOL     OW 7856   1.902   4.268   1.114
 2612SOL    HW1 7857   1.987   4.235   1.073
 2612SOL    HW2 7858   1.915   4.283   1.212
 2613SOL     OW 7859   2.051   4.244   1.722
 2613SOL    HW1 7860   2.110   4.204   1.652
 2613SOL    HW2 7861   1.993   4.315   1.681
 2614SOL     OW 7862   3.231   4.674   1.660
 2614SOL    HW1 7863   3.270   4.763   1.680
 2614SOL    HW2 7864   3.241   4.654   1.563
 2615SOL     OW 7865   2.677   4.296   0.325
 2615SOL    HW1 7866   2.684   4.207   0.279
 2615SOL    HW2 7867   2.583   4.330   0.317
 2616SOL     OW 7868   3.519   4.328   1.206
 2616SOL    HW1 7869   3.481   4.259   1.268
 2616SOL    HW2 7870   3.601   4.292   1.162
 2617SOL     OW 7871   2.533   4.188   1.269
 2617SOL    HW1 7872   2.499   4.099   1.239
 2617SOL    HW2 7873   2.559   4.242   1.189
 2618SOL     OW 7874   2.335   4.224   0.191
 2618SOL    HW1 7875   2.396   4.304   0.195
 2618SOL    HW2 7876   2.240   4.255   0.198
 2619SOL     OW 7877   2.021   4.861   1.466
 2619SOL    HW1 7878   2.043   4.800   1.542
 2619SOL    HW2 7879   2.031   4.812   1.380
 2620SOL     OW 7880   3.209   4.783   1.234
 2620SOL    HW1 7881   3.233   4.720   1.160
 2620SOL    HW2 7882   3.119   4.823   1.216
 2621SOL     OW 7883   3.164   4.579   0.309
 2621SOL    HW1 7884   3.078   4.548   0.351
 2621SOL    HW2 7885   3.160   4.565   0.210
 2622SOL     OW 7886   2.765   3.810   0.133
 2622SOL    HW1 7887   2.816   3.811   0.047
 2622SOL    HW2 7888   2.821   3.768   0.204
 2623SOL     OW 7889   3.588   3.859   0.523
 2623SOL    HW1 7890   3.661   3.842   0.456
 2623SOL    HW2 7891   3.557   3.772   0.561
 2624SOL     OW 7892   3.142   4.651   0.672
 2624SOL    HW1 7893   3.202   4.570   0.674
 2624SOL    HW2 7894   3.182   4.720   0.612
 2625SOL     OW 7895   3.703   3.899   0.963
 2625SOL    HW1 7896   3.742   3.814   0.927
 2625SOL    HW2 7897   3.605   3.901   0.944
 2626SOL     OW 7898   2.125   4.050   0.720
 2626SOL    HW1 7899   2.046   4.101   0.686
 2626SOL    HW2 7900   2.116   4.035   0.818
 2627SOL     OW 7901   2.778   4.634   0.291
 2627SOL    HW1 7902   2.841   4.672   0.223
 2627SOL    HW2 7903   2.818   4.551   0.330
 2628SOL     OW 7904   2.876   3.960   0.971
 2628SOL    HW1 7905   2.868   3.924   0.878
 2628SOL    HW2 7906   2.874   3.884   1.036
 2629SOL     OW 7907   3.571   4.109   1.381
 2629SOL    HW1 7908   3.644   4.178   1.385
 2629SOL    HW2 7909   3.599   4.034   1.322
 2630SOL     OW 7910   1.967   4.737   1.726
 2630SOL    HW1 7911   1.890   4.704   1.780
 2630SOL    HW2 7912   2.052   4.707   1.768
 2631SOL     OW 7913   2.534   3.927   1.489
 2631SOL    HW1 7914   2.624   3.911   1.449
 2631SOL    HW2 7915   2.542   3.932   1.588
 2632SOL     OW 7916   1.937   4.069   0.033
 2632SOL    HW1 7917   1.845   4.041   0.004
 2632SOL    HW2 7918   1.968   4.146  -0.023
 2633SOL     OW 7919   3.302   4.580   1.398
 2633SOL    HW1 7920   3.245   4.632   1.335
 2633SOL    HW2 7921   3.398   4.592   1.374
 2634SOL     OW 7922   1.934   3.890   0.318
 2634SOL    HW1 7923   1.917   3.973   0.264
 2634SOL    HW2 7924   2.024   3.853   0.296
 2635SOL     OW 7925   3.045   5.059   0.119
 2635SOL    HW1 7926   2.946   5.048   0.121
 2635SOL    HW2 7927   3.079   5.074   0.212
 2636SOL     OW 7928   2.475   4.566   1.431
 2636SOL    HW1 7929   2.531   4.647   1.414
 2636SOL    HW2 7930   2.534   4.486   1.434
 2637SOL     OW 7931   2.578   4.289   1.708
 2637SOL    HW1 7932   2.597   4.354   1.782
 2637SOL    HW2 7933   2.638   4.209   1.717
 2638SOL     OW 7934   3.536   4.607   1.254
 2638SOL    HW1 7935   3.509   4.518   1.217
 2638SOL    HW2 7936   3.537   4.675   1.181
 2639SOL     OW 7937   3.087   4.049   0.449
 2639SOL    HW1 7938   3.152   3.975   0.438
 2639SOL    HW2 7939   3.107   4.099   0.533
 2640SOL     OW 7940   2.456   4.469   0.652
 2640SOL    HW1 7941   2.506   4.554   0.633
 2640SOL    HW2 7942   2.368   4.471   0.604
 2641SOL     OW 7943   3.639   4.066   1.642
 2641SOL    HW1 7944   3.622   4.097   1.548
 2641SOL    HW2 7945   3.555   4.029   1.680
 2642SOL     OW 7946   3.592   4.658   1.517
 2642SOL    HW1 7947   3.630   4.749   1.532
 2642SOL    HW2 7948   3.584   4.641   1.418
 2643SOL     OW 7949   2.721   4.680   0.861
 2643SOL    HW1 7950   2.775   4.611   0.909
 2643SOL    HW2 7951   2.689   4.749   0.927
 2644SOL     OW 7952   2.945   4.708   0.087
 2644SOL    HW1 7953   2.922   4.761   0.005
 2644SOL    HW2 7954   3.026   4.652   0.068
 2645SOL     OW 7955   3.686   3.916   1.227
 2645SOL    HW1 7956   3.682   3.826   1.271
 2645SOL    HW2 7957   3.689   3.905   1.128
 2646SOL     OW 7958   2.290   4.148   0.520
 2646SOL    HW1 7959   2.320   4.076   0.458
 2646SOL    HW2 7960   2.251   4.108   0.603
 2647SOL     OW 7961   2.179   4.271   1.280
 2647SOL    HW1 7962   2.217   4.212   1.352
 2647SOL    HW2 7963   2.219   4.245   1.192
 2648SOL     OW 7964   3.286   3.938   1.112
 2648SOL    HW1 7965   3.338   3.873   1.167
 2648SOL    HW2 7966   3.237   4.001   1.173
 2649SOL     OW 7967   2.863   3.758   1.154
 2649SOL    HW1 7968   2.800   3.686   1.123
 2649SOL    HW2 7969   2.956   3.722   1.154
 2650SOL     OW 7970   3.214   3.776   0.168
 2650SOL    HW1 7971   3.249   3.735   0.084
 2650SOL    HW2 7972   3.124   3.738   0.188
 2651SOL     OW 7973   3.162   4.177   0.691
 2651SOL    HW1 7974   3.103   4.257   0.695
 2651SOL    HW2 7975   3.177   4.142   0.784
 2652SOL     OW 7976   3.455   3.945   0.882
 2652SOL    HW1 7977   3.371   3.944   0.936
 2652SOL    HW2 7978   3.457   4.028   0.826
 2653SOL     OW 7979   1.901   4.801   0.300
 2653SOL    HW1 7980   2.000   4.790   0.291
 2653SOL    HW2 7981   1.861   4.715   0.332
 2654SOL     OW 7982   2.092   4.352   1.975
 2654SOL    HW1 7983   1.999   4.350   2.012
 2654SOL    HW2 7984   2.093   4.313   1.883
 2655SOL     OW 7985   2.087   3.999   2.858
 2655SOL    HW1 7986   2.122   3.982   2.950
 2655SOL    HW2 7987   1.999   3.954   2.846
 2656SOL     OW 7988   1.881   4.092   2.509
 2656SOL    HW1 7989   1.799   4.135   2.548
 2656SOL    HW2 7990   1.853   4.019   2.446
 2657SOL     OW 7991   2.997   4.427   2.579
 2657SOL    HW1 7992   3.054   4.505   2.554
 2657SOL    HW2 7993   2.937   4.453   2.655
 2658SOL     OW 7994   3.617   4.331   2.093
 2658SOL    HW1 7995   3.605   4.318   1.994
 2658SOL    HW2 7996   3.587   4.250   2.142
 2659SOL     OW 7997   2.630   4.868   2.885
 2659SOL    HW1 7998   2.552   4.885   2.945
 2659SOL    HW2 7999   2.664   4.955   2.849
 2660SOL     OW 8000   2.712   4.522   3.685
 2660SOL    HW1 8001   2.708   4.598   3.750
 2660SOL    HW2 8002   2.734   4.558   3.594
 2661SOL     OW 8003   2.547   4.736   2.527
 2661SOL    HW1 8004   2.616   4.720   2.597
 2661SOL    HW2 8005   2.474   4.793   2.565
 2662SOL     OW 8006   2.300   4.116   3.361
 2662SOL    HW1 8007   2.382   4.060   3.370
 2662SOL    HW2 8008   2.219   4.058   3.365
 2663SOL     OW 8009   3.465   4.171   2.599
 2663SOL    HW1 8010   3.391   4.217   2.549
 2663SOL    HW2 8011   3.516   4.239   2.652
 2664SOL     OW 8012   2.092   5.158   2.400
 2664SOL    HW1 8013   2.066   5.254   2.400
 2664SOL    HW2 8014   2.021   5.104   2.445
 2665SOL     OW 8015   2.102   4.815   2.748
 2665SOL    HW1 8016   2.116   4.731   2.800
 2665SOL    HW2 8017   2.047   4.879   2.803
 2666SOL     OW 8018   2.468   4.688   1.985
 2666SOL    HW1 8019   2.475   4.772   1.931
 2666SOL    HW2 8020   2.514   4.701   2.073
 2667SOL     OW 8021   3.456   3.838   3.342
 2667SOL    HW1 8022   3.438   3.905   3.270
 2667SOL    HW2 8023   3.453   3.884   3.431
 2668SOL     OW 8024   1.984   4.367   2.425
 2668SOL    HW1 8025   1.939   4.279   2.442
 2668SOL    HW2 8026   1.983   4.421   2.509
 2669SOL     OW 8027   3.551   4.646   2.474
 2669SOL    HW1 8028   3.646   4.617   2.482
 2669SOL    HW2 8029   3.543   4.711   2.399
 2670SOL     OW 8030   1.975   4.461   3.459
 2670SOL    HW1 8031   2.063   4.448   3.504
 2670SOL    HW2 8032   1.962   4.558   3.437
 2671SOL     OW 8033   3.155   4.952   3.285
 2671SOL    HW1 8034   3.192   4.879   3.227
 2671SOL    HW2 8035   3.207   4.957   3.370
 2672SOL     OW 8036   2.671   3.728   2.364
 2672SOL    HW1 8037   2.711   3.819   2.355
 2672SOL    HW2 8038   2.571   3.736   2.370
 2673SOL     OW 8039   2.059   4.700   3.126
 2673SOL    HW1 8040   2.148   4.655   3.112
 2673SOL    HW2 8041   1.986   4.635   3.107
 2674SOL     OW 8042   3.387   4.723   2.052
 2674SOL    HW1 8043   3.324   4.647   2.065
 2674SOL    HW2 8044   3.435   4.741   2.138
 2675SOL     OW 8045   2.179   3.975   3.663
 2675SOL    HW1 8046   2.250   4.046   3.669
 2675SOL    HW2 8047   2.091   4.014   3.691
 2676SOL     OW 8048   2.460   4.453   2.132
 2676SOL    HW1 8049   2.484   4.522   2.064
 2676SOL    HW2 8050   2.382   4.486   2.186
 2677SOL     OW 8051   3.143   4.069   2.806
 2677SOL    HW1 8052   3.057   4.019   2.793
 2677SOL    HW2 8053   3.205   4.015   2.862
 2678SOL     OW 8054   2.669   4.329   3.327
 2678SOL    HW1 8055   2.622   4.326   3.416
 2678SOL    HW2 8056   2.618   4.274   3.261
 2679SOL     OW 8057   3.256   4.193   3.536
 2679SOL    HW1 8058   3.236   4.236   3.624
 2679SOL    HW2 8059   3.334   4.131   3.545
 2680SOL     OW 8060   2.835   4.614   3.434
 2680SOL    HW1 8061   2.881   4.530   3.405
 2680SOL    HW2 8062   2.779   4.648   3.359
 2681SOL     OW 8063   2.853   4.134   3.104
 2681SOL    HW1 8064   2.776   4.168   3.158
 2681SOL    HW2 8065   2.819   4.083   3.025
 2682SOL     OW 8066   2.903   4.425   2.291
 2682SOL    HW1 8067   2.929   4.421   2.387
 2682SOL    HW2 8068   2.818   4.374   2.277
 2683SOL     OW 8069   1.938   4.535   2.651
 2683SOL    HW1 8070   2.037   4.523   2.660
 2683SOL    HW2 8071   1.914   4.630   2.672
 2684SOL     OW 8072   2.727   4.072   2.057
 2684SOL    HW1 8073   2.786   4.135   2.008
 2684SOL    HW2 8074   2.746   3.978   2.028
 2685SOL     OW 8075   3.581   4.309   3.693
 2685SOL    HW1 8076   3.555   4.398   3.657
 2685SOL    HW2 8077   3.579   4.241   3.620
 2686SOL     OW 8078   2.412   3.920   2.747
 2686SOL    HW1 8079   2.407   3.915   2.847
 2686SOL    HW2 8080   2.414   4.016   2.718
 2687SOL     OW 8081   3.657   4.790   2.735
 2687SOL    HW1 8082   3.595   4.775   2.659
 2687SOL    HW2 8083   3.605   4.801   2.820
 2688SOL     OW 8084   3.320   4.459   2.590
 2688SOL    HW1 8085   3.315   4.394   2.665
 2688SOL    HW2 8086   3.400   4.518   2.603
 2689SOL     OW 8087   2.064   4.009   3.360
 2689SOL    HW1 8088   1.984   4.069   3.347
 2689SOL    HW2 8089   2.054   3.960   3.446
 2690SOL     OW 8090   3.262   3.831   2.288
 2690SOL    HW1 8091   3.238   3.794   2.198
 2690SOL    HW2 8092   3.361   3.847   2.292
 2691SOL     OW 8093   2.244   4.424   2.342
 2691SOL    HW1 8094   2.289   4.334   2.339
 2691SOL    HW2 8095   2.150   4.413   2.375
 2692SOL     OW 8096   3.409   3.946   3.591
 2692SOL    HW1 8097   3.404   3.983   3.683
 2692SOL    HW2 8098   3.337   3.877   3.579
 2693SOL     OW 8099   2.476   3.846   1.979
 2693SOL    HW1 8100   2.574   3.824   1.986
 2693SOL    HW2 8101   2.445   3.829   1.886
 2694SOL     OW 8102   2.643   3.988   3.611
 2694SOL    HW1 8103   2.710   3.927   3.654
 2694SOL    HW2 8104   2.570   4.007   3.676
 2695SOL     OW 8105   3.213   4.314   3.295
 2695SOL    HW1 8106   3.241   4.271   3.380
 2695SOL    HW2 8107   3.238   4.410   3.296
 2696SOL     OW 8108   2.784   4.227   2.761
 2696SOL    HW1 8109   2.759   4.218   2.665
 2696SOL    HW2 8110   2.832   4.145   2.792
 2697SOL     OW 8111   2.401   3.788   2.374
 2697SOL    HW1 8112   2.320   3.789   2.432
 2697SOL    HW2 8113   2.404   3.871   2.319
 2698SOL     OW 8114   2.159   3.759   2.033
 2698SOL    HW1 8115   2.208   3.843   2.012
 2698SOL    HW2 8116   2.221   3.694   2.078
 2699SOL     OW 8117   2.797   3.960   2.342
 2699SOL    HW1 8118   2.749   4.001   2.264
 2699SOL    HW2 8119   2.896   3.958   2.323
 2700SOL     OW 8120   2.938   4.407   3.326
 2700SOL    HW1 8121   2.858   4.346   3.329
 2700SOL    HW2 8122   3.019   4.354   3.302
 2701SOL     OW 8123   2.894   4.273   1.878
 2701SOL    HW1 8124   2.853   4.355   1.839
 2701SOL    HW2 8125   2.958   4.299   1.951
 2702SOL     OW 8126   1.940   4.280   3.248
 2702SOL    HW1 8127   2.032   4.279   3.207
 2702SOL    HW2 8128   1.934   4.354   3.315
 2703SOL     OW 8129   2.423   3.946   3.009
 2703SOL    HW1 8130   2.461   3.862   3.046
 2703SOL    HW2 8131   2.335   3.965   3.053
 2704SOL     OW 8132   2.728   4.178   2.504
 2704SOL    HW1 8133   2.696   4.250   2.442
 2704SOL    HW2 8134   2.752   4.097   2.451
 2705SOL     OW 8135   2.879   3.763   2.615
 2705SOL    HW1 8136   2.807   3.768   2.546
 2705SOL    HW2 8137   2.855   3.694   2.684
 2706SOL     OW 8138   3.291   4.897   2.729
 2706SOL    HW1 8139   3.236   4.813   2.722
 2706SOL    HW2 8140   3.317   4.926   2.637
 2707SOL     OW 8141   3.328   4.314   2.854
 2707SOL    HW1 8142   3.298   4.219   2.861
 2707SOL    HW2 8143   3.401   4.330   2.920
 2708SOL     OW 8144   3.719   4.557   2.239
 2708SOL    HW1 8145   3.761   4.493   2.303
 2708SOL    HW2 8146   3.681   4.506   2.161
 2709SOL     OW 8147   3.252   4.299   1.940
 2709SOL    HW1 8148   3.198   4.278   2.021
 2709SOL    HW2 8149   3.343   4.258   1.949
 2710SOL     OW 8150   2.389   3.980   2.190
 2710SOL    HW1 8151   2.416   3.921   2.115
 2710SOL    HW2 8152   2.389   4.075   2.159
 2711SOL     OW 8153   3.616   4.947   3.450
 2711SOL    HW1 8154   3.707   4.908   3.437
 2711SOL    HW2 8155   3.624   5.043   3.474
 2712SOL     OW 8156   3.500   4.823   2.941
 2712SOL    HW1 8157   3.505   4.904   3.000
 2712SOL    HW2 8158   3.414   4.825   2.890
 2713SOL     OW 8159   2.777   3.813   3.264
 2713SOL    HW1 8160   2.802   3.793   3.169
 2713SOL    HW2 8161   2.849   3.869   3.306
 2714SOL     OW 8162   2.272   4.537   3.113
 2714SOL    HW1 8163   2.358   4.549   3.163
 2714SOL    HW2 8164   2.230   4.450   3.140
 2715SOL     OW 8165   3.136   4.110   3.124
 2715SOL    HW1 8166   3.157   4.184   3.188
 2715SOL    HW2 8167   3.047   4.127   3.081
 2716SOL     OW 8168   2.428   4.261   2.727
 2716SOL    HW1 8169   2.440   4.327   2.653
 2716SOL    HW2 8170   2.474   4.295   2.810
 2717SOL     OW 8171   3.444   4.363   2.334
 2717SOL    HW1 8172   3.413   4.424   2.407
 2717SOL    HW2 8173   3.494   4.415   2.265
 2718SOL     OW 8174   2.264   4.475   3.460
 2718SOL    HW1 8175   2.332   4.530   3.413
 2718SOL    HW2 8176   2.304   4.387   3.487
 2719SOL     OW 8177   3.449   4.503   3.532
 2719SOL    HW1 8178   3.357   4.541   3.527
 2719SOL    HW2 8179   3.509   4.550   3.467
 2720SOL     OW 8180   2.875   3.829   3.632
 2720SOL    HW1 8181   2.881   3.914   3.580
 2720SOL    HW2 8182   2.907   3.753   3.575
 2721SOL     OW 8183   2.366   3.774   3.602
 2721SOL    HW1 8184   2.324   3.717   3.532
 2721SOL    HW2 8185   2.300   3.843   3.634
 2722SOL     OW 8186   2.435   4.594   2.891
 2722SOL    HW1 8187   2.479   4.683   2.882
 2722SOL    HW2 8188   2.372   4.594   2.968
 2723SOL     OW 8189   3.222   4.586   2.907
 2723SOL    HW1 8190   3.147   4.586   2.841
 2723SOL    HW2 8191   3.259   4.494   2.916
 2724SOL     OW 8192   3.071   4.249   2.137
 2724SOL    HW1 8193   3.084   4.165   2.191
 2724SOL    HW2 8194   3.042   4.323   2.197
 2725SOL     OW 8195   2.169   3.937   3.093
 2725SOL    HW1 8196   2.146   3.974   3.183
 2725SOL    HW2 8197   2.139   3.842   3.087
 2726SOL     OW 8198   2.594   4.358   2.926
 2726SOL    HW1 8199   2.653   4.332   2.850
 2726SOL    HW2 8200   2.566   4.454   2.915
 2727SOL     OW 8201   3.590   4.659   3.716
 2727SOL    HW1 8202   3.544   4.652   3.627
 2727SOL    HW2 8203   3.528   4.703   3.782
 2728SOL     OW 8204   2.169   3.787   2.480
 2728SOL    HW1 8205   2.158   3.881   2.513
 2728SOL    HW2 8206   2.164   3.724   2.557
 2729SOL     OW 8207   3.484   4.091   2.236
 2729SOL    HW1 8208   3.486   4.015   2.300
 2729SOL    HW2 8209   3.436   4.168   2.276
 2730SOL     OW 8210   2.885   4.490   2.828
 2730SOL    HW1 8211   2.900   4.511   2.924
 2730SOL    HW2 8212   2.855   4.395   2.819
 2731SOL     OW 8213   2.212   4.622   3.666
 2731SOL    HW1 8214   2.288   4.666   3.714
 2731SOL    HW2 8215   2.247   4.575   3.584
 2732SOL     OW 8216   3.402   3.998   1.987
 2732SOL    HW1 8217   3.341   3.923   2.010
 2732SOL    HW2 8218   3.424   4.050   2.070
 2733SOL     OW 8219   3.165   4.562   1.904
 2733SOL    HW1 8220   3.199   4.469   1.919
 2733SOL    HW2 8221   3.183   4.589   1.809
 2734SOL     OW 8222   2.181   4.534   2.811
 2734SOL    HW1 8223   2.274   4.570   2.816
 2734SOL    HW2 8224   2.175   4.449   2.863
 2735SOL     OW 8225   2.201   4.233   2.868
 2735SOL    HW1 8226   2.149   4.150   2.851
 2735SOL    HW2 8227   2.278   4.238   2.804
 2736SOL     OW 8228   3.000   4.104   3.540
 2736SOL    HW1 8229   2.955   4.167   3.604
 2736SOL    HW2 8230   3.093   4.135   3.523
 2737SOL     OW 8231   3.022   3.931   3.339
 2737SOL    HW1 8232   3.022   3.995   3.416
 2737SOL    HW2 8233   3.050   3.979   3.256
 2738SOL     OW 8234   2.864   4.520   3.100
 2738SOL    HW1 8235   2.905   4.488   3.186
 2738SOL    HW2 8236   2.768   4.493   3.097
 2739SOL     OW 8237   1.902   4.268   2.976
 2739SOL    HW1 8238   1.987   4.235   2.935
 2739SOL    HW2 8239   1.915   4.283   3.074
 2740SOL     OW 8240   2.051   4.244   3.584
 2740SOL    HW1 8241   2.110   4.204   3.514
 2740SOL    HW2 8242   1.993   4.315   3.543
 2741SOL     OW 8243   3.231   4.674   3.522
 2741SOL    HW1 8244   3.270   4.763   3.542
 2741SOL    HW2 8245   3.241   4.654   3.425
 2742SOL     OW 8246   2.677   4.296   2.187
 2742SOL    HW1 8247   2.684   4.207   2.141
 2742SOL    HW2 8248   2.583   4.330   2.179
 2743SOL     OW 8249   3.519   4.328   3.068
 2743SOL    HW1 8250   3.481   4.259   3.130
 2743SOL    HW2 8251   3.601   4.292   3.024
 2744SOL     OW 8252   2.533   4.188   3.131
 2744SOL    HW1 8253   2.499   4.099   3.101
 2744SOL    HW2 8254   2.559   4.242   3.051
 2745SOL     OW 8255   2.335   4.224   2.053
 2745SOL    HW1 8256   2.396   4.304   2.057
 2745SOL    HW2 8257   2.240   4.255   2.060
 2746SOL     OW 8258   2.021   4.861   3.328
 2746SOL    HW1 8259   2.043   4.800   3.404
 2746SOL    HW2 8260   2.031   4.812   3.242
 2747SOL     OW 8261   3.209   4.783   3.096
 2747SOL    HW1 8262   3.233   4.720   3.022
 2747SOL    HW2 8263   3.119   4.823   3.078
 2748SOL     OW 8264   3.164   4.579   2.171
 2748SOL    HW1 8265   3.078   4.548   2.213
 2748SOL    HW2 8266   3.160   4.565   2.072
 2749SOL     OW 8267   3.588   3.859   2.385
 2749SOL    HW1 8268   3.661   3.842   2.318
 2749SOL    HW2 8269   3.557   3.772   2.423
 2750SOL     OW 8270   3.142   4.651   2.534
 2750SOL    HW1 8271   3.202   4.570   2.536
 2750SOL    HW2 8272   3.182   4.720   2.474
 2751SOL     OW 8273   3.703   3.899   2.825
 2751SOL    HW1 8274   3.742   3.814   2.789
 2751SOL    HW2 8275   3.605   3.901   2.806
 2752SOL     OW 8276   2.125   4.050   2.582
 2752SOL    HW1 8277   2.046   4.101   2.548
 2752SOL    HW2 8278   2.116   4.035   2.680
 2753SOL     OW 8279   2.778   4.634   2.153
 2753SOL    HW1 8280   2.841   4.672   2.085
 2753SOL    HW2 8281   2.818   4.551   2.192
 2754SOL     OW 8282   2.876   3.960   2.833
 2754SOL    HW1 8283   2.868   3.924   2.740
 2754SOL    HW2 8284   2.874   3.884   2.898
 2755SOL     OW 8285   3.571   4.109   3.243
 2755SOL    HW1 8286   3.644   4.178   3.247
 2755SOL    HW2 8287   3.599   4.034   3.184
 2756SOL     OW 8288   1.967   4.737   3.588
 2756SOL    HW1 8289   1.890   4.704   3.642
 2756SOL    HW2 8290   2.052   4.707   3.630
 2757SOL     OW 8291   2.534   3.927   3.351
 2757SOL    HW1 8292   2.624   3.911   3.311
 2757SOL    HW2 8293   2.542   3.932   3.450
 2758SOL     OW 8294   1.937   4.069   1.895
 2758SOL    HW1 8295   1.845   4.041   1.866
 2758SOL    HW2 8296   1.968   4.146   1.839
 2759SOL     OW 8297   3.302   4.580   3.260
 2759SOL    HW1 8298   3.245   4.632   3.197
 2759SOL    HW2 8299   3.398   4.592   3.236
 2760SOL     OW 8300   1.934   3.890   2.180
 2760SOL    HW1 8301   1.917   3.973   2.126
 2760SOL    HW2 8302   2.024   3.853   2.158
 2761SOL     OW 8303   3.045   5.059   1.981
 2761SOL    HW1 8304   2.946   5.048   1.983
 2761SOL    HW2 8305   3.079   5.074   2.074
 2762SOL     OW 8306   2.475   4.566   3.293
 2762SOL    HW1 8307   2.531   4.647   3.276
 2762SOL    HW2 8308   2.534   4.486   3.296
 2763SOL     OW 8309   2.578   4.289   3.570
 2763SOL    HW1 8310   2.597   4.354   3.644
 2763SOL    HW2 8311   2.638   4.209   3.579
 2764SOL     OW 8312   3.536   4.607   3.116
 2764SOL    HW1 8313   3.509   4.518   3.079
 2764SOL    HW2 8314   3.537   4.675   3.043
 2765SOL     OW 8315   3.087   4.049   2.311
 2765SOL    HW1 8316   3.152   3.975   2.300
 2765SOL    HW2 8317   3.107   4.099   2.395
 2766SOL     OW 8318   2.456   4.469   2.514
 2766SOL    HW1 8319   2.506   4.554   2.495
 2766SOL    HW2 8320   2.368   4.471   2.466
 2767SOL     OW 8321   3.639   4.066   3.504
 2767SOL    HW1 8322   3.622   4.097   3.410
 2767SOL    HW2 8323   3.555   4.029   3.542
 2768SOL     OW 8324   3.592   4.658   3.379
 2768SOL    HW1 8325   3.630   4.749   3.394
 2768SOL    HW2 8326   3.584   4.641   3.280
 2769SOL     OW 8327   2.721   4.680   2.723
 2769SOL    HW1 8328   2.775   4.611   2.771
 2769SOL    HW2 8329   2.689   4.749   2.789
 2770SOL     OW 8330   2.945   4.708   1.949
 2770SOL    HW1 8331   2.922   4.761   1.867
 2770SOL    HW2 8332   3.026   4.652   1.930
 2771SOL     OW 8333   3.686   3.916   3.089
 2771SOL    HW1 8334   3.682   3.826   3.133
 2771SOL    HW2 8335   3.689   3.905   2.990
 2772SOL     OW 8336   2.290   4.148   2.382
 2772SOL    HW1 8337   2.320   4.076   2.320
 2772SOL    HW2 8338   2.251   4.108   2.465
 2773SOL     OW 8339   2.179   4.271   3.142
 2773SOL    HW1 8340   2.217   4.212   3.214
 2773SOL    HW2 8341   2.219   4.245   3.054
 2774SOL     OW 8342   3.286   3.938   2.974
 2774SOL    HW1 8343   3.338   3.873   3.029
 2774SOL    HW2 8344   3.237   4.001   3.035
 2775SOL     OW 8345   2.863   3.758   3.016
 2775SOL    HW1 8346   2.800   3.686   2.985
 2775SOL    HW2 8347   2.956   3.722   3.016
 2776SOL     OW 8348   3.214   3.776   2.030
 2776SOL    HW1 8349   3.249   3.735   1.946
 2776SOL    HW2 8350   3.124   3.738   2.050
 2777SOL     OW 8351   3.162   4.177   2.553
 2777SOL    HW1 8352   3.103   4.257   2.557
 2777SOL    HW2 8353   3.177   4.142   2.646
 2778SOL     OW 8354   3.455   3.945   2.744
 2778SOL    HW1 8355   3.371   3.944   2.798
 2778SOL    HW2 8356   3.457   4.028   2.688
 2779SOL     OW 8357   1.901   4.801   2.162
 2779SOL    HW1 8358   2.000   4.790   2.153
 2779SOL    HW2 8359   1.861   4.715   2.194
 2780SOL     OW 8360   2.092   4.352   3.837
 2780SOL    HW1 8361   1.999   4.350   3.874
 2780SOL    HW2 8362   2.093   4.313   3.745
 2781SOL     OW 8363   2.087   3.999   4.720
 2781SOL    HW1 8364   2.122   3.982   4.812
 2781SOL    HW2 8365   1.999   3.954   4.708
 2782SOL     OW 8366   1.881   4.092   4.371
 2782SOL    HW1 8367   1.799   4.135   4.410
 2782SOL    HW2 8368   1.853   4.019   4.308
 2783SOL     OW 8369   2.997   4.427   4.441
 2783SOL    HW1 8370   3.054   4.505   4.416
 2783SOL    HW2 8371   2.937   4.453   4.517
 2784SOL     OW 8372   3.617   4.331   3.955
 2784SOL    HW1 8373   3.605   4.318   3.856
 2784SOL    HW2 8374   3.587   4.250   4.004
 2785SOL     OW 8375   2.630   4.868   4.747
 2785SOL    HW1 8376   2.552   4.885   4.807
 2785SOL    HW2 8377   2.664   4.955   4.711
 2786SOL     OW 8378   2.547   4.736   4.389
 2786SOL    HW1 8379   2.616   4.720   4.459
 2786SOL    HW2 8380   2.474   4.793   4.427
 2787SOL     OW 8381   3.465   4.171   4.461
 2787SOL    HW1 8382   3.391   4.217   4.411
 2787SOL    HW2 8383   3.516   4.239   4.514
 2788SOL     OW 8384   2.092   5.158   4.262
 2788SOL    HW1 8385   2.066   5.254   4.262
 2788SOL    HW2 8386   2.021   5.104   4.307
 2789SOL     OW 8387   2.102   4.815   4.610
 2789SOL    HW1 8388   2.116   4.731   4.662
 2789SOL    HW2 8389   2.047   4.879   4.665
 2790SOL     OW 8390   2.468   4.688   3.847
 2790SOL    HW1 8391   2.475   4.772   3.793
 2790SOL    HW2 8392   2.514   4.701   3.935
 2791SOL     OW 8393   1.984   4.367   4.287
 2791SOL    HW1 8394   1.939   4.279   4.304
 2791SOL    HW2 8395   1.983   4.421   4.371
 2792SOL     OW 8396   3.551   4.646   4.336
 2792SOL    HW1 8397   3.646   4.617   4.344
 2792SOL    HW2 8398   3.543   4.711   4.261
 2793SOL     OW 8399   2.671   3.728   4.226
 2793SOL    HW1 8400   2.711   3.819   4.217
 2793SOL    HW2 8401   2.571   3.736   4.232
 2794SOL     OW 8402   2.059   4.700   4.988
 2794SOL    HW1 8403   2.148   4.655   4.974
 2794SOL    HW2 8404   1.986   4.635   4.969
 2795SOL     OW 8405   3.387   4.723   3.914
 2795SOL    HW1 8406   3.324   4.647   3.927
 2795SOL    HW2 8407   3.435   4.741   4.000
 2796SOL     OW 8408   2.460   4.453   3.994
 2796SOL    HW1 8409   2.484   4.522   3.926
 2796SOL    HW2 8410   2.382   4.486   4.048
 2797SOL     OW 8411   3.143   4.069   4.668
 2797SOL    HW1 8412   3.057   4.019   4.655
 2797SOL    HW2 8413   3.205   4.015   4.724
 2798SOL     OW 8414   2.903   4.425   4.153
 2798SOL    HW1 8415   2.929   4.421   4.249
 2798SOL    HW2 8416   2.818   4.374   4.139
 2799SOL     OW 8417   1.938   4.535   4.513
 2799SOL    HW1 8418   2.037   4.523   4.522
 2799SOL    HW2 8419   1.914   4.630   4.534
 2800SOL     OW 8420   2.727   4.072   3.919
 2800SOL    HW1 8421   2.786   4.135   3.870
 2800SOL    HW2 8422   2.746   3.978   3.890
 2801SOL     OW 8423   2.412   3.920   4.609
 2801SOL    HW1 8424   2.407   3.915   4.709
 2801SOL    HW2 8425   2.414   4.016   4.580
 2802SOL     OW 8426   3.657   4.790   4.597
 2802SOL    HW1 8427   3.595   4.775   4.521
 2802SOL    HW2 8428   3.605   4.801   4.682
 2803SOL     OW 8429   3.320   4.459   4.452
 2803SOL    HW1 8430   3.315   4.394   4.527
 2803SOL    HW2 8431   3.400   4.518   4.465
 2804SOL     OW 8432   3.262   3.831   4.150
 2804SOL    HW1 8433   3.238   3.794   4.060
 2804SOL    HW2 8434   3.361   3.847   4.154
 2805SOL     OW 8435   2.244   4.424   4.204
 2805SOL    HW1 8436   2.289   4.334   4.201
 2805SOL    HW2 8437   2.150   4.413   4.237
 2806SOL     OW 8438   2.476   3.846   3.841
 2806SOL    HW1 8439   2.574   3.824   3.848
 2806SOL    HW2 8440   2.445   3.829   3.748
 2807SOL     OW 8441   2.784   4.227   4.623
 2807SOL    HW1 8442   2.759   4.218   4.527
 2807SOL    HW2 8443   2.832   4.145   4.654
 2808SOL     OW 8444   2.401   3.788   4.236
 2808SOL    HW1 8445   2.320   3.789   4.294
 2808SOL    HW2 8446   2.404   3.871   4.181
 2809SOL     OW 8447   2.159   3.759   3.895
 2809SOL    HW1 8448   2.208   3.843   3.874
 2809SOL    HW2 8449   2.221   3.694   3.940
 2810SOL     OW 8450   2.797   3.960   4.204
 2810SOL    HW1 8451   2.749   4.001   4.126
 2810SOL    HW2 8452   2.896   3.958   4.185
 2811SOL     OW 8453   2.894   4.273   3.740
 2811SOL    HW1 8454   2.853   4.355   3.701
 2811SOL    HW2 8455   2.958   4.299   3.813
 2812SOL     OW 8456   2.728   4.178   4.366
 2812SOL    HW1 8457   2.696   4.250   4.304
 2812SOL    HW2 8458   2.752   4.097   4.313
 2813SOL     OW 8459   2.879   3.763   4.477
 2813SOL    HW1 8460   2.807   3.768   4.408
 2813SOL    HW2 8461   2.855   3.694   4.546
 2814SOL     OW 8462   3.291   4.897   4.591
 2814SOL    HW1 8463   3.236   4.813   4.584
 2814SOL    HW2 8464   3.317   4.926   4.499
 2815SOL     OW 8465   3.328   4.314   4.716
 2815SOL    HW1 8466   3.298   4.219   4.723
 2815SOL    HW2 8467   3.401   4.330   4.782
 2816SOL     OW 8468   3.719   4.557   4.101
 2816SOL    HW1 8469   3.761   4.493   4.165
 2816SOL    HW2 8470   3.681   4.506   4.023
 2817SOL     OW 8471   3.252   4.299   3.802
 2817SOL    HW1 8472   3.198   4.278   3.883
 2817SOL    HW2 8473   3.343   4.258   3.811
 2818SOL     OW 8474   2.389   3.980   4.052
 2818SOL    HW1 8475   2.416   3.921   3.977
 2818SOL    HW2 8476   2.389   4.075   4.021
 2819SOL     OW 8477   3.500   4.823   4.803
 2819SOL    HW1 8478   3.505   4.904   4.862
 2819SOL    HW2 8479   3.414   4.825   4.752
 2820SOL     OW 8480   2.428   4.261   4.589
 2820SOL    HW1 8481   2.440   4.327   4.515
 2820SOL    HW2 8482   2.474   4.295   4.672
 2821SOL     OW 8483   3.444   4.363   4.196
 2821SOL    HW1 8484   3.413   4.424   4.269
 2821SOL    HW2 8485   3.494   4.415   4.127
 2822SOL     OW 8486   2.435   4.594   4.753
 2822SOL    HW1 8487   2.479   4.683   4.744
 2822SOL    HW2 8488   2.372   4.594   4.830
 2823SOL     OW 8489   3.071   4.249   3.999
 2823SOL    HW1 8490   3.084   4.165   4.053
 2823SOL    HW2 8491   3.042   4.323   4.059
 2824SOL     OW 8492   2.169   3.937   4.955
 2824SOL    HW1 8493   2.146   3.974   5.045
 2824SOL    HW2 8494   2.139   3.842   4.949
 2825SOL     OW 8495   2.594   4.358   4.788
 2825SOL    HW1 8496   2.653   4.332   4.712
 2825SOL    HW2 8497   2.566   4.454   4.777
 2826SOL     OW 8498   2.169   3.787   4.342
 2826SOL    HW1 8499   2.158   3.881   4.375
 2826SOL    HW2 8500   2.164   3.724   4.419
 2827SOL     OW 8501   3.484   4.091   4.098
 2827SOL    HW1 8502   3.486   4.015   4.162
 2827SOL    HW2 8503   3.436   4.168   4.138
 2828SOL     OW 8504   2.885   4.490   4.690
 2828SOL    HW1 8505   2.900   4.511   4.786
 2828SOL    HW2 8506   2.855   4.395   4.681
 2829SOL     OW 8507   3.402   3.998   3.849
 2829SOL    HW1 8508   3.341   3.923   3.872
 2829SOL    HW2 8509   3.424   4.050   3.932
 2830SOL     OW 8510   3.165   4.562   3.766
 2830SOL    HW1 8511   3.199   4.469   3.781
 2830SOL    HW2 8512   3.183   4.589   3.671
 2831SOL     OW 8513   2.181   4.534   4.673
 2831SOL    HW1 8514   2.274   4.570   4.678
 2831SOL    HW2 8515   2.175   4.449   4.725
 2832SOL     OW 8516   2.201   4.233   4.730
 2832SOL    HW1 8517   2.149   4.150   4.713
 2832SOL    HW2 8518   2.278   4.238   4.666
 2833SOL     OW 8519   2.864   4.520   4.962
 2833SOL    HW1 8520   2.905   4.488   5.048
 2833SOL    HW2 8521   2.768   4.493   4.959
 2834SOL     OW 8522   2.677   4.296   4.049
 2834SOL    HW1 8523   2.684   4.207   4.003
 2834SOL    HW2 8524   2.583   4.330   4.041
 2835SOL     OW 8525   2.533   4.188   4.993
 2835SOL    HW1 8526   2.499   4.099   4.963
 2835SOL    HW2 8527   2.559   4.242   4.913
 2836SOL     OW 8528   2.335   4.224   3.915
 2836SOL    HW1 8529   2.396   4.304   3.919
 2836SOL    HW2 8530   2.240   4.255   3.922
 2837SOL     OW 8531   3.164   4.579   4.033
 2837SOL    HW1 8532   3.078   4.548   4.075
 2837SOL    HW2 8533   3.160   4.565   3.934
 2838SOL     OW 8534   3.588   3.859   4.247
 2838SOL    HW1 8535   3.661   3.842   4.180
 2838SOL    HW2 8536   3.557   3.772   4.285
 2839SOL     OW 8537   3.142   4.651   4.396
 2839SOL    HW1 8538   3.202   4.570   4.398
 2839SOL    HW2 8539   3.182   4.720   4.336
 2840SOL     OW 8540   3.703   3.899   4.687
 2840SOL    HW1 8541   3.742   3.814   4.651
 2840SOL    HW2 8542   3.605   3.901   4.668
 2841SOL     OW 8543   2.125   4.050   4.444
 2841SOL    HW1 8544   2.046   4.101   4.410
 2841SOL    HW2 8545   2.116   4.035   4.542
 2842SOL     OW 8546   2.778   4.634   4.015
 2842SOL    HW1 8547   2.841   4.672   3.947
 2842SOL    HW2 8548   2.818   4.551   4.054
 2843SOL     OW 8549   2.876   3.960   4.695
 2843SOL    HW1 8550   2.868   3.924   4.602
 2843SOL    HW2 8551   2.874   3.884   4.760
 2844SOL     OW 8552   1.937   4.069   3.757
 2844SOL    HW1 8553   1.845   4.041   3.728
 2844SOL    HW2 8554   1.968   4.146   3.701
 2845SOL     OW 8555   1.934   3.890   4.042
 2845SOL    HW1 8556   1.917   3.973   3.988
 2845SOL    HW2 8557   2.024   3.853   4.020
 2846SOL     OW 8558   3.045   5.059   3.843
 2846SOL    HW1 8559   2.946   5.048   3.845
 2846SOL    HW2 8560   3.079   5.074   3.936
 2847SOL     OW 8561   3.536   4.607   4.978
 2847SOL    HW1 8562   3.509   4.518   4.941
 2847SOL    HW2 8563   3.537   4.675   4.905
 2848SOL     OW 8564   3.087   4.049   4.173
 2848SOL    HW1 8565   3.152   3.975   4.162
 2848SOL    HW2 8566   3.107   4.099   4.257
 2849SOL     OW 8567   2.456   4.469   4.376
 2849SOL    HW1 8568   2.506   4.554   4.357
 2849SOL    HW2 8569   2.368   4.471   4.328
 2850SOL     OW 8570   2.721   4.680   4.585
 2850SOL    HW1 8571   2.775   4.611   4.633
 2850SOL    HW2 8572   2.689   4.749   4.651
 2851SOL     OW 8573   2.945   4.708   3.811
 2851SOL    HW1 8574   2.922   4.761   3.729
 2851SOL    HW2 8575   3.026   4.652   3.792
 2852SOL     OW 8576   3.686   3.916   4.951
 2852SOL    HW1 8577   3.682   3.826   4.995
 2852SOL    HW2 8578   3.689   3.905   4.852
 2853SOL     OW 8579   2.290   4.148   4.244
 2853SOL    HW1 8580   2.320   4.076   4.182
 2853SOL    HW2 8581   2.251   4.108   4.327
 2854SOL     OW 8582   3.214   3.776   3.892
 2854SOL    HW1 8583   3.249   3.735   3.808
 2854SOL    HW2 8584   3.124   3.738   3.912
 2855SOL     OW 8585   3.162   4.177   4.415
 2855SOL    HW1 8586   3.103   4.257   4.419
 2855SOL    HW2 8587   3.177   4.142   4.508
 2856SOL     OW 8588   3.455   3.945   4.606
 2856SOL    HW1 8589   3.371   3.944   4.660
 2856SOL    HW2 8590   3.457   4.028   4.550
 2857SOL     OW 8591   1.901   4.801   4.024
 2857SOL    HW1 8592   2.000   4.790   4.015
 2857SOL    HW2 8593   1.861   4.715   4.056
 2858SOL     OW 8594   3.954   0.628   0.113
 2858SOL    HW1 8595   3.861   0.626   0.150
 2858SOL    HW2 8596   3.955   0.589   0.021
 2859SOL     OW 8597   3.949   0.275   0.996
 2859SOL    HW1 8598   3.984   0.258   1.088
 2859SOL    HW2 8599   3.861   0.230   0.984
 2860SOL     OW 8600   3.743   0.368   0.647
 2860SOL    HW1 8601   3.661   0.411   0.686
 2860SOL    HW2 8602   3.715   0.295   0.584
 2861SOL     OW 8603   4.293   1.275   1.165
 2861SOL    HW1 8604   4.200   1.268   1.128
 2861SOL    HW2 8605   4.304   1.364   1.209
 2862SOL     OW 8606   4.492   1.144   1.023
 2862SOL    HW1 8607   4.414   1.161   1.083
 2862SOL    HW2 8608   4.526   1.231   0.987
 2863SOL     OW 8609   4.574   0.798   1.823
 2863SOL    HW1 8610   4.570   0.874   1.888
 2863SOL    HW2 8611   4.596   0.834   1.732
 2864SOL     OW 8612   4.409   1.012   0.665
 2864SOL    HW1 8613   4.478   0.996   0.735
 2864SOL    HW2 8614   4.336   1.069   0.703
 2865SOL     OW 8615   4.410   1.161   1.803
 2865SOL    HW1 8616   4.470   1.240   1.817
 2865SOL    HW2 8617   4.324   1.192   1.762
 2866SOL     OW 8618   4.059   1.435   1.061
 2866SOL    HW1 8619   3.981   1.404   1.008
 2866SOL    HW2 8620   4.117   1.493   1.004
 2867SOL     OW 8621   4.162   0.392   1.499
 2867SOL    HW1 8622   4.244   0.336   1.508
 2867SOL    HW2 8623   4.081   0.334   1.503
 2868SOL     OW 8624   3.955   1.713   0.483
 2868SOL    HW1 8625   3.989   1.790   0.537
 2868SOL    HW2 8626   3.999   1.713   0.393
 2869SOL     OW 8627   4.851   1.341   1.690
 2869SOL    HW1 8628   4.898   1.341   1.778
 2869SOL    HW2 8629   4.803   1.254   1.679
 2870SOL     OW 8630   3.954   1.434   0.538
 2870SOL    HW1 8631   3.928   1.530   0.538
 2870SOL    HW2 8632   3.883   1.380   0.583
 2871SOL     OW 8633   3.964   1.091   0.886
 2871SOL    HW1 8634   3.978   1.007   0.938
 2871SOL    HW2 8635   3.909   1.155   0.941
 2872SOL     OW 8636   4.344   1.786   1.439
 2872SOL    HW1 8637   4.252   1.769   1.474
 2872SOL    HW2 8638   4.372   1.878   1.465
 2873SOL     OW 8639   4.330   0.964   0.123
 2873SOL    HW1 8640   4.337   1.048   0.069
 2873SOL    HW2 8641   4.376   0.977   0.211
 2874SOL     OW 8642   3.846   0.643   0.563
 2874SOL    HW1 8643   3.801   0.555   0.580
 2874SOL    HW2 8644   3.845   0.697   0.647
 2875SOL     OW 8645   3.751   1.596   0.117
 2875SOL    HW1 8646   3.732   1.500   0.138
 2875SOL    HW2 8647   3.718   1.654   0.192
 2876SOL     OW 8648   3.837   0.737   1.597
 2876SOL    HW1 8649   3.925   0.724   1.642
 2876SOL    HW2 8650   3.824   0.834   1.575
 2877SOL     OW 8651   4.337   1.365   0.726
 2877SOL    HW1 8652   4.288   1.278   0.735
 2877SOL    HW2 8653   4.314   1.408   0.639
 2878SOL     OW 8654   4.533   0.004   0.502
 2878SOL    HW1 8655   4.573   0.095   0.493
 2878SOL    HW2 8656   4.433   0.012   0.508
 2879SOL     OW 8657   3.921   0.976   1.264
 2879SOL    HW1 8658   4.010   0.931   1.250
 2879SOL    HW2 8659   3.848   0.911   1.245
 2880SOL     OW 8660   4.041   0.251   1.801
 2880SOL    HW1 8661   4.112   0.322   1.807
 2880SOL    HW2 8662   3.953   0.290   1.829
 2881SOL     OW 8663   4.322   0.729   0.270
 2881SOL    HW1 8664   4.346   0.798   0.202
 2881SOL    HW2 8665   4.244   0.762   0.324
 2882SOL     OW 8666   4.531   0.605   1.465
 2882SOL    HW1 8667   4.484   0.602   1.554
 2882SOL    HW2 8668   4.480   0.550   1.399
 2883SOL     OW 8669   4.697   0.890   1.572
 2883SOL    HW1 8670   4.743   0.806   1.543
 2883SOL    HW2 8671   4.641   0.924   1.497
 2884SOL     OW 8672   4.715   0.410   1.242
 2884SOL    HW1 8673   4.638   0.444   1.296
 2884SOL    HW2 8674   4.681   0.359   1.163
 2885SOL     OW 8675   4.765   0.701   0.429
 2885SOL    HW1 8676   4.791   0.697   0.525
 2885SOL    HW2 8677   4.680   0.650   0.415
 2886SOL     OW 8678   3.800   0.811   0.789
 2886SOL    HW1 8679   3.899   0.799   0.798
 2886SOL    HW2 8680   3.776   0.906   0.810
 2887SOL     OW 8681   3.854   1.821   1.571
 2887SOL    HW1 8682   3.844   1.806   1.670
 2887SOL    HW2 8683   3.768   1.857   1.535
 2888SOL     OW 8684   4.589   0.348   0.195
 2888SOL    HW1 8685   4.648   0.411   0.146
 2888SOL    HW2 8686   4.608   0.254   0.166
 2889SOL     OW 8687   4.274   0.196   0.885
 2889SOL    HW1 8688   4.269   0.191   0.985
 2889SOL    HW2 8689   4.276   0.292   0.856
 2890SOL     OW 8690   4.732   1.456   0.477
 2890SOL    HW1 8691   4.686   1.528   0.425
 2890SOL    HW2 8692   4.728   1.476   0.575
 2891SOL     OW 8693   4.075   1.801   0.853
 2891SOL    HW1 8694   4.125   1.715   0.859
 2891SOL    HW2 8695   4.140   1.878   0.850
 2892SOL     OW 8696   4.045   0.943   0.242
 2892SOL    HW1 8697   4.127   0.982   0.200
 2892SOL    HW2 8698   4.018   0.861   0.193
 2893SOL     OW 8699   4.185   1.266   1.727
 2893SOL    HW1 8700   4.135   1.267   1.641
 2893SOL    HW2 8701   4.122   1.248   1.803
 2894SOL     OW 8702   3.926   0.285   1.498
 2894SOL    HW1 8703   3.846   0.345   1.485
 2894SOL    HW2 8704   3.916   0.236   1.584
 2895SOL     OW 8705   4.188   1.743   0.323
 2895SOL    HW1 8706   4.221   1.782   0.409
 2895SOL    HW2 8707   4.264   1.736   0.258
 2896SOL     OW 8708   3.973   1.785   1.241
 2896SOL    HW1 8709   4.030   1.720   1.291
 2896SOL    HW2 8710   3.957   1.752   1.148
 2897SOL     OW 8711   4.664   1.698   0.904
 2897SOL    HW1 8712   4.744   1.641   0.925
 2897SOL    HW2 8713   4.615   1.658   0.827
 2898SOL     OW 8714   4.106   0.700   0.480
 2898SOL    HW1 8715   4.151   0.610   0.477
 2898SOL    HW2 8716   4.012   0.689   0.513
 2899SOL     OW 8717   4.338   0.122   0.117
 2899SOL    HW1 8718   4.436   0.100   0.124
 2899SOL    HW2 8719   4.307   0.105   0.024
 2900SOL     OW 8720   4.505   0.264   1.749
 2900SOL    HW1 8721   4.572   0.203   1.792
 2900SOL    HW2 8722   4.432   0.283   1.814
 2901SOL     OW 8723   4.612   1.514   1.195
 2901SOL    HW1 8724   4.589   1.489   1.101
 2901SOL    HW2 8725   4.673   1.445   1.234
 2902SOL     OW 8726   4.527   1.402   0.924
 2902SOL    HW1 8727   4.617   1.416   0.882
 2902SOL    HW2 8728   4.456   1.404   0.853
 2903SOL     OW 8729   4.646   0.503   0.899
 2903SOL    HW1 8730   4.621   0.494   0.803
 2903SOL    HW2 8731   4.694   0.421   0.930
 2904SOL     OW 8732   4.263   0.064   0.512
 2904SOL    HW1 8733   4.182   0.065   0.570
 2904SOL    HW2 8734   4.266   0.147   0.457
 2905SOL     OW 8735   5.158   1.188   0.041
 2905SOL    HW1 8736   5.190   1.112   0.098
 2905SOL    HW2 8737   5.066   1.215   0.071
 2906SOL     OW 8738   4.021   0.035   0.171
 2906SOL    HW1 8739   4.070   0.119   0.150
 2906SOL    HW2 8740   4.083  -0.030   0.216
 2907SOL     OW 8741   4.659   0.236   0.480
 2907SOL    HW1 8742   4.611   0.277   0.402
 2907SOL    HW2 8743   4.758   0.234   0.461
 2908SOL     OW 8744   4.951   1.570   0.793
 2908SOL    HW1 8745   4.972   1.644   0.728
 2908SOL    HW2 8746   5.019   1.570   0.866
 2909SOL     OW 8747   4.183   1.152   0.741
 2909SOL    HW1 8748   4.112   1.125   0.806
 2909SOL    HW2 8749   4.157   1.124   0.648
 2910SOL     OW 8750   4.756   0.549   0.016
 2910SOL    HW1 8751   4.715   0.631  -0.023
 2910SOL    HW2 8752   4.820   0.575   0.089
 2911SOL     OW 8753   3.802   0.556   1.386
 2911SOL    HW1 8754   3.894   0.555   1.345
 2911SOL    HW2 8755   3.796   0.630   1.453
 2912SOL     OW 8756   4.285   0.222   1.147
 2912SOL    HW1 8757   4.323   0.138   1.184
 2912SOL    HW2 8758   4.197   0.241   1.191
 2913SOL     OW 8759   4.590   0.454   0.642
 2913SOL    HW1 8760   4.558   0.526   0.580
 2913SOL    HW2 8761   4.614   0.373   0.589
 2914SOL     OW 8762   4.741   0.039   0.753
 2914SOL    HW1 8763   4.669   0.044   0.684
 2914SOL    HW2 8764   4.717  -0.030   0.822
 2915SOL     OW 8765   4.212   1.385   0.174
 2915SOL    HW1 8766   4.125   1.370   0.221
 2915SOL    HW2 8767   4.195   1.411   0.079
 2916SOL     OW 8768   4.251   0.256   0.328
 2916SOL    HW1 8769   4.278   0.197   0.253
 2916SOL    HW2 8770   4.251   0.351   0.297
 2917SOL     OW 8771   4.639   0.089   1.402
 2917SOL    HW1 8772   4.664   0.069   1.307
 2917SOL    HW2 8773   4.711   0.145   1.444
 2918SOL     OW 8774   4.704   1.116   1.719
 2918SOL    HW1 8775   4.605   1.122   1.729
 2918SOL    HW2 8776   4.727   1.036   1.663
 2919SOL     OW 8777   4.429   1.050   0.368
 2919SOL    HW1 8778   4.415   1.057   0.467
 2919SOL    HW2 8779   4.513   0.999   0.350
 2920SOL     OW 8780   4.134   0.813   1.251
 2920SOL    HW1 8781   4.220   0.825   1.301
 2920SOL    HW2 8782   4.092   0.726   1.278
 2921SOL     OW 8783   3.788   1.564   1.331
 2921SOL    HW1 8784   3.742   1.646   1.297
 2921SOL    HW2 8785   3.886   1.583   1.340
 2922SOL     OW 8786   4.091   1.100   0.501
 2922SOL    HW1 8787   4.084   1.183   0.445
 2922SOL    HW2 8788   4.095   1.020   0.441
 2923SOL     OW 8789   4.290   0.537   0.865
 2923SOL    HW1 8790   4.302   0.603   0.791
 2923SOL    HW2 8791   4.336   0.571   0.948
 2924SOL     OW 8792   4.078   1.510   1.329
 2924SOL    HW1 8793   4.057   1.466   1.242
 2924SOL    HW2 8794   4.175   1.536   1.332
 2925SOL     OW 8795   4.126   0.751   1.598
 2925SOL    HW1 8796   4.194   0.806   1.551
 2925SOL    HW2 8797   4.166   0.663   1.625
 2926SOL     OW 8798   4.737   0.105   1.770
 2926SOL    HW1 8799   4.743   0.190   1.718
 2926SOL    HW2 8800   4.769   0.029   1.713
 2927SOL     OW 8801   4.228   0.050   1.740
 2927SOL    HW1 8802   4.186  -0.007   1.670
 2927SOL    HW2 8803   4.162   0.119   1.772
 2928SOL     OW 8804   4.297   0.870   1.029
 2928SOL    HW1 8805   4.341   0.959   1.020
 2928SOL    HW2 8806   4.234   0.870   1.106
 2929SOL     OW 8807   4.933   0.525   0.275
 2929SOL    HW1 8808   4.946   0.441   0.329
 2929SOL    HW2 8809   4.904   0.599   0.335
 2930SOL     OW 8810   4.031   0.213   1.231
 2930SOL    HW1 8811   4.008   0.250   1.321
 2930SOL    HW2 8812   4.001   0.118   1.225
 2931SOL     OW 8813   3.761   1.310   1.282
 2931SOL    HW1 8814   3.814   1.261   1.350
 2931SOL    HW2 8815   3.783   1.408   1.287
 2932SOL     OW 8816   4.456   0.634   1.064
 2932SOL    HW1 8817   4.515   0.608   0.988
 2932SOL    HW2 8818   4.428   0.730   1.053
 2933SOL     OW 8819   4.031   0.063   0.618
 2933SOL    HW1 8820   4.020   0.157   0.651
 2933SOL    HW2 8821   4.026   0.000   0.695
 2934SOL     OW 8822   4.747   0.766   0.966
 2934SOL    HW1 8823   4.762   0.787   1.062
 2934SOL    HW2 8824   4.717   0.671   0.957
 2935SOL     OW 8825   4.704   1.573   1.700
 2935SOL    HW1 8826   4.684   1.617   1.612
 2935SOL    HW2 8827   4.743   1.482   1.684
 2936SOL     OW 8828   4.074   0.898   1.804
 2936SOL    HW1 8829   4.150   0.942   1.852
 2936SOL    HW2 8830   4.109   0.851   1.722
 2937SOL     OW 8831   4.792   1.333   0.849
 2937SOL    HW1 8832   4.799   1.249   0.794
 2937SOL    HW2 8833   4.854   1.402   0.813
 2938SOL     OW 8834   4.043   0.810   0.949
 2938SOL    HW1 8835   4.136   0.846   0.954
 2938SOL    HW2 8836   4.037   0.725   1.001
 2939SOL     OW 8837   4.063   0.509   1.006
 2939SOL    HW1 8838   4.011   0.426   0.989
 2939SOL    HW2 8839   4.140   0.514   0.942
 2940SOL     OW 8840   3.732   1.326   0.200
 2940SOL    HW1 8841   3.639   1.347   0.169
 2940SOL    HW2 8842   3.742   1.227   0.213
 2941SOL     OW 8843   3.812   1.801   0.927
 2941SOL    HW1 8844   3.770   1.715   0.900
 2941SOL    HW2 8845   3.906   1.804   0.893
 2942SOL     OW 8846   4.228   1.568   0.910
 2942SOL    HW1 8847   4.294   1.642   0.919
 2942SOL    HW2 8848   4.272   1.489   0.868
 2943SOL     OW 8849   4.726   0.796   1.238
 2943SOL    HW1 8850   4.767   0.764   1.324
 2943SOL    HW2 8851   4.630   0.769   1.235
 2944SOL     OW 8852   3.764   0.544   1.114
 2944SOL    HW1 8853   3.849   0.511   1.073
 2944SOL    HW2 8854   3.777   0.559   1.212
 2945SOL     OW 8855   3.913   0.520   1.722
 2945SOL    HW1 8856   3.972   0.480   1.652
 2945SOL    HW2 8857   3.855   0.591   1.681
 2946SOL     OW 8858   4.539   0.572   0.325
 2946SOL    HW1 8859   4.546   0.483   0.279
 2946SOL    HW2 8860   4.445   0.606   0.317
 2947SOL     OW 8861   3.976   1.564   1.744
 2947SOL    HW1 8862   3.946   1.621   1.820
 2947SOL    HW2 8863   3.969   1.467   1.770
 2948SOL     OW 8864   4.395   0.464   1.269
 2948SOL    HW1 8865   4.361   0.375   1.239
 2948SOL    HW2 8866   4.421   0.518   1.189
 2949SOL     OW 8867   4.654   1.678   1.465
 2949SOL    HW1 8868   4.630   1.660   1.370
 2949SOL    HW2 8869   4.684   1.772   1.475
 2950SOL     OW 8870   4.197   0.500   0.191
 2950SOL    HW1 8871   4.258   0.580   0.195
 2950SOL    HW2 8872   4.102   0.531   0.198
 2951SOL     OW 8873   3.883   1.137   1.466
 2951SOL    HW1 8874   3.905   1.076   1.542
 2951SOL    HW2 8875   3.893   1.088   1.380
 2952SOL     OW 8876   3.807   1.258   1.022
 2952SOL    HW1 8877   3.802   1.257   1.122
 2952SOL    HW2 8878   3.724   1.217   0.984
 2953SOL     OW 8879   4.412   1.662   1.716
 2953SOL    HW1 8880   4.356   1.743   1.725
 2953SOL    HW2 8881   4.464   1.666   1.630
 2954SOL     OW 8882   4.627   0.086   0.133
 2954SOL    HW1 8883   4.678   0.087   0.047
 2954SOL    HW2 8884   4.683   0.044   0.204
 2955SOL     OW 8885   3.854   1.794   1.851
 2955SOL    HW1 8886   3.813   1.720   1.904
 2955SOL    HW2 8887   3.918   1.845   1.909
 2956SOL     OW 8888   5.004   0.927   0.672
 2956SOL    HW1 8889   5.064   0.846   0.674
 2956SOL    HW2 8890   5.044   0.996   0.612
 2957SOL     OW 8891   4.554   1.273   1.422
 2957SOL    HW1 8892   4.549   1.306   1.517
 2957SOL    HW2 8893   4.468   1.292   1.376
 2958SOL     OW 8894   4.396   1.616   0.154
 2958SOL    HW1 8895   4.405   1.626   0.055
 2958SOL    HW2 8896   4.356   1.527   0.175
 2959SOL     OW 8897   3.987   0.326   0.720
 2959SOL    HW1 8898   3.908   0.377   0.686
 2959SOL    HW2 8899   3.978   0.311   0.818
 2960SOL     OW 8900   4.546   1.002   1.372
 2960SOL    HW1 8901   4.586   1.001   1.280
 2960SOL    HW2 8902   4.556   1.094   1.412
 2961SOL     OW 8903   4.640   0.910   0.291
 2961SOL    HW1 8904   4.703   0.948   0.223
 2961SOL    HW2 8905   4.680   0.827   0.330
 2962SOL     OW 8906   4.096   1.288   1.490
 2962SOL    HW1 8907   4.083   1.381   1.456
 2962SOL    HW2 8908   4.012   1.236   1.477
 2963SOL     OW 8909   4.763   1.098   0.696
 2963SOL    HW1 8910   4.693   1.051   0.750
 2963SOL    HW2 8911   4.822   1.030   0.653
 2964SOL     OW 8912   4.738   0.236   0.971
 2964SOL    HW1 8913   4.730   0.200   0.878
 2964SOL    HW2 8914   4.736   0.160   1.036
 2965SOL     OW 8915   4.314   1.487   0.491
 2965SOL    HW1 8916   4.356   1.429   0.421
 2965SOL    HW2 8917   4.270   1.566   0.447
 2966SOL     OW 8918   3.979   1.348   0.290
 2966SOL    HW1 8919   3.883   1.349   0.263
 2966SOL    HW2 8920   3.991   1.401   0.374
 2967SOL     OW 8921   3.829   1.013   1.726
 2967SOL    HW1 8922   3.752   0.980   1.780
 2967SOL    HW2 8923   3.914   0.983   1.768
 2968SOL     OW 8924   4.396   0.203   1.489
 2968SOL    HW1 8925   4.486   0.187   1.449
 2968SOL    HW2 8926   4.404   0.208   1.588
 2969SOL     OW 8927   3.799   0.345   0.033
 2969SOL    HW1 8928   3.707   0.317   0.004
 2969SOL    HW2 8929   3.830   0.422  -0.023
 2970SOL     OW 8930   3.796   0.166   0.318
 2970SOL    HW1 8931   3.779   0.249   0.264
 2970SOL    HW2 8932   3.886   0.129   0.296
 2971SOL     OW 8933   4.337   0.842   1.431
 2971SOL    HW1 8934   4.393   0.923   1.414
 2971SOL    HW2 8935   4.396   0.762   1.434
 2972SOL     OW 8936   4.440   0.565   1.708
 2972SOL    HW1 8937   4.459   0.630   1.782
 2972SOL    HW2 8938   4.500   0.485   1.717
 2973SOL     OW 8939   4.114   1.741   1.560
 2973SOL    HW1 8940   4.023   1.782   1.558
 2973SOL    HW2 8941   4.107   1.647   1.592
 2974SOL     OW 8942   4.318   0.745   0.652
 2974SOL    HW1 8943   4.368   0.830   0.633
 2974SOL    HW2 8944   4.230   0.747   0.604
 2975SOL     OW 8945   4.583   1.374   0.016
 2975SOL    HW1 8946   4.537   1.389   0.104
 2975SOL    HW2 8947   4.627   1.459  -0.014
 2976SOL     OW 8948   4.385   1.790   0.953
 2976SOL    HW1 8949   4.339   1.878   0.940
 2976SOL    HW2 8950   4.484   1.802   0.946
 2977SOL     OW 8951   4.583   0.956   0.861
 2977SOL    HW1 8952   4.637   0.887   0.909
 2977SOL    HW2 8953   4.551   1.025   0.927
 2978SOL     OW 8954   4.807   0.984   0.087
 2978SOL    HW1 8955   4.784   1.037   0.005
 2978SOL    HW2 8956   4.888   0.928   0.068
 2979SOL     OW 8957   3.945   1.314   1.844
 2979SOL    HW1 8958   3.880   1.241   1.823
 2979SOL    HW2 8959   3.949   1.328   1.942
 2980SOL     OW 8960   3.803   1.240   0.653
 2980SOL    HW1 8961   3.802   1.193   0.741
 2980SOL    HW2 8962   3.885   1.212   0.602
 2981SOL     OW 8963   4.396   1.391   1.624
 2981SOL    HW1 8964   4.318   1.341   1.662
 2981SOL    HW2 8965   4.393   1.486   1.655
 2982SOL     OW 8966   4.152   0.424   0.520
 2982SOL    HW1 8967   4.182   0.352   0.458
 2982SOL    HW2 8968   4.113   0.384   0.603
 2983SOL     OW 8969   4.041   0.547   1.280
 2983SOL    HW1 8970   4.079   0.488   1.352
 2983SOL    HW2 8971   4.081   0.521   1.192
 2984SOL     OW 8972   4.536   1.586   0.687
 2984SOL    HW1 8973   4.568   1.596   0.593
 2984SOL    HW2 8974   4.457   1.524   0.689
 2985SOL     OW 8975   4.725   0.034   1.154
 2985SOL    HW1 8976   4.662  -0.038   1.123
 2985SOL    HW2 8977   4.818  -0.002   1.154
 2986SOL     OW 8978   4.494   1.330   0.301
 2986SOL    HW1 8979   4.448   1.243   0.318
 2986SOL    HW2 8980   4.585   1.327   0.342
 2987SOL     OW 8981   4.342   1.567   1.284
 2987SOL    HW1 8982   4.337   1.649   1.341
 2987SOL    HW2 8983   4.431   1.564   1.239
 2988SOL     OW 8984   3.763   1.077   0.300
 2988SOL    HW1 8985   3.862   1.066   0.291
 2988SOL    HW2 8986   3.723   0.991   0.332
 2989SOL     OW 8987   4.599   1.646   0.337
 2989SOL    HW1 8988   4.522   1.611   0.283
 2989SOL    HW2 8989   4.567   1.717   0.399
 2990SOL     OW 8990   3.954   0.628   1.975
 2990SOL    HW1 8991   3.861   0.626   2.012
 2990SOL    HW2 8992   3.955   0.589   1.883
 2991SOL     OW 8993   3.949   0.275   2.858
 2991SOL    HW1 8994   3.984   0.258   2.950
 2991SOL    HW2 8995   3.861   0.230   2.846
 2992SOL     OW 8996   3.743   0.368   2.509
 2992SOL    HW1 8997   3.661   0.411   2.548
 2992SOL    HW2 8998   3.715   0.295   2.446
 2993SOL     OW 8999   4.293   1.275   3.027
 2993SOL    HW1 9000   4.200   1.268   2.990
 2993SOL    HW2 9001   4.304   1.364   3.071
 2994SOL     OW 9002   4.492   1.144   2.885
 2994SOL    HW1 9003   4.414   1.161   2.945
 2994SOL    HW2 9004   4.526   1.231   2.849
 2995SOL     OW 9005   4.574   0.798   3.685
 2995SOL    HW1 9006   4.570   0.874   3.750
 2995SOL    HW2 9007   4.596   0.834   3.594
 2996SOL     OW 9008   4.409   1.012   2.527
 2996SOL    HW1 9009   4.478   0.996   2.597
 2996SOL    HW2 9010   4.336   1.069   2.565
 2997SOL     OW 9011   4.410   1.161   3.665
 2997SOL    HW1 9012   4.470   1.240   3.679
 2997SOL    HW2 9013   4.324   1.192   3.624
 2998SOL     OW 9014   4.059   1.435   2.923
 2998SOL    HW1 9015   3.981   1.404   2.870
 2998SOL    HW2 9016   4.117   1.493   2.866
 2999SOL     OW 9017   4.162   0.392   3.361
 2999SOL    HW1 9018   4.244   0.336   3.370
 2999SOL    HW2 9019   4.081   0.334   3.365
 3000SOL     OW 9020   3.955   1.713   2.345
 3000SOL    HW1 9021   3.989   1.790   2.399
 3000SOL    HW2 9022   3.999   1.713   2.255
 3001SOL     OW 9023   4.851   1.341   3.552
 3001SOL    HW1 9024   4.898   1.341   3.640
 3001SOL    HW2 9025   4.803   1.254   3.541
 3002SOL     OW 9026   3.954   1.434   2.400
 3002SOL    HW1 9027   3.928   1.530   2.400
 3002SOL    HW2 9028   3.883   1.380   2.445
 3003SOL     OW 9029   3.964   1.091   2.748
 3003SOL    HW1 9030   3.978   1.007   2.800
 3003SOL    HW2 9031   3.909   1.155   2.803
 3004SOL     OW 9032   4.344   1.786   3.301
 3004SOL    HW1 9033   4.252   1.769   3.336
 3004SOL    HW2 9034   4.372   1.878   3.327
 3005SOL     OW 9035   4.330   0.964   1.985
 3005SOL    HW1 9036   4.337   1.048   1.931
 3005SOL    HW2 9037   4.376   0.977   2.073
 3006SOL     OW 9038   3.846   0.643   2.425
 3006SOL    HW1 9039   3.801   0.555   2.442
 3006SOL    HW2 9040   3.845   0.697   2.509
 3007SOL     OW 9041   3.751   1.596   1.979
 3007SOL    HW1 9042   3.732   1.500   2.000
 3007SOL    HW2 9043   3.718   1.654   2.054
 3008SOL     OW 9044   3.837   0.737   3.459
 3008SOL    HW1 9045   3.925   0.724   3.504
 3008SOL    HW2 9046   3.824   0.834   3.437
 3009SOL     OW 9047   4.337   1.365   2.588
 3009SOL    HW1 9048   4.288   1.278   2.597
 3009SOL    HW2 9049   4.314   1.408   2.501
 3010SOL     OW 9050   4.533   0.004   2.364
 3010SOL    HW1 9051   4.573   0.095   2.355
 3010SOL    HW2 9052   4.433   0.012   2.370
 3011SOL     OW 9053   3.921   0.976   3.126
 3011SOL    HW1 9054   4.010   0.931   3.112
 3011SOL    HW2 9055   3.848   0.911   3.107
 3012SOL     OW 9056   4.041   0.251   3.663
 3012SOL    HW1 9057   4.112   0.322   3.669
 3012SOL    HW2 9058   3.953   0.290   3.691
 3013SOL     OW 9059   4.322   0.729   2.132
 3013SOL    HW1 9060   4.346   0.798   2.064
 3013SOL    HW2 9061   4.244   0.762   2.186
 3014SOL     OW 9062   4.531   0.605   3.327
 3014SOL    HW1 9063   4.484   0.602   3.416
 3014SOL    HW2 9064   4.480   0.550   3.261
 3015SOL     OW 9065   4.697   0.890   3.434
 3015SOL    HW1 9066   4.743   0.806   3.405
 3015SOL    HW2 9067   4.641   0.924   3.359
 3016SOL     OW 9068   4.715   0.410   3.104
 3016SOL    HW1 9069   4.638   0.444   3.158
 3016SOL    HW2 9070   4.681   0.359   3.025
 3017SOL     OW 9071   4.765   0.701   2.291
 3017SOL    HW1 9072   4.791   0.697   2.387
 3017SOL    HW2 9073   4.680   0.650   2.277
 3018SOL     OW 9074   3.800   0.811   2.651
 3018SOL    HW1 9075   3.899   0.799   2.660
 3018SOL    HW2 9076   3.776   0.906   2.672
 3019SOL     OW 9077   3.854   1.821   3.433
 3019SOL    HW1 9078   3.844   1.806   3.532
 3019SOL    HW2 9079   3.768   1.857   3.397
 3020SOL     OW 9080   4.589   0.348   2.057
 3020SOL    HW1 9081   4.648   0.411   2.008
 3020SOL    HW2 9082   4.608   0.254   2.028
 3021SOL     OW 9083   4.274   0.196   2.747
 3021SOL    HW1 9084   4.269   0.191   2.847
 3021SOL    HW2 9085   4.276   0.292   2.718
 3022SOL     OW 9086   4.732   1.456   2.339
 3022SOL    HW1 9087   4.686   1.528   2.287
 3022SOL    HW2 9088   4.728   1.476   2.437
 3023SOL     OW 9089   4.075   1.801   2.715
 3023SOL    HW1 9090   4.125   1.715   2.721
 3023SOL    HW2 9091   4.140   1.878   2.712
 3024SOL     OW 9092   4.045   0.943   2.104
 3024SOL    HW1 9093   4.127   0.982   2.062
 3024SOL    HW2 9094   4.018   0.861   2.055
 3025SOL     OW 9095   4.185   1.266   3.589
 3025SOL    HW1 9096   4.135   1.267   3.503
 3025SOL    HW2 9097   4.122   1.248   3.665
 3026SOL     OW 9098   3.926   0.285   3.360
 3026SOL    HW1 9099   3.846   0.345   3.347
 3026SOL    HW2 9100   3.916   0.236   3.446
 3027SOL     OW 9101   4.188   1.743   2.185
 3027SOL    HW1 9102   4.221   1.782   2.271
 3027SOL    HW2 9103   4.264   1.736   2.120
 3028SOL     OW 9104   3.973   1.785   3.103
 3028SOL    HW1 9105   4.030   1.720   3.153
 3028SOL    HW2 9106   3.957   1.752   3.010
 3029SOL     OW 9107   4.664   1.698   2.766
 3029SOL    HW1 9108   4.744   1.641   2.787
 3029SOL    HW2 9109   4.615   1.658   2.689
 3030SOL     OW 9110   4.106   0.700   2.342
 3030SOL    HW1 9111   4.151   0.610   2.339
 3030SOL    HW2 9112   4.012   0.689   2.375
 3031SOL     OW 9113   4.338   0.122   1.979
 3031SOL    HW1 9114   4.436   0.100   1.986
 3031SOL    HW2 9115   4.307   0.105   1.886
 3032SOL     OW 9116   4.505   0.264   3.611
 3032SOL    HW1 9117   4.572   0.203   3.654
 3032SOL    HW2 9118   4.432   0.283   3.676
 3033SOL     OW 9119   4.612   1.514   3.057
 3033SOL    HW1 9120   4.589   1.489   2.963
 3033SOL    HW2 9121   4.673   1.445   3.096
 3034SOL     OW 9122   4.527   1.402   2.786
 3034SOL    HW1 9123   4.617   1.416   2.744
 3034SOL    HW2 9124   4.456   1.404   2.715
 3035SOL     OW 9125   4.646   0.503   2.761
 3035SOL    HW1 9126   4.621   0.494   2.665
 3035SOL    HW2 9127   4.694   0.421   2.792
 3036SOL     OW 9128   4.263   0.064   2.374
 3036SOL    HW1 9129   4.182   0.065   2.432
 3036SOL    HW2 9130   4.266   0.147   2.319
 3037SOL     OW 9131   4.021   0.035   2.033
 3037SOL    HW1 9132   4.070   0.119   2.012
 3037SOL    HW2 9133   4.083  -0.030   2.078
 3038SOL     OW 9134   4.659   0.236   2.342
 3038SOL    HW1 9135   4.611   0.277   2.264
 3038SOL    HW2 9136   4.758   0.234   2.323
 3039SOL     OW 9137   4.951   1.570   2.655
 3039SOL    HW1 9138   4.972   1.644   2.590
 3039SOL    HW2 9139   5.019   1.570   2.728
 3040SOL     OW 9140   4.183   1.152   2.603
 3040SOL    HW1 9141   4.112   1.125   2.668
 3040SOL    HW2 9142   4.157   1.124   2.510
 3041SOL     OW 9143   4.756   0.549   1.878
 3041SOL    HW1 9144   4.715   0.631   1.839
 3041SOL    HW2 9145   4.820   0.575   1.951
 3042SOL     OW 9146   3.802   0.556   3.248
 3042SOL    HW1 9147   3.894   0.555   3.207
 3042SOL    HW2 9148   3.796   0.630   3.315
 3043SOL     OW 9149   4.285   0.222   3.009
 3043SOL    HW1 9150   4.323   0.138   3.046
 3043SOL    HW2 9151   4.197   0.241   3.053
 3044SOL     OW 9152   4.590   0.454   2.504
 3044SOL    HW1 9153   4.558   0.526   2.442
 3044SOL    HW2 9154   4.614   0.373   2.451
 3045SOL     OW 9155   4.741   0.039   2.615
 3045SOL    HW1 9156   4.669   0.044   2.546
 3045SOL    HW2 9157   4.717  -0.030   2.684
 3046SOL     OW 9158   4.212   1.385   2.036
 3046SOL    HW1 9159   4.125   1.370   2.083
 3046SOL    HW2 9160   4.195   1.411   1.941
 3047SOL     OW 9161   4.251   0.256   2.190
 3047SOL    HW1 9162   4.278   0.197   2.115
 3047SOL    HW2 9163   4.251   0.351   2.159
 3048SOL     OW 9164   4.639   0.089   3.264
 3048SOL    HW1 9165   4.664   0.069   3.169
 3048SOL    HW2 9166   4.711   0.145   3.306
 3049SOL     OW 9167   4.704   1.116   3.581
 3049SOL    HW1 9168   4.605   1.122   3.591
 3049SOL    HW2 9169   4.727   1.036   3.525
 3050SOL     OW 9170   4.429   1.050   2.230
 3050SOL    HW1 9171   4.415   1.057   2.329
 3050SOL    HW2 9172   4.513   0.999   2.212
 3051SOL     OW 9173   4.134   0.813   3.113
 3051SOL    HW1 9174   4.220   0.825   3.163
 3051SOL    HW2 9175   4.092   0.726   3.140
 3052SOL     OW 9176   3.788   1.564   3.193
 3052SOL    HW1 9177   3.742   1.646   3.159
 3052SOL    HW2 9178   3.886   1.583   3.202
 3053SOL     OW 9179   4.091   1.100   2.363
 3053SOL    HW1 9180   4.084   1.183   2.307
 3053SOL    HW2 9181   4.095   1.020   2.303
 3054SOL     OW 9182   4.290   0.537   2.727
 3054SOL    HW1 9183   4.302   0.603   2.653
 3054SOL    HW2 9184   4.336   0.571   2.810
 3055SOL     OW 9185   4.078   1.510   3.191
 3055SOL    HW1 9186   4.057   1.466   3.104
 3055SOL    HW2 9187   4.175   1.536   3.194
 3056SOL     OW 9188   4.126   0.751   3.460
 3056SOL    HW1 9189   4.194   0.806   3.413
 3056SOL    HW2 9190   4.166   0.663   3.487
 3057SOL     OW 9191   4.737   0.105   3.632
 3057SOL    HW1 9192   4.743   0.190   3.580
 3057SOL    HW2 9193   4.769   0.029   3.575
 3058SOL     OW 9194   4.228   0.050   3.602
 3058SOL    HW1 9195   4.186  -0.007   3.532
 3058SOL    HW2 9196   4.162   0.119   3.634
 3059SOL     OW 9197   4.297   0.870   2.891
 3059SOL    HW1 9198   4.341   0.959   2.882
 3059SOL    HW2 9199   4.234   0.870   2.968
 3060SOL     OW 9200   4.933   0.525   2.137
 3060SOL    HW1 9201   4.946   0.441   2.191
 3060SOL    HW2 9202   4.904   0.599   2.197
 3061SOL     OW 9203   4.031   0.213   3.093
 3061SOL    HW1 9204   4.008   0.250   3.183
 3061SOL    HW2 9205   4.001   0.118   3.087
 3062SOL     OW 9206   3.761   1.310   3.144
 3062SOL    HW1 9207   3.814   1.261   3.212
 3062SOL    HW2 9208   3.783   1.408   3.149
 3063SOL     OW 9209   4.456   0.634   2.926
 3063SOL    HW1 9210   4.515   0.608   2.850
 3063SOL    HW2 9211   4.428   0.730   2.915
 3064SOL     OW 9212   4.031   0.063   2.480
 3064SOL    HW1 9213   4.020   0.157   2.513
 3064SOL    HW2 9214   4.026   0.000   2.557
 3065SOL     OW 9215   4.747   0.766   2.828
 3065SOL    HW1 9216   4.762   0.787   2.924
 3065SOL    HW2 9217   4.717   0.671   2.819
 3066SOL     OW 9218   4.704   1.573   3.562
 3066SOL    HW1 9219   4.684   1.617   3.474
 3066SOL    HW2 9220   4.743   1.482   3.546
 3067SOL     OW 9221   4.074   0.898   3.666
 3067SOL    HW1 9222   4.150   0.942   3.714
 3067SOL    HW2 9223   4.109   0.851   3.584
 3068SOL     OW 9224   4.792   1.333   2.711
 3068SOL    HW1 9225   4.799   1.249   2.656
 3068SOL    HW2 9226   4.854   1.402   2.675
 3069SOL     OW 9227   4.043   0.810   2.811
 3069SOL    HW1 9228   4.136   0.846   2.816
 3069SOL    HW2 9229   4.037   0.725   2.863
 3070SOL     OW 9230   4.063   0.509   2.868
 3070SOL    HW1 9231   4.011   0.426   2.851
 3070SOL    HW2 9232   4.140   0.514   2.804
 3071SOL     OW 9233   3.732   1.326   2.062
 3071SOL    HW1 9234   3.639   1.347   2.031
 3071SOL    HW2 9235   3.742   1.227   2.075
 3072SOL     OW 9236   3.812   1.801   2.789
 3072SOL    HW1 9237   3.770   1.715   2.762
 3072SOL    HW2 9238   3.906   1.804   2.755
 3073SOL     OW 9239   4.228   1.568   2.772
 3073SOL    HW1 9240   4.294   1.642   2.781
 3073SOL    HW2 9241   4.272   1.489   2.730
 3074SOL     OW 9242   4.726   0.796   3.100
 3074SOL    HW1 9243   4.767   0.764   3.186
 3074SOL    HW2 9244   4.630   0.769   3.097
 3075SOL     OW 9245   3.764   0.544   2.976
 3075SOL    HW1 9246   3.849   0.511   2.935
 3075SOL    HW2 9247   3.777   0.559   3.074
 3076SOL     OW 9248   3.913   0.520   3.584
 3076SOL    HW1 9249   3.972   0.480   3.514
 3076SOL    HW2 9250   3.855   0.591   3.543
 3077SOL     OW 9251   4.539   0.572   2.187
 3077SOL    HW1 9252   4.546   0.483   2.141
 3077SOL    HW2 9253   4.445   0.606   2.179
 3078SOL     OW 9254   3.976   1.564   3.606
 3078SOL    HW1 9255   3.946   1.621   3.682
 3078SOL    HW2 9256   3.969   1.467   3.632
 3079SOL     OW 9257   4.395   0.464   3.131
 3079SOL    HW1 9258   4.361   0.375   3.101
 3079SOL    HW2 9259   4.421   0.518   3.051
 3080SOL     OW 9260   4.654   1.678   3.327
 3080SOL    HW1 9261   4.630   1.660   3.232
 3080SOL    HW2 9262   4.684   1.772   3.337
 3081SOL     OW 9263   4.197   0.500   2.053
 3081SOL    HW1 9264   4.258   0.580   2.057
 3081SOL    HW2 9265   4.102   0.531   2.060
 3082SOL     OW 9266   3.883   1.137   3.328
 3082SOL    HW1 9267   3.905   1.076   3.404
 3082SOL    HW2 9268   3.893   1.088   3.242
 3083SOL     OW 9269   3.807   1.258   2.884
 3083SOL    HW1 9270   3.802   1.257   2.984
 3083SOL    HW2 9271   3.724   1.217   2.846
 3084SOL     OW 9272   4.412   1.662   3.578
 3084SOL    HW1 9273   4.356   1.743   3.587
 3084SOL    HW2 9274   4.464   1.666   3.492
 3085SOL     OW 9275   3.854   1.794   3.713
 3085SOL    HW1 9276   3.813   1.720   3.766
 3085SOL    HW2 9277   3.918   1.845   3.771
 3086SOL     OW 9278   5.004   0.927   2.534
 3086SOL    HW1 9279   5.064   0.846   2.536
 3086SOL    HW2 9280   5.044   0.996   2.474
 3087SOL     OW 9281   4.554   1.273   3.284
 3087SOL    HW1 9282   4.549   1.306   3.379
 3087SOL    HW2 9283   4.468   1.292   3.238
 3088SOL     OW 9284   4.396   1.616   2.016
 3088SOL    HW1 9285   4.405   1.626   1.917
 3088SOL    HW2 9286   4.356   1.527   2.037
 3089SOL     OW 9287   3.987   0.326   2.582
 3089SOL    HW1 9288   3.908   0.377   2.548
 3089SOL    HW2 9289   3.978   0.311   2.680
 3090SOL     OW 9290   4.546   1.002   3.234
 3090SOL    HW1 9291   4.586   1.001   3.142
 3090SOL    HW2 9292   4.556   1.094   3.274
 3091SOL     OW 9293   4.640   0.910   2.153
 3091SOL    HW1 9294   4.703   0.948   2.085
 3091SOL    HW2 9295   4.680   0.827   2.192
 3092SOL     OW 9296   4.096   1.288   3.352
 3092SOL    HW1 9297   4.083   1.381   3.318
 3092SOL    HW2 9298   4.012   1.236   3.339
 3093SOL     OW 9299   4.763   1.098   2.558
 3093SOL    HW1 9300   4.693   1.051   2.612
 3093SOL    HW2 9301   4.822   1.030   2.515
 3094SOL     OW 9302   4.738   0.236   2.833
 3094SOL    HW1 9303   4.730   0.200   2.740
 3094SOL    HW2 9304   4.736   0.160   2.898
 3095SOL     OW 9305   4.314   1.487   2.353
 3095SOL    HW1 9306   4.356   1.429   2.283
 3095SOL    HW2 9307   4.270   1.566   2.309
 3096SOL     OW 9308   3.979   1.348   2.152
 3096SOL    HW1 9309   3.883   1.349   2.125
 3096SOL    HW2 9310   3.991   1.401   2.236
 3097SOL     OW 9311   3.829   1.013   3.588
 3097SOL    HW1 9312   3.752   0.980   3.642
 3097SOL    HW2 9313   3.914   0.983   3.630
 3098SOL     OW 9314   4.396   0.203   3.351
 3098SOL    HW1 9315   4.486   0.187   3.311
 3098SOL    HW2 9316   4.404   0.208   3.450
 3099SOL     OW 9317   3.799   0.345   1.895
 3099SOL    HW1 9318   3.707   0.317   1.866
 3099SOL    HW2 9319   3.830   0.422   1.839
 3100SOL     OW 9320   3.796   0.166   2.180
 3100SOL    HW1 9321   3.779   0.249   2.126
 3100SOL    HW2 9322   3.886   0.129   2.158
 3101SOL     OW 9323   4.337   0.842   3.293
 3101SOL    HW1 9324   4.393   0.923   3.276
 3101SOL    HW2 9325   4.396   0.762   3.296
 3102SOL     OW 9326   4.440   0.565   3.570
 3102SOL    HW1 9327   4.459   0.630   3.644
 3102SOL    HW2 9328   4.500   0.485   3.579
 3103SOL     OW 9329   4.114   1.741   3.422
 3103SOL    HW1 9330   4.023   1.782   3.420
 3103SOL    HW2 9331   4.107   1.647   3.454
 3104SOL     OW 9332   4.318   0.745   2.514
 3104SOL    HW1 9333   4.368   0.830   2.495
 3104SOL    HW2 9334   4.230   0.747   2.466
 3105SOL     OW 9335   4.583   1.374   1.878
 3105SOL    HW1 9336   4.537   1.389   1.966
 3105SOL    HW2 9337   4.627   1.459   1.848
 3106SOL     OW 9338   4.385   1.790   2.815
 3106SOL    HW1 9339   4.339   1.878   2.802
 3106SOL    HW2 9340   4.484   1.802   2.808
 3107SOL     OW 9341   4.583   0.956   2.723
 3107SOL    HW1 9342   4.637   0.887   2.771
 3107SOL    HW2 9343   4.551   1.025   2.789
 3108SOL     OW 9344   4.807   0.984   1.949
 3108SOL    HW1 9345   4.784   1.037   1.867
 3108SOL    HW2 9346   4.888   0.928   1.930
 3109SOL     OW 9347   3.945   1.314   3.706
 3109SOL    HW1 9348   3.880   1.241   3.685
 3109SOL    HW2 9349   3.949   1.328   3.804
 3110SOL     OW 9350   3.803   1.240   2.515
 3110SOL    HW1 9351   3.802   1.193   2.603
 3110SOL    HW2 9352   3.885   1.212   2.464
 3111SOL     OW 9353   4.396   1.391   3.486
 3111SOL    HW1 9354   4.318   1.341   3.524
 3111SOL    HW2 9355   4.393   1.486   3.517
 3112SOL     OW 9356   4.152   0.424   2.382
 3112SOL    HW1 9357   4.182   0.352   2.320
 3112SOL    HW2 9358   4.113   0.384   2.465
 3113SOL     OW 9359   4.041   0.547   3.142
 3113SOL    HW1 9360   4.079   0.488   3.214
 3113SOL    HW2 9361   4.081   0.521   3.054
 3114SOL     OW 9362   4.536   1.586   2.549
 3114SOL    HW1 9363   4.568   1.596   2.455
 3114SOL    HW2 9364   4.457   1.524   2.551
 3115SOL     OW 9365   4.725   0.034   3.016
 3115SOL    HW1 9366   4.662  -0.038   2.985
 3115SOL    HW2 9367   4.818  -0.002   3.016
 3116SOL     OW 9368   4.494   1.330   2.163
 3116SOL    HW1 9369   4.448   1.243   2.180
 3116SOL    HW2 9370   4.585   1.327   2.204
 3117SOL     OW 9371   4.342   1.567   3.146
 3117SOL    HW1 9372   4.337   1.649   3.203
 3117SOL    HW2 9373   4.431   1.564   3.101
 3118SOL     OW 9374   3.763   1.077   2.162
 3118SOL    HW1 9375   3.862   1.066   2.153
 3118SOL    HW2 9376   3.723   0.991   2.194
 3119SOL     OW 9377   4.599   1.646   2.199
 3119SOL    HW1 9378   4.522   1.611   2.145
 3119SOL    HW2 9379   4.567   1.717   2.261
 3120SOL     OW 9380   3.954   0.628   3.837
 3120SOL    HW1 9381   3.861   0.626   3.874
 3120SOL    HW2 9382   3.955   0.589   3.745
 3121SOL     OW 9383   3.949   0.275   4.720
 3121SOL    HW1 9384   3.984   0.258   4.812
 3121SOL    HW2 9385   3.861   0.230   4.708
 3122SOL     OW 9386   3.743   0.368   4.371
 3122SOL    HW1 9387   3.661   0.411   4.410
 3122SOL    HW2 9388   3.715   0.295   4.308
 3123SOL     OW 9389   4.492   1.144   4.747
 3123SOL    HW1 9390   4.414   1.161   4.807
 3123SOL    HW2 9391   4.526   1.231   4.711
 3124SOL     OW 9392   4.409   1.012   4.389
 3124SOL    HW1 9393   4.478   0.996   4.459
 3124SOL    HW2 9394   4.336   1.069   4.427
 3125SOL     OW 9395   4.059   1.435   4.785
 3125SOL    HW1 9396   3.981   1.404   4.732
 3125SOL    HW2 9397   4.117   1.493   4.728
 3126SOL     OW 9398   3.955   1.713   4.207
 3126SOL    HW1 9399   3.989   1.790   4.261
 3126SOL    HW2 9400   3.999   1.713   4.117
 3127SOL     OW 9401   3.954   1.434   4.262
 3127SOL    HW1 9402   3.928   1.530   4.262
 3127SOL    HW2 9403   3.883   1.380   4.307
 3128SOL     OW 9404   3.964   1.091   4.610
 3128SOL    HW1 9405   3.978   1.007   4.662
 3128SOL    HW2 9406   3.909   1.155   4.665
 3129SOL     OW 9407   4.330   0.964   3.847
 3129SOL    HW1 9408   4.337   1.048   3.793
 3129SOL    HW2 9409   4.376   0.977   3.935
 3130SOL     OW 9410   3.846   0.643   4.287
 3130SOL    HW1 9411   3.801   0.555   4.304
 3130SOL    HW2 9412   3.845   0.697   4.371
 3131SOL     OW 9413   3.751   1.596   3.841
 3131SOL    HW1 9414   3.732   1.500   3.862
 3131SOL    HW2 9415   3.718   1.654   3.916
 3132SOL     OW 9416   4.337   1.365   4.450
 3132SOL    HW1 9417   4.288   1.278   4.459
 3132SOL    HW2 9418   4.314   1.408   4.363
 3133SOL     OW 9419   4.533   0.004   4.226
 3133SOL    HW1 9420   4.573   0.095   4.217
 3133SOL    HW2 9421   4.433   0.012   4.232
 3134SOL     OW 9422   4.322   0.729   3.994
 3134SOL    HW1 9423   4.346   0.798   3.926
 3134SOL    HW2 9424   4.244   0.762   4.048
 3135SOL     OW 9425   4.765   0.701   4.153
 3135SOL    HW1 9426   4.791   0.697   4.249
 3135SOL    HW2 9427   4.680   0.650   4.139
 3136SOL     OW 9428   3.800   0.811   4.513
 3136SOL    HW1 9429   3.899   0.799   4.522
 3136SOL    HW2 9430   3.776   0.906   4.534
 3137SOL     OW 9431   4.589   0.348   3.919
 3137SOL    HW1 9432   4.648   0.411   3.870
 3137SOL    HW2 9433   4.608   0.254   3.890
 3138SOL     OW 9434   4.274   0.196   4.609
 3138SOL    HW1 9435   4.269   0.191   4.709
 3138SOL    HW2 9436   4.276   0.292   4.580
 3139SOL     OW 9437   4.732   1.456   4.201
 3139SOL    HW1 9438   4.686   1.528   4.149
 3139SOL    HW2 9439   4.728   1.476   4.299
 3140SOL     OW 9440   4.075   1.801   4.577
 3140SOL    HW1 9441   4.125   1.715   4.583
 3140SOL    HW2 9442   4.140   1.878   4.574
 3141SOL     OW 9443   4.045   0.943   3.966
 3141SOL    HW1 9444   4.127   0.982   3.924
 3141SOL    HW2 9445   4.018   0.861   3.917
 3142SOL     OW 9446   4.188   1.743   4.047
 3142SOL    HW1 9447   4.221   1.782   4.133
 3142SOL    HW2 9448   4.264   1.736   3.982
 3143SOL     OW 9449   3.973   1.785   4.965
 3143SOL    HW1 9450   4.030   1.720   5.015
 3143SOL    HW2 9451   3.957   1.752   4.872
 3144SOL     OW 9452   4.664   1.698   4.628
 3144SOL    HW1 9453   4.744   1.641   4.649
 3144SOL    HW2 9454   4.615   1.658   4.551
 3145SOL     OW 9455   4.106   0.700   4.204
 3145SOL    HW1 9456   4.151   0.610   4.201
 3145SOL    HW2 9457   4.012   0.689   4.237
 3146SOL     OW 9458   4.338   0.122   3.841
 3146SOL    HW1 9459   4.436   0.100   3.848
 3146SOL    HW2 9460   4.307   0.105   3.748
 3147SOL     OW 9461   4.527   1.402   4.648
 3147SOL    HW1 9462   4.617   1.416   4.606
 3147SOL    HW2 9463   4.456   1.404   4.577
 3148SOL     OW 9464   4.646   0.503   4.623
 3148SOL    HW1 9465   4.621   0.494   4.527
 3148SOL    HW2 9466   4.694   0.421   4.654
 3149SOL     OW 9467   4.263   0.064   4.236
 3149SOL    HW1 9468   4.182   0.065   4.294
 3149SOL    HW2 9469   4.266   0.147   4.181
 3150SOL     OW 9470   4.021   0.035   3.895
 3150SOL    HW1 9471   4.070   0.119   3.874
 3150SOL    HW2 9472   4.083  -0.030   3.940
 3151SOL     OW 9473   4.659   0.236   4.204
 3151SOL    HW1 9474   4.611   0.277   4.126
 3151SOL    HW2 9475   4.758   0.234   4.185
 3152SOL     OW 9476   4.951   1.570   4.517
 3152SOL    HW1 9477   4.972   1.644   4.452
 3152SOL    HW2 9478   5.019   1.570   4.590
 3153SOL     OW 9479   4.183   1.152   4.465
 3153SOL    HW1 9480   4.112   1.125   4.530
 3153SOL    HW2 9481   4.157   1.124   4.372
 3154SOL     OW 9482   4.756   0.549   3.740
 3154SOL    HW1 9483   4.715   0.631   3.701
 3154SOL    HW2 9484   4.820   0.575   3.813
 3155SOL     OW 9485   4.590   0.454   4.366
 3155SOL    HW1 9486   4.558   0.526   4.304
 3155SOL    HW2 9487   4.614   0.373   4.313
 3156SOL     OW 9488   4.741   0.039   4.477
 3156SOL    HW1 9489   4.669   0.044   4.408
 3156SOL    HW2 9490   4.717  -0.030   4.546
 3157SOL     OW 9491   4.212   1.385   3.898
 3157SOL    HW1 9492   4.125   1.370   3.945
 3157SOL    HW2 9493   4.195   1.411   3.803
 3158SOL     OW 9494   4.251   0.256   4.052
 3158SOL    HW1 9495   4.278   0.197   3.977
 3158SOL    HW2 9496   4.251   0.351   4.021
 3159SOL     OW 9497   4.429   1.050   4.092
 3159SOL    HW1 9498   4.415   1.057   4.191
 3159SOL    HW2 9499   4.513   0.999   4.074
 3160SOL     OW 9500   4.091   1.100   4.225
 3160SOL    HW1 9501   4.084   1.183   4.169
 3160SOL    HW2 9502   4.095   1.020   4.165
 3161SOL     OW 9503   4.290   0.537   4.589
 3161SOL    HW1 9504   4.302   0.603   4.515
 3161SOL    HW2 9505   4.336   0.571   4.672
 3162SOL     OW 9506   4.297   0.870   4.753
 3162SOL    HW1 9507   4.341   0.959   4.744
 3162SOL    HW2 9508   4.234   0.870   4.830
 3163SOL     OW 9509   4.933   0.525   3.999
 3163SOL    HW1 9510   4.946   0.441   4.053
 3163SOL    HW2 9511   4.904   0.599   4.059
 3164SOL     OW 9512   4.456   0.634   4.788
 3164SOL    HW1 9513   4.515   0.608   4.712
 3164SOL    HW2 9514   4.428   0.730   4.777
 3165SOL     OW 9515   4.031   0.063   4.342
 3165SOL    HW1 9516   4.020   0.157   4.375
 3165SOL    HW2 9517   4.026   0.000   4.419
 3166SOL     OW 9518   4.747   0.766   4.690
 3166SOL    HW1 9519   4.762   0.787   4.786
 3166SOL    HW2 9520   4.717   0.671   4.681
 3167SOL     OW 9521   4.792   1.333   4.573
 3167SOL    HW1 9522   4.799   1.249   4.518
 3167SOL    HW2 9523   4.854   1.402   4.537
 3168SOL     OW 9524   4.043   0.810   4.673
 3168SOL    HW1 9525   4.136   0.846   4.678
 3168SOL    HW2 9526   4.037   0.725   4.725
 3169SOL     OW 9527   4.063   0.509   4.730
 3169SOL    HW1 9528   4.011   0.426   4.713
 3169SOL    HW2 9529   4.140   0.514   4.666
 3170SOL     OW 9530   3.732   1.326   3.924
 3170SOL    HW1 9531   3.639   1.347   3.893
 3170SOL    HW2 9532   3.742   1.227   3.937
 3171SOL     OW 9533   3.812   1.801   4.651
 3171SOL    HW1 9534   3.770   1.715   4.624
 3171SOL    HW2 9535   3.906   1.804   4.617
 3172SOL     OW 9536   4.228   1.568   4.634
 3172SOL    HW1 9537   4.294   1.642   4.643
 3172SOL    HW2 9538   4.272   1.489   4.592
 3173SOL     OW 9539   4.726   0.796   4.962
 3173SOL    HW1 9540   4.767   0.764   5.048
 3173SOL    HW2 9541   4.630   0.769   4.959
 3174SOL     OW 9542   4.539   0.572   4.049
 3174SOL    HW1 9543   4.546   0.483   4.003
 3174SOL    HW2 9544   4.445   0.606   4.041
 3175SOL     OW 9545   4.395   0.464   4.993
 3175SOL    HW1 9546   4.361   0.375   4.963
 3175SOL    HW2 9547   4.421   0.518   4.913
 3176SOL     OW 9548   4.197   0.500   3.915
 3176SOL    HW1 9549   4.258   0.580   3.919
 3176SOL    HW2 9550   4.102   0.531   3.922
 3177SOL     OW 9551   3.807   1.258   4.746
 3177SOL    HW1 9552   3.802   1.257   4.846
 3177SOL    HW2 9553   3.724   1.217   4.708
 3178SOL     OW 9554   5.004   0.927   4.396
 3178SOL    HW1 9555   5.064   0.846   4.398
 3178SOL    HW2 9556   5.044   0.996   4.336
 3179SOL     OW 9557   4.396   1.616   3.878
 3179SOL    HW1 9558   4.405   1.626   3.779
 3179SOL    HW2 9559   4.356   1.527   3.899
 3180SOL     OW 9560   3.987   0.326   4.444
 3180SOL    HW1 9561   3.908   0.377   4.410
 3180SOL    HW2 9562   3.978   0.311   4.542
 3181SOL     OW 9563   4.640   0.910   4.015
 3181SOL    HW1 9564   4.703   0.948   3.947
 3181SOL    HW2 9565   4.680   0.827   4.054
 3182SOL     OW 9566   4.763   1.098   4.420
 3182SOL    HW1 9567   4.693   1.051   4.474
 3182SOL    HW2 9568   4.822   1.030   4.377
 3183SOL     OW 9569   4.738   0.236   4.695
 3183SOL    HW1 9570   4.730   0.200   4.602
 3183SOL    HW2 9571   4.736   0.160   4.760
 3184SOL     OW 9572   4.314   1.487   4.215
 3184SOL    HW1 9573   4.356   1.429   4.145
 3184SOL    HW2 9574   4.270   1.566   4.171
 3185SOL     OW 9575   3.979   1.348   4.014
 3185SOL    HW1 9576   3.883   1.349   3.987
 3185SOL    HW2 9577   3.991   1.401   4.098
 3186SOL     OW 9578   3.799   0.345   3.757
 3186SOL    HW1 9579   3.707   0.317   3.728
 3186SOL    HW2 9580   3.830   0.422   3.701
 3187SOL     OW 9581   3.796   0.166   4.042
 3187SOL    HW1 9582   3.779   0.249   3.988
 3187SOL    HW2 9583   3.886   0.129   4.020
 3188SOL     OW 9584   4.318   0.745   4.376
 3188SOL    HW1 9585   4.368   0.830   4.357
 3188SOL    HW2 9586   4.230   0.747   4.328
 3189SOL     OW 9587   4.583   1.374   3.740
 3189SOL    HW1 9588   4.537   1.389   3.828
 3189SOL    HW2 9589   4.627   1.459   3.710
 3190SOL     OW 9590   4.385   1.790   4.677
 3190SOL    HW1 9591   4.339   1.878   4.664
 3190SOL    HW2 9592   4.484   1.802   4.670
 3191SOL     OW 9593   4.583   0.956   4.585
 3191SOL    HW1 9594   4.637   0.887   4.633
 3191SOL    HW2 9595   4.551   1.025   4.651
 3192SOL     OW 9596   4.807   0.984   3.811
 3192SOL    HW1 9597   4.784   1.037   3.729
 3192SOL    HW2 9598   4.888   0.928   3.792
 3193SOL     OW 9599   3.803   1.240   4.377
 3193SOL    HW1 9600   3.802   1.193   4.465
 3193SOL    HW2 9601   3.885   1.212   4.326
 3194SOL     OW 9602   4.152   0.424   4.244
 3194SOL    HW1 9603   4.182   0.352   4.182
 3194SOL    HW2 9604   4.113   0.384   4.327
 3195SOL     OW 9605   4.536   1.586   4.411
 3195SOL    HW1 9606   4.568   1.596   4.317
 3195SOL    HW2 9607   4.457   1.524   4.413
 3196SOL     OW 9608   4.494   1.330   4.025
 3196SOL    HW1 9609   4.448   1.243   4.042
 3196SOL    HW2 9610   4.585   1.327   4.066
 3197SOL     OW 9611   3.763   1.077   4.024
 3197SOL    HW1 9612   3.862   1.066   4.015
 3197SOL    HW2 9613   3.723   0.991   4.056
 3198SOL     OW 9614   4.599   1.646   4.061
 3198SOL    HW1 9615   4.522   1.611   4.007
 3198SOL    HW2 9616   4.567   1.717   4.123
 3199SOL     OW 9617   3.954   2.490   0.113
 3199SOL    HW1 9618   3.861   2.488   0.150
 3199SOL    HW2 9619   3.955   2.451   0.021
 3200SOL     OW 9620   3.949   2.137   0.996
 3200SOL    HW1 9621   3.984   2.120   1.088
 3200SOL    HW2 9622   3.861   2.092   0.984
 3201SOL     OW 9623   3.743   2.230   0.647
 3201SOL    HW1 9624   3.661   2.273   0.686
 3201SOL    HW2 9625   3.715   2.157   0.584
 3202SOL     OW 9626   4.293   3.137   1.165
 3202SOL    HW1 9627   4.200   3.130   1.128
 3202SOL    HW2 9628   4.304   3.226   1.209
 3203SOL     OW 9629   4.492   3.006   1.023
 3203SOL    HW1 9630   4.414   3.023   1.083
 3203SOL    HW2 9631   4.526   3.093   0.987
 3204SOL     OW 9632   4.574   2.660   1.823
 3204SOL    HW1 9633   4.570   2.736   1.888
 3204SOL    HW2 9634   4.596   2.696   1.732
 3205SOL     OW 9635   4.409   2.874   0.665
 3205SOL    HW1 9636   4.478   2.858   0.735
 3205SOL    HW2 9637   4.336   2.931   0.703
 3206SOL     OW 9638   4.410   3.023   1.803
 3206SOL    HW1 9639   4.470   3.102   1.817
 3206SOL    HW2 9640   4.324   3.054   1.762
 3207SOL     OW 9641   4.059   3.297   1.061
 3207SOL    HW1 9642   3.981   3.266   1.008
 3207SOL    HW2 9643   4.117   3.355   1.004
 3208SOL     OW 9644   4.162   2.254   1.499
 3208SOL    HW1 9645   4.244   2.198   1.508
 3208SOL    HW2 9646   4.081   2.196   1.503
 3209SOL     OW 9647   3.955   3.575   0.483
 3209SOL    HW1 9648   3.989   3.652   0.537
 3209SOL    HW2 9649   3.999   3.575   0.393
 3210SOL     OW 9650   4.851   3.203   1.690
 3210SOL    HW1 9651   4.898   3.203   1.778
 3210SOL    HW2 9652   4.803   3.116   1.679
 3211SOL     OW 9653   3.954   3.296   0.538
 3211SOL    HW1 9654   3.928   3.392   0.538
 3211SOL    HW2 9655   3.883   3.242   0.583
 3212SOL     OW 9656   3.964   2.953   0.886
 3212SOL    HW1 9657   3.978   2.869   0.938
 3212SOL    HW2 9658   3.909   3.017   0.941
 3213SOL     OW 9659   4.344   3.648   1.439
 3213SOL    HW1 9660   4.252   3.631   1.474
 3213SOL    HW2 9661   4.372   3.740   1.465
 3214SOL     OW 9662   4.330   2.826   0.123
 3214SOL    HW1 9663   4.337   2.910   0.069
 3214SOL    HW2 9664   4.376   2.839   0.211
 3215SOL     OW 9665   3.846   2.505   0.563
 3215SOL    HW1 9666   3.801   2.417   0.580
 3215SOL    HW2 9667   3.845   2.559   0.647
 3216SOL     OW 9668   3.751   3.458   0.117
 3216SOL    HW1 9669   3.732   3.362   0.138
 3216SOL    HW2 9670   3.718   3.516   0.192
 3217SOL     OW 9671   3.837   2.599   1.597
 3217SOL    HW1 9672   3.925   2.586   1.642
 3217SOL    HW2 9673   3.824   2.696   1.575
 3218SOL     OW 9674   4.337   3.227   0.726
 3218SOL    HW1 9675   4.288   3.140   0.735
 3218SOL    HW2 9676   4.314   3.270   0.639
 3219SOL     OW 9677   4.533   1.866   0.502
 3219SOL    HW1 9678   4.573   1.957   0.493
 3219SOL    HW2 9679   4.433   1.874   0.508
 3220SOL     OW 9680   3.921   2.838   1.264
 3220SOL    HW1 9681   4.010   2.793   1.250
 3220SOL    HW2 9682   3.848   2.773   1.245
 3221SOL     OW 9683   4.041   2.113   1.801
 3221SOL    HW1 9684   4.112   2.184   1.807
 3221SOL    HW2 9685   3.953   2.152   1.829
 3222SOL     OW 9686   4.322   2.591   0.270
 3222SOL    HW1 9687   4.346   2.660   0.202
 3222SOL    HW2 9688   4.244   2.624   0.324
 3223SOL     OW 9689   4.531   2.467   1.465
 3223SOL    HW1 9690   4.484   2.464   1.554
 3223SOL    HW2 9691   4.480   2.412   1.399
 3224SOL     OW 9692   4.697   2.752   1.572
 3224SOL    HW1 9693   4.743   2.668   1.543
 3224SOL    HW2 9694   4.641   2.786   1.497
 3225SOL     OW 9695   4.715   2.272   1.242
 3225SOL    HW1 9696   4.638   2.306   1.296
 3225SOL    HW2 9697   4.681   2.221   1.163
 3226SOL     OW 9698   4.765   2.563   0.429
 3226SOL    HW1 9699   4.791   2.559   0.525
 3226SOL    HW2 9700   4.680   2.512   0.415
 3227SOL     OW 9701   3.800   2.673   0.789
 3227SOL    HW1 9702   3.899   2.661   0.798
 3227SOL    HW2 9703   3.776   2.768   0.810
 3228SOL     OW 9704   3.854   3.683   1.571
 3228SOL    HW1 9705   3.844   3.668   1.670
 3228SOL    HW2 9706   3.768   3.719   1.535
 3229SOL     OW 9707   4.589   2.210   0.195
 3229SOL    HW1 9708   4.648   2.273   0.146
 3229SOL    HW2 9709   4.608   2.116   0.166
 3230SOL     OW 9710   4.274   2.058   0.885
 3230SOL    HW1 9711   4.269   2.053   0.985
 3230SOL    HW2 9712   4.276   2.154   0.856
 3231SOL     OW 9713   4.732   3.318   0.477
 3231SOL    HW1 9714   4.686   3.390   0.425
 3231SOL    HW2 9715   4.728   3.338   0.575
 3232SOL     OW 9716   4.075   3.663   0.853
 3232SOL    HW1 9717   4.125   3.577   0.859
 3232SOL    HW2 9718   4.140   3.740   0.850
 3233SOL     OW 9719   4.045   2.805   0.242
 3233SOL    HW1 9720   4.127   2.844   0.200
 3233SOL    HW2 9721   4.018   2.723   0.193
 3234SOL     OW 9722   4.185   3.128   1.727
 3234SOL    HW1 9723   4.135   3.129   1.641
 3234SOL    HW2 9724   4.122   3.110   1.803
 3235SOL     OW 9725   3.926   2.147   1.498
 3235SOL    HW1 9726   3.846   2.207   1.485
 3235SOL    HW2 9727   3.916   2.098   1.584
 3236SOL     OW 9728   4.188   3.605   0.323
 3236SOL    HW1 9729   4.221   3.644   0.409
 3236SOL    HW2 9730   4.264   3.598   0.258
 3237SOL     OW 9731   3.973   3.647   1.241
 3237SOL    HW1 9732   4.030   3.582   1.291
 3237SOL    HW2 9733   3.957   3.614   1.148
 3238SOL     OW 9734   4.664   3.560   0.904
 3238SOL    HW1 9735   4.744   3.503   0.925
 3238SOL    HW2 9736   4.615   3.520   0.827
 3239SOL     OW 9737   4.106   2.562   0.480
 3239SOL    HW1 9738   4.151   2.472   0.477
 3239SOL    HW2 9739   4.012   2.551   0.513
 3240SOL     OW 9740   4.338   1.984   0.117
 3240SOL    HW1 9741   4.436   1.962   0.124
 3240SOL    HW2 9742   4.307   1.967   0.024
 3241SOL     OW 9743   4.505   2.126   1.749
 3241SOL    HW1 9744   4.572   2.065   1.792
 3241SOL    HW2 9745   4.432   2.145   1.814
 3242SOL     OW 9746   4.612   3.376   1.195
 3242SOL    HW1 9747   4.589   3.351   1.101
 3242SOL    HW2 9748   4.673   3.307   1.234
 3243SOL     OW 9749   4.527   3.264   0.924
 3243SOL    HW1 9750   4.617   3.278   0.882
 3243SOL    HW2 9751   4.456   3.266   0.853
 3244SOL     OW 9752   4.646   2.365   0.899
 3244SOL    HW1 9753   4.621   2.356   0.803
 3244SOL    HW2 9754   4.694   2.283   0.930
 3245SOL     OW 9755   4.263   1.926   0.512
 3245SOL    HW1 9756   4.182   1.927   0.570
 3245SOL    HW2 9757   4.266   2.009   0.457
 3246SOL     OW 9758   5.158   3.050   0.041
 3246SOL    HW1 9759   5.190   2.974   0.098
 3246SOL    HW2 9760   5.066   3.077   0.071
 3247SOL     OW 9761   4.659   2.098   0.480
 3247SOL    HW1 9762   4.611   2.139   0.402
 3247SOL    HW2 9763   4.758   2.096   0.461
 3248SOL     OW 9764   4.951   3.432   0.793
 3248SOL    HW1 9765   4.972   3.506   0.728
 3248SOL    HW2 9766   5.019   3.432   0.866
 3249SOL     OW 9767   4.183   3.014   0.741
 3249SOL    HW1 9768   4.112   2.987   0.806
 3249SOL    HW2 9769   4.157   2.986   0.648
 3250SOL     OW 9770   4.756   2.411   0.016
 3250SOL    HW1 9771   4.715   2.493  -0.023
 3250SOL    HW2 9772   4.820   2.437   0.089
 3251SOL     OW 9773   3.802   2.418   1.386
 3251SOL    HW1 9774   3.894   2.417   1.345
 3251SOL    HW2 9775   3.796   2.492   1.453
 3252SOL     OW 9776   4.285   2.084   1.147
 3252SOL    HW1 9777   4.323   2.000   1.184
 3252SOL    HW2 9778   4.197   2.103   1.191
 3253SOL     OW 9779   4.590   2.316   0.642
 3253SOL    HW1 9780   4.558   2.388   0.580
 3253SOL    HW2 9781   4.614   2.235   0.589
 3254SOL     OW 9782   4.741   1.901   0.753
 3254SOL    HW1 9783   4.669   1.906   0.684
 3254SOL    HW2 9784   4.717   1.832   0.822
 3255SOL     OW 9785   4.212   3.247   0.174
 3255SOL    HW1 9786   4.125   3.232   0.221
 3255SOL    HW2 9787   4.195   3.273   0.079
 3256SOL     OW 9788   4.251   2.118   0.328
 3256SOL    HW1 9789   4.278   2.059   0.253
 3256SOL    HW2 9790   4.251   2.213   0.297
 3257SOL     OW 9791   4.639   1.951   1.402
 3257SOL    HW1 9792   4.664   1.931   1.307
 3257SOL    HW2 9793   4.711   2.007   1.444
 3258SOL     OW 9794   4.704   2.978   1.719
 3258SOL    HW1 9795   4.605   2.984   1.729
 3258SOL    HW2 9796   4.727   2.898   1.663
 3259SOL     OW 9797   4.429   2.912   0.368
 3259SOL    HW1 9798   4.415   2.919   0.467
 3259SOL    HW2 9799   4.513   2.861   0.350
 3260SOL     OW 9800   4.134   2.675   1.251
 3260SOL    HW1 9801   4.220   2.687   1.301
 3260SOL    HW2 9802   4.092   2.588   1.278
 3261SOL     OW 9803   3.788   3.426   1.331
 3261SOL    HW1 9804   3.742   3.508   1.297
 3261SOL    HW2 9805   3.886   3.445   1.340
 3262SOL     OW 9806   4.091   2.962   0.501
 3262SOL    HW1 9807   4.084   3.045   0.445
 3262SOL    HW2 9808   4.095   2.882   0.441
 3263SOL     OW 9809   4.290   2.399   0.865
 3263SOL    HW1 9810   4.302   2.465   0.791
 3263SOL    HW2 9811   4.336   2.433   0.948
 3264SOL     OW 9812   4.078   3.372   1.329
 3264SOL    HW1 9813   4.057   3.328   1.242
 3264SOL    HW2 9814   4.175   3.398   1.332
 3265SOL     OW 9815   4.126   2.613   1.598
 3265SOL    HW1 9816   4.194   2.668   1.551
 3265SOL    HW2 9817   4.166   2.525   1.625
 3266SOL     OW 9818   4.737   1.967   1.770
 3266SOL    HW1 9819   4.743   2.052   1.718
 3266SOL    HW2 9820   4.769   1.891   1.713
 3267SOL     OW 9821   4.228   1.912   1.740
 3267SOL    HW1 9822   4.186   1.855   1.670
 3267SOL    HW2 9823   4.162   1.981   1.772
 3268SOL     OW 9824   4.297   2.732   1.029
 3268SOL    HW1 9825   4.341   2.821   1.020
 3268SOL    HW2 9826   4.234   2.732   1.106
 3269SOL     OW 9827   4.933   2.387   0.275
 3269SOL    HW1 9828   4.946   2.303   0.329
 3269SOL    HW2 9829   4.904   2.461   0.335
 3270SOL     OW 9830   4.031   2.075   1.231
 3270SOL    HW1 9831   4.008   2.112   1.321
 3270SOL    HW2 9832   4.001   1.980   1.225
 3271SOL     OW 9833   3.761   3.172   1.282
 3271SOL    HW1 9834   3.814   3.123   1.350
 3271SOL    HW2 9835   3.783   3.270   1.287
 3272SOL     OW 9836   4.456   2.496   1.064
 3272SOL    HW1 9837   4.515   2.470   0.988
 3272SOL    HW2 9838   4.428   2.592   1.053
 3273SOL     OW 9839   4.031   1.925   0.618
 3273SOL    HW1 9840   4.020   2.019   0.651
 3273SOL    HW2 9841   4.026   1.862   0.695
 3274SOL     OW 9842   4.747   2.628   0.966
 3274SOL    HW1 9843   4.762   2.649   1.062
 3274SOL    HW2 9844   4.717   2.533   0.957
 3275SOL     OW 9845   4.704   3.435   1.700
 3275SOL    HW1 9846   4.684   3.479   1.612
 3275SOL    HW2 9847   4.743   3.344   1.684
 3276SOL     OW 9848   4.074   2.760   1.804
 3276SOL    HW1 9849   4.150   2.804   1.852
 3276SOL    HW2 9850   4.109   2.713   1.722
 3277SOL     OW 9851   4.792   3.195   0.849
 3277SOL    HW1 9852   4.799   3.111   0.794
 3277SOL    HW2 9853   4.854   3.264   0.813
 3278SOL     OW 9854   4.043   2.672   0.949
 3278SOL    HW1 9855   4.136   2.708   0.954
 3278SOL    HW2 9856   4.037   2.587   1.001
 3279SOL     OW 9857   4.063   2.371   1.006
 3279SOL    HW1 9858   4.011   2.288   0.989
 3279SOL    HW2 9859   4.140   2.376   0.942
 3280SOL     OW 9860   3.732   3.188   0.200
 3280SOL    HW1 9861   3.639   3.209   0.169
 3280SOL    HW2 9862   3.742   3.089   0.213
 3281SOL     OW 9863   3.812   3.663   0.927
 3281SOL    HW1 9864   3.770   3.577   0.900
 3281SOL    HW2 9865   3.906   3.666   0.893
 3282SOL     OW 9866   4.228   3.430   0.910
 3282SOL    HW1 9867   4.294   3.504   0.919
 3282SOL    HW2 9868   4.272   3.351   0.868
 3283SOL     OW 9869   4.726   2.658   1.238
 3283SOL    HW1 9870   4.767   2.626   1.324
 3283SOL    HW2 9871   4.630   2.631   1.235
 3284SOL     OW 9872   3.764   2.406   1.114
 3284SOL    HW1 9873   3.849   2.373   1.073
 3284SOL    HW2 9874   3.777   2.421   1.212
 3285SOL     OW 9875   3.913   2.382   1.722
 3285SOL    HW1 9876   3.972   2.342   1.652
 3285SOL    HW2 9877   3.855   2.453   1.681
 3286SOL     OW 9878   4.539   2.434   0.325
 3286SOL    HW1 9879   4.546   2.345   0.279
 3286SOL    HW2 9880   4.445   2.468   0.317
 3287SOL     OW 9881   3.976   3.426   1.744
 3287SOL    HW1 9882   3.946   3.483   1.820
 3287SOL    HW2 9883   3.969   3.329   1.770
 3288SOL     OW 9884   4.395   2.326   1.269
 3288SOL    HW1 9885   4.361   2.237   1.239
 3288SOL    HW2 9886   4.421   2.380   1.189
 3289SOL     OW 9887   4.654   3.540   1.465
 3289SOL    HW1 9888   4.630   3.522   1.370
 3289SOL    HW2 9889   4.684   3.634   1.475
 3290SOL     OW 9890   4.197   2.362   0.191
 3290SOL    HW1 9891   4.258   2.442   0.195
 3290SOL    HW2 9892   4.102   2.393   0.198
 3291SOL     OW 9893   3.883   2.999   1.466
 3291SOL    HW1 9894   3.905   2.938   1.542
 3291SOL    HW2 9895   3.893   2.950   1.380
 3292SOL     OW 9896   3.807   3.120   1.022
 3292SOL    HW1 9897   3.802   3.119   1.122
 3292SOL    HW2 9898   3.724   3.079   0.984
 3293SOL     OW 9899   4.412   3.524   1.716
 3293SOL    HW1 9900   4.356   3.605   1.725
 3293SOL    HW2 9901   4.464   3.528   1.630
 3294SOL     OW 9902   4.627   1.948   0.133
 3294SOL    HW1 9903   4.678   1.949   0.047
 3294SOL    HW2 9904   4.683   1.906   0.204
 3295SOL     OW 9905   3.854   3.656   1.851
 3295SOL    HW1 9906   3.813   3.582   1.904
 3295SOL    HW2 9907   3.918   3.707   1.909
 3296SOL     OW 9908   5.004   2.789   0.672
 3296SOL    HW1 9909   5.064   2.708   0.674
 3296SOL    HW2 9910   5.044   2.858   0.612
 3297SOL     OW 9911   4.554   3.135   1.422
 3297SOL    HW1 9912   4.549   3.168   1.517
 3297SOL    HW2 9913   4.468   3.154   1.376
 3298SOL     OW 9914   4.396   3.478   0.154
 3298SOL    HW1 9915   4.405   3.488   0.055
 3298SOL    HW2 9916   4.356   3.389   0.175
 3299SOL     OW 9917   3.987   2.188   0.720
 3299SOL    HW1 9918   3.908   2.239   0.686
 3299SOL    HW2 9919   3.978   2.173   0.818
 3300SOL     OW 9920   4.546   2.864   1.372
 3300SOL    HW1 9921   4.586   2.863   1.280
 3300SOL    HW2 9922   4.556   2.956   1.412
 3301SOL     OW 9923   4.640   2.772   0.291
 3301SOL    HW1 9924   4.703   2.810   0.223
 3301SOL    HW2 9925   4.680   2.689   0.330
 3302SOL     OW 9926   4.096   3.150   1.490
 3302SOL    HW1 9927   4.083   3.243   1.456
 3302SOL    HW2 9928   4.012   3.098   1.477
 3303SOL     OW 9929   4.763   2.960   0.696
 3303SOL    HW1 9930   4.693   2.913   0.750
 3303SOL    HW2 9931   4.822   2.892   0.653
 3304SOL     OW 9932   4.738   2.098   0.971
 3304SOL    HW1 9933   4.730   2.062   0.878
 3304SOL    HW2 9934   4.736   2.022   1.036
 3305SOL     OW 9935   4.314   3.349   0.491
 3305SOL    HW1 9936   4.356   3.291   0.421
 3305SOL    HW2 9937   4.270   3.428   0.447
 3306SOL     OW 9938   3.979   3.210   0.290
 3306SOL    HW1 9939   3.883   3.211   0.263
 3306SOL    HW2 9940   3.991   3.263   0.374
 3307SOL     OW 9941   3.829   2.875   1.726
 3307SOL    HW1 9942   3.752   2.842   1.780
 3307SOL    HW2 9943   3.914   2.845   1.768
 3308SOL     OW 9944   4.396   2.065   1.489
 3308SOL    HW1 9945   4.486   2.049   1.449
 3308SOL    HW2 9946   4.404   2.070   1.588
 3309SOL     OW 9947   3.799   2.207   0.033
 3309SOL    HW1 9948   3.707   2.179   0.004
 3309SOL    HW2 9949   3.830   2.284  -0.023
 3310SOL     OW 9950   3.796   2.028   0.318
 3310SOL    HW1 9951   3.779   2.111   0.264
 3310SOL    HW2 9952   3.886   1.991   0.296
 3311SOL     OW 9953   4.337   2.704   1.431
 3311SOL    HW1 9954   4.393   2.785   1.414
 3311SOL    HW2 9955   4.396   2.624   1.434
 3312SOL     OW 9956   4.440   2.427   1.708
 3312SOL    HW1 9957   4.459   2.492   1.782
 3312SOL    HW2 9958   4.500   2.347   1.717
 3313SOL     OW 9959   4.114   3.603   1.560
 3313SOL    HW1 9960   4.023   3.644   1.558
 3313SOL    HW2 9961   4.107   3.509   1.592
 3314SOL     OW 9962   4.318   2.607   0.652
 3314SOL    HW1 9963   4.368   2.692   0.633
 3314SOL    HW2 9964   4.230   2.609   0.604
 3315SOL     OW 9965   4.583   3.236   0.016
 3315SOL    HW1 9966   4.537   3.251   0.104
 3315SOL    HW2 9967   4.627   3.321  -0.014
 3316SOL     OW 9968   4.385   3.652   0.953
 3316SOL    HW1 9969   4.339   3.740   0.940
 3316SOL    HW2 9970   4.484   3.664   0.946
 3317SOL     OW 9971   4.583   2.818   0.861
 3317SOL    HW1 9972   4.637   2.749   0.909
 3317SOL    HW2 9973   4.551   2.887   0.927
 3318SOL     OW 9974   4.807   2.846   0.087
 3318SOL    HW1 9975   4.784   2.899   0.005
 3318SOL    HW2 9976   4.888   2.790   0.068
 3319SOL     OW 9977   3.945   3.176   1.844
 3319SOL    HW1 9978   3.880   3.103   1.823
 3319SOL    HW2 9979   3.949   3.190   1.942
 3320SOL     OW 9980   3.803   3.102   0.653
 3320SOL    HW1 9981   3.802   3.055   0.741
 3320SOL    HW2 9982   3.885   3.074   0.602
 3321SOL     OW 9983   4.396   3.253   1.624
 3321SOL    HW1 9984   4.318   3.203   1.662
 3321SOL    HW2 9985   4.393   3.348   1.655
 3322SOL     OW 9986   4.152   2.286   0.520
 3322SOL    HW1 9987   4.182   2.214   0.458
 3322SOL    HW2 9988   4.113   2.246   0.603
 3323SOL     OW 9989   4.041   2.409   1.280
 3323SOL    HW1 9990   4.079   2.350   1.352
 3323SOL    HW2 9991   4.081   2.383   1.192
 3324SOL     OW 9992   4.536   3.448   0.687
 3324SOL    HW1 9993   4.568   3.458   0.593
 3324SOL    HW2 9994   4.457   3.386   0.689
 3325SOL     OW 9995   4.725   1.896   1.154
 3325SOL    HW1 9996   4.662   1.824   1.123
 3325SOL    HW2 9997   4.818   1.860   1.154
 3326SOL     OW 9998   4.494   3.192   0.301
 3326SOL    HW1 9999   4.448   3.105   0.318
 3326SOL    HW210000   4.585   3.189   0.342
 3327SOL     OW10001   4.342   3.429   1.284
 3327SOL    HW110002   4.337   3.511   1.341
 3327SOL    HW210003   4.431   3.426   1.239
 3328SOL     OW10004   3.763   2.939   0.300
 3328SOL    HW110005   3.862   2.928   0.291
 3328SOL    HW210006   3.723   2.853   0.332
 3329SOL     OW10007   4.599   3.508   0.337
 3329SOL    HW110008   4.522   3.473   0.283
 3329SOL    HW210009   4.567   3.579   0.399
 3330SOL     OW10010   3.954   2.490   1.975
 3330SOL    HW110011   3.861   2.488   2.012
 3330SOL    HW210012   3.955   2.451   1.883
 3331SOL     OW10013   3.949   2.137   2.858
 3331SOL    HW110014   3.984   2.120   2.950
 3331SOL    HW210015   3.861   2.092   2.846
 3332SOL     OW10016   3.743   2.230   2.509
 3332SOL    HW110017   3.661   2.273   2.548
 3332SOL    HW210018   3.715   2.157   2.446
 3333SOL     OW10019   4.293   3.137   3.027
 3333SOL    HW110020   4.200   3.130   2.990
 3333SOL    HW210021   4.304   3.226   3.071
 3334SOL     OW10022   4.492   3.006   2.885
 3334SOL    HW110023   4.414   3.023   2.945
 3334SOL    HW210024   4.526   3.093   2.849
 3335SOL     OW10025   4.574   2.660   3.685
 3335SOL    HW110026   4.570   2.736   3.750
 3335SOL    HW210027   4.596   2.696   3.594
 3336SOL     OW10028   4.409   2.874   2.527
 3336SOL    HW110029   4.478   2.858   2.597
 3336SOL    HW210030   4.336   2.931   2.565
 3337SOL     OW10031   4.410   3.023   3.665
 3337SOL    HW110032   4.470   3.102   3.679
 3337SOL    HW210033   4.324   3.054   3.624
 3338SOL     OW10034   4.059   3.297   2.923
 3338SOL    HW110035   3.981   3.266   2.870
 3338SOL    HW210036   4.117   3.355   2.866
 3339SOL     OW10037   4.162   2.254   3.361
 3339SOL    HW110038   4.244   2.198   3.370
 3339SOL    HW210039   4.081   2.196   3.365
 3340SOL     OW10040   3.955   3.575   2.345
 3340SOL    HW110041   3.989   3.652   2.399
 3340SOL    HW210042   3.999   3.575   2.255
 3341SOL     OW10043   4.851   3.203   3.552
 3341SOL    HW110044   4.898   3.203   3.640
 3341SOL    HW210045   4.803   3.116   3.541
 3342SOL     OW10046   3.954   3.296   2.400
 3342SOL    HW110047   3.928   3.392   2.400
 3342SOL    HW210048   3.883   3.242   2.445
 3343SOL     OW10049   3.964   2.953   2.748
 3343SOL    HW110050   3.978   2.869   2.800
 3343SOL    HW210051   3.909   3.017   2.803
 3344SOL     OW10052   4.344   3.648   3.301
 3344SOL    HW110053   4.252   3.631   3.336
 3344SOL    HW210054   4.372   3.740   3.327
 3345SOL     OW10055   4.330   2.826   1.985
 3345SOL    HW110056   4.337   2.910   1.931
 3345SOL    HW210057   4.376   2.839   2.073
 3346SOL     OW10058   3.846   2.505   2.425
 3346SOL    HW110059   3.801   2.417   2.442
 3346SOL    HW210060   3.845   2.559   2.509
 3347SOL     OW10061   3.751   3.458   1.979
 3347SOL    HW110062   3.732   3.362   2.000
 3347SOL    HW210063   3.718   3.516   2.054
 3348SOL     OW10064   3.837   2.599   3.459
 3348SOL    HW110065   3.925   2.586   3.504
 3348SOL    HW210066   3.824   2.696   3.437
 3349SOL     OW10067   4.337   3.227   2.588
 3349SOL    HW110068   4.288   3.140   2.597
 3349SOL    HW210069   4.314   3.270   2.501
 3350SOL     OW10070   4.533   1.866   2.364
 3350SOL    HW110071   4.573   1.957   2.355
 3350SOL    HW210072   4.433   1.874   2.370
 3351SOL     OW10073   3.921   2.838   3.126
 3351SOL    HW110074   4.010   2.793   3.112
 3351SOL    HW210075   3.848   2.773   3.107
 3352SOL     OW10076   4.041   2.113   3.663
 3352SOL    HW110077   4.112   2.184   3.669
 3352SOL    HW210078   3.953   2.152   3.691
 3353SOL     OW10079   4.322   2.591   2.132
 3353SOL    HW110080   4.346   2.660   2.064
 3353SOL    HW210081   4.244   2.624   2.186
 3354SOL     OW10082   4.531   2.467   3.327
 3354SOL    HW110083   4.484   2.464   3.416
 3354SOL    HW210084   4.480   2.412   3.261
 3355SOL     OW10085   4.697   2.752   3.434
 3355SOL    HW110086   4.743   2.668   3.405
 3355SOL    HW210087   4.641   2.786   3.359
 3356SOL     OW10088   4.715   2.272   3.104
 3356SOL    HW110089   4.638   2.306   3.158
 3356SOL    HW210090   4.681   2.221   3.025
 3357SOL     OW10091   4.765   2.563   2.291
 3357SOL    HW110092   4.791   2.559   2.387
 3357SOL    HW210093   4.680   2.512   2.277
 3358SOL     OW10094   3.800   2.673   2.651
 3358SOL    HW110095   3.899   2.661   2.660
 3358SOL    HW210096   3.776   2.768   2.672
 3359SOL     OW10097   3.854   3.683   3.433
 3359SOL    HW110098   3.844   3.668   3.532
 3359SOL    HW210099   3.768   3.719   3.397
 3360SOL     OW10100   4.589   2.210   2.057
 3360SOL    HW110101   4.648   2.273   2.008
 3360SOL    HW210102   4.608   2.116   2.028
 3361SOL     OW10103   4.274   2.058   2.747
 3361SOL    HW110104   4.269   2.053   2.847
 3361SOL    HW210105   4.276   2.154   2.718
 3362SOL     OW10106   4.732   3.318   2.339
 3362SOL    HW110107   4.686   3.390   2.287
 3362SOL    HW210108   4.728   3.338   2.437
 3363SOL     OW10109   4.075   3.663   2.715
 3363SOL    HW110110   4.125   3.577   2.721
 3363SOL    HW210111   4.140   3.740   2.712
 3364SOL     OW10112   4.045   2.805   2.104
 3364SOL    HW110113   4.127   2.844   2.062
 3364SOL    HW210114   4.018   2.723   2.055
 3365SOL     OW10115   4.185   3.128   3.589
 3365SOL    HW110116   4.135   3.129   3.503
 3365SOL    HW210117   4.122   3.110   3.665
 3366SOL     OW10118   3.926   2.147   3.360
 3366SOL    HW110119   3.846   2.207   3.347
 3366SOL    HW210120   3.916   2.098   3.446
 3367SOL     OW10121   4.188   3.605   2.185
 3367SOL    HW110122   4.221   3.644   2.271
 3367SOL    HW210123   4.264   3.598   2.120
 3368SOL     OW10124   3.973   3.647   3.103
 3368SOL    HW110125   4.030   3.582   3.153
 3368SOL    HW210126   3.957   3.614   3.010
 3369SOL     OW10127   4.664   3.560   2.766
 3369SOL    HW110128   4.744   3.503   2.787
 3369SOL    HW210129   4.615   3.520   2.689
 3370SOL     OW10130   4.106   2.562   2.342
 3370SOL    HW110131   4.151   2.472   2.339
 3370SOL    HW210132   4.012   2.551   2.375
 3371SOL     OW10133   4.338   1.984   1.979
 3371SOL    HW110134   4.436   1.962   1.986
 3371SOL    HW210135   4.307   1.967   1.886
 3372SOL     OW10136   4.505   2.126   3.611
 3372SOL    HW110137   4.572   2.065   3.654
 3372SOL    HW210138   4.432   2.145   3.676
 3373SOL     OW10139   4.612   3.376   3.057
 3373SOL    HW110140   4.589   3.351   2.963
 3373SOL    HW210141   4.673   3.307   3.096
 3374SOL     OW10142   4.527   3.264   2.786
 3374SOL    HW110143   4.617   3.278   2.744
 3374SOL    HW210144   4.456   3.266   2.715
 3375SOL     OW10145   4.646   2.365   2.761
 3375SOL    HW110146   4.621   2.356   2.665
 3375SOL    HW210147   4.694   2.283   2.792
 3376SOL     OW10148   4.263   1.926   2.374
 3376SOL    HW110149   4.182   1.927   2.432
 3376SOL    HW210150   4.266   2.009   2.319
 3377SOL     OW10151   4.021   1.897   2.033
 3377SOL    HW110152   4.070   1.981   2.012
 3377SOL    HW210153   4.083   1.832   2.078
 3378SOL     OW10154   4.659   2.098   2.342
 3378SOL    HW110155   4.611   2.139   2.264
 3378SOL    HW210156   4.758   2.096   2.323
 3379SOL     OW10157   4.951   3.432   2.655
 3379SOL    HW110158   4.972   3.506   2.590
 3379SOL    HW210159   5.019   3.432   2.728
 3380SOL     OW10160   4.183   3.014   2.603
 3380SOL    HW110161   4.112   2.987   2.668
 3380SOL    HW210162   4.157   2.986   2.510
 3381SOL     OW10163   4.756   2.411   1.878
 3381SOL    HW110164   4.715   2.493   1.839
 3381SOL    HW210165   4.820   2.437   1.951
 3382SOL     OW10166   3.802   2.418   3.248
 3382SOL    HW110167   3.894   2.417   3.207
 3382SOL    HW210168   3.796   2.492   3.315
 3383SOL     OW10169   4.285   2.084   3.009
 3383SOL    HW110170   4.323   2.000   3.046
 3383SOL    HW210171   4.197   2.103   3.053
 3384SOL     OW10172   4.590   2.316   2.504
 3384SOL    HW110173   4.558   2.388   2.442
 3384SOL    HW210174   4.614   2.235   2.451
 3385SOL     OW10175   4.741   1.901   2.615
 3385SOL    HW110176   4.669   1.906   2.546
 3385SOL    HW210177   4.717   1.832   2.684
 3386SOL     OW10178   4.212   3.247   2.036
 3386SOL    HW110179   4.125   3.232   2.083
 3386SOL    HW210180   4.195   3.273   1.941
 3387SOL     OW10181   4.251   2.118   2.190
 3387SOL    HW110182   4.278   2.059   2.115
 3387SOL    HW210183   4.251   2.213   2.159
 3388SOL     OW10184   4.639   1.951   3.264
 3388SOL    HW110185   4.664   1.931   3.169
 3388SOL    HW210186   4.711   2.007   3.306
 3389SOL     OW10187   4.704   2.978   3.581
 3389SOL    HW110188   4.605   2.984   3.591
 3389SOL    HW210189   4.727   2.898   3.525
 3390SOL     OW10190   4.429   2.912   2.230
 3390SOL    HW110191   4.415   2.919   2.329
 3390SOL    HW210192   4.513   2.861   2.212
 3391SOL     OW10193   4.134   2.675   3.113
 3391SOL    HW110194   4.220   2.687   3.163
 3391SOL    HW210195   4.092   2.588   3.140
 3392SOL     OW10196   3.788   3.426   3.193
 3392SOL    HW110197   3.742   3.508   3.159
 3392SOL    HW210198   3.886   3.445   3.202
 3393SOL     OW10199   4.091   2.962   2.363
 3393SOL    HW110200   4.084   3.045   2.307
 3393SOL    HW210201   4.095   2.882   2.303
 3394SOL     OW10202   4.290   2.399   2.727
 3394SOL    HW110203   4.302   2.465   2.653
 3394SOL    HW210204   4.336   2.433   2.810
 3395SOL     OW10205   4.078   3.372   3.191
 3395SOL    HW110206   4.057   3.328   3.104
 3395SOL    HW210207   4.175   3.398   3.194
 3396SOL     OW10208   4.126   2.613   3.460
 3396SOL    HW110209   4.194   2.668   3.413
 3396SOL    HW210210   4.166   2.525   3.487
 3397SOL     OW10211   4.737   1.967   3.632
 3397SOL    HW110212   4.743   2.052   3.580
 3397SOL    HW210213   4.769   1.891   3.575
 3398SOL     OW10214   4.228   1.912   3.602
 3398SOL    HW110215   4.186   1.855   3.532
 3398SOL    HW210216   4.162   1.981   3.634
 3399SOL     OW10217   4.297   2.732   2.891
 3399SOL    HW110218   4.341   2.821   2.882
 3399SOL    HW210219   4.234   2.732   2.968
 3400SOL     OW10220   4.933   2.387   2.137
 3400SOL    HW110221   4.946   2.303   2.191
 3400SOL    HW210222   4.904   2.461   2.197
 3401SOL     OW10223   4.031   2.075   3.093
 3401SOL    HW110224   4.008   2.112   3.183
 3401SOL    HW210225   4.001   1.980   3.087
 3402SOL     OW10226   3.761   3.172   3.144
 3402SOL    HW110227   3.814   3.123   3.212
 3402SOL    HW210228   3.783   3.270   3.149
 3403SOL     OW10229   4.456   2.496   2.926
 3403SOL    HW110230   4.515   2.470   2.850
 3403SOL    HW210231   4.428   2.592   2.915
 3404SOL     OW10232   4.031   1.925   2.480
 3404SOL    HW110233   4.020   2.019   2.513
 3404SOL    HW210234   4.026   1.862   2.557
 3405SOL     OW10235   4.747   2.628   2.828
 3405SOL    HW110236   4.762   2.649   2.924
 3405SOL    HW210237   4.717   2.533   2.819
 3406SOL     OW10238   4.704   3.435   3.562
 3406SOL    HW110239   4.684   3.479   3.474
 3406SOL    HW210240   4.743   3.344   3.546
 3407SOL     OW10241   4.074   2.760   3.666
 3407SOL    HW110242   4.150   2.804   3.714
 3407SOL    HW210243   4.109   2.713   3.584
 3408SOL     OW10244   4.792   3.195   2.711
 3408SOL    HW110245   4.799   3.111   2.656
 3408SOL    HW210246   4.854   3.264   2.675
 3409SOL     OW10247   4.043   2.672   2.811
 3409SOL    HW110248   4.136   2.708   2.816
 3409SOL    HW210249   4.037   2.587   2.863
 3410SOL     OW10250   4.063   2.371   2.868
 3410SOL    HW110251   4.011   2.288   2.851
 3410SOL    HW210252   4.140   2.376   2.804
 3411SOL     OW10253   3.732   3.188   2.062
 3411SOL    HW110254   3.639   3.209   2.031
 3411SOL    HW210255   3.742   3.089   2.075
 3412SOL     OW10256   3.812   3.663   2.789
 3412SOL    HW110257   3.770   3.577   2.762
 3412SOL    HW210258   3.906   3.666   2.755
 3413SOL     OW10259   4.228   3.430   2.772
 3413SOL    HW110260   4.294   3.504   2.781
 3413SOL    HW210261   4.272   3.351   2.730
 3414SOL     OW10262   4.726   2.658   3.100
 3414SOL    HW110263   4.767   2.626   3.186
 3414SOL    HW210264   4.630   2.631   3.097
 3415SOL     OW10265   3.764   2.406   2.976
 3415SOL    HW110266   3.849   2.373   2.935
 3415SOL    HW210267   3.777   2.421   3.074
 3416SOL     OW10268   3.913   2.382   3.584
 3416SOL    HW110269   3.972   2.342   3.514
 3416SOL    HW210270   3.855   2.453   3.543
 3417SOL     OW10271   4.539   2.434   2.187
 3417SOL    HW110272   4.546   2.345   2.141
 3417SOL    HW210273   4.445   2.468   2.179
 3418SOL     OW10274   3.976   3.426   3.606
 3418SOL    HW110275   3.946   3.483   3.682
 3418SOL    HW210276   3.969   3.329   3.632
 3419SOL     OW10277   4.395   2.326   3.131
 3419SOL    HW110278   4.361   2.237   3.101
 3419SOL    HW210279   4.421   2.380   3.051
 3420SOL     OW10280   4.654   3.540   3.327
 3420SOL    HW110281   4.630   3.522   3.232
 3420SOL    HW210282   4.684   3.634   3.337
 3421SOL     OW10283   4.197   2.362   2.053
 3421SOL    HW110284   4.258   2.442   2.057
 3421SOL    HW210285   4.102   2.393   2.060
 3422SOL     OW10286   3.883   2.999   3.328
 3422SOL    HW110287   3.905   2.938   3.404
 3422SOL    HW210288   3.893   2.950   3.242
 3423SOL     OW10289   3.807   3.120   2.884
 3423SOL    HW110290   3.802   3.119   2.984
 3423SOL    HW210291   3.724   3.079   2.846
 3424SOL     OW10292   4.412   3.524   3.578
 3424SOL    HW110293   4.356   3.605   3.587
 3424SOL    HW210294   4.464   3.528   3.492
 3425SOL     OW10295   3.854   3.656   3.713
 3425SOL    HW110296   3.813   3.582   3.766
 3425SOL    HW210297   3.918   3.707   3.771
 3426SOL     OW10298   5.004   2.789   2.534
 3426SOL    HW110299   5.064   2.708   2.536
 3426SOL    HW210300   5.044   2.858   2.474
 3427SOL     OW10301   4.554   3.135   3.284
 3427SOL    HW110302   4.549   3.168   3.379
 3427SOL    HW210303   4.468   3.154   3.238
 3428SOL     OW10304   4.396   3.478   2.016
 3428SOL    HW110305   4.405   3.488   1.917
 3428SOL    HW210306   4.356   3.389   2.037
 3429SOL     OW10307   3.987   2.188   2.582
 3429SOL    HW110308   3.908   2.239   2.548
 3429SOL    HW210309   3.978   2.173   2.680
 3430SOL     OW10310   4.546   2.864   3.234
 3430SOL    HW110311   4.586   2.863   3.142
 3430SOL    HW210312   4.556   2.956   3.274
 3431SOL     OW10313   4.640   2.772   2.153
 3431SOL    HW110314   4.703   2.810   2.085
 3431SOL    HW210315   4.680   2.689   2.192
 3432SOL     OW10316   4.096   3.150   3.352
 3432SOL    HW110317   4.083   3.243   3.318
 3432SOL    HW210318   4.012   3.098   3.339
 3433SOL     OW10319   4.763   2.960   2.558
 3433SOL    HW110320   4.693   2.913   2.612
 3433SOL    HW210321   4.822   2.892   2.515
 3434SOL     OW10322   4.738   2.098   2.833
 3434SOL    HW110323   4.730   2.062   2.740
 3434SOL    HW210324   4.736   2.022   2.898
 3435SOL     OW10325   4.314   3.349   2.353
 3435SOL    HW110326   4.356   3.291   2.283
 3435SOL    HW210327   4.270   3.428   2.309
 3436SOL     OW10328   3.979   3.210   2.152
 3436SOL    HW110329   3.883   3.211   2.125
 3436SOL    HW210330   3.991   3.263   2.236
 3437SOL     OW10331   3.829   2.875   3.588
 3437SOL    HW110332   3.752   2.842   3.642
 3437SOL    HW210333   3.914   2.845   3.630
 3438SOL     OW10334   4.396   2.065   3.351
 3438SOL    HW110335   4.486   2.049   3.311
 3438SOL    HW210336   4.404   2.070   3.450
 3439SOL     OW10337   3.799   2.207   1.895
 3439SOL    HW110338   3.707   2.179   1.866
 3439SOL    HW210339   3.830   2.284   1.839
 3440SOL     OW10340   3.796   2.028   2.180
 3440SOL    HW110341   3.779   2.111   2.126
 3440SOL    HW210342   3.886   1.991   2.158
 3441SOL     OW10343   4.337   2.704   3.293
 3441SOL    HW110344   4.393   2.785   3.276
 3441SOL    HW210345   4.396   2.624   3.296
 3442SOL     OW10346   4.440   2.427   3.570
 3442SOL    HW110347   4.459   2.492   3.644
 3442SOL    HW210348   4.500   2.347   3.579
 3443SOL     OW10349   4.114   3.603   3.422
 3443SOL    HW110350   4.023   3.644   3.420
 3443SOL    HW210351   4.107   3.509   3.454
 3444SOL     OW10352   4.318   2.607   2.514
 3444SOL    HW110353   4.368   2.692   2.495
 3444SOL    HW210354   4.230   2.609   2.466
 3445SOL     OW10355   4.583   3.236   1.878
 3445SOL    HW110356   4.537   3.251   1.966
 3445SOL    HW210357   4.627   3.321   1.848
 3446SOL     OW10358   4.385   3.652   2.815
 3446SOL    HW110359   4.339   3.740   2.802
 3446SOL    HW210360   4.484   3.664   2.808
 3447SOL     OW10361   4.583   2.818   2.723
 3447SOL    HW110362   4.637   2.749   2.771
 3447SOL    HW210363   4.551   2.887   2.789
 3448SOL     OW10364   4.807   2.846   1.949
 3448SOL    HW110365   4.784   2.899   1.867
 3448SOL    HW210366   4.888   2.790   1.930
 3449SOL     OW10367   3.945   3.176   3.706
 3449SOL    HW110368   3.880   3.103   3.685
 3449SOL    HW210369   3.949   3.190   3.804
 3450SOL     OW10370   3.803   3.102   2.515
 3450SOL    HW110371   3.802   3.055   2.603
 3450SOL    HW210372   3.885   3.074   2.464
 3451SOL     OW10373   4.396   3.253   3.486
 3451SOL    HW110374   4.318   3.203   3.524
 3451SOL    HW210375   4.393   3.348   3.517
 3452SOL     OW10376   4.152   2.286   2.382
 3452SOL    HW110377   4.182   2.214   2.320
 3452SOL    HW210378   4.113   2.246   2.465
 3453SOL     OW10379   4.041   2.409   3.142
 3453SOL    HW110380   4.079   2.350   3.214
 3453SOL    HW210381   4.081   2.383   3.054
 3454SOL     OW10382   4.536   3.448   2.549
 3454SOL    HW110383   4.568   3.458   2.455
 3454SOL    HW210384   4.457   3.386   2.551
 3455SOL     OW10385   4.725   1.896   3.016
 3455SOL    HW110386   4.662   1.824   2.985
 3455SOL    HW210387   4.818   1.860   3.016
 3456SOL     OW10388   4.494   3.192   2.163
 3456SOL    HW110389   4.448   3.105   2.180
 3456SOL    HW210390   4.585   3.189   2.204
 3457SOL     OW10391   4.342   3.429   3.146
 3457SOL    HW110392   4.337   3.511   3.203
 3457SOL    HW210393   4.431   3.426   3.101
 3458SOL     OW10394   3.763   2.939   2.162
 3458SOL    HW110395   3.862   2.928   2.153
 3458SOL    HW210396   3.723   2.853   2.194
 3459SOL     OW10397   4.599   3.508   2.199
 3459SOL    HW110398   4.522   3.473   2.145
 3459SOL    HW210399   4.567   3.579   2.261
 3460SOL     OW10400   3.954   2.490   3.837
 3460SOL    HW110401   3.861   2.488   3.874
 3460SOL    HW210402   3.955   2.451   3.745
 3461SOL     OW10403   3.949   2.137   4.720
 3461SOL    HW110404   3.984   2.120   4.812
 3461SOL    HW210405   3.861   2.092   4.708
 3462SOL     OW10406   3.743   2.230   4.371
 3462SOL    HW110407   3.661   2.273   4.410
 3462SOL    HW210408   3.715   2.157   4.308
 3463SOL     OW10409   4.492   3.006   4.747
 3463SOL    HW110410   4.414   3.023   4.807
 3463SOL    HW210411   4.526   3.093   4.711
 3464SOL     OW10412   4.409   2.874   4.389
 3464SOL    HW110413   4.478   2.858   4.459
 3464SOL    HW210414   4.336   2.931   4.427
 3465SOL     OW10415   4.059   3.297   4.785
 3465SOL    HW110416   3.981   3.266   4.732
 3465SOL    HW210417   4.117   3.355   4.728
 3466SOL     OW10418   3.955   3.575   4.207
 3466SOL    HW110419   3.989   3.652   4.261
 3466SOL    HW210420   3.999   3.575   4.117
 3467SOL     OW10421   3.954   3.296   4.262
 3467SOL    HW110422   3.928   3.392   4.262
 3467SOL    HW210423   3.883   3.242   4.307
 3468SOL     OW10424   3.964   2.953   4.610
 3468SOL    HW110425   3.978   2.869   4.662
 3468SOL    HW210426   3.909   3.017   4.665
 3469SOL     OW10427   4.330   2.826   3.847
 3469SOL    HW110428   4.337   2.910   3.793
 3469SOL    HW210429   4.376   2.839   3.935
 3470SOL     OW10430   3.846   2.505   4.287
 3470SOL    HW110431   3.801   2.417   4.304
 3470SOL    HW210432   3.845   2.559   4.371
 3471SOL     OW10433   3.751   3.458   3.841
 3471SOL    HW110434   3.732   3.362   3.862
 3471SOL    HW210435   3.718   3.516   3.916
 3472SOL     OW10436   4.337   3.227   4.450
 3472SOL    HW110437   4.288   3.140   4.459
 3472SOL    HW210438   4.314   3.270   4.363
 3473SOL     OW10439   4.533   1.866   4.226
 3473SOL    HW110440   4.573   1.957   4.217
 3473SOL    HW210441   4.433   1.874   4.232
 3474SOL     OW10442   4.322   2.591   3.994
 3474SOL    HW110443   4.346   2.660   3.926
 3474SOL    HW210444   4.244   2.624   4.048
 3475SOL     OW10445   4.765   2.563   4.153
 3475SOL    HW110446   4.791   2.559   4.249
 3475SOL    HW210447   4.680   2.512   4.139
 3476SOL     OW10448   3.800   2.673   4.513
 3476SOL    HW110449   3.899   2.661   4.522
 3476SOL    HW210450   3.776   2.768   4.534
 3477SOL     OW10451   4.589   2.210   3.919
 3477SOL    HW110452   4.648   2.273   3.870
 3477SOL    HW210453   4.608   2.116   3.890
 3478SOL     OW10454   4.274   2.058   4.609
 3478SOL    HW110455   4.269   2.053   4.709
 3478SOL    HW210456   4.276   2.154   4.580
 3479SOL     OW10457   4.732   3.318   4.201
 3479SOL    HW110458   4.686   3.390   4.149
 3479SOL    HW210459   4.728   3.338   4.299
 3480SOL     OW10460   4.075   3.663   4.577
 3480SOL    HW110461   4.125   3.577   4.583
 3480SOL    HW210462   4.140   3.740   4.574
 3481SOL     OW10463   4.045   2.805   3.966
 3481SOL    HW110464   4.127   2.844   3.924
 3481SOL    HW210465   4.018   2.723   3.917
 3482SOL     OW10466   4.188   3.605   4.047
 3482SOL    HW110467   4.221   3.644   4.133
 3482SOL    HW210468   4.264   3.598   3.982
 3483SOL     OW10469   3.973   3.647   4.965
 3483SOL    HW110470   4.030   3.582   5.015
 3483SOL    HW210471   3.957   3.614   4.872
 3484SOL     OW10472   4.664   3.560   4.628
 3484SOL    HW110473   4.744   3.503   4.649
 3484SOL    HW210474   4.615   3.520   4.551
 3485SOL     OW10475   4.106   2.562   4.204
 3485SOL    HW110476   4.151   2.472   4.201
 3485SOL    HW210477   4.012   2.551   4.237
 3486SOL     OW10478   4.338   1.984   3.841
 3486SOL    HW110479   4.436   1.962   3.848
 3486SOL    HW210480   4.307   1.967   3.748
 3487SOL     OW10481   4.527   3.264   4.648
 3487SOL    HW110482   4.617   3.278   4.606
 3487SOL    HW210483   4.456   3.266   4.577
 3488SOL     OW10484   4.646   2.365   4.623
 3488SOL    HW110485   4.621   2.356   4.527
 3488SOL    HW210486   4.694   2.283   4.654
 3489SOL     OW10487   4.263   1.926   4.236
 3489SOL    HW110488   4.182   1.927   4.294
 3489SOL    HW210489   4.266   2.009   4.181
 3490SOL     OW10490   4.021   1.897   3.895
 3490SOL    HW110491   4.070   1.981   3.874
 3490SOL    HW210492   4.083   1.832   3.940
 3491SOL     OW10493   4.659   2.098   4.204
 3491SOL    HW110494   4.611   2.139   4.126
 3491SOL    HW210495   4.758   2.096   4.185
 3492SOL     OW10496   4.951   3.432   4.517
 3492SOL    HW110497   4.972   3.506   4.452
 3492SOL    HW210498   5.019   3.432   4.590
 3493SOL     OW10499   4.183   3.014   4.465
 3493SOL    HW110500   4.112   2.987   4.530
 3493SOL    HW210501   4.157   2.986   4.372
 3494SOL     OW10502   4.756   2.411   3.740
 3494SOL    HW110503   4.715   2.493   3.701
 3494SOL    HW210504   4.820   2.437   3.813
 3495SOL     OW10505   4.590   2.316   4.366
 3495SOL    HW110506   4.558   2.388   4.304
 3495SOL    HW210507   4.614   2.235   4.313
 3496SOL     OW10508   4.741   1.901   4.477
 3496SOL    HW110509   4.669   1.906   4.408
 3496SOL    HW210510   4.717   1.832   4.546
 3497SOL     OW10511   4.212   3.247   3.898
 3497SOL    HW110512   4.125   3.232   3.945
 3497SOL    HW210513   4.195   3.273   3.803
 3498SOL     OW10514   4.251   2.118   4.052
 3498SOL    HW110515   4.278   2.059   3.977
 3498SOL    HW210516   4.251   2.213   4.021
 3499SOL     OW10517   4.429   2.912   4.092
 3499SOL    HW110518   4.415   2.919   4.191
 3499SOL    HW210519   4.513   2.861   4.074
 3500SOL     OW10520   4.091   2.962   4.225
 3500SOL    HW110521   4.084   3.045   4.169
 3500SOL    HW210522   4.095   2.882   4.165
 3501SOL     OW10523   4.290   2.399   4.589
 3501SOL    HW110524   4.302   2.465   4.515
 3501SOL    HW210525   4.336   2.433   4.672
 3502SOL     OW10526   4.297   2.732   4.753
 3502SOL    HW110527   4.341   2.821   4.744
 3502SOL    HW210528   4.234   2.732   4.830
 3503SOL     OW10529   4.933   2.387   3.999
 3503SOL    HW110530   4.946   2.303   4.053
 3503SOL    HW210531   4.904   2.461   4.059
 3504SOL     OW10532   4.031   2.075   4.955
 3504SOL    HW110533   4.008   2.112   5.045
 3504SOL    HW210534   4.001   1.980   4.949
 3505SOL     OW10535   4.456   2.496   4.788
 3505SOL    HW110536   4.515   2.470   4.712
 3505SOL    HW210537   4.428   2.592   4.777
 3506SOL     OW10538   4.031   1.925   4.342
 3506SOL    HW110539   4.020   2.019   4.375
 3506SOL    HW210540   4.026   1.862   4.419
 3507SOL     OW10541   4.747   2.628   4.690
 3507SOL    HW110542   4.762   2.649   4.786
 3507SOL    HW210543   4.717   2.533   4.681
 3508SOL     OW10544   4.792   3.195   4.573
 3508SOL    HW110545   4.799   3.111   4.518
 3508SOL    HW210546   4.854   3.264   4.537
 3509SOL     OW10547   4.043   2.672   4.673
 3509SOL    HW110548   4.136   2.708   4.678
 3509SOL    HW210549   4.037   2.587   4.725
 3510SOL     OW10550   4.063   2.371   4.730
 3510SOL    HW110551   4.011   2.288   4.713
 3510SOL    HW210552   4.140   2.376   4.666
 3511SOL     OW10553   3.732   3.188   3.924
 3511SOL    HW110554   3.639   3.209   3.893
 3511SOL    HW210555   3.742   3.089   3.937
 3512SOL     OW10556   3.812   3.663   4.651
 3512SOL    HW110557   3.770   3.577   4.624
 3512SOL    HW210558   3.906   3.666   4.617
 3513SOL     OW10559   4.228   3.430   4.634
 3513SOL    HW110560   4.294   3.504   4.643
 3513SOL    HW210561   4.272   3.351   4.592
 3514SOL     OW10562   4.726   2.658   4.962
 3514SOL    HW110563   4.767   2.626   5.048
 3514SOL    HW210564   4.630   2.631   4.959
 3515SOL     OW10565   4.539   2.434   4.049
 3515SOL    HW110566   4.546   2.345   4.003
 3515SOL    HW210567   4.445   2.468   4.041
 3516SOL     OW10568   4.395   2.326   4.993
 3516SOL    HW110569   4.361   2.237   4.963
 3516SOL    HW210570   4.421   2.380   4.913
 3517SOL     OW10571   4.197   2.362   3.915
 3517SOL    HW110572   4.258   2.442   3.919
 3517SOL    HW210573   4.102   2.393   3.922
 3518SOL     OW10574   3.807   3.120   4.746
 3518SOL    HW110575   3.802   3.119   4.846
 3518SOL    HW210576   3.724   3.079   4.708
 3519SOL     OW10577   5.004   2.789   4.396
 3519SOL    HW110578   5.064   2.708   4.398
 3519SOL    HW210579   5.044   2.858   4.336
 3520SOL     OW10580   4.396   3.478   3.878
 3520SOL    HW110581   4.405   3.488   3.779
 3520SOL    HW210582   4.356   3.389   3.899
 3521SOL     OW10583   3.987   2.188   4.444
 3521SOL    HW110584   3.908   2.239   4.410
 3521SOL    HW210585   3.978   2.173   4.542
 3522SOL     OW10586   4.640   2.772   4.015
 3522SOL    HW110587   4.703   2.810   3.947
 3522SOL    HW210588   4.680   2.689   4.054
 3523SOL     OW10589   4.763   2.960   4.420
 3523SOL    HW110590   4.693   2.913   4.474
 3523SOL    HW210591   4.822   2.892   4.377
 3524SOL     OW10592   4.738   2.098   4.695
 3524SOL    HW110593   4.730   2.062   4.602
 3524SOL    HW210594   4.736   2.022   4.760
 3525SOL     OW10595   4.314   3.349   4.215
 3525SOL    HW110596   4.356   3.291   4.145
 3525SOL    HW210597   4.270   3.428   4.171
 3526SOL     OW10598   3.979   3.210   4.014
 3526SOL    HW110599   3.883   3.211   3.987
 3526SOL    HW210600   3.991   3.263   4.098
 3527SOL     OW10601   3.799   2.207   3.757
 3527SOL    HW110602   3.707   2.179   3.728
 3527SOL    HW210603   3.830   2.284   3.701
 3528SOL     OW10604   3.796   2.028   4.042
 3528SOL    HW110605   3.779   2.111   3.988
 3528SOL    HW210606   3.886   1.991   4.020
 3529SOL     OW10607   4.318   2.607   4.376
 3529SOL    HW110608   4.368   2.692   4.357
 3529SOL    HW210609   4.230   2.609   4.328
 3530SOL     OW10610   4.583   3.236   3.740
 3530SOL    HW110611   4.537   3.251   3.828
 3530SOL    HW210612   4.627   3.321   3.710
 3531SOL     OW10613   4.385   3.652   4.677
 3531SOL    HW110614   4.339   3.740   4.664
 3531SOL    HW210615   4.484   3.664   4.670
 3532SOL     OW10616   4.583   2.818   4.585
 3532SOL    HW110617   4.637   2.749   4.633
 3532SOL    HW210618   4.551   2.887   4.651
 3533SOL     OW10619   4.807   2.846   3.811
 3533SOL    HW110620   4.784   2.899   3.729
 3533SOL    HW210621   4.888   2.790   3.792
 3534SOL     OW10622   3.803   3.102   4.377
 3534SOL    HW110623   3.802   3.055   4.465
 3534SOL    HW210624   3.885   3.074   4.326
 3535SOL     OW10625   4.152   2.286   4.244
 3535SOL    HW110626   4.182   2.214   4.182
 3535SOL    HW210627   4.113   2.246   4.327
 3536SOL     OW10628   4.536   3.448   4.411
 3536SOL    HW110629   4.568   3.458   4.317
 3536SOL    HW210630   4.457   3.386   4.413
 3537SOL     OW10631   4.494   3.192   4.025
 3537SOL    HW110632   4.448   3.105   4.042
 3537SOL    HW210633   4.585   3.189   4.066
 3538SOL     OW10634   3.763   2.939   4.024
 3538SOL    HW110635   3.862   2.928   4.015
 3538SOL    HW210636   3.723   2.853   4.056
 3539SOL     OW10637   4.599   3.508   4.061
 3539SOL    HW110638   4.522   3.473   4.007
 3539SOL    HW210639   4.567   3.579   4.123
 3540SOL     OW10640   3.954   4.352   0.113
 3540SOL    HW110641   3.861   4.350   0.150
 3540SOL    HW210642   3.955   4.313   0.021
 3541SOL     OW10643   3.949   3.999   0.996
 3541SOL    HW110644   3.984   3.982   1.088
 3541SOL    HW210645   3.861   3.954   0.984
 3542SOL     OW10646   3.743   4.092   0.647
 3542SOL    HW110647   3.661   4.135   0.686
 3542SOL    HW210648   3.715   4.019   0.584
 3543SOL     OW10649   4.492   4.868   1.023
 3543SOL    HW110650   4.414   4.885   1.083
 3543SOL    HW210651   4.526   4.955   0.987
 3544SOL     OW10652   4.574   4.522   1.823
 3544SOL    HW110653   4.570   4.598   1.888
 3544SOL    HW210654   4.596   4.558   1.732
 3545SOL     OW10655   4.409   4.736   0.665
 3545SOL    HW110656   4.478   4.720   0.735
 3545SOL    HW210657   4.336   4.793   0.703
 3546SOL     OW10658   4.162   4.116   1.499
 3546SOL    HW110659   4.244   4.060   1.508
 3546SOL    HW210660   4.081   4.058   1.503
 3547SOL     OW10661   3.954   5.158   0.538
 3547SOL    HW110662   3.928   5.254   0.538
 3547SOL    HW210663   3.883   5.104   0.583
 3548SOL     OW10664   3.964   4.815   0.886
 3548SOL    HW110665   3.978   4.731   0.938
 3548SOL    HW210666   3.909   4.879   0.941
 3549SOL     OW10667   4.330   4.688   0.123
 3549SOL    HW110668   4.337   4.772   0.069
 3549SOL    HW210669   4.376   4.701   0.211
 3550SOL     OW10670   3.846   4.367   0.563
 3550SOL    HW110671   3.801   4.279   0.580
 3550SOL    HW210672   3.845   4.421   0.647
 3551SOL     OW10673   3.837   4.461   1.597
 3551SOL    HW110674   3.925   4.448   1.642
 3551SOL    HW210675   3.824   4.558   1.575
 3552SOL     OW10676   4.533   3.728   0.502
 3552SOL    HW110677   4.573   3.819   0.493
 3552SOL    HW210678   4.433   3.736   0.508
 3553SOL     OW10679   3.921   4.700   1.264
 3553SOL    HW110680   4.010   4.655   1.250
 3553SOL    HW210681   3.848   4.635   1.245
 3554SOL     OW10682   4.041   3.975   1.801
 3554SOL    HW110683   4.112   4.046   1.807
 3554SOL    HW210684   3.953   4.014   1.829
 3555SOL     OW10685   4.322   4.453   0.270
 3555SOL    HW110686   4.346   4.522   0.202
 3555SOL    HW210687   4.244   4.486   0.324
 3556SOL     OW10688   4.531   4.329   1.465
 3556SOL    HW110689   4.484   4.326   1.554
 3556SOL    HW210690   4.480   4.274   1.399
 3557SOL     OW10691   4.697   4.614   1.572
 3557SOL    HW110692   4.743   4.530   1.543
 3557SOL    HW210693   4.641   4.648   1.497
 3558SOL     OW10694   4.715   4.134   1.242
 3558SOL    HW110695   4.638   4.168   1.296
 3558SOL    HW210696   4.681   4.083   1.163
 3559SOL     OW10697   4.765   4.425   0.429
 3559SOL    HW110698   4.791   4.421   0.525
 3559SOL    HW210699   4.680   4.374   0.415
 3560SOL     OW10700   3.800   4.535   0.789
 3560SOL    HW110701   3.899   4.523   0.798
 3560SOL    HW210702   3.776   4.630   0.810
 3561SOL     OW10703   4.589   4.072   0.195
 3561SOL    HW110704   4.648   4.135   0.146
 3561SOL    HW210705   4.608   3.978   0.166
 3562SOL     OW10706   4.274   3.920   0.885
 3562SOL    HW110707   4.269   3.915   0.985
 3562SOL    HW210708   4.276   4.016   0.856
 3563SOL     OW10709   3.926   4.009   1.498
 3563SOL    HW110710   3.846   4.069   1.485
 3563SOL    HW210711   3.916   3.960   1.584
 3564SOL     OW10712   4.106   4.424   0.480
 3564SOL    HW110713   4.151   4.334   0.477
 3564SOL    HW210714   4.012   4.413   0.513
 3565SOL     OW10715   4.338   3.846   0.117
 3565SOL    HW110716   4.436   3.824   0.124
 3565SOL    HW210717   4.307   3.829   0.024
 3566SOL     OW10718   4.505   3.988   1.749
 3566SOL    HW110719   4.572   3.927   1.792
 3566SOL    HW210720   4.432   4.007   1.814
 3567SOL     OW10721   4.646   4.227   0.899
 3567SOL    HW110722   4.621   4.218   0.803
 3567SOL    HW210723   4.694   4.145   0.930
 3568SOL     OW10724   4.263   3.788   0.512
 3568SOL    HW110725   4.182   3.789   0.570
 3568SOL    HW210726   4.266   3.871   0.457
 3569SOL     OW10727   4.659   3.960   0.480
 3569SOL    HW110728   4.611   4.001   0.402
 3569SOL    HW210729   4.758   3.958   0.461
 3570SOL     OW10730   4.756   4.273   0.016
 3570SOL    HW110731   4.715   4.355  -0.023
 3570SOL    HW210732   4.820   4.299   0.089
 3571SOL     OW10733   3.802   4.280   1.386
 3571SOL    HW110734   3.894   4.279   1.345
 3571SOL    HW210735   3.796   4.354   1.453
 3572SOL     OW10736   4.285   3.946   1.147
 3572SOL    HW110737   4.323   3.862   1.184
 3572SOL    HW210738   4.197   3.965   1.191
 3573SOL     OW10739   4.590   4.178   0.642
 3573SOL    HW110740   4.558   4.250   0.580
 3573SOL    HW210741   4.614   4.097   0.589
 3574SOL     OW10742   4.741   3.763   0.753
 3574SOL    HW110743   4.669   3.768   0.684
 3574SOL    HW210744   4.717   3.694   0.822
 3575SOL     OW10745   4.251   3.980   0.328
 3575SOL    HW110746   4.278   3.921   0.253
 3575SOL    HW210747   4.251   4.075   0.297
 3576SOL     OW10748   4.639   3.813   1.402
 3576SOL    HW110749   4.664   3.793   1.307
 3576SOL    HW210750   4.711   3.869   1.444
 3577SOL     OW10751   4.134   4.537   1.251
 3577SOL    HW110752   4.220   4.549   1.301
 3577SOL    HW210753   4.092   4.450   1.278
 3578SOL     OW10754   4.290   4.261   0.865
 3578SOL    HW110755   4.302   4.327   0.791
 3578SOL    HW210756   4.336   4.295   0.948
 3579SOL     OW10757   4.126   4.475   1.598
 3579SOL    HW110758   4.194   4.530   1.551
 3579SOL    HW210759   4.166   4.387   1.625
 3580SOL     OW10760   4.737   3.829   1.770
 3580SOL    HW110761   4.743   3.914   1.718
 3580SOL    HW210762   4.769   3.753   1.713
 3581SOL     OW10763   4.228   3.774   1.740
 3581SOL    HW110764   4.186   3.717   1.670
 3581SOL    HW210765   4.162   3.843   1.772
 3582SOL     OW10766   4.297   4.594   1.029
 3582SOL    HW110767   4.341   4.683   1.020
 3582SOL    HW210768   4.234   4.594   1.106
 3583SOL     OW10769   4.933   4.249   0.275
 3583SOL    HW110770   4.946   4.165   0.329
 3583SOL    HW210771   4.904   4.323   0.335
 3584SOL     OW10772   4.031   3.937   1.231
 3584SOL    HW110773   4.008   3.974   1.321
 3584SOL    HW210774   4.001   3.842   1.225
 3585SOL     OW10775   4.456   4.358   1.064
 3585SOL    HW110776   4.515   4.332   0.988
 3585SOL    HW210777   4.428   4.454   1.053
 3586SOL     OW10778   4.031   3.787   0.618
 3586SOL    HW110779   4.020   3.881   0.651
 3586SOL    HW210780   4.026   3.724   0.695
 3587SOL     OW10781   4.747   4.490   0.966
 3587SOL    HW110782   4.762   4.511   1.062
 3587SOL    HW210783   4.717   4.395   0.957
 3588SOL     OW10784   4.074   4.622   1.804
 3588SOL    HW110785   4.150   4.666   1.852
 3588SOL    HW210786   4.109   4.575   1.722
 3589SOL     OW10787   4.043   4.534   0.949
 3589SOL    HW110788   4.136   4.570   0.954
 3589SOL    HW210789   4.037   4.449   1.001
 3590SOL     OW10790   4.063   4.233   1.006
 3590SOL    HW110791   4.011   4.150   0.989
 3590SOL    HW210792   4.140   4.238   0.942
 3591SOL     OW10793   4.726   4.520   1.238
 3591SOL    HW110794   4.767   4.488   1.324
 3591SOL    HW210795   4.630   4.493   1.235
 3592SOL     OW10796   3.764   4.268   1.114
 3592SOL    HW110797   3.849   4.235   1.073
 3592SOL    HW210798   3.777   4.283   1.212
 3593SOL     OW10799   3.913   4.244   1.722
 3593SOL    HW110800   3.972   4.204   1.652
 3593SOL    HW210801   3.855   4.315   1.681
 3594SOL     OW10802   4.539   4.296   0.325
 3594SOL    HW110803   4.546   4.207   0.279
 3594SOL    HW210804   4.445   4.330   0.317
 3595SOL     OW10805   4.395   4.188   1.269
 3595SOL    HW110806   4.361   4.099   1.239
 3595SOL    HW210807   4.421   4.242   1.189
 3596SOL     OW10808   4.197   4.224   0.191
 3596SOL    HW110809   4.258   4.304   0.195
 3596SOL    HW210810   4.102   4.255   0.198
 3597SOL     OW10811   3.883   4.861   1.466
 3597SOL    HW110812   3.905   4.800   1.542
 3597SOL    HW210813   3.893   4.812   1.380
 3598SOL     OW10814   4.627   3.810   0.133
 3598SOL    HW110815   4.678   3.811   0.047
 3598SOL    HW210816   4.683   3.768   0.204
 3599SOL     OW10817   5.004   4.651   0.672
 3599SOL    HW110818   5.064   4.570   0.674
 3599SOL    HW210819   5.044   4.720   0.612
 3600SOL     OW10820   3.987   4.050   0.720
 3600SOL    HW110821   3.908   4.101   0.686
 3600SOL    HW210822   3.978   4.035   0.818
 3601SOL     OW10823   4.640   4.634   0.291
 3601SOL    HW110824   4.703   4.672   0.223
 3601SOL    HW210825   4.680   4.551   0.330
 3602SOL     OW10826   4.738   3.960   0.971
 3602SOL    HW110827   4.730   3.924   0.878
 3602SOL    HW210828   4.736   3.884   1.036
 3603SOL     OW10829   3.829   4.737   1.726
 3603SOL    HW110830   3.752   4.704   1.780
 3603SOL    HW210831   3.914   4.707   1.768
 3604SOL     OW10832   4.396   3.927   1.489
 3604SOL    HW110833   4.486   3.911   1.449
 3604SOL    HW210834   4.404   3.932   1.588
 3605SOL     OW10835   3.799   4.069   0.033
 3605SOL    HW110836   3.707   4.041   0.004
 3605SOL    HW210837   3.830   4.146  -0.023
 3606SOL     OW10838   3.796   3.890   0.318
 3606SOL    HW110839   3.779   3.973   0.264
 3606SOL    HW210840   3.886   3.853   0.296
 3607SOL     OW10841   4.337   4.566   1.431
 3607SOL    HW110842   4.393   4.647   1.414
 3607SOL    HW210843   4.396   4.486   1.434
 3608SOL     OW10844   4.440   4.289   1.708
 3608SOL    HW110845   4.459   4.354   1.782
 3608SOL    HW210846   4.500   4.209   1.717
 3609SOL     OW10847   4.318   4.469   0.652
 3609SOL    HW110848   4.368   4.554   0.633
 3609SOL    HW210849   4.230   4.471   0.604
 3610SOL     OW10850   4.583   4.680   0.861
 3610SOL    HW110851   4.637   4.611   0.909
 3610SOL    HW210852   4.551   4.749   0.927
 3611SOL     OW10853   4.152   4.148   0.520
 3611SOL    HW110854   4.182   4.076   0.458
 3611SOL    HW210855   4.113   4.108   0.603
 3612SOL     OW10856   4.041   4.271   1.280
 3612SOL    HW110857   4.079   4.212   1.352
 3612SOL    HW210858   4.081   4.245   1.192
 3613SOL     OW10859   4.725   3.758   1.154
 3613SOL    HW110860   4.662   3.686   1.123
 3613SOL    HW210861   4.818   3.722   1.154
 3614SOL     OW10862   3.763   4.801   0.300
 3614SOL    HW110863   3.862   4.790   0.291
 3614SOL    HW210864   3.723   4.715   0.332
 3615SOL     OW10865   3.954   4.352   1.975
 3615SOL    HW110866   3.861   4.350   2.012
 3615SOL    HW210867   3.955   4.313   1.883
 3616SOL     OW10868   3.949   3.999   2.858
 3616SOL    HW110869   3.984   3.982   2.950
 3616SOL    HW210870   3.861   3.954   2.846
 3617SOL     OW10871   3.743   4.092   2.509
 3617SOL    HW110872   3.661   4.135   2.548
 3617SOL    HW210873   3.715   4.019   2.446
 3618SOL     OW10874   4.492   4.868   2.885
 3618SOL    HW110875   4.414   4.885   2.945
 3618SOL    HW210876   4.526   4.955   2.849
 3619SOL     OW10877   4.574   4.522   3.685
 3619SOL    HW110878   4.570   4.598   3.750
 3619SOL    HW210879   4.596   4.558   3.594
 3620SOL     OW10880   4.409   4.736   2.527
 3620SOL    HW110881   4.478   4.720   2.597
 3620SOL    HW210882   4.336   4.793   2.565
 3621SOL     OW10883   4.162   4.116   3.361
 3621SOL    HW110884   4.244   4.060   3.370
 3621SOL    HW210885   4.081   4.058   3.365
 3622SOL     OW10886   3.954   5.158   2.400
 3622SOL    HW110887   3.928   5.254   2.400
 3622SOL    HW210888   3.883   5.104   2.445
 3623SOL     OW10889   3.964   4.815   2.748
 3623SOL    HW110890   3.978   4.731   2.800
 3623SOL    HW210891   3.909   4.879   2.803
 3624SOL     OW10892   4.330   4.688   1.985
 3624SOL    HW110893   4.337   4.772   1.931
 3624SOL    HW210894   4.376   4.701   2.073
 3625SOL     OW10895   3.846   4.367   2.425
 3625SOL    HW110896   3.801   4.279   2.442
 3625SOL    HW210897   3.845   4.421   2.509
 3626SOL     OW10898   3.837   4.461   3.459
 3626SOL    HW110899   3.925   4.448   3.504
 3626SOL    HW210900   3.824   4.558   3.437
 3627SOL     OW10901   4.533   3.728   2.364
 3627SOL    HW110902   4.573   3.819   2.355
 3627SOL    HW210903   4.433   3.736   2.370
 3628SOL     OW10904   3.921   4.700   3.126
 3628SOL    HW110905   4.010   4.655   3.112
 3628SOL    HW210906   3.848   4.635   3.107
 3629SOL     OW10907   4.041   3.975   3.663
 3629SOL    HW110908   4.112   4.046   3.669
 3629SOL    HW210909   3.953   4.014   3.691
 3630SOL     OW10910   4.322   4.453   2.132
 3630SOL    HW110911   4.346   4.522   2.064
 3630SOL    HW210912   4.244   4.486   2.186
 3631SOL     OW10913   4.531   4.329   3.327
 3631SOL    HW110914   4.484   4.326   3.416
 3631SOL    HW210915   4.480   4.274   3.261
 3632SOL     OW10916   4.697   4.614   3.434
 3632SOL    HW110917   4.743   4.530   3.405
 3632SOL    HW210918   4.641   4.648   3.359
 3633SOL     OW10919   4.715   4.134   3.104
 3633SOL    HW110920   4.638   4.168   3.158
 3633SOL    HW210921   4.681   4.083   3.025
 3634SOL     OW10922   4.765   4.425   2.291
 3634SOL    HW110923   4.791   4.421   2.387
 3634SOL    HW210924   4.680   4.374   2.277
 3635SOL     OW10925   3.800   4.535   2.651
 3635SOL    HW110926   3.899   4.523   2.660
 3635SOL    HW210927   3.776   4.630   2.672
 3636SOL     OW10928   4.589   4.072   2.057
 3636SOL    HW110929   4.648   4.135   2.008
 3636SOL    HW210930   4.608   3.978   2.028
 3637SOL     OW10931   4.274   3.920   2.747
 3637SOL    HW110932   4.269   3.915   2.847
 3637SOL    HW210933   4.276   4.016   2.718
 3638SOL     OW10934   3.926   4.009   3.360
 3638SOL    HW110935   3.846   4.069   3.347
 3638SOL    HW210936   3.916   3.960   3.446
 3639SOL     OW10937   4.106   4.424   2.342
 3639SOL    HW110938   4.151   4.334   2.339
 3639SOL    HW210939   4.012   4.413   2.375
 3640SOL     OW10940   4.338   3.846   1.979
 3640SOL    HW110941   4.436   3.824   1.986
 3640SOL    HW210942   4.307   3.829   1.886
 3641SOL     OW10943   4.505   3.988   3.611
 3641SOL    HW110944   4.572   3.927   3.654
 3641SOL    HW210945   4.432   4.007   3.676
 3642SOL     OW10946   4.646   4.227   2.761
 3642SOL    HW110947   4.621   4.218   2.665
 3642SOL    HW210948   4.694   4.145   2.792
 3643SOL     OW10949   4.263   3.788   2.374
 3643SOL    HW110950   4.182   3.789   2.432
 3643SOL    HW210951   4.266   3.871   2.319
 3644SOL     OW10952   4.021   3.759   2.033
 3644SOL    HW110953   4.070   3.843   2.012
 3644SOL    HW210954   4.083   3.694   2.078
 3645SOL     OW10955   4.659   3.960   2.342
 3645SOL    HW110956   4.611   4.001   2.264
 3645SOL    HW210957   4.758   3.958   2.323
 3646SOL     OW10958   4.756   4.273   1.878
 3646SOL    HW110959   4.715   4.355   1.839
 3646SOL    HW210960   4.820   4.299   1.951
 3647SOL     OW10961   3.802   4.280   3.248
 3647SOL    HW110962   3.894   4.279   3.207
 3647SOL    HW210963   3.796   4.354   3.315
 3648SOL     OW10964   4.285   3.946   3.009
 3648SOL    HW110965   4.323   3.862   3.046
 3648SOL    HW210966   4.197   3.965   3.053
 3649SOL     OW10967   4.590   4.178   2.504
 3649SOL    HW110968   4.558   4.250   2.442
 3649SOL    HW210969   4.614   4.097   2.451
 3650SOL     OW10970   4.741   3.763   2.615
 3650SOL    HW110971   4.669   3.768   2.546
 3650SOL    HW210972   4.717   3.694   2.684
 3651SOL     OW10973   4.251   3.980   2.190
 3651SOL    HW110974   4.278   3.921   2.115
 3651SOL    HW210975   4.251   4.075   2.159
 3652SOL     OW10976   4.639   3.813   3.264
 3652SOL    HW110977   4.664   3.793   3.169
 3652SOL    HW210978   4.711   3.869   3.306
 3653SOL     OW10979   4.134   4.537   3.113
 3653SOL    HW110980   4.220   4.549   3.163
 3653SOL    HW210981   4.092   4.450   3.140
 3654SOL     OW10982   4.290   4.261   2.727
 3654SOL    HW110983   4.302   4.327   2.653
 3654SOL    HW210984   4.336   4.295   2.810
 3655SOL     OW10985   4.126   4.475   3.460
 3655SOL    HW110986   4.194   4.530   3.413
 3655SOL    HW210987   4.166   4.387   3.487
 3656SOL     OW10988   4.737   3.829   3.632
 3656SOL    HW110989   4.743   3.914   3.580
 3656SOL    HW210990   4.769   3.753   3.575
 3657SOL     OW10991   4.228   3.774   3.602
 3657SOL    HW110992   4.186   3.717   3.532
 3657SOL    HW210993   4.162   3.843   3.634
 3658SOL     OW10994   4.297   4.594   2.891
 3658SOL    HW110995   4.341   4.683   2.882
 3658SOL    HW210996   4.234   4.594   2.968
 3659SOL     OW10997   4.933   4.249   2.137
 3659SOL    HW110998   4.946   4.165   2.191
 3659SOL    HW210999   4.904   4.323   2.197
 3660SOL     OW11000   4.031   3.937   3.093
 3660SOL    HW111001   4.008   3.974   3.183
 3660SOL    HW211002   4.001   3.842   3.087
 3661SOL     OW11003   4.456   4.358   2.926
 3661SOL    HW111004   4.515   4.332   2.850
 3661SOL    HW211005   4.428   4.454   2.915
 3662SOL     OW11006   4.031   3.787   2.480
 3662SOL    HW111007   4.020   3.881   2.513
 3662SOL    HW211008   4.026   3.724   2.557
 3663SOL     OW11009   4.747   4.490   2.828
 3663SOL    HW111010   4.762   4.511   2.924
 3663SOL    HW211011   4.717   4.395   2.819
 3664SOL     OW11012   4.074   4.622   3.666
 3664SOL    HW111013   4.150   4.666   3.714
 3664SOL    HW211014   4.109   4.575   3.584
 3665SOL     OW11015   4.043   4.534   2.811
 3665SOL    HW111016   4.136   4.570   2.816
 3665SOL    HW211017   4.037   4.449   2.863
 3666SOL     OW11018   4.063   4.233   2.868
 3666SOL    HW111019   4.011   4.150   2.851
 3666SOL    HW211020   4.140   4.238   2.804
 3667SOL     OW11021   4.726   4.520   3.100
 3667SOL    HW111022   4.767   4.488   3.186
 3667SOL    HW211023   4.630   4.493   3.097
 3668SOL     OW11024   3.764   4.268   2.976
 3668SOL    HW111025   3.849   4.235   2.935
 3668SOL    HW211026   3.777   4.283   3.074
 3669SOL     OW11027   3.913   4.244   3.584
 3669SOL    HW111028   3.972   4.204   3.514
 3669SOL    HW211029   3.855   4.315   3.543
 3670SOL     OW11030   4.539   4.296   2.187
 3670SOL    HW111031   4.546   4.207   2.141
 3670SOL    HW211032   4.445   4.330   2.179
 3671SOL     OW11033   4.395   4.188   3.131
 3671SOL    HW111034   4.361   4.099   3.101
 3671SOL    HW211035   4.421   4.242   3.051
 3672SOL     OW11036   4.197   4.224   2.053
 3672SOL    HW111037   4.258   4.304   2.057
 3672SOL    HW211038   4.102   4.255   2.060
 3673SOL     OW11039   3.883   4.861   3.328
 3673SOL    HW111040   3.905   4.800   3.404
 3673SOL    HW211041   3.893   4.812   3.242
 3674SOL     OW11042   5.026   4.579   2.171
 3674SOL    HW111043   4.940   4.548   2.213
 3674SOL    HW211044   5.022   4.565   2.072
 3675SOL     OW11045   5.004   4.651   2.534
 3675SOL    HW111046   5.064   4.570   2.536
 3675SOL    HW211047   5.044   4.720   2.474
 3676SOL     OW11048   3.987   4.050   2.582
 3676SOL    HW111049   3.908   4.101   2.548
 3676SOL    HW211050   3.978   4.035   2.680
 3677SOL     OW11051   4.640   4.634   2.153
 3677SOL    HW111052   4.703   4.672   2.085
 3677SOL    HW211053   4.680   4.551   2.192
 3678SOL     OW11054   4.738   3.960   2.833
 3678SOL    HW111055   4.730   3.924   2.740
 3678SOL    HW211056   4.736   3.884   2.898
 3679SOL     OW11057   3.829   4.737   3.588
 3679SOL    HW111058   3.752   4.704   3.642
 3679SOL    HW211059   3.914   4.707   3.630
 3680SOL     OW11060   4.396   3.927   3.351
 3680SOL    HW111061   4.486   3.911   3.311
 3680SOL    HW211062   4.404   3.932   3.450
 3681SOL     OW11063   3.799   4.069   1.895
 3681SOL    HW111064   3.707   4.041   1.866
 3681SOL    HW211065   3.830   4.146   1.839
 3682SOL     OW11066   3.796   3.890   2.180
 3682SOL    HW111067   3.779   3.973   2.126
 3682SOL    HW211068   3.886   3.853   2.158
 3683SOL     OW11069   4.337   4.566   3.293
 3683SOL    HW111070   4.393   4.647   3.276
 3683SOL    HW211071   4.396   4.486   3.296
 3684SOL     OW11072   4.440   4.289   3.570
 3684SOL    HW111073   4.459   4.354   3.644
 3684SOL    HW211074   4.500   4.209   3.579
 3685SOL     OW11075   4.318   4.469   2.514
 3685SOL    HW111076   4.368   4.554   2.495
 3685SOL    HW211077   4.230   4.471   2.466
 3686SOL     OW11078   4.583   4.680   2.723
 3686SOL    HW111079   4.637   4.611   2.771
 3686SOL    HW211080   4.551   4.749   2.789
 3687SOL     OW11081   4.807   4.708   1.949
 3687SOL    HW111082   4.784   4.761   1.867
 3687SOL    HW211083   4.888   4.652   1.930
 3688SOL     OW11084   4.152   4.148   2.382
 3688SOL    HW111085   4.182   4.076   2.320
 3688SOL    HW211086   4.113   4.108   2.465
 3689SOL     OW11087   4.041   4.271   3.142
 3689SOL    HW111088   4.079   4.212   3.214
 3689SOL    HW211089   4.081   4.245   3.054
 3690SOL     OW11090   4.725   3.758   3.016
 3690SOL    HW111091   4.662   3.686   2.985
 3690SOL    HW211092   4.818   3.722   3.016
 3691SOL     OW11093   3.763   4.801   2.162
 3691SOL    HW111094   3.862   4.790   2.153
 3691SOL    HW211095   3.723   4.715   2.194
 3692SOL     OW11096   3.954   4.352   3.837
 3692SOL    HW111097   3.861   4.350   3.874
 3692SOL    HW211098   3.955   4.313   3.745
 3693SOL     OW11099   3.949   3.999   4.720
 3693SOL    HW111100   3.984   3.982   4.812
 3693SOL    HW211101   3.861   3.954   4.708
 3694SOL     OW11102   3.743   4.092   4.371
 3694SOL    HW111103   3.661   4.135   4.410
 3694SOL    HW211104   3.715   4.019   4.308
 3695SOL     OW11105   4.492   4.868   4.747
 3695SOL    HW111106   4.414   4.885   4.807
 3695SOL    HW211107   4.526   4.955   4.711
 3696SOL     OW11108   4.409   4.736   4.389
 3696SOL    HW111109   4.478   4.720   4.459
 3696SOL    HW211110   4.336   4.793   4.427
 3697SOL     OW11111   3.954   5.158   4.262
 3697SOL    HW111112   3.928   5.254   4.262
 3697SOL    HW211113   3.883   5.104   4.307
 3698SOL     OW11114   3.964   4.815   4.610
 3698SOL    HW111115   3.978   4.731   4.662
 3698SOL    HW211116   3.909   4.879   4.665
 3699SOL     OW11117   4.330   4.688   3.847
 3699SOL    HW111118   4.337   4.772   3.793
 3699SOL    HW211119   4.376   4.701   3.935
 3700SOL     OW11120   3.846   4.367   4.287
 3700SOL    HW111121   3.801   4.279   4.304
 3700SOL    HW211122   3.845   4.421   4.371
 3701SOL     OW11123   4.533   3.728   4.226
 3701SOL    HW111124   4.573   3.819   4.217
 3701SOL    HW211125   4.433   3.736   4.232
 3702SOL     OW11126   3.921   4.700   4.988
 3702SOL    HW111127   4.010   4.655   4.974
 3702SOL    HW211128   3.848   4.635   4.969
 3703SOL     OW11129   4.322   4.453   3.994
 3703SOL    HW111130   4.346   4.522   3.926
 3703SOL    HW211131   4.244   4.486   4.048
 3704SOL     OW11132   4.765   4.425   4.153
 3704SOL    HW111133   4.791   4.421   4.249
 3704SOL    HW211134   4.680   4.374   4.139
 3705SOL     OW11135   3.800   4.535   4.513
 3705SOL    HW111136   3.899   4.523   4.522
 3705SOL    HW211137   3.776   4.630   4.534
 3706SOL     OW11138   4.589   4.072   3.919
 3706SOL    HW111139   4.648   4.135   3.870
 3706SOL    HW211140   4.608   3.978   3.890
 3707SOL     OW11141   4.274   3.920   4.609
 3707SOL    HW111142   4.269   3.915   4.709
 3707SOL    HW211143   4.276   4.016   4.580
 3708SOL     OW11144   4.106   4.424   4.204
 3708SOL    HW111145   4.151   4.334   4.201
 3708SOL    HW211146   4.012   4.413   4.237
 3709SOL     OW11147   4.338   3.846   3.841
 3709SOL    HW111148   4.436   3.824   3.848
 3709SOL    HW211149   4.307   3.829   3.748
 3710SOL     OW11150   4.646   4.227   4.623
 3710SOL    HW111151   4.621   4.218   4.527
 3710SOL    HW211152   4.694   4.145   4.654
 3711SOL     OW11153   4.263   3.788   4.236
 3711SOL    HW111154   4.182   3.789   4.294
 3711SOL    HW211155   4.266   3.871   4.181
 3712SOL     OW11156   4.021   3.759   3.895
 3712SOL    HW111157   4.070   3.843   3.874
 3712SOL    HW211158   4.083   3.694   3.940
 3713SOL     OW11159   4.659   3.960   4.204
 3713SOL    HW111160   4.611   4.001   4.126
 3713SOL    HW211161   4.758   3.958   4.185
 3714SOL     OW11162   4.756   4.273   3.740
 3714SOL    HW111163   4.715   4.355   3.701
 3714SOL    HW211164   4.820   4.299   3.813
 3715SOL     OW11165   4.590   4.178   4.366
 3715SOL    HW111166   4.558   4.250   4.304
 3715SOL    HW211167   4.614   4.097   4.313
 3716SOL     OW11168   4.741   3.763   4.477
 3716SOL    HW111169   4.669   3.768   4.408
 3716SOL    HW211170   4.717   3.694   4.546
 3717SOL     OW11171   4.251   3.980   4.052
 3717SOL    HW111172   4.278   3.921   3.977
 3717SOL    HW211173   4.251   4.075   4.021
 3718SOL     OW11174   4.290   4.261   4.589
 3718SOL    HW111175   4.302   4.327   4.515
 3718SOL    HW211176   4.336   4.295   4.672
 3719SOL     OW11177   4.297   4.594   4.753
 3719SOL    HW111178   4.341   4.683   4.744
 3719SOL    HW211179   4.234   4.594   4.830
 3720SOL     OW11180   4.933   4.249   3.999
 3720SOL    HW111181   4.946   4.165   4.053
 3720SOL    HW211182   4.904   4.323   4.059
 3721SOL     OW11183   4.031   3.937   4.955
 3721SOL    HW111184   4.008   3.974   5.045
 3721SOL    HW211185   4.001   3.842   4.949
 3722SOL     OW11186   4.456   4.358   4.788
 3722SOL    HW111187   4.515   4.332   4.712
 3722SOL    HW211188   4.428   4.454   4.777
 3723SOL     OW11189   4.031   3.787   4.342
 3723SOL    HW111190   4.020   3.881   4.375
 3723SOL    HW211191   4.026   3.724   4.419
 3724SOL     OW11192   4.747   4.490   4.690
 3724SOL    HW111193   4.762   4.511   4.786
 3724SOL    HW211194   4.717   4.395   4.681
 3725SOL     OW11195   4.043   4.534   4.673
 3725SOL    HW111196   4.136   4.570   4.678
 3725SOL    HW211197   4.037   4.449   4.725
 3726SOL     OW11198   4.063   4.233   4.730
 3726SOL    HW111199   4.011   4.150   4.713
 3726SOL    HW211200   4.140   4.238   4.666
 3727SOL     OW11201   4.726   4.520   4.962
 3727SOL    HW111202   4.767   4.488   5.048
 3727SOL    HW211203   4.630   4.493   4.959
 3728SOL     OW11204   4.539   4.296   4.049
 3728SOL    HW111205   4.546   4.207   4.003
 3728SOL    HW211206   4.445   4.330   4.041
 3729SOL     OW11207   4.395   4.188   4.993
 3729SOL    HW111208   4.361   4.099   4.963
 3729SOL    HW211209   4.421   4.242   4.913
 3730SOL     OW11210   4.197   4.224   3.915
 3730SOL    HW111211   4.258   4.304   3.919
 3730SOL    HW211212   4.102   4.255   3.922
 3731SOL     OW11213   5.026   4.579   4.033
 3731SOL    HW111214   4.940   4.548   4.075
 3731SOL    HW211215   5.022   4.565   3.934
 3732SOL     OW11216   5.004   4.651   4.396
 3732SOL    HW111217   5.064   4.570   4.398
 3732SOL    HW211218   5.044   4.720   4.336
 3733SOL     OW11219   3.987   4.050   4.444
 3733SOL    HW111220   3.908   4.101   4.410
 3733SOL    HW211221   3.978   4.035   4.542
 3734SOL     OW11222   4.640   4.634   4.015
 3734SOL    HW111223   4.703   4.672   3.947
 3734SOL    HW211224   4.680   4.551   4.054
 3735SOL     OW11225   4.738   3.960   4.695
 3735SOL    HW111226   4.730   3.924   4.602
 3735SOL    HW211227   4.736   3.884   4.760
 3736SOL     OW11228   3.799   4.069   3.757
 3736SOL    HW111229   3.707   4.041   3.728
 3736SOL    HW211230   3.830   4.146   3.701
 3737SOL     OW11231   3.796   3.890   4.042
 3737SOL    HW111232   3.779   3.973   3.988
 3737SOL    HW211233   3.886   3.853   4.020
 3738SOL     OW11234   4.318   4.469   4.376
 3738SOL    HW111235   4.368   4.554   4.357
 3738SOL    HW211236   4.230   4.471   4.328
 3739SOL     OW11237   4.583   4.680   4.585
 3739SOL    HW111238   4.637   4.611   4.633
 3739SOL    HW211239   4.551   4.749   4.651
 3740SOL     OW11240   4.807   4.708   3.811
 3740SOL    HW111241   4.784   4.761   3.729
 3740SOL    HW211242   4.888   4.652   3.792
 3741SOL     OW11243   4.152   4.148   4.244
 3741SOL    HW111244   4.182   4.076   4.182
 3741SOL    HW211245   4.113   4.108   4.327
 3742SOL     OW11246   3.763   4.801   4.024
 3742SOL    HW111247   3.862   4.790   4.015
 3742SOL    HW211248   3.723   4.715   4.056
   4.85311   4.85311   4.85311
