; mobley_2295058_GMX_OPLS.top created by acpype (v: 2023.10.27) on Thu May 21 00:02:00 2026

; Include forcefield parameters
#include "ffoplsaa.itp"

; Include mobley_2295058_GMX.itp topology
#include "mobley_2295058_GMX.itp"

; Ligand position restraints
#ifdef POSRES_LIG
#include "posre_mobley_2295058.itp"
#endif

[ system ]
 mobley_2295058

[ molecules ]
; Compound        nmols
 mobley_2295058   1     
