methyl
    19
   1.8850000  -1.0360000  -0.1120000   2.8780000  -1.6520000   2.0020000
   0.8070000  -0.4630000   0.5610000   1.8000000  -1.0790000   2.6760000
   2.9210000  -1.6310000   0.6080000   0.7640000  -0.4840000   1.9550000
   4.0460000  -2.2280000  -0.0940000   6.1160000  -3.3760000   0.2050000
   4.1680000  -2.2560000  -1.3250000  -0.2890000   0.0740000   2.6120000
   4.9580000  -2.7580000   0.7770000   1.9090000  -1.0150000  -1.1990000
   3.6800000  -2.1130000   2.5730000   0.0030000  -0.0010000  -0.0060000
   1.7710000  -1.0990000   3.7620000   6.7590000  -3.7560000   1.0030000
   6.6590000  -2.6450000  -0.3990000   5.7980000  -4.2070000  -0.4300000
  -0.1750000  -0.0190000   3.5710000
