; mobley_2295058_GMX_OPLS.itp created by acpype (v: 2023.10.27) on Thu May 21 00:02:00 2026

; For OPLS atomtypes manual fine tuning
; AC_at:OPLS_at:OPLScode: Possible_Alternatives (see ffoplsaa.atp and ffoplsaanb.itp)
; ca:CA:opls_145: ['166', '501', '502']
; c:C:opls_235: ['271']
; c3:CT:opls_135: ['136', '137', '149', '157', '158', '206', '209', '210', '223B', '224B', '245', '246', '274', '283', '284', '285', '292', '292B', '293B', '296', '307', '308', '505']
; o:O:opls_236: ['272']
; oh:OH:opls_154: ['167']
; os:x:opls_x: []
; ha:HA:opls_146: []
; h1:HC:opls_140: []
; ho:HO:opls_155: ['168']

[ moleculetype ]
;name            nrexcl
 mobley_2295058   3

[ atoms ]
;   nr  type  resi  res  atom  cgnr     charge      mass       ; qtot   bond_type
     1 opls_145     1   MOL    C1    1    -0.033500     12.01100 ; qtot -0.033  CA  
     2 opls_145     1   MOL    C2    2    -0.033500     12.01100 ; qtot -0.067  CA  
     3 opls_145     1   MOL    C3    3    -0.205000     12.01100 ; qtot -0.272  CA  
     4 opls_145     1   MOL    C4    4    -0.205000     12.01100 ; qtot -0.477  CA  
     5 opls_145     1   MOL    C5    5    -0.173600     12.01100 ; qtot -0.651  CA  
     6 opls_145     1   MOL    C6    6     0.159100     12.01100 ; qtot -0.491  CA  
     7 opls_235     1   MOL    C7    7     0.647699     12.01100 ; qtot  0.156  C   
     8 opls_135     1   MOL    C8    8     0.128700     12.01100 ; qtot  0.285  CT  
     9 opls_236     1   MOL    O1    9    -0.547000     15.99940 ; qtot -0.262  O   
    10 opls_154     1   MOL    O2   10    -0.490100     15.99940 ; qtot -0.752  OH  
    11 opls_x     1   MOL    O3   11    -0.442900      0.00000 ; qtot -1.195  x   
    12 opls_146     1   MOL    H1   12     0.159000      1.00800 ; qtot -1.036  HA  
    13 opls_146     1   MOL    H2   13     0.159000      1.00800 ; qtot -0.877  HA  
    14 opls_146     1   MOL    H3   14     0.149000      1.00800 ; qtot -0.728  HA  
    15 opls_146     1   MOL    H4   15     0.149000      1.00800 ; qtot -0.579  HA  
    16 opls_140     1   MOL    H5   16     0.051367      1.00800 ; qtot -0.528  HC  
    17 opls_140     1   MOL    H6   17     0.051367      1.00800 ; qtot -0.476  HC  
    18 opls_140     1   MOL    H7   18     0.051367      1.00800 ; qtot -0.425  HC  
    19 opls_155     1   MOL    H8   19     0.425000      1.00800 ; qtot  0.000  HO  

[ bonds ]
;   ai     aj funct   r             k
     1      3   1 ;    1.3986e-01    2.9644e+05 ;     C1 - C3         CA - CA    
     1      5   1 ;    1.3986e-01    2.9644e+05 ;     C1 - C5         CA - CA    
     1     12   1 ;    1.0860e-01    3.0183e+05 ;     C1 - H1         CA - HA    
     2      4   1 ;    1.3986e-01    2.9644e+05 ;     C2 - C4         CA - CA    
     2      5   1 ;    1.3986e-01    2.9644e+05 ;     C2 - C5         CA - CA    
     2     13   1 ;    1.0860e-01    3.0183e+05 ;     C2 - H2         CA - HA    
     3      6   1 ;    1.3986e-01    2.9644e+05 ;     C3 - C6         CA - CA    
     3     14   1 ;    1.0860e-01    3.0183e+05 ;     C3 - H3         CA - HA    
     4      6   1 ;    1.3986e-01    2.9644e+05 ;     C4 - C6         CA - CA    
     4     15   1 ;    1.0860e-01    3.0183e+05 ;     C4 - H4         CA - HA    
     5      7   1 ;    1.4907e-01    2.1994e+05 ;     C5 - C7         CA - C     
     6     10   1 ;    1.3644e-01    2.9167e+05 ;     C6 - O2         CA - OH    
     7      9   1 ;    1.2190e-01    4.9421e+05 ;     C7 - O1          C - O     
     7     11   1 ;    1.3621e-01    2.9398e+05 ;     C7 - O3          C - x     
     8     11   1 ;    1.4273e-01    2.3620e+05 ;     C8 - O3         CT - x     
     8     16   1 ;    1.0969e-01    2.8804e+05 ;     C8 - H5         CT - HC    
     8     17   1 ;    1.0969e-01    2.8804e+05 ;     C8 - H6         CT - HC    
     8     18   1 ;    1.0969e-01    2.8804e+05 ;     C8 - H7         CT - HC    
    10     19   1 ;    9.7250e-02    4.4811e+05 ;     O2 - H8         OH - HO    

[ pairs ]
;   ai     aj    funct
     1      4      1 ;     C1 - C4    
     1      9      1 ;     C1 - O1    
     1     10      1 ;     C1 - O2    
     1     11      1 ;     C1 - O3    
     1     13      1 ;     C1 - H2    
     2      3      1 ;     C2 - C3    
     2      9      1 ;     C2 - O1    
     2     10      1 ;     C2 - O2    
     2     11      1 ;     C2 - O3    
     3      7      1 ;     C3 - C7    
     3     15      1 ;     C3 - H4    
     3     19      1 ;     C3 - H8    
     4      7      1 ;     C4 - C7    
     4     14      1 ;     C4 - H3    
     4     19      1 ;     C4 - H8    
     5      6      1 ;     C5 - C6    
     5      8      1 ;     C5 - C8    
     5     14      1 ;     C5 - H3    
     5     15      1 ;     C5 - H4    
     6     13      1 ;     C6 - H2    
     7     13      1 ;     C7 - H2    
     7     16      1 ;     C7 - H5    
     7     17      1 ;     C7 - H6    
     7     18      1 ;     C7 - H7    
     8      9      1 ;     C8 - O1    
    10     14      1 ;     O2 - H3    
    10     15      1 ;     O2 - H4    
    12      2      1 ;     H1 - C2    
    12      6      1 ;     H1 - C6    
    12      7      1 ;     H1 - C7    
    12     14      1 ;     H1 - H3    
    13     15      1 ;     H2 - H4    

[ angles ]
;   ai     aj     ak    funct   theta         cth
     1      3      6      1 ;    1.2002e+02    5.3279e+02 ;     C1 - C3   - C6       CA -   CA - CA  
     1      3     14      1 ;    1.1988e+02    3.7572e+02 ;     C1 - C3   - H3       CA -   CA - HA  
     1      5      2      1 ;    1.2002e+02    5.3279e+02 ;     C1 - C5   - C2       CA -   CA - CA  
     1      5      7      1 ;    1.2033e+02    5.1413e+02 ;     C1 - C5   - C7       CA -   CA - C   
     2      4      6      1 ;    1.2002e+02    5.3279e+02 ;     C2 - C4   - C6       CA -   CA - CA  
     2      4     15      1 ;    1.1988e+02    3.7572e+02 ;     C2 - C4   - H4       CA -   CA - HA  
     2      5      7      1 ;    1.2033e+02    5.1413e+02 ;     C2 - C5   - C7       CA -   CA - C   
     3      1      5      1 ;    1.2002e+02    5.3279e+02 ;     C3 - C1   - C5       CA -   CA - CA  
     3      1     12      1 ;    1.1988e+02    3.7572e+02 ;     C3 - C1   - H1       CA -   CA - HA  
     3      6      4      1 ;    1.2002e+02    5.3279e+02 ;     C3 - C6   - C4       CA -   CA - CA  
     3      6     10      1 ;    1.1990e+02    6.5990e+02 ;     C3 - C6   - O2       CA -   CA - OH  
     4      2      5      1 ;    1.2002e+02    5.3279e+02 ;     C4 - C2   - C5       CA -   CA - CA  
     4      2     13      1 ;    1.1988e+02    3.7572e+02 ;     C4 - C2   - H2       CA -   CA - HA  
     4      6     10      1 ;    1.1990e+02    6.5990e+02 ;     C4 - C6   - O2       CA -   CA - OH  
     5      1     12      1 ;    1.1988e+02    3.7572e+02 ;     C5 - C1   - H1       CA -   CA - HA  
     5      2     13      1 ;    1.1988e+02    3.7572e+02 ;     C5 - C2   - H2       CA -   CA - HA  
     5      7      9      1 ;    1.2260e+02    6.5237e+02 ;     C5 - C7   - O1       CA -    C - O   
     5      7     11      1 ;    1.1241e+02    6.5756e+02 ;     C5 - C7   - O3       CA -    C - x   
     6      3     14      1 ;    1.1988e+02    3.7572e+02 ;     C6 - C3   - H3       CA -   CA - HA  
     6      4     15      1 ;    1.1988e+02    3.7572e+02 ;     C6 - C4   - H4       CA -   CA - HA  
     6     10     19      1 ;    1.0858e+02    5.6409e+02 ;     C6 - O2   - H8       CA -   OH - HO  
     7     11      8      1 ;    1.1582e+02    7.4835e+02 ;     C7 - O3   - C8        C -    x - CT  
     9      7     11      1 ;    1.2320e+02    8.4734e+02 ;     O1 - C7   - O3        O -    C - x   
    11      8     16      1 ;    1.1034e+02    4.7028e+02 ;     O3 - C8   - H5        x -   CT - HC  
    11      8     17      1 ;    1.1034e+02    4.7028e+02 ;     O3 - C8   - H6        x -   CT - HC  
    11      8     18      1 ;    1.1034e+02    4.7028e+02 ;     O3 - C8   - H7        x -   CT - HC  
    16      8     17      1 ;    1.0855e+02    2.9824e+02 ;     H5 - C8   - H6       HC -   CT - HC  
    16      8     18      1 ;    1.0855e+02    2.9824e+02 ;     H5 - C8   - H7       HC -   CT - HC  
    17      8     18      1 ;    1.0855e+02    2.9824e+02 ;     H6 - C8   - H7       HC -   CT - HC  

[ dihedrals ] ; propers
; for gromacs 4.5 or higher, using funct 9
;    i      j      k      l   func   phase     kd      pn
     1      3      6      4      9 ;   180.00  15.16700   2 ;     C1-    C3-    C6-    C4
     1      3      6     10      9 ;   180.00  15.16700   2 ;     C1-    C3-    C6-    O2
     1      5      2      4      9 ;   180.00  15.16700   2 ;     C1-    C5-    C2-    C4
     1      5      2     13      9 ;   180.00  15.16700   2 ;     C1-    C5-    C2-    H2
     1      5      7      9      9 ;   180.00   2.42672   2 ;     C1-    C5-    C7-    O1
     1      5      7     11      9 ;   180.00   4.18400   2 ;     C1-    C5-    C7-    O3
     2      4      6      3      9 ;   180.00  15.16700   2 ;     C2-    C4-    C6-    C3
     2      4      6     10      9 ;   180.00  15.16700   2 ;     C2-    C4-    C6-    O2
     2      5      7      9      9 ;   180.00   2.42672   2 ;     C2-    C5-    C7-    O1
     2      5      7     11      9 ;   180.00   4.18400   2 ;     C2-    C5-    C7-    O3
     3      1      5      2      9 ;   180.00  15.16700   2 ;     C3-    C1-    C5-    C2
     3      1      5      7      9 ;   180.00  15.16700   2 ;     C3-    C1-    C5-    C7
     3      6      4     15      9 ;   180.00  15.16700   2 ;     C3-    C6-    C4-    H4
     3      6     10     19      9 ;   180.00   3.57732   2 ;     C3-    C6-    O2-    H8
     4      2      5      7      9 ;   180.00  15.16700   2 ;     C4-    C2-    C5-    C7
     4      6      3     14      9 ;   180.00  15.16700   2 ;     C4-    C6-    C3-    H3
     4      6     10     19      9 ;   180.00   3.57732   2 ;     C4-    C6-    O2-    H8
     5      1      3      6      9 ;   180.00  15.16700   2 ;     C5-    C1-    C3-    C6
     5      1      3     14      9 ;   180.00  15.16700   2 ;     C5-    C1-    C3-    H3
     5      2      4      6      9 ;   180.00  15.16700   2 ;     C5-    C2-    C4-    C6
     5      2      4     15      9 ;   180.00  15.16700   2 ;     C5-    C2-    C4-    H4
     5      7     11      8      9 ;     0.00   1.29704   3 ;     C5-    C7-    O3-    C8
     5      7     11      8      9 ;   180.00   6.69440   1 ;     C5-    C7-    O3-    C8
     5      7     11      8      9 ;   180.00  15.35528   2 ;     C5-    C7-    O3-    C8
     6      4      2     13      9 ;   180.00  15.16700   2 ;     C6-    C4-    C2-    H2
     7      5      2     13      9 ;   180.00  15.16700   2 ;     C7-    C5-    C2-    H2
     7     11      8     16      9 ;     0.00   1.60387   3 ;     C7-    O3-    C8-    H5
     7     11      8     17      9 ;     0.00   1.60387   3 ;     C7-    O3-    C8-    H6
     7     11      8     18      9 ;     0.00   1.60387   3 ;     C7-    O3-    C8-    H7
     8     11      7      9      9 ;   180.00   5.85760   1 ;     C8-    O3-    C7-    O1
     8     11      7      9      9 ;   180.00  11.29680   2 ;     C8-    O3-    C7-    O1
    10      6      3     14      9 ;   180.00  15.16700   2 ;     O2-    C6-    C3-    H3
    10      6      4     15      9 ;   180.00  15.16700   2 ;     O2-    C6-    C4-    H4
    12      1      3      6      9 ;   180.00  15.16700   2 ;     H1-    C1-    C3-    C6
    12      1      3     14      9 ;   180.00  15.16700   2 ;     H1-    C1-    C3-    H3
    12      1      5      2      9 ;   180.00  15.16700   2 ;     H1-    C1-    C5-    C2
    12      1      5      7      9 ;   180.00  15.16700   2 ;     H1-    C1-    C5-    C7
    13      2      4     15      9 ;   180.00  15.16700   2 ;     H2-    C2-    C4-    H4

[ dihedrals ] ; impropers
; treated as propers in GROMACS to use correct AMBER analytical function
;    i      j      k      l   func   phase     kd      pn
     1      6      3     14      4 ;   180.00   4.60240   2 ;     C1-    C6-    C3-    H3
     2      6      4     15      4 ;   180.00   4.60240   2 ;     C2-    C6-    C4-    H4
     3      4      6     10      4 ;   180.00   4.60240   2 ;     C3-    C4-    C6-    O2
     4      5      2     13      4 ;   180.00   4.60240   2 ;     C4-    C5-    C2-    H2
     5      9      7     11      4 ;   180.00   4.60240   2 ;     C5-    O1-    C7-    O3
     7      1      5      2      4 ;   180.00   4.60240   2 ;     C7-    C1-    C5-    C2
    12      1      5      3      4 ;   180.00   4.60240   2 ;     H1-    C1-    C5-    C3
