%VERSION  VERSION_STAMP = V0001.000  DATE = 05/21/26  00:02:01                  
%FLAG TITLE                                                                     
%FORMAT(20a4)                                                                   
methyl                                                                          
%FLAG POINTERS                                                                  
%FORMAT(10I8)                                                                   
      19       8       8      11      15      14      23      22       0       0
      84       1      11      14      22       9      11      11       9       0
       0       0       0       0       0       0       0       0      19       0
       0
%FLAG ATOM_NAME                                                                 
%FORMAT(20a4)                                                                   
C1  C2  C3  C4  C5  C6  C7  C8  O1  O2  O3  H1  H2  H3  H4  H5  H6  H7  H8  
%FLAG CHARGE                                                                    
%FORMAT(5E16.8)                                                                 
 -6.10447050E-01 -6.10447050E-01 -3.73557150E+00 -3.73557150E+00 -3.16339128E+00
  2.89916793E+00  1.18390283E+01  2.34521001E+00 -9.96759810E+00 -8.93074923E+00
 -8.07065667E+00  2.89734570E+00  2.89734570E+00  2.71512270E+00  2.71512270E+00
  9.36024884E-01  9.36024884E-01  9.36024884E-01  7.74447750E+00
%FLAG ATOMIC_NUMBER                                                             
%FORMAT(10I8)                                                                   
       6       6       6       6       6       6       6       6       8       8
       8       1       1       1       1       1       1       1       1
%FLAG MASS                                                                      
%FORMAT(5E16.8)                                                                 
  1.20100000E+01  1.20100000E+01  1.20100000E+01  1.20100000E+01  1.20100000E+01
  1.20100000E+01  1.20100000E+01  1.20100000E+01  1.60000000E+01  1.60000000E+01
  1.60000000E+01  1.00800000E+00  1.00800000E+00  1.00800000E+00  1.00800000E+00
  1.00800000E+00  1.00800000E+00  1.00800000E+00  1.00800000E+00
%FLAG ATOM_TYPE_INDEX                                                           
%FORMAT(10I8)                                                                   
       1       1       1       1       1       1       1       2       3       4
       5       6       6       6       6       7       7       7       8
%FLAG NUMBER_EXCLUDED_ATOMS                                                     
%FORMAT(10I8)                                                                   
      12      11       9       8       9       6       8       5       1       3
       3       1       1       1       1       2       1       1       1
%FLAG NONBONDED_PARM_INDEX                                                      
%FORMAT(10I8)                                                                   
       1       2       4       7      11      16      22      29       2       3
       5       8      12      17      23      30       4       5       6       9
      13      18      24      31       7       8       9      10      14      19
      25      32      11      12      13      14      15      20      26      33
      16      17      18      19      20      21      27      34      22      23
      24      25      26      27      28      35      29      30      31      32
      33      34      35      36
%FLAG RESIDUE_LABEL                                                             
%FORMAT(20a4)                                                                   
MOL 
%FLAG RESIDUE_POINTER                                                           
%FORMAT(10I8)                                                                   
       1
%FLAG BOND_FORCE_CONSTANT                                                       
%FORMAT(5E16.8)                                                                 
  3.54250000E+02  3.60690000E+02  2.62840000E+02  3.48550000E+02  5.90600000E+02
  3.51310000E+02  2.82270000E+02  3.44220000E+02  5.35510000E+02
%FLAG BOND_EQUIL_VALUE                                                          
%FORMAT(5E16.8)                                                                 
  1.39860000E+00  1.08600000E+00  1.49070000E+00  1.36440000E+00  1.21900000E+00
  1.36210000E+00  1.42730000E+00  1.09690000E+00  9.72500000E-01
%FLAG ANGLE_FORCE_CONSTANT                                                      
%FORMAT(5E16.8)                                                                 
  6.36700000E+01  4.49000000E+01  6.14400000E+01  7.88600000E+01  7.79600000E+01
  7.85800000E+01  6.74100000E+01  8.94300000E+01  1.01260000E+02  5.62000000E+01
  3.56400000E+01
%FLAG ANGLE_EQUIL_VALUE                                                         
%FORMAT(5E16.8)                                                                 
  2.09474507E+00  2.09230160E+00  2.10015559E+00  2.09265067E+00  2.13977458E+00
  1.96192545E+00  1.89507931E+00  2.02144121E+00  2.15024656E+00  1.92579712E+00
  1.89455572E+00
%FLAG DIHEDRAL_FORCE_CONSTANT                                                   
%FORMAT(5E16.8)                                                                 
  3.62500000E+00  5.80000000E-01  1.00000000E+00  8.55000000E-01  1.60000000E+00
  3.67000000E+00  3.10000000E-01  3.83333333E-01  1.40000000E+00  2.70000000E+00
  1.10000000E+00
%FLAG DIHEDRAL_PERIODICITY                                                      
%FORMAT(5E16.8)                                                                 
  2.00000000E+00  2.00000000E+00  2.00000000E+00  2.00000000E+00  1.00000000E+00
  2.00000000E+00  3.00000000E+00  3.00000000E+00  1.00000000E+00  2.00000000E+00
  2.00000000E+00
%FLAG DIHEDRAL_PHASE                                                            
%FORMAT(5E16.8)                                                                 
  3.14159400E+00  3.14159400E+00  3.14159400E+00  3.14159400E+00  3.14159400E+00
  3.14159400E+00  0.00000000E+00  0.00000000E+00  3.14159400E+00  3.14159400E+00
  3.14159400E+00
%FLAG SCEE_SCALE_FACTOR                                                         
%FORMAT(5E16.8)                                                                 
  1.20000000E+00  1.20000000E+00  1.20000000E+00  1.20000000E+00  1.20000000E+00
  1.20000000E+00  1.20000000E+00  1.20000000E+00  1.20000000E+00  1.20000000E+00
  0.00000000E+00
%FLAG SCNB_SCALE_FACTOR                                                         
%FORMAT(5E16.8)                                                                 
  2.00000000E+00  2.00000000E+00  2.00000000E+00  2.00000000E+00  2.00000000E+00
  2.00000000E+00  2.00000000E+00  2.00000000E+00  2.00000000E+00  2.00000000E+00
  0.00000000E+00
%FLAG SOLTY                                                                     
%FORMAT(5E16.8)                                                                 
  0.00000000E+00  0.00000000E+00  0.00000000E+00  0.00000000E+00  0.00000000E+00
  0.00000000E+00  0.00000000E+00  0.00000000E+00  0.00000000E+00
%FLAG LENNARD_JONES_ACOEF                                                       
%FORMAT(5E16.8)                                                                 
  6.96551276E+05  8.43969952E+05  1.02073671E+06  5.17507491E+05  6.30925504E+05
  3.76435470E+05  5.92438683E+05  7.18991463E+05  4.37717034E+05  5.03152404E+05
  4.46121722E+05  5.42502534E+05  3.27367585E+05  3.78207390E+05  2.83662575E+05
  7.52549148E+04  9.27554496E+04  5.27277400E+04  6.30298721E+04  4.65732396E+04
  6.90855956E+03  5.63013422E+04  6.97998263E+04  3.86646725E+04  4.69084694E+04
  3.44374471E+04  4.88692384E+03  3.39005767E+03  2.25372434E+02  3.03553352E+02
  1.15813907E+02  1.74176419E+02  1.16469347E+02  8.53132435E+00  4.36660257E+00
  1.10360882E-05
%FLAG LENNARD_JONES_BCOEF                                                       
%FORMAT(5E16.8)                                                                 
  5.24668528E+02  5.90251928E+02  6.63431737E+02  4.98871431E+02  5.62969425E+02
  4.69350655E+02  4.76608379E+02  5.36620538E+02  4.51916854E+02  4.32634597E+02
  3.88758656E+02  4.38146883E+02  3.67361018E+02  3.52573684E+02  2.87011518E+02
  1.09570372E+02  1.24325688E+02  1.01173582E+02  9.87712192E+01  7.98066064E+01
  2.10929191E+01  1.01040256E+02  1.14981426E+02  9.23664132E+01  9.08431526E+01
  7.31636661E+01  1.89134207E+01  1.67944276E+01  4.40751799E+00  5.22789272E+00
  3.48534600E+00  3.81654050E+00  2.93355636E+00  5.44840215E-01  4.15568027E-01
  4.55498033E-04
%FLAG BONDS_INC_HYDROGEN                                                        
%FORMAT(10I8)                                                                   
       0      33       2       3      36       2       6      39       2       9
      42       2      21      45       8      21      48       8      21      51
       8      27      54       9
%FLAG BONDS_WITHOUT_HYDROGEN                                                    
%FORMAT(10I8)                                                                   
       0       6       1       0      12       1       3       9       1       3
      12       1       6      15       1       9      15       1      12      18
       3      15      27       4      18      24       5      18      30       6
      21      30       7
%FLAG ANGLES_INC_HYDROGEN                                                       
%FORMAT(10I8)                                                                   
       0       6      39       2       3       9      42       2       6       0
      33       2       9       3      36       2      12       0      33       2
      12       3      36       2      15       6      39       2      15       9
      42       2      15      27      54       7      30      21      45      10
      30      21      48      10      30      21      51      10      45      21
      48      11      45      21      51      11      48      21      51      11
%FLAG ANGLES_WITHOUT_HYDROGEN                                                   
%FORMAT(10I8)                                                                   
       0       6      15       1       0      12       3       1       0      12
      18       3       3       9      15       1       3      12      18       3
       6       0      12       1       6      15       9       1       6      15
      27       4       9       3      12       1       9      15      27       4
      12      18      24       5      12      18      30       6      18      30
      21       8      24      18      30       9
%FLAG DIHEDRALS_INC_HYDROGEN                                                    
%FORMAT(10I8)                                                                   
       0      12       3      36       1      33       0      12       3       1
       6      15       9      42       1       6      15      27      54       4
       9      15       6      39       1       9      15      27      54       4
      12       0       6      39       1      12       3       9      42       1
      33       0       6      15       1      15       9       3      36       1
      33       0      12      18       1      18      12       3      36       1
      18      30      21      45       8      18      30      21      48       8
      18      30      21      51       8      27      15       6      39       1
      27      15       9      42       1      33       0       6      39       1
      36       3       9      42       1      33       0     -12      -6      11
       9      12      -3     -36      11       0      15      -6     -39      11
       3      15      -9     -42      11
%FLAG DIHEDRALS_WITHOUT_HYDROGEN                                                
%FORMAT(10I8)                                                                   
       0       6      15       9       1       0       6      15      27       1
       0      12      -3       9       1       0      12      18      24       2
       0      12      18      30       3       3       9      15       6       1
       3       9      15      27       1       6       0     -12       3       1
       3      12      18      24       2       3      12      18      30       3
       6       0      12      18       1       9       3      12      18       1
      12       0       6      15       1      12       3      -9      15       1
      12      18      30      21       5      12      18     -30      21       6
      12      18     -30      21       7      21      30      18      24       9
      21      30     -18      24      10      18       0     -12      -3      11
       6       9     -15     -27      11      12      24     -18     -30      11
%FLAG EXCLUDED_ATOMS_LIST                                                       
%FORMAT(10I8)                                                                   
       2       3       4       5       6       7       9      10      11      12
      13      14       3       4       5       6       7       9      10      11
      12      13      15       4       5       6       7      10      12      14
      15      19       5       6       7      10      13      14      15      19
       6       7       8       9      11      12      13      14      15      10
      12      13      14      15      19       8       9      11      12      13
      16      17      18       9      11      16      17      18      11      14
      15      19      16      17      18      14      15       0       0      17
      18      18       0       0
%FLAG HBOND_ACOEF                                                               
%FORMAT(5E16.8)                                                                 

%FLAG HBOND_BCOEF                                                               
%FORMAT(5E16.8)                                                                 

%FLAG HBCUT                                                                     
%FORMAT(5E16.8)                                                                 

%FLAG AMBER_ATOM_TYPE                                                           
%FORMAT(20a4)                                                                   
ca  ca  ca  ca  ca  ca  c   c3  o   oh  os  ha  ha  ha  ha  h1  h1  h1  ho  
%FLAG TREE_CHAIN_CLASSIFICATION                                                 
%FORMAT(20a4)                                                                   
BLA BLA BLA BLA BLA BLA BLA BLA BLA BLA BLA BLA BLA BLA BLA BLA BLA BLA BLA 
%FLAG JOIN_ARRAY                                                                
%FORMAT(10I8)                                                                   
       0       0       0       0       0       0       0       0       0       0
       0       0       0       0       0       0       0       0       0
%FLAG IROTAT                                                                    
%FORMAT(10I8)                                                                   
       0       0       0       0       0       0       0       0       0       0
       0       0       0       0       0       0       0       0       0
%FLAG RADIUS_SET                                                                
%FORMAT(1a80)                                                                   
modified Bondi radii (mbondi)                                                   
%FLAG RADII                                                                     
%FORMAT(5E16.8)                                                                 
  1.70000000E+00  1.70000000E+00  1.70000000E+00  1.70000000E+00  1.70000000E+00
  1.70000000E+00  1.70000000E+00  1.70000000E+00  1.50000000E+00  1.50000000E+00
  1.50000000E+00  1.30000000E+00  1.30000000E+00  1.30000000E+00  1.30000000E+00
  1.30000000E+00  1.30000000E+00  1.30000000E+00  8.00000000E-01
%FLAG SCREEN                                                                    
%FORMAT(5E16.8)                                                                 
  7.20000000E-01  7.20000000E-01  7.20000000E-01  7.20000000E-01  7.20000000E-01
  7.20000000E-01  7.20000000E-01  7.20000000E-01  8.50000000E-01  8.50000000E-01
  8.50000000E-01  8.50000000E-01  8.50000000E-01  8.50000000E-01  8.50000000E-01
  8.50000000E-01  8.50000000E-01  8.50000000E-01  8.50000000E-01
%FLAG IPOL                                                                      
%FORMAT(1I8)                                                                    
       0
