mobley_2295058_GMX.gro created by acpype (v: 2023.10.27) on Thu May 21 00:02:00 2026
 19
    1  MOL   C1    1   0.189  -0.104  -0.011
    1  MOL   C2    2   0.288  -0.165   0.200
    1  MOL   C3    3   0.081  -0.046   0.056
    1  MOL   C4    4   0.180  -0.108   0.268
    1  MOL   C5    5   0.292  -0.163   0.061
    1  MOL   C6    6   0.076  -0.048   0.196
    1  MOL   C7    7   0.405  -0.223  -0.009
    1  MOL   C8    8   0.612  -0.338   0.021
    1  MOL   O1    9   0.417  -0.226  -0.133
    1  MOL   O2   10  -0.029   0.007   0.261
    1  MOL   O3   11   0.496  -0.276   0.078
    1  MOL   H1   12   0.191  -0.101  -0.120
    1  MOL   H2   13   0.368  -0.211   0.257
    1  MOL   H3   14   0.000  -0.000  -0.001
    1  MOL   H4   15   0.177  -0.110   0.376
    1  MOL   H5   16   0.676  -0.376   0.100
    1  MOL   H6   17   0.666  -0.265  -0.040
    1  MOL   H7   18   0.580  -0.421  -0.043
    1  MOL   H8   19  -0.017  -0.002   0.357
   14.09600     8.56200    10.17400
