mobley_1770205_GMX.gro created by acpype (v: 2023.10.27) on Wed May 20 23:59:36 2026
 31
    1  MOL   C1    1  -0.382  -0.267  -0.471
    1  MOL   C2    2  -0.283  -0.170  -0.470
    1  MOL   C3    3  -0.348  -0.402  -0.460
    1  MOL   C4    4  -0.149  -0.207  -0.456
    1  MOL   C5    5  -0.213  -0.437  -0.447
    1  MOL   C6    6  -0.112  -0.342  -0.445
    1  MOL   C7    7  -0.170  -0.576  -0.435
    1  MOL   C8    8  -0.057  -1.183  -0.153
    1  MOL   C9    9   0.339  -0.954  -0.231
    1  MOL  C10   10   0.018  -0.729  -0.406
    1  MOL   N1   11   0.023  -0.374  -0.432
    1  MOL   N2   12   0.058  -0.494  -0.421
    1  MOL   N3   13  -0.034  -0.595  -0.422
    1  MOL   O1   14  -0.253  -0.666  -0.436
    1  MOL   O2   15  -0.017  -1.048  -0.133
    1  MOL   O3   16   0.220  -0.999  -0.169
    1  MOL   P1   17   0.078  -0.977  -0.244
    1  MOL   S1   18   0.070  -1.065  -0.418
    1  MOL   S2   19   0.035  -0.771  -0.231
    1  MOL   H1   20  -0.487  -0.238  -0.481
    1  MOL   H2   21  -0.309  -0.065  -0.478
    1  MOL   H3   22  -0.425  -0.478  -0.461
    1  MOL   H4   23  -0.071  -0.130  -0.455
    1  MOL   H5   24  -0.148  -1.201  -0.095
    1  MOL   H6   25   0.022  -1.250  -0.117
    1  MOL   H7   26  -0.077  -1.203  -0.258
    1  MOL   H8   27   0.416  -0.942  -0.155
    1  MOL   H9   28   0.324  -0.857  -0.281
    1  MOL  H10   29   0.373  -1.028  -0.304
    1  MOL  H11   30  -0.048  -0.801  -0.455
    1  MOL  H12   31   0.116  -0.736  -0.455
   18.05200    23.70800     7.72200
