CUP08010_AM1BCC_v1_0
    31
  -3.8240000  -2.6720000  -4.7120000  -2.8280000  -1.6960000  -4.6950000
  -3.4760000  -4.0160000  -4.5980000  -1.4860000  -2.0680000  -4.5640000
  -2.1270000  -4.3690000  -4.4680000  -1.1220000  -3.4150000  -4.4490000
  -1.7020000  -5.7600000  -4.3460000  -0.5670000 -11.8280000  -1.5270000
   3.3880000  -9.5370000  -2.3130000   0.1850000  -7.2920000  -4.0600000
   0.2320000  -3.7410000  -4.3210000   0.5770000  -4.9370000  -4.2070000
  -0.3390000  -5.9500000  -4.2240000  -2.5340000  -6.6630000  -4.3600000
  -0.1720000 -10.4830000  -1.3290000   2.2010000  -9.9940000  -1.6910000
   0.7760000  -9.7650000  -2.4410000   0.6980000 -10.6540000  -4.1770000
   0.3550000  -7.7130000  -2.3100000  -4.8680000  -2.3850000  -4.8120000
  -3.0940000  -0.6450000  -4.7820000  -4.2470000  -4.7830000  -4.6090000
  -0.7150000  -1.3000000  -4.5510000  -1.4770000 -12.0110000  -0.9510000
   0.2160000 -12.4990000  -1.1650000  -0.7730000 -12.0320000  -2.5810000
   4.1580000  -9.4180000  -1.5460000   3.2350000  -8.5740000  -2.8060000
   3.7320000 -10.2770000  -3.0410000  -0.4840000  -8.0080000  -4.5460000
   1.1610000  -7.3550000  -4.5510000
