; mobley_1770205_GMX_OPLS.top created by acpype (v: 2023.10.27) on Wed May 20 23:59:36 2026

; Include forcefield parameters
#include "ffoplsaa.itp"

; Include mobley_1770205_GMX.itp topology
#include "mobley_1770205_GMX.itp"

; Ligand position restraints
#ifdef POSRES_LIG
#include "posre_mobley_1770205.itp"
#endif

[ system ]
 mobley_1770205

[ molecules ]
; Compound        nmols
 mobley_1770205   1     
