%VERSION  VERSION_STAMP = V0001.000  DATE = 05/21/26  00:00:05                  
%FLAG TITLE                                                                     
%FORMAT(20a4)                                                                   
CUP08010_AM1BCC_v1_0                                                            
%FLAG POINTERS                                                                  
%FORMAT(10I8)                                                                   
      31      11      12      20      25      28      29      42       0       0
     146       1      20      28      42      16      24      18      14       0
       0       0       0       0       0       0       0       0      31       0
       0
%FLAG ATOM_NAME                                                                 
%FORMAT(20a4)                                                                   
C1  C2  C3  C4  C5  C6  C7  C8  C9  C10 N1  N2  N3  O1  O2  O3  P1  S1  S2  H1  
H2  H3  H4  H5  H6  H7  H8  H9  H10 H11 H12 
%FLAG CHARGE                                                                    
%FORMAT(5E16.8)                                                                 
 -2.27778750E+00 -1.82223000E+00 -1.14800490E+00 -1.62178470E+00 -2.87183448E+00
  1.81129662E+00  1.27574322E+01  2.02631976E+00  2.02631976E+00  6.39784953E+00
 -3.88863882E+00 -6.66936180E-01 -4.87993194E+00 -1.05416006E+01 -8.46790281E+00
 -8.46790281E+00  1.65130483E+01 -9.53026290E+00 -9.48470715E+00  2.69690040E+00
  2.66045580E+00  3.02490180E+00  2.91556800E+00  1.37638499E+00  1.37638499E+00
  1.37638499E+00  1.37638499E+00  1.37638499E+00  1.37638499E+00  2.29965426E+00
  2.29965426E+00
%FLAG ATOMIC_NUMBER                                                             
%FORMAT(10I8)                                                                   
       6       6       6       6       6       6       6       6       6       6
       7       7       7       8       8       8      15      16      16       1
       1       1       1       1       1       1       1       1       1       1
       1
%FLAG MASS                                                                      
%FORMAT(5E16.8)                                                                 
  1.20100000E+01  1.20100000E+01  1.20100000E+01  1.20100000E+01  1.20100000E+01
  1.20100000E+01  1.20100000E+01  1.20100000E+01  1.20100000E+01  1.20100000E+01
  1.40100000E+01  1.40100000E+01  1.40100000E+01  1.60000000E+01  1.60000000E+01
  1.60000000E+01  3.09700000E+01  3.20600000E+01  3.20600000E+01  1.00800000E+00
  1.00800000E+00  1.00800000E+00  1.00800000E+00  1.00800000E+00  1.00800000E+00
  1.00800000E+00  1.00800000E+00  1.00800000E+00  1.00800000E+00  1.00800000E+00
  1.00800000E+00
%FLAG ATOM_TYPE_INDEX                                                           
%FORMAT(10I8)                                                                   
       1       1       1       1       1       1       1       2       2       2
       3       3       4       5       6       6       7       8       8       9
       9       9       9      10      10      10      10      10      10      11
      11
%FLAG NUMBER_EXCLUDED_ATOMS                                                     
%FORMAT(10I8)                                                                   
      10       9      10       8      10       8       9       8       8      11
       3       5       5       1       7       6      10       1       2       2
       1       1       1       2       1       1       2       1       1       1
       1
%FLAG NONBONDED_PARM_INDEX                                                      
%FORMAT(10I8)                                                                   
       1       2       4       7      11      16      22      29      37      46
      56       2       3       5       8      12      17      23      30      38
      47      57       4       5       6       9      13      18      24      31
      39      48      58       7       8       9      10      14      19      25
      32      40      49      59      11      12      13      14      15      20
      26      33      41      50      60      16      17      18      19      20
      21      27      34      42      51      61      22      23      24      25
      26      27      28      35      43      52      62      29      30      31
      32      33      34      35      36      44      53      63      37      38
      39      40      41      42      43      44      45      54      64      46
      47      48      49      50      51      52      53      54      55      65
      56      57      58      59      60      61      62      63      64      65
      66
%FLAG RESIDUE_LABEL                                                             
%FORMAT(20a4)                                                                   
MOL 
%FLAG RESIDUE_POINTER                                                           
%FORMAT(10I8)                                                                   
       1
%FLAG BOND_FORCE_CONSTANT                                                       
%FORMAT(5E16.8)                                                                 
  3.54250000E+02  3.60690000E+02  2.62840000E+02  3.29990000E+02  3.17460000E+02
  5.90600000E+02  2.82270000E+02  3.44220000E+02  2.54460000E+02  1.84740000E+02
  3.47020000E+02  3.57830000E+02  2.79360000E+02  3.87590000E+02  2.63920000E+02
  1.78940000E+02
%FLAG BOND_EQUIL_VALUE                                                          
%FORMAT(5E16.8)                                                                 
  1.39860000E+00  1.08600000E+00  1.49070000E+00  1.38520000E+00  1.39670000E+00
  1.21900000E+00  1.42730000E+00  1.09690000E+00  1.46430000E+00  1.84070000E+00
  1.09500000E+00  1.29780000E+00  1.36830000E+00  1.61820000E+00  1.94730000E+00
  2.11590000E+00
%FLAG ANGLE_FORCE_CONSTANT                                                      
%FORMAT(5E16.8)                                                                 
  6.36700000E+01  4.49000000E+01  6.14400000E+01  6.74000000E+01  6.65000000E+01
  7.79600000E+01  9.15200000E+01  7.72400000E+01  8.27400000E+01  5.66400000E+01
  8.40300000E+01  6.04000000E+01  9.29900000E+01  8.66800000E+01  6.61000000E+01
  4.83600000E+01  5.62000000E+01  1.02920000E+02  8.13100000E+01  8.15000000E+01
  6.91600000E+01  4.20300000E+01  3.56400000E+01  3.55500000E+01
%FLAG ANGLE_EQUIL_VALUE                                                         
%FORMAT(5E16.8)                                                                 
  2.09474507E+00  2.09230160E+00  2.10015559E+00  2.12703367E+00  2.02248840E+00
  2.13977458E+00  1.88897066E+00  2.07397564E+00  2.18410596E+00  2.08916001E+00
  2.00957296E+00  1.74114121E+00  2.09090534E+00  2.13925098E+00  2.00957296E+00
  1.87762601E+00  1.92579712E+00  1.77534968E+00  2.04273423E+00  1.78686885E+00
  2.01515802E+00  1.89926811E+00  1.89455572E+00  1.91131088E+00
%FLAG DIHEDRAL_FORCE_CONSTANT                                                   
%FORMAT(5E16.8)                                                                 
  3.62500000E+00  2.12250000E+00  5.80000000E-01  4.80000000E+00  4.82000000E+00
  2.18000000E+00  4.10000000E-01  2.50000000E+00  4.00000000E+00  0.00000000E+00
  3.52000000E+00  8.00000000E-01  3.92700000E+00  3.80000000E+00  3.33333333E-01
  0.00000000E+00  1.10000000E+00  1.05000000E+01
%FLAG DIHEDRAL_PERIODICITY                                                      
%FORMAT(5E16.8)                                                                 
  2.00000000E+00  2.00000000E+00  2.00000000E+00  2.00000000E+00  1.00000000E+00
  2.00000000E+00  3.00000000E+00  2.00000000E+00  2.00000000E+00  2.00000000E+00
  2.00000000E+00  2.00000000E+00  2.00000000E+00  2.00000000E+00  3.00000000E+00
  1.00000000E+00  2.00000000E+00  2.00000000E+00
%FLAG DIHEDRAL_PHASE                                                            
%FORMAT(5E16.8)                                                                 
  3.14159400E+00  3.14159400E+00  3.14159400E+00  3.14159400E+00  0.00000000E+00
  3.14159400E+00  0.00000000E+00  3.14159400E+00  3.14159400E+00  0.00000000E+00
  0.00000000E+00  0.00000000E+00  3.14159400E+00  3.14159400E+00  0.00000000E+00
  0.00000000E+00  3.14159400E+00  3.14159400E+00
%FLAG SCEE_SCALE_FACTOR                                                         
%FORMAT(5E16.8)                                                                 
  1.20000000E+00  1.20000000E+00  1.20000000E+00  1.20000000E+00  1.20000000E+00
  1.20000000E+00  1.20000000E+00  1.20000000E+00  1.20000000E+00  1.20000000E+00
  1.20000000E+00  1.20000000E+00  1.20000000E+00  1.20000000E+00  1.20000000E+00
  1.20000000E+00  0.00000000E+00  0.00000000E+00
%FLAG SCNB_SCALE_FACTOR                                                         
%FORMAT(5E16.8)                                                                 
  2.00000000E+00  2.00000000E+00  2.00000000E+00  2.00000000E+00  2.00000000E+00
  2.00000000E+00  2.00000000E+00  2.00000000E+00  2.00000000E+00  2.00000000E+00
  2.00000000E+00  2.00000000E+00  2.00000000E+00  2.00000000E+00  2.00000000E+00
  2.00000000E+00  0.00000000E+00  0.00000000E+00
%FLAG SOLTY                                                                     
%FORMAT(5E16.8)                                                                 
  0.00000000E+00  0.00000000E+00  0.00000000E+00  0.00000000E+00  0.00000000E+00
  0.00000000E+00  0.00000000E+00  0.00000000E+00  0.00000000E+00  0.00000000E+00
  0.00000000E+00  0.00000000E+00  0.00000000E+00  0.00000000E+00
%FLAG LENNARD_JONES_ACOEF                                                       
%FORMAT(5E16.8)                                                                 
  6.96551276E+05  8.43969952E+05  1.02073671E+06  7.69642101E+05  9.31115275E+05
  8.49322032E+05  7.01106848E+05  8.52084164E+05  7.76656876E+05  7.02078680E+05
  5.17507491E+05  6.30925504E+05  5.74782316E+05  5.15491878E+05  3.76435470E+05
  4.46121722E+05  5.42502534E+05  4.94433451E+05  4.46307018E+05  3.27367585E+05
  2.83662575E+05  2.06784094E+06  2.48558450E+06  2.26961936E+06  2.10945362E+06
  1.57866258E+06  1.34566835E+06  5.92702883E+06  1.73376823E+06  2.09089895E+06
  1.90820499E+06  1.75889445E+06  1.30884564E+06  1.12086734E+06  5.04212449E+06
  4.26366419E+06  7.52549148E+04  9.27554496E+04  8.43518904E+04  7.35931098E+04
  5.27277400E+04  4.65732396E+04  2.40822878E+05  1.95762765E+05  6.90855956E+03
  5.63013422E+04  6.97998263E+04  6.34160397E+04  5.45183252E+04  3.86646725E+04
  3.44374471E+04  1.84820254E+05  1.48672098E+05  4.88692384E+03  3.39005767E+03
  3.85565555E+04  4.80619274E+04  4.36276732E+04  3.69926172E+04  2.59855087E+04
  2.33261683E+04  1.29617879E+05  1.03252037E+05  3.17496391E+03  2.16218723E+03
  1.35510742E+03
%FLAG LENNARD_JONES_BCOEF                                                       
%FORMAT(5E16.8)                                                                 
  5.24668528E+02  5.90251928E+02  6.63431737E+02  5.44830041E+02  6.12468585E+02
  5.65406768E+02  5.97113873E+02  6.72777963E+02  6.20851625E+02  6.77820248E+02
  4.98871431E+02  5.62969425E+02  5.19385932E+02  5.64804067E+02  4.69350655E+02
  3.88758656E+02  4.38146883E+02  4.04310927E+02  4.41089616E+02  3.67361018E+02
  2.87011518E+02  1.11602383E+03  1.25053147E+03  1.15504682E+03  1.27866413E+03
  1.07567582E+03  8.33544600E+02  2.33259779E+03  1.07629402E+03  1.20800124E+03
  1.11546536E+03  1.22973599E+03  1.03157656E+03  8.01230425E+02  2.26594113E+03
  2.19459223E+03  1.09570372E+02  1.24325688E+02  1.14599119E+02  1.22913863E+02
  1.01173582E+02  7.98066064E+01  2.41980856E+02  2.29782888E+02  2.10929191E+01
  1.01040256E+02  1.14981426E+02  1.05935811E+02  1.12788003E+02  9.23664132E+01
  7.31636661E+01  2.26004082E+02  2.13489607E+02  1.89134207E+01  1.67944276E+01
  8.36149973E+01  9.54115851E+01  8.78666889E+01  9.29071597E+01  7.57220777E+01
  6.02145835E+01  1.89266590E+02  1.77914489E+02  1.52447987E+01  1.34124560E+01
  1.06181419E+01
%FLAG BONDS_INC_HYDROGEN                                                        
%FORMAT(10I8)                                                                   
       0      57       2       3      60       2       6      63       2       9
      66       2      21      69       8      21      72       8      21      75
       8      24      78       8      24      81       8      24      84       8
      27      87      11      27      90      11
%FLAG BONDS_WITHOUT_HYDROGEN                                                    
%FORMAT(10I8)                                                                   
       0       3       1       0       6       1       3       9       1       6
      12       1       9      15       1      12      15       1      12      18
       3      15      30       4      18      36       5      18      39       6
      21      42       7      24      45       7      27      36       9      27
      54      10      30      33      12      33      36      13      42      48
      14      45      48      14      48      51      15      48      54      16
%FLAG ANGLES_INC_HYDROGEN                                                       
%FORMAT(10I8)                                                                   
       0       3      60       2       0       6      63       2       3       0
      57       2       3       9      66       2       6       0      57       2
       9       3      60       2      12       6      63       2      15       9
      66       2      36      27      87      16      36      27      90      16
      42      21      69      17      42      21      72      17      42      21
      75      17      45      24      78      17      45      24      81      17
      45      24      84      17      54      27      87      22      54      27
      90      22      69      21      72      23      69      21      75      23
      72      21      75      23      78      24      81      23      78      24
      84      23      81      24      84      23      87      27      90      24
%FLAG ANGLES_WITHOUT_HYDROGEN                                                   
%FORMAT(10I8)                                                                   
       0       3       9       1       0       6      12       1       3       0
       6       1       3       9      15       1       6      12      15       1
       6      12      18       3       9      15      12       1       9      15
      30       4      12      15      30       4      12      18      36       5
      12      18      39       6      15      12      18       3      15      30
      33       7      18      36      27       8      18      36      33       9
      21      42      48      10      24      45      48      10      27      36
      33      11      27      54      48      12      30      33      36      13
      36      18      39      14      36      27      54      15      42      48
      45      18      42      48      51      19      42      48      54      20
      45      48      51      19      45      48      54      20      51      48
      54      21
%FLAG DIHEDRALS_INC_HYDROGEN                                                    
%FORMAT(10I8)                                                                   
       0       3       9      66       1       3       0       6      63       1
       6       0       3      60       1      57       0       3       9       1
      57       0       6      12       1      12      15       9      66       1
      15       9       3      60       1      15      12       6      63       1
      18      12       6      63       1      18      36      27      87      10
      18      36      27      90      10      30      15       9      66       1
      33      36      27      87      10      33      36      27      90      10
      48      42      21      69      16      48      42      21      72      16
      48      42      21      75      16      48      45      24      78      16
      48      45      24      81      16      48      45      24      84      16
      48      54      27      87      15      48      54      27      90      15
      57       0       3      60       1      57       0       6      63       1
      60       3       9      66       1      57       0      -6      -3      17
       0       9      -3     -60      17       0      12      -6     -63      17
       3      15      -9     -66      17
%FLAG DIHEDRALS_WITHOUT_HYDROGEN                                                
%FORMAT(10I8)                                                                   
       0       3       9      15       1       0       6     -12      15       1
       0       6      12      18       1       3       0       6      12       1
       3       9     -15      12       1       3       9      15      30       1
       6       0       3       9       1       6      12     -15       9       1
       6      12      15      30       1       6      12      18      36       2
       6      12      18      39       3       9      15      12      18       1
       9      15      30      33       4      12      15      30      33       4
      12      18      36      27       5      12      18     -36      27       6
      12      18     -36      27       7      12      18     -36      33       8
      15      12      18      36       2      15      12      18      39       3
      15      30     -33      36       9      18      12      15      30       1
      18      36      27      54      10      18      36     -33      30       4
      21      42      48      45      11      21      42      48      51      12
      21      42      48      54      12      24      45      48      42      11
      24      45      48      51      12      24      45      48      54      12
      27      36      18      39       8      27      36      33      30       4
      27      54      48      42      13      27      54      48      45      13
      27      54      48      51      14      33      36      18      39       8
      33      36      27      54      10      36      27      54      48      15
      18       6     -12     -15      17       9      12     -15     -30      17
      12      36     -18     -39      18      18      27     -36     -33      17
%FLAG EXCLUDED_ATOMS_LIST                                                       
%FORMAT(10I8)                                                                   
       2       3       4       5       6       7      20      21      22      23
       3       4       5       6      11      20      21      22      23       4
       5       6       7      11      13      14      20      21      22       5
       6       7      11      12      20      21      23       6       7      10
      11      12      13      14      20      22      23       7      11      12
      13      14      21      22      23      10      11      12      13      14
      19      22      30      31      15      16      17      18      19      24
      25      26      15      16      17      18      19      27      28      29
      11      12      13      14      15      16      17      18      19      30
      31      12      13      23      13      14      19      30      31      14
      17      19      30      31       0      16      17      18      19      24
      25      26      17      18      19      27      28      29      18      19
      24      25      26      27      28      29      30      31      19      30
      31      21      22      23       0       0      25      26      26       0
      28      29      29       0      31       0
%FLAG HBOND_ACOEF                                                               
%FORMAT(5E16.8)                                                                 

%FLAG HBOND_BCOEF                                                               
%FORMAT(5E16.8)                                                                 

%FLAG HBCUT                                                                     
%FORMAT(5E16.8)                                                                 

%FLAG AMBER_ATOM_TYPE                                                           
%FORMAT(20a4)                                                                   
ca  ca  ca  ca  ca  ca  c   c3  c3  c3  nc  nd  n   o   os  os  p5  s   ss  ha  
ha  ha  ha  h1  h1  h1  h1  h1  h1  h2  h2  
%FLAG TREE_CHAIN_CLASSIFICATION                                                 
%FORMAT(20a4)                                                                   
BLA BLA BLA BLA BLA BLA BLA BLA BLA BLA BLA BLA BLA BLA BLA BLA BLA BLA BLA BLA 
BLA BLA BLA BLA BLA BLA BLA BLA BLA BLA BLA 
%FLAG JOIN_ARRAY                                                                
%FORMAT(10I8)                                                                   
       0       0       0       0       0       0       0       0       0       0
       0       0       0       0       0       0       0       0       0       0
       0       0       0       0       0       0       0       0       0       0
       0
%FLAG IROTAT                                                                    
%FORMAT(10I8)                                                                   
       0       0       0       0       0       0       0       0       0       0
       0       0       0       0       0       0       0       0       0       0
       0       0       0       0       0       0       0       0       0       0
       0
%FLAG RADIUS_SET                                                                
%FORMAT(1a80)                                                                   
modified Bondi radii (mbondi)                                                   
%FLAG RADII                                                                     
%FORMAT(5E16.8)                                                                 
  1.70000000E+00  1.70000000E+00  1.70000000E+00  1.70000000E+00  1.70000000E+00
  1.70000000E+00  1.70000000E+00  1.70000000E+00  1.70000000E+00  1.70000000E+00
  1.55000000E+00  1.55000000E+00  1.55000000E+00  1.50000000E+00  1.50000000E+00
  1.50000000E+00  1.85000000E+00  1.80000000E+00  1.80000000E+00  1.30000000E+00
  1.30000000E+00  1.30000000E+00  1.30000000E+00  1.30000000E+00  1.30000000E+00
  1.30000000E+00  1.30000000E+00  1.30000000E+00  1.30000000E+00  1.30000000E+00
  1.30000000E+00
%FLAG SCREEN                                                                    
%FORMAT(5E16.8)                                                                 
  7.20000000E-01  7.20000000E-01  7.20000000E-01  7.20000000E-01  7.20000000E-01
  7.20000000E-01  7.20000000E-01  7.20000000E-01  7.20000000E-01  7.20000000E-01
  7.90000000E-01  7.90000000E-01  7.90000000E-01  8.50000000E-01  8.50000000E-01
  8.50000000E-01  8.60000000E-01  9.60000000E-01  9.60000000E-01  8.50000000E-01
  8.50000000E-01  8.50000000E-01  8.50000000E-01  8.50000000E-01  8.50000000E-01
  8.50000000E-01  8.50000000E-01  8.50000000E-01  8.50000000E-01  8.50000000E-01
  8.50000000E-01
%FLAG IPOL                                                                      
%FORMAT(1I8)                                                                    
       0
