; mobley_1770205_GMX_OPLS.itp created by acpype (v: 2023.10.27) on Wed May 20 23:59:36 2026

; For OPLS atomtypes manual fine tuning
; AC_at:OPLS_at:OPLScode: Possible_Alternatives (see ffoplsaa.atp and ffoplsaanb.itp)
; ca:CA:opls_145: ['166', '501', '502']
; c:C:opls_235: ['271']
; c3:CT:opls_135: ['136', '137', '149', '157', '158', '206', '209', '210', '223B', '224B', '245', '246', '274', '283', '284', '285', '292', '292B', '293B', '296', '307', '308', '505']
; nc:NB:opls_511: []
; nd:NB:opls_511: []
; n:N:opls_237: ['238', '239']
; o:O:opls_236: ['272']
; os:x:opls_x: []
; p5:x:opls_x: []
; s:x:opls_x: []
; ss:S:opls_202: []
; ha:HA:opls_146: []
; h1:HC:opls_140: []
; h2:x:opls_x: []

[ moleculetype ]
;name            nrexcl
 mobley_1770205   3

[ atoms ]
;   nr  type  resi  res  atom  cgnr     charge      mass       ; qtot   bond_type
     1 opls_145     1   MOL    C1    1    -0.125000     12.01100 ; qtot -0.125  CA  
     2 opls_145     1   MOL    C2    2    -0.100000     12.01100 ; qtot -0.225  CA  
     3 opls_145     1   MOL    C3    3    -0.063000     12.01100 ; qtot -0.288  CA  
     4 opls_145     1   MOL    C4    4    -0.089000     12.01100 ; qtot -0.377  CA  
     5 opls_145     1   MOL    C5    5    -0.157600     12.01100 ; qtot -0.535  CA  
     6 opls_145     1   MOL    C6    6     0.099400     12.01100 ; qtot -0.435  CA  
     7 opls_235     1   MOL    C7    7     0.700100     12.01100 ; qtot  0.265  C   
     8 opls_135     1   MOL    C8    8     0.111200     12.01100 ; qtot  0.376  CT  
     9 opls_135     1   MOL    C9    9     0.111200     12.01100 ; qtot  0.487  CT  
    10 opls_135     1   MOL   C10   10     0.351100     12.01100 ; qtot  0.838  CT  
    11 opls_511     1   MOL    N1   11    -0.213400     14.00670 ; qtot  0.625  NB  
    12 opls_511     1   MOL    N2   12    -0.036600     14.00670 ; qtot  0.588  NB  
    13 opls_237     1   MOL    N3   13    -0.267800     14.00670 ; qtot  0.321  N   
    14 opls_236     1   MOL    O1   14    -0.578500     15.99940 ; qtot -0.258  O   
    15 opls_x     1   MOL    O2   15    -0.464700      0.00000 ; qtot -0.723  x   
    16 opls_x     1   MOL    O3   16    -0.464700      0.00000 ; qtot -1.187  x   
    17 opls_x     1   MOL    P1   17     0.905202      0.00000 ; qtot -0.282  x   
    18 opls_x     1   MOL    S1   18    -0.523000      0.00000 ; qtot -0.805  x   
    19 opls_202     1   MOL    S2   19    -0.520500     32.06000 ; qtot -1.326  S   
    20 opls_146     1   MOL    H1   20     0.148000      1.00800 ; qtot -1.178  HA  
    21 opls_146     1   MOL    H2   21     0.146000      1.00800 ; qtot -1.032  HA  
    22 opls_146     1   MOL    H3   22     0.166000      1.00800 ; qtot -0.866  HA  
    23 opls_146     1   MOL    H4   23     0.160000      1.00800 ; qtot -0.706  HA  
    24 opls_140     1   MOL    H5   24     0.075533      1.00800 ; qtot -0.630  HC  
    25 opls_140     1   MOL    H6   25     0.075533      1.00800 ; qtot -0.555  HC  
    26 opls_140     1   MOL    H7   26     0.075533      1.00800 ; qtot -0.479  HC  
    27 opls_140     1   MOL    H8   27     0.075533      1.00800 ; qtot -0.403  HC  
    28 opls_140     1   MOL    H9   28     0.075533      1.00800 ; qtot -0.328  HC  
    29 opls_140     1   MOL   H10   29     0.075533      1.00800 ; qtot -0.252  HC  
    30 opls_x     1   MOL   H11   30     0.126200      0.00000 ; qtot -0.126  x   
    31 opls_x     1   MOL   H12   31     0.126200      0.00000 ; qtot  0.000  x   

[ bonds ]
;   ai     aj funct   r             k
     1      2   1 ;    1.3986e-01    2.9644e+05 ;     C1 - C2         CA - CA    
     1      3   1 ;    1.3986e-01    2.9644e+05 ;     C1 - C3         CA - CA    
     1     20   1 ;    1.0860e-01    3.0183e+05 ;     C1 - H1         CA - HA    
     2      4   1 ;    1.3986e-01    2.9644e+05 ;     C2 - C4         CA - CA    
     2     21   1 ;    1.0860e-01    3.0183e+05 ;     C2 - H2         CA - HA    
     3      5   1 ;    1.3986e-01    2.9644e+05 ;     C3 - C5         CA - CA    
     3     22   1 ;    1.0860e-01    3.0183e+05 ;     C3 - H3         CA - HA    
     4      6   1 ;    1.3986e-01    2.9644e+05 ;     C4 - C6         CA - CA    
     4     23   1 ;    1.0860e-01    3.0183e+05 ;     C4 - H4         CA - HA    
     5      6   1 ;    1.3986e-01    2.9644e+05 ;     C5 - C6         CA - CA    
     5      7   1 ;    1.4907e-01    2.1994e+05 ;     C5 - C7         CA - C     
     6     11   1 ;    1.3852e-01    2.7614e+05 ;     C6 - N1         CA - NB    
     7     13   1 ;    1.3967e-01    2.6565e+05 ;     C7 - N3          C - N     
     7     14   1 ;    1.2190e-01    4.9421e+05 ;     C7 - O1          C - O     
     8     15   1 ;    1.4273e-01    2.3620e+05 ;     C8 - O2         CT - x     
     8     24   1 ;    1.0969e-01    2.8804e+05 ;     C8 - H5         CT - HC    
     8     25   1 ;    1.0969e-01    2.8804e+05 ;     C8 - H6         CT - HC    
     8     26   1 ;    1.0969e-01    2.8804e+05 ;     C8 - H7         CT - HC    
     9     16   1 ;    1.4273e-01    2.3620e+05 ;     C9 - O3         CT - x     
     9     27   1 ;    1.0969e-01    2.8804e+05 ;     C9 - H8         CT - HC    
     9     28   1 ;    1.0969e-01    2.8804e+05 ;     C9 - H9         CT - HC    
     9     29   1 ;    1.0969e-01    2.8804e+05 ;     C9 - H10        CT - HC    
    10     13   1 ;    1.4643e-01    2.1293e+05 ;    C10 - N3         CT - N     
    10     19   1 ;    1.8407e-01    1.5459e+05 ;    C10 - S2         CT - S     
    10     30   1 ;    1.0950e-01    2.9039e+05 ;    C10 - H11        CT - x     
    10     31   1 ;    1.0950e-01    2.9039e+05 ;    C10 - H12        CT - x     
    11     12   1 ;    1.2978e-01    2.9943e+05 ;     N1 - N2         NB - NB    
    12     13   1 ;    1.3683e-01    2.3377e+05 ;     N2 - N3         NB - N     
    15     17   1 ;    1.6182e-01    3.2434e+05 ;     O2 - P1          x - x     
    16     17   1 ;    1.6182e-01    3.2434e+05 ;     O3 - P1          x - x     
    17     18   1 ;    1.9473e-01    2.2085e+05 ;     P1 - S1          x - x     
    17     19   1 ;    2.1159e-01    1.4974e+05 ;     P1 - S2          x - S     

[ pairs ]
;   ai     aj    funct
     1      6      1 ;     C1 - C6    
     1      7      1 ;     C1 - C7    
     1     23      1 ;     C1 - H4    
     2      5      1 ;     C2 - C5    
     2     11      1 ;     C2 - N1    
     2     22      1 ;     C2 - H3    
     3      4      1 ;     C3 - C4    
     3     11      1 ;     C3 - N1    
     3     13      1 ;     C3 - N3    
     3     14      1 ;     C3 - O1    
     3     21      1 ;     C3 - H2    
     4      7      1 ;     C4 - C7    
     4     12      1 ;     C4 - N2    
     5     10      1 ;     C5 - C10   
     5     12      1 ;     C5 - N2    
     5     23      1 ;     C5 - H4    
     6     13      1 ;     C6 - N3    
     6     14      1 ;     C6 - O1    
     6     21      1 ;     C6 - H2    
     6     22      1 ;     C6 - H3    
     7     11      1 ;     C7 - N1    
     7     19      1 ;     C7 - S2    
     7     22      1 ;     C7 - H3    
     7     30      1 ;     C7 - H11   
     7     31      1 ;     C7 - H12   
     8     16      1 ;     C8 - O3    
     8     18      1 ;     C8 - S1    
     8     19      1 ;     C8 - S2    
     9     15      1 ;     C9 - O2    
     9     18      1 ;     C9 - S1    
     9     19      1 ;     C9 - S2    
    10     11      1 ;    C10 - N1    
    10     14      1 ;    C10 - O1    
    10     15      1 ;    C10 - O2    
    10     16      1 ;    C10 - O3    
    10     18      1 ;    C10 - S1    
    11     23      1 ;     N1 - H4    
    12     14      1 ;     N2 - O1    
    12     19      1 ;     N2 - S2    
    12     30      1 ;     N2 - H11   
    12     31      1 ;     N2 - H12   
    13     17      1 ;     N3 - P1    
    17     24      1 ;     P1 - H5    
    17     25      1 ;     P1 - H6    
    17     26      1 ;     P1 - H7    
    17     27      1 ;     P1 - H8    
    17     28      1 ;     P1 - H9    
    17     29      1 ;     P1 - H10   
    17     30      1 ;     P1 - H11   
    17     31      1 ;     P1 - H12   
    20      4      1 ;     H1 - C4    
    20      5      1 ;     H1 - C5    
    20     21      1 ;     H1 - H2    
    20     22      1 ;     H1 - H3    
    21     23      1 ;     H2 - H4    

[ angles ]
;   ai     aj     ak    funct   theta         cth
     1      2      4      1 ;    1.2002e+02    5.3279e+02 ;     C1 - C2   - C4       CA -   CA - CA  
     1      2     21      1 ;    1.1988e+02    3.7572e+02 ;     C1 - C2   - H2       CA -   CA - HA  
     1      3      5      1 ;    1.2002e+02    5.3279e+02 ;     C1 - C3   - C5       CA -   CA - CA  
     1      3     22      1 ;    1.1988e+02    3.7572e+02 ;     C1 - C3   - H3       CA -   CA - HA  
     2      1      3      1 ;    1.2002e+02    5.3279e+02 ;     C2 - C1   - C3       CA -   CA - CA  
     2      1     20      1 ;    1.1988e+02    3.7572e+02 ;     C2 - C1   - H1       CA -   CA - HA  
     2      4      6      1 ;    1.2002e+02    5.3279e+02 ;     C2 - C4   - C6       CA -   CA - CA  
     2      4     23      1 ;    1.1988e+02    3.7572e+02 ;     C2 - C4   - H4       CA -   CA - HA  
     3      1     20      1 ;    1.1988e+02    3.7572e+02 ;     C3 - C1   - H1       CA -   CA - HA  
     3      5      6      1 ;    1.2002e+02    5.3279e+02 ;     C3 - C5   - C6       CA -   CA - CA  
     3      5      7      1 ;    1.2033e+02    5.1413e+02 ;     C3 - C5   - C7       CA -   CA - C   
     4      2     21      1 ;    1.1988e+02    3.7572e+02 ;     C4 - C2   - H2       CA -   CA - HA  
     4      6      5      1 ;    1.2002e+02    5.3279e+02 ;     C4 - C6   - C5       CA -   CA - CA  
     4      6     11      1 ;    1.2187e+02    5.6400e+02 ;     C4 - C6   - N1       CA -   CA - NB  
     5      3     22      1 ;    1.1988e+02    3.7572e+02 ;     C5 - C3   - H3       CA -   CA - HA  
     5      6     11      1 ;    1.2187e+02    5.6400e+02 ;     C5 - C6   - N1       CA -   CA - NB  
     5      7     13      1 ;    1.1588e+02    5.5647e+02 ;     C5 - C7   - N3       CA -    C - N   
     5      7     14      1 ;    1.2260e+02    6.5237e+02 ;     C5 - C7   - O1       CA -    C - O   
     6      4     23      1 ;    1.1988e+02    3.7572e+02 ;     C6 - C4   - H4       CA -   CA - HA  
     6      5      7      1 ;    1.2033e+02    5.1413e+02 ;     C6 - C5   - C7       CA -   CA - C   
     6     11     12      1 ;    1.0823e+02    7.6584e+02 ;     C6 - N1   - N2       CA -   NB - NB  
     7     13     10      1 ;    1.1883e+02    6.4634e+02 ;     C7 - N3   - C10       C -    N - CT  
     7     13     12      1 ;    1.2514e+02    6.9237e+02 ;     C7 - N3   - N2        C -    N - NB  
     8     15     17      1 ;    1.1970e+02    4.7396e+02 ;     C8 - O2   - P1       CT -    x - x   
     9     16     17      1 ;    1.1970e+02    4.7396e+02 ;     C9 - O3   - P1       CT -    x - x   
    10     13     12      1 ;    1.1514e+02    7.0316e+02 ;    C10 - N3   - N2       CT -    N - NB  
    10     19     17      1 ;    9.9760e+01    5.0543e+02 ;    C10 - S2   - P1       CT -    S - x   
    11     12     13      1 ;    1.1980e+02    7.7814e+02 ;     N1 - N2   - N3       NB -   NB - N   
    13      7     14      1 ;    1.2257e+02    7.2534e+02 ;     N3 - C7   - O1        N -    C - O   
    13     10     19      1 ;    1.1514e+02    5.5312e+02 ;     N3 - C10  - S2        N -   CT - S   
    13     10     30      1 ;    1.0758e+02    4.0468e+02 ;     N3 - C10  - H11       N -   CT - x   
    13     10     31      1 ;    1.0758e+02    4.0468e+02 ;     N3 - C10  - H12       N -   CT - x   
    15      8     24      1 ;    1.1034e+02    4.7028e+02 ;     O2 - C8   - H5        x -   CT - HC  
    15      8     25      1 ;    1.1034e+02    4.7028e+02 ;     O2 - C8   - H6        x -   CT - HC  
    15      8     26      1 ;    1.1034e+02    4.7028e+02 ;     O2 - C8   - H7        x -   CT - HC  
    15     17     16      1 ;    1.0172e+02    8.6123e+02 ;     O2 - P1   - O3        x -    x - x   
    15     17     18      1 ;    1.1704e+02    6.8040e+02 ;     O2 - P1   - S1        x -    x - x   
    15     17     19      1 ;    1.0238e+02    6.8199e+02 ;     O2 - P1   - S2        x -    x - S   
    16      9     27      1 ;    1.1034e+02    4.7028e+02 ;     O3 - C9   - H8        x -   CT - HC  
    16      9     28      1 ;    1.1034e+02    4.7028e+02 ;     O3 - C9   - H9        x -   CT - HC  
    16      9     29      1 ;    1.1034e+02    4.7028e+02 ;     O3 - C9   - H10       x -   CT - HC  
    16     17     18      1 ;    1.1704e+02    6.8040e+02 ;     O3 - P1   - S1        x -    x - x   
    16     17     19      1 ;    1.0238e+02    6.8199e+02 ;     O3 - P1   - S2        x -    x - S   
    18     17     19      1 ;    1.1546e+02    5.7873e+02 ;     S1 - P1   - S2        x -    x - S   
    19     10     30      1 ;    1.0882e+02    3.5171e+02 ;     S2 - C10  - H11       S -   CT - x   
    19     10     31      1 ;    1.0882e+02    3.5171e+02 ;     S2 - C10  - H12       S -   CT - x   
    24      8     25      1 ;    1.0855e+02    2.9824e+02 ;     H5 - C8   - H6       HC -   CT - HC  
    24      8     26      1 ;    1.0855e+02    2.9824e+02 ;     H5 - C8   - H7       HC -   CT - HC  
    25      8     26      1 ;    1.0855e+02    2.9824e+02 ;     H6 - C8   - H7       HC -   CT - HC  
    27      9     28      1 ;    1.0855e+02    2.9824e+02 ;     H8 - C9   - H9       HC -   CT - HC  
    27      9     29      1 ;    1.0855e+02    2.9824e+02 ;     H8 - C9   - H10      HC -   CT - HC  
    28      9     29      1 ;    1.0855e+02    2.9824e+02 ;     H9 - C9   - H10      HC -   CT - HC  
    30     10     31      1 ;    1.0951e+02    2.9748e+02 ;    H11 - C10  - H12       x -   CT - x   

[ dihedrals ] ; propers
; for gromacs 4.5 or higher, using funct 9
;    i      j      k      l   func   phase     kd      pn
     1      2      4      6      9 ;   180.00  15.16700   2 ;     C1-    C2-    C4-    C6
     1      2      4     23      9 ;   180.00  15.16700   2 ;     C1-    C2-    C4-    H4
     1      3      5      6      9 ;   180.00  15.16700   2 ;     C1-    C3-    C5-    C6
     1      3      5      7      9 ;   180.00  15.16700   2 ;     C1-    C3-    C5-    C7
     2      1      3      5      9 ;   180.00  15.16700   2 ;     C2-    C1-    C3-    C5
     2      1      3     22      9 ;   180.00  15.16700   2 ;     C2-    C1-    C3-    H3
     2      4      6      5      9 ;   180.00  15.16700   2 ;     C2-    C4-    C6-    C5
     2      4      6     11      9 ;   180.00  15.16700   2 ;     C2-    C4-    C6-    N1
     3      1      2      4      9 ;   180.00  15.16700   2 ;     C3-    C1-    C2-    C4
     3      1      2     21      9 ;   180.00  15.16700   2 ;     C3-    C1-    C2-    H2
     3      5      6      4      9 ;   180.00  15.16700   2 ;     C3-    C5-    C6-    C4
     3      5      6     11      9 ;   180.00  15.16700   2 ;     C3-    C5-    C6-    N1
     3      5      7     13      9 ;   180.00   8.88054   2 ;     C3-    C5-    C7-    N3
     3      5      7     14      9 ;   180.00   2.42672   2 ;     C3-    C5-    C7-    O1
     4      6      5      7      9 ;   180.00  15.16700   2 ;     C4-    C6-    C5-    C7
     4      6     11     12      9 ;   180.00  20.08320   2 ;     C4-    C6-    N1-    N2
     5      6      4     23      9 ;   180.00  15.16700   2 ;     C5-    C6-    C4-    H4
     5      6     11     12      9 ;   180.00  20.08320   2 ;     C5-    C6-    N1-    N2
     5      7     13     10      9 ;     0.00   1.71544   3 ;     C5-    C7-    N3-   C10
     5      7     13     10      9 ;     0.00  20.16688   1 ;     C5-    C7-    N3-   C10
     5      7     13     10      9 ;   180.00   9.12112   2 ;     C5-    C7-    N3-   C10
     5      7     13     12      9 ;   180.00  10.46000   2 ;     C5-    C7-    N3-    N2
     6      4      2     21      9 ;   180.00  15.16700   2 ;     C6-    C4-    C2-    H2
     6      5      3     22      9 ;   180.00  15.16700   2 ;     C6-    C5-    C3-    H3
     6      5      7     13      9 ;   180.00   8.88054   2 ;     C6-    C5-    C7-    N3
     6      5      7     14      9 ;   180.00   2.42672   2 ;     C6-    C5-    C7-    O1
     6     11     12     13      9 ;   180.00  16.73600   2 ;     C6-    N1-    N2-    N3
     7      5      3     22      9 ;   180.00  15.16700   2 ;     C7-    C5-    C3-    H3
     7      5      6     11      9 ;   180.00  15.16700   2 ;     C7-    C5-    C6-    N1
     7     13     10     19      9 ;     0.00   0.00000   0 ;     C7-    N3-   C10-    S2
     7     13     10     30      9 ;     0.00   0.00000   0 ;     C7-    N3-   C10-   H11
     7     13     10     31      9 ;     0.00   0.00000   0 ;     C7-    N3-   C10-   H12
     7     13     12     11      9 ;   180.00  20.08320   2 ;     C7-    N3-    N2-    N1
     8     15     17     16      9 ;     0.00  14.72768   2 ;     C8-    O2-    P1-    O3
     8     15     17     18      9 ;     0.00   3.34720   2 ;     C8-    O2-    P1-    S1
     8     15     17     19      9 ;     0.00   3.34720   2 ;     C8-    O2-    P1-    S2
     9     16     17     15      9 ;     0.00  14.72768   2 ;     C9-    O3-    P1-    O2
     9     16     17     18      9 ;     0.00   3.34720   2 ;     C9-    O3-    P1-    S1
     9     16     17     19      9 ;     0.00   3.34720   2 ;     C9-    O3-    P1-    S2
    10     13      7     14      9 ;   180.00  10.46000   2 ;    C10-    N3-    C7-    O1
    10     13     12     11      9 ;   180.00  20.08320   2 ;    C10-    N3-    N2-    N1
    10     19     17     15      9 ;   180.00  16.43057   2 ;    C10-    S2-    P1-    O2
    10     19     17     16      9 ;   180.00  16.43057   2 ;    C10-    S2-    P1-    O3
    10     19     17     18      9 ;   180.00  15.89920   2 ;    C10-    S2-    P1-    S1
    11      6      4     23      9 ;   180.00  15.16700   2 ;     N1-    C6-    C4-    H4
    12     13      7     14      9 ;   180.00  10.46000   2 ;     N2-    N3-    C7-    O1
    12     13     10     19      9 ;     0.00   0.00000   0 ;     N2-    N3-   C10-    S2
    12     13     10     30      9 ;     0.00   0.00000   0 ;     N2-    N3-   C10-   H11
    12     13     10     31      9 ;     0.00   0.00000   0 ;     N2-    N3-   C10-   H12
    13     10     19     17      9 ;     0.00   1.39467   3 ;     N3-   C10-    S2-    P1
    17     15      8     24      9 ;     0.00   0.00000   0 ;     P1-    O2-    C8-    H5
    17     15      8     25      9 ;     0.00   0.00000   0 ;     P1-    O2-    C8-    H6
    17     15      8     26      9 ;     0.00   0.00000   0 ;     P1-    O2-    C8-    H7
    17     16      9     27      9 ;     0.00   0.00000   0 ;     P1-    O3-    C9-    H8
    17     16      9     28      9 ;     0.00   0.00000   0 ;     P1-    O3-    C9-    H9
    17     16      9     29      9 ;     0.00   0.00000   0 ;     P1-    O3-    C9-   H10
    17     19     10     30      9 ;     0.00   1.39467   3 ;     P1-    S2-   C10-   H11
    17     19     10     31      9 ;     0.00   1.39467   3 ;     P1-    S2-   C10-   H12
    20      1      2      4      9 ;   180.00  15.16700   2 ;     H1-    C1-    C2-    C4
    20      1      2     21      9 ;   180.00  15.16700   2 ;     H1-    C1-    C2-    H2
    20      1      3      5      9 ;   180.00  15.16700   2 ;     H1-    C1-    C3-    C5
    20      1      3     22      9 ;   180.00  15.16700   2 ;     H1-    C1-    C3-    H3
    21      2      4     23      9 ;   180.00  15.16700   2 ;     H2-    C2-    C4-    H4

[ dihedrals ] ; impropers
; treated as propers in GROMACS to use correct AMBER analytical function
;    i      j      k      l   func   phase     kd      pn
     1      4      2     21      4 ;   180.00   4.60240   2 ;     C1-    C4-    C2-    H2
     1      5      3     22      4 ;   180.00   4.60240   2 ;     C1-    C5-    C3-    H3
     2      6      4     23      4 ;   180.00   4.60240   2 ;     C2-    C6-    C4-    H4
     4      5      6     11      4 ;   180.00   4.60240   2 ;     C4-    C5-    C6-    N1
     5     13      7     14      4 ;   180.00  43.93200   2 ;     C5-    N3-    C7-    O1
     7      3      5      6      4 ;   180.00   4.60240   2 ;     C7-    C3-    C5-    C6
     7     10     13     12      4 ;   180.00   4.60240   2 ;     C7-   C10-    N3-    N2
    20      1      3      2      4 ;   180.00   4.60240   2 ;     H1-    C1-    C3-    C2
