mobley_1781152_GMX.gro created by acpype (v: 2023.10.27) on Wed May 20 23:43:16 2026
 9719
    1MOL     C1    1   2.399   2.313   2.372
    1MOL     C2    2   2.177   2.424   2.335
    1MOL     C3    3   2.366   2.468   2.177
    1MOL     C4    4   2.256   2.243   2.178
    1MOL     C5    5   2.425   2.166   2.556
    1MOL     C6    6   2.299   2.362   2.266
    1MOL     O1    7   2.514   2.353   2.382
    1MOL     O2    8   2.341   2.219   2.452
    1MOL     H1    9   2.207   2.505   2.403
    1MOL     H2   10   2.107   2.465   2.262
    1MOL     H3   11   2.123   2.350   2.395
    1MOL     H4   12   2.399   2.554   2.237
    1MOL     H5   13   2.298   2.505   2.101
    1MOL     H6   14   2.455   2.428   2.127
    1MOL     H7   15   2.203   2.167   2.235
    1MOL     H8   16   2.190   2.276   2.097
    1MOL     H9   17   2.343   2.195   2.132
    1MOL    H10   18   2.521   2.218   2.555
    1MOL    H11   19   2.440   2.059   2.539
    1MOL    H12   20   2.376   2.180   2.652
    2SOL     OW   21   0.230   0.628   0.113
    2SOL    HW1   22   0.137   0.626   0.150
    2SOL    HW2   23   0.231   0.589   0.021
    3SOL     OW   24   0.225   0.275   0.996
    3SOL    HW1   25   0.260   0.258   1.088
    3SOL    HW2   26   0.137   0.230   0.984
    4SOL     OW   27   0.019   0.368   0.647
    4SOL    HW1   28  -0.063   0.411   0.686
    4SOL    HW2   29  -0.009   0.295   0.584
    5SOL     OW   30   0.569   1.275   1.165
    5SOL    HW1   31   0.476   1.268   1.128
    5SOL    HW2   32   0.580   1.364   1.209
    6SOL     OW   33   1.555   1.511   0.703
    6SOL    HW1   34   1.498   1.495   0.784
    6SOL    HW2   35   1.496   1.521   0.623
    7SOL     OW   36   1.135   0.703   0.717
    7SOL    HW1   37   1.192   0.781   0.692
    7SOL    HW2   38   1.075   0.729   0.793
    8SOL     OW   39   1.755   0.607   0.231
    8SOL    HW1   40   1.743   0.594   0.132
    8SOL    HW2   41   1.725   0.526   0.280
    9SOL     OW   42   0.768   1.144   1.023
    9SOL    HW1   43   0.690   1.161   1.083
    9SOL    HW2   44   0.802   1.231   0.987
   10SOL     OW   45   0.850   0.798   1.823
   10SOL    HW1   46   0.846   0.874   1.888
   10SOL    HW2   47   0.872   0.834   1.732
   11SOL     OW   48   0.685   1.012   0.665
   11SOL    HW1   49   0.754   0.996   0.735
   11SOL    HW2   50   0.612   1.069   0.703
   12SOL     OW   51   0.686   1.161   1.803
   12SOL    HW1   52   0.746   1.240   1.817
   12SOL    HW2   53   0.600   1.192   1.762
   13SOL     OW   54   0.335   1.435   1.061
   13SOL    HW1   55   0.257   1.404   1.008
   13SOL    HW2   56   0.393   1.493   1.004
   14SOL     OW   57   1.460   1.505   1.339
   14SOL    HW1   58   1.484   1.599   1.365
   14SOL    HW2   59   1.444   1.451   1.421
   15SOL     OW   60   0.438   0.392   1.499
   15SOL    HW1   61   0.520   0.336   1.508
   15SOL    HW2   62   0.357   0.334   1.503
   16SOL     OW   63   1.603   0.447   0.737
   16SOL    HW1   64   1.529   0.493   0.687
   16SOL    HW2   65   1.654   0.515   0.790
   17SOL     OW   66   0.231   1.713   0.483
   17SOL    HW1   67   0.265   1.790   0.537
   17SOL    HW2   68   0.275   1.713   0.393
   18SOL     OW   69   1.127   1.341   1.690
   18SOL    HW1   70   1.174   1.341   1.778
   18SOL    HW2   71   1.079   1.254   1.679
   19SOL     OW   72   0.230   1.434   0.538
   19SOL    HW1   73   0.204   1.530   0.538
   19SOL    HW2   74   0.159   1.380   0.583
   20SOL     OW   75   0.240   1.091   0.886
   20SOL    HW1   76   0.254   1.007   0.938
   20SOL    HW2   77   0.185   1.155   0.941
   21SOL     OW   78   0.620   1.786   1.439
   21SOL    HW1   79   0.528   1.769   1.474
   21SOL    HW2   80   0.648   1.878   1.465
   22SOL     OW   81   0.606   0.964   0.123
   22SOL    HW1   82   0.613   1.048   0.069
   22SOL    HW2   83   0.652   0.977   0.211
   23SOL     OW   84   1.594   0.114   1.480
   23SOL    HW1   85   1.576   0.181   1.408
   23SOL    HW2   86   1.591   0.160   1.569
   24SOL     OW   87   0.122   0.643   0.563
   24SOL    HW1   88   0.077   0.555   0.580
   24SOL    HW2   89   0.121   0.697   0.647
   25SOL     OW   90   1.842   1.767   0.359
   25SOL    HW1   91   1.896   1.738   0.439
   25SOL    HW2   92   1.872   1.857   0.330
   26SOL     OW   93   0.027   1.596   0.117
   26SOL    HW1   94   0.008   1.500   0.138
   26SOL    HW2   95  -0.006   1.654   0.192
   27SOL     OW   96   1.689   0.922   0.612
   27SOL    HW1   97   1.784   0.893   0.620
   27SOL    HW2   98   1.681   0.987   0.537
   28SOL     OW   99   1.641   1.108   0.432
   28SOL    HW1  100   1.727   1.110   0.380
   28SOL    HW2  101   1.655   1.155   0.520
   29SOL     OW  102   0.113   0.737   1.597
   29SOL    HW1  103   0.201   0.724   1.642
   29SOL    HW2  104   0.100   0.834   1.575
   30SOL     OW  105   0.613   1.365   0.726
   30SOL    HW1  106   0.564   1.278   0.735
   30SOL    HW2  107   0.590   1.408   0.639
   31SOL     OW  108   1.293   1.228   1.423
   31SOL    HW1  109   1.330   1.155   1.365
   31SOL    HW2  110   1.345   1.233   1.508
   32SOL     OW  111   0.809   0.004   0.502
   32SOL    HW1  112   0.849   0.095   0.493
   32SOL    HW2  113   0.709   0.012   0.508
   33SOL     OW  114   0.197   0.976   1.264
   33SOL    HW1  115   0.286   0.931   1.250
   33SOL    HW2  116   0.124   0.911   1.245
   34SOL     OW  117   1.525   0.999   0.190
   34SOL    HW1  118   1.462   0.923   0.203
   34SOL    HW2  119   1.573   1.017   0.276
   35SOL     OW  120   1.187   1.792   1.616
   35SOL    HW1  121   1.211   1.852   1.540
   35SOL    HW2  122   1.194   1.697   1.586
   36SOL     OW  123   0.317   0.251   1.801
   36SOL    HW1  124   0.388   0.322   1.807
   36SOL    HW2  125   0.229   0.290   1.829
   37SOL     OW  126   1.466   1.417   0.953
   37SOL    HW1  127   1.407   1.423   1.033
   37SOL    HW2  128   1.451   1.329   0.907
   38SOL     OW  129   1.667   1.714   0.572
   38SOL    HW1  130   1.626   1.691   0.484
   38SOL    HW2  131   1.649   1.640   0.637
   39SOL     OW  132   0.598   0.729   0.270
   39SOL    HW1  133   0.622   0.798   0.202
   39SOL    HW2  134   0.520   0.762   0.324
   40SOL     OW  135   1.281   0.345   0.944
   40SOL    HW1  136   1.195   0.295   0.931
   40SOL    HW2  137   1.343   0.291   1.000
   41SOL     OW  138   1.576   1.662   0.307
   41SOL    HW1  139   1.665   1.708   0.310
   41SOL    HW2  140   1.555   1.638   0.212
   42SOL     OW  141   0.807   0.605   1.465
   42SOL    HW1  142   0.760   0.602   1.554
   42SOL    HW2  143   0.756   0.550   1.399
   43SOL     OW  144   1.394   0.469   1.674
   43SOL    HW1  145   1.374   0.512   1.762
   43SOL    HW2  146   1.472   0.407   1.683
   44SOL     OW  147   0.973   0.890   1.572
   44SOL    HW1  148   1.019   0.806   1.543
   44SOL    HW2  149   0.917   0.924   1.497
   45SOL     OW  150   0.991   0.410   1.242
   45SOL    HW1  151   0.914   0.444   1.296
   45SOL    HW2  152   0.957   0.359   1.163
   46SOL     OW  153   1.041   0.701   0.429
   46SOL    HW1  154   1.067   0.697   0.525
   46SOL    HW2  155   0.956   0.650   0.415
   47SOL     OW  156   0.076   0.811   0.789
   47SOL    HW1  157   0.175   0.799   0.798
   47SOL    HW2  158   0.052   0.906   0.810
   48SOL     OW  159   0.130   1.821   1.571
   48SOL    HW1  160   0.120   1.806   1.670
   48SOL    HW2  161   0.044   1.857   1.535
   49SOL     OW  162   0.865   0.348   0.195
   49SOL    HW1  163   0.924   0.411   0.146
   49SOL    HW2  164   0.884   0.254   0.166
   50SOL     OW  165   1.719   0.585   1.831
   50SOL    HW1  166   1.693   0.674   1.795
   50SOL    HW2  167   1.717   0.517   1.758
   51SOL     OW  168   1.362   1.144   0.545
   51SOL    HW1  169   1.445   1.115   0.497
   51SOL    HW2  170   1.313   1.211   0.489
   52SOL     OW  171   0.550   0.196   0.885
   52SOL    HW1  172   0.545   0.191   0.985
   52SOL    HW2  173   0.552   0.292   0.856
   53SOL     OW  174   1.008   1.456   0.477
   53SOL    HW1  175   0.962   1.528   0.425
   53SOL    HW2  176   1.004   1.476   0.575
   54SOL     OW  177   0.351   1.801   0.853
   54SOL    HW1  178   0.401   1.715   0.859
   54SOL    HW2  179   0.416   1.878   0.850
   55SOL     OW  180   1.795   1.066   0.873
   55SOL    HW1  181   1.733   1.051   0.797
   55SOL    HW2  182   1.743   1.077   0.958
   56SOL     OW  183   1.227   1.550   1.506
   56SOL    HW1  184   1.233   1.473   1.570
   56SOL    HW2  185   1.175   1.524   1.426
   57SOL     OW  186   0.321   0.943   0.242
   57SOL    HW1  187   0.403   0.982   0.200
   57SOL    HW2  188   0.294   0.861   0.193
   58SOL     OW  189   1.458   0.735   0.728
   58SOL    HW1  190   1.453   0.670   0.803
   58SOL    HW2  191   1.538   0.794   0.741
   59SOL     OW  192   0.461   1.266   1.727
   59SOL    HW1  193   0.411   1.267   1.641
   59SOL    HW2  194   0.398   1.248   1.803
   60SOL     OW  195   1.111   1.776   0.237
   60SOL    HW1  196   1.051   1.714   0.287
   60SOL    HW2  197   1.142   1.732   0.152
   61SOL     OW  198   0.202   0.285   1.498
   61SOL    HW1  199   0.122   0.345   1.485
   61SOL    HW2  200   0.192   0.236   1.584
   62SOL     OW  201   1.632   1.377   0.081
   62SOL    HW1  202   1.600   1.471   0.071
   62SOL    HW2  203   1.556   1.314   0.069
   63SOL     OW  204   0.464   1.743   0.323
   63SOL    HW1  205   0.497   1.782   0.409
   63SOL    HW2  206   0.540   1.736   0.258
   64SOL     OW  207   1.400   0.107   0.426
   64SOL    HW1  208   1.376   0.070   0.336
   64SOL    HW2  209   1.499   0.123   0.430
   65SOL     OW  210   0.249   1.785   1.241
   65SOL    HW1  211   0.306   1.720   1.291
   65SOL    HW2  212   0.233   1.752   1.148
   66SOL     OW  213   0.940   1.698   0.904
   66SOL    HW1  214   1.020   1.641   0.925
   66SOL    HW2  215   0.891   1.658   0.827
   67SOL     OW  216   0.382   0.700   0.480
   67SOL    HW1  217   0.427   0.610   0.477
   67SOL    HW2  218   0.288   0.689   0.513
   68SOL     OW  219   1.547   0.222   1.729
   68SOL    HW1  220   1.542   0.259   1.821
   68SOL    HW2  221   1.475   0.153   1.717
   69SOL     OW  222   0.614   0.122   0.117
   69SOL    HW1  223   0.712   0.100   0.124
   69SOL    HW2  224   0.583   0.105   0.024
   70SOL     OW  225   0.781   0.264   1.749
   70SOL    HW1  226   0.848   0.203   1.792
   70SOL    HW2  227   0.708   0.283   1.814
   71SOL     OW  228   0.888   1.514   1.195
   71SOL    HW1  229   0.865   1.489   1.101
   71SOL    HW2  230   0.949   1.445   1.234
   72SOL     OW  231   1.351   0.590   1.433
   72SOL    HW1  232   1.379   0.547   1.518
   72SOL    HW2  233   1.376   0.686   1.434
   73SOL     OW  234   0.803   1.402   0.924
   73SOL    HW1  235   0.893   1.416   0.882
   73SOL    HW2  236   0.732   1.404   0.853
   74SOL     OW  237   0.922   0.503   0.899
   74SOL    HW1  238   0.897   0.494   0.803
   74SOL    HW2  239   0.970   0.421   0.930
   75SOL     OW  240   0.539   0.064   0.512
   75SOL    HW1  241   0.458   0.065   0.570
   75SOL    HW2  242   0.542   0.147   0.457
   76SOL     OW  243   1.434   1.188   0.041
   76SOL    HW1  244   1.466   1.112   0.098
   76SOL    HW2  245   1.342   1.215   0.071
   77SOL     OW  246   0.297   0.035   0.171
   77SOL    HW1  247   0.346   0.119   0.150
   77SOL    HW2  248   0.359  -0.030   0.216
   78SOL     OW  249   0.935   0.236   0.480
   78SOL    HW1  250   0.887   0.277   0.402
   78SOL    HW2  251   1.034   0.234   0.461
   79SOL     OW  252   1.076   0.683   1.464
   79SOL    HW1  253   0.996   0.622   1.467
   79SOL    HW2  254   1.157   0.630   1.440
   80SOL     OW  255   1.227   1.570   0.793
   80SOL    HW1  256   1.248   1.644   0.728
   80SOL    HW2  257   1.295   1.570   0.866
   81SOL     OW  258   0.459   1.152   0.741
   81SOL    HW1  259   0.388   1.125   0.806
   81SOL    HW2  260   0.433   1.124   0.648
   82SOL     OW  261   1.271   1.797   0.591
   82SOL    HW1  262   1.315   1.861   0.527
   82SOL    HW2  263   1.221   1.849   0.661
   83SOL     OW  264   1.032   0.549   0.016
   83SOL    HW1  265   0.991   0.631  -0.023
   83SOL    HW2  266   1.096   0.575   0.089
   84SOL     OW  267   0.078   0.556   1.386
   84SOL    HW1  268   0.170   0.555   1.345
   84SOL    HW2  269   0.072   0.630   1.453
   85SOL     OW  270   0.561   0.222   1.147
   85SOL    HW1  271   0.599   0.138   1.184
   85SOL    HW2  272   0.473   0.241   1.191
   86SOL     OW  273   0.866   0.454   0.642
   86SOL    HW1  274   0.834   0.526   0.580
   86SOL    HW2  275   0.890   0.373   0.589
   87SOL     OW  276   1.017   0.039   0.753
   87SOL    HW1  277   0.945   0.044   0.684
   87SOL    HW2  278   0.993  -0.030   0.822
   88SOL     OW  279   1.429   1.173   0.867
   88SOL    HW1  280   1.374   1.089   0.860
   88SOL    HW2  281   1.455   1.202   0.775
   89SOL     OW  282   1.466   0.590   0.992
   89SOL    HW1  283   1.436   0.495   0.999
   89SOL    HW2  284   1.539   0.606   1.058
   90SOL     OW  285   1.857   0.833   0.377
   90SOL    HW1  286   1.899   0.769   0.441
   90SOL    HW2  287   1.819   0.782   0.299
   91SOL     OW  288   0.488   1.385   0.174
   91SOL    HW1  289   0.401   1.370   0.221
   91SOL    HW2  290   0.471   1.411   0.079
   92SOL     OW  291   1.664   1.280   0.657
   92SOL    HW1  292   1.763   1.288   0.671
   92SOL    HW2  293   1.619   1.364   0.688
   93SOL     OW  294   1.390   0.575   0.078
   93SOL    HW1  295   1.336   0.554   0.159
   93SOL    HW2  296   1.481   0.534   0.087
   94SOL     OW  297   0.527   0.256   0.328
   94SOL    HW1  298   0.554   0.197   0.253
   94SOL    HW2  299   0.527   0.351   0.297
   95SOL     OW  300   1.754   1.223   1.588
   95SOL    HW1  301   1.845   1.184   1.575
   95SOL    HW2  302   1.762   1.319   1.612
   96SOL     OW  303   1.064   1.347   1.340
   96SOL    HW1  304   0.984   1.324   1.395
   96SOL    HW2  305   1.147   1.321   1.389
   97SOL     OW  306   1.592   1.629   1.625
   97SOL    HW1  307   1.619   1.663   1.535
   97SOL    HW2  308   1.671   1.591   1.671
   98SOL     OW  309   1.111   1.195   1.100
   98SOL    HW1  310   1.071   1.239   1.181
   98SOL    HW2  311   1.070   1.232   1.017
   99SOL     OW  312   1.638   1.099   1.079
   99SOL    HW1  313   1.643   1.180   1.138
   99SOL    HW2  314   1.552   1.101   1.028
  100SOL     OW  315   0.915   0.089   1.402
  100SOL    HW1  316   0.940   0.069   1.307
  100SOL    HW2  317   0.987   0.145   1.444
  101SOL     OW  318   0.980   1.116   1.719
  101SOL    HW1  319   0.881   1.122   1.729
  101SOL    HW2  320   1.003   1.036   1.663
  102SOL     OW  321   0.705   1.050   0.368
  102SOL    HW1  322   0.691   1.057   0.467
  102SOL    HW2  323   0.789   0.999   0.350
  103SOL     OW  324   0.410   0.813   1.251
  103SOL    HW1  325   0.496   0.825   1.301
  103SOL    HW2  326   0.368   0.726   1.278
  104SOL     OW  327   1.274   0.386   1.262
  104SOL    HW1  328   1.295   0.460   1.326
  104SOL    HW2  329   1.185   0.403   1.219
  105SOL     OW  330   0.064   1.564   1.331
  105SOL    HW1  331   0.018   1.646   1.297
  105SOL    HW2  332   0.162   1.583   1.340
  106SOL     OW  333   0.367   1.100   0.501
  106SOL    HW1  334   0.360   1.183   0.445
  106SOL    HW2  335   0.371   1.020   0.441
  107SOL     OW  336   0.566   0.537   0.865
  107SOL    HW1  337   0.578   0.603   0.791
  107SOL    HW2  338   0.612   0.571   0.948
  108SOL     OW  339   1.252   1.348   0.388
  108SOL    HW1  340   1.302   1.425   0.428
  108SOL    HW2  341   1.157   1.350   0.420
  109SOL     OW  342   1.272   1.445   1.142
  109SOL    HW1  343   1.319   1.458   1.229
  109SOL    HW2  344   1.206   1.371   1.151
  110SOL     OW  345   1.582   0.639   0.472
  110SOL    HW1  346   1.551   0.700   0.545
  110SOL    HW2  347   1.632   0.691   0.403
  111SOL     OW  348   0.354   1.510   1.329
  111SOL    HW1  349   0.333   1.466   1.242
  111SOL    HW2  350   0.451   1.536   1.332
  112SOL     OW  351   0.402   0.751   1.598
  112SOL    HW1  352   0.470   0.806   1.551
  112SOL    HW2  353   0.442   0.663   1.625
  113SOL     OW  354   1.587   0.779   1.670
  113SOL    HW1  355   1.495   0.817   1.665
  113SOL    HW2  356   1.647   0.826   1.605
  114SOL     OW  357   1.013   0.105   1.770
  114SOL    HW1  358   1.019   0.190   1.718
  114SOL    HW2  359   1.045   0.029   1.713
  115SOL     OW  360   0.504   0.050   1.740
  115SOL    HW1  361   0.462  -0.007   1.670
  115SOL    HW2  362   0.438   0.119   1.772
  116SOL     OW  363   0.573   0.870   1.029
  116SOL    HW1  364   0.617   0.959   1.020
  116SOL    HW2  365   0.510   0.870   1.106
  117SOL     OW  366   1.360   0.862   1.045
  117SOL    HW1  367   1.285   0.862   0.979
  117SOL    HW2  368   1.397   0.770   1.054
  118SOL     OW  369   1.209   0.525   0.275
  118SOL    HW1  370   1.222   0.441   0.329
  118SOL    HW2  371   1.180   0.599   0.335
  119SOL     OW  372   0.307   0.213   1.231
  119SOL    HW1  373   0.284   0.250   1.321
  119SOL    HW2  374   0.277   0.118   1.225
  120SOL     OW  375   0.037   1.310   1.282
  120SOL    HW1  376   0.090   1.261   1.350
  120SOL    HW2  377   0.059   1.408   1.287
  121SOL     OW  378   0.732   0.634   1.064
  121SOL    HW1  379   0.791   0.608   0.988
  121SOL    HW2  380   0.704   0.730   1.053
  122SOL     OW  381   1.728   0.935   1.854
  122SOL    HW1  382   1.682   0.928   1.765
  122SOL    HW2  383   1.666   0.979   1.920
  123SOL     OW  384   0.307   0.063   0.618
  123SOL    HW1  385   0.296   0.157   0.651
  123SOL    HW2  386   0.302   0.000   0.695
  124SOL     OW  387   1.622   0.367   0.374
  124SOL    HW1  388   1.624   0.291   0.438
  124SOL    HW2  389   1.574   0.444   0.414
  125SOL     OW  390   1.023   0.766   0.966
  125SOL    HW1  391   1.038   0.787   1.062
  125SOL    HW2  392   0.993   0.671   0.957
  126SOL     OW  393   0.980   1.573   1.700
  126SOL    HW1  394   0.960   1.617   1.612
  126SOL    HW2  395   1.019   1.482   1.684
  127SOL     OW  396   1.859   1.518   1.605
  127SOL    HW1  397   1.873   1.545   1.510
  127SOL    HW2  398   1.942   1.540   1.658
  128SOL     OW  399   0.350   0.898   1.804
  128SOL    HW1  400   0.426   0.942   1.852
  128SOL    HW2  401   0.385   0.851   1.722
  129SOL     OW  402   1.540   0.274   0.125
  129SOL    HW1  403   1.479   0.199   0.148
  129SOL    HW2  404   1.562   0.326   0.208
  130SOL     OW  405   1.303   0.838   0.042
  130SOL    HW1  406   1.337   0.745   0.057
  130SOL    HW2  407   1.321   0.865  -0.053
  131SOL     OW  408   1.068   1.333   0.849
  131SOL    HW1  409   1.075   1.249   0.794
  131SOL    HW2  410   1.130   1.402   0.813
  132SOL     OW  411   0.319   0.810   0.949
  132SOL    HW1  412   0.412   0.846   0.954
  132SOL    HW2  413   0.313   0.725   1.001
  133SOL     OW  414   0.339   0.509   1.006
  133SOL    HW1  415   0.287   0.426   0.989
  133SOL    HW2  416   0.416   0.514   0.942
  134SOL     OW  417   1.138   0.380   1.678
  134SOL    HW1  418   1.093   0.443   1.742
  134SOL    HW2  419   1.231   0.411   1.661
  135SOL     OW  420   1.160   0.207   1.477
  135SOL    HW1  421   1.160   0.271   1.554
  135SOL    HW2  422   1.188   0.255   1.394
  136SOL     OW  423   0.008   1.326   0.200
  136SOL    HW1  424  -0.085   1.347   0.169
  136SOL    HW2  425   0.018   1.227   0.213
  137SOL     OW  426   0.088   1.801   0.927
  137SOL    HW1  427   0.046   1.715   0.900
  137SOL    HW2  428   0.182   1.804   0.893
  138SOL     OW  429   0.504   1.568   0.910
  138SOL    HW1  430   0.570   1.642   0.919
  138SOL    HW2  431   0.548   1.489   0.868
  139SOL     OW  432   1.002   0.796   1.238
  139SOL    HW1  433   1.043   0.764   1.324
  139SOL    HW2  434   0.906   0.769   1.235
  140SOL     OW  435   0.040   0.544   1.114
  140SOL    HW1  436   0.125   0.511   1.073
  140SOL    HW2  437   0.053   0.559   1.212
  141SOL     OW  438   0.189   0.520   1.722
  141SOL    HW1  439   0.248   0.480   1.652
  141SOL    HW2  440   0.131   0.591   1.681
  142SOL     OW  441   1.369   0.950   1.660
  142SOL    HW1  442   1.408   1.039   1.680
  142SOL    HW2  443   1.379   0.930   1.563
  143SOL     OW  444   0.815   0.572   0.325
  143SOL    HW1  445   0.822   0.483   0.279
  143SOL    HW2  446   0.721   0.606   0.317
  144SOL     OW  447   1.657   0.604   1.206
  144SOL    HW1  448   1.619   0.535   1.268
  144SOL    HW2  449   1.739   0.568   1.162
  145SOL     OW  450   0.252   1.564   1.744
  145SOL    HW1  451   0.222   1.621   1.820
  145SOL    HW2  452   0.245   1.467   1.770
  146SOL     OW  453   0.671   0.464   1.269
  146SOL    HW1  454   0.637   0.375   1.239
  146SOL    HW2  455   0.697   0.518   1.189
  147SOL     OW  456   0.930   1.678   1.465
  147SOL    HW1  457   0.906   1.660   1.370
  147SOL    HW2  458   0.960   1.772   1.475
  148SOL     OW  459   0.473   0.500   0.191
  148SOL    HW1  460   0.534   0.580   0.195
  148SOL    HW2  461   0.378   0.531   0.198
  149SOL     OW  462   0.159   1.137   1.466
  149SOL    HW1  463   0.181   1.076   1.542
  149SOL    HW2  464   0.169   1.088   1.380
  150SOL     OW  465   1.347   1.059   1.234
  150SOL    HW1  466   1.371   0.996   1.160
  150SOL    HW2  467   1.257   1.099   1.216
  151SOL     OW  468   1.302   0.855   0.309
  151SOL    HW1  469   1.216   0.824   0.351
  151SOL    HW2  470   1.298   0.841   0.210
  152SOL     OW  471   1.759   1.747   1.154
  152SOL    HW1  472   1.820   1.777   1.081
  152SOL    HW2  473   1.721   1.658   1.132
  153SOL     OW  474   1.252   1.731   1.128
  153SOL    HW1  475   1.336   1.736   1.074
  153SOL    HW2  476   1.229   1.635   1.146
  154SOL     OW  477   0.083   1.258   1.022
  154SOL    HW1  478   0.078   1.257   1.122
  154SOL    HW2  479   0.000   1.217   0.984
  155SOL     OW  480   0.688   1.662   1.716
  155SOL    HW1  481   0.632   1.743   1.725
  155SOL    HW2  482   0.740   1.666   1.630
  156SOL     OW  483   0.903   0.086   0.133
  156SOL    HW1  484   0.954   0.087   0.047
  156SOL    HW2  485   0.959   0.044   0.204
  157SOL     OW  486   1.726   0.135   0.523
  157SOL    HW1  487   1.799   0.118   0.456
  157SOL    HW2  488   1.695   0.048   0.561
  158SOL     OW  489   1.388   1.573   0.477
  158SOL    HW1  490   1.455   1.585   0.403
  158SOL    HW2  491   1.348   1.662   0.500
  159SOL     OW  492   0.130   1.794   1.851
  159SOL    HW1  493   0.089   1.720   1.904
  159SOL    HW2  494   0.194   1.845   1.909
  160SOL     OW  495   1.280   0.927   0.672
  160SOL    HW1  496   1.340   0.846   0.674
  160SOL    HW2  497   1.320   0.996   0.612
  161SOL     OW  498   0.830   1.273   1.422
  161SOL    HW1  499   0.825   1.306   1.517
  161SOL    HW2  500   0.744   1.292   1.376
  162SOL     OW  501   0.672   1.616   0.154
  162SOL    HW1  502   0.681   1.626   0.055
  162SOL    HW2  503   0.632   1.527   0.175
  163SOL     OW  504   1.650   1.720   1.394
  163SOL    HW1  505   1.703   1.730   1.310
  163SOL    HW2  506   1.623   1.810   1.428
  164SOL     OW  507   1.841   0.175   0.963
  164SOL    HW1  508   1.880   0.090   0.927
  164SOL    HW2  509   1.743   0.177   0.944
  165SOL     OW  510   0.263   0.326   0.720
  165SOL    HW1  511   0.184   0.377   0.686
  165SOL    HW2  512   0.254   0.311   0.818
  166SOL     OW  513   1.194   1.612   0.031
  166SOL    HW1  514   1.200   1.519   0.068
  166SOL    HW2  515   1.135   1.612  -0.049
  167SOL     OW  516   0.822   1.002   1.372
  167SOL    HW1  517   0.862   1.001   1.280
  167SOL    HW2  518   0.832   1.094   1.412
  168SOL     OW  519   0.916   0.910   0.291
  168SOL    HW1  520   0.979   0.948   0.223
  168SOL    HW2  521   0.956   0.827   0.330
  169SOL     OW  522   1.504   1.607   0.044
  169SOL    HW1  523   1.412   1.644   0.051
  169SOL    HW2  524   1.542   1.627  -0.046
  170SOL     OW  525   0.372   1.288   1.490
  170SOL    HW1  526   0.359   1.381   1.456
  170SOL    HW2  527   0.288   1.236   1.477
  171SOL     OW  528   1.614   1.292   1.289
  171SOL    HW1  529   1.674   1.295   1.369
  171SOL    HW2  530   1.539   1.356   1.302
  172SOL     OW  531   1.039   1.098   0.696
  172SOL    HW1  532   0.969   1.051   0.750
  172SOL    HW2  533   1.098   1.030   0.653
  173SOL     OW  534   1.014   0.236   0.971
  173SOL    HW1  535   1.006   0.200   0.878
  173SOL    HW2  536   1.012   0.160   1.036
  174SOL     OW  537   0.590   1.487   0.491
  174SOL    HW1  538   0.632   1.429   0.421
  174SOL    HW2  539   0.546   1.566   0.447
  175SOL     OW  540   1.709   0.385   1.381
  175SOL    HW1  541   1.782   0.454   1.385
  175SOL    HW2  542   1.737   0.310   1.322
  176SOL     OW  543   0.255   1.348   0.290
  176SOL    HW1  544   0.159   1.349   0.263
  176SOL    HW2  545   0.267   1.401   0.374
  177SOL     OW  546   0.105   1.013   1.726
  177SOL    HW1  547   0.028   0.980   1.780
  177SOL    HW2  548   0.190   0.983   1.768
  178SOL     OW  549   0.672   0.203   1.489
  178SOL    HW1  550   0.762   0.187   1.449
  178SOL    HW2  551   0.680   0.208   1.588
  179SOL     OW  552   0.075   0.345   0.033
  179SOL    HW1  553  -0.017   0.317   0.004
  179SOL    HW2  554   0.106   0.422  -0.023
  180SOL     OW  555   1.440   0.856   1.398
  180SOL    HW1  556   1.383   0.908   1.335
  180SOL    HW2  557   1.536   0.868   1.374
  181SOL     OW  558   0.072   0.166   0.318
  181SOL    HW1  559   0.055   0.249   0.264
  181SOL    HW2  560   0.162   0.129   0.296
  182SOL     OW  561   1.183   1.335   0.119
  182SOL    HW1  562   1.084   1.324   0.121
  182SOL    HW2  563   1.217   1.350   0.212
  183SOL     OW  564   0.613   0.842   1.431
  183SOL    HW1  565   0.669   0.923   1.414
  183SOL    HW2  566   0.672   0.762   1.434
  184SOL     OW  567   1.493   1.767   0.959
  184SOL    HW1  568   1.526   1.831   0.890
  184SOL    HW2  569   1.559   1.761   1.034
  185SOL     OW  570   0.716   0.565   1.708
  185SOL    HW1  571   0.735   0.630   1.782
  185SOL    HW2  572   0.776   0.485   1.717
  186SOL     OW  573   1.450   1.220   1.633
  186SOL    HW1  574   1.441   1.210   1.732
  186SOL    HW2  575   1.546   1.213   1.607
  187SOL     OW  576   0.390   1.741   1.560
  187SOL    HW1  577   0.299   1.782   1.558
  187SOL    HW2  578   0.383   1.647   1.592
  188SOL     OW  579   1.674   0.883   1.254
  188SOL    HW1  580   1.647   0.794   1.217
  188SOL    HW2  581   1.675   0.951   1.181
  189SOL     OW  582   1.225   0.325   0.449
  189SOL    HW1  583   1.290   0.251   0.438
  189SOL    HW2  584   1.245   0.375   0.533
  190SOL     OW  585   0.594   0.745   0.652
  190SOL    HW1  586   0.644   0.830   0.633
  190SOL    HW2  587   0.506   0.747   0.604
  191SOL     OW  588   1.777   0.342   1.642
  191SOL    HW1  589   1.760   0.373   1.548
  191SOL    HW2  590   1.693   0.305   1.680
  192SOL     OW  591   1.730   0.934   1.517
  192SOL    HW1  592   1.768   1.025   1.532
  192SOL    HW2  593   1.722   0.917   1.418
  193SOL     OW  594   0.859   1.374   0.016
  193SOL    HW1  595   0.813   1.389   0.104
  193SOL    HW2  596   0.903   1.459  -0.014
  194SOL     OW  597   0.661   1.790   0.953
  194SOL    HW1  598   0.615   1.878   0.940
  194SOL    HW2  599   0.760   1.802   0.946
  195SOL     OW  600   0.859   0.956   0.861
  195SOL    HW1  601   0.913   0.887   0.909
  195SOL    HW2  602   0.827   1.025   0.927
  196SOL     OW  603   1.083   0.984   0.087
  196SOL    HW1  604   1.060   1.037   0.005
  196SOL    HW2  605   1.164   0.928   0.068
  197SOL     OW  606   1.861   1.569   0.851
  197SOL    HW1  607   1.790   1.557   0.781
  197SOL    HW2  608   1.862   1.490   0.911
  198SOL     OW  609   0.221   1.314   1.844
  198SOL    HW1  610   0.156   1.241   1.823
  198SOL    HW2  611   0.225   1.328   1.942
  199SOL     OW  612   0.079   1.240   0.653
  199SOL    HW1  613   0.078   1.193   0.741
  199SOL    HW2  614   0.161   1.212   0.602
  200SOL     OW  615   0.672   1.391   1.624
  200SOL    HW1  616   0.594   1.341   1.662
  200SOL    HW2  617   0.669   1.486   1.655
  201SOL     OW  618   1.824   0.192   1.227
  201SOL    HW1  619   1.820   0.102   1.271
  201SOL    HW2  620   1.827   0.181   1.128
  202SOL     OW  621   0.428   0.424   0.520
  202SOL    HW1  622   0.458   0.352   0.458
  202SOL    HW2  623   0.389   0.384   0.603
  203SOL     OW  624   1.705   1.487   1.104
  203SOL    HW1  625   1.612   1.462   1.077
  203SOL    HW2  626   1.731   1.437   1.186
  204SOL     OW  627   0.317   0.547   1.280
  204SOL    HW1  628   0.355   0.488   1.352
  204SOL    HW2  629   0.357   0.521   1.192
  205SOL     OW  630   0.812   1.586   0.687
  205SOL    HW1  631   0.844   1.596   0.593
  205SOL    HW2  632   0.733   1.524   0.689
  206SOL     OW  633   1.424   0.214   1.112
  206SOL    HW1  634   1.476   0.149   1.167
  206SOL    HW2  635   1.375   0.277   1.173
  207SOL     OW  636   1.001   0.034   1.154
  207SOL    HW1  637   0.938  -0.038   1.123
  207SOL    HW2  638   1.094  -0.002   1.154
  208SOL     OW  639   0.770   1.330   0.301
  208SOL    HW1  640   0.724   1.243   0.318
  208SOL    HW2  641   0.861   1.327   0.342
  209SOL     OW  642   0.618   1.567   1.284
  209SOL    HW1  643   0.613   1.649   1.341
  209SOL    HW2  644   0.707   1.564   1.239
  210SOL     OW  645   1.352   0.052   0.168
  210SOL    HW1  646   1.387   0.011   0.084
  210SOL    HW2  647   1.262   0.014   0.188
  211SOL     OW  648   1.300   0.453   0.691
  211SOL    HW1  649   1.241   0.533   0.695
  211SOL    HW2  650   1.315   0.418   0.784
  212SOL     OW  651   1.593   0.221   0.882
  212SOL    HW1  652   1.509   0.220   0.936
  212SOL    HW2  653   1.595   0.304   0.826
  213SOL     OW  654   0.039   1.077   0.300
  213SOL    HW1  655   0.138   1.066   0.291
  213SOL    HW2  656  -0.001   0.991   0.332
  214SOL     OW  657   0.875   1.646   0.337
  214SOL    HW1  658   0.798   1.611   0.283
  214SOL    HW2  659   0.843   1.717   0.399
  215SOL     OW  660   0.230   0.628   1.975
  215SOL    HW1  661   0.137   0.626   2.012
  215SOL    HW2  662   0.231   0.589   1.883
  216SOL     OW  663   0.225   0.275   2.858
  216SOL    HW1  664   0.260   0.258   2.950
  216SOL    HW2  665   0.137   0.230   2.846
  217SOL     OW  666   0.019   0.368   2.509
  217SOL    HW1  667  -0.063   0.411   2.548
  217SOL    HW2  668  -0.009   0.295   2.446
  218SOL     OW  669   0.569   1.275   3.027
  218SOL    HW1  670   0.476   1.268   2.990
  218SOL    HW2  671   0.580   1.364   3.071
  219SOL     OW  672   1.555   1.511   2.565
  219SOL    HW1  673   1.498   1.495   2.646
  219SOL    HW2  674   1.496   1.521   2.485
  220SOL     OW  675   1.135   0.703   2.579
  220SOL    HW1  676   1.192   0.781   2.554
  220SOL    HW2  677   1.075   0.729   2.655
  221SOL     OW  678   1.755   0.607   2.093
  221SOL    HW1  679   1.743   0.594   1.994
  221SOL    HW2  680   1.725   0.526   2.142
  222SOL     OW  681   0.768   1.144   2.885
  222SOL    HW1  682   0.690   1.161   2.945
  222SOL    HW2  683   0.802   1.231   2.849
  223SOL     OW  684   0.850   0.798   3.685
  223SOL    HW1  685   0.846   0.874   3.750
  223SOL    HW2  686   0.872   0.834   3.594
  224SOL     OW  687   0.685   1.012   2.527
  224SOL    HW1  688   0.754   0.996   2.597
  224SOL    HW2  689   0.612   1.069   2.565
  225SOL     OW  690   0.686   1.161   3.665
  225SOL    HW1  691   0.746   1.240   3.679
  225SOL    HW2  692   0.600   1.192   3.624
  226SOL     OW  693   0.335   1.435   2.923
  226SOL    HW1  694   0.257   1.404   2.870
  226SOL    HW2  695   0.393   1.493   2.866
  227SOL     OW  696   1.460   1.505   3.201
  227SOL    HW1  697   1.484   1.599   3.227
  227SOL    HW2  698   1.444   1.451   3.283
  228SOL     OW  699   0.438   0.392   3.361
  228SOL    HW1  700   0.520   0.336   3.370
  228SOL    HW2  701   0.357   0.334   3.365
  229SOL     OW  702   1.603   0.447   2.599
  229SOL    HW1  703   1.529   0.493   2.549
  229SOL    HW2  704   1.654   0.515   2.652
  230SOL     OW  705   0.231   1.713   2.345
  230SOL    HW1  706   0.265   1.790   2.399
  230SOL    HW2  707   0.275   1.713   2.255
  231SOL     OW  708   1.127   1.341   3.552
  231SOL    HW1  709   1.174   1.341   3.640
  231SOL    HW2  710   1.079   1.254   3.541
  232SOL     OW  711   0.230   1.434   2.400
  232SOL    HW1  712   0.204   1.530   2.400
  232SOL    HW2  713   0.159   1.380   2.445
  233SOL     OW  714   0.240   1.091   2.748
  233SOL    HW1  715   0.254   1.007   2.800
  233SOL    HW2  716   0.185   1.155   2.803
  234SOL     OW  717   0.620   1.786   3.301
  234SOL    HW1  718   0.528   1.769   3.336
  234SOL    HW2  719   0.648   1.878   3.327
  235SOL     OW  720   0.606   0.964   1.985
  235SOL    HW1  721   0.613   1.048   1.931
  235SOL    HW2  722   0.652   0.977   2.073
  236SOL     OW  723   1.594   0.114   3.342
  236SOL    HW1  724   1.576   0.181   3.270
  236SOL    HW2  725   1.591   0.160   3.431
  237SOL     OW  726   0.122   0.643   2.425
  237SOL    HW1  727   0.077   0.555   2.442
  237SOL    HW2  728   0.121   0.697   2.509
  238SOL     OW  729   1.842   1.767   2.221
  238SOL    HW1  730   1.896   1.738   2.301
  238SOL    HW2  731   1.872   1.857   2.192
  239SOL     OW  732   0.027   1.596   1.979
  239SOL    HW1  733   0.008   1.500   2.000
  239SOL    HW2  734  -0.006   1.654   2.054
  240SOL     OW  735   1.689   0.922   2.474
  240SOL    HW1  736   1.784   0.893   2.482
  240SOL    HW2  737   1.681   0.987   2.399
  241SOL     OW  738   1.641   1.108   2.294
  241SOL    HW1  739   1.727   1.110   2.242
  241SOL    HW2  740   1.655   1.155   2.382
  242SOL     OW  741   0.113   0.737   3.459
  242SOL    HW1  742   0.201   0.724   3.504
  242SOL    HW2  743   0.100   0.834   3.437
  243SOL     OW  744   0.613   1.365   2.588
  243SOL    HW1  745   0.564   1.278   2.597
  243SOL    HW2  746   0.590   1.408   2.501
  244SOL     OW  747   1.293   1.228   3.285
  244SOL    HW1  748   1.330   1.155   3.227
  244SOL    HW2  749   1.345   1.233   3.370
  245SOL     OW  750   0.809   0.004   2.364
  245SOL    HW1  751   0.849   0.095   2.355
  245SOL    HW2  752   0.709   0.012   2.370
  246SOL     OW  753   0.197   0.976   3.126
  246SOL    HW1  754   0.286   0.931   3.112
  246SOL    HW2  755   0.124   0.911   3.107
  247SOL     OW  756   1.525   0.999   2.052
  247SOL    HW1  757   1.462   0.923   2.065
  247SOL    HW2  758   1.573   1.017   2.138
  248SOL     OW  759   1.187   1.792   3.478
  248SOL    HW1  760   1.211   1.852   3.402
  248SOL    HW2  761   1.194   1.697   3.448
  249SOL     OW  762   0.317   0.251   3.663
  249SOL    HW1  763   0.388   0.322   3.669
  249SOL    HW2  764   0.229   0.290   3.691
  250SOL     OW  765   1.466   1.417   2.815
  250SOL    HW1  766   1.407   1.423   2.895
  250SOL    HW2  767   1.451   1.329   2.769
  251SOL     OW  768   1.667   1.714   2.434
  251SOL    HW1  769   1.626   1.691   2.346
  251SOL    HW2  770   1.649   1.640   2.499
  252SOL     OW  771   0.598   0.729   2.132
  252SOL    HW1  772   0.622   0.798   2.064
  252SOL    HW2  773   0.520   0.762   2.186
  253SOL     OW  774   1.281   0.345   2.806
  253SOL    HW1  775   1.195   0.295   2.793
  253SOL    HW2  776   1.343   0.291   2.862
  254SOL     OW  777   1.576   1.662   2.169
  254SOL    HW1  778   1.665   1.708   2.172
  254SOL    HW2  779   1.555   1.638   2.074
  255SOL     OW  780   0.807   0.605   3.327
  255SOL    HW1  781   0.760   0.602   3.416
  255SOL    HW2  782   0.756   0.550   3.261
  256SOL     OW  783   1.394   0.469   3.536
  256SOL    HW1  784   1.374   0.512   3.624
  256SOL    HW2  785   1.472   0.407   3.545
  257SOL     OW  786   0.973   0.890   3.434
  257SOL    HW1  787   1.019   0.806   3.405
  257SOL    HW2  788   0.917   0.924   3.359
  258SOL     OW  789   0.991   0.410   3.104
  258SOL    HW1  790   0.914   0.444   3.158
  258SOL    HW2  791   0.957   0.359   3.025
  259SOL     OW  792   1.041   0.701   2.291
  259SOL    HW1  793   1.067   0.697   2.387
  259SOL    HW2  794   0.956   0.650   2.277
  260SOL     OW  795   0.076   0.811   2.651
  260SOL    HW1  796   0.175   0.799   2.660
  260SOL    HW2  797   0.052   0.906   2.672
  261SOL     OW  798   0.130   1.821   3.433
  261SOL    HW1  799   0.120   1.806   3.532
  261SOL    HW2  800   0.044   1.857   3.397
  262SOL     OW  801   0.865   0.348   2.057
  262SOL    HW1  802   0.924   0.411   2.008
  262SOL    HW2  803   0.884   0.254   2.028
  263SOL     OW  804   1.719   0.585   3.693
  263SOL    HW1  805   1.693   0.674   3.657
  263SOL    HW2  806   1.717   0.517   3.620
  264SOL     OW  807   1.362   1.144   2.407
  264SOL    HW1  808   1.445   1.115   2.359
  264SOL    HW2  809   1.313   1.211   2.351
  265SOL     OW  810   0.550   0.196   2.747
  265SOL    HW1  811   0.545   0.191   2.847
  265SOL    HW2  812   0.552   0.292   2.718
  266SOL     OW  813   1.008   1.456   2.339
  266SOL    HW1  814   0.962   1.528   2.287
  266SOL    HW2  815   1.004   1.476   2.437
  267SOL     OW  816   0.351   1.801   2.715
  267SOL    HW1  817   0.401   1.715   2.721
  267SOL    HW2  818   0.416   1.878   2.712
  268SOL     OW  819   1.795   1.066   2.735
  268SOL    HW1  820   1.733   1.051   2.659
  268SOL    HW2  821   1.743   1.077   2.820
  269SOL     OW  822   1.227   1.550   3.368
  269SOL    HW1  823   1.233   1.473   3.432
  269SOL    HW2  824   1.175   1.524   3.288
  270SOL     OW  825   0.321   0.943   2.104
  270SOL    HW1  826   0.403   0.982   2.062
  270SOL    HW2  827   0.294   0.861   2.055
  271SOL     OW  828   1.458   0.735   2.590
  271SOL    HW1  829   1.453   0.670   2.665
  271SOL    HW2  830   1.538   0.794   2.603
  272SOL     OW  831   0.461   1.266   3.589
  272SOL    HW1  832   0.411   1.267   3.503
  272SOL    HW2  833   0.398   1.248   3.665
  273SOL     OW  834   1.111   1.776   2.099
  273SOL    HW1  835   1.051   1.714   2.149
  273SOL    HW2  836   1.142   1.732   2.014
  274SOL     OW  837   0.202   0.285   3.360
  274SOL    HW1  838   0.122   0.345   3.347
  274SOL    HW2  839   0.192   0.236   3.446
  275SOL     OW  840   1.632   1.377   1.943
  275SOL    HW1  841   1.600   1.471   1.933
  275SOL    HW2  842   1.556   1.314   1.931
  276SOL     OW  843   0.464   1.743   2.185
  276SOL    HW1  844   0.497   1.782   2.271
  276SOL    HW2  845   0.540   1.736   2.120
  277SOL     OW  846   1.400   0.107   2.288
  277SOL    HW1  847   1.376   0.070   2.198
  277SOL    HW2  848   1.499   0.123   2.292
  278SOL     OW  849   0.249   1.785   3.103
  278SOL    HW1  850   0.306   1.720   3.153
  278SOL    HW2  851   0.233   1.752   3.010
  279SOL     OW  852   0.940   1.698   2.766
  279SOL    HW1  853   1.020   1.641   2.787
  279SOL    HW2  854   0.891   1.658   2.689
  280SOL     OW  855   0.382   0.700   2.342
  280SOL    HW1  856   0.427   0.610   2.339
  280SOL    HW2  857   0.288   0.689   2.375
  281SOL     OW  858   1.547   0.222   3.591
  281SOL    HW1  859   1.542   0.259   3.683
  281SOL    HW2  860   1.475   0.153   3.579
  282SOL     OW  861   0.614   0.122   1.979
  282SOL    HW1  862   0.712   0.100   1.986
  282SOL    HW2  863   0.583   0.105   1.886
  283SOL     OW  864   0.781   0.264   3.611
  283SOL    HW1  865   0.848   0.203   3.654
  283SOL    HW2  866   0.708   0.283   3.676
  284SOL     OW  867   0.888   1.514   3.057
  284SOL    HW1  868   0.865   1.489   2.963
  284SOL    HW2  869   0.949   1.445   3.096
  285SOL     OW  870   1.351   0.590   3.295
  285SOL    HW1  871   1.379   0.547   3.380
  285SOL    HW2  872   1.376   0.686   3.296
  286SOL     OW  873   0.803   1.402   2.786
  286SOL    HW1  874   0.893   1.416   2.744
  286SOL    HW2  875   0.732   1.404   2.715
  287SOL     OW  876   0.922   0.503   2.761
  287SOL    HW1  877   0.897   0.494   2.665
  287SOL    HW2  878   0.970   0.421   2.792
  288SOL     OW  879   0.539   0.064   2.374
  288SOL    HW1  880   0.458   0.065   2.432
  288SOL    HW2  881   0.542   0.147   2.319
  289SOL     OW  882   1.434   1.188   1.903
  289SOL    HW1  883   1.466   1.112   1.960
  289SOL    HW2  884   1.342   1.215   1.933
  290SOL     OW  885   0.297   0.035   2.033
  290SOL    HW1  886   0.346   0.119   2.012
  290SOL    HW2  887   0.359  -0.030   2.078
  291SOL     OW  888   0.935   0.236   2.342
  291SOL    HW1  889   0.887   0.277   2.264
  291SOL    HW2  890   1.034   0.234   2.323
  292SOL     OW  891   1.076   0.683   3.326
  292SOL    HW1  892   0.996   0.622   3.329
  292SOL    HW2  893   1.157   0.630   3.302
  293SOL     OW  894   1.227   1.570   2.655
  293SOL    HW1  895   1.248   1.644   2.590
  293SOL    HW2  896   1.295   1.570   2.728
  294SOL     OW  897   0.459   1.152   2.603
  294SOL    HW1  898   0.388   1.125   2.668
  294SOL    HW2  899   0.433   1.124   2.510
  295SOL     OW  900   1.271   1.797   2.453
  295SOL    HW1  901   1.315   1.861   2.389
  295SOL    HW2  902   1.221   1.849   2.523
  296SOL     OW  903   1.032   0.549   1.878
  296SOL    HW1  904   0.991   0.631   1.839
  296SOL    HW2  905   1.096   0.575   1.951
  297SOL     OW  906   0.078   0.556   3.248
  297SOL    HW1  907   0.170   0.555   3.207
  297SOL    HW2  908   0.072   0.630   3.315
  298SOL     OW  909   0.561   0.222   3.009
  298SOL    HW1  910   0.599   0.138   3.046
  298SOL    HW2  911   0.473   0.241   3.053
  299SOL     OW  912   0.866   0.454   2.504
  299SOL    HW1  913   0.834   0.526   2.442
  299SOL    HW2  914   0.890   0.373   2.451
  300SOL     OW  915   1.017   0.039   2.615
  300SOL    HW1  916   0.945   0.044   2.546
  300SOL    HW2  917   0.993  -0.030   2.684
  301SOL     OW  918   1.429   1.173   2.729
  301SOL    HW1  919   1.374   1.089   2.722
  301SOL    HW2  920   1.455   1.202   2.637
  302SOL     OW  921   1.466   0.590   2.854
  302SOL    HW1  922   1.436   0.495   2.861
  302SOL    HW2  923   1.539   0.606   2.920
  303SOL     OW  924   1.857   0.833   2.239
  303SOL    HW1  925   1.899   0.769   2.303
  303SOL    HW2  926   1.819   0.782   2.161
  304SOL     OW  927   0.488   1.385   2.036
  304SOL    HW1  928   0.401   1.370   2.083
  304SOL    HW2  929   0.471   1.411   1.941
  305SOL     OW  930   1.664   1.280   2.519
  305SOL    HW1  931   1.763   1.288   2.533
  305SOL    HW2  932   1.619   1.364   2.550
  306SOL     OW  933   1.390   0.575   1.940
  306SOL    HW1  934   1.336   0.554   2.021
  306SOL    HW2  935   1.481   0.534   1.949
  307SOL     OW  936   0.527   0.256   2.190
  307SOL    HW1  937   0.554   0.197   2.115
  307SOL    HW2  938   0.527   0.351   2.159
  308SOL     OW  939   1.754   1.223   3.450
  308SOL    HW1  940   1.845   1.184   3.437
  308SOL    HW2  941   1.762   1.319   3.474
  309SOL     OW  942   1.064   1.347   3.202
  309SOL    HW1  943   0.984   1.324   3.257
  309SOL    HW2  944   1.147   1.321   3.251
  310SOL     OW  945   1.592   1.629   3.487
  310SOL    HW1  946   1.619   1.663   3.397
  310SOL    HW2  947   1.671   1.591   3.533
  311SOL     OW  948   1.111   1.195   2.962
  311SOL    HW1  949   1.071   1.239   3.043
  311SOL    HW2  950   1.070   1.232   2.879
  312SOL     OW  951   1.638   1.099   2.941
  312SOL    HW1  952   1.643   1.180   3.000
  312SOL    HW2  953   1.552   1.101   2.890
  313SOL     OW  954   0.915   0.089   3.264
  313SOL    HW1  955   0.940   0.069   3.169
  313SOL    HW2  956   0.987   0.145   3.306
  314SOL     OW  957   0.980   1.116   3.581
  314SOL    HW1  958   0.881   1.122   3.591
  314SOL    HW2  959   1.003   1.036   3.525
  315SOL     OW  960   0.705   1.050   2.230
  315SOL    HW1  961   0.691   1.057   2.329
  315SOL    HW2  962   0.789   0.999   2.212
  316SOL     OW  963   0.410   0.813   3.113
  316SOL    HW1  964   0.496   0.825   3.163
  316SOL    HW2  965   0.368   0.726   3.140
  317SOL     OW  966   1.274   0.386   3.124
  317SOL    HW1  967   1.295   0.460   3.188
  317SOL    HW2  968   1.185   0.403   3.081
  318SOL     OW  969   0.064   1.564   3.193
  318SOL    HW1  970   0.018   1.646   3.159
  318SOL    HW2  971   0.162   1.583   3.202
  319SOL     OW  972   0.367   1.100   2.363
  319SOL    HW1  973   0.360   1.183   2.307
  319SOL    HW2  974   0.371   1.020   2.303
  320SOL     OW  975   0.566   0.537   2.727
  320SOL    HW1  976   0.578   0.603   2.653
  320SOL    HW2  977   0.612   0.571   2.810
  321SOL     OW  978   1.252   1.348   2.250
  321SOL    HW1  979   1.302   1.425   2.290
  321SOL    HW2  980   1.157   1.350   2.282
  322SOL     OW  981   1.272   1.445   3.004
  322SOL    HW1  982   1.319   1.458   3.091
  322SOL    HW2  983   1.206   1.371   3.013
  323SOL     OW  984   1.582   0.639   2.334
  323SOL    HW1  985   1.551   0.700   2.407
  323SOL    HW2  986   1.632   0.691   2.265
  324SOL     OW  987   0.354   1.510   3.191
  324SOL    HW1  988   0.333   1.466   3.104
  324SOL    HW2  989   0.451   1.536   3.194
  325SOL     OW  990   0.402   0.751   3.460
  325SOL    HW1  991   0.470   0.806   3.413
  325SOL    HW2  992   0.442   0.663   3.487
  326SOL     OW  993   1.587   0.779   3.532
  326SOL    HW1  994   1.495   0.817   3.527
  326SOL    HW2  995   1.647   0.826   3.467
  327SOL     OW  996   1.013   0.105   3.632
  327SOL    HW1  997   1.019   0.190   3.580
  327SOL    HW2  998   1.045   0.029   3.575
  328SOL     OW  999   0.504   0.050   3.602
  328SOL    HW1 1000   0.462  -0.007   3.532
  328SOL    HW2 1001   0.438   0.119   3.634
  329SOL     OW 1002   0.573   0.870   2.891
  329SOL    HW1 1003   0.617   0.959   2.882
  329SOL    HW2 1004   0.510   0.870   2.968
  330SOL     OW 1005   1.360   0.862   2.907
  330SOL    HW1 1006   1.285   0.862   2.841
  330SOL    HW2 1007   1.397   0.770   2.916
  331SOL     OW 1008   1.209   0.525   2.137
  331SOL    HW1 1009   1.222   0.441   2.191
  331SOL    HW2 1010   1.180   0.599   2.197
  332SOL     OW 1011   0.307   0.213   3.093
  332SOL    HW1 1012   0.284   0.250   3.183
  332SOL    HW2 1013   0.277   0.118   3.087
  333SOL     OW 1014   0.037   1.310   3.144
  333SOL    HW1 1015   0.090   1.261   3.212
  333SOL    HW2 1016   0.059   1.408   3.149
  334SOL     OW 1017   0.732   0.634   2.926
  334SOL    HW1 1018   0.791   0.608   2.850
  334SOL    HW2 1019   0.704   0.730   2.915
  335SOL     OW 1020   1.728   0.935   3.716
  335SOL    HW1 1021   1.682   0.928   3.627
  335SOL    HW2 1022   1.666   0.979   3.782
  336SOL     OW 1023   0.307   0.063   2.480
  336SOL    HW1 1024   0.296   0.157   2.513
  336SOL    HW2 1025   0.302   0.000   2.557
  337SOL     OW 1026   1.622   0.367   2.236
  337SOL    HW1 1027   1.624   0.291   2.300
  337SOL    HW2 1028   1.574   0.444   2.276
  338SOL     OW 1029   1.023   0.766   2.828
  338SOL    HW1 1030   1.038   0.787   2.924
  338SOL    HW2 1031   0.993   0.671   2.819
  339SOL     OW 1032   0.980   1.573   3.562
  339SOL    HW1 1033   0.960   1.617   3.474
  339SOL    HW2 1034   1.019   1.482   3.546
  340SOL     OW 1035   1.859   1.518   3.467
  340SOL    HW1 1036   1.873   1.545   3.372
  340SOL    HW2 1037   1.942   1.540   3.520
  341SOL     OW 1038   0.350   0.898   3.666
  341SOL    HW1 1039   0.426   0.942   3.714
  341SOL    HW2 1040   0.385   0.851   3.584
  342SOL     OW 1041   1.540   0.274   1.987
  342SOL    HW1 1042   1.479   0.199   2.010
  342SOL    HW2 1043   1.562   0.326   2.070
  343SOL     OW 1044   1.303   0.838   1.904
  343SOL    HW1 1045   1.337   0.745   1.919
  343SOL    HW2 1046   1.321   0.865   1.809
  344SOL     OW 1047   1.068   1.333   2.711
  344SOL    HW1 1048   1.075   1.249   2.656
  344SOL    HW2 1049   1.130   1.402   2.675
  345SOL     OW 1050   0.319   0.810   2.811
  345SOL    HW1 1051   0.412   0.846   2.816
  345SOL    HW2 1052   0.313   0.725   2.863
  346SOL     OW 1053   0.339   0.509   2.868
  346SOL    HW1 1054   0.287   0.426   2.851
  346SOL    HW2 1055   0.416   0.514   2.804
  347SOL     OW 1056   1.138   0.380   3.540
  347SOL    HW1 1057   1.093   0.443   3.604
  347SOL    HW2 1058   1.231   0.411   3.523
  348SOL     OW 1059   1.160   0.207   3.339
  348SOL    HW1 1060   1.160   0.271   3.416
  348SOL    HW2 1061   1.188   0.255   3.256
  349SOL     OW 1062   0.008   1.326   2.062
  349SOL    HW1 1063  -0.085   1.347   2.031
  349SOL    HW2 1064   0.018   1.227   2.075
  350SOL     OW 1065   0.088   1.801   2.789
  350SOL    HW1 1066   0.046   1.715   2.762
  350SOL    HW2 1067   0.182   1.804   2.755
  351SOL     OW 1068   0.504   1.568   2.772
  351SOL    HW1 1069   0.570   1.642   2.781
  351SOL    HW2 1070   0.548   1.489   2.730
  352SOL     OW 1071   1.002   0.796   3.100
  352SOL    HW1 1072   1.043   0.764   3.186
  352SOL    HW2 1073   0.906   0.769   3.097
  353SOL     OW 1074   0.040   0.544   2.976
  353SOL    HW1 1075   0.125   0.511   2.935
  353SOL    HW2 1076   0.053   0.559   3.074
  354SOL     OW 1077   0.189   0.520   3.584
  354SOL    HW1 1078   0.248   0.480   3.514
  354SOL    HW2 1079   0.131   0.591   3.543
  355SOL     OW 1080   1.369   0.950   3.522
  355SOL    HW1 1081   1.408   1.039   3.542
  355SOL    HW2 1082   1.379   0.930   3.425
  356SOL     OW 1083   0.815   0.572   2.187
  356SOL    HW1 1084   0.822   0.483   2.141
  356SOL    HW2 1085   0.721   0.606   2.179
  357SOL     OW 1086   1.657   0.604   3.068
  357SOL    HW1 1087   1.619   0.535   3.130
  357SOL    HW2 1088   1.739   0.568   3.024
  358SOL     OW 1089   0.252   1.564   3.606
  358SOL    HW1 1090   0.222   1.621   3.682
  358SOL    HW2 1091   0.245   1.467   3.632
  359SOL     OW 1092   0.671   0.464   3.131
  359SOL    HW1 1093   0.637   0.375   3.101
  359SOL    HW2 1094   0.697   0.518   3.051
  360SOL     OW 1095   0.930   1.678   3.327
  360SOL    HW1 1096   0.906   1.660   3.232
  360SOL    HW2 1097   0.960   1.772   3.337
  361SOL     OW 1098   0.473   0.500   2.053
  361SOL    HW1 1099   0.534   0.580   2.057
  361SOL    HW2 1100   0.378   0.531   2.060
  362SOL     OW 1101   0.159   1.137   3.328
  362SOL    HW1 1102   0.181   1.076   3.404
  362SOL    HW2 1103   0.169   1.088   3.242
  363SOL     OW 1104   1.347   1.059   3.096
  363SOL    HW1 1105   1.371   0.996   3.022
  363SOL    HW2 1106   1.257   1.099   3.078
  364SOL     OW 1107   1.302   0.855   2.171
  364SOL    HW1 1108   1.216   0.824   2.213
  364SOL    HW2 1109   1.298   0.841   2.072
  365SOL     OW 1110   1.759   1.747   3.016
  365SOL    HW1 1111   1.820   1.777   2.943
  365SOL    HW2 1112   1.721   1.658   2.994
  366SOL     OW 1113   1.252   1.731   2.990
  366SOL    HW1 1114   1.336   1.736   2.936
  366SOL    HW2 1115   1.229   1.635   3.008
  367SOL     OW 1116   0.083   1.258   2.884
  367SOL    HW1 1117   0.078   1.257   2.984
  367SOL    HW2 1118   0.000   1.217   2.846
  368SOL     OW 1119   0.688   1.662   3.578
  368SOL    HW1 1120   0.632   1.743   3.587
  368SOL    HW2 1121   0.740   1.666   3.492
  369SOL     OW 1122   1.726   0.135   2.385
  369SOL    HW1 1123   1.799   0.118   2.318
  369SOL    HW2 1124   1.695   0.048   2.423
  370SOL     OW 1125   1.388   1.573   2.339
  370SOL    HW1 1126   1.455   1.585   2.265
  370SOL    HW2 1127   1.348   1.662   2.362
  371SOL     OW 1128   0.130   1.794   3.713
  371SOL    HW1 1129   0.089   1.720   3.766
  371SOL    HW2 1130   0.194   1.845   3.771
  372SOL     OW 1131   1.280   0.927   2.534
  372SOL    HW1 1132   1.340   0.846   2.536
  372SOL    HW2 1133   1.320   0.996   2.474
  373SOL     OW 1134   0.830   1.273   3.284
  373SOL    HW1 1135   0.825   1.306   3.379
  373SOL    HW2 1136   0.744   1.292   3.238
  374SOL     OW 1137   0.672   1.616   2.016
  374SOL    HW1 1138   0.681   1.626   1.917
  374SOL    HW2 1139   0.632   1.527   2.037
  375SOL     OW 1140   1.650   1.720   3.256
  375SOL    HW1 1141   1.703   1.730   3.172
  375SOL    HW2 1142   1.623   1.810   3.290
  376SOL     OW 1143   1.841   0.175   2.825
  376SOL    HW1 1144   1.880   0.090   2.789
  376SOL    HW2 1145   1.743   0.177   2.806
  377SOL     OW 1146   0.263   0.326   2.582
  377SOL    HW1 1147   0.184   0.377   2.548
  377SOL    HW2 1148   0.254   0.311   2.680
  378SOL     OW 1149   1.194   1.612   1.893
  378SOL    HW1 1150   1.200   1.519   1.930
  378SOL    HW2 1151   1.135   1.612   1.813
  379SOL     OW 1152   0.822   1.002   3.234
  379SOL    HW1 1153   0.862   1.001   3.142
  379SOL    HW2 1154   0.832   1.094   3.274
  380SOL     OW 1155   0.916   0.910   2.153
  380SOL    HW1 1156   0.979   0.948   2.085
  380SOL    HW2 1157   0.956   0.827   2.192
  381SOL     OW 1158   1.504   1.607   1.906
  381SOL    HW1 1159   1.412   1.644   1.913
  381SOL    HW2 1160   1.542   1.627   1.816
  382SOL     OW 1161   0.372   1.288   3.352
  382SOL    HW1 1162   0.359   1.381   3.318
  382SOL    HW2 1163   0.288   1.236   3.339
  383SOL     OW 1164   1.614   1.292   3.151
  383SOL    HW1 1165   1.674   1.295   3.231
  383SOL    HW2 1166   1.539   1.356   3.164
  384SOL     OW 1167   1.039   1.098   2.558
  384SOL    HW1 1168   0.969   1.051   2.612
  384SOL    HW2 1169   1.098   1.030   2.515
  385SOL     OW 1170   1.014   0.236   2.833
  385SOL    HW1 1171   1.006   0.200   2.740
  385SOL    HW2 1172   1.012   0.160   2.898
  386SOL     OW 1173   0.590   1.487   2.353
  386SOL    HW1 1174   0.632   1.429   2.283
  386SOL    HW2 1175   0.546   1.566   2.309
  387SOL     OW 1176   1.709   0.385   3.243
  387SOL    HW1 1177   1.782   0.454   3.247
  387SOL    HW2 1178   1.737   0.310   3.184
  388SOL     OW 1179   0.255   1.348   2.152
  388SOL    HW1 1180   0.159   1.349   2.125
  388SOL    HW2 1181   0.267   1.401   2.236
  389SOL     OW 1182   0.105   1.013   3.588
  389SOL    HW1 1183   0.028   0.980   3.642
  389SOL    HW2 1184   0.190   0.983   3.630
  390SOL     OW 1185   0.672   0.203   3.351
  390SOL    HW1 1186   0.762   0.187   3.311
  390SOL    HW2 1187   0.680   0.208   3.450
  391SOL     OW 1188   0.075   0.345   1.895
  391SOL    HW1 1189  -0.017   0.317   1.866
  391SOL    HW2 1190   0.106   0.422   1.839
  392SOL     OW 1191   1.440   0.856   3.260
  392SOL    HW1 1192   1.383   0.908   3.197
  392SOL    HW2 1193   1.536   0.868   3.236
  393SOL     OW 1194   0.072   0.166   2.180
  393SOL    HW1 1195   0.055   0.249   2.126
  393SOL    HW2 1196   0.162   0.129   2.158
  394SOL     OW 1197   1.183   1.335   1.981
  394SOL    HW1 1198   1.084   1.324   1.983
  394SOL    HW2 1199   1.217   1.350   2.074
  395SOL     OW 1200   0.613   0.842   3.293
  395SOL    HW1 1201   0.669   0.923   3.276
  395SOL    HW2 1202   0.672   0.762   3.296
  396SOL     OW 1203   1.493   1.767   2.821
  396SOL    HW1 1204   1.526   1.831   2.752
  396SOL    HW2 1205   1.559   1.761   2.896
  397SOL     OW 1206   0.716   0.565   3.570
  397SOL    HW1 1207   0.735   0.630   3.644
  397SOL    HW2 1208   0.776   0.485   3.579
  398SOL     OW 1209   1.450   1.220   3.495
  398SOL    HW1 1210   1.441   1.210   3.594
  398SOL    HW2 1211   1.546   1.213   3.469
  399SOL     OW 1212   0.390   1.741   3.422
  399SOL    HW1 1213   0.299   1.782   3.420
  399SOL    HW2 1214   0.383   1.647   3.454
  400SOL     OW 1215   1.674   0.883   3.116
  400SOL    HW1 1216   1.647   0.794   3.079
  400SOL    HW2 1217   1.675   0.951   3.043
  401SOL     OW 1218   1.225   0.325   2.311
  401SOL    HW1 1219   1.290   0.251   2.300
  401SOL    HW2 1220   1.245   0.375   2.395
  402SOL     OW 1221   0.594   0.745   2.514
  402SOL    HW1 1222   0.644   0.830   2.495
  402SOL    HW2 1223   0.506   0.747   2.466
  403SOL     OW 1224   1.777   0.342   3.504
  403SOL    HW1 1225   1.760   0.373   3.410
  403SOL    HW2 1226   1.693   0.305   3.542
  404SOL     OW 1227   1.730   0.934   3.379
  404SOL    HW1 1228   1.768   1.025   3.394
  404SOL    HW2 1229   1.722   0.917   3.280
  405SOL     OW 1230   0.859   1.374   1.878
  405SOL    HW1 1231   0.813   1.389   1.966
  405SOL    HW2 1232   0.903   1.459   1.848
  406SOL     OW 1233   0.661   1.790   2.815
  406SOL    HW1 1234   0.615   1.878   2.802
  406SOL    HW2 1235   0.760   1.802   2.808
  407SOL     OW 1236   0.859   0.956   2.723
  407SOL    HW1 1237   0.913   0.887   2.771
  407SOL    HW2 1238   0.827   1.025   2.789
  408SOL     OW 1239   1.083   0.984   1.949
  408SOL    HW1 1240   1.060   1.037   1.867
  408SOL    HW2 1241   1.164   0.928   1.930
  409SOL     OW 1242   1.861   1.569   2.713
  409SOL    HW1 1243   1.790   1.557   2.643
  409SOL    HW2 1244   1.862   1.490   2.773
  410SOL     OW 1245   0.221   1.314   3.706
  410SOL    HW1 1246   0.156   1.241   3.685
  410SOL    HW2 1247   0.225   1.328   3.804
  411SOL     OW 1248   0.079   1.240   2.515
  411SOL    HW1 1249   0.078   1.193   2.603
  411SOL    HW2 1250   0.161   1.212   2.464
  412SOL     OW 1251   0.672   1.391   3.486
  412SOL    HW1 1252   0.594   1.341   3.524
  412SOL    HW2 1253   0.669   1.486   3.517
  413SOL     OW 1254   1.824   0.192   3.089
  413SOL    HW1 1255   1.820   0.102   3.133
  413SOL    HW2 1256   1.827   0.181   2.990
  414SOL     OW 1257   0.428   0.424   2.382
  414SOL    HW1 1258   0.458   0.352   2.320
  414SOL    HW2 1259   0.389   0.384   2.465
  415SOL     OW 1260   1.705   1.487   2.966
  415SOL    HW1 1261   1.612   1.462   2.939
  415SOL    HW2 1262   1.731   1.437   3.048
  416SOL     OW 1263   0.317   0.547   3.142
  416SOL    HW1 1264   0.355   0.488   3.214
  416SOL    HW2 1265   0.357   0.521   3.054
  417SOL     OW 1266   0.812   1.586   2.549
  417SOL    HW1 1267   0.844   1.596   2.455
  417SOL    HW2 1268   0.733   1.524   2.551
  418SOL     OW 1269   1.424   0.214   2.974
  418SOL    HW1 1270   1.476   0.149   3.029
  418SOL    HW2 1271   1.375   0.277   3.035
  419SOL     OW 1272   1.001   0.034   3.016
  419SOL    HW1 1273   0.938  -0.038   2.985
  419SOL    HW2 1274   1.094  -0.002   3.016
  420SOL     OW 1275   0.770   1.330   2.163
  420SOL    HW1 1276   0.724   1.243   2.180
  420SOL    HW2 1277   0.861   1.327   2.204
  421SOL     OW 1278   0.618   1.567   3.146
  421SOL    HW1 1279   0.613   1.649   3.203
  421SOL    HW2 1280   0.707   1.564   3.101
  422SOL     OW 1281   1.352   0.052   2.030
  422SOL    HW1 1282   1.387   0.011   1.946
  422SOL    HW2 1283   1.262   0.014   2.050
  423SOL     OW 1284   1.300   0.453   2.553
  423SOL    HW1 1285   1.241   0.533   2.557
  423SOL    HW2 1286   1.315   0.418   2.646
  424SOL     OW 1287   1.593   0.221   2.744
  424SOL    HW1 1288   1.509   0.220   2.798
  424SOL    HW2 1289   1.595   0.304   2.688
  425SOL     OW 1290   0.039   1.077   2.162
  425SOL    HW1 1291   0.138   1.066   2.153
  425SOL    HW2 1292  -0.001   0.991   2.194
  426SOL     OW 1293   0.875   1.646   2.199
  426SOL    HW1 1294   0.798   1.611   2.145
  426SOL    HW2 1295   0.843   1.717   2.261
  427SOL     OW 1296   0.230   0.628   3.837
  427SOL    HW1 1297   0.137   0.626   3.874
  427SOL    HW2 1298   0.231   0.589   3.745
  428SOL     OW 1299   0.019   0.368   4.371
  428SOL    HW1 1300  -0.063   0.411   4.410
  428SOL    HW2 1301  -0.009   0.295   4.308
  429SOL     OW 1302   1.555   1.511   4.427
  429SOL    HW1 1303   1.498   1.495   4.508
  429SOL    HW2 1304   1.496   1.521   4.347
  430SOL     OW 1305   1.135   0.703   4.441
  430SOL    HW1 1306   1.192   0.781   4.416
  430SOL    HW2 1307   1.075   0.729   4.517
  431SOL     OW 1308   1.755   0.607   3.955
  431SOL    HW1 1309   1.743   0.594   3.856
  431SOL    HW2 1310   1.725   0.526   4.004
  432SOL     OW 1311   0.768   1.144   4.747
  432SOL    HW1 1312   0.690   1.161   4.807
  432SOL    HW2 1313   0.802   1.231   4.711
  433SOL     OW 1314   0.685   1.012   4.389
  433SOL    HW1 1315   0.754   0.996   4.459
  433SOL    HW2 1316   0.612   1.069   4.427
  434SOL     OW 1317   1.603   0.447   4.461
  434SOL    HW1 1318   1.529   0.493   4.411
  434SOL    HW2 1319   1.654   0.515   4.514
  435SOL     OW 1320   0.231   1.713   4.207
  435SOL    HW1 1321   0.265   1.790   4.261
  435SOL    HW2 1322   0.275   1.713   4.117
  436SOL     OW 1323   0.230   1.434   4.262
  436SOL    HW1 1324   0.204   1.530   4.262
  436SOL    HW2 1325   0.159   1.380   4.307
  437SOL     OW 1326   0.240   1.091   4.610
  437SOL    HW1 1327   0.254   1.007   4.662
  437SOL    HW2 1328   0.185   1.155   4.665
  438SOL     OW 1329   0.606   0.964   3.847
  438SOL    HW1 1330   0.613   1.048   3.793
  438SOL    HW2 1331   0.652   0.977   3.935
  439SOL     OW 1332   0.122   0.643   4.287
  439SOL    HW1 1333   0.077   0.555   4.304
  439SOL    HW2 1334   0.121   0.697   4.371
  440SOL     OW 1335   1.842   1.767   4.083
  440SOL    HW1 1336   1.896   1.738   4.163
  440SOL    HW2 1337   1.872   1.857   4.054
  441SOL     OW 1338   0.027   1.596   3.841
  441SOL    HW1 1339   0.008   1.500   3.862
  441SOL    HW2 1340  -0.006   1.654   3.916
  442SOL     OW 1341   1.689   0.922   4.336
  442SOL    HW1 1342   1.784   0.893   4.344
  442SOL    HW2 1343   1.681   0.987   4.261
  443SOL     OW 1344   1.641   1.108   4.156
  443SOL    HW1 1345   1.727   1.110   4.104
  443SOL    HW2 1346   1.655   1.155   4.244
  444SOL     OW 1347   0.613   1.365   4.450
  444SOL    HW1 1348   0.564   1.278   4.459
  444SOL    HW2 1349   0.590   1.408   4.363
  445SOL     OW 1350   0.809   0.004   4.226
  445SOL    HW1 1351   0.849   0.095   4.217
  445SOL    HW2 1352   0.709   0.012   4.232
  446SOL     OW 1353   1.525   0.999   3.914
  446SOL    HW1 1354   1.462   0.923   3.927
  446SOL    HW2 1355   1.573   1.017   4.000
  447SOL     OW 1356   1.667   1.714   4.296
  447SOL    HW1 1357   1.626   1.691   4.208
  447SOL    HW2 1358   1.649   1.640   4.361
  448SOL     OW 1359   0.598   0.729   3.994
  448SOL    HW1 1360   0.622   0.798   3.926
  448SOL    HW2 1361   0.520   0.762   4.048
  449SOL     OW 1362   1.281   0.345   4.668
  449SOL    HW1 1363   1.195   0.295   4.655
  449SOL    HW2 1364   1.343   0.291   4.724
  450SOL     OW 1365   1.576   1.662   4.031
  450SOL    HW1 1366   1.665   1.708   4.034
  450SOL    HW2 1367   1.555   1.638   3.936
  451SOL     OW 1368   1.041   0.701   4.153
  451SOL    HW1 1369   1.067   0.697   4.249
  451SOL    HW2 1370   0.956   0.650   4.139
  452SOL     OW 1371   0.076   0.811   4.513
  452SOL    HW1 1372   0.175   0.799   4.522
  452SOL    HW2 1373   0.052   0.906   4.534
  453SOL     OW 1374   0.865   0.348   3.919
  453SOL    HW1 1375   0.924   0.411   3.870
  453SOL    HW2 1376   0.884   0.254   3.890
  454SOL     OW 1377   1.362   1.144   4.269
  454SOL    HW1 1378   1.445   1.115   4.221
  454SOL    HW2 1379   1.313   1.211   4.213
  455SOL     OW 1380   1.008   1.456   4.201
  455SOL    HW1 1381   0.962   1.528   4.149
  455SOL    HW2 1382   1.004   1.476   4.299
  456SOL     OW 1383   0.351   1.801   4.577
  456SOL    HW1 1384   0.401   1.715   4.583
  456SOL    HW2 1385   0.416   1.878   4.574
  457SOL     OW 1386   1.795   1.066   4.597
  457SOL    HW1 1387   1.733   1.051   4.521
  457SOL    HW2 1388   1.743   1.077   4.682
  458SOL     OW 1389   0.321   0.943   3.966
  458SOL    HW1 1390   0.403   0.982   3.924
  458SOL    HW2 1391   0.294   0.861   3.917
  459SOL     OW 1392   1.458   0.735   4.452
  459SOL    HW1 1393   1.453   0.670   4.527
  459SOL    HW2 1394   1.538   0.794   4.465
  460SOL     OW 1395   1.111   1.776   3.961
  460SOL    HW1 1396   1.051   1.714   4.011
  460SOL    HW2 1397   1.142   1.732   3.876
  461SOL     OW 1398   1.632   1.377   3.805
  461SOL    HW1 1399   1.600   1.471   3.795
  461SOL    HW2 1400   1.556   1.314   3.793
  462SOL     OW 1401   0.464   1.743   4.047
  462SOL    HW1 1402   0.497   1.782   4.133
  462SOL    HW2 1403   0.540   1.736   3.982
  463SOL     OW 1404   1.400   0.107   4.150
  463SOL    HW1 1405   1.376   0.070   4.060
  463SOL    HW2 1406   1.499   0.123   4.154
  464SOL     OW 1407   0.382   0.700   4.204
  464SOL    HW1 1408   0.427   0.610   4.201
  464SOL    HW2 1409   0.288   0.689   4.237
  465SOL     OW 1410   0.614   0.122   3.841
  465SOL    HW1 1411   0.712   0.100   3.848
  465SOL    HW2 1412   0.583   0.105   3.748
  466SOL     OW 1413   0.539   0.064   4.236
  466SOL    HW1 1414   0.458   0.065   4.294
  466SOL    HW2 1415   0.542   0.147   4.181
  467SOL     OW 1416   1.434   1.188   3.765
  467SOL    HW1 1417   1.466   1.112   3.822
  467SOL    HW2 1418   1.342   1.215   3.795
  468SOL     OW 1419   0.297   0.035   3.895
  468SOL    HW1 1420   0.346   0.119   3.874
  468SOL    HW2 1421   0.359  -0.030   3.940
  469SOL     OW 1422   0.935   0.236   4.204
  469SOL    HW1 1423   0.887   0.277   4.126
  469SOL    HW2 1424   1.034   0.234   4.185
  470SOL     OW 1425   0.459   1.152   4.465
  470SOL    HW1 1426   0.388   1.125   4.530
  470SOL    HW2 1427   0.433   1.124   4.372
  471SOL     OW 1428   1.271   1.797   4.315
  471SOL    HW1 1429   1.315   1.861   4.251
  471SOL    HW2 1430   1.221   1.849   4.385
  472SOL     OW 1431   1.032   0.549   3.740
  472SOL    HW1 1432   0.991   0.631   3.701
  472SOL    HW2 1433   1.096   0.575   3.813
  473SOL     OW 1434   0.866   0.454   4.366
  473SOL    HW1 1435   0.834   0.526   4.304
  473SOL    HW2 1436   0.890   0.373   4.313
  474SOL     OW 1437   1.017   0.039   4.477
  474SOL    HW1 1438   0.945   0.044   4.408
  474SOL    HW2 1439   0.993  -0.030   4.546
  475SOL     OW 1440   1.857   0.833   4.101
  475SOL    HW1 1441   1.899   0.769   4.165
  475SOL    HW2 1442   1.819   0.782   4.023
  476SOL     OW 1443   0.488   1.385   3.898
  476SOL    HW1 1444   0.401   1.370   3.945
  476SOL    HW2 1445   0.471   1.411   3.803
  477SOL     OW 1446   1.664   1.280   4.381
  477SOL    HW1 1447   1.763   1.288   4.395
  477SOL    HW2 1448   1.619   1.364   4.412
  478SOL     OW 1449   1.390   0.575   3.802
  478SOL    HW1 1450   1.336   0.554   3.883
  478SOL    HW2 1451   1.481   0.534   3.811
  479SOL     OW 1452   0.527   0.256   4.052
  479SOL    HW1 1453   0.554   0.197   3.977
  479SOL    HW2 1454   0.527   0.351   4.021
  480SOL     OW 1455   0.705   1.050   4.092
  480SOL    HW1 1456   0.691   1.057   4.191
  480SOL    HW2 1457   0.789   0.999   4.074
  481SOL     OW 1458   0.367   1.100   4.225
  481SOL    HW1 1459   0.360   1.183   4.169
  481SOL    HW2 1460   0.371   1.020   4.165
  482SOL     OW 1461   0.566   0.537   4.589
  482SOL    HW1 1462   0.578   0.603   4.515
  482SOL    HW2 1463   0.612   0.571   4.672
  483SOL     OW 1464   1.252   1.348   4.112
  483SOL    HW1 1465   1.302   1.425   4.152
  483SOL    HW2 1466   1.157   1.350   4.144
  484SOL     OW 1467   1.582   0.639   4.196
  484SOL    HW1 1468   1.551   0.700   4.269
  484SOL    HW2 1469   1.632   0.691   4.127
  485SOL     OW 1470   1.209   0.525   3.999
  485SOL    HW1 1471   1.222   0.441   4.053
  485SOL    HW2 1472   1.180   0.599   4.059
  486SOL     OW 1473   0.307   0.063   4.342
  486SOL    HW1 1474   0.296   0.157   4.375
  486SOL    HW2 1475   0.302   0.000   4.419
  487SOL     OW 1476   1.622   0.367   4.098
  487SOL    HW1 1477   1.624   0.291   4.162
  487SOL    HW2 1478   1.574   0.444   4.138
  488SOL     OW 1479   1.540   0.274   3.849
  488SOL    HW1 1480   1.479   0.199   3.872
  488SOL    HW2 1481   1.562   0.326   3.932
  489SOL     OW 1482   1.303   0.838   3.766
  489SOL    HW1 1483   1.337   0.745   3.781
  489SOL    HW2 1484   1.321   0.865   3.671
  490SOL     OW 1485   1.068   1.333   4.573
  490SOL    HW1 1486   1.075   1.249   4.518
  490SOL    HW2 1487   1.130   1.402   4.537
  491SOL     OW 1488   0.008   1.326   3.924
  491SOL    HW1 1489  -0.085   1.347   3.893
  491SOL    HW2 1490   0.018   1.227   3.937
  492SOL     OW 1491   0.088   1.801   4.651
  492SOL    HW1 1492   0.046   1.715   4.624
  492SOL    HW2 1493   0.182   1.804   4.617
  493SOL     OW 1494   0.815   0.572   4.049
  493SOL    HW1 1495   0.822   0.483   4.003
  493SOL    HW2 1496   0.721   0.606   4.041
  494SOL     OW 1497   0.473   0.500   3.915
  494SOL    HW1 1498   0.534   0.580   3.919
  494SOL    HW2 1499   0.378   0.531   3.922
  495SOL     OW 1500   1.302   0.855   4.033
  495SOL    HW1 1501   1.216   0.824   4.075
  495SOL    HW2 1502   1.298   0.841   3.934
  496SOL     OW 1503   1.726   0.135   4.247
  496SOL    HW1 1504   1.799   0.118   4.180
  496SOL    HW2 1505   1.695   0.048   4.285
  497SOL     OW 1506   1.388   1.573   4.201
  497SOL    HW1 1507   1.455   1.585   4.127
  497SOL    HW2 1508   1.348   1.662   4.224
  498SOL     OW 1509   1.280   0.927   4.396
  498SOL    HW1 1510   1.340   0.846   4.398
  498SOL    HW2 1511   1.320   0.996   4.336
  499SOL     OW 1512   0.672   1.616   3.878
  499SOL    HW1 1513   0.681   1.626   3.779
  499SOL    HW2 1514   0.632   1.527   3.899
  500SOL     OW 1515   1.841   0.175   4.687
  500SOL    HW1 1516   1.880   0.090   4.651
  500SOL    HW2 1517   1.743   0.177   4.668
  501SOL     OW 1518   0.263   0.326   4.444
  501SOL    HW1 1519   0.184   0.377   4.410
  501SOL    HW2 1520   0.254   0.311   4.542
  502SOL     OW 1521   1.194   1.612   3.755
  502SOL    HW1 1522   1.200   1.519   3.792
  502SOL    HW2 1523   1.135   1.612   3.675
  503SOL     OW 1524   0.916   0.910   4.015
  503SOL    HW1 1525   0.979   0.948   3.947
  503SOL    HW2 1526   0.956   0.827   4.054
  504SOL     OW 1527   1.504   1.607   3.768
  504SOL    HW1 1528   1.412   1.644   3.775
  504SOL    HW2 1529   1.542   1.627   3.678
  505SOL     OW 1530   1.039   1.098   4.420
  505SOL    HW1 1531   0.969   1.051   4.474
  505SOL    HW2 1532   1.098   1.030   4.377
  506SOL     OW 1533   0.590   1.487   4.215
  506SOL    HW1 1534   0.632   1.429   4.145
  506SOL    HW2 1535   0.546   1.566   4.171
  507SOL     OW 1536   0.255   1.348   4.014
  507SOL    HW1 1537   0.159   1.349   3.987
  507SOL    HW2 1538   0.267   1.401   4.098
  508SOL     OW 1539   0.075   0.345   3.757
  508SOL    HW1 1540  -0.017   0.317   3.728
  508SOL    HW2 1541   0.106   0.422   3.701
  509SOL     OW 1542   0.072   0.166   4.042
  509SOL    HW1 1543   0.055   0.249   3.988
  509SOL    HW2 1544   0.162   0.129   4.020
  510SOL     OW 1545   1.183   1.335   3.843
  510SOL    HW1 1546   1.084   1.324   3.845
  510SOL    HW2 1547   1.217   1.350   3.936
  511SOL     OW 1548   1.225   0.325   4.173
  511SOL    HW1 1549   1.290   0.251   4.162
  511SOL    HW2 1550   1.245   0.375   4.257
  512SOL     OW 1551   0.594   0.745   4.376
  512SOL    HW1 1552   0.644   0.830   4.357
  512SOL    HW2 1553   0.506   0.747   4.328
  513SOL     OW 1554   0.859   1.374   3.740
  513SOL    HW1 1555   0.813   1.389   3.828
  513SOL    HW2 1556   0.903   1.459   3.710
  514SOL     OW 1557   0.661   1.790   4.677
  514SOL    HW1 1558   0.615   1.878   4.664
  514SOL    HW2 1559   0.760   1.802   4.670
  515SOL     OW 1560   0.859   0.956   4.585
  515SOL    HW1 1561   0.913   0.887   4.633
  515SOL    HW2 1562   0.827   1.025   4.651
  516SOL     OW 1563   1.083   0.984   3.811
  516SOL    HW1 1564   1.060   1.037   3.729
  516SOL    HW2 1565   1.164   0.928   3.792
  517SOL     OW 1566   1.861   1.569   4.575
  517SOL    HW1 1567   1.790   1.557   4.505
  517SOL    HW2 1568   1.862   1.490   4.635
  518SOL     OW 1569   0.079   1.240   4.377
  518SOL    HW1 1570   0.078   1.193   4.465
  518SOL    HW2 1571   0.161   1.212   4.326
  519SOL     OW 1572   0.428   0.424   4.244
  519SOL    HW1 1573   0.458   0.352   4.182
  519SOL    HW2 1574   0.389   0.384   4.327
  520SOL     OW 1575   0.812   1.586   4.411
  520SOL    HW1 1576   0.844   1.596   4.317
  520SOL    HW2 1577   0.733   1.524   4.413
  521SOL     OW 1578   0.770   1.330   4.025
  521SOL    HW1 1579   0.724   1.243   4.042
  521SOL    HW2 1580   0.861   1.327   4.066
  522SOL     OW 1581   1.352   0.052   3.892
  522SOL    HW1 1582   1.387   0.011   3.808
  522SOL    HW2 1583   1.262   0.014   3.912
  523SOL     OW 1584   1.300   0.453   4.415
  523SOL    HW1 1585   1.241   0.533   4.419
  523SOL    HW2 1586   1.315   0.418   4.508
  524SOL     OW 1587   0.039   1.077   4.024
  524SOL    HW1 1588   0.138   1.066   4.015
  524SOL    HW2 1589  -0.001   0.991   4.056
  525SOL     OW 1590   0.875   1.646   4.061
  525SOL    HW1 1591   0.798   1.611   4.007
  525SOL    HW2 1592   0.843   1.717   4.123
  526SOL     OW 1593   0.230   2.490   0.113
  526SOL    HW1 1594   0.137   2.488   0.150
  526SOL    HW2 1595   0.231   2.451   0.021
  527SOL     OW 1596   0.225   2.137   0.996
  527SOL    HW1 1597   0.260   2.120   1.088
  527SOL    HW2 1598   0.137   2.092   0.984
  528SOL     OW 1599   0.019   2.230   0.647
  528SOL    HW1 1600  -0.063   2.273   0.686
  528SOL    HW2 1601  -0.009   2.157   0.584
  529SOL     OW 1602   0.569   3.137   1.165
  529SOL    HW1 1603   0.476   3.130   1.128
  529SOL    HW2 1604   0.580   3.226   1.209
  530SOL     OW 1605   1.555   3.373   0.703
  530SOL    HW1 1606   1.498   3.357   0.784
  530SOL    HW2 1607   1.496   3.383   0.623
  531SOL     OW 1608   1.135   2.565   0.717
  531SOL    HW1 1609   1.192   2.643   0.692
  531SOL    HW2 1610   1.075   2.591   0.793
  532SOL     OW 1611   1.755   2.469   0.231
  532SOL    HW1 1612   1.743   2.456   0.132
  532SOL    HW2 1613   1.725   2.388   0.280
  533SOL     OW 1614   0.768   3.006   1.023
  533SOL    HW1 1615   0.690   3.023   1.083
  533SOL    HW2 1616   0.802   3.093   0.987
  534SOL     OW 1617   0.850   2.660   1.823
  534SOL    HW1 1618   0.846   2.736   1.888
  534SOL    HW2 1619   0.872   2.696   1.732
  535SOL     OW 1620   0.685   2.874   0.665
  535SOL    HW1 1621   0.754   2.858   0.735
  535SOL    HW2 1622   0.612   2.931   0.703
  536SOL     OW 1623   0.686   3.023   1.803
  536SOL    HW1 1624   0.746   3.102   1.817
  536SOL    HW2 1625   0.600   3.054   1.762
  537SOL     OW 1626   0.335   3.297   1.061
  537SOL    HW1 1627   0.257   3.266   1.008
  537SOL    HW2 1628   0.393   3.355   1.004
  538SOL     OW 1629   1.460   3.367   1.339
  538SOL    HW1 1630   1.484   3.461   1.365
  538SOL    HW2 1631   1.444   3.313   1.421
  539SOL     OW 1632   0.438   2.254   1.499
  539SOL    HW1 1633   0.520   2.198   1.508
  539SOL    HW2 1634   0.357   2.196   1.503
  540SOL     OW 1635   1.603   2.309   0.737
  540SOL    HW1 1636   1.529   2.355   0.687
  540SOL    HW2 1637   1.654   2.377   0.790
  541SOL     OW 1638   0.231   3.575   0.483
  541SOL    HW1 1639   0.265   3.652   0.537
  541SOL    HW2 1640   0.275   3.575   0.393
  542SOL     OW 1641   1.127   3.203   1.690
  542SOL    HW1 1642   1.174   3.203   1.778
  542SOL    HW2 1643   1.079   3.116   1.679
  543SOL     OW 1644   0.230   3.296   0.538
  543SOL    HW1 1645   0.204   3.392   0.538
  543SOL    HW2 1646   0.159   3.242   0.583
  544SOL     OW 1647   0.240   2.953   0.886
  544SOL    HW1 1648   0.254   2.869   0.938
  544SOL    HW2 1649   0.185   3.017   0.941
  545SOL     OW 1650   0.620   3.648   1.439
  545SOL    HW1 1651   0.528   3.631   1.474
  545SOL    HW2 1652   0.648   3.740   1.465
  546SOL     OW 1653   0.606   2.826   0.123
  546SOL    HW1 1654   0.613   2.910   0.069
  546SOL    HW2 1655   0.652   2.839   0.211
  547SOL     OW 1656   1.594   1.976   1.480
  547SOL    HW1 1657   1.576   2.043   1.408
  547SOL    HW2 1658   1.591   2.022   1.569
  548SOL     OW 1659   0.122   2.505   0.563
  548SOL    HW1 1660   0.077   2.417   0.580
  548SOL    HW2 1661   0.121   2.559   0.647
  549SOL     OW 1662   1.842   3.629   0.359
  549SOL    HW1 1663   1.896   3.600   0.439
  549SOL    HW2 1664   1.872   3.719   0.330
  550SOL     OW 1665   0.027   3.458   0.117
  550SOL    HW1 1666   0.008   3.362   0.138
  550SOL    HW2 1667  -0.006   3.516   0.192
  551SOL     OW 1668   1.689   2.784   0.612
  551SOL    HW1 1669   1.784   2.755   0.620
  551SOL    HW2 1670   1.681   2.849   0.537
  552SOL     OW 1671   1.641   2.970   0.432
  552SOL    HW1 1672   1.727   2.972   0.380
  552SOL    HW2 1673   1.655   3.017   0.520
  553SOL     OW 1674   0.113   2.599   1.597
  553SOL    HW1 1675   0.201   2.586   1.642
  553SOL    HW2 1676   0.100   2.696   1.575
  554SOL     OW 1677   0.613   3.227   0.726
  554SOL    HW1 1678   0.564   3.140   0.735
  554SOL    HW2 1679   0.590   3.270   0.639
  555SOL     OW 1680   1.293   3.090   1.423
  555SOL    HW1 1681   1.330   3.017   1.365
  555SOL    HW2 1682   1.345   3.095   1.508
  556SOL     OW 1683   0.809   1.866   0.502
  556SOL    HW1 1684   0.849   1.957   0.493
  556SOL    HW2 1685   0.709   1.874   0.508
  557SOL     OW 1686   0.197   2.838   1.264
  557SOL    HW1 1687   0.286   2.793   1.250
  557SOL    HW2 1688   0.124   2.773   1.245
  558SOL     OW 1689   1.525   2.861   0.190
  558SOL    HW1 1690   1.462   2.785   0.203
  558SOL    HW2 1691   1.573   2.879   0.276
  559SOL     OW 1692   1.187   3.654   1.616
  559SOL    HW1 1693   1.211   3.714   1.540
  559SOL    HW2 1694   1.194   3.559   1.586
  560SOL     OW 1695   0.317   2.113   1.801
  560SOL    HW1 1696   0.388   2.184   1.807
  560SOL    HW2 1697   0.229   2.152   1.829
  561SOL     OW 1698   1.466   3.279   0.953
  561SOL    HW1 1699   1.407   3.285   1.033
  561SOL    HW2 1700   1.451   3.191   0.907
  562SOL     OW 1701   1.667   3.576   0.572
  562SOL    HW1 1702   1.626   3.553   0.484
  562SOL    HW2 1703   1.649   3.502   0.637
  563SOL     OW 1704   0.598   2.591   0.270
  563SOL    HW1 1705   0.622   2.660   0.202
  563SOL    HW2 1706   0.520   2.624   0.324
  564SOL     OW 1707   1.281   2.207   0.944
  564SOL    HW1 1708   1.195   2.157   0.931
  564SOL    HW2 1709   1.343   2.153   1.000
  565SOL     OW 1710   1.576   3.524   0.307
  565SOL    HW1 1711   1.665   3.570   0.310
  565SOL    HW2 1712   1.555   3.500   0.212
  566SOL     OW 1713   0.807   2.467   1.465
  566SOL    HW1 1714   0.760   2.464   1.554
  566SOL    HW2 1715   0.756   2.412   1.399
  567SOL     OW 1716   1.394   2.331   1.674
  567SOL    HW1 1717   1.374   2.374   1.762
  567SOL    HW2 1718   1.472   2.269   1.683
  568SOL     OW 1719   0.973   2.752   1.572
  568SOL    HW1 1720   1.019   2.668   1.543
  568SOL    HW2 1721   0.917   2.786   1.497
  569SOL     OW 1722   0.991   2.272   1.242
  569SOL    HW1 1723   0.914   2.306   1.296
  569SOL    HW2 1724   0.957   2.221   1.163
  570SOL     OW 1725   1.041   2.563   0.429
  570SOL    HW1 1726   1.067   2.559   0.525
  570SOL    HW2 1727   0.956   2.512   0.415
  571SOL     OW 1728   0.076   2.673   0.789
  571SOL    HW1 1729   0.175   2.661   0.798
  571SOL    HW2 1730   0.052   2.768   0.810
  572SOL     OW 1731   0.130   3.683   1.571
  572SOL    HW1 1732   0.120   3.668   1.670
  572SOL    HW2 1733   0.044   3.719   1.535
  573SOL     OW 1734   0.865   2.210   0.195
  573SOL    HW1 1735   0.924   2.273   0.146
  573SOL    HW2 1736   0.884   2.116   0.166
  574SOL     OW 1737   1.719   2.447   1.831
  574SOL    HW1 1738   1.693   2.536   1.795
  574SOL    HW2 1739   1.717   2.379   1.758
  575SOL     OW 1740   1.362   3.006   0.545
  575SOL    HW1 1741   1.445   2.977   0.497
  575SOL    HW2 1742   1.313   3.073   0.489
  576SOL     OW 1743   0.550   2.058   0.885
  576SOL    HW1 1744   0.545   2.053   0.985
  576SOL    HW2 1745   0.552   2.154   0.856
  577SOL     OW 1746   1.008   3.318   0.477
  577SOL    HW1 1747   0.962   3.390   0.425
  577SOL    HW2 1748   1.004   3.338   0.575
  578SOL     OW 1749   0.351   3.663   0.853
  578SOL    HW1 1750   0.401   3.577   0.859
  578SOL    HW2 1751   0.416   3.740   0.850
  579SOL     OW 1752   1.795   2.928   0.873
  579SOL    HW1 1753   1.733   2.913   0.797
  579SOL    HW2 1754   1.743   2.939   0.958
  580SOL     OW 1755   1.227   3.412   1.506
  580SOL    HW1 1756   1.233   3.335   1.570
  580SOL    HW2 1757   1.175   3.386   1.426
  581SOL     OW 1758   0.321   2.805   0.242
  581SOL    HW1 1759   0.403   2.844   0.200
  581SOL    HW2 1760   0.294   2.723   0.193
  582SOL     OW 1761   1.458   2.597   0.728
  582SOL    HW1 1762   1.453   2.532   0.803
  582SOL    HW2 1763   1.538   2.656   0.741
  583SOL     OW 1764   0.461   3.128   1.727
  583SOL    HW1 1765   0.411   3.129   1.641
  583SOL    HW2 1766   0.398   3.110   1.803
  584SOL     OW 1767   1.111   3.638   0.237
  584SOL    HW1 1768   1.051   3.576   0.287
  584SOL    HW2 1769   1.142   3.594   0.152
  585SOL     OW 1770   0.202   2.147   1.498
  585SOL    HW1 1771   0.122   2.207   1.485
  585SOL    HW2 1772   0.192   2.098   1.584
  586SOL     OW 1773   1.632   3.239   0.081
  586SOL    HW1 1774   1.600   3.333   0.071
  586SOL    HW2 1775   1.556   3.176   0.069
  587SOL     OW 1776   0.464   3.605   0.323
  587SOL    HW1 1777   0.497   3.644   0.409
  587SOL    HW2 1778   0.540   3.598   0.258
  588SOL     OW 1779   1.400   1.969   0.426
  588SOL    HW1 1780   1.376   1.932   0.336
  588SOL    HW2 1781   1.499   1.985   0.430
  589SOL     OW 1782   0.249   3.647   1.241
  589SOL    HW1 1783   0.306   3.582   1.291
  589SOL    HW2 1784   0.233   3.614   1.148
  590SOL     OW 1785   0.940   3.560   0.904
  590SOL    HW1 1786   1.020   3.503   0.925
  590SOL    HW2 1787   0.891   3.520   0.827
  591SOL     OW 1788   0.382   2.562   0.480
  591SOL    HW1 1789   0.427   2.472   0.477
  591SOL    HW2 1790   0.288   2.551   0.513
  592SOL     OW 1791   1.547   2.084   1.729
  592SOL    HW1 1792   1.542   2.121   1.821
  592SOL    HW2 1793   1.475   2.015   1.717
  593SOL     OW 1794   0.781   2.126   1.749
  593SOL    HW1 1795   0.848   2.065   1.792
  593SOL    HW2 1796   0.708   2.145   1.814
  594SOL     OW 1797   0.888   3.376   1.195
  594SOL    HW1 1798   0.865   3.351   1.101
  594SOL    HW2 1799   0.949   3.307   1.234
  595SOL     OW 1800   1.351   2.452   1.433
  595SOL    HW1 1801   1.379   2.409   1.518
  595SOL    HW2 1802   1.376   2.548   1.434
  596SOL     OW 1803   0.803   3.264   0.924
  596SOL    HW1 1804   0.893   3.278   0.882
  596SOL    HW2 1805   0.732   3.266   0.853
  597SOL     OW 1806   0.922   2.365   0.899
  597SOL    HW1 1807   0.897   2.356   0.803
  597SOL    HW2 1808   0.970   2.283   0.930
  598SOL     OW 1809   0.539   1.926   0.512
  598SOL    HW1 1810   0.458   1.927   0.570
  598SOL    HW2 1811   0.542   2.009   0.457
  599SOL     OW 1812   1.434   3.050   0.041
  599SOL    HW1 1813   1.466   2.974   0.098
  599SOL    HW2 1814   1.342   3.077   0.071
  600SOL     OW 1815   0.297   1.897   0.171
  600SOL    HW1 1816   0.346   1.981   0.150
  600SOL    HW2 1817   0.359   1.832   0.216
  601SOL     OW 1818   0.935   2.098   0.480
  601SOL    HW1 1819   0.887   2.139   0.402
  601SOL    HW2 1820   1.034   2.096   0.461
  602SOL     OW 1821   1.076   2.545   1.464
  602SOL    HW1 1822   0.996   2.484   1.467
  602SOL    HW2 1823   1.157   2.492   1.440
  603SOL     OW 1824   1.227   3.432   0.793
  603SOL    HW1 1825   1.248   3.506   0.728
  603SOL    HW2 1826   1.295   3.432   0.866
  604SOL     OW 1827   0.459   3.014   0.741
  604SOL    HW1 1828   0.388   2.987   0.806
  604SOL    HW2 1829   0.433   2.986   0.648
  605SOL     OW 1830   1.271   3.659   0.591
  605SOL    HW1 1831   1.315   3.723   0.527
  605SOL    HW2 1832   1.221   3.711   0.661
  606SOL     OW 1833   1.032   2.411   0.016
  606SOL    HW1 1834   0.991   2.493  -0.023
  606SOL    HW2 1835   1.096   2.437   0.089
  607SOL     OW 1836   0.078   2.418   1.386
  607SOL    HW1 1837   0.170   2.417   1.345
  607SOL    HW2 1838   0.072   2.492   1.453
  608SOL     OW 1839   0.561   2.084   1.147
  608SOL    HW1 1840   0.599   2.000   1.184
  608SOL    HW2 1841   0.473   2.103   1.191
  609SOL     OW 1842   0.866   2.316   0.642
  609SOL    HW1 1843   0.834   2.388   0.580
  609SOL    HW2 1844   0.890   2.235   0.589
  610SOL     OW 1845   1.017   1.901   0.753
  610SOL    HW1 1846   0.945   1.906   0.684
  610SOL    HW2 1847   0.993   1.832   0.822
  611SOL     OW 1848   1.429   3.035   0.867
  611SOL    HW1 1849   1.374   2.951   0.860
  611SOL    HW2 1850   1.455   3.064   0.775
  612SOL     OW 1851   1.466   2.452   0.992
  612SOL    HW1 1852   1.436   2.357   0.999
  612SOL    HW2 1853   1.539   2.468   1.058
  613SOL     OW 1854   1.857   2.695   0.377
  613SOL    HW1 1855   1.899   2.631   0.441
  613SOL    HW2 1856   1.819   2.644   0.299
  614SOL     OW 1857   0.488   3.247   0.174
  614SOL    HW1 1858   0.401   3.232   0.221
  614SOL    HW2 1859   0.471   3.273   0.079
  615SOL     OW 1860   1.664   3.142   0.657
  615SOL    HW1 1861   1.763   3.150   0.671
  615SOL    HW2 1862   1.619   3.226   0.688
  616SOL     OW 1863   1.390   2.437   0.078
  616SOL    HW1 1864   1.336   2.416   0.159
  616SOL    HW2 1865   1.481   2.396   0.087
  617SOL     OW 1866   0.527   2.118   0.328
  617SOL    HW1 1867   0.554   2.059   0.253
  617SOL    HW2 1868   0.527   2.213   0.297
  618SOL     OW 1869   1.754   3.085   1.588
  618SOL    HW1 1870   1.845   3.046   1.575
  618SOL    HW2 1871   1.762   3.181   1.612
  619SOL     OW 1872   1.064   3.209   1.340
  619SOL    HW1 1873   0.984   3.186   1.395
  619SOL    HW2 1874   1.147   3.183   1.389
  620SOL     OW 1875   1.592   3.491   1.625
  620SOL    HW1 1876   1.619   3.525   1.535
  620SOL    HW2 1877   1.671   3.453   1.671
  621SOL     OW 1878   1.111   3.057   1.100
  621SOL    HW1 1879   1.071   3.101   1.181
  621SOL    HW2 1880   1.070   3.094   1.017
  622SOL     OW 1881   1.638   2.961   1.079
  622SOL    HW1 1882   1.643   3.042   1.138
  622SOL    HW2 1883   1.552   2.963   1.028
  623SOL     OW 1884   0.915   1.951   1.402
  623SOL    HW1 1885   0.940   1.931   1.307
  623SOL    HW2 1886   0.987   2.007   1.444
  624SOL     OW 1887   0.980   2.978   1.719
  624SOL    HW1 1888   0.881   2.984   1.729
  624SOL    HW2 1889   1.003   2.898   1.663
  625SOL     OW 1890   0.705   2.912   0.368
  625SOL    HW1 1891   0.691   2.919   0.467
  625SOL    HW2 1892   0.789   2.861   0.350
  626SOL     OW 1893   0.410   2.675   1.251
  626SOL    HW1 1894   0.496   2.687   1.301
  626SOL    HW2 1895   0.368   2.588   1.278
  627SOL     OW 1896   1.274   2.248   1.262
  627SOL    HW1 1897   1.295   2.322   1.326
  627SOL    HW2 1898   1.185   2.265   1.219
  628SOL     OW 1899   0.064   3.426   1.331
  628SOL    HW1 1900   0.018   3.508   1.297
  628SOL    HW2 1901   0.162   3.445   1.340
  629SOL     OW 1902   0.367   2.962   0.501
  629SOL    HW1 1903   0.360   3.045   0.445
  629SOL    HW2 1904   0.371   2.882   0.441
  630SOL     OW 1905   0.566   2.399   0.865
  630SOL    HW1 1906   0.578   2.465   0.791
  630SOL    HW2 1907   0.612   2.433   0.948
  631SOL     OW 1908   1.252   3.210   0.388
  631SOL    HW1 1909   1.302   3.287   0.428
  631SOL    HW2 1910   1.157   3.212   0.420
  632SOL     OW 1911   1.272   3.307   1.142
  632SOL    HW1 1912   1.319   3.320   1.229
  632SOL    HW2 1913   1.206   3.233   1.151
  633SOL     OW 1914   1.582   2.501   0.472
  633SOL    HW1 1915   1.551   2.562   0.545
  633SOL    HW2 1916   1.632   2.553   0.403
  634SOL     OW 1917   0.354   3.372   1.329
  634SOL    HW1 1918   0.333   3.328   1.242
  634SOL    HW2 1919   0.451   3.398   1.332
  635SOL     OW 1920   0.402   2.613   1.598
  635SOL    HW1 1921   0.470   2.668   1.551
  635SOL    HW2 1922   0.442   2.525   1.625
  636SOL     OW 1923   1.587   2.641   1.670
  636SOL    HW1 1924   1.495   2.679   1.665
  636SOL    HW2 1925   1.647   2.688   1.605
  637SOL     OW 1926   1.013   1.967   1.770
  637SOL    HW1 1927   1.019   2.052   1.718
  637SOL    HW2 1928   1.045   1.891   1.713
  638SOL     OW 1929   0.504   1.912   1.740
  638SOL    HW1 1930   0.462   1.855   1.670
  638SOL    HW2 1931   0.438   1.981   1.772
  639SOL     OW 1932   0.573   2.732   1.029
  639SOL    HW1 1933   0.617   2.821   1.020
  639SOL    HW2 1934   0.510   2.732   1.106
  640SOL     OW 1935   1.360   2.724   1.045
  640SOL    HW1 1936   1.285   2.724   0.979
  640SOL    HW2 1937   1.397   2.632   1.054
  641SOL     OW 1938   1.209   2.387   0.275
  641SOL    HW1 1939   1.222   2.303   0.329
  641SOL    HW2 1940   1.180   2.461   0.335
  642SOL     OW 1941   0.307   2.075   1.231
  642SOL    HW1 1942   0.284   2.112   1.321
  642SOL    HW2 1943   0.277   1.980   1.225
  643SOL     OW 1944   0.037   3.172   1.282
  643SOL    HW1 1945   0.090   3.123   1.350
  643SOL    HW2 1946   0.059   3.270   1.287
  644SOL     OW 1947   0.732   2.496   1.064
  644SOL    HW1 1948   0.791   2.470   0.988
  644SOL    HW2 1949   0.704   2.592   1.053
  645SOL     OW 1950   1.728   2.797   1.854
  645SOL    HW1 1951   1.682   2.790   1.765
  645SOL    HW2 1952   1.666   2.841   1.920
  646SOL     OW 1953   0.307   1.925   0.618
  646SOL    HW1 1954   0.296   2.019   0.651
  646SOL    HW2 1955   0.302   1.862   0.695
  647SOL     OW 1956   1.622   2.229   0.374
  647SOL    HW1 1957   1.624   2.153   0.438
  647SOL    HW2 1958   1.574   2.306   0.414
  648SOL     OW 1959   1.023   2.628   0.966
  648SOL    HW1 1960   1.038   2.649   1.062
  648SOL    HW2 1961   0.993   2.533   0.957
  649SOL     OW 1962   0.980   3.435   1.700
  649SOL    HW1 1963   0.960   3.479   1.612
  649SOL    HW2 1964   1.019   3.344   1.684
  650SOL     OW 1965   1.859   3.380   1.605
  650SOL    HW1 1966   1.873   3.407   1.510
  650SOL    HW2 1967   1.942   3.402   1.658
  651SOL     OW 1968   0.350   2.760   1.804
  651SOL    HW1 1969   0.426   2.804   1.852
  651SOL    HW2 1970   0.385   2.713   1.722
  652SOL     OW 1971   1.540   2.136   0.125
  652SOL    HW1 1972   1.479   2.061   0.148
  652SOL    HW2 1973   1.562   2.188   0.208
  653SOL     OW 1974   1.303   2.700   0.042
  653SOL    HW1 1975   1.337   2.607   0.057
  653SOL    HW2 1976   1.321   2.727  -0.053
  654SOL     OW 1977   1.068   3.195   0.849
  654SOL    HW1 1978   1.075   3.111   0.794
  654SOL    HW2 1979   1.130   3.264   0.813
  655SOL     OW 1980   0.319   2.672   0.949
  655SOL    HW1 1981   0.412   2.708   0.954
  655SOL    HW2 1982   0.313   2.587   1.001
  656SOL     OW 1983   0.339   2.371   1.006
  656SOL    HW1 1984   0.287   2.288   0.989
  656SOL    HW2 1985   0.416   2.376   0.942
  657SOL     OW 1986   1.138   2.242   1.678
  657SOL    HW1 1987   1.093   2.305   1.742
  657SOL    HW2 1988   1.231   2.273   1.661
  658SOL     OW 1989   1.160   2.069   1.477
  658SOL    HW1 1990   1.160   2.133   1.554
  658SOL    HW2 1991   1.188   2.117   1.394
  659SOL     OW 1992   0.008   3.188   0.200
  659SOL    HW1 1993  -0.085   3.209   0.169
  659SOL    HW2 1994   0.018   3.089   0.213
  660SOL     OW 1995   0.088   3.663   0.927
  660SOL    HW1 1996   0.046   3.577   0.900
  660SOL    HW2 1997   0.182   3.666   0.893
  661SOL     OW 1998   0.504   3.430   0.910
  661SOL    HW1 1999   0.570   3.504   0.919
  661SOL    HW2 2000   0.548   3.351   0.868
  662SOL     OW 2001   1.002   2.658   1.238
  662SOL    HW1 2002   1.043   2.626   1.324
  662SOL    HW2 2003   0.906   2.631   1.235
  663SOL     OW 2004   0.040   2.406   1.114
  663SOL    HW1 2005   0.125   2.373   1.073
  663SOL    HW2 2006   0.053   2.421   1.212
  664SOL     OW 2007   0.189   2.382   1.722
  664SOL    HW1 2008   0.248   2.342   1.652
  664SOL    HW2 2009   0.131   2.453   1.681
  665SOL     OW 2010   1.369   2.812   1.660
  665SOL    HW1 2011   1.408   2.901   1.680
  665SOL    HW2 2012   1.379   2.792   1.563
  666SOL     OW 2013   0.815   2.434   0.325
  666SOL    HW1 2014   0.822   2.345   0.279
  666SOL    HW2 2015   0.721   2.468   0.317
  667SOL     OW 2016   1.657   2.466   1.206
  667SOL    HW1 2017   1.619   2.397   1.268
  667SOL    HW2 2018   1.739   2.430   1.162
  668SOL     OW 2019   0.252   3.426   1.744
  668SOL    HW1 2020   0.222   3.483   1.820
  668SOL    HW2 2021   0.245   3.329   1.770
  669SOL     OW 2022   0.671   2.326   1.269
  669SOL    HW1 2023   0.637   2.237   1.239
  669SOL    HW2 2024   0.697   2.380   1.189
  670SOL     OW 2025   0.930   3.540   1.465
  670SOL    HW1 2026   0.906   3.522   1.370
  670SOL    HW2 2027   0.960   3.634   1.475
  671SOL     OW 2028   0.473   2.362   0.191
  671SOL    HW1 2029   0.534   2.442   0.195
  671SOL    HW2 2030   0.378   2.393   0.198
  672SOL     OW 2031   0.159   2.999   1.466
  672SOL    HW1 2032   0.181   2.938   1.542
  672SOL    HW2 2033   0.169   2.950   1.380
  673SOL     OW 2034   1.347   2.921   1.234
  673SOL    HW1 2035   1.371   2.858   1.160
  673SOL    HW2 2036   1.257   2.961   1.216
  674SOL     OW 2037   1.302   2.717   0.309
  674SOL    HW1 2038   1.216   2.686   0.351
  674SOL    HW2 2039   1.298   2.703   0.210
  675SOL     OW 2040   1.759   3.609   1.154
  675SOL    HW1 2041   1.820   3.639   1.081
  675SOL    HW2 2042   1.721   3.520   1.132
  676SOL     OW 2043   1.252   3.593   1.128
  676SOL    HW1 2044   1.336   3.598   1.074
  676SOL    HW2 2045   1.229   3.497   1.146
  677SOL     OW 2046   0.083   3.120   1.022
  677SOL    HW1 2047   0.078   3.119   1.122
  677SOL    HW2 2048   0.000   3.079   0.984
  678SOL     OW 2049   0.688   3.524   1.716
  678SOL    HW1 2050   0.632   3.605   1.725
  678SOL    HW2 2051   0.740   3.528   1.630
  679SOL     OW 2052   0.903   1.948   0.133
  679SOL    HW1 2053   0.954   1.949   0.047
  679SOL    HW2 2054   0.959   1.906   0.204
  680SOL     OW 2055   1.726   1.997   0.523
  680SOL    HW1 2056   1.799   1.980   0.456
  680SOL    HW2 2057   1.695   1.910   0.561
  681SOL     OW 2058   1.388   3.435   0.477
  681SOL    HW1 2059   1.455   3.447   0.403
  681SOL    HW2 2060   1.348   3.524   0.500
  682SOL     OW 2061   0.130   3.656   1.851
  682SOL    HW1 2062   0.089   3.582   1.904
  682SOL    HW2 2063   0.194   3.707   1.909
  683SOL     OW 2064   1.280   2.789   0.672
  683SOL    HW1 2065   1.340   2.708   0.674
  683SOL    HW2 2066   1.320   2.858   0.612
  684SOL     OW 2067   0.830   3.135   1.422
  684SOL    HW1 2068   0.825   3.168   1.517
  684SOL    HW2 2069   0.744   3.154   1.376
  685SOL     OW 2070   0.672   3.478   0.154
  685SOL    HW1 2071   0.681   3.488   0.055
  685SOL    HW2 2072   0.632   3.389   0.175
  686SOL     OW 2073   1.650   3.582   1.394
  686SOL    HW1 2074   1.703   3.592   1.310
  686SOL    HW2 2075   1.623   3.672   1.428
  687SOL     OW 2076   1.841   2.037   0.963
  687SOL    HW1 2077   1.880   1.952   0.927
  687SOL    HW2 2078   1.743   2.039   0.944
  688SOL     OW 2079   0.263   2.188   0.720
  688SOL    HW1 2080   0.184   2.239   0.686
  688SOL    HW2 2081   0.254   2.173   0.818
  689SOL     OW 2082   1.194   3.474   0.031
  689SOL    HW1 2083   1.200   3.381   0.068
  689SOL    HW2 2084   1.135   3.474  -0.049
  690SOL     OW 2085   0.822   2.864   1.372
  690SOL    HW1 2086   0.862   2.863   1.280
  690SOL    HW2 2087   0.832   2.956   1.412
  691SOL     OW 2088   0.916   2.772   0.291
  691SOL    HW1 2089   0.979   2.810   0.223
  691SOL    HW2 2090   0.956   2.689   0.330
  692SOL     OW 2091   1.504   3.469   0.044
  692SOL    HW1 2092   1.412   3.506   0.051
  692SOL    HW2 2093   1.542   3.489  -0.046
  693SOL     OW 2094   0.372   3.150   1.490
  693SOL    HW1 2095   0.359   3.243   1.456
  693SOL    HW2 2096   0.288   3.098   1.477
  694SOL     OW 2097   1.614   3.154   1.289
  694SOL    HW1 2098   1.674   3.157   1.369
  694SOL    HW2 2099   1.539   3.218   1.302
  695SOL     OW 2100   1.039   2.960   0.696
  695SOL    HW1 2101   0.969   2.913   0.750
  695SOL    HW2 2102   1.098   2.892   0.653
  696SOL     OW 2103   1.014   2.098   0.971
  696SOL    HW1 2104   1.006   2.062   0.878
  696SOL    HW2 2105   1.012   2.022   1.036
  697SOL     OW 2106   0.590   3.349   0.491
  697SOL    HW1 2107   0.632   3.291   0.421
  697SOL    HW2 2108   0.546   3.428   0.447
  698SOL     OW 2109   1.709   2.247   1.381
  698SOL    HW1 2110   1.782   2.316   1.385
  698SOL    HW2 2111   1.737   2.172   1.322
  699SOL     OW 2112   0.255   3.210   0.290
  699SOL    HW1 2113   0.159   3.211   0.263
  699SOL    HW2 2114   0.267   3.263   0.374
  700SOL     OW 2115   0.105   2.875   1.726
  700SOL    HW1 2116   0.028   2.842   1.780
  700SOL    HW2 2117   0.190   2.845   1.768
  701SOL     OW 2118   0.672   2.065   1.489
  701SOL    HW1 2119   0.762   2.049   1.449
  701SOL    HW2 2120   0.680   2.070   1.588
  702SOL     OW 2121   0.075   2.207   0.033
  702SOL    HW1 2122  -0.017   2.179   0.004
  702SOL    HW2 2123   0.106   2.284  -0.023
  703SOL     OW 2124   1.440   2.718   1.398
  703SOL    HW1 2125   1.383   2.770   1.335
  703SOL    HW2 2126   1.536   2.730   1.374
  704SOL     OW 2127   0.072   2.028   0.318
  704SOL    HW1 2128   0.055   2.111   0.264
  704SOL    HW2 2129   0.162   1.991   0.296
  705SOL     OW 2130   1.183   3.197   0.119
  705SOL    HW1 2131   1.084   3.186   0.121
  705SOL    HW2 2132   1.217   3.212   0.212
  706SOL     OW 2133   0.613   2.704   1.431
  706SOL    HW1 2134   0.669   2.785   1.414
  706SOL    HW2 2135   0.672   2.624   1.434
  707SOL     OW 2136   1.493   3.629   0.959
  707SOL    HW1 2137   1.526   3.693   0.890
  707SOL    HW2 2138   1.559   3.623   1.034
  708SOL     OW 2139   0.716   2.427   1.708
  708SOL    HW1 2140   0.735   2.492   1.782
  708SOL    HW2 2141   0.776   2.347   1.717
  709SOL     OW 2142   1.450   3.082   1.633
  709SOL    HW1 2143   1.441   3.072   1.732
  709SOL    HW2 2144   1.546   3.075   1.607
  710SOL     OW 2145   0.390   3.603   1.560
  710SOL    HW1 2146   0.299   3.644   1.558
  710SOL    HW2 2147   0.383   3.509   1.592
  711SOL     OW 2148   1.674   2.745   1.254
  711SOL    HW1 2149   1.647   2.656   1.217
  711SOL    HW2 2150   1.675   2.813   1.181
  712SOL     OW 2151   1.225   2.187   0.449
  712SOL    HW1 2152   1.290   2.113   0.438
  712SOL    HW2 2153   1.245   2.237   0.533
  713SOL     OW 2154   0.594   2.607   0.652
  713SOL    HW1 2155   0.644   2.692   0.633
  713SOL    HW2 2156   0.506   2.609   0.604
  714SOL     OW 2157   1.777   2.204   1.642
  714SOL    HW1 2158   1.760   2.235   1.548
  714SOL    HW2 2159   1.693   2.167   1.680
  715SOL     OW 2160   1.730   2.796   1.517
  715SOL    HW1 2161   1.768   2.887   1.532
  715SOL    HW2 2162   1.722   2.779   1.418
  716SOL     OW 2163   0.859   3.236   0.016
  716SOL    HW1 2164   0.813   3.251   0.104
  716SOL    HW2 2165   0.903   3.321  -0.014
  717SOL     OW 2166   0.661   3.652   0.953
  717SOL    HW1 2167   0.615   3.740   0.940
  717SOL    HW2 2168   0.760   3.664   0.946
  718SOL     OW 2169   0.859   2.818   0.861
  718SOL    HW1 2170   0.913   2.749   0.909
  718SOL    HW2 2171   0.827   2.887   0.927
  719SOL     OW 2172   1.083   2.846   0.087
  719SOL    HW1 2173   1.060   2.899   0.005
  719SOL    HW2 2174   1.164   2.790   0.068
  720SOL     OW 2175   1.861   3.431   0.851
  720SOL    HW1 2176   1.790   3.419   0.781
  720SOL    HW2 2177   1.862   3.352   0.911
  721SOL     OW 2178   0.221   3.176   1.844
  721SOL    HW1 2179   0.156   3.103   1.823
  721SOL    HW2 2180   0.225   3.190   1.942
  722SOL     OW 2181   0.079   3.102   0.653
  722SOL    HW1 2182   0.078   3.055   0.741
  722SOL    HW2 2183   0.161   3.074   0.602
  723SOL     OW 2184   0.672   3.253   1.624
  723SOL    HW1 2185   0.594   3.203   1.662
  723SOL    HW2 2186   0.669   3.348   1.655
  724SOL     OW 2187   1.824   2.054   1.227
  724SOL    HW1 2188   1.820   1.964   1.271
  724SOL    HW2 2189   1.827   2.043   1.128
  725SOL     OW 2190   0.428   2.286   0.520
  725SOL    HW1 2191   0.458   2.214   0.458
  725SOL    HW2 2192   0.389   2.246   0.603
  726SOL     OW 2193   1.705   3.349   1.104
  726SOL    HW1 2194   1.612   3.324   1.077
  726SOL    HW2 2195   1.731   3.299   1.186
  727SOL     OW 2196   0.317   2.409   1.280
  727SOL    HW1 2197   0.355   2.350   1.352
  727SOL    HW2 2198   0.357   2.383   1.192
  728SOL     OW 2199   0.812   3.448   0.687
  728SOL    HW1 2200   0.844   3.458   0.593
  728SOL    HW2 2201   0.733   3.386   0.689
  729SOL     OW 2202   1.424   2.076   1.112
  729SOL    HW1 2203   1.476   2.011   1.167
  729SOL    HW2 2204   1.375   2.139   1.173
  730SOL     OW 2205   1.001   1.896   1.154
  730SOL    HW1 2206   0.938   1.824   1.123
  730SOL    HW2 2207   1.094   1.860   1.154
  731SOL     OW 2208   0.770   3.192   0.301
  731SOL    HW1 2209   0.724   3.105   0.318
  731SOL    HW2 2210   0.861   3.189   0.342
  732SOL     OW 2211   0.618   3.429   1.284
  732SOL    HW1 2212   0.613   3.511   1.341
  732SOL    HW2 2213   0.707   3.426   1.239
  733SOL     OW 2214   1.352   1.914   0.168
  733SOL    HW1 2215   1.387   1.873   0.084
  733SOL    HW2 2216   1.262   1.876   0.188
  734SOL     OW 2217   1.300   2.315   0.691
  734SOL    HW1 2218   1.241   2.395   0.695
  734SOL    HW2 2219   1.315   2.280   0.784
  735SOL     OW 2220   1.593   2.083   0.882
  735SOL    HW1 2221   1.509   2.082   0.936
  735SOL    HW2 2222   1.595   2.166   0.826
  736SOL     OW 2223   0.039   2.939   0.300
  736SOL    HW1 2224   0.138   2.928   0.291
  736SOL    HW2 2225  -0.001   2.853   0.332
  737SOL     OW 2226   0.875   3.508   0.337
  737SOL    HW1 2227   0.798   3.473   0.283
  737SOL    HW2 2228   0.843   3.579   0.399
  738SOL     OW 2229   0.230   2.490   1.975
  738SOL    HW1 2230   0.137   2.488   2.012
  738SOL    HW2 2231   0.231   2.451   1.883
  739SOL     OW 2232   0.225   2.137   2.858
  739SOL    HW1 2233   0.260   2.120   2.950
  739SOL    HW2 2234   0.137   2.092   2.846
  740SOL     OW 2235   0.019   2.230   2.509
  740SOL    HW1 2236  -0.063   2.273   2.548
  740SOL    HW2 2237  -0.009   2.157   2.446
  741SOL     OW 2238   0.569   3.137   3.027
  741SOL    HW1 2239   0.476   3.130   2.990
  741SOL    HW2 2240   0.580   3.226   3.071
  742SOL     OW 2241   1.555   3.373   2.565
  742SOL    HW1 2242   1.498   3.357   2.646
  742SOL    HW2 2243   1.496   3.383   2.485
  743SOL     OW 2244   1.135   2.565   2.579
  743SOL    HW1 2245   1.192   2.643   2.554
  743SOL    HW2 2246   1.075   2.591   2.655
  744SOL     OW 2247   1.755   2.469   2.093
  744SOL    HW1 2248   1.743   2.456   1.994
  744SOL    HW2 2249   1.725   2.388   2.142
  745SOL     OW 2250   0.768   3.006   2.885
  745SOL    HW1 2251   0.690   3.023   2.945
  745SOL    HW2 2252   0.802   3.093   2.849
  746SOL     OW 2253   0.850   2.660   3.685
  746SOL    HW1 2254   0.846   2.736   3.750
  746SOL    HW2 2255   0.872   2.696   3.594
  747SOL     OW 2256   0.685   2.874   2.527
  747SOL    HW1 2257   0.754   2.858   2.597
  747SOL    HW2 2258   0.612   2.931   2.565
  748SOL     OW 2259   0.686   3.023   3.665
  748SOL    HW1 2260   0.746   3.102   3.679
  748SOL    HW2 2261   0.600   3.054   3.624
  749SOL     OW 2262   0.335   3.297   2.923
  749SOL    HW1 2263   0.257   3.266   2.870
  749SOL    HW2 2264   0.393   3.355   2.866
  750SOL     OW 2265   1.460   3.367   3.201
  750SOL    HW1 2266   1.484   3.461   3.227
  750SOL    HW2 2267   1.444   3.313   3.283
  751SOL     OW 2268   0.438   2.254   3.361
  751SOL    HW1 2269   0.520   2.198   3.370
  751SOL    HW2 2270   0.357   2.196   3.365
  752SOL     OW 2271   1.603   2.309   2.599
  752SOL    HW1 2272   1.529   2.355   2.549
  752SOL    HW2 2273   1.654   2.377   2.652
  753SOL     OW 2274   0.231   3.575   2.345
  753SOL    HW1 2275   0.265   3.652   2.399
  753SOL    HW2 2276   0.275   3.575   2.255
  754SOL     OW 2277   1.127   3.203   3.552
  754SOL    HW1 2278   1.174   3.203   3.640
  754SOL    HW2 2279   1.079   3.116   3.541
  755SOL     OW 2280   0.230   3.296   2.400
  755SOL    HW1 2281   0.204   3.392   2.400
  755SOL    HW2 2282   0.159   3.242   2.445
  756SOL     OW 2283   0.240   2.953   2.748
  756SOL    HW1 2284   0.254   2.869   2.800
  756SOL    HW2 2285   0.185   3.017   2.803
  757SOL     OW 2286   0.620   3.648   3.301
  757SOL    HW1 2287   0.528   3.631   3.336
  757SOL    HW2 2288   0.648   3.740   3.327
  758SOL     OW 2289   0.606   2.826   1.985
  758SOL    HW1 2290   0.613   2.910   1.931
  758SOL    HW2 2291   0.652   2.839   2.073
  759SOL     OW 2292   1.594   1.976   3.342
  759SOL    HW1 2293   1.576   2.043   3.270
  759SOL    HW2 2294   1.591   2.022   3.431
  760SOL     OW 2295   0.122   2.505   2.425
  760SOL    HW1 2296   0.077   2.417   2.442
  760SOL    HW2 2297   0.121   2.559   2.509
  761SOL     OW 2298   1.842   3.629   2.221
  761SOL    HW1 2299   1.896   3.600   2.301
  761SOL    HW2 2300   1.872   3.719   2.192
  762SOL     OW 2301   0.027   3.458   1.979
  762SOL    HW1 2302   0.008   3.362   2.000
  762SOL    HW2 2303  -0.006   3.516   2.054
  763SOL     OW 2304   1.689   2.784   2.474
  763SOL    HW1 2305   1.784   2.755   2.482
  763SOL    HW2 2306   1.681   2.849   2.399
  764SOL     OW 2307   1.641   2.970   2.294
  764SOL    HW1 2308   1.727   2.972   2.242
  764SOL    HW2 2309   1.655   3.017   2.382
  765SOL     OW 2310   0.113   2.599   3.459
  765SOL    HW1 2311   0.201   2.586   3.504
  765SOL    HW2 2312   0.100   2.696   3.437
  766SOL     OW 2313   0.613   3.227   2.588
  766SOL    HW1 2314   0.564   3.140   2.597
  766SOL    HW2 2315   0.590   3.270   2.501
  767SOL     OW 2316   1.293   3.090   3.285
  767SOL    HW1 2317   1.330   3.017   3.227
  767SOL    HW2 2318   1.345   3.095   3.370
  768SOL     OW 2319   0.809   1.866   2.364
  768SOL    HW1 2320   0.849   1.957   2.355
  768SOL    HW2 2321   0.709   1.874   2.370
  769SOL     OW 2322   0.197   2.838   3.126
  769SOL    HW1 2323   0.286   2.793   3.112
  769SOL    HW2 2324   0.124   2.773   3.107
  770SOL     OW 2325   1.525   2.861   2.052
  770SOL    HW1 2326   1.462   2.785   2.065
  770SOL    HW2 2327   1.573   2.879   2.138
  771SOL     OW 2328   1.187   3.654   3.478
  771SOL    HW1 2329   1.211   3.714   3.402
  771SOL    HW2 2330   1.194   3.559   3.448
  772SOL     OW 2331   0.317   2.113   3.663
  772SOL    HW1 2332   0.388   2.184   3.669
  772SOL    HW2 2333   0.229   2.152   3.691
  773SOL     OW 2334   1.466   3.279   2.815
  773SOL    HW1 2335   1.407   3.285   2.895
  773SOL    HW2 2336   1.451   3.191   2.769
  774SOL     OW 2337   1.667   3.576   2.434
  774SOL    HW1 2338   1.626   3.553   2.346
  774SOL    HW2 2339   1.649   3.502   2.499
  775SOL     OW 2340   0.598   2.591   2.132
  775SOL    HW1 2341   0.622   2.660   2.064
  775SOL    HW2 2342   0.520   2.624   2.186
  776SOL     OW 2343   1.281   2.207   2.806
  776SOL    HW1 2344   1.195   2.157   2.793
  776SOL    HW2 2345   1.343   2.153   2.862
  777SOL     OW 2346   1.576   3.524   2.169
  777SOL    HW1 2347   1.665   3.570   2.172
  777SOL    HW2 2348   1.555   3.500   2.074
  778SOL     OW 2349   0.807   2.467   3.327
  778SOL    HW1 2350   0.760   2.464   3.416
  778SOL    HW2 2351   0.756   2.412   3.261
  779SOL     OW 2352   1.394   2.331   3.536
  779SOL    HW1 2353   1.374   2.374   3.624
  779SOL    HW2 2354   1.472   2.269   3.545
  780SOL     OW 2355   0.973   2.752   3.434
  780SOL    HW1 2356   1.019   2.668   3.405
  780SOL    HW2 2357   0.917   2.786   3.359
  781SOL     OW 2358   0.991   2.272   3.104
  781SOL    HW1 2359   0.914   2.306   3.158
  781SOL    HW2 2360   0.957   2.221   3.025
  782SOL     OW 2361   1.041   2.563   2.291
  782SOL    HW1 2362   1.067   2.559   2.387
  782SOL    HW2 2363   0.956   2.512   2.277
  783SOL     OW 2364   0.076   2.673   2.651
  783SOL    HW1 2365   0.175   2.661   2.660
  783SOL    HW2 2366   0.052   2.768   2.672
  784SOL     OW 2367   0.130   3.683   3.433
  784SOL    HW1 2368   0.120   3.668   3.532
  784SOL    HW2 2369   0.044   3.719   3.397
  785SOL     OW 2370   0.865   2.210   2.057
  785SOL    HW1 2371   0.924   2.273   2.008
  785SOL    HW2 2372   0.884   2.116   2.028
  786SOL     OW 2373   1.719   2.447   3.693
  786SOL    HW1 2374   1.693   2.536   3.657
  786SOL    HW2 2375   1.717   2.379   3.620
  787SOL     OW 2376   1.362   3.006   2.407
  787SOL    HW1 2377   1.445   2.977   2.359
  787SOL    HW2 2378   1.313   3.073   2.351
  788SOL     OW 2379   0.550   2.058   2.747
  788SOL    HW1 2380   0.545   2.053   2.847
  788SOL    HW2 2381   0.552   2.154   2.718
  789SOL     OW 2382   1.008   3.318   2.339
  789SOL    HW1 2383   0.962   3.390   2.287
  789SOL    HW2 2384   1.004   3.338   2.437
  790SOL     OW 2385   0.351   3.663   2.715
  790SOL    HW1 2386   0.401   3.577   2.721
  790SOL    HW2 2387   0.416   3.740   2.712
  791SOL     OW 2388   1.795   2.928   2.735
  791SOL    HW1 2389   1.733   2.913   2.659
  791SOL    HW2 2390   1.743   2.939   2.820
  792SOL     OW 2391   1.227   3.412   3.368
  792SOL    HW1 2392   1.233   3.335   3.432
  792SOL    HW2 2393   1.175   3.386   3.288
  793SOL     OW 2394   0.321   2.805   2.104
  793SOL    HW1 2395   0.403   2.844   2.062
  793SOL    HW2 2396   0.294   2.723   2.055
  794SOL     OW 2397   1.458   2.597   2.590
  794SOL    HW1 2398   1.453   2.532   2.665
  794SOL    HW2 2399   1.538   2.656   2.603
  795SOL     OW 2400   0.461   3.128   3.589
  795SOL    HW1 2401   0.411   3.129   3.503
  795SOL    HW2 2402   0.398   3.110   3.665
  796SOL     OW 2403   1.111   3.638   2.099
  796SOL    HW1 2404   1.051   3.576   2.149
  796SOL    HW2 2405   1.142   3.594   2.014
  797SOL     OW 2406   0.202   2.147   3.360
  797SOL    HW1 2407   0.122   2.207   3.347
  797SOL    HW2 2408   0.192   2.098   3.446
  798SOL     OW 2409   1.632   3.239   1.943
  798SOL    HW1 2410   1.600   3.333   1.933
  798SOL    HW2 2411   1.556   3.176   1.931
  799SOL     OW 2412   0.464   3.605   2.185
  799SOL    HW1 2413   0.497   3.644   2.271
  799SOL    HW2 2414   0.540   3.598   2.120
  800SOL     OW 2415   1.400   1.969   2.288
  800SOL    HW1 2416   1.376   1.932   2.198
  800SOL    HW2 2417   1.499   1.985   2.292
  801SOL     OW 2418   0.249   3.647   3.103
  801SOL    HW1 2419   0.306   3.582   3.153
  801SOL    HW2 2420   0.233   3.614   3.010
  802SOL     OW 2421   0.940   3.560   2.766
  802SOL    HW1 2422   1.020   3.503   2.787
  802SOL    HW2 2423   0.891   3.520   2.689
  803SOL     OW 2424   0.382   2.562   2.342
  803SOL    HW1 2425   0.427   2.472   2.339
  803SOL    HW2 2426   0.288   2.551   2.375
  804SOL     OW 2427   1.547   2.084   3.591
  804SOL    HW1 2428   1.542   2.121   3.683
  804SOL    HW2 2429   1.475   2.015   3.579
  805SOL     OW 2430   0.614   1.984   1.979
  805SOL    HW1 2431   0.712   1.962   1.986
  805SOL    HW2 2432   0.583   1.967   1.886
  806SOL     OW 2433   0.781   2.126   3.611
  806SOL    HW1 2434   0.848   2.065   3.654
  806SOL    HW2 2435   0.708   2.145   3.676
  807SOL     OW 2436   0.888   3.376   3.057
  807SOL    HW1 2437   0.865   3.351   2.963
  807SOL    HW2 2438   0.949   3.307   3.096
  808SOL     OW 2439   1.351   2.452   3.295
  808SOL    HW1 2440   1.379   2.409   3.380
  808SOL    HW2 2441   1.376   2.548   3.296
  809SOL     OW 2442   0.803   3.264   2.786
  809SOL    HW1 2443   0.893   3.278   2.744
  809SOL    HW2 2444   0.732   3.266   2.715
  810SOL     OW 2445   0.922   2.365   2.761
  810SOL    HW1 2446   0.897   2.356   2.665
  810SOL    HW2 2447   0.970   2.283   2.792
  811SOL     OW 2448   0.539   1.926   2.374
  811SOL    HW1 2449   0.458   1.927   2.432
  811SOL    HW2 2450   0.542   2.009   2.319
  812SOL     OW 2451   1.434   3.050   1.903
  812SOL    HW1 2452   1.466   2.974   1.960
  812SOL    HW2 2453   1.342   3.077   1.933
  813SOL     OW 2454   0.297   1.897   2.033
  813SOL    HW1 2455   0.346   1.981   2.012
  813SOL    HW2 2456   0.359   1.832   2.078
  814SOL     OW 2457   0.935   2.098   2.342
  814SOL    HW1 2458   0.887   2.139   2.264
  814SOL    HW2 2459   1.034   2.096   2.323
  815SOL     OW 2460   1.076   2.545   3.326
  815SOL    HW1 2461   0.996   2.484   3.329
  815SOL    HW2 2462   1.157   2.492   3.302
  816SOL     OW 2463   1.227   3.432   2.655
  816SOL    HW1 2464   1.248   3.506   2.590
  816SOL    HW2 2465   1.295   3.432   2.728
  817SOL     OW 2466   0.459   3.014   2.603
  817SOL    HW1 2467   0.388   2.987   2.668
  817SOL    HW2 2468   0.433   2.986   2.510
  818SOL     OW 2469   1.271   3.659   2.453
  818SOL    HW1 2470   1.315   3.723   2.389
  818SOL    HW2 2471   1.221   3.711   2.523
  819SOL     OW 2472   1.032   2.411   1.878
  819SOL    HW1 2473   0.991   2.493   1.839
  819SOL    HW2 2474   1.096   2.437   1.951
  820SOL     OW 2475   0.078   2.418   3.248
  820SOL    HW1 2476   0.170   2.417   3.207
  820SOL    HW2 2477   0.072   2.492   3.315
  821SOL     OW 2478   0.561   2.084   3.009
  821SOL    HW1 2479   0.599   2.000   3.046
  821SOL    HW2 2480   0.473   2.103   3.053
  822SOL     OW 2481   0.866   2.316   2.504
  822SOL    HW1 2482   0.834   2.388   2.442
  822SOL    HW2 2483   0.890   2.235   2.451
  823SOL     OW 2484   1.017   1.901   2.615
  823SOL    HW1 2485   0.945   1.906   2.546
  823SOL    HW2 2486   0.993   1.832   2.684
  824SOL     OW 2487   1.429   3.035   2.729
  824SOL    HW1 2488   1.374   2.951   2.722
  824SOL    HW2 2489   1.455   3.064   2.637
  825SOL     OW 2490   1.466   2.452   2.854
  825SOL    HW1 2491   1.436   2.357   2.861
  825SOL    HW2 2492   1.539   2.468   2.920
  826SOL     OW 2493   1.857   2.695   2.239
  826SOL    HW1 2494   1.899   2.631   2.303
  826SOL    HW2 2495   1.819   2.644   2.161
  827SOL     OW 2496   0.488   3.247   2.036
  827SOL    HW1 2497   0.401   3.232   2.083
  827SOL    HW2 2498   0.471   3.273   1.941
  828SOL     OW 2499   1.664   3.142   2.519
  828SOL    HW1 2500   1.763   3.150   2.533
  828SOL    HW2 2501   1.619   3.226   2.550
  829SOL     OW 2502   1.390   2.437   1.940
  829SOL    HW1 2503   1.336   2.416   2.021
  829SOL    HW2 2504   1.481   2.396   1.949
  830SOL     OW 2505   0.527   2.118   2.190
  830SOL    HW1 2506   0.554   2.059   2.115
  830SOL    HW2 2507   0.527   2.213   2.159
  831SOL     OW 2508   1.754   3.085   3.450
  831SOL    HW1 2509   1.845   3.046   3.437
  831SOL    HW2 2510   1.762   3.181   3.474
  832SOL     OW 2511   1.064   3.209   3.202
  832SOL    HW1 2512   0.984   3.186   3.257
  832SOL    HW2 2513   1.147   3.183   3.251
  833SOL     OW 2514   1.592   3.491   3.487
  833SOL    HW1 2515   1.619   3.525   3.397
  833SOL    HW2 2516   1.671   3.453   3.533
  834SOL     OW 2517   1.111   3.057   2.962
  834SOL    HW1 2518   1.071   3.101   3.043
  834SOL    HW2 2519   1.070   3.094   2.879
  835SOL     OW 2520   1.638   2.961   2.941
  835SOL    HW1 2521   1.643   3.042   3.000
  835SOL    HW2 2522   1.552   2.963   2.890
  836SOL     OW 2523   0.915   1.951   3.264
  836SOL    HW1 2524   0.940   1.931   3.169
  836SOL    HW2 2525   0.987   2.007   3.306
  837SOL     OW 2526   0.980   2.978   3.581
  837SOL    HW1 2527   0.881   2.984   3.591
  837SOL    HW2 2528   1.003   2.898   3.525
  838SOL     OW 2529   0.705   2.912   2.230
  838SOL    HW1 2530   0.691   2.919   2.329
  838SOL    HW2 2531   0.789   2.861   2.212
  839SOL     OW 2532   0.410   2.675   3.113
  839SOL    HW1 2533   0.496   2.687   3.163
  839SOL    HW2 2534   0.368   2.588   3.140
  840SOL     OW 2535   1.274   2.248   3.124
  840SOL    HW1 2536   1.295   2.322   3.188
  840SOL    HW2 2537   1.185   2.265   3.081
  841SOL     OW 2538   0.064   3.426   3.193
  841SOL    HW1 2539   0.018   3.508   3.159
  841SOL    HW2 2540   0.162   3.445   3.202
  842SOL     OW 2541   0.367   2.962   2.363
  842SOL    HW1 2542   0.360   3.045   2.307
  842SOL    HW2 2543   0.371   2.882   2.303
  843SOL     OW 2544   0.566   2.399   2.727
  843SOL    HW1 2545   0.578   2.465   2.653
  843SOL    HW2 2546   0.612   2.433   2.810
  844SOL     OW 2547   1.252   3.210   2.250
  844SOL    HW1 2548   1.302   3.287   2.290
  844SOL    HW2 2549   1.157   3.212   2.282
  845SOL     OW 2550   1.272   3.307   3.004
  845SOL    HW1 2551   1.319   3.320   3.091
  845SOL    HW2 2552   1.206   3.233   3.013
  846SOL     OW 2553   1.582   2.501   2.334
  846SOL    HW1 2554   1.551   2.562   2.407
  846SOL    HW2 2555   1.632   2.553   2.265
  847SOL     OW 2556   0.354   3.372   3.191
  847SOL    HW1 2557   0.333   3.328   3.104
  847SOL    HW2 2558   0.451   3.398   3.194
  848SOL     OW 2559   0.402   2.613   3.460
  848SOL    HW1 2560   0.470   2.668   3.413
  848SOL    HW2 2561   0.442   2.525   3.487
  849SOL     OW 2562   1.587   2.641   3.532
  849SOL    HW1 2563   1.495   2.679   3.527
  849SOL    HW2 2564   1.647   2.688   3.467
  850SOL     OW 2565   1.013   1.967   3.632
  850SOL    HW1 2566   1.019   2.052   3.580
  850SOL    HW2 2567   1.045   1.891   3.575
  851SOL     OW 2568   0.504   1.912   3.602
  851SOL    HW1 2569   0.462   1.855   3.532
  851SOL    HW2 2570   0.438   1.981   3.634
  852SOL     OW 2571   0.573   2.732   2.891
  852SOL    HW1 2572   0.617   2.821   2.882
  852SOL    HW2 2573   0.510   2.732   2.968
  853SOL     OW 2574   1.360   2.724   2.907
  853SOL    HW1 2575   1.285   2.724   2.841
  853SOL    HW2 2576   1.397   2.632   2.916
  854SOL     OW 2577   1.209   2.387   2.137
  854SOL    HW1 2578   1.222   2.303   2.191
  854SOL    HW2 2579   1.180   2.461   2.197
  855SOL     OW 2580   0.307   2.075   3.093
  855SOL    HW1 2581   0.284   2.112   3.183
  855SOL    HW2 2582   0.277   1.980   3.087
  856SOL     OW 2583   0.037   3.172   3.144
  856SOL    HW1 2584   0.090   3.123   3.212
  856SOL    HW2 2585   0.059   3.270   3.149
  857SOL     OW 2586   0.732   2.496   2.926
  857SOL    HW1 2587   0.791   2.470   2.850
  857SOL    HW2 2588   0.704   2.592   2.915
  858SOL     OW 2589   1.728   2.797   3.716
  858SOL    HW1 2590   1.682   2.790   3.627
  858SOL    HW2 2591   1.666   2.841   3.782
  859SOL     OW 2592   0.307   1.925   2.480
  859SOL    HW1 2593   0.296   2.019   2.513
  859SOL    HW2 2594   0.302   1.862   2.557
  860SOL     OW 2595   1.622   2.229   2.236
  860SOL    HW1 2596   1.624   2.153   2.300
  860SOL    HW2 2597   1.574   2.306   2.276
  861SOL     OW 2598   1.023   2.628   2.828
  861SOL    HW1 2599   1.038   2.649   2.924
  861SOL    HW2 2600   0.993   2.533   2.819
  862SOL     OW 2601   0.980   3.435   3.562
  862SOL    HW1 2602   0.960   3.479   3.474
  862SOL    HW2 2603   1.019   3.344   3.546
  863SOL     OW 2604   1.859   3.380   3.467
  863SOL    HW1 2605   1.873   3.407   3.372
  863SOL    HW2 2606   1.942   3.402   3.520
  864SOL     OW 2607   0.350   2.760   3.666
  864SOL    HW1 2608   0.426   2.804   3.714
  864SOL    HW2 2609   0.385   2.713   3.584
  865SOL     OW 2610   1.540   2.136   1.987
  865SOL    HW1 2611   1.479   2.061   2.010
  865SOL    HW2 2612   1.562   2.188   2.070
  866SOL     OW 2613   1.303   2.700   1.904
  866SOL    HW1 2614   1.337   2.607   1.919
  866SOL    HW2 2615   1.321   2.727   1.809
  867SOL     OW 2616   1.068   3.195   2.711
  867SOL    HW1 2617   1.075   3.111   2.656
  867SOL    HW2 2618   1.130   3.264   2.675
  868SOL     OW 2619   0.319   2.672   2.811
  868SOL    HW1 2620   0.412   2.708   2.816
  868SOL    HW2 2621   0.313   2.587   2.863
  869SOL     OW 2622   0.339   2.371   2.868
  869SOL    HW1 2623   0.287   2.288   2.851
  869SOL    HW2 2624   0.416   2.376   2.804
  870SOL     OW 2625   1.138   2.242   3.540
  870SOL    HW1 2626   1.093   2.305   3.604
  870SOL    HW2 2627   1.231   2.273   3.523
  871SOL     OW 2628   1.160   2.069   3.339
  871SOL    HW1 2629   1.160   2.133   3.416
  871SOL    HW2 2630   1.188   2.117   3.256
  872SOL     OW 2631   0.008   3.188   2.062
  872SOL    HW1 2632  -0.085   3.209   2.031
  872SOL    HW2 2633   0.018   3.089   2.075
  873SOL     OW 2634   0.088   3.663   2.789
  873SOL    HW1 2635   0.046   3.577   2.762
  873SOL    HW2 2636   0.182   3.666   2.755
  874SOL     OW 2637   0.504   3.430   2.772
  874SOL    HW1 2638   0.570   3.504   2.781
  874SOL    HW2 2639   0.548   3.351   2.730
  875SOL     OW 2640   1.002   2.658   3.100
  875SOL    HW1 2641   1.043   2.626   3.186
  875SOL    HW2 2642   0.906   2.631   3.097
  876SOL     OW 2643   0.040   2.406   2.976
  876SOL    HW1 2644   0.125   2.373   2.935
  876SOL    HW2 2645   0.053   2.421   3.074
  877SOL     OW 2646   0.189   2.382   3.584
  877SOL    HW1 2647   0.248   2.342   3.514
  877SOL    HW2 2648   0.131   2.453   3.543
  878SOL     OW 2649   1.369   2.812   3.522
  878SOL    HW1 2650   1.408   2.901   3.542
  878SOL    HW2 2651   1.379   2.792   3.425
  879SOL     OW 2652   0.815   2.434   2.187
  879SOL    HW1 2653   0.822   2.345   2.141
  879SOL    HW2 2654   0.721   2.468   2.179
  880SOL     OW 2655   1.657   2.466   3.068
  880SOL    HW1 2656   1.619   2.397   3.130
  880SOL    HW2 2657   1.739   2.430   3.024
  881SOL     OW 2658   0.252   3.426   3.606
  881SOL    HW1 2659   0.222   3.483   3.682
  881SOL    HW2 2660   0.245   3.329   3.632
  882SOL     OW 2661   0.671   2.326   3.131
  882SOL    HW1 2662   0.637   2.237   3.101
  882SOL    HW2 2663   0.697   2.380   3.051
  883SOL     OW 2664   0.930   3.540   3.327
  883SOL    HW1 2665   0.906   3.522   3.232
  883SOL    HW2 2666   0.960   3.634   3.337
  884SOL     OW 2667   0.473   2.362   2.053
  884SOL    HW1 2668   0.534   2.442   2.057
  884SOL    HW2 2669   0.378   2.393   2.060
  885SOL     OW 2670   0.159   2.999   3.328
  885SOL    HW1 2671   0.181   2.938   3.404
  885SOL    HW2 2672   0.169   2.950   3.242
  886SOL     OW 2673   1.347   2.921   3.096
  886SOL    HW1 2674   1.371   2.858   3.022
  886SOL    HW2 2675   1.257   2.961   3.078
  887SOL     OW 2676   1.302   2.717   2.171
  887SOL    HW1 2677   1.216   2.686   2.213
  887SOL    HW2 2678   1.298   2.703   2.072
  888SOL     OW 2679   1.759   3.609   3.016
  888SOL    HW1 2680   1.820   3.639   2.943
  888SOL    HW2 2681   1.721   3.520   2.994
  889SOL     OW 2682   1.252   3.593   2.990
  889SOL    HW1 2683   1.336   3.598   2.936
  889SOL    HW2 2684   1.229   3.497   3.008
  890SOL     OW 2685   0.083   3.120   2.884
  890SOL    HW1 2686   0.078   3.119   2.984
  890SOL    HW2 2687   0.000   3.079   2.846
  891SOL     OW 2688   0.688   3.524   3.578
  891SOL    HW1 2689   0.632   3.605   3.587
  891SOL    HW2 2690   0.740   3.528   3.492
  892SOL     OW 2691   1.726   1.997   2.385
  892SOL    HW1 2692   1.799   1.980   2.318
  892SOL    HW2 2693   1.695   1.910   2.423
  893SOL     OW 2694   1.388   3.435   2.339
  893SOL    HW1 2695   1.455   3.447   2.265
  893SOL    HW2 2696   1.348   3.524   2.362
  894SOL     OW 2697   0.130   3.656   3.713
  894SOL    HW1 2698   0.089   3.582   3.766
  894SOL    HW2 2699   0.194   3.707   3.771
  895SOL     OW 2700   1.280   2.789   2.534
  895SOL    HW1 2701   1.340   2.708   2.536
  895SOL    HW2 2702   1.320   2.858   2.474
  896SOL     OW 2703   0.830   3.135   3.284
  896SOL    HW1 2704   0.825   3.168   3.379
  896SOL    HW2 2705   0.744   3.154   3.238
  897SOL     OW 2706   0.672   3.478   2.016
  897SOL    HW1 2707   0.681   3.488   1.917
  897SOL    HW2 2708   0.632   3.389   2.037
  898SOL     OW 2709   1.650   3.582   3.256
  898SOL    HW1 2710   1.703   3.592   3.172
  898SOL    HW2 2711   1.623   3.672   3.290
  899SOL     OW 2712   1.841   2.037   2.825
  899SOL    HW1 2713   1.880   1.952   2.789
  899SOL    HW2 2714   1.743   2.039   2.806
  900SOL     OW 2715   0.263   2.188   2.582
  900SOL    HW1 2716   0.184   2.239   2.548
  900SOL    HW2 2717   0.254   2.173   2.680
  901SOL     OW 2718   1.194   3.474   1.893
  901SOL    HW1 2719   1.200   3.381   1.930
  901SOL    HW2 2720   1.135   3.474   1.813
  902SOL     OW 2721   0.822   2.864   3.234
  902SOL    HW1 2722   0.862   2.863   3.142
  902SOL    HW2 2723   0.832   2.956   3.274
  903SOL     OW 2724   0.916   2.772   2.153
  903SOL    HW1 2725   0.979   2.810   2.085
  903SOL    HW2 2726   0.956   2.689   2.192
  904SOL     OW 2727   1.504   3.469   1.906
  904SOL    HW1 2728   1.412   3.506   1.913
  904SOL    HW2 2729   1.542   3.489   1.816
  905SOL     OW 2730   0.372   3.150   3.352
  905SOL    HW1 2731   0.359   3.243   3.318
  905SOL    HW2 2732   0.288   3.098   3.339
  906SOL     OW 2733   1.614   3.154   3.151
  906SOL    HW1 2734   1.674   3.157   3.231
  906SOL    HW2 2735   1.539   3.218   3.164
  907SOL     OW 2736   1.039   2.960   2.558
  907SOL    HW1 2737   0.969   2.913   2.612
  907SOL    HW2 2738   1.098   2.892   2.515
  908SOL     OW 2739   1.014   2.098   2.833
  908SOL    HW1 2740   1.006   2.062   2.740
  908SOL    HW2 2741   1.012   2.022   2.898
  909SOL     OW 2742   0.590   3.349   2.353
  909SOL    HW1 2743   0.632   3.291   2.283
  909SOL    HW2 2744   0.546   3.428   2.309
  910SOL     OW 2745   1.709   2.247   3.243
  910SOL    HW1 2746   1.782   2.316   3.247
  910SOL    HW2 2747   1.737   2.172   3.184
  911SOL     OW 2748   0.255   3.210   2.152
  911SOL    HW1 2749   0.159   3.211   2.125
  911SOL    HW2 2750   0.267   3.263   2.236
  912SOL     OW 2751   0.105   2.875   3.588
  912SOL    HW1 2752   0.028   2.842   3.642
  912SOL    HW2 2753   0.190   2.845   3.630
  913SOL     OW 2754   0.672   2.065   3.351
  913SOL    HW1 2755   0.762   2.049   3.311
  913SOL    HW2 2756   0.680   2.070   3.450
  914SOL     OW 2757   0.075   2.207   1.895
  914SOL    HW1 2758  -0.017   2.179   1.866
  914SOL    HW2 2759   0.106   2.284   1.839
  915SOL     OW 2760   1.440   2.718   3.260
  915SOL    HW1 2761   1.383   2.770   3.197
  915SOL    HW2 2762   1.536   2.730   3.236
  916SOL     OW 2763   0.072   2.028   2.180
  916SOL    HW1 2764   0.055   2.111   2.126
  916SOL    HW2 2765   0.162   1.991   2.158
  917SOL     OW 2766   1.183   3.197   1.981
  917SOL    HW1 2767   1.084   3.186   1.983
  917SOL    HW2 2768   1.217   3.212   2.074
  918SOL     OW 2769   0.613   2.704   3.293
  918SOL    HW1 2770   0.669   2.785   3.276
  918SOL    HW2 2771   0.672   2.624   3.296
  919SOL     OW 2772   1.493   3.629   2.821
  919SOL    HW1 2773   1.526   3.693   2.752
  919SOL    HW2 2774   1.559   3.623   2.896
  920SOL     OW 2775   0.716   2.427   3.570
  920SOL    HW1 2776   0.735   2.492   3.644
  920SOL    HW2 2777   0.776   2.347   3.579
  921SOL     OW 2778   1.450   3.082   3.495
  921SOL    HW1 2779   1.441   3.072   3.594
  921SOL    HW2 2780   1.546   3.075   3.469
  922SOL     OW 2781   0.390   3.603   3.422
  922SOL    HW1 2782   0.299   3.644   3.420
  922SOL    HW2 2783   0.383   3.509   3.454
  923SOL     OW 2784   1.674   2.745   3.116
  923SOL    HW1 2785   1.647   2.656   3.079
  923SOL    HW2 2786   1.675   2.813   3.043
  924SOL     OW 2787   1.225   2.187   2.311
  924SOL    HW1 2788   1.290   2.113   2.300
  924SOL    HW2 2789   1.245   2.237   2.395
  925SOL     OW 2790   0.594   2.607   2.514
  925SOL    HW1 2791   0.644   2.692   2.495
  925SOL    HW2 2792   0.506   2.609   2.466
  926SOL     OW 2793   1.777   2.204   3.504
  926SOL    HW1 2794   1.760   2.235   3.410
  926SOL    HW2 2795   1.693   2.167   3.542
  927SOL     OW 2796   1.730   2.796   3.379
  927SOL    HW1 2797   1.768   2.887   3.394
  927SOL    HW2 2798   1.722   2.779   3.280
  928SOL     OW 2799   0.859   3.236   1.878
  928SOL    HW1 2800   0.813   3.251   1.966
  928SOL    HW2 2801   0.903   3.321   1.848
  929SOL     OW 2802   0.661   3.652   2.815
  929SOL    HW1 2803   0.615   3.740   2.802
  929SOL    HW2 2804   0.760   3.664   2.808
  930SOL     OW 2805   0.859   2.818   2.723
  930SOL    HW1 2806   0.913   2.749   2.771
  930SOL    HW2 2807   0.827   2.887   2.789
  931SOL     OW 2808   1.083   2.846   1.949
  931SOL    HW1 2809   1.060   2.899   1.867
  931SOL    HW2 2810   1.164   2.790   1.930
  932SOL     OW 2811   1.861   3.431   2.713
  932SOL    HW1 2812   1.790   3.419   2.643
  932SOL    HW2 2813   1.862   3.352   2.773
  933SOL     OW 2814   0.221   3.176   3.706
  933SOL    HW1 2815   0.156   3.103   3.685
  933SOL    HW2 2816   0.225   3.190   3.804
  934SOL     OW 2817   0.079   3.102   2.515
  934SOL    HW1 2818   0.078   3.055   2.603
  934SOL    HW2 2819   0.161   3.074   2.464
  935SOL     OW 2820   0.672   3.253   3.486
  935SOL    HW1 2821   0.594   3.203   3.524
  935SOL    HW2 2822   0.669   3.348   3.517
  936SOL     OW 2823   1.824   2.054   3.089
  936SOL    HW1 2824   1.820   1.964   3.133
  936SOL    HW2 2825   1.827   2.043   2.990
  937SOL     OW 2826   0.428   2.286   2.382
  937SOL    HW1 2827   0.458   2.214   2.320
  937SOL    HW2 2828   0.389   2.246   2.465
  938SOL     OW 2829   1.705   3.349   2.966
  938SOL    HW1 2830   1.612   3.324   2.939
  938SOL    HW2 2831   1.731   3.299   3.048
  939SOL     OW 2832   0.317   2.409   3.142
  939SOL    HW1 2833   0.355   2.350   3.214
  939SOL    HW2 2834   0.357   2.383   3.054
  940SOL     OW 2835   0.812   3.448   2.549
  940SOL    HW1 2836   0.844   3.458   2.455
  940SOL    HW2 2837   0.733   3.386   2.551
  941SOL     OW 2838   1.424   2.076   2.974
  941SOL    HW1 2839   1.476   2.011   3.029
  941SOL    HW2 2840   1.375   2.139   3.035
  942SOL     OW 2841   1.001   1.896   3.016
  942SOL    HW1 2842   0.938   1.824   2.985
  942SOL    HW2 2843   1.094   1.860   3.016
  943SOL     OW 2844   0.770   3.192   2.163
  943SOL    HW1 2845   0.724   3.105   2.180
  943SOL    HW2 2846   0.861   3.189   2.204
  944SOL     OW 2847   0.618   3.429   3.146
  944SOL    HW1 2848   0.613   3.511   3.203
  944SOL    HW2 2849   0.707   3.426   3.101
  945SOL     OW 2850   1.352   1.914   2.030
  945SOL    HW1 2851   1.387   1.873   1.946
  945SOL    HW2 2852   1.262   1.876   2.050
  946SOL     OW 2853   1.300   2.315   2.553
  946SOL    HW1 2854   1.241   2.395   2.557
  946SOL    HW2 2855   1.315   2.280   2.646
  947SOL     OW 2856   1.593   2.083   2.744
  947SOL    HW1 2857   1.509   2.082   2.798
  947SOL    HW2 2858   1.595   2.166   2.688
  948SOL     OW 2859   0.039   2.939   2.162
  948SOL    HW1 2860   0.138   2.928   2.153
  948SOL    HW2 2861  -0.001   2.853   2.194
  949SOL     OW 2862   0.875   3.508   2.199
  949SOL    HW1 2863   0.798   3.473   2.145
  949SOL    HW2 2864   0.843   3.579   2.261
  950SOL     OW 2865   0.230   2.490   3.837
  950SOL    HW1 2866   0.137   2.488   3.874
  950SOL    HW2 2867   0.231   2.451   3.745
  951SOL     OW 2868   0.019   2.230   4.371
  951SOL    HW1 2869  -0.063   2.273   4.410
  951SOL    HW2 2870  -0.009   2.157   4.308
  952SOL     OW 2871   1.555   3.373   4.427
  952SOL    HW1 2872   1.498   3.357   4.508
  952SOL    HW2 2873   1.496   3.383   4.347
  953SOL     OW 2874   1.135   2.565   4.441
  953SOL    HW1 2875   1.192   2.643   4.416
  953SOL    HW2 2876   1.075   2.591   4.517
  954SOL     OW 2877   1.755   2.469   3.955
  954SOL    HW1 2878   1.743   2.456   3.856
  954SOL    HW2 2879   1.725   2.388   4.004
  955SOL     OW 2880   0.768   3.006   4.747
  955SOL    HW1 2881   0.690   3.023   4.807
  955SOL    HW2 2882   0.802   3.093   4.711
  956SOL     OW 2883   0.685   2.874   4.389
  956SOL    HW1 2884   0.754   2.858   4.459
  956SOL    HW2 2885   0.612   2.931   4.427
  957SOL     OW 2886   1.603   2.309   4.461
  957SOL    HW1 2887   1.529   2.355   4.411
  957SOL    HW2 2888   1.654   2.377   4.514
  958SOL     OW 2889   0.231   3.575   4.207
  958SOL    HW1 2890   0.265   3.652   4.261
  958SOL    HW2 2891   0.275   3.575   4.117
  959SOL     OW 2892   0.230   3.296   4.262
  959SOL    HW1 2893   0.204   3.392   4.262
  959SOL    HW2 2894   0.159   3.242   4.307
  960SOL     OW 2895   0.240   2.953   4.610
  960SOL    HW1 2896   0.254   2.869   4.662
  960SOL    HW2 2897   0.185   3.017   4.665
  961SOL     OW 2898   0.606   2.826   3.847
  961SOL    HW1 2899   0.613   2.910   3.793
  961SOL    HW2 2900   0.652   2.839   3.935
  962SOL     OW 2901   0.122   2.505   4.287
  962SOL    HW1 2902   0.077   2.417   4.304
  962SOL    HW2 2903   0.121   2.559   4.371
  963SOL     OW 2904   1.842   3.629   4.083
  963SOL    HW1 2905   1.896   3.600   4.163
  963SOL    HW2 2906   1.872   3.719   4.054
  964SOL     OW 2907   0.027   3.458   3.841
  964SOL    HW1 2908   0.008   3.362   3.862
  964SOL    HW2 2909  -0.006   3.516   3.916
  965SOL     OW 2910   1.689   2.784   4.336
  965SOL    HW1 2911   1.784   2.755   4.344
  965SOL    HW2 2912   1.681   2.849   4.261
  966SOL     OW 2913   1.641   2.970   4.156
  966SOL    HW1 2914   1.727   2.972   4.104
  966SOL    HW2 2915   1.655   3.017   4.244
  967SOL     OW 2916   0.613   3.227   4.450
  967SOL    HW1 2917   0.564   3.140   4.459
  967SOL    HW2 2918   0.590   3.270   4.363
  968SOL     OW 2919   0.809   1.866   4.226
  968SOL    HW1 2920   0.849   1.957   4.217
  968SOL    HW2 2921   0.709   1.874   4.232
  969SOL     OW 2922   1.525   2.861   3.914
  969SOL    HW1 2923   1.462   2.785   3.927
  969SOL    HW2 2924   1.573   2.879   4.000
  970SOL     OW 2925   1.667   3.576   4.296
  970SOL    HW1 2926   1.626   3.553   4.208
  970SOL    HW2 2927   1.649   3.502   4.361
  971SOL     OW 2928   0.598   2.591   3.994
  971SOL    HW1 2929   0.622   2.660   3.926
  971SOL    HW2 2930   0.520   2.624   4.048
  972SOL     OW 2931   1.281   2.207   4.668
  972SOL    HW1 2932   1.195   2.157   4.655
  972SOL    HW2 2933   1.343   2.153   4.724
  973SOL     OW 2934   1.576   3.524   4.031
  973SOL    HW1 2935   1.665   3.570   4.034
  973SOL    HW2 2936   1.555   3.500   3.936
  974SOL     OW 2937   1.041   2.563   4.153
  974SOL    HW1 2938   1.067   2.559   4.249
  974SOL    HW2 2939   0.956   2.512   4.139
  975SOL     OW 2940   0.076   2.673   4.513
  975SOL    HW1 2941   0.175   2.661   4.522
  975SOL    HW2 2942   0.052   2.768   4.534
  976SOL     OW 2943   0.865   2.210   3.919
  976SOL    HW1 2944   0.924   2.273   3.870
  976SOL    HW2 2945   0.884   2.116   3.890
  977SOL     OW 2946   1.362   3.006   4.269
  977SOL    HW1 2947   1.445   2.977   4.221
  977SOL    HW2 2948   1.313   3.073   4.213
  978SOL     OW 2949   0.550   2.058   4.609
  978SOL    HW1 2950   0.545   2.053   4.709
  978SOL    HW2 2951   0.552   2.154   4.580
  979SOL     OW 2952   1.008   3.318   4.201
  979SOL    HW1 2953   0.962   3.390   4.149
  979SOL    HW2 2954   1.004   3.338   4.299
  980SOL     OW 2955   0.351   3.663   4.577
  980SOL    HW1 2956   0.401   3.577   4.583
  980SOL    HW2 2957   0.416   3.740   4.574
  981SOL     OW 2958   1.795   2.928   4.597
  981SOL    HW1 2959   1.733   2.913   4.521
  981SOL    HW2 2960   1.743   2.939   4.682
  982SOL     OW 2961   0.321   2.805   3.966
  982SOL    HW1 2962   0.403   2.844   3.924
  982SOL    HW2 2963   0.294   2.723   3.917
  983SOL     OW 2964   1.458   2.597   4.452
  983SOL    HW1 2965   1.453   2.532   4.527
  983SOL    HW2 2966   1.538   2.656   4.465
  984SOL     OW 2967   1.111   3.638   3.961
  984SOL    HW1 2968   1.051   3.576   4.011
  984SOL    HW2 2969   1.142   3.594   3.876
  985SOL     OW 2970   1.632   3.239   3.805
  985SOL    HW1 2971   1.600   3.333   3.795
  985SOL    HW2 2972   1.556   3.176   3.793
  986SOL     OW 2973   0.464   3.605   4.047
  986SOL    HW1 2974   0.497   3.644   4.133
  986SOL    HW2 2975   0.540   3.598   3.982
  987SOL     OW 2976   1.400   1.969   4.150
  987SOL    HW1 2977   1.376   1.932   4.060
  987SOL    HW2 2978   1.499   1.985   4.154
  988SOL     OW 2979   0.382   2.562   4.204
  988SOL    HW1 2980   0.427   2.472   4.201
  988SOL    HW2 2981   0.288   2.551   4.237
  989SOL     OW 2982   0.614   1.984   3.841
  989SOL    HW1 2983   0.712   1.962   3.848
  989SOL    HW2 2984   0.583   1.967   3.748
  990SOL     OW 2985   0.539   1.926   4.236
  990SOL    HW1 2986   0.458   1.927   4.294
  990SOL    HW2 2987   0.542   2.009   4.181
  991SOL     OW 2988   1.434   3.050   3.765
  991SOL    HW1 2989   1.466   2.974   3.822
  991SOL    HW2 2990   1.342   3.077   3.795
  992SOL     OW 2991   0.297   1.897   3.895
  992SOL    HW1 2992   0.346   1.981   3.874
  992SOL    HW2 2993   0.359   1.832   3.940
  993SOL     OW 2994   0.935   2.098   4.204
  993SOL    HW1 2995   0.887   2.139   4.126
  993SOL    HW2 2996   1.034   2.096   4.185
  994SOL     OW 2997   0.459   3.014   4.465
  994SOL    HW1 2998   0.388   2.987   4.530
  994SOL    HW2 2999   0.433   2.986   4.372
  995SOL     OW 3000   1.271   3.659   4.315
  995SOL    HW1 3001   1.315   3.723   4.251
  995SOL    HW2 3002   1.221   3.711   4.385
  996SOL     OW 3003   1.032   2.411   3.740
  996SOL    HW1 3004   0.991   2.493   3.701
  996SOL    HW2 3005   1.096   2.437   3.813
  997SOL     OW 3006   0.866   2.316   4.366
  997SOL    HW1 3007   0.834   2.388   4.304
  997SOL    HW2 3008   0.890   2.235   4.313
  998SOL     OW 3009   1.017   1.901   4.477
  998SOL    HW1 3010   0.945   1.906   4.408
  998SOL    HW2 3011   0.993   1.832   4.546
  999SOL     OW 3012   1.857   2.695   4.101
  999SOL    HW1 3013   1.899   2.631   4.165
  999SOL    HW2 3014   1.819   2.644   4.023
 1000SOL     OW 3015   0.488   3.247   3.898
 1000SOL    HW1 3016   0.401   3.232   3.945
 1000SOL    HW2 3017   0.471   3.273   3.803
 1001SOL     OW 3018   1.664   3.142   4.381
 1001SOL    HW1 3019   1.763   3.150   4.395
 1001SOL    HW2 3020   1.619   3.226   4.412
 1002SOL     OW 3021   1.390   2.437   3.802
 1002SOL    HW1 3022   1.336   2.416   3.883
 1002SOL    HW2 3023   1.481   2.396   3.811
 1003SOL     OW 3024   0.527   2.118   4.052
 1003SOL    HW1 3025   0.554   2.059   3.977
 1003SOL    HW2 3026   0.527   2.213   4.021
 1004SOL     OW 3027   0.705   2.912   4.092
 1004SOL    HW1 3028   0.691   2.919   4.191
 1004SOL    HW2 3029   0.789   2.861   4.074
 1005SOL     OW 3030   0.367   2.962   4.225
 1005SOL    HW1 3031   0.360   3.045   4.169
 1005SOL    HW2 3032   0.371   2.882   4.165
 1006SOL     OW 3033   0.566   2.399   4.589
 1006SOL    HW1 3034   0.578   2.465   4.515
 1006SOL    HW2 3035   0.612   2.433   4.672
 1007SOL     OW 3036   1.252   3.210   4.112
 1007SOL    HW1 3037   1.302   3.287   4.152
 1007SOL    HW2 3038   1.157   3.212   4.144
 1008SOL     OW 3039   1.582   2.501   4.196
 1008SOL    HW1 3040   1.551   2.562   4.269
 1008SOL    HW2 3041   1.632   2.553   4.127
 1009SOL     OW 3042   1.209   2.387   3.999
 1009SOL    HW1 3043   1.222   2.303   4.053
 1009SOL    HW2 3044   1.180   2.461   4.059
 1010SOL     OW 3045   0.307   1.925   4.342
 1010SOL    HW1 3046   0.296   2.019   4.375
 1010SOL    HW2 3047   0.302   1.862   4.419
 1011SOL     OW 3048   1.622   2.229   4.098
 1011SOL    HW1 3049   1.624   2.153   4.162
 1011SOL    HW2 3050   1.574   2.306   4.138
 1012SOL     OW 3051   1.540   2.136   3.849
 1012SOL    HW1 3052   1.479   2.061   3.872
 1012SOL    HW2 3053   1.562   2.188   3.932
 1013SOL     OW 3054   1.303   2.700   3.766
 1013SOL    HW1 3055   1.337   2.607   3.781
 1013SOL    HW2 3056   1.321   2.727   3.671
 1014SOL     OW 3057   1.068   3.195   4.573
 1014SOL    HW1 3058   1.075   3.111   4.518
 1014SOL    HW2 3059   1.130   3.264   4.537
 1015SOL     OW 3060   0.008   3.188   3.924
 1015SOL    HW1 3061  -0.085   3.209   3.893
 1015SOL    HW2 3062   0.018   3.089   3.937
 1016SOL     OW 3063   0.088   3.663   4.651
 1016SOL    HW1 3064   0.046   3.577   4.624
 1016SOL    HW2 3065   0.182   3.666   4.617
 1017SOL     OW 3066   0.815   2.434   4.049
 1017SOL    HW1 3067   0.822   2.345   4.003
 1017SOL    HW2 3068   0.721   2.468   4.041
 1018SOL     OW 3069   0.473   2.362   3.915
 1018SOL    HW1 3070   0.534   2.442   3.919
 1018SOL    HW2 3071   0.378   2.393   3.922
 1019SOL     OW 3072   1.302   2.717   4.033
 1019SOL    HW1 3073   1.216   2.686   4.075
 1019SOL    HW2 3074   1.298   2.703   3.934
 1020SOL     OW 3075   1.726   1.997   4.247
 1020SOL    HW1 3076   1.799   1.980   4.180
 1020SOL    HW2 3077   1.695   1.910   4.285
 1021SOL     OW 3078   1.388   3.435   4.201
 1021SOL    HW1 3079   1.455   3.447   4.127
 1021SOL    HW2 3080   1.348   3.524   4.224
 1022SOL     OW 3081   1.280   2.789   4.396
 1022SOL    HW1 3082   1.340   2.708   4.398
 1022SOL    HW2 3083   1.320   2.858   4.336
 1023SOL     OW 3084   0.672   3.478   3.878
 1023SOL    HW1 3085   0.681   3.488   3.779
 1023SOL    HW2 3086   0.632   3.389   3.899
 1024SOL     OW 3087   1.841   2.037   4.687
 1024SOL    HW1 3088   1.880   1.952   4.651
 1024SOL    HW2 3089   1.743   2.039   4.668
 1025SOL     OW 3090   0.263   2.188   4.444
 1025SOL    HW1 3091   0.184   2.239   4.410
 1025SOL    HW2 3092   0.254   2.173   4.542
 1026SOL     OW 3093   1.194   3.474   3.755
 1026SOL    HW1 3094   1.200   3.381   3.792
 1026SOL    HW2 3095   1.135   3.474   3.675
 1027SOL     OW 3096   0.916   2.772   4.015
 1027SOL    HW1 3097   0.979   2.810   3.947
 1027SOL    HW2 3098   0.956   2.689   4.054
 1028SOL     OW 3099   1.504   3.469   3.768
 1028SOL    HW1 3100   1.412   3.506   3.775
 1028SOL    HW2 3101   1.542   3.489   3.678
 1029SOL     OW 3102   1.039   2.960   4.420
 1029SOL    HW1 3103   0.969   2.913   4.474
 1029SOL    HW2 3104   1.098   2.892   4.377
 1030SOL     OW 3105   0.590   3.349   4.215
 1030SOL    HW1 3106   0.632   3.291   4.145
 1030SOL    HW2 3107   0.546   3.428   4.171
 1031SOL     OW 3108   0.255   3.210   4.014
 1031SOL    HW1 3109   0.159   3.211   3.987
 1031SOL    HW2 3110   0.267   3.263   4.098
 1032SOL     OW 3111   0.075   2.207   3.757
 1032SOL    HW1 3112  -0.017   2.179   3.728
 1032SOL    HW2 3113   0.106   2.284   3.701
 1033SOL     OW 3114   0.072   2.028   4.042
 1033SOL    HW1 3115   0.055   2.111   3.988
 1033SOL    HW2 3116   0.162   1.991   4.020
 1034SOL     OW 3117   1.183   3.197   3.843
 1034SOL    HW1 3118   1.084   3.186   3.845
 1034SOL    HW2 3119   1.217   3.212   3.936
 1035SOL     OW 3120   1.225   2.187   4.173
 1035SOL    HW1 3121   1.290   2.113   4.162
 1035SOL    HW2 3122   1.245   2.237   4.257
 1036SOL     OW 3123   0.594   2.607   4.376
 1036SOL    HW1 3124   0.644   2.692   4.357
 1036SOL    HW2 3125   0.506   2.609   4.328
 1037SOL     OW 3126   0.859   3.236   3.740
 1037SOL    HW1 3127   0.813   3.251   3.828
 1037SOL    HW2 3128   0.903   3.321   3.710
 1038SOL     OW 3129   0.661   3.652   4.677
 1038SOL    HW1 3130   0.615   3.740   4.664
 1038SOL    HW2 3131   0.760   3.664   4.670
 1039SOL     OW 3132   0.859   2.818   4.585
 1039SOL    HW1 3133   0.913   2.749   4.633
 1039SOL    HW2 3134   0.827   2.887   4.651
 1040SOL     OW 3135   1.083   2.846   3.811
 1040SOL    HW1 3136   1.060   2.899   3.729
 1040SOL    HW2 3137   1.164   2.790   3.792
 1041SOL     OW 3138   1.861   3.431   4.575
 1041SOL    HW1 3139   1.790   3.419   4.505
 1041SOL    HW2 3140   1.862   3.352   4.635
 1042SOL     OW 3141   0.079   3.102   4.377
 1042SOL    HW1 3142   0.078   3.055   4.465
 1042SOL    HW2 3143   0.161   3.074   4.326
 1043SOL     OW 3144   0.428   2.286   4.244
 1043SOL    HW1 3145   0.458   2.214   4.182
 1043SOL    HW2 3146   0.389   2.246   4.327
 1044SOL     OW 3147   0.812   3.448   4.411
 1044SOL    HW1 3148   0.844   3.458   4.317
 1044SOL    HW2 3149   0.733   3.386   4.413
 1045SOL     OW 3150   0.770   3.192   4.025
 1045SOL    HW1 3151   0.724   3.105   4.042
 1045SOL    HW2 3152   0.861   3.189   4.066
 1046SOL     OW 3153   1.352   1.914   3.892
 1046SOL    HW1 3154   1.387   1.873   3.808
 1046SOL    HW2 3155   1.262   1.876   3.912
 1047SOL     OW 3156   1.300   2.315   4.415
 1047SOL    HW1 3157   1.241   2.395   4.419
 1047SOL    HW2 3158   1.315   2.280   4.508
 1048SOL     OW 3159   0.039   2.939   4.024
 1048SOL    HW1 3160   0.138   2.928   4.015
 1048SOL    HW2 3161  -0.001   2.853   4.056
 1049SOL     OW 3162   0.875   3.508   4.061
 1049SOL    HW1 3163   0.798   3.473   4.007
 1049SOL    HW2 3164   0.843   3.579   4.123
 1050SOL     OW 3165   0.230   4.352   0.113
 1050SOL    HW1 3166   0.137   4.350   0.150
 1050SOL    HW2 3167   0.231   4.313   0.021
 1051SOL     OW 3168   0.225   3.999   0.996
 1051SOL    HW1 3169   0.260   3.982   1.088
 1051SOL    HW2 3170   0.137   3.954   0.984
 1052SOL     OW 3171   0.019   4.092   0.647
 1052SOL    HW1 3172  -0.063   4.135   0.686
 1052SOL    HW2 3173  -0.009   4.019   0.584
 1053SOL     OW 3174   1.135   4.427   0.717
 1053SOL    HW1 3175   1.192   4.505   0.692
 1053SOL    HW2 3176   1.075   4.453   0.793
 1054SOL     OW 3177   1.755   4.331   0.231
 1054SOL    HW1 3178   1.743   4.318   0.132
 1054SOL    HW2 3179   1.725   4.250   0.280
 1055SOL     OW 3180   0.850   4.522   1.823
 1055SOL    HW1 3181   0.846   4.598   1.888
 1055SOL    HW2 3182   0.872   4.558   1.732
 1056SOL     OW 3183   0.685   4.736   0.665
 1056SOL    HW1 3184   0.754   4.720   0.735
 1056SOL    HW2 3185   0.612   4.793   0.703
 1057SOL     OW 3186   0.438   4.116   1.499
 1057SOL    HW1 3187   0.520   4.060   1.508
 1057SOL    HW2 3188   0.357   4.058   1.503
 1058SOL     OW 3189   1.603   4.171   0.737
 1058SOL    HW1 3190   1.529   4.217   0.687
 1058SOL    HW2 3191   1.654   4.239   0.790
 1059SOL     OW 3192   1.594   3.838   1.480
 1059SOL    HW1 3193   1.576   3.905   1.408
 1059SOL    HW2 3194   1.591   3.884   1.569
 1060SOL     OW 3195   0.122   4.367   0.563
 1060SOL    HW1 3196   0.077   4.279   0.580
 1060SOL    HW2 3197   0.121   4.421   0.647
 1061SOL     OW 3198   0.113   4.461   1.597
 1061SOL    HW1 3199   0.201   4.448   1.642
 1061SOL    HW2 3200   0.100   4.558   1.575
 1062SOL     OW 3201   0.809   3.728   0.502
 1062SOL    HW1 3202   0.849   3.819   0.493
 1062SOL    HW2 3203   0.709   3.736   0.508
 1063SOL     OW 3204   0.317   3.975   1.801
 1063SOL    HW1 3205   0.388   4.046   1.807
 1063SOL    HW2 3206   0.229   4.014   1.829
 1064SOL     OW 3207   0.598   4.453   0.270
 1064SOL    HW1 3208   0.622   4.522   0.202
 1064SOL    HW2 3209   0.520   4.486   0.324
 1065SOL     OW 3210   1.281   4.069   0.944
 1065SOL    HW1 3211   1.195   4.019   0.931
 1065SOL    HW2 3212   1.343   4.015   1.000
 1066SOL     OW 3213   0.807   4.329   1.465
 1066SOL    HW1 3214   0.760   4.326   1.554
 1066SOL    HW2 3215   0.756   4.274   1.399
 1067SOL     OW 3216   1.394   4.193   1.674
 1067SOL    HW1 3217   1.374   4.236   1.762
 1067SOL    HW2 3218   1.472   4.131   1.683
 1068SOL     OW 3219   0.991   4.134   1.242
 1068SOL    HW1 3220   0.914   4.168   1.296
 1068SOL    HW2 3221   0.957   4.083   1.163
 1069SOL     OW 3222   1.041   4.425   0.429
 1069SOL    HW1 3223   1.067   4.421   0.525
 1069SOL    HW2 3224   0.956   4.374   0.415
 1070SOL     OW 3225   0.076   4.535   0.789
 1070SOL    HW1 3226   0.175   4.523   0.798
 1070SOL    HW2 3227   0.052   4.630   0.810
 1071SOL     OW 3228   0.865   4.072   0.195
 1071SOL    HW1 3229   0.924   4.135   0.146
 1071SOL    HW2 3230   0.884   3.978   0.166
 1072SOL     OW 3231   1.719   4.309   1.831
 1072SOL    HW1 3232   1.693   4.398   1.795
 1072SOL    HW2 3233   1.717   4.241   1.758
 1073SOL     OW 3234   0.550   3.920   0.885
 1073SOL    HW1 3235   0.545   3.915   0.985
 1073SOL    HW2 3236   0.552   4.016   0.856
 1074SOL     OW 3237   1.458   4.459   0.728
 1074SOL    HW1 3238   1.453   4.394   0.803
 1074SOL    HW2 3239   1.538   4.518   0.741
 1075SOL     OW 3240   0.202   4.009   1.498
 1075SOL    HW1 3241   0.122   4.069   1.485
 1075SOL    HW2 3242   0.192   3.960   1.584
 1076SOL     OW 3243   1.400   3.831   0.426
 1076SOL    HW1 3244   1.376   3.794   0.336
 1076SOL    HW2 3245   1.499   3.847   0.430
 1077SOL     OW 3246   0.382   4.424   0.480
 1077SOL    HW1 3247   0.427   4.334   0.477
 1077SOL    HW2 3248   0.288   4.413   0.513
 1078SOL     OW 3249   1.547   3.946   1.729
 1078SOL    HW1 3250   1.542   3.983   1.821
 1078SOL    HW2 3251   1.475   3.877   1.717
 1079SOL     OW 3252   0.781   3.988   1.749
 1079SOL    HW1 3253   0.848   3.927   1.792
 1079SOL    HW2 3254   0.708   4.007   1.814
 1080SOL     OW 3255   1.351   4.314   1.433
 1080SOL    HW1 3256   1.379   4.271   1.518
 1080SOL    HW2 3257   1.376   4.410   1.434
 1081SOL     OW 3258   0.922   4.227   0.899
 1081SOL    HW1 3259   0.897   4.218   0.803
 1081SOL    HW2 3260   0.970   4.145   0.930
 1082SOL     OW 3261   0.539   3.788   0.512
 1082SOL    HW1 3262   0.458   3.789   0.570
 1082SOL    HW2 3263   0.542   3.871   0.457
 1083SOL     OW 3264   0.297   3.759   0.171
 1083SOL    HW1 3265   0.346   3.843   0.150
 1083SOL    HW2 3266   0.359   3.694   0.216
 1084SOL     OW 3267   0.935   3.960   0.480
 1084SOL    HW1 3268   0.887   4.001   0.402
 1084SOL    HW2 3269   1.034   3.958   0.461
 1085SOL     OW 3270   1.076   4.407   1.464
 1085SOL    HW1 3271   0.996   4.346   1.467
 1085SOL    HW2 3272   1.157   4.354   1.440
 1086SOL     OW 3273   0.459   4.876   0.741
 1086SOL    HW1 3274   0.388   4.849   0.806
 1086SOL    HW2 3275   0.433   4.848   0.648
 1087SOL     OW 3276   1.032   4.273   0.016
 1087SOL    HW1 3277   0.991   4.355  -0.023
 1087SOL    HW2 3278   1.096   4.299   0.089
 1088SOL     OW 3279   0.078   4.280   1.386
 1088SOL    HW1 3280   0.170   4.279   1.345
 1088SOL    HW2 3281   0.072   4.354   1.453
 1089SOL     OW 3282   0.561   3.946   1.147
 1089SOL    HW1 3283   0.599   3.862   1.184
 1089SOL    HW2 3284   0.473   3.965   1.191
 1090SOL     OW 3285   0.866   4.178   0.642
 1090SOL    HW1 3286   0.834   4.250   0.580
 1090SOL    HW2 3287   0.890   4.097   0.589
 1091SOL     OW 3288   1.017   3.763   0.753
 1091SOL    HW1 3289   0.945   3.768   0.684
 1091SOL    HW2 3290   0.993   3.694   0.822
 1092SOL     OW 3291   1.466   4.314   0.992
 1092SOL    HW1 3292   1.436   4.219   0.999
 1092SOL    HW2 3293   1.539   4.330   1.058
 1093SOL     OW 3294   1.857   4.557   0.377
 1093SOL    HW1 3295   1.899   4.493   0.441
 1093SOL    HW2 3296   1.819   4.506   0.299
 1094SOL     OW 3297   1.390   4.299   0.078
 1094SOL    HW1 3298   1.336   4.278   0.159
 1094SOL    HW2 3299   1.481   4.258   0.087
 1095SOL     OW 3300   0.527   3.980   0.328
 1095SOL    HW1 3301   0.554   3.921   0.253
 1095SOL    HW2 3302   0.527   4.075   0.297
 1096SOL     OW 3303   0.915   3.813   1.402
 1096SOL    HW1 3304   0.940   3.793   1.307
 1096SOL    HW2 3305   0.987   3.869   1.444
 1097SOL     OW 3306   0.410   4.537   1.251
 1097SOL    HW1 3307   0.496   4.549   1.301
 1097SOL    HW2 3308   0.368   4.450   1.278
 1098SOL     OW 3309   1.274   4.110   1.262
 1098SOL    HW1 3310   1.295   4.184   1.326
 1098SOL    HW2 3311   1.185   4.127   1.219
 1099SOL     OW 3312   0.566   4.261   0.865
 1099SOL    HW1 3313   0.578   4.327   0.791
 1099SOL    HW2 3314   0.612   4.295   0.948
 1100SOL     OW 3315   1.582   4.363   0.472
 1100SOL    HW1 3316   1.551   4.424   0.545
 1100SOL    HW2 3317   1.632   4.415   0.403
 1101SOL     OW 3318   0.402   4.475   1.598
 1101SOL    HW1 3319   0.470   4.530   1.551
 1101SOL    HW2 3320   0.442   4.387   1.625
 1102SOL     OW 3321   1.587   4.503   1.670
 1102SOL    HW1 3322   1.495   4.541   1.665
 1102SOL    HW2 3323   1.647   4.550   1.605
 1103SOL     OW 3324   1.013   3.829   1.770
 1103SOL    HW1 3325   1.019   3.914   1.718
 1103SOL    HW2 3326   1.045   3.753   1.713
 1104SOL     OW 3327   0.504   3.774   1.740
 1104SOL    HW1 3328   0.462   3.717   1.670
 1104SOL    HW2 3329   0.438   3.843   1.772
 1105SOL     OW 3330   0.573   4.594   1.029
 1105SOL    HW1 3331   0.617   4.683   1.020
 1105SOL    HW2 3332   0.510   4.594   1.106
 1106SOL     OW 3333   1.360   4.586   1.045
 1106SOL    HW1 3334   1.285   4.586   0.979
 1106SOL    HW2 3335   1.397   4.494   1.054
 1107SOL     OW 3336   1.209   4.249   0.275
 1107SOL    HW1 3337   1.222   4.165   0.329
 1107SOL    HW2 3338   1.180   4.323   0.335
 1108SOL     OW 3339   0.307   3.937   1.231
 1108SOL    HW1 3340   0.284   3.974   1.321
 1108SOL    HW2 3341   0.277   3.842   1.225
 1109SOL     OW 3342   0.732   4.358   1.064
 1109SOL    HW1 3343   0.791   4.332   0.988
 1109SOL    HW2 3344   0.704   4.454   1.053
 1110SOL     OW 3345   1.728   4.659   1.854
 1110SOL    HW1 3346   1.682   4.652   1.765
 1110SOL    HW2 3347   1.666   4.703   1.920
 1111SOL     OW 3348   0.307   3.787   0.618
 1111SOL    HW1 3349   0.296   3.881   0.651
 1111SOL    HW2 3350   0.302   3.724   0.695
 1112SOL     OW 3351   1.622   4.091   0.374
 1112SOL    HW1 3352   1.624   4.015   0.438
 1112SOL    HW2 3353   1.574   4.168   0.414
 1113SOL     OW 3354   1.023   4.490   0.966
 1113SOL    HW1 3355   1.038   4.511   1.062
 1113SOL    HW2 3356   0.993   4.395   0.957
 1114SOL     OW 3357   1.540   3.998   0.125
 1114SOL    HW1 3358   1.479   3.923   0.148
 1114SOL    HW2 3359   1.562   4.050   0.208
 1115SOL     OW 3360   0.319   4.534   0.949
 1115SOL    HW1 3361   0.412   4.570   0.954
 1115SOL    HW2 3362   0.313   4.449   1.001
 1116SOL     OW 3363   0.339   4.233   1.006
 1116SOL    HW1 3364   0.287   4.150   0.989
 1116SOL    HW2 3365   0.416   4.238   0.942
 1117SOL     OW 3366   1.138   4.104   1.678
 1117SOL    HW1 3367   1.093   4.167   1.742
 1117SOL    HW2 3368   1.231   4.135   1.661
 1118SOL     OW 3369   1.160   3.931   1.477
 1118SOL    HW1 3370   1.160   3.995   1.554
 1118SOL    HW2 3371   1.188   3.979   1.394
 1119SOL     OW 3372   1.002   4.520   1.238
 1119SOL    HW1 3373   1.043   4.488   1.324
 1119SOL    HW2 3374   0.906   4.493   1.235
 1120SOL     OW 3375   0.040   4.268   1.114
 1120SOL    HW1 3376   0.125   4.235   1.073
 1120SOL    HW2 3377   0.053   4.283   1.212
 1121SOL     OW 3378   0.189   4.244   1.722
 1121SOL    HW1 3379   0.248   4.204   1.652
 1121SOL    HW2 3380   0.131   4.315   1.681
 1122SOL     OW 3381   0.815   4.296   0.325
 1122SOL    HW1 3382   0.822   4.207   0.279
 1122SOL    HW2 3383   0.721   4.330   0.317
 1123SOL     OW 3384   1.657   4.328   1.206
 1123SOL    HW1 3385   1.619   4.259   1.268
 1123SOL    HW2 3386   1.739   4.292   1.162
 1124SOL     OW 3387   0.671   4.188   1.269
 1124SOL    HW1 3388   0.637   4.099   1.239
 1124SOL    HW2 3389   0.697   4.242   1.189
 1125SOL     OW 3390   0.473   4.224   0.191
 1125SOL    HW1 3391   0.534   4.304   0.195
 1125SOL    HW2 3392   0.378   4.255   0.198
 1126SOL     OW 3393   0.903   3.810   0.133
 1126SOL    HW1 3394   0.954   3.811   0.047
 1126SOL    HW2 3395   0.959   3.768   0.204
 1127SOL     OW 3396   1.726   3.859   0.523
 1127SOL    HW1 3397   1.799   3.842   0.456
 1127SOL    HW2 3398   1.695   3.772   0.561
 1128SOL     OW 3399   1.280   4.651   0.672
 1128SOL    HW1 3400   1.340   4.570   0.674
 1128SOL    HW2 3401   1.320   4.720   0.612
 1129SOL     OW 3402   1.841   3.899   0.963
 1129SOL    HW1 3403   1.880   3.814   0.927
 1129SOL    HW2 3404   1.743   3.901   0.944
 1130SOL     OW 3405   0.263   4.050   0.720
 1130SOL    HW1 3406   0.184   4.101   0.686
 1130SOL    HW2 3407   0.254   4.035   0.818
 1131SOL     OW 3408   1.014   3.960   0.971
 1131SOL    HW1 3409   1.006   3.924   0.878
 1131SOL    HW2 3410   1.012   3.884   1.036
 1132SOL     OW 3411   1.709   4.109   1.381
 1132SOL    HW1 3412   1.782   4.178   1.385
 1132SOL    HW2 3413   1.737   4.034   1.322
 1133SOL     OW 3414   0.105   4.737   1.726
 1133SOL    HW1 3415   0.028   4.704   1.780
 1133SOL    HW2 3416   0.190   4.707   1.768
 1134SOL     OW 3417   0.672   3.927   1.489
 1134SOL    HW1 3418   0.762   3.911   1.449
 1134SOL    HW2 3419   0.680   3.932   1.588
 1135SOL     OW 3420   0.075   4.069   0.033
 1135SOL    HW1 3421  -0.017   4.041   0.004
 1135SOL    HW2 3422   0.106   4.146  -0.023
 1136SOL     OW 3423   1.440   4.580   1.398
 1136SOL    HW1 3424   1.383   4.632   1.335
 1136SOL    HW2 3425   1.536   4.592   1.374
 1137SOL     OW 3426   0.072   3.890   0.318
 1137SOL    HW1 3427   0.055   3.973   0.264
 1137SOL    HW2 3428   0.162   3.853   0.296
 1138SOL     OW 3429   0.613   4.566   1.431
 1138SOL    HW1 3430   0.669   4.647   1.414
 1138SOL    HW2 3431   0.672   4.486   1.434
 1139SOL     OW 3432   0.716   4.289   1.708
 1139SOL    HW1 3433   0.735   4.354   1.782
 1139SOL    HW2 3434   0.776   4.209   1.717
 1140SOL     OW 3435   1.674   4.607   1.254
 1140SOL    HW1 3436   1.647   4.518   1.217
 1140SOL    HW2 3437   1.675   4.675   1.181
 1141SOL     OW 3438   1.225   4.049   0.449
 1141SOL    HW1 3439   1.290   3.975   0.438
 1141SOL    HW2 3440   1.245   4.099   0.533
 1142SOL     OW 3441   0.594   4.469   0.652
 1142SOL    HW1 3442   0.644   4.554   0.633
 1142SOL    HW2 3443   0.506   4.471   0.604
 1143SOL     OW 3444   1.777   4.066   1.642
 1143SOL    HW1 3445   1.760   4.097   1.548
 1143SOL    HW2 3446   1.693   4.029   1.680
 1144SOL     OW 3447   1.824   3.916   1.227
 1144SOL    HW1 3448   1.820   3.826   1.271
 1144SOL    HW2 3449   1.827   3.905   1.128
 1145SOL     OW 3450   0.428   4.148   0.520
 1145SOL    HW1 3451   0.458   4.076   0.458
 1145SOL    HW2 3452   0.389   4.108   0.603
 1146SOL     OW 3453   0.317   4.271   1.280
 1146SOL    HW1 3454   0.355   4.212   1.352
 1146SOL    HW2 3455   0.357   4.245   1.192
 1147SOL     OW 3456   1.424   3.938   1.112
 1147SOL    HW1 3457   1.476   3.873   1.167
 1147SOL    HW2 3458   1.375   4.001   1.173
 1148SOL     OW 3459   1.001   3.758   1.154
 1148SOL    HW1 3460   0.938   3.686   1.123
 1148SOL    HW2 3461   1.094   3.722   1.154
 1149SOL     OW 3462   1.352   3.776   0.168
 1149SOL    HW1 3463   1.387   3.735   0.084
 1149SOL    HW2 3464   1.262   3.738   0.188
 1150SOL     OW 3465   1.300   4.177   0.691
 1150SOL    HW1 3466   1.241   4.257   0.695
 1150SOL    HW2 3467   1.315   4.142   0.784
 1151SOL     OW 3468   1.593   3.945   0.882
 1151SOL    HW1 3469   1.509   3.944   0.936
 1151SOL    HW2 3470   1.595   4.028   0.826
 1152SOL     OW 3471   0.230   4.352   1.975
 1152SOL    HW1 3472   0.137   4.350   2.012
 1152SOL    HW2 3473   0.231   4.313   1.883
 1153SOL     OW 3474   0.225   3.999   2.858
 1153SOL    HW1 3475   0.260   3.982   2.950
 1153SOL    HW2 3476   0.137   3.954   2.846
 1154SOL     OW 3477   0.019   4.092   2.509
 1154SOL    HW1 3478  -0.063   4.135   2.548
 1154SOL    HW2 3479  -0.009   4.019   2.446
 1155SOL     OW 3480   1.135   4.427   2.579
 1155SOL    HW1 3481   1.192   4.505   2.554
 1155SOL    HW2 3482   1.075   4.453   2.655
 1156SOL     OW 3483   1.755   4.331   2.093
 1156SOL    HW1 3484   1.743   4.318   1.994
 1156SOL    HW2 3485   1.725   4.250   2.142
 1157SOL     OW 3486   0.850   4.522   3.685
 1157SOL    HW1 3487   0.846   4.598   3.750
 1157SOL    HW2 3488   0.872   4.558   3.594
 1158SOL     OW 3489   0.685   4.736   2.527
 1158SOL    HW1 3490   0.754   4.720   2.597
 1158SOL    HW2 3491   0.612   4.793   2.565
 1159SOL     OW 3492   0.438   4.116   3.361
 1159SOL    HW1 3493   0.520   4.060   3.370
 1159SOL    HW2 3494   0.357   4.058   3.365
 1160SOL     OW 3495   1.603   4.171   2.599
 1160SOL    HW1 3496   1.529   4.217   2.549
 1160SOL    HW2 3497   1.654   4.239   2.652
 1161SOL     OW 3498   1.594   3.838   3.342
 1161SOL    HW1 3499   1.576   3.905   3.270
 1161SOL    HW2 3500   1.591   3.884   3.431
 1162SOL     OW 3501   0.122   4.367   2.425
 1162SOL    HW1 3502   0.077   4.279   2.442
 1162SOL    HW2 3503   0.121   4.421   2.509
 1163SOL     OW 3504   0.113   4.461   3.459
 1163SOL    HW1 3505   0.201   4.448   3.504
 1163SOL    HW2 3506   0.100   4.558   3.437
 1164SOL     OW 3507   0.809   3.728   2.364
 1164SOL    HW1 3508   0.849   3.819   2.355
 1164SOL    HW2 3509   0.709   3.736   2.370
 1165SOL     OW 3510   0.317   3.975   3.663
 1165SOL    HW1 3511   0.388   4.046   3.669
 1165SOL    HW2 3512   0.229   4.014   3.691
 1166SOL     OW 3513   0.598   4.453   2.132
 1166SOL    HW1 3514   0.622   4.522   2.064
 1166SOL    HW2 3515   0.520   4.486   2.186
 1167SOL     OW 3516   1.281   4.069   2.806
 1167SOL    HW1 3517   1.195   4.019   2.793
 1167SOL    HW2 3518   1.343   4.015   2.862
 1168SOL     OW 3519   0.807   4.329   3.327
 1168SOL    HW1 3520   0.760   4.326   3.416
 1168SOL    HW2 3521   0.756   4.274   3.261
 1169SOL     OW 3522   1.394   4.193   3.536
 1169SOL    HW1 3523   1.374   4.236   3.624
 1169SOL    HW2 3524   1.472   4.131   3.545
 1170SOL     OW 3525   0.991   4.134   3.104
 1170SOL    HW1 3526   0.914   4.168   3.158
 1170SOL    HW2 3527   0.957   4.083   3.025
 1171SOL     OW 3528   1.041   4.425   2.291
 1171SOL    HW1 3529   1.067   4.421   2.387
 1171SOL    HW2 3530   0.956   4.374   2.277
 1172SOL     OW 3531   0.076   4.535   2.651
 1172SOL    HW1 3532   0.175   4.523   2.660
 1172SOL    HW2 3533   0.052   4.630   2.672
 1173SOL     OW 3534   0.865   4.072   2.057
 1173SOL    HW1 3535   0.924   4.135   2.008
 1173SOL    HW2 3536   0.884   3.978   2.028
 1174SOL     OW 3537   1.719   4.309   3.693
 1174SOL    HW1 3538   1.693   4.398   3.657
 1174SOL    HW2 3539   1.717   4.241   3.620
 1175SOL     OW 3540   0.550   3.920   2.747
 1175SOL    HW1 3541   0.545   3.915   2.847
 1175SOL    HW2 3542   0.552   4.016   2.718
 1176SOL     OW 3543   1.458   4.459   2.590
 1176SOL    HW1 3544   1.453   4.394   2.665
 1176SOL    HW2 3545   1.538   4.518   2.603
 1177SOL     OW 3546   0.202   4.009   3.360
 1177SOL    HW1 3547   0.122   4.069   3.347
 1177SOL    HW2 3548   0.192   3.960   3.446
 1178SOL     OW 3549   1.400   3.831   2.288
 1178SOL    HW1 3550   1.376   3.794   2.198
 1178SOL    HW2 3551   1.499   3.847   2.292
 1179SOL     OW 3552   0.382   4.424   2.342
 1179SOL    HW1 3553   0.427   4.334   2.339
 1179SOL    HW2 3554   0.288   4.413   2.375
 1180SOL     OW 3555   1.547   3.946   3.591
 1180SOL    HW1 3556   1.542   3.983   3.683
 1180SOL    HW2 3557   1.475   3.877   3.579
 1181SOL     OW 3558   0.614   3.846   1.979
 1181SOL    HW1 3559   0.712   3.824   1.986
 1181SOL    HW2 3560   0.583   3.829   1.886
 1182SOL     OW 3561   0.781   3.988   3.611
 1182SOL    HW1 3562   0.848   3.927   3.654
 1182SOL    HW2 3563   0.708   4.007   3.676
 1183SOL     OW 3564   1.351   4.314   3.295
 1183SOL    HW1 3565   1.379   4.271   3.380
 1183SOL    HW2 3566   1.376   4.410   3.296
 1184SOL     OW 3567   0.922   4.227   2.761
 1184SOL    HW1 3568   0.897   4.218   2.665
 1184SOL    HW2 3569   0.970   4.145   2.792
 1185SOL     OW 3570   0.539   3.788   2.374
 1185SOL    HW1 3571   0.458   3.789   2.432
 1185SOL    HW2 3572   0.542   3.871   2.319
 1186SOL     OW 3573   0.297   3.759   2.033
 1186SOL    HW1 3574   0.346   3.843   2.012
 1186SOL    HW2 3575   0.359   3.694   2.078
 1187SOL     OW 3576   0.935   3.960   2.342
 1187SOL    HW1 3577   0.887   4.001   2.264
 1187SOL    HW2 3578   1.034   3.958   2.323
 1188SOL     OW 3579   1.076   4.407   3.326
 1188SOL    HW1 3580   0.996   4.346   3.329
 1188SOL    HW2 3581   1.157   4.354   3.302
 1189SOL     OW 3582   0.459   4.876   2.603
 1189SOL    HW1 3583   0.388   4.849   2.668
 1189SOL    HW2 3584   0.433   4.848   2.510
 1190SOL     OW 3585   1.032   4.273   1.878
 1190SOL    HW1 3586   0.991   4.355   1.839
 1190SOL    HW2 3587   1.096   4.299   1.951
 1191SOL     OW 3588   0.078   4.280   3.248
 1191SOL    HW1 3589   0.170   4.279   3.207
 1191SOL    HW2 3590   0.072   4.354   3.315
 1192SOL     OW 3591   0.561   3.946   3.009
 1192SOL    HW1 3592   0.599   3.862   3.046
 1192SOL    HW2 3593   0.473   3.965   3.053
 1193SOL     OW 3594   0.866   4.178   2.504
 1193SOL    HW1 3595   0.834   4.250   2.442
 1193SOL    HW2 3596   0.890   4.097   2.451
 1194SOL     OW 3597   1.017   3.763   2.615
 1194SOL    HW1 3598   0.945   3.768   2.546
 1194SOL    HW2 3599   0.993   3.694   2.684
 1195SOL     OW 3600   1.466   4.314   2.854
 1195SOL    HW1 3601   1.436   4.219   2.861
 1195SOL    HW2 3602   1.539   4.330   2.920
 1196SOL     OW 3603   1.857   4.557   2.239
 1196SOL    HW1 3604   1.899   4.493   2.303
 1196SOL    HW2 3605   1.819   4.506   2.161
 1197SOL     OW 3606   1.390   4.299   1.940
 1197SOL    HW1 3607   1.336   4.278   2.021
 1197SOL    HW2 3608   1.481   4.258   1.949
 1198SOL     OW 3609   0.527   3.980   2.190
 1198SOL    HW1 3610   0.554   3.921   2.115
 1198SOL    HW2 3611   0.527   4.075   2.159
 1199SOL     OW 3612   0.915   3.813   3.264
 1199SOL    HW1 3613   0.940   3.793   3.169
 1199SOL    HW2 3614   0.987   3.869   3.306
 1200SOL     OW 3615   0.410   4.537   3.113
 1200SOL    HW1 3616   0.496   4.549   3.163
 1200SOL    HW2 3617   0.368   4.450   3.140
 1201SOL     OW 3618   1.274   4.110   3.124
 1201SOL    HW1 3619   1.295   4.184   3.188
 1201SOL    HW2 3620   1.185   4.127   3.081
 1202SOL     OW 3621   0.566   4.261   2.727
 1202SOL    HW1 3622   0.578   4.327   2.653
 1202SOL    HW2 3623   0.612   4.295   2.810
 1203SOL     OW 3624   1.582   4.363   2.334
 1203SOL    HW1 3625   1.551   4.424   2.407
 1203SOL    HW2 3626   1.632   4.415   2.265
 1204SOL     OW 3627   0.402   4.475   3.460
 1204SOL    HW1 3628   0.470   4.530   3.413
 1204SOL    HW2 3629   0.442   4.387   3.487
 1205SOL     OW 3630   1.587   4.503   3.532
 1205SOL    HW1 3631   1.495   4.541   3.527
 1205SOL    HW2 3632   1.647   4.550   3.467
 1206SOL     OW 3633   1.013   3.829   3.632
 1206SOL    HW1 3634   1.019   3.914   3.580
 1206SOL    HW2 3635   1.045   3.753   3.575
 1207SOL     OW 3636   0.504   3.774   3.602
 1207SOL    HW1 3637   0.462   3.717   3.532
 1207SOL    HW2 3638   0.438   3.843   3.634
 1208SOL     OW 3639   0.573   4.594   2.891
 1208SOL    HW1 3640   0.617   4.683   2.882
 1208SOL    HW2 3641   0.510   4.594   2.968
 1209SOL     OW 3642   1.360   4.586   2.907
 1209SOL    HW1 3643   1.285   4.586   2.841
 1209SOL    HW2 3644   1.397   4.494   2.916
 1210SOL     OW 3645   1.209   4.249   2.137
 1210SOL    HW1 3646   1.222   4.165   2.191
 1210SOL    HW2 3647   1.180   4.323   2.197
 1211SOL     OW 3648   0.307   3.937   3.093
 1211SOL    HW1 3649   0.284   3.974   3.183
 1211SOL    HW2 3650   0.277   3.842   3.087
 1212SOL     OW 3651   0.732   4.358   2.926
 1212SOL    HW1 3652   0.791   4.332   2.850
 1212SOL    HW2 3653   0.704   4.454   2.915
 1213SOL     OW 3654   1.728   4.659   3.716
 1213SOL    HW1 3655   1.682   4.652   3.627
 1213SOL    HW2 3656   1.666   4.703   3.782
 1214SOL     OW 3657   0.307   3.787   2.480
 1214SOL    HW1 3658   0.296   3.881   2.513
 1214SOL    HW2 3659   0.302   3.724   2.557
 1215SOL     OW 3660   1.622   4.091   2.236
 1215SOL    HW1 3661   1.624   4.015   2.300
 1215SOL    HW2 3662   1.574   4.168   2.276
 1216SOL     OW 3663   1.023   4.490   2.828
 1216SOL    HW1 3664   1.038   4.511   2.924
 1216SOL    HW2 3665   0.993   4.395   2.819
 1217SOL     OW 3666   1.540   3.998   1.987
 1217SOL    HW1 3667   1.479   3.923   2.010
 1217SOL    HW2 3668   1.562   4.050   2.070
 1218SOL     OW 3669   0.319   4.534   2.811
 1218SOL    HW1 3670   0.412   4.570   2.816
 1218SOL    HW2 3671   0.313   4.449   2.863
 1219SOL     OW 3672   0.339   4.233   2.868
 1219SOL    HW1 3673   0.287   4.150   2.851
 1219SOL    HW2 3674   0.416   4.238   2.804
 1220SOL     OW 3675   1.138   4.104   3.540
 1220SOL    HW1 3676   1.093   4.167   3.604
 1220SOL    HW2 3677   1.231   4.135   3.523
 1221SOL     OW 3678   1.160   3.931   3.339
 1221SOL    HW1 3679   1.160   3.995   3.416
 1221SOL    HW2 3680   1.188   3.979   3.256
 1222SOL     OW 3681   1.002   4.520   3.100
 1222SOL    HW1 3682   1.043   4.488   3.186
 1222SOL    HW2 3683   0.906   4.493   3.097
 1223SOL     OW 3684   0.040   4.268   2.976
 1223SOL    HW1 3685   0.125   4.235   2.935
 1223SOL    HW2 3686   0.053   4.283   3.074
 1224SOL     OW 3687   0.189   4.244   3.584
 1224SOL    HW1 3688   0.248   4.204   3.514
 1224SOL    HW2 3689   0.131   4.315   3.543
 1225SOL     OW 3690   0.815   4.296   2.187
 1225SOL    HW1 3691   0.822   4.207   2.141
 1225SOL    HW2 3692   0.721   4.330   2.179
 1226SOL     OW 3693   1.657   4.328   3.068
 1226SOL    HW1 3694   1.619   4.259   3.130
 1226SOL    HW2 3695   1.739   4.292   3.024
 1227SOL     OW 3696   0.671   4.188   3.131
 1227SOL    HW1 3697   0.637   4.099   3.101
 1227SOL    HW2 3698   0.697   4.242   3.051
 1228SOL     OW 3699   0.473   4.224   2.053
 1228SOL    HW1 3700   0.534   4.304   2.057
 1228SOL    HW2 3701   0.378   4.255   2.060
 1229SOL     OW 3702   1.726   3.859   2.385
 1229SOL    HW1 3703   1.799   3.842   2.318
 1229SOL    HW2 3704   1.695   3.772   2.423
 1230SOL     OW 3705   1.280   4.651   2.534
 1230SOL    HW1 3706   1.340   4.570   2.536
 1230SOL    HW2 3707   1.320   4.720   2.474
 1231SOL     OW 3708   1.841   3.899   2.825
 1231SOL    HW1 3709   1.880   3.814   2.789
 1231SOL    HW2 3710   1.743   3.901   2.806
 1232SOL     OW 3711   0.263   4.050   2.582
 1232SOL    HW1 3712   0.184   4.101   2.548
 1232SOL    HW2 3713   0.254   4.035   2.680
 1233SOL     OW 3714   0.916   4.634   2.153
 1233SOL    HW1 3715   0.979   4.672   2.085
 1233SOL    HW2 3716   0.956   4.551   2.192
 1234SOL     OW 3717   1.014   3.960   2.833
 1234SOL    HW1 3718   1.006   3.924   2.740
 1234SOL    HW2 3719   1.012   3.884   2.898
 1235SOL     OW 3720   1.709   4.109   3.243
 1235SOL    HW1 3721   1.782   4.178   3.247
 1235SOL    HW2 3722   1.737   4.034   3.184
 1236SOL     OW 3723   0.105   4.737   3.588
 1236SOL    HW1 3724   0.028   4.704   3.642
 1236SOL    HW2 3725   0.190   4.707   3.630
 1237SOL     OW 3726   0.672   3.927   3.351
 1237SOL    HW1 3727   0.762   3.911   3.311
 1237SOL    HW2 3728   0.680   3.932   3.450
 1238SOL     OW 3729   0.075   4.069   1.895
 1238SOL    HW1 3730  -0.017   4.041   1.866
 1238SOL    HW2 3731   0.106   4.146   1.839
 1239SOL     OW 3732   1.440   4.580   3.260
 1239SOL    HW1 3733   1.383   4.632   3.197
 1239SOL    HW2 3734   1.536   4.592   3.236
 1240SOL     OW 3735   0.072   3.890   2.180
 1240SOL    HW1 3736   0.055   3.973   2.126
 1240SOL    HW2 3737   0.162   3.853   2.158
 1241SOL     OW 3738   0.613   4.566   3.293
 1241SOL    HW1 3739   0.669   4.647   3.276
 1241SOL    HW2 3740   0.672   4.486   3.296
 1242SOL     OW 3741   0.716   4.289   3.570
 1242SOL    HW1 3742   0.735   4.354   3.644
 1242SOL    HW2 3743   0.776   4.209   3.579
 1243SOL     OW 3744   1.674   4.607   3.116
 1243SOL    HW1 3745   1.647   4.518   3.079
 1243SOL    HW2 3746   1.675   4.675   3.043
 1244SOL     OW 3747   1.225   4.049   2.311
 1244SOL    HW1 3748   1.290   3.975   2.300
 1244SOL    HW2 3749   1.245   4.099   2.395
 1245SOL     OW 3750   0.594   4.469   2.514
 1245SOL    HW1 3751   0.644   4.554   2.495
 1245SOL    HW2 3752   0.506   4.471   2.466
 1246SOL     OW 3753   1.777   4.066   3.504
 1246SOL    HW1 3754   1.760   4.097   3.410
 1246SOL    HW2 3755   1.693   4.029   3.542
 1247SOL     OW 3756   1.824   3.916   3.089
 1247SOL    HW1 3757   1.820   3.826   3.133
 1247SOL    HW2 3758   1.827   3.905   2.990
 1248SOL     OW 3759   0.428   4.148   2.382
 1248SOL    HW1 3760   0.458   4.076   2.320
 1248SOL    HW2 3761   0.389   4.108   2.465
 1249SOL     OW 3762   0.317   4.271   3.142
 1249SOL    HW1 3763   0.355   4.212   3.214
 1249SOL    HW2 3764   0.357   4.245   3.054
 1250SOL     OW 3765   1.424   3.938   2.974
 1250SOL    HW1 3766   1.476   3.873   3.029
 1250SOL    HW2 3767   1.375   4.001   3.035
 1251SOL     OW 3768   1.001   3.758   3.016
 1251SOL    HW1 3769   0.938   3.686   2.985
 1251SOL    HW2 3770   1.094   3.722   3.016
 1252SOL     OW 3771   1.352   3.776   2.030
 1252SOL    HW1 3772   1.387   3.735   1.946
 1252SOL    HW2 3773   1.262   3.738   2.050
 1253SOL     OW 3774   1.300   4.177   2.553
 1253SOL    HW1 3775   1.241   4.257   2.557
 1253SOL    HW2 3776   1.315   4.142   2.646
 1254SOL     OW 3777   1.593   3.945   2.744
 1254SOL    HW1 3778   1.509   3.944   2.798
 1254SOL    HW2 3779   1.595   4.028   2.688
 1255SOL     OW 3780   0.230   4.352   3.837
 1255SOL    HW1 3781   0.137   4.350   3.874
 1255SOL    HW2 3782   0.231   4.313   3.745
 1256SOL     OW 3783   0.019   4.092   4.371
 1256SOL    HW1 3784  -0.063   4.135   4.410
 1256SOL    HW2 3785  -0.009   4.019   4.308
 1257SOL     OW 3786   1.135   4.427   4.441
 1257SOL    HW1 3787   1.192   4.505   4.416
 1257SOL    HW2 3788   1.075   4.453   4.517
 1258SOL     OW 3789   1.755   4.331   3.955
 1258SOL    HW1 3790   1.743   4.318   3.856
 1258SOL    HW2 3791   1.725   4.250   4.004
 1259SOL     OW 3792   0.685   4.736   4.389
 1259SOL    HW1 3793   0.754   4.720   4.459
 1259SOL    HW2 3794   0.612   4.793   4.427
 1260SOL     OW 3795   1.603   4.171   4.461
 1260SOL    HW1 3796   1.529   4.217   4.411
 1260SOL    HW2 3797   1.654   4.239   4.514
 1261SOL     OW 3798   0.240   4.815   4.610
 1261SOL    HW1 3799   0.254   4.731   4.662
 1261SOL    HW2 3800   0.185   4.879   4.665
 1262SOL     OW 3801   0.122   4.367   4.287
 1262SOL    HW1 3802   0.077   4.279   4.304
 1262SOL    HW2 3803   0.121   4.421   4.371
 1263SOL     OW 3804   0.809   3.728   4.226
 1263SOL    HW1 3805   0.849   3.819   4.217
 1263SOL    HW2 3806   0.709   3.736   4.232
 1264SOL     OW 3807   0.598   4.453   3.994
 1264SOL    HW1 3808   0.622   4.522   3.926
 1264SOL    HW2 3809   0.520   4.486   4.048
 1265SOL     OW 3810   1.281   4.069   4.668
 1265SOL    HW1 3811   1.195   4.019   4.655
 1265SOL    HW2 3812   1.343   4.015   4.724
 1266SOL     OW 3813   1.041   4.425   4.153
 1266SOL    HW1 3814   1.067   4.421   4.249
 1266SOL    HW2 3815   0.956   4.374   4.139
 1267SOL     OW 3816   0.076   4.535   4.513
 1267SOL    HW1 3817   0.175   4.523   4.522
 1267SOL    HW2 3818   0.052   4.630   4.534
 1268SOL     OW 3819   0.865   4.072   3.919
 1268SOL    HW1 3820   0.924   4.135   3.870
 1268SOL    HW2 3821   0.884   3.978   3.890
 1269SOL     OW 3822   0.550   3.920   4.609
 1269SOL    HW1 3823   0.545   3.915   4.709
 1269SOL    HW2 3824   0.552   4.016   4.580
 1270SOL     OW 3825   1.458   4.459   4.452
 1270SOL    HW1 3826   1.453   4.394   4.527
 1270SOL    HW2 3827   1.538   4.518   4.465
 1271SOL     OW 3828   1.400   3.831   4.150
 1271SOL    HW1 3829   1.376   3.794   4.060
 1271SOL    HW2 3830   1.499   3.847   4.154
 1272SOL     OW 3831   0.382   4.424   4.204
 1272SOL    HW1 3832   0.427   4.334   4.201
 1272SOL    HW2 3833   0.288   4.413   4.237
 1273SOL     OW 3834   0.614   3.846   3.841
 1273SOL    HW1 3835   0.712   3.824   3.848
 1273SOL    HW2 3836   0.583   3.829   3.748
 1274SOL     OW 3837   0.539   3.788   4.236
 1274SOL    HW1 3838   0.458   3.789   4.294
 1274SOL    HW2 3839   0.542   3.871   4.181
 1275SOL     OW 3840   0.297   3.759   3.895
 1275SOL    HW1 3841   0.346   3.843   3.874
 1275SOL    HW2 3842   0.359   3.694   3.940
 1276SOL     OW 3843   0.935   3.960   4.204
 1276SOL    HW1 3844   0.887   4.001   4.126
 1276SOL    HW2 3845   1.034   3.958   4.185
 1277SOL     OW 3846   0.459   4.876   4.465
 1277SOL    HW1 3847   0.388   4.849   4.530
 1277SOL    HW2 3848   0.433   4.848   4.372
 1278SOL     OW 3849   1.032   4.273   3.740
 1278SOL    HW1 3850   0.991   4.355   3.701
 1278SOL    HW2 3851   1.096   4.299   3.813
 1279SOL     OW 3852   0.866   4.178   4.366
 1279SOL    HW1 3853   0.834   4.250   4.304
 1279SOL    HW2 3854   0.890   4.097   4.313
 1280SOL     OW 3855   1.017   3.763   4.477
 1280SOL    HW1 3856   0.945   3.768   4.408
 1280SOL    HW2 3857   0.993   3.694   4.546
 1281SOL     OW 3858   1.429   4.897   4.591
 1281SOL    HW1 3859   1.374   4.813   4.584
 1281SOL    HW2 3860   1.455   4.926   4.499
 1282SOL     OW 3861   1.857   4.557   4.101
 1282SOL    HW1 3862   1.899   4.493   4.165
 1282SOL    HW2 3863   1.819   4.506   4.023
 1283SOL     OW 3864   1.390   4.299   3.802
 1283SOL    HW1 3865   1.336   4.278   3.883
 1283SOL    HW2 3866   1.481   4.258   3.811
 1284SOL     OW 3867   0.527   3.980   4.052
 1284SOL    HW1 3868   0.554   3.921   3.977
 1284SOL    HW2 3869   0.527   4.075   4.021
 1285SOL     OW 3870   0.566   4.261   4.589
 1285SOL    HW1 3871   0.578   4.327   4.515
 1285SOL    HW2 3872   0.612   4.295   4.672
 1286SOL     OW 3873   1.582   4.363   4.196
 1286SOL    HW1 3874   1.551   4.424   4.269
 1286SOL    HW2 3875   1.632   4.415   4.127
 1287SOL     OW 3876   1.209   4.249   3.999
 1287SOL    HW1 3877   1.222   4.165   4.053
 1287SOL    HW2 3878   1.180   4.323   4.059
 1288SOL     OW 3879   0.307   3.787   4.342
 1288SOL    HW1 3880   0.296   3.881   4.375
 1288SOL    HW2 3881   0.302   3.724   4.419
 1289SOL     OW 3882   1.622   4.091   4.098
 1289SOL    HW1 3883   1.624   4.015   4.162
 1289SOL    HW2 3884   1.574   4.168   4.138
 1290SOL     OW 3885   1.540   3.998   3.849
 1290SOL    HW1 3886   1.479   3.923   3.872
 1290SOL    HW2 3887   1.562   4.050   3.932
 1291SOL     OW 3888   0.815   4.296   4.049
 1291SOL    HW1 3889   0.822   4.207   4.003
 1291SOL    HW2 3890   0.721   4.330   4.041
 1292SOL     OW 3891   0.473   4.224   3.915
 1292SOL    HW1 3892   0.534   4.304   3.919
 1292SOL    HW2 3893   0.378   4.255   3.922
 1293SOL     OW 3894   1.726   3.859   4.247
 1293SOL    HW1 3895   1.799   3.842   4.180
 1293SOL    HW2 3896   1.695   3.772   4.285
 1294SOL     OW 3897   1.280   4.651   4.396
 1294SOL    HW1 3898   1.340   4.570   4.398
 1294SOL    HW2 3899   1.320   4.720   4.336
 1295SOL     OW 3900   1.841   3.899   4.687
 1295SOL    HW1 3901   1.880   3.814   4.651
 1295SOL    HW2 3902   1.743   3.901   4.668
 1296SOL     OW 3903   0.263   4.050   4.444
 1296SOL    HW1 3904   0.184   4.101   4.410
 1296SOL    HW2 3905   0.254   4.035   4.542
 1297SOL     OW 3906   0.916   4.634   4.015
 1297SOL    HW1 3907   0.979   4.672   3.947
 1297SOL    HW2 3908   0.956   4.551   4.054
 1298SOL     OW 3909   0.075   4.069   3.757
 1298SOL    HW1 3910  -0.017   4.041   3.728
 1298SOL    HW2 3911   0.106   4.146   3.701
 1299SOL     OW 3912   0.072   3.890   4.042
 1299SOL    HW1 3913   0.055   3.973   3.988
 1299SOL    HW2 3914   0.162   3.853   4.020
 1300SOL     OW 3915   1.225   4.049   4.173
 1300SOL    HW1 3916   1.290   3.975   4.162
 1300SOL    HW2 3917   1.245   4.099   4.257
 1301SOL     OW 3918   0.594   4.469   4.376
 1301SOL    HW1 3919   0.644   4.554   4.357
 1301SOL    HW2 3920   0.506   4.471   4.328
 1302SOL     OW 3921   0.428   4.148   4.244
 1302SOL    HW1 3922   0.458   4.076   4.182
 1302SOL    HW2 3923   0.389   4.108   4.327
 1303SOL     OW 3924   1.352   3.776   3.892
 1303SOL    HW1 3925   1.387   3.735   3.808
 1303SOL    HW2 3926   1.262   3.738   3.912
 1304SOL     OW 3927   1.300   4.177   4.415
 1304SOL    HW1 3928   1.241   4.257   4.419
 1304SOL    HW2 3929   1.315   4.142   4.508
 1305SOL     OW 3930   2.092   0.628   0.113
 1305SOL    HW1 3931   1.999   0.626   0.150
 1305SOL    HW2 3932   2.093   0.589   0.021
 1306SOL     OW 3933   2.087   0.275   0.996
 1306SOL    HW1 3934   2.122   0.258   1.088
 1306SOL    HW2 3935   1.999   0.230   0.984
 1307SOL     OW 3936   1.881   0.368   0.647
 1307SOL    HW1 3937   1.799   0.411   0.686
 1307SOL    HW2 3938   1.853   0.295   0.584
 1308SOL     OW 3939   2.431   1.275   1.165
 1308SOL    HW1 3940   2.338   1.268   1.128
 1308SOL    HW2 3941   2.442   1.364   1.209
 1309SOL     OW 3942   3.417   1.511   0.703
 1309SOL    HW1 3943   3.360   1.495   0.784
 1309SOL    HW2 3944   3.358   1.521   0.623
 1310SOL     OW 3945   2.997   0.703   0.717
 1310SOL    HW1 3946   3.054   0.781   0.692
 1310SOL    HW2 3947   2.937   0.729   0.793
 1311SOL     OW 3948   3.617   0.607   0.231
 1311SOL    HW1 3949   3.605   0.594   0.132
 1311SOL    HW2 3950   3.587   0.526   0.280
 1312SOL     OW 3951   2.630   1.144   1.023
 1312SOL    HW1 3952   2.552   1.161   1.083
 1312SOL    HW2 3953   2.664   1.231   0.987
 1313SOL     OW 3954   2.712   0.798   1.823
 1313SOL    HW1 3955   2.708   0.874   1.888
 1313SOL    HW2 3956   2.734   0.834   1.732
 1314SOL     OW 3957   2.547   1.012   0.665
 1314SOL    HW1 3958   2.616   0.996   0.735
 1314SOL    HW2 3959   2.474   1.069   0.703
 1315SOL     OW 3960   2.548   1.161   1.803
 1315SOL    HW1 3961   2.608   1.240   1.817
 1315SOL    HW2 3962   2.462   1.192   1.762
 1316SOL     OW 3963   2.197   1.435   1.061
 1316SOL    HW1 3964   2.119   1.404   1.008
 1316SOL    HW2 3965   2.255   1.493   1.004
 1317SOL     OW 3966   3.322   1.505   1.339
 1317SOL    HW1 3967   3.346   1.599   1.365
 1317SOL    HW2 3968   3.306   1.451   1.421
 1318SOL     OW 3969   2.300   0.392   1.499
 1318SOL    HW1 3970   2.382   0.336   1.508
 1318SOL    HW2 3971   2.219   0.334   1.503
 1319SOL     OW 3972   3.465   0.447   0.737
 1319SOL    HW1 3973   3.391   0.493   0.687
 1319SOL    HW2 3974   3.516   0.515   0.790
 1320SOL     OW 3975   2.093   1.713   0.483
 1320SOL    HW1 3976   2.127   1.790   0.537
 1320SOL    HW2 3977   2.137   1.713   0.393
 1321SOL     OW 3978   2.989   1.341   1.690
 1321SOL    HW1 3979   3.036   1.341   1.778
 1321SOL    HW2 3980   2.941   1.254   1.679
 1322SOL     OW 3981   2.092   1.434   0.538
 1322SOL    HW1 3982   2.066   1.530   0.538
 1322SOL    HW2 3983   2.021   1.380   0.583
 1323SOL     OW 3984   2.102   1.091   0.886
 1323SOL    HW1 3985   2.116   1.007   0.938
 1323SOL    HW2 3986   2.047   1.155   0.941
 1324SOL     OW 3987   2.482   1.786   1.439
 1324SOL    HW1 3988   2.390   1.769   1.474
 1324SOL    HW2 3989   2.510   1.878   1.465
 1325SOL     OW 3990   2.468   0.964   0.123
 1325SOL    HW1 3991   2.475   1.048   0.069
 1325SOL    HW2 3992   2.514   0.977   0.211
 1326SOL     OW 3993   3.456   0.114   1.480
 1326SOL    HW1 3994   3.438   0.181   1.408
 1326SOL    HW2 3995   3.453   0.160   1.569
 1327SOL     OW 3996   1.984   0.643   0.563
 1327SOL    HW1 3997   1.939   0.555   0.580
 1327SOL    HW2 3998   1.983   0.697   0.647
 1328SOL     OW 3999   3.704   1.767   0.359
 1328SOL    HW1 4000   3.758   1.738   0.439
 1328SOL    HW2 4001   3.734   1.857   0.330
 1329SOL     OW 4002   1.889   1.596   0.117
 1329SOL    HW1 4003   1.870   1.500   0.138
 1329SOL    HW2 4004   1.856   1.654   0.192
 1330SOL     OW 4005   3.551   0.922   0.612
 1330SOL    HW1 4006   3.646   0.893   0.620
 1330SOL    HW2 4007   3.543   0.987   0.537
 1331SOL     OW 4008   3.503   1.108   0.432
 1331SOL    HW1 4009   3.589   1.110   0.380
 1331SOL    HW2 4010   3.517   1.155   0.520
 1332SOL     OW 4011   1.975   0.737   1.597
 1332SOL    HW1 4012   2.063   0.724   1.642
 1332SOL    HW2 4013   1.962   0.834   1.575
 1333SOL     OW 4014   2.475   1.365   0.726
 1333SOL    HW1 4015   2.426   1.278   0.735
 1333SOL    HW2 4016   2.452   1.408   0.639
 1334SOL     OW 4017   3.155   1.228   1.423
 1334SOL    HW1 4018   3.192   1.155   1.365
 1334SOL    HW2 4019   3.207   1.233   1.508
 1335SOL     OW 4020   2.671   0.004   0.502
 1335SOL    HW1 4021   2.711   0.095   0.493
 1335SOL    HW2 4022   2.571   0.012   0.508
 1336SOL     OW 4023   2.059   0.976   1.264
 1336SOL    HW1 4024   2.148   0.931   1.250
 1336SOL    HW2 4025   1.986   0.911   1.245
 1337SOL     OW 4026   3.387   0.999   0.190
 1337SOL    HW1 4027   3.324   0.923   0.203
 1337SOL    HW2 4028   3.435   1.017   0.276
 1338SOL     OW 4029   3.049   1.792   1.616
 1338SOL    HW1 4030   3.073   1.852   1.540
 1338SOL    HW2 4031   3.056   1.697   1.586
 1339SOL     OW 4032   2.179   0.251   1.801
 1339SOL    HW1 4033   2.250   0.322   1.807
 1339SOL    HW2 4034   2.091   0.290   1.829
 1340SOL     OW 4035   3.328   1.417   0.953
 1340SOL    HW1 4036   3.269   1.423   1.033
 1340SOL    HW2 4037   3.313   1.329   0.907
 1341SOL     OW 4038   3.529   1.714   0.572
 1341SOL    HW1 4039   3.488   1.691   0.484
 1341SOL    HW2 4040   3.511   1.640   0.637
 1342SOL     OW 4041   2.460   0.729   0.270
 1342SOL    HW1 4042   2.484   0.798   0.202
 1342SOL    HW2 4043   2.382   0.762   0.324
 1343SOL     OW 4044   3.143   0.345   0.944
 1343SOL    HW1 4045   3.057   0.295   0.931
 1343SOL    HW2 4046   3.205   0.291   1.000
 1344SOL     OW 4047   3.438   1.662   0.307
 1344SOL    HW1 4048   3.527   1.708   0.310
 1344SOL    HW2 4049   3.417   1.638   0.212
 1345SOL     OW 4050   2.669   0.605   1.465
 1345SOL    HW1 4051   2.622   0.602   1.554
 1345SOL    HW2 4052   2.618   0.550   1.399
 1346SOL     OW 4053   3.256   0.469   1.674
 1346SOL    HW1 4054   3.236   0.512   1.762
 1346SOL    HW2 4055   3.334   0.407   1.683
 1347SOL     OW 4056   2.835   0.890   1.572
 1347SOL    HW1 4057   2.881   0.806   1.543
 1347SOL    HW2 4058   2.779   0.924   1.497
 1348SOL     OW 4059   2.853   0.410   1.242
 1348SOL    HW1 4060   2.776   0.444   1.296
 1348SOL    HW2 4061   2.819   0.359   1.163
 1349SOL     OW 4062   2.903   0.701   0.429
 1349SOL    HW1 4063   2.929   0.697   0.525
 1349SOL    HW2 4064   2.818   0.650   0.415
 1350SOL     OW 4065   1.938   0.811   0.789
 1350SOL    HW1 4066   2.037   0.799   0.798
 1350SOL    HW2 4067   1.914   0.906   0.810
 1351SOL     OW 4068   1.992   1.821   1.571
 1351SOL    HW1 4069   1.982   1.806   1.670
 1351SOL    HW2 4070   1.906   1.857   1.535
 1352SOL     OW 4071   2.727   0.348   0.195
 1352SOL    HW1 4072   2.786   0.411   0.146
 1352SOL    HW2 4073   2.746   0.254   0.166
 1353SOL     OW 4074   3.581   0.585   1.831
 1353SOL    HW1 4075   3.555   0.674   1.795
 1353SOL    HW2 4076   3.579   0.517   1.758
 1354SOL     OW 4077   3.224   1.144   0.545
 1354SOL    HW1 4078   3.307   1.115   0.497
 1354SOL    HW2 4079   3.175   1.211   0.489
 1355SOL     OW 4080   2.412   0.196   0.885
 1355SOL    HW1 4081   2.407   0.191   0.985
 1355SOL    HW2 4082   2.414   0.292   0.856
 1356SOL     OW 4083   2.870   1.456   0.477
 1356SOL    HW1 4084   2.824   1.528   0.425
 1356SOL    HW2 4085   2.866   1.476   0.575
 1357SOL     OW 4086   2.213   1.801   0.853
 1357SOL    HW1 4087   2.263   1.715   0.859
 1357SOL    HW2 4088   2.278   1.878   0.850
 1358SOL     OW 4089   3.657   1.066   0.873
 1358SOL    HW1 4090   3.595   1.051   0.797
 1358SOL    HW2 4091   3.605   1.077   0.958
 1359SOL     OW 4092   3.089   1.550   1.506
 1359SOL    HW1 4093   3.095   1.473   1.570
 1359SOL    HW2 4094   3.037   1.524   1.426
 1360SOL     OW 4095   2.183   0.943   0.242
 1360SOL    HW1 4096   2.265   0.982   0.200
 1360SOL    HW2 4097   2.156   0.861   0.193
 1361SOL     OW 4098   3.320   0.735   0.728
 1361SOL    HW1 4099   3.315   0.670   0.803
 1361SOL    HW2 4100   3.400   0.794   0.741
 1362SOL     OW 4101   2.323   1.266   1.727
 1362SOL    HW1 4102   2.273   1.267   1.641
 1362SOL    HW2 4103   2.260   1.248   1.803
 1363SOL     OW 4104   2.973   1.776   0.237
 1363SOL    HW1 4105   2.913   1.714   0.287
 1363SOL    HW2 4106   3.004   1.732   0.152
 1364SOL     OW 4107   2.064   0.285   1.498
 1364SOL    HW1 4108   1.984   0.345   1.485
 1364SOL    HW2 4109   2.054   0.236   1.584
 1365SOL     OW 4110   3.494   1.377   0.081
 1365SOL    HW1 4111   3.462   1.471   0.071
 1365SOL    HW2 4112   3.418   1.314   0.069
 1366SOL     OW 4113   2.326   1.743   0.323
 1366SOL    HW1 4114   2.359   1.782   0.409
 1366SOL    HW2 4115   2.402   1.736   0.258
 1367SOL     OW 4116   3.262   0.107   0.426
 1367SOL    HW1 4117   3.238   0.070   0.336
 1367SOL    HW2 4118   3.361   0.123   0.430
 1368SOL     OW 4119   2.111   1.785   1.241
 1368SOL    HW1 4120   2.168   1.720   1.291
 1368SOL    HW2 4121   2.095   1.752   1.148
 1369SOL     OW 4122   2.802   1.698   0.904
 1369SOL    HW1 4123   2.882   1.641   0.925
 1369SOL    HW2 4124   2.753   1.658   0.827
 1370SOL     OW 4125   2.244   0.700   0.480
 1370SOL    HW1 4126   2.289   0.610   0.477
 1370SOL    HW2 4127   2.150   0.689   0.513
 1371SOL     OW 4128   3.409   0.222   1.729
 1371SOL    HW1 4129   3.404   0.259   1.821
 1371SOL    HW2 4130   3.337   0.153   1.717
 1372SOL     OW 4131   2.476   0.122   0.117
 1372SOL    HW1 4132   2.574   0.100   0.124
 1372SOL    HW2 4133   2.445   0.105   0.024
 1373SOL     OW 4134   2.643   0.264   1.749
 1373SOL    HW1 4135   2.710   0.203   1.792
 1373SOL    HW2 4136   2.570   0.283   1.814
 1374SOL     OW 4137   2.750   1.514   1.195
 1374SOL    HW1 4138   2.727   1.489   1.101
 1374SOL    HW2 4139   2.811   1.445   1.234
 1375SOL     OW 4140   3.213   0.590   1.433
 1375SOL    HW1 4141   3.241   0.547   1.518
 1375SOL    HW2 4142   3.238   0.686   1.434
 1376SOL     OW 4143   2.665   1.402   0.924
 1376SOL    HW1 4144   2.755   1.416   0.882
 1376SOL    HW2 4145   2.594   1.404   0.853
 1377SOL     OW 4146   2.784   0.503   0.899
 1377SOL    HW1 4147   2.759   0.494   0.803
 1377SOL    HW2 4148   2.832   0.421   0.930
 1378SOL     OW 4149   2.401   0.064   0.512
 1378SOL    HW1 4150   2.320   0.065   0.570
 1378SOL    HW2 4151   2.404   0.147   0.457
 1379SOL     OW 4152   3.296   1.188   0.041
 1379SOL    HW1 4153   3.328   1.112   0.098
 1379SOL    HW2 4154   3.204   1.215   0.071
 1380SOL     OW 4155   2.159   0.035   0.171
 1380SOL    HW1 4156   2.208   0.119   0.150
 1380SOL    HW2 4157   2.221  -0.030   0.216
 1381SOL     OW 4158   2.797   0.236   0.480
 1381SOL    HW1 4159   2.749   0.277   0.402
 1381SOL    HW2 4160   2.896   0.234   0.461
 1382SOL     OW 4161   2.938   0.683   1.464
 1382SOL    HW1 4162   2.858   0.622   1.467
 1382SOL    HW2 4163   3.019   0.630   1.440
 1383SOL     OW 4164   3.089   1.570   0.793
 1383SOL    HW1 4165   3.110   1.644   0.728
 1383SOL    HW2 4166   3.157   1.570   0.866
 1384SOL     OW 4167   2.321   1.152   0.741
 1384SOL    HW1 4168   2.250   1.125   0.806
 1384SOL    HW2 4169   2.295   1.124   0.648
 1385SOL     OW 4170   3.133   1.797   0.591
 1385SOL    HW1 4171   3.177   1.861   0.527
 1385SOL    HW2 4172   3.083   1.849   0.661
 1386SOL     OW 4173   2.894   0.549   0.016
 1386SOL    HW1 4174   2.853   0.631  -0.023
 1386SOL    HW2 4175   2.958   0.575   0.089
 1387SOL     OW 4176   1.940   0.556   1.386
 1387SOL    HW1 4177   2.032   0.555   1.345
 1387SOL    HW2 4178   1.934   0.630   1.453
 1388SOL     OW 4179   2.423   0.222   1.147
 1388SOL    HW1 4180   2.461   0.138   1.184
 1388SOL    HW2 4181   2.335   0.241   1.191
 1389SOL     OW 4182   2.728   0.454   0.642
 1389SOL    HW1 4183   2.696   0.526   0.580
 1389SOL    HW2 4184   2.752   0.373   0.589
 1390SOL     OW 4185   2.879   0.039   0.753
 1390SOL    HW1 4186   2.807   0.044   0.684
 1390SOL    HW2 4187   2.855  -0.030   0.822
 1391SOL     OW 4188   3.291   1.173   0.867
 1391SOL    HW1 4189   3.236   1.089   0.860
 1391SOL    HW2 4190   3.317   1.202   0.775
 1392SOL     OW 4191   3.328   0.590   0.992
 1392SOL    HW1 4192   3.298   0.495   0.999
 1392SOL    HW2 4193   3.401   0.606   1.058
 1393SOL     OW 4194   3.719   0.833   0.377
 1393SOL    HW1 4195   3.761   0.769   0.441
 1393SOL    HW2 4196   3.681   0.782   0.299
 1394SOL     OW 4197   2.350   1.385   0.174
 1394SOL    HW1 4198   2.263   1.370   0.221
 1394SOL    HW2 4199   2.333   1.411   0.079
 1395SOL     OW 4200   3.526   1.280   0.657
 1395SOL    HW1 4201   3.625   1.288   0.671
 1395SOL    HW2 4202   3.481   1.364   0.688
 1396SOL     OW 4203   3.252   0.575   0.078
 1396SOL    HW1 4204   3.198   0.554   0.159
 1396SOL    HW2 4205   3.343   0.534   0.087
 1397SOL     OW 4206   2.389   0.256   0.328
 1397SOL    HW1 4207   2.416   0.197   0.253
 1397SOL    HW2 4208   2.389   0.351   0.297
 1398SOL     OW 4209   3.616   1.223   1.588
 1398SOL    HW1 4210   3.707   1.184   1.575
 1398SOL    HW2 4211   3.624   1.319   1.612
 1399SOL     OW 4212   2.926   1.347   1.340
 1399SOL    HW1 4213   2.846   1.324   1.395
 1399SOL    HW2 4214   3.009   1.321   1.389
 1400SOL     OW 4215   3.454   1.629   1.625
 1400SOL    HW1 4216   3.481   1.663   1.535
 1400SOL    HW2 4217   3.533   1.591   1.671
 1401SOL     OW 4218   2.973   1.195   1.100
 1401SOL    HW1 4219   2.933   1.239   1.181
 1401SOL    HW2 4220   2.932   1.232   1.017
 1402SOL     OW 4221   3.500   1.099   1.079
 1402SOL    HW1 4222   3.505   1.180   1.138
 1402SOL    HW2 4223   3.414   1.101   1.028
 1403SOL     OW 4224   2.777   0.089   1.402
 1403SOL    HW1 4225   2.802   0.069   1.307
 1403SOL    HW2 4226   2.849   0.145   1.444
 1404SOL     OW 4227   2.842   1.116   1.719
 1404SOL    HW1 4228   2.743   1.122   1.729
 1404SOL    HW2 4229   2.865   1.036   1.663
 1405SOL     OW 4230   2.567   1.050   0.368
 1405SOL    HW1 4231   2.553   1.057   0.467
 1405SOL    HW2 4232   2.651   0.999   0.350
 1406SOL     OW 4233   2.272   0.813   1.251
 1406SOL    HW1 4234   2.358   0.825   1.301
 1406SOL    HW2 4235   2.230   0.726   1.278
 1407SOL     OW 4236   3.136   0.386   1.262
 1407SOL    HW1 4237   3.157   0.460   1.326
 1407SOL    HW2 4238   3.047   0.403   1.219
 1408SOL     OW 4239   1.926   1.564   1.331
 1408SOL    HW1 4240   1.880   1.646   1.297
 1408SOL    HW2 4241   2.024   1.583   1.340
 1409SOL     OW 4242   2.229   1.100   0.501
 1409SOL    HW1 4243   2.222   1.183   0.445
 1409SOL    HW2 4244   2.233   1.020   0.441
 1410SOL     OW 4245   2.428   0.537   0.865
 1410SOL    HW1 4246   2.440   0.603   0.791
 1410SOL    HW2 4247   2.474   0.571   0.948
 1411SOL     OW 4248   3.114   1.348   0.388
 1411SOL    HW1 4249   3.164   1.425   0.428
 1411SOL    HW2 4250   3.019   1.350   0.420
 1412SOL     OW 4251   3.134   1.445   1.142
 1412SOL    HW1 4252   3.181   1.458   1.229
 1412SOL    HW2 4253   3.068   1.371   1.151
 1413SOL     OW 4254   3.444   0.639   0.472
 1413SOL    HW1 4255   3.413   0.700   0.545
 1413SOL    HW2 4256   3.494   0.691   0.403
 1414SOL     OW 4257   2.216   1.510   1.329
 1414SOL    HW1 4258   2.195   1.466   1.242
 1414SOL    HW2 4259   2.313   1.536   1.332
 1415SOL     OW 4260   2.264   0.751   1.598
 1415SOL    HW1 4261   2.332   0.806   1.551
 1415SOL    HW2 4262   2.304   0.663   1.625
 1416SOL     OW 4263   3.449   0.779   1.670
 1416SOL    HW1 4264   3.357   0.817   1.665
 1416SOL    HW2 4265   3.509   0.826   1.605
 1417SOL     OW 4266   2.875   0.105   1.770
 1417SOL    HW1 4267   2.881   0.190   1.718
 1417SOL    HW2 4268   2.907   0.029   1.713
 1418SOL     OW 4269   2.366   0.050   1.740
 1418SOL    HW1 4270   2.324  -0.007   1.670
 1418SOL    HW2 4271   2.300   0.119   1.772
 1419SOL     OW 4272   2.435   0.870   1.029
 1419SOL    HW1 4273   2.479   0.959   1.020
 1419SOL    HW2 4274   2.372   0.870   1.106
 1420SOL     OW 4275   3.222   0.862   1.045
 1420SOL    HW1 4276   3.147   0.862   0.979
 1420SOL    HW2 4277   3.259   0.770   1.054
 1421SOL     OW 4278   3.071   0.525   0.275
 1421SOL    HW1 4279   3.084   0.441   0.329
 1421SOL    HW2 4280   3.042   0.599   0.335
 1422SOL     OW 4281   2.169   0.213   1.231
 1422SOL    HW1 4282   2.146   0.250   1.321
 1422SOL    HW2 4283   2.139   0.118   1.225
 1423SOL     OW 4284   1.899   1.310   1.282
 1423SOL    HW1 4285   1.952   1.261   1.350
 1423SOL    HW2 4286   1.921   1.408   1.287
 1424SOL     OW 4287   2.594   0.634   1.064
 1424SOL    HW1 4288   2.653   0.608   0.988
 1424SOL    HW2 4289   2.566   0.730   1.053
 1425SOL     OW 4290   3.590   0.935   1.854
 1425SOL    HW1 4291   3.544   0.928   1.765
 1425SOL    HW2 4292   3.528   0.979   1.920
 1426SOL     OW 4293   2.169   0.063   0.618
 1426SOL    HW1 4294   2.158   0.157   0.651
 1426SOL    HW2 4295   2.164   0.000   0.695
 1427SOL     OW 4296   3.484   0.367   0.374
 1427SOL    HW1 4297   3.486   0.291   0.438
 1427SOL    HW2 4298   3.436   0.444   0.414
 1428SOL     OW 4299   2.885   0.766   0.966
 1428SOL    HW1 4300   2.900   0.787   1.062
 1428SOL    HW2 4301   2.855   0.671   0.957
 1429SOL     OW 4302   2.842   1.573   1.700
 1429SOL    HW1 4303   2.822   1.617   1.612
 1429SOL    HW2 4304   2.881   1.482   1.684
 1430SOL     OW 4305   3.721   1.518   1.605
 1430SOL    HW1 4306   3.735   1.545   1.510
 1430SOL    HW2 4307   3.804   1.540   1.658
 1431SOL     OW 4308   2.212   0.898   1.804
 1431SOL    HW1 4309   2.288   0.942   1.852
 1431SOL    HW2 4310   2.247   0.851   1.722
 1432SOL     OW 4311   3.402   0.274   0.125
 1432SOL    HW1 4312   3.341   0.199   0.148
 1432SOL    HW2 4313   3.424   0.326   0.208
 1433SOL     OW 4314   3.165   0.838   0.042
 1433SOL    HW1 4315   3.199   0.745   0.057
 1433SOL    HW2 4316   3.183   0.865  -0.053
 1434SOL     OW 4317   2.930   1.333   0.849
 1434SOL    HW1 4318   2.937   1.249   0.794
 1434SOL    HW2 4319   2.992   1.402   0.813
 1435SOL     OW 4320   2.181   0.810   0.949
 1435SOL    HW1 4321   2.274   0.846   0.954
 1435SOL    HW2 4322   2.175   0.725   1.001
 1436SOL     OW 4323   2.201   0.509   1.006
 1436SOL    HW1 4324   2.149   0.426   0.989
 1436SOL    HW2 4325   2.278   0.514   0.942
 1437SOL     OW 4326   3.000   0.380   1.678
 1437SOL    HW1 4327   2.955   0.443   1.742
 1437SOL    HW2 4328   3.093   0.411   1.661
 1438SOL     OW 4329   3.022   0.207   1.477
 1438SOL    HW1 4330   3.022   0.271   1.554
 1438SOL    HW2 4331   3.050   0.255   1.394
 1439SOL     OW 4332   1.870   1.326   0.200
 1439SOL    HW1 4333   1.777   1.347   0.169
 1439SOL    HW2 4334   1.880   1.227   0.213
 1440SOL     OW 4335   1.950   1.801   0.927
 1440SOL    HW1 4336   1.908   1.715   0.900
 1440SOL    HW2 4337   2.044   1.804   0.893
 1441SOL     OW 4338   2.366   1.568   0.910
 1441SOL    HW1 4339   2.432   1.642   0.919
 1441SOL    HW2 4340   2.410   1.489   0.868
 1442SOL     OW 4341   2.864   0.796   1.238
 1442SOL    HW1 4342   2.905   0.764   1.324
 1442SOL    HW2 4343   2.768   0.769   1.235
 1443SOL     OW 4344   1.902   0.544   1.114
 1443SOL    HW1 4345   1.987   0.511   1.073
 1443SOL    HW2 4346   1.915   0.559   1.212
 1444SOL     OW 4347   2.051   0.520   1.722
 1444SOL    HW1 4348   2.110   0.480   1.652
 1444SOL    HW2 4349   1.993   0.591   1.681
 1445SOL     OW 4350   3.231   0.950   1.660
 1445SOL    HW1 4351   3.270   1.039   1.680
 1445SOL    HW2 4352   3.241   0.930   1.563
 1446SOL     OW 4353   2.677   0.572   0.325
 1446SOL    HW1 4354   2.684   0.483   0.279
 1446SOL    HW2 4355   2.583   0.606   0.317
 1447SOL     OW 4356   3.519   0.604   1.206
 1447SOL    HW1 4357   3.481   0.535   1.268
 1447SOL    HW2 4358   3.601   0.568   1.162
 1448SOL     OW 4359   2.114   1.564   1.744
 1448SOL    HW1 4360   2.084   1.621   1.820
 1448SOL    HW2 4361   2.107   1.467   1.770
 1449SOL     OW 4362   2.533   0.464   1.269
 1449SOL    HW1 4363   2.499   0.375   1.239
 1449SOL    HW2 4364   2.559   0.518   1.189
 1450SOL     OW 4365   2.792   1.678   1.465
 1450SOL    HW1 4366   2.768   1.660   1.370
 1450SOL    HW2 4367   2.822   1.772   1.475
 1451SOL     OW 4368   2.335   0.500   0.191
 1451SOL    HW1 4369   2.396   0.580   0.195
 1451SOL    HW2 4370   2.240   0.531   0.198
 1452SOL     OW 4371   2.021   1.137   1.466
 1452SOL    HW1 4372   2.043   1.076   1.542
 1452SOL    HW2 4373   2.031   1.088   1.380
 1453SOL     OW 4374   3.209   1.059   1.234
 1453SOL    HW1 4375   3.233   0.996   1.160
 1453SOL    HW2 4376   3.119   1.099   1.216
 1454SOL     OW 4377   3.164   0.855   0.309
 1454SOL    HW1 4378   3.078   0.824   0.351
 1454SOL    HW2 4379   3.160   0.841   0.210
 1455SOL     OW 4380   3.621   1.747   1.154
 1455SOL    HW1 4381   3.682   1.777   1.081
 1455SOL    HW2 4382   3.583   1.658   1.132
 1456SOL     OW 4383   3.114   1.731   1.128
 1456SOL    HW1 4384   3.198   1.736   1.074
 1456SOL    HW2 4385   3.091   1.635   1.146
 1457SOL     OW 4386   1.945   1.258   1.022
 1457SOL    HW1 4387   1.940   1.257   1.122
 1457SOL    HW2 4388   1.862   1.217   0.984
 1458SOL     OW 4389   2.550   1.662   1.716
 1458SOL    HW1 4390   2.494   1.743   1.725
 1458SOL    HW2 4391   2.602   1.666   1.630
 1459SOL     OW 4392   2.765   0.086   0.133
 1459SOL    HW1 4393   2.816   0.087   0.047
 1459SOL    HW2 4394   2.821   0.044   0.204
 1460SOL     OW 4395   3.588   0.135   0.523
 1460SOL    HW1 4396   3.661   0.118   0.456
 1460SOL    HW2 4397   3.557   0.048   0.561
 1461SOL     OW 4398   3.250   1.573   0.477
 1461SOL    HW1 4399   3.317   1.585   0.403
 1461SOL    HW2 4400   3.210   1.662   0.500
 1462SOL     OW 4401   1.992   1.794   1.851
 1462SOL    HW1 4402   1.951   1.720   1.904
 1462SOL    HW2 4403   2.056   1.845   1.909
 1463SOL     OW 4404   3.142   0.927   0.672
 1463SOL    HW1 4405   3.202   0.846   0.674
 1463SOL    HW2 4406   3.182   0.996   0.612
 1464SOL     OW 4407   2.692   1.273   1.422
 1464SOL    HW1 4408   2.687   1.306   1.517
 1464SOL    HW2 4409   2.606   1.292   1.376
 1465SOL     OW 4410   2.534   1.616   0.154
 1465SOL    HW1 4411   2.543   1.626   0.055
 1465SOL    HW2 4412   2.494   1.527   0.175
 1466SOL     OW 4413   3.512   1.720   1.394
 1466SOL    HW1 4414   3.565   1.730   1.310
 1466SOL    HW2 4415   3.485   1.810   1.428
 1467SOL     OW 4416   3.703   0.175   0.963
 1467SOL    HW1 4417   3.742   0.090   0.927
 1467SOL    HW2 4418   3.605   0.177   0.944
 1468SOL     OW 4419   2.125   0.326   0.720
 1468SOL    HW1 4420   2.046   0.377   0.686
 1468SOL    HW2 4421   2.116   0.311   0.818
 1469SOL     OW 4422   3.056   1.612   0.031
 1469SOL    HW1 4423   3.062   1.519   0.068
 1469SOL    HW2 4424   2.997   1.612  -0.049
 1470SOL     OW 4425   2.684   1.002   1.372
 1470SOL    HW1 4426   2.724   1.001   1.280
 1470SOL    HW2 4427   2.694   1.094   1.412
 1471SOL     OW 4428   2.778   0.910   0.291
 1471SOL    HW1 4429   2.841   0.948   0.223
 1471SOL    HW2 4430   2.818   0.827   0.330
 1472SOL     OW 4431   3.366   1.607   0.044
 1472SOL    HW1 4432   3.274   1.644   0.051
 1472SOL    HW2 4433   3.404   1.627  -0.046
 1473SOL     OW 4434   2.234   1.288   1.490
 1473SOL    HW1 4435   2.221   1.381   1.456
 1473SOL    HW2 4436   2.150   1.236   1.477
 1474SOL     OW 4437   3.476   1.292   1.289
 1474SOL    HW1 4438   3.536   1.295   1.369
 1474SOL    HW2 4439   3.401   1.356   1.302
 1475SOL     OW 4440   2.901   1.098   0.696
 1475SOL    HW1 4441   2.831   1.051   0.750
 1475SOL    HW2 4442   2.960   1.030   0.653
 1476SOL     OW 4443   2.876   0.236   0.971
 1476SOL    HW1 4444   2.868   0.200   0.878
 1476SOL    HW2 4445   2.874   0.160   1.036
 1477SOL     OW 4446   2.452   1.487   0.491
 1477SOL    HW1 4447   2.494   1.429   0.421
 1477SOL    HW2 4448   2.408   1.566   0.447
 1478SOL     OW 4449   3.571   0.385   1.381
 1478SOL    HW1 4450   3.644   0.454   1.385
 1478SOL    HW2 4451   3.599   0.310   1.322
 1479SOL     OW 4452   2.117   1.348   0.290
 1479SOL    HW1 4453   2.021   1.349   0.263
 1479SOL    HW2 4454   2.129   1.401   0.374
 1480SOL     OW 4455   1.967   1.013   1.726
 1480SOL    HW1 4456   1.890   0.980   1.780
 1480SOL    HW2 4457   2.052   0.983   1.768
 1481SOL     OW 4458   2.534   0.203   1.489
 1481SOL    HW1 4459   2.624   0.187   1.449
 1481SOL    HW2 4460   2.542   0.208   1.588
 1482SOL     OW 4461   3.302   0.856   1.398
 1482SOL    HW1 4462   3.245   0.908   1.335
 1482SOL    HW2 4463   3.398   0.868   1.374
 1483SOL     OW 4464   1.934   0.166   0.318
 1483SOL    HW1 4465   1.917   0.249   0.264
 1483SOL    HW2 4466   2.024   0.129   0.296
 1484SOL     OW 4467   3.045   1.335   0.119
 1484SOL    HW1 4468   2.946   1.324   0.121
 1484SOL    HW2 4469   3.079   1.350   0.212
 1485SOL     OW 4470   2.475   0.842   1.431
 1485SOL    HW1 4471   2.531   0.923   1.414
 1485SOL    HW2 4472   2.534   0.762   1.434
 1486SOL     OW 4473   3.355   1.767   0.959
 1486SOL    HW1 4474   3.388   1.831   0.890
 1486SOL    HW2 4475   3.421   1.761   1.034
 1487SOL     OW 4476   2.578   0.565   1.708
 1487SOL    HW1 4477   2.597   0.630   1.782
 1487SOL    HW2 4478   2.638   0.485   1.717
 1488SOL     OW 4479   3.312   1.220   1.633
 1488SOL    HW1 4480   3.303   1.210   1.732
 1488SOL    HW2 4481   3.408   1.213   1.607
 1489SOL     OW 4482   2.252   1.741   1.560
 1489SOL    HW1 4483   2.161   1.782   1.558
 1489SOL    HW2 4484   2.245   1.647   1.592
 1490SOL     OW 4485   3.536   0.883   1.254
 1490SOL    HW1 4486   3.509   0.794   1.217
 1490SOL    HW2 4487   3.537   0.951   1.181
 1491SOL     OW 4488   3.087   0.325   0.449
 1491SOL    HW1 4489   3.152   0.251   0.438
 1491SOL    HW2 4490   3.107   0.375   0.533
 1492SOL     OW 4491   2.456   0.745   0.652
 1492SOL    HW1 4492   2.506   0.830   0.633
 1492SOL    HW2 4493   2.368   0.747   0.604
 1493SOL     OW 4494   3.639   0.342   1.642
 1493SOL    HW1 4495   3.622   0.373   1.548
 1493SOL    HW2 4496   3.555   0.305   1.680
 1494SOL     OW 4497   3.592   0.934   1.517
 1494SOL    HW1 4498   3.630   1.025   1.532
 1494SOL    HW2 4499   3.584   0.917   1.418
 1495SOL     OW 4500   2.721   1.374   0.016
 1495SOL    HW1 4501   2.675   1.389   0.104
 1495SOL    HW2 4502   2.765   1.459  -0.014
 1496SOL     OW 4503   2.523   1.790   0.953
 1496SOL    HW1 4504   2.477   1.878   0.940
 1496SOL    HW2 4505   2.622   1.802   0.946
 1497SOL     OW 4506   2.721   0.956   0.861
 1497SOL    HW1 4507   2.775   0.887   0.909
 1497SOL    HW2 4508   2.689   1.025   0.927
 1498SOL     OW 4509   2.945   0.984   0.087
 1498SOL    HW1 4510   2.922   1.037   0.005
 1498SOL    HW2 4511   3.026   0.928   0.068
 1499SOL     OW 4512   3.723   1.569   0.851
 1499SOL    HW1 4513   3.652   1.557   0.781
 1499SOL    HW2 4514   3.724   1.490   0.911
 1500SOL     OW 4515   2.083   1.314   1.844
 1500SOL    HW1 4516   2.018   1.241   1.823
 1500SOL    HW2 4517   2.087   1.328   1.942
 1501SOL     OW 4518   1.941   1.240   0.653
 1501SOL    HW1 4519   1.940   1.193   0.741
 1501SOL    HW2 4520   2.023   1.212   0.602
 1502SOL     OW 4521   2.534   1.391   1.624
 1502SOL    HW1 4522   2.456   1.341   1.662
 1502SOL    HW2 4523   2.531   1.486   1.655
 1503SOL     OW 4524   3.686   0.192   1.227
 1503SOL    HW1 4525   3.682   0.102   1.271
 1503SOL    HW2 4526   3.689   0.181   1.128
 1504SOL     OW 4527   2.290   0.424   0.520
 1504SOL    HW1 4528   2.320   0.352   0.458
 1504SOL    HW2 4529   2.251   0.384   0.603
 1505SOL     OW 4530   3.567   1.487   1.104
 1505SOL    HW1 4531   3.474   1.462   1.077
 1505SOL    HW2 4532   3.593   1.437   1.186
 1506SOL     OW 4533   2.179   0.547   1.280
 1506SOL    HW1 4534   2.217   0.488   1.352
 1506SOL    HW2 4535   2.219   0.521   1.192
 1507SOL     OW 4536   2.674   1.586   0.687
 1507SOL    HW1 4537   2.706   1.596   0.593
 1507SOL    HW2 4538   2.595   1.524   0.689
 1508SOL     OW 4539   3.286   0.214   1.112
 1508SOL    HW1 4540   3.338   0.149   1.167
 1508SOL    HW2 4541   3.237   0.277   1.173
 1509SOL     OW 4542   2.863   0.034   1.154
 1509SOL    HW1 4543   2.800  -0.038   1.123
 1509SOL    HW2 4544   2.956  -0.002   1.154
 1510SOL     OW 4545   2.632   1.330   0.301
 1510SOL    HW1 4546   2.586   1.243   0.318
 1510SOL    HW2 4547   2.723   1.327   0.342
 1511SOL     OW 4548   2.480   1.567   1.284
 1511SOL    HW1 4549   2.475   1.649   1.341
 1511SOL    HW2 4550   2.569   1.564   1.239
 1512SOL     OW 4551   3.214   0.052   0.168
 1512SOL    HW1 4552   3.249   0.011   0.084
 1512SOL    HW2 4553   3.124   0.014   0.188
 1513SOL     OW 4554   3.162   0.453   0.691
 1513SOL    HW1 4555   3.103   0.533   0.695
 1513SOL    HW2 4556   3.177   0.418   0.784
 1514SOL     OW 4557   3.455   0.221   0.882
 1514SOL    HW1 4558   3.371   0.220   0.936
 1514SOL    HW2 4559   3.457   0.304   0.826
 1515SOL     OW 4560   1.901   1.077   0.300
 1515SOL    HW1 4561   2.000   1.066   0.291
 1515SOL    HW2 4562   1.861   0.991   0.332
 1516SOL     OW 4563   2.737   1.646   0.337
 1516SOL    HW1 4564   2.660   1.611   0.283
 1516SOL    HW2 4565   2.705   1.717   0.399
 1517SOL     OW 4566   2.092   0.628   1.975
 1517SOL    HW1 4567   1.999   0.626   2.012
 1517SOL    HW2 4568   2.093   0.589   1.883
 1518SOL     OW 4569   2.087   0.275   2.858
 1518SOL    HW1 4570   2.122   0.258   2.950
 1518SOL    HW2 4571   1.999   0.230   2.846
 1519SOL     OW 4572   1.881   0.368   2.509
 1519SOL    HW1 4573   1.799   0.411   2.548
 1519SOL    HW2 4574   1.853   0.295   2.446
 1520SOL     OW 4575   2.431   1.275   3.027
 1520SOL    HW1 4576   2.338   1.268   2.990
 1520SOL    HW2 4577   2.442   1.364   3.071
 1521SOL     OW 4578   3.417   1.511   2.565
 1521SOL    HW1 4579   3.360   1.495   2.646
 1521SOL    HW2 4580   3.358   1.521   2.485
 1522SOL     OW 4581   2.997   0.703   2.579
 1522SOL    HW1 4582   3.054   0.781   2.554
 1522SOL    HW2 4583   2.937   0.729   2.655
 1523SOL     OW 4584   3.617   0.607   2.093
 1523SOL    HW1 4585   3.605   0.594   1.994
 1523SOL    HW2 4586   3.587   0.526   2.142
 1524SOL     OW 4587   2.630   1.144   2.885
 1524SOL    HW1 4588   2.552   1.161   2.945
 1524SOL    HW2 4589   2.664   1.231   2.849
 1525SOL     OW 4590   2.712   0.798   3.685
 1525SOL    HW1 4591   2.708   0.874   3.750
 1525SOL    HW2 4592   2.734   0.834   3.594
 1526SOL     OW 4593   2.547   1.012   2.527
 1526SOL    HW1 4594   2.616   0.996   2.597
 1526SOL    HW2 4595   2.474   1.069   2.565
 1527SOL     OW 4596   2.548   1.161   3.665
 1527SOL    HW1 4597   2.608   1.240   3.679
 1527SOL    HW2 4598   2.462   1.192   3.624
 1528SOL     OW 4599   2.197   1.435   2.923
 1528SOL    HW1 4600   2.119   1.404   2.870
 1528SOL    HW2 4601   2.255   1.493   2.866
 1529SOL     OW 4602   3.322   1.505   3.201
 1529SOL    HW1 4603   3.346   1.599   3.227
 1529SOL    HW2 4604   3.306   1.451   3.283
 1530SOL     OW 4605   2.300   0.392   3.361
 1530SOL    HW1 4606   2.382   0.336   3.370
 1530SOL    HW2 4607   2.219   0.334   3.365
 1531SOL     OW 4608   3.465   0.447   2.599
 1531SOL    HW1 4609   3.391   0.493   2.549
 1531SOL    HW2 4610   3.516   0.515   2.652
 1532SOL     OW 4611   2.093   1.713   2.345
 1532SOL    HW1 4612   2.127   1.790   2.399
 1532SOL    HW2 4613   2.137   1.713   2.255
 1533SOL     OW 4614   2.989   1.341   3.552
 1533SOL    HW1 4615   3.036   1.341   3.640
 1533SOL    HW2 4616   2.941   1.254   3.541
 1534SOL     OW 4617   2.092   1.434   2.400
 1534SOL    HW1 4618   2.066   1.530   2.400
 1534SOL    HW2 4619   2.021   1.380   2.445
 1535SOL     OW 4620   2.102   1.091   2.748
 1535SOL    HW1 4621   2.116   1.007   2.800
 1535SOL    HW2 4622   2.047   1.155   2.803
 1536SOL     OW 4623   2.482   1.786   3.301
 1536SOL    HW1 4624   2.390   1.769   3.336
 1536SOL    HW2 4625   2.510   1.878   3.327
 1537SOL     OW 4626   2.468   0.964   1.985
 1537SOL    HW1 4627   2.475   1.048   1.931
 1537SOL    HW2 4628   2.514   0.977   2.073
 1538SOL     OW 4629   3.456   0.114   3.342
 1538SOL    HW1 4630   3.438   0.181   3.270
 1538SOL    HW2 4631   3.453   0.160   3.431
 1539SOL     OW 4632   1.984   0.643   2.425
 1539SOL    HW1 4633   1.939   0.555   2.442
 1539SOL    HW2 4634   1.983   0.697   2.509
 1540SOL     OW 4635   3.704   1.767   2.221
 1540SOL    HW1 4636   3.758   1.738   2.301
 1540SOL    HW2 4637   3.734   1.857   2.192
 1541SOL     OW 4638   1.889   1.596   1.979
 1541SOL    HW1 4639   1.870   1.500   2.000
 1541SOL    HW2 4640   1.856   1.654   2.054
 1542SOL     OW 4641   3.551   0.922   2.474
 1542SOL    HW1 4642   3.646   0.893   2.482
 1542SOL    HW2 4643   3.543   0.987   2.399
 1543SOL     OW 4644   3.503   1.108   2.294
 1543SOL    HW1 4645   3.589   1.110   2.242
 1543SOL    HW2 4646   3.517   1.155   2.382
 1544SOL     OW 4647   1.975   0.737   3.459
 1544SOL    HW1 4648   2.063   0.724   3.504
 1544SOL    HW2 4649   1.962   0.834   3.437
 1545SOL     OW 4650   2.475   1.365   2.588
 1545SOL    HW1 4651   2.426   1.278   2.597
 1545SOL    HW2 4652   2.452   1.408   2.501
 1546SOL     OW 4653   3.155   1.228   3.285
 1546SOL    HW1 4654   3.192   1.155   3.227
 1546SOL    HW2 4655   3.207   1.233   3.370
 1547SOL     OW 4656   2.671   0.004   2.364
 1547SOL    HW1 4657   2.711   0.095   2.355
 1547SOL    HW2 4658   2.571   0.012   2.370
 1548SOL     OW 4659   2.059   0.976   3.126
 1548SOL    HW1 4660   2.148   0.931   3.112
 1548SOL    HW2 4661   1.986   0.911   3.107
 1549SOL     OW 4662   3.387   0.999   2.052
 1549SOL    HW1 4663   3.324   0.923   2.065
 1549SOL    HW2 4664   3.435   1.017   2.138
 1550SOL     OW 4665   3.049   1.792   3.478
 1550SOL    HW1 4666   3.073   1.852   3.402
 1550SOL    HW2 4667   3.056   1.697   3.448
 1551SOL     OW 4668   2.179   0.251   3.663
 1551SOL    HW1 4669   2.250   0.322   3.669
 1551SOL    HW2 4670   2.091   0.290   3.691
 1552SOL     OW 4671   3.328   1.417   2.815
 1552SOL    HW1 4672   3.269   1.423   2.895
 1552SOL    HW2 4673   3.313   1.329   2.769
 1553SOL     OW 4674   3.529   1.714   2.434
 1553SOL    HW1 4675   3.488   1.691   2.346
 1553SOL    HW2 4676   3.511   1.640   2.499
 1554SOL     OW 4677   2.460   0.729   2.132
 1554SOL    HW1 4678   2.484   0.798   2.064
 1554SOL    HW2 4679   2.382   0.762   2.186
 1555SOL     OW 4680   3.143   0.345   2.806
 1555SOL    HW1 4681   3.057   0.295   2.793
 1555SOL    HW2 4682   3.205   0.291   2.862
 1556SOL     OW 4683   3.438   1.662   2.169
 1556SOL    HW1 4684   3.527   1.708   2.172
 1556SOL    HW2 4685   3.417   1.638   2.074
 1557SOL     OW 4686   2.669   0.605   3.327
 1557SOL    HW1 4687   2.622   0.602   3.416
 1557SOL    HW2 4688   2.618   0.550   3.261
 1558SOL     OW 4689   3.256   0.469   3.536
 1558SOL    HW1 4690   3.236   0.512   3.624
 1558SOL    HW2 4691   3.334   0.407   3.545
 1559SOL     OW 4692   2.835   0.890   3.434
 1559SOL    HW1 4693   2.881   0.806   3.405
 1559SOL    HW2 4694   2.779   0.924   3.359
 1560SOL     OW 4695   2.853   0.410   3.104
 1560SOL    HW1 4696   2.776   0.444   3.158
 1560SOL    HW2 4697   2.819   0.359   3.025
 1561SOL     OW 4698   2.903   0.701   2.291
 1561SOL    HW1 4699   2.929   0.697   2.387
 1561SOL    HW2 4700   2.818   0.650   2.277
 1562SOL     OW 4701   1.938   0.811   2.651
 1562SOL    HW1 4702   2.037   0.799   2.660
 1562SOL    HW2 4703   1.914   0.906   2.672
 1563SOL     OW 4704   1.992   1.821   3.433
 1563SOL    HW1 4705   1.982   1.806   3.532
 1563SOL    HW2 4706   1.906   1.857   3.397
 1564SOL     OW 4707   2.727   0.348   2.057
 1564SOL    HW1 4708   2.786   0.411   2.008
 1564SOL    HW2 4709   2.746   0.254   2.028
 1565SOL     OW 4710   3.581   0.585   3.693
 1565SOL    HW1 4711   3.555   0.674   3.657
 1565SOL    HW2 4712   3.579   0.517   3.620
 1566SOL     OW 4713   3.224   1.144   2.407
 1566SOL    HW1 4714   3.307   1.115   2.359
 1566SOL    HW2 4715   3.175   1.211   2.351
 1567SOL     OW 4716   2.412   0.196   2.747
 1567SOL    HW1 4717   2.407   0.191   2.847
 1567SOL    HW2 4718   2.414   0.292   2.718
 1568SOL     OW 4719   2.870   1.456   2.339
 1568SOL    HW1 4720   2.824   1.528   2.287
 1568SOL    HW2 4721   2.866   1.476   2.437
 1569SOL     OW 4722   2.213   1.801   2.715
 1569SOL    HW1 4723   2.263   1.715   2.721
 1569SOL    HW2 4724   2.278   1.878   2.712
 1570SOL     OW 4725   3.657   1.066   2.735
 1570SOL    HW1 4726   3.595   1.051   2.659
 1570SOL    HW2 4727   3.605   1.077   2.820
 1571SOL     OW 4728   3.089   1.550   3.368
 1571SOL    HW1 4729   3.095   1.473   3.432
 1571SOL    HW2 4730   3.037   1.524   3.288
 1572SOL     OW 4731   2.183   0.943   2.104
 1572SOL    HW1 4732   2.265   0.982   2.062
 1572SOL    HW2 4733   2.156   0.861   2.055
 1573SOL     OW 4734   3.320   0.735   2.590
 1573SOL    HW1 4735   3.315   0.670   2.665
 1573SOL    HW2 4736   3.400   0.794   2.603
 1574SOL     OW 4737   2.323   1.266   3.589
 1574SOL    HW1 4738   2.273   1.267   3.503
 1574SOL    HW2 4739   2.260   1.248   3.665
 1575SOL     OW 4740   2.973   1.776   2.099
 1575SOL    HW1 4741   2.913   1.714   2.149
 1575SOL    HW2 4742   3.004   1.732   2.014
 1576SOL     OW 4743   2.064   0.285   3.360
 1576SOL    HW1 4744   1.984   0.345   3.347
 1576SOL    HW2 4745   2.054   0.236   3.446
 1577SOL     OW 4746   3.494   1.377   1.943
 1577SOL    HW1 4747   3.462   1.471   1.933
 1577SOL    HW2 4748   3.418   1.314   1.931
 1578SOL     OW 4749   2.326   1.743   2.185
 1578SOL    HW1 4750   2.359   1.782   2.271
 1578SOL    HW2 4751   2.402   1.736   2.120
 1579SOL     OW 4752   3.262   0.107   2.288
 1579SOL    HW1 4753   3.238   0.070   2.198
 1579SOL    HW2 4754   3.361   0.123   2.292
 1580SOL     OW 4755   2.111   1.785   3.103
 1580SOL    HW1 4756   2.168   1.720   3.153
 1580SOL    HW2 4757   2.095   1.752   3.010
 1581SOL     OW 4758   2.802   1.698   2.766
 1581SOL    HW1 4759   2.882   1.641   2.787
 1581SOL    HW2 4760   2.753   1.658   2.689
 1582SOL     OW 4761   2.244   0.700   2.342
 1582SOL    HW1 4762   2.289   0.610   2.339
 1582SOL    HW2 4763   2.150   0.689   2.375
 1583SOL     OW 4764   3.409   0.222   3.591
 1583SOL    HW1 4765   3.404   0.259   3.683
 1583SOL    HW2 4766   3.337   0.153   3.579
 1584SOL     OW 4767   2.476   0.122   1.979
 1584SOL    HW1 4768   2.574   0.100   1.986
 1584SOL    HW2 4769   2.445   0.105   1.886
 1585SOL     OW 4770   2.643   0.264   3.611
 1585SOL    HW1 4771   2.710   0.203   3.654
 1585SOL    HW2 4772   2.570   0.283   3.676
 1586SOL     OW 4773   2.750   1.514   3.057
 1586SOL    HW1 4774   2.727   1.489   2.963
 1586SOL    HW2 4775   2.811   1.445   3.096
 1587SOL     OW 4776   3.213   0.590   3.295
 1587SOL    HW1 4777   3.241   0.547   3.380
 1587SOL    HW2 4778   3.238   0.686   3.296
 1588SOL     OW 4779   2.665   1.402   2.786
 1588SOL    HW1 4780   2.755   1.416   2.744
 1588SOL    HW2 4781   2.594   1.404   2.715
 1589SOL     OW 4782   2.784   0.503   2.761
 1589SOL    HW1 4783   2.759   0.494   2.665
 1589SOL    HW2 4784   2.832   0.421   2.792
 1590SOL     OW 4785   2.401   0.064   2.374
 1590SOL    HW1 4786   2.320   0.065   2.432
 1590SOL    HW2 4787   2.404   0.147   2.319
 1591SOL     OW 4788   3.296   1.188   1.903
 1591SOL    HW1 4789   3.328   1.112   1.960
 1591SOL    HW2 4790   3.204   1.215   1.933
 1592SOL     OW 4791   2.159   0.035   2.033
 1592SOL    HW1 4792   2.208   0.119   2.012
 1592SOL    HW2 4793   2.221  -0.030   2.078
 1593SOL     OW 4794   2.797   0.236   2.342
 1593SOL    HW1 4795   2.749   0.277   2.264
 1593SOL    HW2 4796   2.896   0.234   2.323
 1594SOL     OW 4797   2.938   0.683   3.326
 1594SOL    HW1 4798   2.858   0.622   3.329
 1594SOL    HW2 4799   3.019   0.630   3.302
 1595SOL     OW 4800   3.089   1.570   2.655
 1595SOL    HW1 4801   3.110   1.644   2.590
 1595SOL    HW2 4802   3.157   1.570   2.728
 1596SOL     OW 4803   2.321   1.152   2.603
 1596SOL    HW1 4804   2.250   1.125   2.668
 1596SOL    HW2 4805   2.295   1.124   2.510
 1597SOL     OW 4806   3.133   1.797   2.453
 1597SOL    HW1 4807   3.177   1.861   2.389
 1597SOL    HW2 4808   3.083   1.849   2.523
 1598SOL     OW 4809   2.894   0.549   1.878
 1598SOL    HW1 4810   2.853   0.631   1.839
 1598SOL    HW2 4811   2.958   0.575   1.951
 1599SOL     OW 4812   1.940   0.556   3.248
 1599SOL    HW1 4813   2.032   0.555   3.207
 1599SOL    HW2 4814   1.934   0.630   3.315
 1600SOL     OW 4815   2.423   0.222   3.009
 1600SOL    HW1 4816   2.461   0.138   3.046
 1600SOL    HW2 4817   2.335   0.241   3.053
 1601SOL     OW 4818   2.728   0.454   2.504
 1601SOL    HW1 4819   2.696   0.526   2.442
 1601SOL    HW2 4820   2.752   0.373   2.451
 1602SOL     OW 4821   2.879   0.039   2.615
 1602SOL    HW1 4822   2.807   0.044   2.546
 1602SOL    HW2 4823   2.855  -0.030   2.684
 1603SOL     OW 4824   3.291   1.173   2.729
 1603SOL    HW1 4825   3.236   1.089   2.722
 1603SOL    HW2 4826   3.317   1.202   2.637
 1604SOL     OW 4827   3.328   0.590   2.854
 1604SOL    HW1 4828   3.298   0.495   2.861
 1604SOL    HW2 4829   3.401   0.606   2.920
 1605SOL     OW 4830   3.719   0.833   2.239
 1605SOL    HW1 4831   3.761   0.769   2.303
 1605SOL    HW2 4832   3.681   0.782   2.161
 1606SOL     OW 4833   2.350   1.385   2.036
 1606SOL    HW1 4834   2.263   1.370   2.083
 1606SOL    HW2 4835   2.333   1.411   1.941
 1607SOL     OW 4836   3.526   1.280   2.519
 1607SOL    HW1 4837   3.625   1.288   2.533
 1607SOL    HW2 4838   3.481   1.364   2.550
 1608SOL     OW 4839   3.252   0.575   1.940
 1608SOL    HW1 4840   3.198   0.554   2.021
 1608SOL    HW2 4841   3.343   0.534   1.949
 1609SOL     OW 4842   2.389   0.256   2.190
 1609SOL    HW1 4843   2.416   0.197   2.115
 1609SOL    HW2 4844   2.389   0.351   2.159
 1610SOL     OW 4845   3.616   1.223   3.450
 1610SOL    HW1 4846   3.707   1.184   3.437
 1610SOL    HW2 4847   3.624   1.319   3.474
 1611SOL     OW 4848   2.926   1.347   3.202
 1611SOL    HW1 4849   2.846   1.324   3.257
 1611SOL    HW2 4850   3.009   1.321   3.251
 1612SOL     OW 4851   3.454   1.629   3.487
 1612SOL    HW1 4852   3.481   1.663   3.397
 1612SOL    HW2 4853   3.533   1.591   3.533
 1613SOL     OW 4854   2.973   1.195   2.962
 1613SOL    HW1 4855   2.933   1.239   3.043
 1613SOL    HW2 4856   2.932   1.232   2.879
 1614SOL     OW 4857   3.500   1.099   2.941
 1614SOL    HW1 4858   3.505   1.180   3.000
 1614SOL    HW2 4859   3.414   1.101   2.890
 1615SOL     OW 4860   2.777   0.089   3.264
 1615SOL    HW1 4861   2.802   0.069   3.169
 1615SOL    HW2 4862   2.849   0.145   3.306
 1616SOL     OW 4863   2.842   1.116   3.581
 1616SOL    HW1 4864   2.743   1.122   3.591
 1616SOL    HW2 4865   2.865   1.036   3.525
 1617SOL     OW 4866   2.567   1.050   2.230
 1617SOL    HW1 4867   2.553   1.057   2.329
 1617SOL    HW2 4868   2.651   0.999   2.212
 1618SOL     OW 4869   2.272   0.813   3.113
 1618SOL    HW1 4870   2.358   0.825   3.163
 1618SOL    HW2 4871   2.230   0.726   3.140
 1619SOL     OW 4872   3.136   0.386   3.124
 1619SOL    HW1 4873   3.157   0.460   3.188
 1619SOL    HW2 4874   3.047   0.403   3.081
 1620SOL     OW 4875   1.926   1.564   3.193
 1620SOL    HW1 4876   1.880   1.646   3.159
 1620SOL    HW2 4877   2.024   1.583   3.202
 1621SOL     OW 4878   2.229   1.100   2.363
 1621SOL    HW1 4879   2.222   1.183   2.307
 1621SOL    HW2 4880   2.233   1.020   2.303
 1622SOL     OW 4881   2.428   0.537   2.727
 1622SOL    HW1 4882   2.440   0.603   2.653
 1622SOL    HW2 4883   2.474   0.571   2.810
 1623SOL     OW 4884   3.114   1.348   2.250
 1623SOL    HW1 4885   3.164   1.425   2.290
 1623SOL    HW2 4886   3.019   1.350   2.282
 1624SOL     OW 4887   3.134   1.445   3.004
 1624SOL    HW1 4888   3.181   1.458   3.091
 1624SOL    HW2 4889   3.068   1.371   3.013
 1625SOL     OW 4890   3.444   0.639   2.334
 1625SOL    HW1 4891   3.413   0.700   2.407
 1625SOL    HW2 4892   3.494   0.691   2.265
 1626SOL     OW 4893   2.216   1.510   3.191
 1626SOL    HW1 4894   2.195   1.466   3.104
 1626SOL    HW2 4895   2.313   1.536   3.194
 1627SOL     OW 4896   2.264   0.751   3.460
 1627SOL    HW1 4897   2.332   0.806   3.413
 1627SOL    HW2 4898   2.304   0.663   3.487
 1628SOL     OW 4899   3.449   0.779   3.532
 1628SOL    HW1 4900   3.357   0.817   3.527
 1628SOL    HW2 4901   3.509   0.826   3.467
 1629SOL     OW 4902   2.875   0.105   3.632
 1629SOL    HW1 4903   2.881   0.190   3.580
 1629SOL    HW2 4904   2.907   0.029   3.575
 1630SOL     OW 4905   2.366   0.050   3.602
 1630SOL    HW1 4906   2.324  -0.007   3.532
 1630SOL    HW2 4907   2.300   0.119   3.634
 1631SOL     OW 4908   2.435   0.870   2.891
 1631SOL    HW1 4909   2.479   0.959   2.882
 1631SOL    HW2 4910   2.372   0.870   2.968
 1632SOL     OW 4911   3.222   0.862   2.907
 1632SOL    HW1 4912   3.147   0.862   2.841
 1632SOL    HW2 4913   3.259   0.770   2.916
 1633SOL     OW 4914   3.071   0.525   2.137
 1633SOL    HW1 4915   3.084   0.441   2.191
 1633SOL    HW2 4916   3.042   0.599   2.197
 1634SOL     OW 4917   2.169   0.213   3.093
 1634SOL    HW1 4918   2.146   0.250   3.183
 1634SOL    HW2 4919   2.139   0.118   3.087
 1635SOL     OW 4920   1.899   1.310   3.144
 1635SOL    HW1 4921   1.952   1.261   3.212
 1635SOL    HW2 4922   1.921   1.408   3.149
 1636SOL     OW 4923   2.594   0.634   2.926
 1636SOL    HW1 4924   2.653   0.608   2.850
 1636SOL    HW2 4925   2.566   0.730   2.915
 1637SOL     OW 4926   3.590   0.935   3.716
 1637SOL    HW1 4927   3.544   0.928   3.627
 1637SOL    HW2 4928   3.528   0.979   3.782
 1638SOL     OW 4929   2.169   0.063   2.480
 1638SOL    HW1 4930   2.158   0.157   2.513
 1638SOL    HW2 4931   2.164   0.000   2.557
 1639SOL     OW 4932   3.484   0.367   2.236
 1639SOL    HW1 4933   3.486   0.291   2.300
 1639SOL    HW2 4934   3.436   0.444   2.276
 1640SOL     OW 4935   2.885   0.766   2.828
 1640SOL    HW1 4936   2.900   0.787   2.924
 1640SOL    HW2 4937   2.855   0.671   2.819
 1641SOL     OW 4938   2.842   1.573   3.562
 1641SOL    HW1 4939   2.822   1.617   3.474
 1641SOL    HW2 4940   2.881   1.482   3.546
 1642SOL     OW 4941   3.721   1.518   3.467
 1642SOL    HW1 4942   3.735   1.545   3.372
 1642SOL    HW2 4943   3.804   1.540   3.520
 1643SOL     OW 4944   2.212   0.898   3.666
 1643SOL    HW1 4945   2.288   0.942   3.714
 1643SOL    HW2 4946   2.247   0.851   3.584
 1644SOL     OW 4947   3.402   0.274   1.987
 1644SOL    HW1 4948   3.341   0.199   2.010
 1644SOL    HW2 4949   3.424   0.326   2.070
 1645SOL     OW 4950   3.165   0.838   1.904
 1645SOL    HW1 4951   3.199   0.745   1.919
 1645SOL    HW2 4952   3.183   0.865   1.809
 1646SOL     OW 4953   2.930   1.333   2.711
 1646SOL    HW1 4954   2.937   1.249   2.656
 1646SOL    HW2 4955   2.992   1.402   2.675
 1647SOL     OW 4956   2.181   0.810   2.811
 1647SOL    HW1 4957   2.274   0.846   2.816
 1647SOL    HW2 4958   2.175   0.725   2.863
 1648SOL     OW 4959   2.201   0.509   2.868
 1648SOL    HW1 4960   2.149   0.426   2.851
 1648SOL    HW2 4961   2.278   0.514   2.804
 1649SOL     OW 4962   3.000   0.380   3.540
 1649SOL    HW1 4963   2.955   0.443   3.604
 1649SOL    HW2 4964   3.093   0.411   3.523
 1650SOL     OW 4965   3.022   0.207   3.339
 1650SOL    HW1 4966   3.022   0.271   3.416
 1650SOL    HW2 4967   3.050   0.255   3.256
 1651SOL     OW 4968   1.870   1.326   2.062
 1651SOL    HW1 4969   1.777   1.347   2.031
 1651SOL    HW2 4970   1.880   1.227   2.075
 1652SOL     OW 4971   1.950   1.801   2.789
 1652SOL    HW1 4972   1.908   1.715   2.762
 1652SOL    HW2 4973   2.044   1.804   2.755
 1653SOL     OW 4974   2.366   1.568   2.772
 1653SOL    HW1 4975   2.432   1.642   2.781
 1653SOL    HW2 4976   2.410   1.489   2.730
 1654SOL     OW 4977   2.864   0.796   3.100
 1654SOL    HW1 4978   2.905   0.764   3.186
 1654SOL    HW2 4979   2.768   0.769   3.097
 1655SOL     OW 4980   1.902   0.544   2.976
 1655SOL    HW1 4981   1.987   0.511   2.935
 1655SOL    HW2 4982   1.915   0.559   3.074
 1656SOL     OW 4983   2.051   0.520   3.584
 1656SOL    HW1 4984   2.110   0.480   3.514
 1656SOL    HW2 4985   1.993   0.591   3.543
 1657SOL     OW 4986   3.231   0.950   3.522
 1657SOL    HW1 4987   3.270   1.039   3.542
 1657SOL    HW2 4988   3.241   0.930   3.425
 1658SOL     OW 4989   2.677   0.572   2.187
 1658SOL    HW1 4990   2.684   0.483   2.141
 1658SOL    HW2 4991   2.583   0.606   2.179
 1659SOL     OW 4992   3.519   0.604   3.068
 1659SOL    HW1 4993   3.481   0.535   3.130
 1659SOL    HW2 4994   3.601   0.568   3.024
 1660SOL     OW 4995   2.114   1.564   3.606
 1660SOL    HW1 4996   2.084   1.621   3.682
 1660SOL    HW2 4997   2.107   1.467   3.632
 1661SOL     OW 4998   2.533   0.464   3.131
 1661SOL    HW1 4999   2.499   0.375   3.101
 1661SOL    HW2 5000   2.559   0.518   3.051
 1662SOL     OW 5001   2.792   1.678   3.327
 1662SOL    HW1 5002   2.768   1.660   3.232
 1662SOL    HW2 5003   2.822   1.772   3.337
 1663SOL     OW 5004   2.335   0.500   2.053
 1663SOL    HW1 5005   2.396   0.580   2.057
 1663SOL    HW2 5006   2.240   0.531   2.060
 1664SOL     OW 5007   2.021   1.137   3.328
 1664SOL    HW1 5008   2.043   1.076   3.404
 1664SOL    HW2 5009   2.031   1.088   3.242
 1665SOL     OW 5010   3.209   1.059   3.096
 1665SOL    HW1 5011   3.233   0.996   3.022
 1665SOL    HW2 5012   3.119   1.099   3.078
 1666SOL     OW 5013   3.164   0.855   2.171
 1666SOL    HW1 5014   3.078   0.824   2.213
 1666SOL    HW2 5015   3.160   0.841   2.072
 1667SOL     OW 5016   3.621   1.747   3.016
 1667SOL    HW1 5017   3.682   1.777   2.943
 1667SOL    HW2 5018   3.583   1.658   2.994
 1668SOL     OW 5019   3.114   1.731   2.990
 1668SOL    HW1 5020   3.198   1.736   2.936
 1668SOL    HW2 5021   3.091   1.635   3.008
 1669SOL     OW 5022   1.945   1.258   2.884
 1669SOL    HW1 5023   1.940   1.257   2.984
 1669SOL    HW2 5024   1.862   1.217   2.846
 1670SOL     OW 5025   2.550   1.662   3.578
 1670SOL    HW1 5026   2.494   1.743   3.587
 1670SOL    HW2 5027   2.602   1.666   3.492
 1671SOL     OW 5028   3.588   0.135   2.385
 1671SOL    HW1 5029   3.661   0.118   2.318
 1671SOL    HW2 5030   3.557   0.048   2.423
 1672SOL     OW 5031   3.250   1.573   2.339
 1672SOL    HW1 5032   3.317   1.585   2.265
 1672SOL    HW2 5033   3.210   1.662   2.362
 1673SOL     OW 5034   1.992   1.794   3.713
 1673SOL    HW1 5035   1.951   1.720   3.766
 1673SOL    HW2 5036   2.056   1.845   3.771
 1674SOL     OW 5037   3.142   0.927   2.534
 1674SOL    HW1 5038   3.202   0.846   2.536
 1674SOL    HW2 5039   3.182   0.996   2.474
 1675SOL     OW 5040   2.692   1.273   3.284
 1675SOL    HW1 5041   2.687   1.306   3.379
 1675SOL    HW2 5042   2.606   1.292   3.238
 1676SOL     OW 5043   2.534   1.616   2.016
 1676SOL    HW1 5044   2.543   1.626   1.917
 1676SOL    HW2 5045   2.494   1.527   2.037
 1677SOL     OW 5046   3.512   1.720   3.256
 1677SOL    HW1 5047   3.565   1.730   3.172
 1677SOL    HW2 5048   3.485   1.810   3.290
 1678SOL     OW 5049   3.703   0.175   2.825
 1678SOL    HW1 5050   3.742   0.090   2.789
 1678SOL    HW2 5051   3.605   0.177   2.806
 1679SOL     OW 5052   2.125   0.326   2.582
 1679SOL    HW1 5053   2.046   0.377   2.548
 1679SOL    HW2 5054   2.116   0.311   2.680
 1680SOL     OW 5055   3.056   1.612   1.893
 1680SOL    HW1 5056   3.062   1.519   1.930
 1680SOL    HW2 5057   2.997   1.612   1.813
 1681SOL     OW 5058   2.684   1.002   3.234
 1681SOL    HW1 5059   2.724   1.001   3.142
 1681SOL    HW2 5060   2.694   1.094   3.274
 1682SOL     OW 5061   2.778   0.910   2.153
 1682SOL    HW1 5062   2.841   0.948   2.085
 1682SOL    HW2 5063   2.818   0.827   2.192
 1683SOL     OW 5064   3.366   1.607   1.906
 1683SOL    HW1 5065   3.274   1.644   1.913
 1683SOL    HW2 5066   3.404   1.627   1.816
 1684SOL     OW 5067   2.234   1.288   3.352
 1684SOL    HW1 5068   2.221   1.381   3.318
 1684SOL    HW2 5069   2.150   1.236   3.339
 1685SOL     OW 5070   3.476   1.292   3.151
 1685SOL    HW1 5071   3.536   1.295   3.231
 1685SOL    HW2 5072   3.401   1.356   3.164
 1686SOL     OW 5073   2.901   1.098   2.558
 1686SOL    HW1 5074   2.831   1.051   2.612
 1686SOL    HW2 5075   2.960   1.030   2.515
 1687SOL     OW 5076   2.876   0.236   2.833
 1687SOL    HW1 5077   2.868   0.200   2.740
 1687SOL    HW2 5078   2.874   0.160   2.898
 1688SOL     OW 5079   2.452   1.487   2.353
 1688SOL    HW1 5080   2.494   1.429   2.283
 1688SOL    HW2 5081   2.408   1.566   2.309
 1689SOL     OW 5082   3.571   0.385   3.243
 1689SOL    HW1 5083   3.644   0.454   3.247
 1689SOL    HW2 5084   3.599   0.310   3.184
 1690SOL     OW 5085   2.117   1.348   2.152
 1690SOL    HW1 5086   2.021   1.349   2.125
 1690SOL    HW2 5087   2.129   1.401   2.236
 1691SOL     OW 5088   1.967   1.013   3.588
 1691SOL    HW1 5089   1.890   0.980   3.642
 1691SOL    HW2 5090   2.052   0.983   3.630
 1692SOL     OW 5091   2.534   0.203   3.351
 1692SOL    HW1 5092   2.624   0.187   3.311
 1692SOL    HW2 5093   2.542   0.208   3.450
 1693SOL     OW 5094   1.937   0.345   1.895
 1693SOL    HW1 5095   1.845   0.317   1.866
 1693SOL    HW2 5096   1.968   0.422   1.839
 1694SOL     OW 5097   3.302   0.856   3.260
 1694SOL    HW1 5098   3.245   0.908   3.197
 1694SOL    HW2 5099   3.398   0.868   3.236
 1695SOL     OW 5100   1.934   0.166   2.180
 1695SOL    HW1 5101   1.917   0.249   2.126
 1695SOL    HW2 5102   2.024   0.129   2.158
 1696SOL     OW 5103   3.045   1.335   1.981
 1696SOL    HW1 5104   2.946   1.324   1.983
 1696SOL    HW2 5105   3.079   1.350   2.074
 1697SOL     OW 5106   2.475   0.842   3.293
 1697SOL    HW1 5107   2.531   0.923   3.276
 1697SOL    HW2 5108   2.534   0.762   3.296
 1698SOL     OW 5109   3.355   1.767   2.821
 1698SOL    HW1 5110   3.388   1.831   2.752
 1698SOL    HW2 5111   3.421   1.761   2.896
 1699SOL     OW 5112   2.578   0.565   3.570
 1699SOL    HW1 5113   2.597   0.630   3.644
 1699SOL    HW2 5114   2.638   0.485   3.579
 1700SOL     OW 5115   3.312   1.220   3.495
 1700SOL    HW1 5116   3.303   1.210   3.594
 1700SOL    HW2 5117   3.408   1.213   3.469
 1701SOL     OW 5118   2.252   1.741   3.422
 1701SOL    HW1 5119   2.161   1.782   3.420
 1701SOL    HW2 5120   2.245   1.647   3.454
 1702SOL     OW 5121   3.536   0.883   3.116
 1702SOL    HW1 5122   3.509   0.794   3.079
 1702SOL    HW2 5123   3.537   0.951   3.043
 1703SOL     OW 5124   3.087   0.325   2.311
 1703SOL    HW1 5125   3.152   0.251   2.300
 1703SOL    HW2 5126   3.107   0.375   2.395
 1704SOL     OW 5127   2.456   0.745   2.514
 1704SOL    HW1 5128   2.506   0.830   2.495
 1704SOL    HW2 5129   2.368   0.747   2.466
 1705SOL     OW 5130   3.639   0.342   3.504
 1705SOL    HW1 5131   3.622   0.373   3.410
 1705SOL    HW2 5132   3.555   0.305   3.542
 1706SOL     OW 5133   3.592   0.934   3.379
 1706SOL    HW1 5134   3.630   1.025   3.394
 1706SOL    HW2 5135   3.584   0.917   3.280
 1707SOL     OW 5136   2.721   1.374   1.878
 1707SOL    HW1 5137   2.675   1.389   1.966
 1707SOL    HW2 5138   2.765   1.459   1.848
 1708SOL     OW 5139   2.523   1.790   2.815
 1708SOL    HW1 5140   2.477   1.878   2.802
 1708SOL    HW2 5141   2.622   1.802   2.808
 1709SOL     OW 5142   2.721   0.956   2.723
 1709SOL    HW1 5143   2.775   0.887   2.771
 1709SOL    HW2 5144   2.689   1.025   2.789
 1710SOL     OW 5145   2.945   0.984   1.949
 1710SOL    HW1 5146   2.922   1.037   1.867
 1710SOL    HW2 5147   3.026   0.928   1.930
 1711SOL     OW 5148   3.723   1.569   2.713
 1711SOL    HW1 5149   3.652   1.557   2.643
 1711SOL    HW2 5150   3.724   1.490   2.773
 1712SOL     OW 5151   2.083   1.314   3.706
 1712SOL    HW1 5152   2.018   1.241   3.685
 1712SOL    HW2 5153   2.087   1.328   3.804
 1713SOL     OW 5154   1.941   1.240   2.515
 1713SOL    HW1 5155   1.940   1.193   2.603
 1713SOL    HW2 5156   2.023   1.212   2.464
 1714SOL     OW 5157   2.534   1.391   3.486
 1714SOL    HW1 5158   2.456   1.341   3.524
 1714SOL    HW2 5159   2.531   1.486   3.517
 1715SOL     OW 5160   3.686   0.192   3.089
 1715SOL    HW1 5161   3.682   0.102   3.133
 1715SOL    HW2 5162   3.689   0.181   2.990
 1716SOL     OW 5163   2.290   0.424   2.382
 1716SOL    HW1 5164   2.320   0.352   2.320
 1716SOL    HW2 5165   2.251   0.384   2.465
 1717SOL     OW 5166   3.567   1.487   2.966
 1717SOL    HW1 5167   3.474   1.462   2.939
 1717SOL    HW2 5168   3.593   1.437   3.048
 1718SOL     OW 5169   2.179   0.547   3.142
 1718SOL    HW1 5170   2.217   0.488   3.214
 1718SOL    HW2 5171   2.219   0.521   3.054
 1719SOL     OW 5172   2.674   1.586   2.549
 1719SOL    HW1 5173   2.706   1.596   2.455
 1719SOL    HW2 5174   2.595   1.524   2.551
 1720SOL     OW 5175   3.286   0.214   2.974
 1720SOL    HW1 5176   3.338   0.149   3.029
 1720SOL    HW2 5177   3.237   0.277   3.035
 1721SOL     OW 5178   2.863   0.034   3.016
 1721SOL    HW1 5179   2.800  -0.038   2.985
 1721SOL    HW2 5180   2.956  -0.002   3.016
 1722SOL     OW 5181   2.632   1.330   2.163
 1722SOL    HW1 5182   2.586   1.243   2.180
 1722SOL    HW2 5183   2.723   1.327   2.204
 1723SOL     OW 5184   2.480   1.567   3.146
 1723SOL    HW1 5185   2.475   1.649   3.203
 1723SOL    HW2 5186   2.569   1.564   3.101
 1724SOL     OW 5187   3.214   0.052   2.030
 1724SOL    HW1 5188   3.249   0.011   1.946
 1724SOL    HW2 5189   3.124   0.014   2.050
 1725SOL     OW 5190   3.162   0.453   2.553
 1725SOL    HW1 5191   3.103   0.533   2.557
 1725SOL    HW2 5192   3.177   0.418   2.646
 1726SOL     OW 5193   3.455   0.221   2.744
 1726SOL    HW1 5194   3.371   0.220   2.798
 1726SOL    HW2 5195   3.457   0.304   2.688
 1727SOL     OW 5196   1.901   1.077   2.162
 1727SOL    HW1 5197   2.000   1.066   2.153
 1727SOL    HW2 5198   1.861   0.991   2.194
 1728SOL     OW 5199   2.737   1.646   2.199
 1728SOL    HW1 5200   2.660   1.611   2.145
 1728SOL    HW2 5201   2.705   1.717   2.261
 1729SOL     OW 5202   2.092   0.628   3.837
 1729SOL    HW1 5203   1.999   0.626   3.874
 1729SOL    HW2 5204   2.093   0.589   3.745
 1730SOL     OW 5205   2.087   0.275   4.720
 1730SOL    HW1 5206   2.122   0.258   4.812
 1730SOL    HW2 5207   1.999   0.230   4.708
 1731SOL     OW 5208   1.881   0.368   4.371
 1731SOL    HW1 5209   1.799   0.411   4.410
 1731SOL    HW2 5210   1.853   0.295   4.308
 1732SOL     OW 5211   3.417   1.511   4.427
 1732SOL    HW1 5212   3.360   1.495   4.508
 1732SOL    HW2 5213   3.358   1.521   4.347
 1733SOL     OW 5214   2.997   0.703   4.441
 1733SOL    HW1 5215   3.054   0.781   4.416
 1733SOL    HW2 5216   2.937   0.729   4.517
 1734SOL     OW 5217   3.617   0.607   3.955
 1734SOL    HW1 5218   3.605   0.594   3.856
 1734SOL    HW2 5219   3.587   0.526   4.004
 1735SOL     OW 5220   2.630   1.144   4.747
 1735SOL    HW1 5221   2.552   1.161   4.807
 1735SOL    HW2 5222   2.664   1.231   4.711
 1736SOL     OW 5223   2.547   1.012   4.389
 1736SOL    HW1 5224   2.616   0.996   4.459
 1736SOL    HW2 5225   2.474   1.069   4.427
 1737SOL     OW 5226   3.465   0.447   4.461
 1737SOL    HW1 5227   3.391   0.493   4.411
 1737SOL    HW2 5228   3.516   0.515   4.514
 1738SOL     OW 5229   2.093   1.713   4.207
 1738SOL    HW1 5230   2.127   1.790   4.261
 1738SOL    HW2 5231   2.137   1.713   4.117
 1739SOL     OW 5232   2.092   1.434   4.262
 1739SOL    HW1 5233   2.066   1.530   4.262
 1739SOL    HW2 5234   2.021   1.380   4.307
 1740SOL     OW 5235   2.102   1.091   4.610
 1740SOL    HW1 5236   2.116   1.007   4.662
 1740SOL    HW2 5237   2.047   1.155   4.665
 1741SOL     OW 5238   2.468   0.964   3.847
 1741SOL    HW1 5239   2.475   1.048   3.793
 1741SOL    HW2 5240   2.514   0.977   3.935
 1742SOL     OW 5241   1.984   0.643   4.287
 1742SOL    HW1 5242   1.939   0.555   4.304
 1742SOL    HW2 5243   1.983   0.697   4.371
 1743SOL     OW 5244   3.704   1.767   4.083
 1743SOL    HW1 5245   3.758   1.738   4.163
 1743SOL    HW2 5246   3.734   1.857   4.054
 1744SOL     OW 5247   1.889   1.596   3.841
 1744SOL    HW1 5248   1.870   1.500   3.862
 1744SOL    HW2 5249   1.856   1.654   3.916
 1745SOL     OW 5250   3.551   0.922   4.336
 1745SOL    HW1 5251   3.646   0.893   4.344
 1745SOL    HW2 5252   3.543   0.987   4.261
 1746SOL     OW 5253   3.503   1.108   4.156
 1746SOL    HW1 5254   3.589   1.110   4.104
 1746SOL    HW2 5255   3.517   1.155   4.244
 1747SOL     OW 5256   2.475   1.365   4.450
 1747SOL    HW1 5257   2.426   1.278   4.459
 1747SOL    HW2 5258   2.452   1.408   4.363
 1748SOL     OW 5259   2.671   0.004   4.226
 1748SOL    HW1 5260   2.711   0.095   4.217
 1748SOL    HW2 5261   2.571   0.012   4.232
 1749SOL     OW 5262   3.387   0.999   3.914
 1749SOL    HW1 5263   3.324   0.923   3.927
 1749SOL    HW2 5264   3.435   1.017   4.000
 1750SOL     OW 5265   3.529   1.714   4.296
 1750SOL    HW1 5266   3.488   1.691   4.208
 1750SOL    HW2 5267   3.511   1.640   4.361
 1751SOL     OW 5268   2.460   0.729   3.994
 1751SOL    HW1 5269   2.484   0.798   3.926
 1751SOL    HW2 5270   2.382   0.762   4.048
 1752SOL     OW 5271   3.143   0.345   4.668
 1752SOL    HW1 5272   3.057   0.295   4.655
 1752SOL    HW2 5273   3.205   0.291   4.724
 1753SOL     OW 5274   3.438   1.662   4.031
 1753SOL    HW1 5275   3.527   1.708   4.034
 1753SOL    HW2 5276   3.417   1.638   3.936
 1754SOL     OW 5277   2.903   0.701   4.153
 1754SOL    HW1 5278   2.929   0.697   4.249
 1754SOL    HW2 5279   2.818   0.650   4.139
 1755SOL     OW 5280   1.938   0.811   4.513
 1755SOL    HW1 5281   2.037   0.799   4.522
 1755SOL    HW2 5282   1.914   0.906   4.534
 1756SOL     OW 5283   2.727   0.348   3.919
 1756SOL    HW1 5284   2.786   0.411   3.870
 1756SOL    HW2 5285   2.746   0.254   3.890
 1757SOL     OW 5286   3.224   1.144   4.269
 1757SOL    HW1 5287   3.307   1.115   4.221
 1757SOL    HW2 5288   3.175   1.211   4.213
 1758SOL     OW 5289   2.870   1.456   4.201
 1758SOL    HW1 5290   2.824   1.528   4.149
 1758SOL    HW2 5291   2.866   1.476   4.299
 1759SOL     OW 5292   2.213   1.801   4.577
 1759SOL    HW1 5293   2.263   1.715   4.583
 1759SOL    HW2 5294   2.278   1.878   4.574
 1760SOL     OW 5295   3.657   1.066   4.597
 1760SOL    HW1 5296   3.595   1.051   4.521
 1760SOL    HW2 5297   3.605   1.077   4.682
 1761SOL     OW 5298   2.183   0.943   3.966
 1761SOL    HW1 5299   2.265   0.982   3.924
 1761SOL    HW2 5300   2.156   0.861   3.917
 1762SOL     OW 5301   3.320   0.735   4.452
 1762SOL    HW1 5302   3.315   0.670   4.527
 1762SOL    HW2 5303   3.400   0.794   4.465
 1763SOL     OW 5304   2.973   1.776   3.961
 1763SOL    HW1 5305   2.913   1.714   4.011
 1763SOL    HW2 5306   3.004   1.732   3.876
 1764SOL     OW 5307   3.494   1.377   3.805
 1764SOL    HW1 5308   3.462   1.471   3.795
 1764SOL    HW2 5309   3.418   1.314   3.793
 1765SOL     OW 5310   2.326   1.743   4.047
 1765SOL    HW1 5311   2.359   1.782   4.133
 1765SOL    HW2 5312   2.402   1.736   3.982
 1766SOL     OW 5313   3.262   0.107   4.150
 1766SOL    HW1 5314   3.238   0.070   4.060
 1766SOL    HW2 5315   3.361   0.123   4.154
 1767SOL     OW 5316   2.244   0.700   4.204
 1767SOL    HW1 5317   2.289   0.610   4.201
 1767SOL    HW2 5318   2.150   0.689   4.237
 1768SOL     OW 5319   2.476   0.122   3.841
 1768SOL    HW1 5320   2.574   0.100   3.848
 1768SOL    HW2 5321   2.445   0.105   3.748
 1769SOL     OW 5322   2.401   0.064   4.236
 1769SOL    HW1 5323   2.320   0.065   4.294
 1769SOL    HW2 5324   2.404   0.147   4.181
 1770SOL     OW 5325   3.296   1.188   3.765
 1770SOL    HW1 5326   3.328   1.112   3.822
 1770SOL    HW2 5327   3.204   1.215   3.795
 1771SOL     OW 5328   2.159   0.035   3.895
 1771SOL    HW1 5329   2.208   0.119   3.874
 1771SOL    HW2 5330   2.221  -0.030   3.940
 1772SOL     OW 5331   2.797   0.236   4.204
 1772SOL    HW1 5332   2.749   0.277   4.126
 1772SOL    HW2 5333   2.896   0.234   4.185
 1773SOL     OW 5334   2.321   1.152   4.465
 1773SOL    HW1 5335   2.250   1.125   4.530
 1773SOL    HW2 5336   2.295   1.124   4.372
 1774SOL     OW 5337   3.133   1.797   4.315
 1774SOL    HW1 5338   3.177   1.861   4.251
 1774SOL    HW2 5339   3.083   1.849   4.385
 1775SOL     OW 5340   2.894   0.549   3.740
 1775SOL    HW1 5341   2.853   0.631   3.701
 1775SOL    HW2 5342   2.958   0.575   3.813
 1776SOL     OW 5343   2.728   0.454   4.366
 1776SOL    HW1 5344   2.696   0.526   4.304
 1776SOL    HW2 5345   2.752   0.373   4.313
 1777SOL     OW 5346   2.879   0.039   4.477
 1777SOL    HW1 5347   2.807   0.044   4.408
 1777SOL    HW2 5348   2.855  -0.030   4.546
 1778SOL     OW 5349   3.719   0.833   4.101
 1778SOL    HW1 5350   3.761   0.769   4.165
 1778SOL    HW2 5351   3.681   0.782   4.023
 1779SOL     OW 5352   2.350   1.385   3.898
 1779SOL    HW1 5353   2.263   1.370   3.945
 1779SOL    HW2 5354   2.333   1.411   3.803
 1780SOL     OW 5355   3.526   1.280   4.381
 1780SOL    HW1 5356   3.625   1.288   4.395
 1780SOL    HW2 5357   3.481   1.364   4.412
 1781SOL     OW 5358   3.252   0.575   3.802
 1781SOL    HW1 5359   3.198   0.554   3.883
 1781SOL    HW2 5360   3.343   0.534   3.811
 1782SOL     OW 5361   2.389   0.256   4.052
 1782SOL    HW1 5362   2.416   0.197   3.977
 1782SOL    HW2 5363   2.389   0.351   4.021
 1783SOL     OW 5364   2.567   1.050   4.092
 1783SOL    HW1 5365   2.553   1.057   4.191
 1783SOL    HW2 5366   2.651   0.999   4.074
 1784SOL     OW 5367   2.229   1.100   4.225
 1784SOL    HW1 5368   2.222   1.183   4.169
 1784SOL    HW2 5369   2.233   1.020   4.165
 1785SOL     OW 5370   2.428   0.537   4.589
 1785SOL    HW1 5371   2.440   0.603   4.515
 1785SOL    HW2 5372   2.474   0.571   4.672
 1786SOL     OW 5373   3.114   1.348   4.112
 1786SOL    HW1 5374   3.164   1.425   4.152
 1786SOL    HW2 5375   3.019   1.350   4.144
 1787SOL     OW 5376   3.444   0.639   4.196
 1787SOL    HW1 5377   3.413   0.700   4.269
 1787SOL    HW2 5378   3.494   0.691   4.127
 1788SOL     OW 5379   3.071   0.525   3.999
 1788SOL    HW1 5380   3.084   0.441   4.053
 1788SOL    HW2 5381   3.042   0.599   4.059
 1789SOL     OW 5382   2.169   0.063   4.342
 1789SOL    HW1 5383   2.158   0.157   4.375
 1789SOL    HW2 5384   2.164   0.000   4.419
 1790SOL     OW 5385   3.484   0.367   4.098
 1790SOL    HW1 5386   3.486   0.291   4.162
 1790SOL    HW2 5387   3.436   0.444   4.138
 1791SOL     OW 5388   3.402   0.274   3.849
 1791SOL    HW1 5389   3.341   0.199   3.872
 1791SOL    HW2 5390   3.424   0.326   3.932
 1792SOL     OW 5391   3.165   0.838   3.766
 1792SOL    HW1 5392   3.199   0.745   3.781
 1792SOL    HW2 5393   3.183   0.865   3.671
 1793SOL     OW 5394   2.930   1.333   4.573
 1793SOL    HW1 5395   2.937   1.249   4.518
 1793SOL    HW2 5396   2.992   1.402   4.537
 1794SOL     OW 5397   1.870   1.326   3.924
 1794SOL    HW1 5398   1.777   1.347   3.893
 1794SOL    HW2 5399   1.880   1.227   3.937
 1795SOL     OW 5400   1.950   1.801   4.651
 1795SOL    HW1 5401   1.908   1.715   4.624
 1795SOL    HW2 5402   2.044   1.804   4.617
 1796SOL     OW 5403   2.677   0.572   4.049
 1796SOL    HW1 5404   2.684   0.483   4.003
 1796SOL    HW2 5405   2.583   0.606   4.041
 1797SOL     OW 5406   2.335   0.500   3.915
 1797SOL    HW1 5407   2.396   0.580   3.919
 1797SOL    HW2 5408   2.240   0.531   3.922
 1798SOL     OW 5409   3.164   0.855   4.033
 1798SOL    HW1 5410   3.078   0.824   4.075
 1798SOL    HW2 5411   3.160   0.841   3.934
 1799SOL     OW 5412   3.588   0.135   4.247
 1799SOL    HW1 5413   3.661   0.118   4.180
 1799SOL    HW2 5414   3.557   0.048   4.285
 1800SOL     OW 5415   3.250   1.573   4.201
 1800SOL    HW1 5416   3.317   1.585   4.127
 1800SOL    HW2 5417   3.210   1.662   4.224
 1801SOL     OW 5418   3.142   0.927   4.396
 1801SOL    HW1 5419   3.202   0.846   4.398
 1801SOL    HW2 5420   3.182   0.996   4.336
 1802SOL     OW 5421   2.534   1.616   3.878
 1802SOL    HW1 5422   2.543   1.626   3.779
 1802SOL    HW2 5423   2.494   1.527   3.899
 1803SOL     OW 5424   3.703   0.175   4.687
 1803SOL    HW1 5425   3.742   0.090   4.651
 1803SOL    HW2 5426   3.605   0.177   4.668
 1804SOL     OW 5427   2.125   0.326   4.444
 1804SOL    HW1 5428   2.046   0.377   4.410
 1804SOL    HW2 5429   2.116   0.311   4.542
 1805SOL     OW 5430   3.056   1.612   3.755
 1805SOL    HW1 5431   3.062   1.519   3.792
 1805SOL    HW2 5432   2.997   1.612   3.675
 1806SOL     OW 5433   2.778   0.910   4.015
 1806SOL    HW1 5434   2.841   0.948   3.947
 1806SOL    HW2 5435   2.818   0.827   4.054
 1807SOL     OW 5436   3.366   1.607   3.768
 1807SOL    HW1 5437   3.274   1.644   3.775
 1807SOL    HW2 5438   3.404   1.627   3.678
 1808SOL     OW 5439   2.901   1.098   4.420
 1808SOL    HW1 5440   2.831   1.051   4.474
 1808SOL    HW2 5441   2.960   1.030   4.377
 1809SOL     OW 5442   2.452   1.487   4.215
 1809SOL    HW1 5443   2.494   1.429   4.145
 1809SOL    HW2 5444   2.408   1.566   4.171
 1810SOL     OW 5445   2.117   1.348   4.014
 1810SOL    HW1 5446   2.021   1.349   3.987
 1810SOL    HW2 5447   2.129   1.401   4.098
 1811SOL     OW 5448   1.937   0.345   3.757
 1811SOL    HW1 5449   1.845   0.317   3.728
 1811SOL    HW2 5450   1.968   0.422   3.701
 1812SOL     OW 5451   1.934   0.166   4.042
 1812SOL    HW1 5452   1.917   0.249   3.988
 1812SOL    HW2 5453   2.024   0.129   4.020
 1813SOL     OW 5454   3.045   1.335   3.843
 1813SOL    HW1 5455   2.946   1.324   3.845
 1813SOL    HW2 5456   3.079   1.350   3.936
 1814SOL     OW 5457   3.087   0.325   4.173
 1814SOL    HW1 5458   3.152   0.251   4.162
 1814SOL    HW2 5459   3.107   0.375   4.257
 1815SOL     OW 5460   2.456   0.745   4.376
 1815SOL    HW1 5461   2.506   0.830   4.357
 1815SOL    HW2 5462   2.368   0.747   4.328
 1816SOL     OW 5463   2.721   1.374   3.740
 1816SOL    HW1 5464   2.675   1.389   3.828
 1816SOL    HW2 5465   2.765   1.459   3.710
 1817SOL     OW 5466   2.523   1.790   4.677
 1817SOL    HW1 5467   2.477   1.878   4.664
 1817SOL    HW2 5468   2.622   1.802   4.670
 1818SOL     OW 5469   2.721   0.956   4.585
 1818SOL    HW1 5470   2.775   0.887   4.633
 1818SOL    HW2 5471   2.689   1.025   4.651
 1819SOL     OW 5472   2.945   0.984   3.811
 1819SOL    HW1 5473   2.922   1.037   3.729
 1819SOL    HW2 5474   3.026   0.928   3.792
 1820SOL     OW 5475   3.723   1.569   4.575
 1820SOL    HW1 5476   3.652   1.557   4.505
 1820SOL    HW2 5477   3.724   1.490   4.635
 1821SOL     OW 5478   1.941   1.240   4.377
 1821SOL    HW1 5479   1.940   1.193   4.465
 1821SOL    HW2 5480   2.023   1.212   4.326
 1822SOL     OW 5481   2.290   0.424   4.244
 1822SOL    HW1 5482   2.320   0.352   4.182
 1822SOL    HW2 5483   2.251   0.384   4.327
 1823SOL     OW 5484   2.674   1.586   4.411
 1823SOL    HW1 5485   2.706   1.596   4.317
 1823SOL    HW2 5486   2.595   1.524   4.413
 1824SOL     OW 5487   2.632   1.330   4.025
 1824SOL    HW1 5488   2.586   1.243   4.042
 1824SOL    HW2 5489   2.723   1.327   4.066
 1825SOL     OW 5490   3.214   0.052   3.892
 1825SOL    HW1 5491   3.249   0.011   3.808
 1825SOL    HW2 5492   3.124   0.014   3.912
 1826SOL     OW 5493   3.162   0.453   4.415
 1826SOL    HW1 5494   3.103   0.533   4.419
 1826SOL    HW2 5495   3.177   0.418   4.508
 1827SOL     OW 5496   1.901   1.077   4.024
 1827SOL    HW1 5497   2.000   1.066   4.015
 1827SOL    HW2 5498   1.861   0.991   4.056
 1828SOL     OW 5499   2.737   1.646   4.061
 1828SOL    HW1 5500   2.660   1.611   4.007
 1828SOL    HW2 5501   2.705   1.717   4.123
 1829SOL     OW 5502   2.092   2.490   0.113
 1829SOL    HW1 5503   1.999   2.488   0.150
 1829SOL    HW2 5504   2.093   2.451   0.021
 1830SOL     OW 5505   2.087   2.137   0.996
 1830SOL    HW1 5506   2.122   2.120   1.088
 1830SOL    HW2 5507   1.999   2.092   0.984
 1831SOL     OW 5508   1.881   2.230   0.647
 1831SOL    HW1 5509   1.799   2.273   0.686
 1831SOL    HW2 5510   1.853   2.157   0.584
 1832SOL     OW 5511   2.431   3.137   1.165
 1832SOL    HW1 5512   2.338   3.130   1.128
 1832SOL    HW2 5513   2.442   3.226   1.209
 1833SOL     OW 5514   3.417   3.373   0.703
 1833SOL    HW1 5515   3.360   3.357   0.784
 1833SOL    HW2 5516   3.358   3.383   0.623
 1834SOL     OW 5517   2.997   2.565   0.717
 1834SOL    HW1 5518   3.054   2.643   0.692
 1834SOL    HW2 5519   2.937   2.591   0.793
 1835SOL     OW 5520   3.617   2.469   0.231
 1835SOL    HW1 5521   3.605   2.456   0.132
 1835SOL    HW2 5522   3.587   2.388   0.280
 1836SOL     OW 5523   2.630   3.006   1.023
 1836SOL    HW1 5524   2.552   3.023   1.083
 1836SOL    HW2 5525   2.664   3.093   0.987
 1837SOL     OW 5526   2.712   2.660   1.823
 1837SOL    HW1 5527   2.708   2.736   1.888
 1837SOL    HW2 5528   2.734   2.696   1.732
 1838SOL     OW 5529   2.547   2.874   0.665
 1838SOL    HW1 5530   2.616   2.858   0.735
 1838SOL    HW2 5531   2.474   2.931   0.703
 1839SOL     OW 5532   2.548   3.023   1.803
 1839SOL    HW1 5533   2.608   3.102   1.817
 1839SOL    HW2 5534   2.462   3.054   1.762
 1840SOL     OW 5535   2.197   3.297   1.061
 1840SOL    HW1 5536   2.119   3.266   1.008
 1840SOL    HW2 5537   2.255   3.355   1.004
 1841SOL     OW 5538   3.322   3.367   1.339
 1841SOL    HW1 5539   3.346   3.461   1.365
 1841SOL    HW2 5540   3.306   3.313   1.421
 1842SOL     OW 5541   2.300   2.254   1.499
 1842SOL    HW1 5542   2.382   2.198   1.508
 1842SOL    HW2 5543   2.219   2.196   1.503
 1843SOL     OW 5544   3.465   2.309   0.737
 1843SOL    HW1 5545   3.391   2.355   0.687
 1843SOL    HW2 5546   3.516   2.377   0.790
 1844SOL     OW 5547   2.093   3.575   0.483
 1844SOL    HW1 5548   2.127   3.652   0.537
 1844SOL    HW2 5549   2.137   3.575   0.393
 1845SOL     OW 5550   2.989   3.203   1.690
 1845SOL    HW1 5551   3.036   3.203   1.778
 1845SOL    HW2 5552   2.941   3.116   1.679
 1846SOL     OW 5553   2.092   3.296   0.538
 1846SOL    HW1 5554   2.066   3.392   0.538
 1846SOL    HW2 5555   2.021   3.242   0.583
 1847SOL     OW 5556   2.102   2.953   0.886
 1847SOL    HW1 5557   2.116   2.869   0.938
 1847SOL    HW2 5558   2.047   3.017   0.941
 1848SOL     OW 5559   2.482   3.648   1.439
 1848SOL    HW1 5560   2.390   3.631   1.474
 1848SOL    HW2 5561   2.510   3.740   1.465
 1849SOL     OW 5562   2.468   2.826   0.123
 1849SOL    HW1 5563   2.475   2.910   0.069
 1849SOL    HW2 5564   2.514   2.839   0.211
 1850SOL     OW 5565   3.456   1.976   1.480
 1850SOL    HW1 5566   3.438   2.043   1.408
 1850SOL    HW2 5567   3.453   2.022   1.569
 1851SOL     OW 5568   1.984   2.505   0.563
 1851SOL    HW1 5569   1.939   2.417   0.580
 1851SOL    HW2 5570   1.983   2.559   0.647
 1852SOL     OW 5571   3.704   3.629   0.359
 1852SOL    HW1 5572   3.758   3.600   0.439
 1852SOL    HW2 5573   3.734   3.719   0.330
 1853SOL     OW 5574   1.889   3.458   0.117
 1853SOL    HW1 5575   1.870   3.362   0.138
 1853SOL    HW2 5576   1.856   3.516   0.192
 1854SOL     OW 5577   3.551   2.784   0.612
 1854SOL    HW1 5578   3.646   2.755   0.620
 1854SOL    HW2 5579   3.543   2.849   0.537
 1855SOL     OW 5580   3.503   2.970   0.432
 1855SOL    HW1 5581   3.589   2.972   0.380
 1855SOL    HW2 5582   3.517   3.017   0.520
 1856SOL     OW 5583   1.975   2.599   1.597
 1856SOL    HW1 5584   2.063   2.586   1.642
 1856SOL    HW2 5585   1.962   2.696   1.575
 1857SOL     OW 5586   2.475   3.227   0.726
 1857SOL    HW1 5587   2.426   3.140   0.735
 1857SOL    HW2 5588   2.452   3.270   0.639
 1858SOL     OW 5589   3.155   3.090   1.423
 1858SOL    HW1 5590   3.192   3.017   1.365
 1858SOL    HW2 5591   3.207   3.095   1.508
 1859SOL     OW 5592   2.671   1.866   0.502
 1859SOL    HW1 5593   2.711   1.957   0.493
 1859SOL    HW2 5594   2.571   1.874   0.508
 1860SOL     OW 5595   2.059   2.838   1.264
 1860SOL    HW1 5596   2.148   2.793   1.250
 1860SOL    HW2 5597   1.986   2.773   1.245
 1861SOL     OW 5598   3.387   2.861   0.190
 1861SOL    HW1 5599   3.324   2.785   0.203
 1861SOL    HW2 5600   3.435   2.879   0.276
 1862SOL     OW 5601   3.049   3.654   1.616
 1862SOL    HW1 5602   3.073   3.714   1.540
 1862SOL    HW2 5603   3.056   3.559   1.586
 1863SOL     OW 5604   2.179   2.113   1.801
 1863SOL    HW1 5605   2.250   2.184   1.807
 1863SOL    HW2 5606   2.091   2.152   1.829
 1864SOL     OW 5607   3.328   3.279   0.953
 1864SOL    HW1 5608   3.269   3.285   1.033
 1864SOL    HW2 5609   3.313   3.191   0.907
 1865SOL     OW 5610   3.529   3.576   0.572
 1865SOL    HW1 5611   3.488   3.553   0.484
 1865SOL    HW2 5612   3.511   3.502   0.637
 1866SOL     OW 5613   2.460   2.591   0.270
 1866SOL    HW1 5614   2.484   2.660   0.202
 1866SOL    HW2 5615   2.382   2.624   0.324
 1867SOL     OW 5616   3.143   2.207   0.944
 1867SOL    HW1 5617   3.057   2.157   0.931
 1867SOL    HW2 5618   3.205   2.153   1.000
 1868SOL     OW 5619   3.438   3.524   0.307
 1868SOL    HW1 5620   3.527   3.570   0.310
 1868SOL    HW2 5621   3.417   3.500   0.212
 1869SOL     OW 5622   2.669   2.467   1.465
 1869SOL    HW1 5623   2.622   2.464   1.554
 1869SOL    HW2 5624   2.618   2.412   1.399
 1870SOL     OW 5625   3.256   2.331   1.674
 1870SOL    HW1 5626   3.236   2.374   1.762
 1870SOL    HW2 5627   3.334   2.269   1.683
 1871SOL     OW 5628   2.835   2.752   1.572
 1871SOL    HW1 5629   2.881   2.668   1.543
 1871SOL    HW2 5630   2.779   2.786   1.497
 1872SOL     OW 5631   2.853   2.272   1.242
 1872SOL    HW1 5632   2.776   2.306   1.296
 1872SOL    HW2 5633   2.819   2.221   1.163
 1873SOL     OW 5634   2.903   2.563   0.429
 1873SOL    HW1 5635   2.929   2.559   0.525
 1873SOL    HW2 5636   2.818   2.512   0.415
 1874SOL     OW 5637   1.938   2.673   0.789
 1874SOL    HW1 5638   2.037   2.661   0.798
 1874SOL    HW2 5639   1.914   2.768   0.810
 1875SOL     OW 5640   1.992   3.683   1.571
 1875SOL    HW1 5641   1.982   3.668   1.670
 1875SOL    HW2 5642   1.906   3.719   1.535
 1876SOL     OW 5643   2.727   2.210   0.195
 1876SOL    HW1 5644   2.786   2.273   0.146
 1876SOL    HW2 5645   2.746   2.116   0.166
 1877SOL     OW 5646   3.581   2.447   1.831
 1877SOL    HW1 5647   3.555   2.536   1.795
 1877SOL    HW2 5648   3.579   2.379   1.758
 1878SOL     OW 5649   3.224   3.006   0.545
 1878SOL    HW1 5650   3.307   2.977   0.497
 1878SOL    HW2 5651   3.175   3.073   0.489
 1879SOL     OW 5652   2.412   2.058   0.885
 1879SOL    HW1 5653   2.407   2.053   0.985
 1879SOL    HW2 5654   2.414   2.154   0.856
 1880SOL     OW 5655   2.870   3.318   0.477
 1880SOL    HW1 5656   2.824   3.390   0.425
 1880SOL    HW2 5657   2.866   3.338   0.575
 1881SOL     OW 5658   2.213   3.663   0.853
 1881SOL    HW1 5659   2.263   3.577   0.859
 1881SOL    HW2 5660   2.278   3.740   0.850
 1882SOL     OW 5661   3.657   2.928   0.873
 1882SOL    HW1 5662   3.595   2.913   0.797
 1882SOL    HW2 5663   3.605   2.939   0.958
 1883SOL     OW 5664   3.089   3.412   1.506
 1883SOL    HW1 5665   3.095   3.335   1.570
 1883SOL    HW2 5666   3.037   3.386   1.426
 1884SOL     OW 5667   2.183   2.805   0.242
 1884SOL    HW1 5668   2.265   2.844   0.200
 1884SOL    HW2 5669   2.156   2.723   0.193
 1885SOL     OW 5670   3.320   2.597   0.728
 1885SOL    HW1 5671   3.315   2.532   0.803
 1885SOL    HW2 5672   3.400   2.656   0.741
 1886SOL     OW 5673   2.323   3.128   1.727
 1886SOL    HW1 5674   2.273   3.129   1.641
 1886SOL    HW2 5675   2.260   3.110   1.803
 1887SOL     OW 5676   2.973   3.638   0.237
 1887SOL    HW1 5677   2.913   3.576   0.287
 1887SOL    HW2 5678   3.004   3.594   0.152
 1888SOL     OW 5679   2.064   2.147   1.498
 1888SOL    HW1 5680   1.984   2.207   1.485
 1888SOL    HW2 5681   2.054   2.098   1.584
 1889SOL     OW 5682   3.494   3.239   0.081
 1889SOL    HW1 5683   3.462   3.333   0.071
 1889SOL    HW2 5684   3.418   3.176   0.069
 1890SOL     OW 5685   2.326   3.605   0.323
 1890SOL    HW1 5686   2.359   3.644   0.409
 1890SOL    HW2 5687   2.402   3.598   0.258
 1891SOL     OW 5688   3.262   1.969   0.426
 1891SOL    HW1 5689   3.238   1.932   0.336
 1891SOL    HW2 5690   3.361   1.985   0.430
 1892SOL     OW 5691   2.111   3.647   1.241
 1892SOL    HW1 5692   2.168   3.582   1.291
 1892SOL    HW2 5693   2.095   3.614   1.148
 1893SOL     OW 5694   2.802   3.560   0.904
 1893SOL    HW1 5695   2.882   3.503   0.925
 1893SOL    HW2 5696   2.753   3.520   0.827
 1894SOL     OW 5697   2.244   2.562   0.480
 1894SOL    HW1 5698   2.289   2.472   0.477
 1894SOL    HW2 5699   2.150   2.551   0.513
 1895SOL     OW 5700   3.409   2.084   1.729
 1895SOL    HW1 5701   3.404   2.121   1.821
 1895SOL    HW2 5702   3.337   2.015   1.717
 1896SOL     OW 5703   2.643   2.126   1.749
 1896SOL    HW1 5704   2.710   2.065   1.792
 1896SOL    HW2 5705   2.570   2.145   1.814
 1897SOL     OW 5706   2.750   3.376   1.195
 1897SOL    HW1 5707   2.727   3.351   1.101
 1897SOL    HW2 5708   2.811   3.307   1.234
 1898SOL     OW 5709   3.213   2.452   1.433
 1898SOL    HW1 5710   3.241   2.409   1.518
 1898SOL    HW2 5711   3.238   2.548   1.434
 1899SOL     OW 5712   2.665   3.264   0.924
 1899SOL    HW1 5713   2.755   3.278   0.882
 1899SOL    HW2 5714   2.594   3.266   0.853
 1900SOL     OW 5715   2.784   2.365   0.899
 1900SOL    HW1 5716   2.759   2.356   0.803
 1900SOL    HW2 5717   2.832   2.283   0.930
 1901SOL     OW 5718   2.401   1.926   0.512
 1901SOL    HW1 5719   2.320   1.927   0.570
 1901SOL    HW2 5720   2.404   2.009   0.457
 1902SOL     OW 5721   3.296   3.050   0.041
 1902SOL    HW1 5722   3.328   2.974   0.098
 1902SOL    HW2 5723   3.204   3.077   0.071
 1903SOL     OW 5724   2.159   1.897   0.171
 1903SOL    HW1 5725   2.208   1.981   0.150
 1903SOL    HW2 5726   2.221   1.832   0.216
 1904SOL     OW 5727   2.797   2.098   0.480
 1904SOL    HW1 5728   2.749   2.139   0.402
 1904SOL    HW2 5729   2.896   2.096   0.461
 1905SOL     OW 5730   2.938   2.545   1.464
 1905SOL    HW1 5731   2.858   2.484   1.467
 1905SOL    HW2 5732   3.019   2.492   1.440
 1906SOL     OW 5733   3.089   3.432   0.793
 1906SOL    HW1 5734   3.110   3.506   0.728
 1906SOL    HW2 5735   3.157   3.432   0.866
 1907SOL     OW 5736   2.321   3.014   0.741
 1907SOL    HW1 5737   2.250   2.987   0.806
 1907SOL    HW2 5738   2.295   2.986   0.648
 1908SOL     OW 5739   3.133   3.659   0.591
 1908SOL    HW1 5740   3.177   3.723   0.527
 1908SOL    HW2 5741   3.083   3.711   0.661
 1909SOL     OW 5742   2.894   2.411   0.016
 1909SOL    HW1 5743   2.853   2.493  -0.023
 1909SOL    HW2 5744   2.958   2.437   0.089
 1910SOL     OW 5745   1.940   2.418   1.386
 1910SOL    HW1 5746   2.032   2.417   1.345
 1910SOL    HW2 5747   1.934   2.492   1.453
 1911SOL     OW 5748   2.423   2.084   1.147
 1911SOL    HW1 5749   2.461   2.000   1.184
 1911SOL    HW2 5750   2.335   2.103   1.191
 1912SOL     OW 5751   2.728   2.316   0.642
 1912SOL    HW1 5752   2.696   2.388   0.580
 1912SOL    HW2 5753   2.752   2.235   0.589
 1913SOL     OW 5754   2.879   1.901   0.753
 1913SOL    HW1 5755   2.807   1.906   0.684
 1913SOL    HW2 5756   2.855   1.832   0.822
 1914SOL     OW 5757   3.291   3.035   0.867
 1914SOL    HW1 5758   3.236   2.951   0.860
 1914SOL    HW2 5759   3.317   3.064   0.775
 1915SOL     OW 5760   3.328   2.452   0.992
 1915SOL    HW1 5761   3.298   2.357   0.999
 1915SOL    HW2 5762   3.401   2.468   1.058
 1916SOL     OW 5763   3.719   2.695   0.377
 1916SOL    HW1 5764   3.761   2.631   0.441
 1916SOL    HW2 5765   3.681   2.644   0.299
 1917SOL     OW 5766   2.350   3.247   0.174
 1917SOL    HW1 5767   2.263   3.232   0.221
 1917SOL    HW2 5768   2.333   3.273   0.079
 1918SOL     OW 5769   3.526   3.142   0.657
 1918SOL    HW1 5770   3.625   3.150   0.671
 1918SOL    HW2 5771   3.481   3.226   0.688
 1919SOL     OW 5772   3.252   2.437   0.078
 1919SOL    HW1 5773   3.198   2.416   0.159
 1919SOL    HW2 5774   3.343   2.396   0.087
 1920SOL     OW 5775   2.389   2.118   0.328
 1920SOL    HW1 5776   2.416   2.059   0.253
 1920SOL    HW2 5777   2.389   2.213   0.297
 1921SOL     OW 5778   3.616   3.085   1.588
 1921SOL    HW1 5779   3.707   3.046   1.575
 1921SOL    HW2 5780   3.624   3.181   1.612
 1922SOL     OW 5781   2.926   3.209   1.340
 1922SOL    HW1 5782   2.846   3.186   1.395
 1922SOL    HW2 5783   3.009   3.183   1.389
 1923SOL     OW 5784   3.454   3.491   1.625
 1923SOL    HW1 5785   3.481   3.525   1.535
 1923SOL    HW2 5786   3.533   3.453   1.671
 1924SOL     OW 5787   2.973   3.057   1.100
 1924SOL    HW1 5788   2.933   3.101   1.181
 1924SOL    HW2 5789   2.932   3.094   1.017
 1925SOL     OW 5790   3.500   2.961   1.079
 1925SOL    HW1 5791   3.505   3.042   1.138
 1925SOL    HW2 5792   3.414   2.963   1.028
 1926SOL     OW 5793   2.777   1.951   1.402
 1926SOL    HW1 5794   2.802   1.931   1.307
 1926SOL    HW2 5795   2.849   2.007   1.444
 1927SOL     OW 5796   2.842   2.978   1.719
 1927SOL    HW1 5797   2.743   2.984   1.729
 1927SOL    HW2 5798   2.865   2.898   1.663
 1928SOL     OW 5799   2.567   2.912   0.368
 1928SOL    HW1 5800   2.553   2.919   0.467
 1928SOL    HW2 5801   2.651   2.861   0.350
 1929SOL     OW 5802   2.272   2.675   1.251
 1929SOL    HW1 5803   2.358   2.687   1.301
 1929SOL    HW2 5804   2.230   2.588   1.278
 1930SOL     OW 5805   3.136   2.248   1.262
 1930SOL    HW1 5806   3.157   2.322   1.326
 1930SOL    HW2 5807   3.047   2.265   1.219
 1931SOL     OW 5808   1.926   3.426   1.331
 1931SOL    HW1 5809   1.880   3.508   1.297
 1931SOL    HW2 5810   2.024   3.445   1.340
 1932SOL     OW 5811   2.229   2.962   0.501
 1932SOL    HW1 5812   2.222   3.045   0.445
 1932SOL    HW2 5813   2.233   2.882   0.441
 1933SOL     OW 5814   2.428   2.399   0.865
 1933SOL    HW1 5815   2.440   2.465   0.791
 1933SOL    HW2 5816   2.474   2.433   0.948
 1934SOL     OW 5817   3.114   3.210   0.388
 1934SOL    HW1 5818   3.164   3.287   0.428
 1934SOL    HW2 5819   3.019   3.212   0.420
 1935SOL     OW 5820   3.134   3.307   1.142
 1935SOL    HW1 5821   3.181   3.320   1.229
 1935SOL    HW2 5822   3.068   3.233   1.151
 1936SOL     OW 5823   3.444   2.501   0.472
 1936SOL    HW1 5824   3.413   2.562   0.545
 1936SOL    HW2 5825   3.494   2.553   0.403
 1937SOL     OW 5826   2.216   3.372   1.329
 1937SOL    HW1 5827   2.195   3.328   1.242
 1937SOL    HW2 5828   2.313   3.398   1.332
 1938SOL     OW 5829   2.264   2.613   1.598
 1938SOL    HW1 5830   2.332   2.668   1.551
 1938SOL    HW2 5831   2.304   2.525   1.625
 1939SOL     OW 5832   3.449   2.641   1.670
 1939SOL    HW1 5833   3.357   2.679   1.665
 1939SOL    HW2 5834   3.509   2.688   1.605
 1940SOL     OW 5835   2.875   1.967   1.770
 1940SOL    HW1 5836   2.881   2.052   1.718
 1940SOL    HW2 5837   2.907   1.891   1.713
 1941SOL     OW 5838   2.366   1.912   1.740
 1941SOL    HW1 5839   2.324   1.855   1.670
 1941SOL    HW2 5840   2.300   1.981   1.772
 1942SOL     OW 5841   2.435   2.732   1.029
 1942SOL    HW1 5842   2.479   2.821   1.020
 1942SOL    HW2 5843   2.372   2.732   1.106
 1943SOL     OW 5844   3.222   2.724   1.045
 1943SOL    HW1 5845   3.147   2.724   0.979
 1943SOL    HW2 5846   3.259   2.632   1.054
 1944SOL     OW 5847   3.071   2.387   0.275
 1944SOL    HW1 5848   3.084   2.303   0.329
 1944SOL    HW2 5849   3.042   2.461   0.335
 1945SOL     OW 5850   2.169   2.075   1.231
 1945SOL    HW1 5851   2.146   2.112   1.321
 1945SOL    HW2 5852   2.139   1.980   1.225
 1946SOL     OW 5853   1.899   3.172   1.282
 1946SOL    HW1 5854   1.952   3.123   1.350
 1946SOL    HW2 5855   1.921   3.270   1.287
 1947SOL     OW 5856   2.594   2.496   1.064
 1947SOL    HW1 5857   2.653   2.470   0.988
 1947SOL    HW2 5858   2.566   2.592   1.053
 1948SOL     OW 5859   3.590   2.797   1.854
 1948SOL    HW1 5860   3.544   2.790   1.765
 1948SOL    HW2 5861   3.528   2.841   1.920
 1949SOL     OW 5862   2.169   1.925   0.618
 1949SOL    HW1 5863   2.158   2.019   0.651
 1949SOL    HW2 5864   2.164   1.862   0.695
 1950SOL     OW 5865   3.484   2.229   0.374
 1950SOL    HW1 5866   3.486   2.153   0.438
 1950SOL    HW2 5867   3.436   2.306   0.414
 1951SOL     OW 5868   2.885   2.628   0.966
 1951SOL    HW1 5869   2.900   2.649   1.062
 1951SOL    HW2 5870   2.855   2.533   0.957
 1952SOL     OW 5871   2.842   3.435   1.700
 1952SOL    HW1 5872   2.822   3.479   1.612
 1952SOL    HW2 5873   2.881   3.344   1.684
 1953SOL     OW 5874   3.721   3.380   1.605
 1953SOL    HW1 5875   3.735   3.407   1.510
 1953SOL    HW2 5876   3.804   3.402   1.658
 1954SOL     OW 5877   2.212   2.760   1.804
 1954SOL    HW1 5878   2.288   2.804   1.852
 1954SOL    HW2 5879   2.247   2.713   1.722
 1955SOL     OW 5880   3.402   2.136   0.125
 1955SOL    HW1 5881   3.341   2.061   0.148
 1955SOL    HW2 5882   3.424   2.188   0.208
 1956SOL     OW 5883   3.165   2.700   0.042
 1956SOL    HW1 5884   3.199   2.607   0.057
 1956SOL    HW2 5885   3.183   2.727  -0.053
 1957SOL     OW 5886   2.930   3.195   0.849
 1957SOL    HW1 5887   2.937   3.111   0.794
 1957SOL    HW2 5888   2.992   3.264   0.813
 1958SOL     OW 5889   2.181   2.672   0.949
 1958SOL    HW1 5890   2.274   2.708   0.954
 1958SOL    HW2 5891   2.175   2.587   1.001
 1959SOL     OW 5892   2.201   2.371   1.006
 1959SOL    HW1 5893   2.149   2.288   0.989
 1959SOL    HW2 5894   2.278   2.376   0.942
 1960SOL     OW 5895   3.000   2.242   1.678
 1960SOL    HW1 5896   2.955   2.305   1.742
 1960SOL    HW2 5897   3.093   2.273   1.661
 1961SOL     OW 5898   3.022   2.069   1.477
 1961SOL    HW1 5899   3.022   2.133   1.554
 1961SOL    HW2 5900   3.050   2.117   1.394
 1962SOL     OW 5901   1.870   3.188   0.200
 1962SOL    HW1 5902   1.777   3.209   0.169
 1962SOL    HW2 5903   1.880   3.089   0.213
 1963SOL     OW 5904   1.950   3.663   0.927
 1963SOL    HW1 5905   1.908   3.577   0.900
 1963SOL    HW2 5906   2.044   3.666   0.893
 1964SOL     OW 5907   2.366   3.430   0.910
 1964SOL    HW1 5908   2.432   3.504   0.919
 1964SOL    HW2 5909   2.410   3.351   0.868
 1965SOL     OW 5910   2.864   2.658   1.238
 1965SOL    HW1 5911   2.905   2.626   1.324
 1965SOL    HW2 5912   2.768   2.631   1.235
 1966SOL     OW 5913   1.902   2.406   1.114
 1966SOL    HW1 5914   1.987   2.373   1.073
 1966SOL    HW2 5915   1.915   2.421   1.212
 1967SOL     OW 5916   2.051   2.382   1.722
 1967SOL    HW1 5917   2.110   2.342   1.652
 1967SOL    HW2 5918   1.993   2.453   1.681
 1968SOL     OW 5919   3.231   2.812   1.660
 1968SOL    HW1 5920   3.270   2.901   1.680
 1968SOL    HW2 5921   3.241   2.792   1.563
 1969SOL     OW 5922   2.677   2.434   0.325
 1969SOL    HW1 5923   2.684   2.345   0.279
 1969SOL    HW2 5924   2.583   2.468   0.317
 1970SOL     OW 5925   3.519   2.466   1.206
 1970SOL    HW1 5926   3.481   2.397   1.268
 1970SOL    HW2 5927   3.601   2.430   1.162
 1971SOL     OW 5928   2.114   3.426   1.744
 1971SOL    HW1 5929   2.084   3.483   1.820
 1971SOL    HW2 5930   2.107   3.329   1.770
 1972SOL     OW 5931   2.533   2.326   1.269
 1972SOL    HW1 5932   2.499   2.237   1.239
 1972SOL    HW2 5933   2.559   2.380   1.189
 1973SOL     OW 5934   2.792   3.540   1.465
 1973SOL    HW1 5935   2.768   3.522   1.370
 1973SOL    HW2 5936   2.822   3.634   1.475
 1974SOL     OW 5937   2.335   2.362   0.191
 1974SOL    HW1 5938   2.396   2.442   0.195
 1974SOL    HW2 5939   2.240   2.393   0.198
 1975SOL     OW 5940   2.021   2.999   1.466
 1975SOL    HW1 5941   2.043   2.938   1.542
 1975SOL    HW2 5942   2.031   2.950   1.380
 1976SOL     OW 5943   3.209   2.921   1.234
 1976SOL    HW1 5944   3.233   2.858   1.160
 1976SOL    HW2 5945   3.119   2.961   1.216
 1977SOL     OW 5946   3.164   2.717   0.309
 1977SOL    HW1 5947   3.078   2.686   0.351
 1977SOL    HW2 5948   3.160   2.703   0.210
 1978SOL     OW 5949   3.621   3.609   1.154
 1978SOL    HW1 5950   3.682   3.639   1.081
 1978SOL    HW2 5951   3.583   3.520   1.132
 1979SOL     OW 5952   3.114   3.593   1.128
 1979SOL    HW1 5953   3.198   3.598   1.074
 1979SOL    HW2 5954   3.091   3.497   1.146
 1980SOL     OW 5955   1.945   3.120   1.022
 1980SOL    HW1 5956   1.940   3.119   1.122
 1980SOL    HW2 5957   1.862   3.079   0.984
 1981SOL     OW 5958   2.550   3.524   1.716
 1981SOL    HW1 5959   2.494   3.605   1.725
 1981SOL    HW2 5960   2.602   3.528   1.630
 1982SOL     OW 5961   2.765   1.948   0.133
 1982SOL    HW1 5962   2.816   1.949   0.047
 1982SOL    HW2 5963   2.821   1.906   0.204
 1983SOL     OW 5964   3.588   1.997   0.523
 1983SOL    HW1 5965   3.661   1.980   0.456
 1983SOL    HW2 5966   3.557   1.910   0.561
 1984SOL     OW 5967   3.250   3.435   0.477
 1984SOL    HW1 5968   3.317   3.447   0.403
 1984SOL    HW2 5969   3.210   3.524   0.500
 1985SOL     OW 5970   1.992   3.656   1.851
 1985SOL    HW1 5971   1.951   3.582   1.904
 1985SOL    HW2 5972   2.056   3.707   1.909
 1986SOL     OW 5973   3.142   2.789   0.672
 1986SOL    HW1 5974   3.202   2.708   0.674
 1986SOL    HW2 5975   3.182   2.858   0.612
 1987SOL     OW 5976   2.692   3.135   1.422
 1987SOL    HW1 5977   2.687   3.168   1.517
 1987SOL    HW2 5978   2.606   3.154   1.376
 1988SOL     OW 5979   2.534   3.478   0.154
 1988SOL    HW1 5980   2.543   3.488   0.055
 1988SOL    HW2 5981   2.494   3.389   0.175
 1989SOL     OW 5982   3.512   3.582   1.394
 1989SOL    HW1 5983   3.565   3.592   1.310
 1989SOL    HW2 5984   3.485   3.672   1.428
 1990SOL     OW 5985   3.703   2.037   0.963
 1990SOL    HW1 5986   3.742   1.952   0.927
 1990SOL    HW2 5987   3.605   2.039   0.944
 1991SOL     OW 5988   2.125   2.188   0.720
 1991SOL    HW1 5989   2.046   2.239   0.686
 1991SOL    HW2 5990   2.116   2.173   0.818
 1992SOL     OW 5991   3.056   3.474   0.031
 1992SOL    HW1 5992   3.062   3.381   0.068
 1992SOL    HW2 5993   2.997   3.474  -0.049
 1993SOL     OW 5994   2.684   2.864   1.372
 1993SOL    HW1 5995   2.724   2.863   1.280
 1993SOL    HW2 5996   2.694   2.956   1.412
 1994SOL     OW 5997   2.778   2.772   0.291
 1994SOL    HW1 5998   2.841   2.810   0.223
 1994SOL    HW2 5999   2.818   2.689   0.330
 1995SOL     OW 6000   3.366   3.469   0.044
 1995SOL    HW1 6001   3.274   3.506   0.051
 1995SOL    HW2 6002   3.404   3.489  -0.046
 1996SOL     OW 6003   2.234   3.150   1.490
 1996SOL    HW1 6004   2.221   3.243   1.456
 1996SOL    HW2 6005   2.150   3.098   1.477
 1997SOL     OW 6006   3.476   3.154   1.289
 1997SOL    HW1 6007   3.536   3.157   1.369
 1997SOL    HW2 6008   3.401   3.218   1.302
 1998SOL     OW 6009   2.901   2.960   0.696
 1998SOL    HW1 6010   2.831   2.913   0.750
 1998SOL    HW2 6011   2.960   2.892   0.653
 1999SOL     OW 6012   2.876   2.098   0.971
 1999SOL    HW1 6013   2.868   2.062   0.878
 1999SOL    HW2 6014   2.874   2.022   1.036
 2000SOL     OW 6015   2.452   3.349   0.491
 2000SOL    HW1 6016   2.494   3.291   0.421
 2000SOL    HW2 6017   2.408   3.428   0.447
 2001SOL     OW 6018   3.571   2.247   1.381
 2001SOL    HW1 6019   3.644   2.316   1.385
 2001SOL    HW2 6020   3.599   2.172   1.322
 2002SOL     OW 6021   2.117   3.210   0.290
 2002SOL    HW1 6022   2.021   3.211   0.263
 2002SOL    HW2 6023   2.129   3.263   0.374
 2003SOL     OW 6024   1.967   2.875   1.726
 2003SOL    HW1 6025   1.890   2.842   1.780
 2003SOL    HW2 6026   2.052   2.845   1.768
 2004SOL     OW 6027   2.534   2.065   1.489
 2004SOL    HW1 6028   2.624   2.049   1.449
 2004SOL    HW2 6029   2.542   2.070   1.588
 2005SOL     OW 6030   3.302   2.718   1.398
 2005SOL    HW1 6031   3.245   2.770   1.335
 2005SOL    HW2 6032   3.398   2.730   1.374
 2006SOL     OW 6033   1.934   2.028   0.318
 2006SOL    HW1 6034   1.917   2.111   0.264
 2006SOL    HW2 6035   2.024   1.991   0.296
 2007SOL     OW 6036   3.045   3.197   0.119
 2007SOL    HW1 6037   2.946   3.186   0.121
 2007SOL    HW2 6038   3.079   3.212   0.212
 2008SOL     OW 6039   2.475   2.704   1.431
 2008SOL    HW1 6040   2.531   2.785   1.414
 2008SOL    HW2 6041   2.534   2.624   1.434
 2009SOL     OW 6042   3.355   3.629   0.959
 2009SOL    HW1 6043   3.388   3.693   0.890
 2009SOL    HW2 6044   3.421   3.623   1.034
 2010SOL     OW 6045   2.578   2.427   1.708
 2010SOL    HW1 6046   2.597   2.492   1.782
 2010SOL    HW2 6047   2.638   2.347   1.717
 2011SOL     OW 6048   3.312   3.082   1.633
 2011SOL    HW1 6049   3.303   3.072   1.732
 2011SOL    HW2 6050   3.408   3.075   1.607
 2012SOL     OW 6051   2.252   3.603   1.560
 2012SOL    HW1 6052   2.161   3.644   1.558
 2012SOL    HW2 6053   2.245   3.509   1.592
 2013SOL     OW 6054   3.536   2.745   1.254
 2013SOL    HW1 6055   3.509   2.656   1.217
 2013SOL    HW2 6056   3.537   2.813   1.181
 2014SOL     OW 6057   3.087   2.187   0.449
 2014SOL    HW1 6058   3.152   2.113   0.438
 2014SOL    HW2 6059   3.107   2.237   0.533
 2015SOL     OW 6060   2.456   2.607   0.652
 2015SOL    HW1 6061   2.506   2.692   0.633
 2015SOL    HW2 6062   2.368   2.609   0.604
 2016SOL     OW 6063   3.639   2.204   1.642
 2016SOL    HW1 6064   3.622   2.235   1.548
 2016SOL    HW2 6065   3.555   2.167   1.680
 2017SOL     OW 6066   3.592   2.796   1.517
 2017SOL    HW1 6067   3.630   2.887   1.532
 2017SOL    HW2 6068   3.584   2.779   1.418
 2018SOL     OW 6069   2.721   3.236   0.016
 2018SOL    HW1 6070   2.675   3.251   0.104
 2018SOL    HW2 6071   2.765   3.321  -0.014
 2019SOL     OW 6072   2.523   3.652   0.953
 2019SOL    HW1 6073   2.477   3.740   0.940
 2019SOL    HW2 6074   2.622   3.664   0.946
 2020SOL     OW 6075   2.721   2.818   0.861
 2020SOL    HW1 6076   2.775   2.749   0.909
 2020SOL    HW2 6077   2.689   2.887   0.927
 2021SOL     OW 6078   2.945   2.846   0.087
 2021SOL    HW1 6079   2.922   2.899   0.005
 2021SOL    HW2 6080   3.026   2.790   0.068
 2022SOL     OW 6081   3.723   3.431   0.851
 2022SOL    HW1 6082   3.652   3.419   0.781
 2022SOL    HW2 6083   3.724   3.352   0.911
 2023SOL     OW 6084   2.083   3.176   1.844
 2023SOL    HW1 6085   2.018   3.103   1.823
 2023SOL    HW2 6086   2.087   3.190   1.942
 2024SOL     OW 6087   1.941   3.102   0.653
 2024SOL    HW1 6088   1.940   3.055   0.741
 2024SOL    HW2 6089   2.023   3.074   0.602
 2025SOL     OW 6090   2.534   3.253   1.624
 2025SOL    HW1 6091   2.456   3.203   1.662
 2025SOL    HW2 6092   2.531   3.348   1.655
 2026SOL     OW 6093   3.686   2.054   1.227
 2026SOL    HW1 6094   3.682   1.964   1.271
 2026SOL    HW2 6095   3.689   2.043   1.128
 2027SOL     OW 6096   2.290   2.286   0.520
 2027SOL    HW1 6097   2.320   2.214   0.458
 2027SOL    HW2 6098   2.251   2.246   0.603
 2028SOL     OW 6099   3.567   3.349   1.104
 2028SOL    HW1 6100   3.474   3.324   1.077
 2028SOL    HW2 6101   3.593   3.299   1.186
 2029SOL     OW 6102   2.179   2.409   1.280
 2029SOL    HW1 6103   2.217   2.350   1.352
 2029SOL    HW2 6104   2.219   2.383   1.192
 2030SOL     OW 6105   2.674   3.448   0.687
 2030SOL    HW1 6106   2.706   3.458   0.593
 2030SOL    HW2 6107   2.595   3.386   0.689
 2031SOL     OW 6108   3.286   2.076   1.112
 2031SOL    HW1 6109   3.338   2.011   1.167
 2031SOL    HW2 6110   3.237   2.139   1.173
 2032SOL     OW 6111   2.863   1.896   1.154
 2032SOL    HW1 6112   2.800   1.824   1.123
 2032SOL    HW2 6113   2.956   1.860   1.154
 2033SOL     OW 6114   2.632   3.192   0.301
 2033SOL    HW1 6115   2.586   3.105   0.318
 2033SOL    HW2 6116   2.723   3.189   0.342
 2034SOL     OW 6117   2.480   3.429   1.284
 2034SOL    HW1 6118   2.475   3.511   1.341
 2034SOL    HW2 6119   2.569   3.426   1.239
 2035SOL     OW 6120   3.214   1.914   0.168
 2035SOL    HW1 6121   3.249   1.873   0.084
 2035SOL    HW2 6122   3.124   1.876   0.188
 2036SOL     OW 6123   3.162   2.315   0.691
 2036SOL    HW1 6124   3.103   2.395   0.695
 2036SOL    HW2 6125   3.177   2.280   0.784
 2037SOL     OW 6126   3.455   2.083   0.882
 2037SOL    HW1 6127   3.371   2.082   0.936
 2037SOL    HW2 6128   3.457   2.166   0.826
 2038SOL     OW 6129   1.901   2.939   0.300
 2038SOL    HW1 6130   2.000   2.928   0.291
 2038SOL    HW2 6131   1.861   2.853   0.332
 2039SOL     OW 6132   2.737   3.508   0.337
 2039SOL    HW1 6133   2.660   3.473   0.283
 2039SOL    HW2 6134   2.705   3.579   0.399
 2040SOL     OW 6135   2.092   2.490   1.975
 2040SOL    HW1 6136   1.999   2.488   2.012
 2040SOL    HW2 6137   2.093   2.451   1.883
 2041SOL     OW 6138   2.087   2.137   2.858
 2041SOL    HW1 6139   2.122   2.120   2.950
 2041SOL    HW2 6140   1.999   2.092   2.846
 2042SOL     OW 6141   1.881   2.230   2.509
 2042SOL    HW1 6142   1.799   2.273   2.548
 2042SOL    HW2 6143   1.853   2.157   2.446
 2043SOL     OW 6144   2.431   3.137   3.027
 2043SOL    HW1 6145   2.338   3.130   2.990
 2043SOL    HW2 6146   2.442   3.226   3.071
 2044SOL     OW 6147   3.417   3.373   2.565
 2044SOL    HW1 6148   3.360   3.357   2.646
 2044SOL    HW2 6149   3.358   3.383   2.485
 2045SOL     OW 6150   2.997   2.565   2.579
 2045SOL    HW1 6151   3.054   2.643   2.554
 2045SOL    HW2 6152   2.937   2.591   2.655
 2046SOL     OW 6153   3.617   2.469   2.093
 2046SOL    HW1 6154   3.605   2.456   1.994
 2046SOL    HW2 6155   3.587   2.388   2.142
 2047SOL     OW 6156   2.630   3.006   2.885
 2047SOL    HW1 6157   2.552   3.023   2.945
 2047SOL    HW2 6158   2.664   3.093   2.849
 2048SOL     OW 6159   2.712   2.660   3.685
 2048SOL    HW1 6160   2.708   2.736   3.750
 2048SOL    HW2 6161   2.734   2.696   3.594
 2049SOL     OW 6162   2.547   2.874   2.527
 2049SOL    HW1 6163   2.616   2.858   2.597
 2049SOL    HW2 6164   2.474   2.931   2.565
 2050SOL     OW 6165   2.548   3.023   3.665
 2050SOL    HW1 6166   2.608   3.102   3.679
 2050SOL    HW2 6167   2.462   3.054   3.624
 2051SOL     OW 6168   2.197   3.297   2.923
 2051SOL    HW1 6169   2.119   3.266   2.870
 2051SOL    HW2 6170   2.255   3.355   2.866
 2052SOL     OW 6171   3.322   3.367   3.201
 2052SOL    HW1 6172   3.346   3.461   3.227
 2052SOL    HW2 6173   3.306   3.313   3.283
 2053SOL     OW 6174   2.300   2.254   3.361
 2053SOL    HW1 6175   2.382   2.198   3.370
 2053SOL    HW2 6176   2.219   2.196   3.365
 2054SOL     OW 6177   3.465   2.309   2.599
 2054SOL    HW1 6178   3.391   2.355   2.549
 2054SOL    HW2 6179   3.516   2.377   2.652
 2055SOL     OW 6180   2.093   3.575   2.345
 2055SOL    HW1 6181   2.127   3.652   2.399
 2055SOL    HW2 6182   2.137   3.575   2.255
 2056SOL     OW 6183   2.989   3.203   3.552
 2056SOL    HW1 6184   3.036   3.203   3.640
 2056SOL    HW2 6185   2.941   3.116   3.541
 2057SOL     OW 6186   2.092   3.296   2.400
 2057SOL    HW1 6187   2.066   3.392   2.400
 2057SOL    HW2 6188   2.021   3.242   2.445
 2058SOL     OW 6189   2.102   2.953   2.748
 2058SOL    HW1 6190   2.116   2.869   2.800
 2058SOL    HW2 6191   2.047   3.017   2.803
 2059SOL     OW 6192   2.482   3.648   3.301
 2059SOL    HW1 6193   2.390   3.631   3.336
 2059SOL    HW2 6194   2.510   3.740   3.327
 2060SOL     OW 6195   2.468   2.826   1.985
 2060SOL    HW1 6196   2.475   2.910   1.931
 2060SOL    HW2 6197   2.514   2.839   2.073
 2061SOL     OW 6198   3.456   1.976   3.342
 2061SOL    HW1 6199   3.438   2.043   3.270
 2061SOL    HW2 6200   3.453   2.022   3.431
 2062SOL     OW 6201   1.984   2.505   2.425
 2062SOL    HW1 6202   1.939   2.417   2.442
 2062SOL    HW2 6203   1.983   2.559   2.509
 2063SOL     OW 6204   3.704   3.629   2.221
 2063SOL    HW1 6205   3.758   3.600   2.301
 2063SOL    HW2 6206   3.734   3.719   2.192
 2064SOL     OW 6207   1.889   3.458   1.979
 2064SOL    HW1 6208   1.870   3.362   2.000
 2064SOL    HW2 6209   1.856   3.516   2.054
 2065SOL     OW 6210   3.551   2.784   2.474
 2065SOL    HW1 6211   3.646   2.755   2.482
 2065SOL    HW2 6212   3.543   2.849   2.399
 2066SOL     OW 6213   3.503   2.970   2.294
 2066SOL    HW1 6214   3.589   2.972   2.242
 2066SOL    HW2 6215   3.517   3.017   2.382
 2067SOL     OW 6216   1.975   2.599   3.459
 2067SOL    HW1 6217   2.063   2.586   3.504
 2067SOL    HW2 6218   1.962   2.696   3.437
 2068SOL     OW 6219   2.475   3.227   2.588
 2068SOL    HW1 6220   2.426   3.140   2.597
 2068SOL    HW2 6221   2.452   3.270   2.501
 2069SOL     OW 6222   3.155   3.090   3.285
 2069SOL    HW1 6223   3.192   3.017   3.227
 2069SOL    HW2 6224   3.207   3.095   3.370
 2070SOL     OW 6225   2.671   1.866   2.364
 2070SOL    HW1 6226   2.711   1.957   2.355
 2070SOL    HW2 6227   2.571   1.874   2.370
 2071SOL     OW 6228   2.059   2.838   3.126
 2071SOL    HW1 6229   2.148   2.793   3.112
 2071SOL    HW2 6230   1.986   2.773   3.107
 2072SOL     OW 6231   3.387   2.861   2.052
 2072SOL    HW1 6232   3.324   2.785   2.065
 2072SOL    HW2 6233   3.435   2.879   2.138
 2073SOL     OW 6234   3.049   3.654   3.478
 2073SOL    HW1 6235   3.073   3.714   3.402
 2073SOL    HW2 6236   3.056   3.559   3.448
 2074SOL     OW 6237   2.179   2.113   3.663
 2074SOL    HW1 6238   2.250   2.184   3.669
 2074SOL    HW2 6239   2.091   2.152   3.691
 2075SOL     OW 6240   3.328   3.279   2.815
 2075SOL    HW1 6241   3.269   3.285   2.895
 2075SOL    HW2 6242   3.313   3.191   2.769
 2076SOL     OW 6243   3.529   3.576   2.434
 2076SOL    HW1 6244   3.488   3.553   2.346
 2076SOL    HW2 6245   3.511   3.502   2.499
 2077SOL     OW 6246   3.143   2.207   2.806
 2077SOL    HW1 6247   3.057   2.157   2.793
 2077SOL    HW2 6248   3.205   2.153   2.862
 2078SOL     OW 6249   3.438   3.524   2.169
 2078SOL    HW1 6250   3.527   3.570   2.172
 2078SOL    HW2 6251   3.417   3.500   2.074
 2079SOL     OW 6252   2.669   2.467   3.327
 2079SOL    HW1 6253   2.622   2.464   3.416
 2079SOL    HW2 6254   2.618   2.412   3.261
 2080SOL     OW 6255   3.256   2.331   3.536
 2080SOL    HW1 6256   3.236   2.374   3.624
 2080SOL    HW2 6257   3.334   2.269   3.545
 2081SOL     OW 6258   2.835   2.752   3.434
 2081SOL    HW1 6259   2.881   2.668   3.405
 2081SOL    HW2 6260   2.779   2.786   3.359
 2082SOL     OW 6261   2.853   2.272   3.104
 2082SOL    HW1 6262   2.776   2.306   3.158
 2082SOL    HW2 6263   2.819   2.221   3.025
 2083SOL     OW 6264   2.903   2.563   2.291
 2083SOL    HW1 6265   2.929   2.559   2.387
 2083SOL    HW2 6266   2.818   2.512   2.277
 2084SOL     OW 6267   1.938   2.673   2.651
 2084SOL    HW1 6268   2.037   2.661   2.660
 2084SOL    HW2 6269   1.914   2.768   2.672
 2085SOL     OW 6270   1.992   3.683   3.433
 2085SOL    HW1 6271   1.982   3.668   3.532
 2085SOL    HW2 6272   1.906   3.719   3.397
 2086SOL     OW 6273   2.727   2.210   2.057
 2086SOL    HW1 6274   2.786   2.273   2.008
 2086SOL    HW2 6275   2.746   2.116   2.028
 2087SOL     OW 6276   3.581   2.447   3.693
 2087SOL    HW1 6277   3.555   2.536   3.657
 2087SOL    HW2 6278   3.579   2.379   3.620
 2088SOL     OW 6279   3.224   3.006   2.407
 2088SOL    HW1 6280   3.307   2.977   2.359
 2088SOL    HW2 6281   3.175   3.073   2.351
 2089SOL     OW 6282   2.870   3.318   2.339
 2089SOL    HW1 6283   2.824   3.390   2.287
 2089SOL    HW2 6284   2.866   3.338   2.437
 2090SOL     OW 6285   2.213   3.663   2.715
 2090SOL    HW1 6286   2.263   3.577   2.721
 2090SOL    HW2 6287   2.278   3.740   2.712
 2091SOL     OW 6288   3.657   2.928   2.735
 2091SOL    HW1 6289   3.595   2.913   2.659
 2091SOL    HW2 6290   3.605   2.939   2.820
 2092SOL     OW 6291   3.089   3.412   3.368
 2092SOL    HW1 6292   3.095   3.335   3.432
 2092SOL    HW2 6293   3.037   3.386   3.288
 2093SOL     OW 6294   2.183   2.805   2.104
 2093SOL    HW1 6295   2.265   2.844   2.062
 2093SOL    HW2 6296   2.156   2.723   2.055
 2094SOL     OW 6297   3.320   2.597   2.590
 2094SOL    HW1 6298   3.315   2.532   2.665
 2094SOL    HW2 6299   3.400   2.656   2.603
 2095SOL     OW 6300   2.323   3.128   3.589
 2095SOL    HW1 6301   2.273   3.129   3.503
 2095SOL    HW2 6302   2.260   3.110   3.665
 2096SOL     OW 6303   2.973   3.638   2.099
 2096SOL    HW1 6304   2.913   3.576   2.149
 2096SOL    HW2 6305   3.004   3.594   2.014
 2097SOL     OW 6306   2.064   2.147   3.360
 2097SOL    HW1 6307   1.984   2.207   3.347
 2097SOL    HW2 6308   2.054   2.098   3.446
 2098SOL     OW 6309   3.494   3.239   1.943
 2098SOL    HW1 6310   3.462   3.333   1.933
 2098SOL    HW2 6311   3.418   3.176   1.931
 2099SOL     OW 6312   2.326   3.605   2.185
 2099SOL    HW1 6313   2.359   3.644   2.271
 2099SOL    HW2 6314   2.402   3.598   2.120
 2100SOL     OW 6315   3.262   1.969   2.288
 2100SOL    HW1 6316   3.238   1.932   2.198
 2100SOL    HW2 6317   3.361   1.985   2.292
 2101SOL     OW 6318   2.111   3.647   3.103
 2101SOL    HW1 6319   2.168   3.582   3.153
 2101SOL    HW2 6320   2.095   3.614   3.010
 2102SOL     OW 6321   2.802   3.560   2.766
 2102SOL    HW1 6322   2.882   3.503   2.787
 2102SOL    HW2 6323   2.753   3.520   2.689
 2103SOL     OW 6324   3.409   2.084   3.591
 2103SOL    HW1 6325   3.404   2.121   3.683
 2103SOL    HW2 6326   3.337   2.015   3.579
 2104SOL     OW 6327   2.476   1.984   1.979
 2104SOL    HW1 6328   2.574   1.962   1.986
 2104SOL    HW2 6329   2.445   1.967   1.886
 2105SOL     OW 6330   2.643   2.126   3.611
 2105SOL    HW1 6331   2.710   2.065   3.654
 2105SOL    HW2 6332   2.570   2.145   3.676
 2106SOL     OW 6333   2.750   3.376   3.057
 2106SOL    HW1 6334   2.727   3.351   2.963
 2106SOL    HW2 6335   2.811   3.307   3.096
 2107SOL     OW 6336   3.213   2.452   3.295
 2107SOL    HW1 6337   3.241   2.409   3.380
 2107SOL    HW2 6338   3.238   2.548   3.296
 2108SOL     OW 6339   2.665   3.264   2.786
 2108SOL    HW1 6340   2.755   3.278   2.744
 2108SOL    HW2 6341   2.594   3.266   2.715
 2109SOL     OW 6342   2.784   2.365   2.761
 2109SOL    HW1 6343   2.759   2.356   2.665
 2109SOL    HW2 6344   2.832   2.283   2.792
 2110SOL     OW 6345   2.401   1.926   2.374
 2110SOL    HW1 6346   2.320   1.927   2.432
 2110SOL    HW2 6347   2.404   2.009   2.319
 2111SOL     OW 6348   3.296   3.050   1.903
 2111SOL    HW1 6349   3.328   2.974   1.960
 2111SOL    HW2 6350   3.204   3.077   1.933
 2112SOL     OW 6351   2.159   1.897   2.033
 2112SOL    HW1 6352   2.208   1.981   2.012
 2112SOL    HW2 6353   2.221   1.832   2.078
 2113SOL     OW 6354   2.797   2.098   2.342
 2113SOL    HW1 6355   2.749   2.139   2.264
 2113SOL    HW2 6356   2.896   2.096   2.323
 2114SOL     OW 6357   2.938   2.545   3.326
 2114SOL    HW1 6358   2.858   2.484   3.329
 2114SOL    HW2 6359   3.019   2.492   3.302
 2115SOL     OW 6360   3.089   3.432   2.655
 2115SOL    HW1 6361   3.110   3.506   2.590
 2115SOL    HW2 6362   3.157   3.432   2.728
 2116SOL     OW 6363   2.321   3.014   2.603
 2116SOL    HW1 6364   2.250   2.987   2.668
 2116SOL    HW2 6365   2.295   2.986   2.510
 2117SOL     OW 6366   3.133   3.659   2.453
 2117SOL    HW1 6367   3.177   3.723   2.389
 2117SOL    HW2 6368   3.083   3.711   2.523
 2118SOL     OW 6369   2.894   2.411   1.878
 2118SOL    HW1 6370   2.853   2.493   1.839
 2118SOL    HW2 6371   2.958   2.437   1.951
 2119SOL     OW 6372   1.940   2.418   3.248
 2119SOL    HW1 6373   2.032   2.417   3.207
 2119SOL    HW2 6374   1.934   2.492   3.315
 2120SOL     OW 6375   2.423   2.084   3.009
 2120SOL    HW1 6376   2.461   2.000   3.046
 2120SOL    HW2 6377   2.335   2.103   3.053
 2121SOL     OW 6378   2.728   2.316   2.504
 2121SOL    HW1 6379   2.696   2.388   2.442
 2121SOL    HW2 6380   2.752   2.235   2.451
 2122SOL     OW 6381   2.879   1.901   2.615
 2122SOL    HW1 6382   2.807   1.906   2.546
 2122SOL    HW2 6383   2.855   1.832   2.684
 2123SOL     OW 6384   3.291   3.035   2.729
 2123SOL    HW1 6385   3.236   2.951   2.722
 2123SOL    HW2 6386   3.317   3.064   2.637
 2124SOL     OW 6387   3.328   2.452   2.854
 2124SOL    HW1 6388   3.298   2.357   2.861
 2124SOL    HW2 6389   3.401   2.468   2.920
 2125SOL     OW 6390   3.719   2.695   2.239
 2125SOL    HW1 6391   3.761   2.631   2.303
 2125SOL    HW2 6392   3.681   2.644   2.161
 2126SOL     OW 6393   2.350   3.247   2.036
 2126SOL    HW1 6394   2.263   3.232   2.083
 2126SOL    HW2 6395   2.333   3.273   1.941
 2127SOL     OW 6396   3.526   3.142   2.519
 2127SOL    HW1 6397   3.625   3.150   2.533
 2127SOL    HW2 6398   3.481   3.226   2.550
 2128SOL     OW 6399   3.252   2.437   1.940
 2128SOL    HW1 6400   3.198   2.416   2.021
 2128SOL    HW2 6401   3.343   2.396   1.949
 2129SOL     OW 6402   3.616   3.085   3.450
 2129SOL    HW1 6403   3.707   3.046   3.437
 2129SOL    HW2 6404   3.624   3.181   3.474
 2130SOL     OW 6405   2.926   3.209   3.202
 2130SOL    HW1 6406   2.846   3.186   3.257
 2130SOL    HW2 6407   3.009   3.183   3.251
 2131SOL     OW 6408   3.454   3.491   3.487
 2131SOL    HW1 6409   3.481   3.525   3.397
 2131SOL    HW2 6410   3.533   3.453   3.533
 2132SOL     OW 6411   2.973   3.057   2.962
 2132SOL    HW1 6412   2.933   3.101   3.043
 2132SOL    HW2 6413   2.932   3.094   2.879
 2133SOL     OW 6414   3.500   2.961   2.941
 2133SOL    HW1 6415   3.505   3.042   3.000
 2133SOL    HW2 6416   3.414   2.963   2.890
 2134SOL     OW 6417   2.777   1.951   3.264
 2134SOL    HW1 6418   2.802   1.931   3.169
 2134SOL    HW2 6419   2.849   2.007   3.306
 2135SOL     OW 6420   2.842   2.978   3.581
 2135SOL    HW1 6421   2.743   2.984   3.591
 2135SOL    HW2 6422   2.865   2.898   3.525
 2136SOL     OW 6423   2.567   2.912   2.230
 2136SOL    HW1 6424   2.553   2.919   2.329
 2136SOL    HW2 6425   2.651   2.861   2.212
 2137SOL     OW 6426   2.272   2.675   3.113
 2137SOL    HW1 6427   2.358   2.687   3.163
 2137SOL    HW2 6428   2.230   2.588   3.140
 2138SOL     OW 6429   3.136   2.248   3.124
 2138SOL    HW1 6430   3.157   2.322   3.188
 2138SOL    HW2 6431   3.047   2.265   3.081
 2139SOL     OW 6432   1.926   3.426   3.193
 2139SOL    HW1 6433   1.880   3.508   3.159
 2139SOL    HW2 6434   2.024   3.445   3.202
 2140SOL     OW 6435   2.229   2.962   2.363
 2140SOL    HW1 6436   2.222   3.045   2.307
 2140SOL    HW2 6437   2.233   2.882   2.303
 2141SOL     OW 6438   2.428   2.399   2.727
 2141SOL    HW1 6439   2.440   2.465   2.653
 2141SOL    HW2 6440   2.474   2.433   2.810
 2142SOL     OW 6441   3.114   3.210   2.250
 2142SOL    HW1 6442   3.164   3.287   2.290
 2142SOL    HW2 6443   3.019   3.212   2.282
 2143SOL     OW 6444   3.134   3.307   3.004
 2143SOL    HW1 6445   3.181   3.320   3.091
 2143SOL    HW2 6446   3.068   3.233   3.013
 2144SOL     OW 6447   3.444   2.501   2.334
 2144SOL    HW1 6448   3.413   2.562   2.407
 2144SOL    HW2 6449   3.494   2.553   2.265
 2145SOL     OW 6450   2.216   3.372   3.191
 2145SOL    HW1 6451   2.195   3.328   3.104
 2145SOL    HW2 6452   2.313   3.398   3.194
 2146SOL     OW 6453   2.264   2.613   3.460
 2146SOL    HW1 6454   2.332   2.668   3.413
 2146SOL    HW2 6455   2.304   2.525   3.487
 2147SOL     OW 6456   3.449   2.641   3.532
 2147SOL    HW1 6457   3.357   2.679   3.527
 2147SOL    HW2 6458   3.509   2.688   3.467
 2148SOL     OW 6459   2.875   1.967   3.632
 2148SOL    HW1 6460   2.881   2.052   3.580
 2148SOL    HW2 6461   2.907   1.891   3.575
 2149SOL     OW 6462   2.366   1.912   3.602
 2149SOL    HW1 6463   2.324   1.855   3.532
 2149SOL    HW2 6464   2.300   1.981   3.634
 2150SOL     OW 6465   2.435   2.732   2.891
 2150SOL    HW1 6466   2.479   2.821   2.882
 2150SOL    HW2 6467   2.372   2.732   2.968
 2151SOL     OW 6468   3.222   2.724   2.907
 2151SOL    HW1 6469   3.147   2.724   2.841
 2151SOL    HW2 6470   3.259   2.632   2.916
 2152SOL     OW 6471   3.071   2.387   2.137
 2152SOL    HW1 6472   3.084   2.303   2.191
 2152SOL    HW2 6473   3.042   2.461   2.197
 2153SOL     OW 6474   2.169   2.075   3.093
 2153SOL    HW1 6475   2.146   2.112   3.183
 2153SOL    HW2 6476   2.139   1.980   3.087
 2154SOL     OW 6477   1.899   3.172   3.144
 2154SOL    HW1 6478   1.952   3.123   3.212
 2154SOL    HW2 6479   1.921   3.270   3.149
 2155SOL     OW 6480   2.594   2.496   2.926
 2155SOL    HW1 6481   2.653   2.470   2.850
 2155SOL    HW2 6482   2.566   2.592   2.915
 2156SOL     OW 6483   3.590   2.797   3.716
 2156SOL    HW1 6484   3.544   2.790   3.627
 2156SOL    HW2 6485   3.528   2.841   3.782
 2157SOL     OW 6486   2.169   1.925   2.480
 2157SOL    HW1 6487   2.158   2.019   2.513
 2157SOL    HW2 6488   2.164   1.862   2.557
 2158SOL     OW 6489   3.484   2.229   2.236
 2158SOL    HW1 6490   3.486   2.153   2.300
 2158SOL    HW2 6491   3.436   2.306   2.276
 2159SOL     OW 6492   2.885   2.628   2.828
 2159SOL    HW1 6493   2.900   2.649   2.924
 2159SOL    HW2 6494   2.855   2.533   2.819
 2160SOL     OW 6495   2.842   3.435   3.562
 2160SOL    HW1 6496   2.822   3.479   3.474
 2160SOL    HW2 6497   2.881   3.344   3.546
 2161SOL     OW 6498   3.721   3.380   3.467
 2161SOL    HW1 6499   3.735   3.407   3.372
 2161SOL    HW2 6500   3.804   3.402   3.520
 2162SOL     OW 6501   2.212   2.760   3.666
 2162SOL    HW1 6502   2.288   2.804   3.714
 2162SOL    HW2 6503   2.247   2.713   3.584
 2163SOL     OW 6504   3.402   2.136   1.987
 2163SOL    HW1 6505   3.341   2.061   2.010
 2163SOL    HW2 6506   3.424   2.188   2.070
 2164SOL     OW 6507   3.165   2.700   1.904
 2164SOL    HW1 6508   3.199   2.607   1.919
 2164SOL    HW2 6509   3.183   2.727   1.809
 2165SOL     OW 6510   2.930   3.195   2.711
 2165SOL    HW1 6511   2.937   3.111   2.656
 2165SOL    HW2 6512   2.992   3.264   2.675
 2166SOL     OW 6513   2.181   2.672   2.811
 2166SOL    HW1 6514   2.274   2.708   2.816
 2166SOL    HW2 6515   2.175   2.587   2.863
 2167SOL     OW 6516   2.201   2.371   2.868
 2167SOL    HW1 6517   2.149   2.288   2.851
 2167SOL    HW2 6518   2.278   2.376   2.804
 2168SOL     OW 6519   3.000   2.242   3.540
 2168SOL    HW1 6520   2.955   2.305   3.604
 2168SOL    HW2 6521   3.093   2.273   3.523
 2169SOL     OW 6522   3.022   2.069   3.339
 2169SOL    HW1 6523   3.022   2.133   3.416
 2169SOL    HW2 6524   3.050   2.117   3.256
 2170SOL     OW 6525   1.870   3.188   2.062
 2170SOL    HW1 6526   1.777   3.209   2.031
 2170SOL    HW2 6527   1.880   3.089   2.075
 2171SOL     OW 6528   1.950   3.663   2.789
 2171SOL    HW1 6529   1.908   3.577   2.762
 2171SOL    HW2 6530   2.044   3.666   2.755
 2172SOL     OW 6531   2.366   3.430   2.772
 2172SOL    HW1 6532   2.432   3.504   2.781
 2172SOL    HW2 6533   2.410   3.351   2.730
 2173SOL     OW 6534   2.864   2.658   3.100
 2173SOL    HW1 6535   2.905   2.626   3.186
 2173SOL    HW2 6536   2.768   2.631   3.097
 2174SOL     OW 6537   1.902   2.406   2.976
 2174SOL    HW1 6538   1.987   2.373   2.935
 2174SOL    HW2 6539   1.915   2.421   3.074
 2175SOL     OW 6540   2.051   2.382   3.584
 2175SOL    HW1 6541   2.110   2.342   3.514
 2175SOL    HW2 6542   1.993   2.453   3.543
 2176SOL     OW 6543   3.231   2.812   3.522
 2176SOL    HW1 6544   3.270   2.901   3.542
 2176SOL    HW2 6545   3.241   2.792   3.425
 2177SOL     OW 6546   2.677   2.434   2.187
 2177SOL    HW1 6547   2.684   2.345   2.141
 2177SOL    HW2 6548   2.583   2.468   2.179
 2178SOL     OW 6549   3.519   2.466   3.068
 2178SOL    HW1 6550   3.481   2.397   3.130
 2178SOL    HW2 6551   3.601   2.430   3.024
 2179SOL     OW 6552   2.114   3.426   3.606
 2179SOL    HW1 6553   2.084   3.483   3.682
 2179SOL    HW2 6554   2.107   3.329   3.632
 2180SOL     OW 6555   2.533   2.326   3.131
 2180SOL    HW1 6556   2.499   2.237   3.101
 2180SOL    HW2 6557   2.559   2.380   3.051
 2181SOL     OW 6558   2.792   3.540   3.327
 2181SOL    HW1 6559   2.768   3.522   3.232
 2181SOL    HW2 6560   2.822   3.634   3.337
 2182SOL     OW 6561   2.021   2.999   3.328
 2182SOL    HW1 6562   2.043   2.938   3.404
 2182SOL    HW2 6563   2.031   2.950   3.242
 2183SOL     OW 6564   3.209   2.921   3.096
 2183SOL    HW1 6565   3.233   2.858   3.022
 2183SOL    HW2 6566   3.119   2.961   3.078
 2184SOL     OW 6567   3.164   2.717   2.171
 2184SOL    HW1 6568   3.078   2.686   2.213
 2184SOL    HW2 6569   3.160   2.703   2.072
 2185SOL     OW 6570   3.621   3.609   3.016
 2185SOL    HW1 6571   3.682   3.639   2.943
 2185SOL    HW2 6572   3.583   3.520   2.994
 2186SOL     OW 6573   3.114   3.593   2.990
 2186SOL    HW1 6574   3.198   3.598   2.936
 2186SOL    HW2 6575   3.091   3.497   3.008
 2187SOL     OW 6576   1.945   3.120   2.884
 2187SOL    HW1 6577   1.940   3.119   2.984
 2187SOL    HW2 6578   1.862   3.079   2.846
 2188SOL     OW 6579   2.550   3.524   3.578
 2188SOL    HW1 6580   2.494   3.605   3.587
 2188SOL    HW2 6581   2.602   3.528   3.492
 2189SOL     OW 6582   3.588   1.997   2.385
 2189SOL    HW1 6583   3.661   1.980   2.318
 2189SOL    HW2 6584   3.557   1.910   2.423
 2190SOL     OW 6585   3.250   3.435   2.339
 2190SOL    HW1 6586   3.317   3.447   2.265
 2190SOL    HW2 6587   3.210   3.524   2.362
 2191SOL     OW 6588   1.992   3.656   3.713
 2191SOL    HW1 6589   1.951   3.582   3.766
 2191SOL    HW2 6590   2.056   3.707   3.771
 2192SOL     OW 6591   3.142   2.789   2.534
 2192SOL    HW1 6592   3.202   2.708   2.536
 2192SOL    HW2 6593   3.182   2.858   2.474
 2193SOL     OW 6594   2.692   3.135   3.284
 2193SOL    HW1 6595   2.687   3.168   3.379
 2193SOL    HW2 6596   2.606   3.154   3.238
 2194SOL     OW 6597   2.534   3.478   2.016
 2194SOL    HW1 6598   2.543   3.488   1.917
 2194SOL    HW2 6599   2.494   3.389   2.037
 2195SOL     OW 6600   3.512   3.582   3.256
 2195SOL    HW1 6601   3.565   3.592   3.172
 2195SOL    HW2 6602   3.485   3.672   3.290
 2196SOL     OW 6603   3.703   2.037   2.825
 2196SOL    HW1 6604   3.742   1.952   2.789
 2196SOL    HW2 6605   3.605   2.039   2.806
 2197SOL     OW 6606   2.125   2.188   2.582
 2197SOL    HW1 6607   2.046   2.239   2.548
 2197SOL    HW2 6608   2.116   2.173   2.680
 2198SOL     OW 6609   3.056   3.474   1.893
 2198SOL    HW1 6610   3.062   3.381   1.930
 2198SOL    HW2 6611   2.997   3.474   1.813
 2199SOL     OW 6612   2.684   2.864   3.234
 2199SOL    HW1 6613   2.724   2.863   3.142
 2199SOL    HW2 6614   2.694   2.956   3.274
 2200SOL     OW 6615   2.778   2.772   2.153
 2200SOL    HW1 6616   2.841   2.810   2.085
 2200SOL    HW2 6617   2.818   2.689   2.192
 2201SOL     OW 6618   3.366   3.469   1.906
 2201SOL    HW1 6619   3.274   3.506   1.913
 2201SOL    HW2 6620   3.404   3.489   1.816
 2202SOL     OW 6621   2.234   3.150   3.352
 2202SOL    HW1 6622   2.221   3.243   3.318
 2202SOL    HW2 6623   2.150   3.098   3.339
 2203SOL     OW 6624   3.476   3.154   3.151
 2203SOL    HW1 6625   3.536   3.157   3.231
 2203SOL    HW2 6626   3.401   3.218   3.164
 2204SOL     OW 6627   2.901   2.960   2.558
 2204SOL    HW1 6628   2.831   2.913   2.612
 2204SOL    HW2 6629   2.960   2.892   2.515
 2205SOL     OW 6630   2.876   2.098   2.833
 2205SOL    HW1 6631   2.868   2.062   2.740
 2205SOL    HW2 6632   2.874   2.022   2.898
 2206SOL     OW 6633   2.452   3.349   2.353
 2206SOL    HW1 6634   2.494   3.291   2.283
 2206SOL    HW2 6635   2.408   3.428   2.309
 2207SOL     OW 6636   3.571   2.247   3.243
 2207SOL    HW1 6637   3.644   2.316   3.247
 2207SOL    HW2 6638   3.599   2.172   3.184
 2208SOL     OW 6639   2.117   3.210   2.152
 2208SOL    HW1 6640   2.021   3.211   2.125
 2208SOL    HW2 6641   2.129   3.263   2.236
 2209SOL     OW 6642   1.967   2.875   3.588
 2209SOL    HW1 6643   1.890   2.842   3.642
 2209SOL    HW2 6644   2.052   2.845   3.630
 2210SOL     OW 6645   2.534   2.065   3.351
 2210SOL    HW1 6646   2.624   2.049   3.311
 2210SOL    HW2 6647   2.542   2.070   3.450
 2211SOL     OW 6648   1.937   2.207   1.895
 2211SOL    HW1 6649   1.845   2.179   1.866
 2211SOL    HW2 6650   1.968   2.284   1.839
 2212SOL     OW 6651   3.302   2.718   3.260
 2212SOL    HW1 6652   3.245   2.770   3.197
 2212SOL    HW2 6653   3.398   2.730   3.236
 2213SOL     OW 6654   1.934   2.028   2.180
 2213SOL    HW1 6655   1.917   2.111   2.126
 2213SOL    HW2 6656   2.024   1.991   2.158
 2214SOL     OW 6657   3.045   3.197   1.981
 2214SOL    HW1 6658   2.946   3.186   1.983
 2214SOL    HW2 6659   3.079   3.212   2.074
 2215SOL     OW 6660   2.475   2.704   3.293
 2215SOL    HW1 6661   2.531   2.785   3.276
 2215SOL    HW2 6662   2.534   2.624   3.296
 2216SOL     OW 6663   3.355   3.629   2.821
 2216SOL    HW1 6664   3.388   3.693   2.752
 2216SOL    HW2 6665   3.421   3.623   2.896
 2217SOL     OW 6666   2.578   2.427   3.570
 2217SOL    HW1 6667   2.597   2.492   3.644
 2217SOL    HW2 6668   2.638   2.347   3.579
 2218SOL     OW 6669   3.312   3.082   3.495
 2218SOL    HW1 6670   3.303   3.072   3.594
 2218SOL    HW2 6671   3.408   3.075   3.469
 2219SOL     OW 6672   2.252   3.603   3.422
 2219SOL    HW1 6673   2.161   3.644   3.420
 2219SOL    HW2 6674   2.245   3.509   3.454
 2220SOL     OW 6675   3.536   2.745   3.116
 2220SOL    HW1 6676   3.509   2.656   3.079
 2220SOL    HW2 6677   3.537   2.813   3.043
 2221SOL     OW 6678   3.087   2.187   2.311
 2221SOL    HW1 6679   3.152   2.113   2.300
 2221SOL    HW2 6680   3.107   2.237   2.395
 2222SOL     OW 6681   2.456   2.607   2.514
 2222SOL    HW1 6682   2.506   2.692   2.495
 2222SOL    HW2 6683   2.368   2.609   2.466
 2223SOL     OW 6684   3.639   2.204   3.504
 2223SOL    HW1 6685   3.622   2.235   3.410
 2223SOL    HW2 6686   3.555   2.167   3.542
 2224SOL     OW 6687   3.592   2.796   3.379
 2224SOL    HW1 6688   3.630   2.887   3.394
 2224SOL    HW2 6689   3.584   2.779   3.280
 2225SOL     OW 6690   2.721   3.236   1.878
 2225SOL    HW1 6691   2.675   3.251   1.966
 2225SOL    HW2 6692   2.765   3.321   1.848
 2226SOL     OW 6693   2.523   3.652   2.815
 2226SOL    HW1 6694   2.477   3.740   2.802
 2226SOL    HW2 6695   2.622   3.664   2.808
 2227SOL     OW 6696   2.721   2.818   2.723
 2227SOL    HW1 6697   2.775   2.749   2.771
 2227SOL    HW2 6698   2.689   2.887   2.789
 2228SOL     OW 6699   2.945   2.846   1.949
 2228SOL    HW1 6700   2.922   2.899   1.867
 2228SOL    HW2 6701   3.026   2.790   1.930
 2229SOL     OW 6702   3.723   3.431   2.713
 2229SOL    HW1 6703   3.652   3.419   2.643
 2229SOL    HW2 6704   3.724   3.352   2.773
 2230SOL     OW 6705   2.083   3.176   3.706
 2230SOL    HW1 6706   2.018   3.103   3.685
 2230SOL    HW2 6707   2.087   3.190   3.804
 2231SOL     OW 6708   1.941   3.102   2.515
 2231SOL    HW1 6709   1.940   3.055   2.603
 2231SOL    HW2 6710   2.023   3.074   2.464
 2232SOL     OW 6711   2.534   3.253   3.486
 2232SOL    HW1 6712   2.456   3.203   3.524
 2232SOL    HW2 6713   2.531   3.348   3.517
 2233SOL     OW 6714   3.686   2.054   3.089
 2233SOL    HW1 6715   3.682   1.964   3.133
 2233SOL    HW2 6716   3.689   2.043   2.990
 2234SOL     OW 6717   3.567   3.349   2.966
 2234SOL    HW1 6718   3.474   3.324   2.939
 2234SOL    HW2 6719   3.593   3.299   3.048
 2235SOL     OW 6720   2.179   2.409   3.142
 2235SOL    HW1 6721   2.217   2.350   3.214
 2235SOL    HW2 6722   2.219   2.383   3.054
 2236SOL     OW 6723   2.674   3.448   2.549
 2236SOL    HW1 6724   2.706   3.458   2.455
 2236SOL    HW2 6725   2.595   3.386   2.551
 2237SOL     OW 6726   3.286   2.076   2.974
 2237SOL    HW1 6727   3.338   2.011   3.029
 2237SOL    HW2 6728   3.237   2.139   3.035
 2238SOL     OW 6729   2.863   1.896   3.016
 2238SOL    HW1 6730   2.800   1.824   2.985
 2238SOL    HW2 6731   2.956   1.860   3.016
 2239SOL     OW 6732   2.632   3.192   2.163
 2239SOL    HW1 6733   2.586   3.105   2.180
 2239SOL    HW2 6734   2.723   3.189   2.204
 2240SOL     OW 6735   2.480   3.429   3.146
 2240SOL    HW1 6736   2.475   3.511   3.203
 2240SOL    HW2 6737   2.569   3.426   3.101
 2241SOL     OW 6738   3.214   1.914   2.030
 2241SOL    HW1 6739   3.249   1.873   1.946
 2241SOL    HW2 6740   3.124   1.876   2.050
 2242SOL     OW 6741   3.162   2.315   2.553
 2242SOL    HW1 6742   3.103   2.395   2.557
 2242SOL    HW2 6743   3.177   2.280   2.646
 2243SOL     OW 6744   3.455   2.083   2.744
 2243SOL    HW1 6745   3.371   2.082   2.798
 2243SOL    HW2 6746   3.457   2.166   2.688
 2244SOL     OW 6747   1.901   2.939   2.162
 2244SOL    HW1 6748   2.000   2.928   2.153
 2244SOL    HW2 6749   1.861   2.853   2.194
 2245SOL     OW 6750   2.737   3.508   2.199
 2245SOL    HW1 6751   2.660   3.473   2.145
 2245SOL    HW2 6752   2.705   3.579   2.261
 2246SOL     OW 6753   2.092   2.490   3.837
 2246SOL    HW1 6754   1.999   2.488   3.874
 2246SOL    HW2 6755   2.093   2.451   3.745
 2247SOL     OW 6756   2.087   2.137   4.720
 2247SOL    HW1 6757   2.122   2.120   4.812
 2247SOL    HW2 6758   1.999   2.092   4.708
 2248SOL     OW 6759   1.881   2.230   4.371
 2248SOL    HW1 6760   1.799   2.273   4.410
 2248SOL    HW2 6761   1.853   2.157   4.308
 2249SOL     OW 6762   3.417   3.373   4.427
 2249SOL    HW1 6763   3.360   3.357   4.508
 2249SOL    HW2 6764   3.358   3.383   4.347
 2250SOL     OW 6765   2.997   2.565   4.441
 2250SOL    HW1 6766   3.054   2.643   4.416
 2250SOL    HW2 6767   2.937   2.591   4.517
 2251SOL     OW 6768   3.617   2.469   3.955
 2251SOL    HW1 6769   3.605   2.456   3.856
 2251SOL    HW2 6770   3.587   2.388   4.004
 2252SOL     OW 6771   2.630   3.006   4.747
 2252SOL    HW1 6772   2.552   3.023   4.807
 2252SOL    HW2 6773   2.664   3.093   4.711
 2253SOL     OW 6774   2.547   2.874   4.389
 2253SOL    HW1 6775   2.616   2.858   4.459
 2253SOL    HW2 6776   2.474   2.931   4.427
 2254SOL     OW 6777   3.465   2.309   4.461
 2254SOL    HW1 6778   3.391   2.355   4.411
 2254SOL    HW2 6779   3.516   2.377   4.514
 2255SOL     OW 6780   2.093   3.575   4.207
 2255SOL    HW1 6781   2.127   3.652   4.261
 2255SOL    HW2 6782   2.137   3.575   4.117
 2256SOL     OW 6783   2.092   3.296   4.262
 2256SOL    HW1 6784   2.066   3.392   4.262
 2256SOL    HW2 6785   2.021   3.242   4.307
 2257SOL     OW 6786   2.102   2.953   4.610
 2257SOL    HW1 6787   2.116   2.869   4.662
 2257SOL    HW2 6788   2.047   3.017   4.665
 2258SOL     OW 6789   2.468   2.826   3.847
 2258SOL    HW1 6790   2.475   2.910   3.793
 2258SOL    HW2 6791   2.514   2.839   3.935
 2259SOL     OW 6792   1.984   2.505   4.287
 2259SOL    HW1 6793   1.939   2.417   4.304
 2259SOL    HW2 6794   1.983   2.559   4.371
 2260SOL     OW 6795   3.704   3.629   4.083
 2260SOL    HW1 6796   3.758   3.600   4.163
 2260SOL    HW2 6797   3.734   3.719   4.054
 2261SOL     OW 6798   1.889   3.458   3.841
 2261SOL    HW1 6799   1.870   3.362   3.862
 2261SOL    HW2 6800   1.856   3.516   3.916
 2262SOL     OW 6801   3.551   2.784   4.336
 2262SOL    HW1 6802   3.646   2.755   4.344
 2262SOL    HW2 6803   3.543   2.849   4.261
 2263SOL     OW 6804   3.503   2.970   4.156
 2263SOL    HW1 6805   3.589   2.972   4.104
 2263SOL    HW2 6806   3.517   3.017   4.244
 2264SOL     OW 6807   2.475   3.227   4.450
 2264SOL    HW1 6808   2.426   3.140   4.459
 2264SOL    HW2 6809   2.452   3.270   4.363
 2265SOL     OW 6810   2.671   1.866   4.226
 2265SOL    HW1 6811   2.711   1.957   4.217
 2265SOL    HW2 6812   2.571   1.874   4.232
 2266SOL     OW 6813   3.387   2.861   3.914
 2266SOL    HW1 6814   3.324   2.785   3.927
 2266SOL    HW2 6815   3.435   2.879   4.000
 2267SOL     OW 6816   3.529   3.576   4.296
 2267SOL    HW1 6817   3.488   3.553   4.208
 2267SOL    HW2 6818   3.511   3.502   4.361
 2268SOL     OW 6819   2.460   2.591   3.994
 2268SOL    HW1 6820   2.484   2.660   3.926
 2268SOL    HW2 6821   2.382   2.624   4.048
 2269SOL     OW 6822   3.143   2.207   4.668
 2269SOL    HW1 6823   3.057   2.157   4.655
 2269SOL    HW2 6824   3.205   2.153   4.724
 2270SOL     OW 6825   3.438   3.524   4.031
 2270SOL    HW1 6826   3.527   3.570   4.034
 2270SOL    HW2 6827   3.417   3.500   3.936
 2271SOL     OW 6828   2.903   2.563   4.153
 2271SOL    HW1 6829   2.929   2.559   4.249
 2271SOL    HW2 6830   2.818   2.512   4.139
 2272SOL     OW 6831   1.938   2.673   4.513
 2272SOL    HW1 6832   2.037   2.661   4.522
 2272SOL    HW2 6833   1.914   2.768   4.534
 2273SOL     OW 6834   2.727   2.210   3.919
 2273SOL    HW1 6835   2.786   2.273   3.870
 2273SOL    HW2 6836   2.746   2.116   3.890
 2274SOL     OW 6837   3.224   3.006   4.269
 2274SOL    HW1 6838   3.307   2.977   4.221
 2274SOL    HW2 6839   3.175   3.073   4.213
 2275SOL     OW 6840   2.412   2.058   4.609
 2275SOL    HW1 6841   2.407   2.053   4.709
 2275SOL    HW2 6842   2.414   2.154   4.580
 2276SOL     OW 6843   2.870   3.318   4.201
 2276SOL    HW1 6844   2.824   3.390   4.149
 2276SOL    HW2 6845   2.866   3.338   4.299
 2277SOL     OW 6846   2.213   3.663   4.577
 2277SOL    HW1 6847   2.263   3.577   4.583
 2277SOL    HW2 6848   2.278   3.740   4.574
 2278SOL     OW 6849   3.657   2.928   4.597
 2278SOL    HW1 6850   3.595   2.913   4.521
 2278SOL    HW2 6851   3.605   2.939   4.682
 2279SOL     OW 6852   2.183   2.805   3.966
 2279SOL    HW1 6853   2.265   2.844   3.924
 2279SOL    HW2 6854   2.156   2.723   3.917
 2280SOL     OW 6855   3.320   2.597   4.452
 2280SOL    HW1 6856   3.315   2.532   4.527
 2280SOL    HW2 6857   3.400   2.656   4.465
 2281SOL     OW 6858   2.973   3.638   3.961
 2281SOL    HW1 6859   2.913   3.576   4.011
 2281SOL    HW2 6860   3.004   3.594   3.876
 2282SOL     OW 6861   3.494   3.239   3.805
 2282SOL    HW1 6862   3.462   3.333   3.795
 2282SOL    HW2 6863   3.418   3.176   3.793
 2283SOL     OW 6864   2.326   3.605   4.047
 2283SOL    HW1 6865   2.359   3.644   4.133
 2283SOL    HW2 6866   2.402   3.598   3.982
 2284SOL     OW 6867   3.262   1.969   4.150
 2284SOL    HW1 6868   3.238   1.932   4.060
 2284SOL    HW2 6869   3.361   1.985   4.154
 2285SOL     OW 6870   2.244   2.562   4.204
 2285SOL    HW1 6871   2.289   2.472   4.201
 2285SOL    HW2 6872   2.150   2.551   4.237
 2286SOL     OW 6873   2.476   1.984   3.841
 2286SOL    HW1 6874   2.574   1.962   3.848
 2286SOL    HW2 6875   2.445   1.967   3.748
 2287SOL     OW 6876   2.401   1.926   4.236
 2287SOL    HW1 6877   2.320   1.927   4.294
 2287SOL    HW2 6878   2.404   2.009   4.181
 2288SOL     OW 6879   3.296   3.050   3.765
 2288SOL    HW1 6880   3.328   2.974   3.822
 2288SOL    HW2 6881   3.204   3.077   3.795
 2289SOL     OW 6882   2.159   1.897   3.895
 2289SOL    HW1 6883   2.208   1.981   3.874
 2289SOL    HW2 6884   2.221   1.832   3.940
 2290SOL     OW 6885   2.797   2.098   4.204
 2290SOL    HW1 6886   2.749   2.139   4.126
 2290SOL    HW2 6887   2.896   2.096   4.185
 2291SOL     OW 6888   2.321   3.014   4.465
 2291SOL    HW1 6889   2.250   2.987   4.530
 2291SOL    HW2 6890   2.295   2.986   4.372
 2292SOL     OW 6891   3.133   3.659   4.315
 2292SOL    HW1 6892   3.177   3.723   4.251
 2292SOL    HW2 6893   3.083   3.711   4.385
 2293SOL     OW 6894   2.894   2.411   3.740
 2293SOL    HW1 6895   2.853   2.493   3.701
 2293SOL    HW2 6896   2.958   2.437   3.813
 2294SOL     OW 6897   2.728   2.316   4.366
 2294SOL    HW1 6898   2.696   2.388   4.304
 2294SOL    HW2 6899   2.752   2.235   4.313
 2295SOL     OW 6900   2.879   1.901   4.477
 2295SOL    HW1 6901   2.807   1.906   4.408
 2295SOL    HW2 6902   2.855   1.832   4.546
 2296SOL     OW 6903   3.719   2.695   4.101
 2296SOL    HW1 6904   3.761   2.631   4.165
 2296SOL    HW2 6905   3.681   2.644   4.023
 2297SOL     OW 6906   2.350   3.247   3.898
 2297SOL    HW1 6907   2.263   3.232   3.945
 2297SOL    HW2 6908   2.333   3.273   3.803
 2298SOL     OW 6909   3.526   3.142   4.381
 2298SOL    HW1 6910   3.625   3.150   4.395
 2298SOL    HW2 6911   3.481   3.226   4.412
 2299SOL     OW 6912   3.252   2.437   3.802
 2299SOL    HW1 6913   3.198   2.416   3.883
 2299SOL    HW2 6914   3.343   2.396   3.811
 2300SOL     OW 6915   2.389   2.118   4.052
 2300SOL    HW1 6916   2.416   2.059   3.977
 2300SOL    HW2 6917   2.389   2.213   4.021
 2301SOL     OW 6918   2.567   2.912   4.092
 2301SOL    HW1 6919   2.553   2.919   4.191
 2301SOL    HW2 6920   2.651   2.861   4.074
 2302SOL     OW 6921   2.229   2.962   4.225
 2302SOL    HW1 6922   2.222   3.045   4.169
 2302SOL    HW2 6923   2.233   2.882   4.165
 2303SOL     OW 6924   2.428   2.399   4.589
 2303SOL    HW1 6925   2.440   2.465   4.515
 2303SOL    HW2 6926   2.474   2.433   4.672
 2304SOL     OW 6927   3.114   3.210   4.112
 2304SOL    HW1 6928   3.164   3.287   4.152
 2304SOL    HW2 6929   3.019   3.212   4.144
 2305SOL     OW 6930   3.444   2.501   4.196
 2305SOL    HW1 6931   3.413   2.562   4.269
 2305SOL    HW2 6932   3.494   2.553   4.127
 2306SOL     OW 6933   3.071   2.387   3.999
 2306SOL    HW1 6934   3.084   2.303   4.053
 2306SOL    HW2 6935   3.042   2.461   4.059
 2307SOL     OW 6936   2.169   1.925   4.342
 2307SOL    HW1 6937   2.158   2.019   4.375
 2307SOL    HW2 6938   2.164   1.862   4.419
 2308SOL     OW 6939   3.484   2.229   4.098
 2308SOL    HW1 6940   3.486   2.153   4.162
 2308SOL    HW2 6941   3.436   2.306   4.138
 2309SOL     OW 6942   3.402   2.136   3.849
 2309SOL    HW1 6943   3.341   2.061   3.872
 2309SOL    HW2 6944   3.424   2.188   3.932
 2310SOL     OW 6945   3.165   2.700   3.766
 2310SOL    HW1 6946   3.199   2.607   3.781
 2310SOL    HW2 6947   3.183   2.727   3.671
 2311SOL     OW 6948   2.930   3.195   4.573
 2311SOL    HW1 6949   2.937   3.111   4.518
 2311SOL    HW2 6950   2.992   3.264   4.537
 2312SOL     OW 6951   1.870   3.188   3.924
 2312SOL    HW1 6952   1.777   3.209   3.893
 2312SOL    HW2 6953   1.880   3.089   3.937
 2313SOL     OW 6954   1.950   3.663   4.651
 2313SOL    HW1 6955   1.908   3.577   4.624
 2313SOL    HW2 6956   2.044   3.666   4.617
 2314SOL     OW 6957   2.677   2.434   4.049
 2314SOL    HW1 6958   2.684   2.345   4.003
 2314SOL    HW2 6959   2.583   2.468   4.041
 2315SOL     OW 6960   2.335   2.362   3.915
 2315SOL    HW1 6961   2.396   2.442   3.919
 2315SOL    HW2 6962   2.240   2.393   3.922
 2316SOL     OW 6963   3.164   2.717   4.033
 2316SOL    HW1 6964   3.078   2.686   4.075
 2316SOL    HW2 6965   3.160   2.703   3.934
 2317SOL     OW 6966   3.588   1.997   4.247
 2317SOL    HW1 6967   3.661   1.980   4.180
 2317SOL    HW2 6968   3.557   1.910   4.285
 2318SOL     OW 6969   3.250   3.435   4.201
 2318SOL    HW1 6970   3.317   3.447   4.127
 2318SOL    HW2 6971   3.210   3.524   4.224
 2319SOL     OW 6972   3.142   2.789   4.396
 2319SOL    HW1 6973   3.202   2.708   4.398
 2319SOL    HW2 6974   3.182   2.858   4.336
 2320SOL     OW 6975   2.534   3.478   3.878
 2320SOL    HW1 6976   2.543   3.488   3.779
 2320SOL    HW2 6977   2.494   3.389   3.899
 2321SOL     OW 6978   3.703   2.037   4.687
 2321SOL    HW1 6979   3.742   1.952   4.651
 2321SOL    HW2 6980   3.605   2.039   4.668
 2322SOL     OW 6981   2.125   2.188   4.444
 2322SOL    HW1 6982   2.046   2.239   4.410
 2322SOL    HW2 6983   2.116   2.173   4.542
 2323SOL     OW 6984   3.056   3.474   3.755
 2323SOL    HW1 6985   3.062   3.381   3.792
 2323SOL    HW2 6986   2.997   3.474   3.675
 2324SOL     OW 6987   2.778   2.772   4.015
 2324SOL    HW1 6988   2.841   2.810   3.947
 2324SOL    HW2 6989   2.818   2.689   4.054
 2325SOL     OW 6990   3.366   3.469   3.768
 2325SOL    HW1 6991   3.274   3.506   3.775
 2325SOL    HW2 6992   3.404   3.489   3.678
 2326SOL     OW 6993   2.901   2.960   4.420
 2326SOL    HW1 6994   2.831   2.913   4.474
 2326SOL    HW2 6995   2.960   2.892   4.377
 2327SOL     OW 6996   2.452   3.349   4.215
 2327SOL    HW1 6997   2.494   3.291   4.145
 2327SOL    HW2 6998   2.408   3.428   4.171
 2328SOL     OW 6999   2.117   3.210   4.014
 2328SOL    HW1 7000   2.021   3.211   3.987
 2328SOL    HW2 7001   2.129   3.263   4.098
 2329SOL     OW 7002   1.937   2.207   3.757
 2329SOL    HW1 7003   1.845   2.179   3.728
 2329SOL    HW2 7004   1.968   2.284   3.701
 2330SOL     OW 7005   1.934   2.028   4.042
 2330SOL    HW1 7006   1.917   2.111   3.988
 2330SOL    HW2 7007   2.024   1.991   4.020
 2331SOL     OW 7008   3.045   3.197   3.843
 2331SOL    HW1 7009   2.946   3.186   3.845
 2331SOL    HW2 7010   3.079   3.212   3.936
 2332SOL     OW 7011   3.087   2.187   4.173
 2332SOL    HW1 7012   3.152   2.113   4.162
 2332SOL    HW2 7013   3.107   2.237   4.257
 2333SOL     OW 7014   2.456   2.607   4.376
 2333SOL    HW1 7015   2.506   2.692   4.357
 2333SOL    HW2 7016   2.368   2.609   4.328
 2334SOL     OW 7017   2.721   3.236   3.740
 2334SOL    HW1 7018   2.675   3.251   3.828
 2334SOL    HW2 7019   2.765   3.321   3.710
 2335SOL     OW 7020   2.523   3.652   4.677
 2335SOL    HW1 7021   2.477   3.740   4.664
 2335SOL    HW2 7022   2.622   3.664   4.670
 2336SOL     OW 7023   2.721   2.818   4.585
 2336SOL    HW1 7024   2.775   2.749   4.633
 2336SOL    HW2 7025   2.689   2.887   4.651
 2337SOL     OW 7026   2.945   2.846   3.811
 2337SOL    HW1 7027   2.922   2.899   3.729
 2337SOL    HW2 7028   3.026   2.790   3.792
 2338SOL     OW 7029   3.723   3.431   4.575
 2338SOL    HW1 7030   3.652   3.419   4.505
 2338SOL    HW2 7031   3.724   3.352   4.635
 2339SOL     OW 7032   1.941   3.102   4.377
 2339SOL    HW1 7033   1.940   3.055   4.465
 2339SOL    HW2 7034   2.023   3.074   4.326
 2340SOL     OW 7035   2.290   2.286   4.244
 2340SOL    HW1 7036   2.320   2.214   4.182
 2340SOL    HW2 7037   2.251   2.246   4.327
 2341SOL     OW 7038   2.674   3.448   4.411
 2341SOL    HW1 7039   2.706   3.458   4.317
 2341SOL    HW2 7040   2.595   3.386   4.413
 2342SOL     OW 7041   2.632   3.192   4.025
 2342SOL    HW1 7042   2.586   3.105   4.042
 2342SOL    HW2 7043   2.723   3.189   4.066
 2343SOL     OW 7044   3.214   1.914   3.892
 2343SOL    HW1 7045   3.249   1.873   3.808
 2343SOL    HW2 7046   3.124   1.876   3.912
 2344SOL     OW 7047   3.162   2.315   4.415
 2344SOL    HW1 7048   3.103   2.395   4.419
 2344SOL    HW2 7049   3.177   2.280   4.508
 2345SOL     OW 7050   1.901   2.939   4.024
 2345SOL    HW1 7051   2.000   2.928   4.015
 2345SOL    HW2 7052   1.861   2.853   4.056
 2346SOL     OW 7053   2.737   3.508   4.061
 2346SOL    HW1 7054   2.660   3.473   4.007
 2346SOL    HW2 7055   2.705   3.579   4.123
 2347SOL     OW 7056   2.092   4.352   0.113
 2347SOL    HW1 7057   1.999   4.350   0.150
 2347SOL    HW2 7058   2.093   4.313   0.021
 2348SOL     OW 7059   2.087   3.999   0.996
 2348SOL    HW1 7060   2.122   3.982   1.088
 2348SOL    HW2 7061   1.999   3.954   0.984
 2349SOL     OW 7062   1.881   4.092   0.647
 2349SOL    HW1 7063   1.799   4.135   0.686
 2349SOL    HW2 7064   1.853   4.019   0.584
 2350SOL     OW 7065   2.997   4.427   0.717
 2350SOL    HW1 7066   3.054   4.505   0.692
 2350SOL    HW2 7067   2.937   4.453   0.793
 2351SOL     OW 7068   3.617   4.331   0.231
 2351SOL    HW1 7069   3.605   4.318   0.132
 2351SOL    HW2 7070   3.587   4.250   0.280
 2352SOL     OW 7071   2.712   4.522   1.823
 2352SOL    HW1 7072   2.708   4.598   1.888
 2352SOL    HW2 7073   2.734   4.558   1.732
 2353SOL     OW 7074   2.547   4.736   0.665
 2353SOL    HW1 7075   2.616   4.720   0.735
 2353SOL    HW2 7076   2.474   4.793   0.703
 2354SOL     OW 7077   2.300   4.116   1.499
 2354SOL    HW1 7078   2.382   4.060   1.508
 2354SOL    HW2 7079   2.219   4.058   1.503
 2355SOL     OW 7080   3.465   4.171   0.737
 2355SOL    HW1 7081   3.391   4.217   0.687
 2355SOL    HW2 7082   3.516   4.239   0.790
 2356SOL     OW 7083   3.456   3.838   1.480
 2356SOL    HW1 7084   3.438   3.905   1.408
 2356SOL    HW2 7085   3.453   3.884   1.569
 2357SOL     OW 7086   1.984   4.367   0.563
 2357SOL    HW1 7087   1.939   4.279   0.580
 2357SOL    HW2 7088   1.983   4.421   0.647
 2358SOL     OW 7089   1.975   4.461   1.597
 2358SOL    HW1 7090   2.063   4.448   1.642
 2358SOL    HW2 7091   1.962   4.558   1.575
 2359SOL     OW 7092   2.671   3.728   0.502
 2359SOL    HW1 7093   2.711   3.819   0.493
 2359SOL    HW2 7094   2.571   3.736   0.508
 2360SOL     OW 7095   2.179   3.975   1.801
 2360SOL    HW1 7096   2.250   4.046   1.807
 2360SOL    HW2 7097   2.091   4.014   1.829
 2361SOL     OW 7098   2.460   4.453   0.270
 2361SOL    HW1 7099   2.484   4.522   0.202
 2361SOL    HW2 7100   2.382   4.486   0.324
 2362SOL     OW 7101   3.143   4.069   0.944
 2362SOL    HW1 7102   3.057   4.019   0.931
 2362SOL    HW2 7103   3.205   4.015   1.000
 2363SOL     OW 7104   2.669   4.329   1.465
 2363SOL    HW1 7105   2.622   4.326   1.554
 2363SOL    HW2 7106   2.618   4.274   1.399
 2364SOL     OW 7107   3.256   4.193   1.674
 2364SOL    HW1 7108   3.236   4.236   1.762
 2364SOL    HW2 7109   3.334   4.131   1.683
 2365SOL     OW 7110   2.853   4.134   1.242
 2365SOL    HW1 7111   2.776   4.168   1.296
 2365SOL    HW2 7112   2.819   4.083   1.163
 2366SOL     OW 7113   2.903   4.425   0.429
 2366SOL    HW1 7114   2.929   4.421   0.525
 2366SOL    HW2 7115   2.818   4.374   0.415
 2367SOL     OW 7116   1.938   4.535   0.789
 2367SOL    HW1 7117   2.037   4.523   0.798
 2367SOL    HW2 7118   1.914   4.630   0.810
 2368SOL     OW 7119   2.727   4.072   0.195
 2368SOL    HW1 7120   2.786   4.135   0.146
 2368SOL    HW2 7121   2.746   3.978   0.166
 2369SOL     OW 7122   3.581   4.309   1.831
 2369SOL    HW1 7123   3.555   4.398   1.795
 2369SOL    HW2 7124   3.579   4.241   1.758
 2370SOL     OW 7125   2.412   3.920   0.885
 2370SOL    HW1 7126   2.407   3.915   0.985
 2370SOL    HW2 7127   2.414   4.016   0.856
 2371SOL     OW 7128   3.320   4.459   0.728
 2371SOL    HW1 7129   3.315   4.394   0.803
 2371SOL    HW2 7130   3.400   4.518   0.741
 2372SOL     OW 7131   2.064   4.009   1.498
 2372SOL    HW1 7132   1.984   4.069   1.485
 2372SOL    HW2 7133   2.054   3.960   1.584
 2373SOL     OW 7134   3.262   3.831   0.426
 2373SOL    HW1 7135   3.238   3.794   0.336
 2373SOL    HW2 7136   3.361   3.847   0.430
 2374SOL     OW 7137   2.244   4.424   0.480
 2374SOL    HW1 7138   2.289   4.334   0.477
 2374SOL    HW2 7139   2.150   4.413   0.513
 2375SOL     OW 7140   3.409   3.946   1.729
 2375SOL    HW1 7141   3.404   3.983   1.821
 2375SOL    HW2 7142   3.337   3.877   1.717
 2376SOL     OW 7143   2.643   3.988   1.749
 2376SOL    HW1 7144   2.710   3.927   1.792
 2376SOL    HW2 7145   2.570   4.007   1.814
 2377SOL     OW 7146   3.213   4.314   1.433
 2377SOL    HW1 7147   3.241   4.271   1.518
 2377SOL    HW2 7148   3.238   4.410   1.434
 2378SOL     OW 7149   2.784   4.227   0.899
 2378SOL    HW1 7150   2.759   4.218   0.803
 2378SOL    HW2 7151   2.832   4.145   0.930
 2379SOL     OW 7152   2.401   3.788   0.512
 2379SOL    HW1 7153   2.320   3.789   0.570
 2379SOL    HW2 7154   2.404   3.871   0.457
 2380SOL     OW 7155   2.159   3.759   0.171
 2380SOL    HW1 7156   2.208   3.843   0.150
 2380SOL    HW2 7157   2.221   3.694   0.216
 2381SOL     OW 7158   2.797   3.960   0.480
 2381SOL    HW1 7159   2.749   4.001   0.402
 2381SOL    HW2 7160   2.896   3.958   0.461
 2382SOL     OW 7161   2.938   4.407   1.464
 2382SOL    HW1 7162   2.858   4.346   1.467
 2382SOL    HW2 7163   3.019   4.354   1.440
 2383SOL     OW 7164   2.321   4.876   0.741
 2383SOL    HW1 7165   2.250   4.849   0.806
 2383SOL    HW2 7166   2.295   4.848   0.648
 2384SOL     OW 7167   2.894   4.273   0.016
 2384SOL    HW1 7168   2.853   4.355  -0.023
 2384SOL    HW2 7169   2.958   4.299   0.089
 2385SOL     OW 7170   1.940   4.280   1.386
 2385SOL    HW1 7171   2.032   4.279   1.345
 2385SOL    HW2 7172   1.934   4.354   1.453
 2386SOL     OW 7173   2.423   3.946   1.147
 2386SOL    HW1 7174   2.461   3.862   1.184
 2386SOL    HW2 7175   2.335   3.965   1.191
 2387SOL     OW 7176   2.728   4.178   0.642
 2387SOL    HW1 7177   2.696   4.250   0.580
 2387SOL    HW2 7178   2.752   4.097   0.589
 2388SOL     OW 7179   2.879   3.763   0.753
 2388SOL    HW1 7180   2.807   3.768   0.684
 2388SOL    HW2 7181   2.855   3.694   0.822
 2389SOL     OW 7182   3.328   4.314   0.992
 2389SOL    HW1 7183   3.298   4.219   0.999
 2389SOL    HW2 7184   3.401   4.330   1.058
 2390SOL     OW 7185   3.719   4.557   0.377
 2390SOL    HW1 7186   3.761   4.493   0.441
 2390SOL    HW2 7187   3.681   4.506   0.299
 2391SOL     OW 7188   3.252   4.299   0.078
 2391SOL    HW1 7189   3.198   4.278   0.159
 2391SOL    HW2 7190   3.343   4.258   0.087
 2392SOL     OW 7191   2.389   3.980   0.328
 2392SOL    HW1 7192   2.416   3.921   0.253
 2392SOL    HW2 7193   2.389   4.075   0.297
 2393SOL     OW 7194   2.777   3.813   1.402
 2393SOL    HW1 7195   2.802   3.793   1.307
 2393SOL    HW2 7196   2.849   3.869   1.444
 2394SOL     OW 7197   2.272   4.537   1.251
 2394SOL    HW1 7198   2.358   4.549   1.301
 2394SOL    HW2 7199   2.230   4.450   1.278
 2395SOL     OW 7200   3.136   4.110   1.262
 2395SOL    HW1 7201   3.157   4.184   1.326
 2395SOL    HW2 7202   3.047   4.127   1.219
 2396SOL     OW 7203   2.428   4.261   0.865
 2396SOL    HW1 7204   2.440   4.327   0.791
 2396SOL    HW2 7205   2.474   4.295   0.948
 2397SOL     OW 7206   3.444   4.363   0.472
 2397SOL    HW1 7207   3.413   4.424   0.545
 2397SOL    HW2 7208   3.494   4.415   0.403
 2398SOL     OW 7209   2.264   4.475   1.598
 2398SOL    HW1 7210   2.332   4.530   1.551
 2398SOL    HW2 7211   2.304   4.387   1.625
 2399SOL     OW 7212   3.449   4.503   1.670
 2399SOL    HW1 7213   3.357   4.541   1.665
 2399SOL    HW2 7214   3.509   4.550   1.605
 2400SOL     OW 7215   2.875   3.829   1.770
 2400SOL    HW1 7216   2.881   3.914   1.718
 2400SOL    HW2 7217   2.907   3.753   1.713
 2401SOL     OW 7218   2.366   3.774   1.740
 2401SOL    HW1 7219   2.324   3.717   1.670
 2401SOL    HW2 7220   2.300   3.843   1.772
 2402SOL     OW 7221   2.435   4.594   1.029
 2402SOL    HW1 7222   2.479   4.683   1.020
 2402SOL    HW2 7223   2.372   4.594   1.106
 2403SOL     OW 7224   3.222   4.586   1.045
 2403SOL    HW1 7225   3.147   4.586   0.979
 2403SOL    HW2 7226   3.259   4.494   1.054
 2404SOL     OW 7227   3.071   4.249   0.275
 2404SOL    HW1 7228   3.084   4.165   0.329
 2404SOL    HW2 7229   3.042   4.323   0.335
 2405SOL     OW 7230   2.169   3.937   1.231
 2405SOL    HW1 7231   2.146   3.974   1.321
 2405SOL    HW2 7232   2.139   3.842   1.225
 2406SOL     OW 7233   2.594   4.358   1.064
 2406SOL    HW1 7234   2.653   4.332   0.988
 2406SOL    HW2 7235   2.566   4.454   1.053
 2407SOL     OW 7236   3.590   4.659   1.854
 2407SOL    HW1 7237   3.544   4.652   1.765
 2407SOL    HW2 7238   3.528   4.703   1.920
 2408SOL     OW 7239   2.169   3.787   0.618
 2408SOL    HW1 7240   2.158   3.881   0.651
 2408SOL    HW2 7241   2.164   3.724   0.695
 2409SOL     OW 7242   3.484   4.091   0.374
 2409SOL    HW1 7243   3.486   4.015   0.438
 2409SOL    HW2 7244   3.436   4.168   0.414
 2410SOL     OW 7245   2.885   4.490   0.966
 2410SOL    HW1 7246   2.900   4.511   1.062
 2410SOL    HW2 7247   2.855   4.395   0.957
 2411SOL     OW 7248   3.402   3.998   0.125
 2411SOL    HW1 7249   3.341   3.923   0.148
 2411SOL    HW2 7250   3.424   4.050   0.208
 2412SOL     OW 7251   2.181   4.534   0.949
 2412SOL    HW1 7252   2.274   4.570   0.954
 2412SOL    HW2 7253   2.175   4.449   1.001
 2413SOL     OW 7254   2.201   4.233   1.006
 2413SOL    HW1 7255   2.149   4.150   0.989
 2413SOL    HW2 7256   2.278   4.238   0.942
 2414SOL     OW 7257   3.000   4.104   1.678
 2414SOL    HW1 7258   2.955   4.167   1.742
 2414SOL    HW2 7259   3.093   4.135   1.661
 2415SOL     OW 7260   3.022   3.931   1.477
 2415SOL    HW1 7261   3.022   3.995   1.554
 2415SOL    HW2 7262   3.050   3.979   1.394
 2416SOL     OW 7263   2.864   4.520   1.238
 2416SOL    HW1 7264   2.905   4.488   1.324
 2416SOL    HW2 7265   2.768   4.493   1.235
 2417SOL     OW 7266   1.902   4.268   1.114
 2417SOL    HW1 7267   1.987   4.235   1.073
 2417SOL    HW2 7268   1.915   4.283   1.212
 2418SOL     OW 7269   2.051   4.244   1.722
 2418SOL    HW1 7270   2.110   4.204   1.652
 2418SOL    HW2 7271   1.993   4.315   1.681
 2419SOL     OW 7272   2.677   4.296   0.325
 2419SOL    HW1 7273   2.684   4.207   0.279
 2419SOL    HW2 7274   2.583   4.330   0.317
 2420SOL     OW 7275   3.519   4.328   1.206
 2420SOL    HW1 7276   3.481   4.259   1.268
 2420SOL    HW2 7277   3.601   4.292   1.162
 2421SOL     OW 7278   2.533   4.188   1.269
 2421SOL    HW1 7279   2.499   4.099   1.239
 2421SOL    HW2 7280   2.559   4.242   1.189
 2422SOL     OW 7281   2.335   4.224   0.191
 2422SOL    HW1 7282   2.396   4.304   0.195
 2422SOL    HW2 7283   2.240   4.255   0.198
 2423SOL     OW 7284   2.765   3.810   0.133
 2423SOL    HW1 7285   2.816   3.811   0.047
 2423SOL    HW2 7286   2.821   3.768   0.204
 2424SOL     OW 7287   3.588   3.859   0.523
 2424SOL    HW1 7288   3.661   3.842   0.456
 2424SOL    HW2 7289   3.557   3.772   0.561
 2425SOL     OW 7290   3.142   4.651   0.672
 2425SOL    HW1 7291   3.202   4.570   0.674
 2425SOL    HW2 7292   3.182   4.720   0.612
 2426SOL     OW 7293   3.703   3.899   0.963
 2426SOL    HW1 7294   3.742   3.814   0.927
 2426SOL    HW2 7295   3.605   3.901   0.944
 2427SOL     OW 7296   2.125   4.050   0.720
 2427SOL    HW1 7297   2.046   4.101   0.686
 2427SOL    HW2 7298   2.116   4.035   0.818
 2428SOL     OW 7299   2.876   3.960   0.971
 2428SOL    HW1 7300   2.868   3.924   0.878
 2428SOL    HW2 7301   2.874   3.884   1.036
 2429SOL     OW 7302   3.571   4.109   1.381
 2429SOL    HW1 7303   3.644   4.178   1.385
 2429SOL    HW2 7304   3.599   4.034   1.322
 2430SOL     OW 7305   1.967   4.737   1.726
 2430SOL    HW1 7306   1.890   4.704   1.780
 2430SOL    HW2 7307   2.052   4.707   1.768
 2431SOL     OW 7308   2.534   3.927   1.489
 2431SOL    HW1 7309   2.624   3.911   1.449
 2431SOL    HW2 7310   2.542   3.932   1.588
 2432SOL     OW 7311   3.302   4.580   1.398
 2432SOL    HW1 7312   3.245   4.632   1.335
 2432SOL    HW2 7313   3.398   4.592   1.374
 2433SOL     OW 7314   1.934   3.890   0.318
 2433SOL    HW1 7315   1.917   3.973   0.264
 2433SOL    HW2 7316   2.024   3.853   0.296
 2434SOL     OW 7317   2.475   4.566   1.431
 2434SOL    HW1 7318   2.531   4.647   1.414
 2434SOL    HW2 7319   2.534   4.486   1.434
 2435SOL     OW 7320   2.578   4.289   1.708
 2435SOL    HW1 7321   2.597   4.354   1.782
 2435SOL    HW2 7322   2.638   4.209   1.717
 2436SOL     OW 7323   3.536   4.607   1.254
 2436SOL    HW1 7324   3.509   4.518   1.217
 2436SOL    HW2 7325   3.537   4.675   1.181
 2437SOL     OW 7326   3.087   4.049   0.449
 2437SOL    HW1 7327   3.152   3.975   0.438
 2437SOL    HW2 7328   3.107   4.099   0.533
 2438SOL     OW 7329   2.456   4.469   0.652
 2438SOL    HW1 7330   2.506   4.554   0.633
 2438SOL    HW2 7331   2.368   4.471   0.604
 2439SOL     OW 7332   3.639   4.066   1.642
 2439SOL    HW1 7333   3.622   4.097   1.548
 2439SOL    HW2 7334   3.555   4.029   1.680
 2440SOL     OW 7335   3.686   3.916   1.227
 2440SOL    HW1 7336   3.682   3.826   1.271
 2440SOL    HW2 7337   3.689   3.905   1.128
 2441SOL     OW 7338   2.290   4.148   0.520
 2441SOL    HW1 7339   2.320   4.076   0.458
 2441SOL    HW2 7340   2.251   4.108   0.603
 2442SOL     OW 7341   2.179   4.271   1.280
 2442SOL    HW1 7342   2.217   4.212   1.352
 2442SOL    HW2 7343   2.219   4.245   1.192
 2443SOL     OW 7344   3.286   3.938   1.112
 2443SOL    HW1 7345   3.338   3.873   1.167
 2443SOL    HW2 7346   3.237   4.001   1.173
 2444SOL     OW 7347   2.863   3.758   1.154
 2444SOL    HW1 7348   2.800   3.686   1.123
 2444SOL    HW2 7349   2.956   3.722   1.154
 2445SOL     OW 7350   3.214   3.776   0.168
 2445SOL    HW1 7351   3.249   3.735   0.084
 2445SOL    HW2 7352   3.124   3.738   0.188
 2446SOL     OW 7353   3.162   4.177   0.691
 2446SOL    HW1 7354   3.103   4.257   0.695
 2446SOL    HW2 7355   3.177   4.142   0.784
 2447SOL     OW 7356   3.455   3.945   0.882
 2447SOL    HW1 7357   3.371   3.944   0.936
 2447SOL    HW2 7358   3.457   4.028   0.826
 2448SOL     OW 7359   2.092   4.352   1.975
 2448SOL    HW1 7360   1.999   4.350   2.012
 2448SOL    HW2 7361   2.093   4.313   1.883
 2449SOL     OW 7362   2.087   3.999   2.858
 2449SOL    HW1 7363   2.122   3.982   2.950
 2449SOL    HW2 7364   1.999   3.954   2.846
 2450SOL     OW 7365   1.881   4.092   2.509
 2450SOL    HW1 7366   1.799   4.135   2.548
 2450SOL    HW2 7367   1.853   4.019   2.446
 2451SOL     OW 7368   2.997   4.427   2.579
 2451SOL    HW1 7369   3.054   4.505   2.554
 2451SOL    HW2 7370   2.937   4.453   2.655
 2452SOL     OW 7371   3.617   4.331   2.093
 2452SOL    HW1 7372   3.605   4.318   1.994
 2452SOL    HW2 7373   3.587   4.250   2.142
 2453SOL     OW 7374   2.712   4.522   3.685
 2453SOL    HW1 7375   2.708   4.598   3.750
 2453SOL    HW2 7376   2.734   4.558   3.594
 2454SOL     OW 7377   2.547   4.736   2.527
 2454SOL    HW1 7378   2.616   4.720   2.597
 2454SOL    HW2 7379   2.474   4.793   2.565
 2455SOL     OW 7380   2.300   4.116   3.361
 2455SOL    HW1 7381   2.382   4.060   3.370
 2455SOL    HW2 7382   2.219   4.058   3.365
 2456SOL     OW 7383   3.465   4.171   2.599
 2456SOL    HW1 7384   3.391   4.217   2.549
 2456SOL    HW2 7385   3.516   4.239   2.652
 2457SOL     OW 7386   3.456   3.838   3.342
 2457SOL    HW1 7387   3.438   3.905   3.270
 2457SOL    HW2 7388   3.453   3.884   3.431
 2458SOL     OW 7389   1.984   4.367   2.425
 2458SOL    HW1 7390   1.939   4.279   2.442
 2458SOL    HW2 7391   1.983   4.421   2.509
 2459SOL     OW 7392   1.975   4.461   3.459
 2459SOL    HW1 7393   2.063   4.448   3.504
 2459SOL    HW2 7394   1.962   4.558   3.437
 2460SOL     OW 7395   2.671   3.728   2.364
 2460SOL    HW1 7396   2.711   3.819   2.355
 2460SOL    HW2 7397   2.571   3.736   2.370
 2461SOL     OW 7398   2.179   3.975   3.663
 2461SOL    HW1 7399   2.250   4.046   3.669
 2461SOL    HW2 7400   2.091   4.014   3.691
 2462SOL     OW 7401   2.460   4.453   2.132
 2462SOL    HW1 7402   2.484   4.522   2.064
 2462SOL    HW2 7403   2.382   4.486   2.186
 2463SOL     OW 7404   3.143   4.069   2.806
 2463SOL    HW1 7405   3.057   4.019   2.793
 2463SOL    HW2 7406   3.205   4.015   2.862
 2464SOL     OW 7407   2.669   4.329   3.327
 2464SOL    HW1 7408   2.622   4.326   3.416
 2464SOL    HW2 7409   2.618   4.274   3.261
 2465SOL     OW 7410   3.256   4.193   3.536
 2465SOL    HW1 7411   3.236   4.236   3.624
 2465SOL    HW2 7412   3.334   4.131   3.545
 2466SOL     OW 7413   2.853   4.134   3.104
 2466SOL    HW1 7414   2.776   4.168   3.158
 2466SOL    HW2 7415   2.819   4.083   3.025
 2467SOL     OW 7416   2.903   4.425   2.291
 2467SOL    HW1 7417   2.929   4.421   2.387
 2467SOL    HW2 7418   2.818   4.374   2.277
 2468SOL     OW 7419   1.938   4.535   2.651
 2468SOL    HW1 7420   2.037   4.523   2.660
 2468SOL    HW2 7421   1.914   4.630   2.672
 2469SOL     OW 7422   2.727   4.072   2.057
 2469SOL    HW1 7423   2.786   4.135   2.008
 2469SOL    HW2 7424   2.746   3.978   2.028
 2470SOL     OW 7425   3.581   4.309   3.693
 2470SOL    HW1 7426   3.555   4.398   3.657
 2470SOL    HW2 7427   3.579   4.241   3.620
 2471SOL     OW 7428   2.412   3.920   2.747
 2471SOL    HW1 7429   2.407   3.915   2.847
 2471SOL    HW2 7430   2.414   4.016   2.718
 2472SOL     OW 7431   3.320   4.459   2.590
 2472SOL    HW1 7432   3.315   4.394   2.665
 2472SOL    HW2 7433   3.400   4.518   2.603
 2473SOL     OW 7434   2.064   4.009   3.360
 2473SOL    HW1 7435   1.984   4.069   3.347
 2473SOL    HW2 7436   2.054   3.960   3.446
 2474SOL     OW 7437   3.262   3.831   2.288
 2474SOL    HW1 7438   3.238   3.794   2.198
 2474SOL    HW2 7439   3.361   3.847   2.292
 2475SOL     OW 7440   2.244   4.424   2.342
 2475SOL    HW1 7441   2.289   4.334   2.339
 2475SOL    HW2 7442   2.150   4.413   2.375
 2476SOL     OW 7443   3.409   3.946   3.591
 2476SOL    HW1 7444   3.404   3.983   3.683
 2476SOL    HW2 7445   3.337   3.877   3.579
 2477SOL     OW 7446   2.476   3.846   1.979
 2477SOL    HW1 7447   2.574   3.824   1.986
 2477SOL    HW2 7448   2.445   3.829   1.886
 2478SOL     OW 7449   2.643   3.988   3.611
 2478SOL    HW1 7450   2.710   3.927   3.654
 2478SOL    HW2 7451   2.570   4.007   3.676
 2479SOL     OW 7452   3.213   4.314   3.295
 2479SOL    HW1 7453   3.241   4.271   3.380
 2479SOL    HW2 7454   3.238   4.410   3.296
 2480SOL     OW 7455   2.784   4.227   2.761
 2480SOL    HW1 7456   2.759   4.218   2.665
 2480SOL    HW2 7457   2.832   4.145   2.792
 2481SOL     OW 7458   2.401   3.788   2.374
 2481SOL    HW1 7459   2.320   3.789   2.432
 2481SOL    HW2 7460   2.404   3.871   2.319
 2482SOL     OW 7461   2.159   3.759   2.033
 2482SOL    HW1 7462   2.208   3.843   2.012
 2482SOL    HW2 7463   2.221   3.694   2.078
 2483SOL     OW 7464   2.797   3.960   2.342
 2483SOL    HW1 7465   2.749   4.001   2.264
 2483SOL    HW2 7466   2.896   3.958   2.323
 2484SOL     OW 7467   2.938   4.407   3.326
 2484SOL    HW1 7468   2.858   4.346   3.329
 2484SOL    HW2 7469   3.019   4.354   3.302
 2485SOL     OW 7470   2.321   4.876   2.603
 2485SOL    HW1 7471   2.250   4.849   2.668
 2485SOL    HW2 7472   2.295   4.848   2.510
 2486SOL     OW 7473   2.894   4.273   1.878
 2486SOL    HW1 7474   2.853   4.355   1.839
 2486SOL    HW2 7475   2.958   4.299   1.951
 2487SOL     OW 7476   1.940   4.280   3.248
 2487SOL    HW1 7477   2.032   4.279   3.207
 2487SOL    HW2 7478   1.934   4.354   3.315
 2488SOL     OW 7479   2.423   3.946   3.009
 2488SOL    HW1 7480   2.461   3.862   3.046
 2488SOL    HW2 7481   2.335   3.965   3.053
 2489SOL     OW 7482   2.728   4.178   2.504
 2489SOL    HW1 7483   2.696   4.250   2.442
 2489SOL    HW2 7484   2.752   4.097   2.451
 2490SOL     OW 7485   2.879   3.763   2.615
 2490SOL    HW1 7486   2.807   3.768   2.546
 2490SOL    HW2 7487   2.855   3.694   2.684
 2491SOL     OW 7488   3.328   4.314   2.854
 2491SOL    HW1 7489   3.298   4.219   2.861
 2491SOL    HW2 7490   3.401   4.330   2.920
 2492SOL     OW 7491   3.719   4.557   2.239
 2492SOL    HW1 7492   3.761   4.493   2.303
 2492SOL    HW2 7493   3.681   4.506   2.161
 2493SOL     OW 7494   3.252   4.299   1.940
 2493SOL    HW1 7495   3.198   4.278   2.021
 2493SOL    HW2 7496   3.343   4.258   1.949
 2494SOL     OW 7497   2.389   3.980   2.190
 2494SOL    HW1 7498   2.416   3.921   2.115
 2494SOL    HW2 7499   2.389   4.075   2.159
 2495SOL     OW 7500   2.777   3.813   3.264
 2495SOL    HW1 7501   2.802   3.793   3.169
 2495SOL    HW2 7502   2.849   3.869   3.306
 2496SOL     OW 7503   2.272   4.537   3.113
 2496SOL    HW1 7504   2.358   4.549   3.163
 2496SOL    HW2 7505   2.230   4.450   3.140
 2497SOL     OW 7506   3.136   4.110   3.124
 2497SOL    HW1 7507   3.157   4.184   3.188
 2497SOL    HW2 7508   3.047   4.127   3.081
 2498SOL     OW 7509   2.428   4.261   2.727
 2498SOL    HW1 7510   2.440   4.327   2.653
 2498SOL    HW2 7511   2.474   4.295   2.810
 2499SOL     OW 7512   3.444   4.363   2.334
 2499SOL    HW1 7513   3.413   4.424   2.407
 2499SOL    HW2 7514   3.494   4.415   2.265
 2500SOL     OW 7515   2.264   4.475   3.460
 2500SOL    HW1 7516   2.332   4.530   3.413
 2500SOL    HW2 7517   2.304   4.387   3.487
 2501SOL     OW 7518   3.449   4.503   3.532
 2501SOL    HW1 7519   3.357   4.541   3.527
 2501SOL    HW2 7520   3.509   4.550   3.467
 2502SOL     OW 7521   2.875   3.829   3.632
 2502SOL    HW1 7522   2.881   3.914   3.580
 2502SOL    HW2 7523   2.907   3.753   3.575
 2503SOL     OW 7524   2.366   3.774   3.602
 2503SOL    HW1 7525   2.324   3.717   3.532
 2503SOL    HW2 7526   2.300   3.843   3.634
 2504SOL     OW 7527   2.435   4.594   2.891
 2504SOL    HW1 7528   2.479   4.683   2.882
 2504SOL    HW2 7529   2.372   4.594   2.968
 2505SOL     OW 7530   3.222   4.586   2.907
 2505SOL    HW1 7531   3.147   4.586   2.841
 2505SOL    HW2 7532   3.259   4.494   2.916
 2506SOL     OW 7533   3.071   4.249   2.137
 2506SOL    HW1 7534   3.084   4.165   2.191
 2506SOL    HW2 7535   3.042   4.323   2.197
 2507SOL     OW 7536   2.169   3.937   3.093
 2507SOL    HW1 7537   2.146   3.974   3.183
 2507SOL    HW2 7538   2.139   3.842   3.087
 2508SOL     OW 7539   2.594   4.358   2.926
 2508SOL    HW1 7540   2.653   4.332   2.850
 2508SOL    HW2 7541   2.566   4.454   2.915
 2509SOL     OW 7542   3.590   4.659   3.716
 2509SOL    HW1 7543   3.544   4.652   3.627
 2509SOL    HW2 7544   3.528   4.703   3.782
 2510SOL     OW 7545   2.169   3.787   2.480
 2510SOL    HW1 7546   2.158   3.881   2.513
 2510SOL    HW2 7547   2.164   3.724   2.557
 2511SOL     OW 7548   3.484   4.091   2.236
 2511SOL    HW1 7549   3.486   4.015   2.300
 2511SOL    HW2 7550   3.436   4.168   2.276
 2512SOL     OW 7551   2.885   4.490   2.828
 2512SOL    HW1 7552   2.900   4.511   2.924
 2512SOL    HW2 7553   2.855   4.395   2.819
 2513SOL     OW 7554   3.402   3.998   1.987
 2513SOL    HW1 7555   3.341   3.923   2.010
 2513SOL    HW2 7556   3.424   4.050   2.070
 2514SOL     OW 7557   2.181   4.534   2.811
 2514SOL    HW1 7558   2.274   4.570   2.816
 2514SOL    HW2 7559   2.175   4.449   2.863
 2515SOL     OW 7560   2.201   4.233   2.868
 2515SOL    HW1 7561   2.149   4.150   2.851
 2515SOL    HW2 7562   2.278   4.238   2.804
 2516SOL     OW 7563   3.000   4.104   3.540
 2516SOL    HW1 7564   2.955   4.167   3.604
 2516SOL    HW2 7565   3.093   4.135   3.523
 2517SOL     OW 7566   3.022   3.931   3.339
 2517SOL    HW1 7567   3.022   3.995   3.416
 2517SOL    HW2 7568   3.050   3.979   3.256
 2518SOL     OW 7569   2.864   4.520   3.100
 2518SOL    HW1 7570   2.905   4.488   3.186
 2518SOL    HW2 7571   2.768   4.493   3.097
 2519SOL     OW 7572   1.902   4.268   2.976
 2519SOL    HW1 7573   1.987   4.235   2.935
 2519SOL    HW2 7574   1.915   4.283   3.074
 2520SOL     OW 7575   2.051   4.244   3.584
 2520SOL    HW1 7576   2.110   4.204   3.514
 2520SOL    HW2 7577   1.993   4.315   3.543
 2521SOL     OW 7578   2.677   4.296   2.187
 2521SOL    HW1 7579   2.684   4.207   2.141
 2521SOL    HW2 7580   2.583   4.330   2.179
 2522SOL     OW 7581   3.519   4.328   3.068
 2522SOL    HW1 7582   3.481   4.259   3.130
 2522SOL    HW2 7583   3.601   4.292   3.024
 2523SOL     OW 7584   2.533   4.188   3.131
 2523SOL    HW1 7585   2.499   4.099   3.101
 2523SOL    HW2 7586   2.559   4.242   3.051
 2524SOL     OW 7587   2.335   4.224   2.053
 2524SOL    HW1 7588   2.396   4.304   2.057
 2524SOL    HW2 7589   2.240   4.255   2.060
 2525SOL     OW 7590   3.588   3.859   2.385
 2525SOL    HW1 7591   3.661   3.842   2.318
 2525SOL    HW2 7592   3.557   3.772   2.423
 2526SOL     OW 7593   3.142   4.651   2.534
 2526SOL    HW1 7594   3.202   4.570   2.536
 2526SOL    HW2 7595   3.182   4.720   2.474
 2527SOL     OW 7596   3.703   3.899   2.825
 2527SOL    HW1 7597   3.742   3.814   2.789
 2527SOL    HW2 7598   3.605   3.901   2.806
 2528SOL     OW 7599   2.125   4.050   2.582
 2528SOL    HW1 7600   2.046   4.101   2.548
 2528SOL    HW2 7601   2.116   4.035   2.680
 2529SOL     OW 7602   2.778   4.634   2.153
 2529SOL    HW1 7603   2.841   4.672   2.085
 2529SOL    HW2 7604   2.818   4.551   2.192
 2530SOL     OW 7605   2.876   3.960   2.833
 2530SOL    HW1 7606   2.868   3.924   2.740
 2530SOL    HW2 7607   2.874   3.884   2.898
 2531SOL     OW 7608   3.571   4.109   3.243
 2531SOL    HW1 7609   3.644   4.178   3.247
 2531SOL    HW2 7610   3.599   4.034   3.184
 2532SOL     OW 7611   1.967   4.737   3.588
 2532SOL    HW1 7612   1.890   4.704   3.642
 2532SOL    HW2 7613   2.052   4.707   3.630
 2533SOL     OW 7614   2.534   3.927   3.351
 2533SOL    HW1 7615   2.624   3.911   3.311
 2533SOL    HW2 7616   2.542   3.932   3.450
 2534SOL     OW 7617   1.937   4.069   1.895
 2534SOL    HW1 7618   1.845   4.041   1.866
 2534SOL    HW2 7619   1.968   4.146   1.839
 2535SOL     OW 7620   3.302   4.580   3.260
 2535SOL    HW1 7621   3.245   4.632   3.197
 2535SOL    HW2 7622   3.398   4.592   3.236
 2536SOL     OW 7623   1.934   3.890   2.180
 2536SOL    HW1 7624   1.917   3.973   2.126
 2536SOL    HW2 7625   2.024   3.853   2.158
 2537SOL     OW 7626   2.475   4.566   3.293
 2537SOL    HW1 7627   2.531   4.647   3.276
 2537SOL    HW2 7628   2.534   4.486   3.296
 2538SOL     OW 7629   2.578   4.289   3.570
 2538SOL    HW1 7630   2.597   4.354   3.644
 2538SOL    HW2 7631   2.638   4.209   3.579
 2539SOL     OW 7632   3.536   4.607   3.116
 2539SOL    HW1 7633   3.509   4.518   3.079
 2539SOL    HW2 7634   3.537   4.675   3.043
 2540SOL     OW 7635   3.087   4.049   2.311
 2540SOL    HW1 7636   3.152   3.975   2.300
 2540SOL    HW2 7637   3.107   4.099   2.395
 2541SOL     OW 7638   2.456   4.469   2.514
 2541SOL    HW1 7639   2.506   4.554   2.495
 2541SOL    HW2 7640   2.368   4.471   2.466
 2542SOL     OW 7641   3.639   4.066   3.504
 2542SOL    HW1 7642   3.622   4.097   3.410
 2542SOL    HW2 7643   3.555   4.029   3.542
 2543SOL     OW 7644   3.686   3.916   3.089
 2543SOL    HW1 7645   3.682   3.826   3.133
 2543SOL    HW2 7646   3.689   3.905   2.990
 2544SOL     OW 7647   2.290   4.148   2.382
 2544SOL    HW1 7648   2.320   4.076   2.320
 2544SOL    HW2 7649   2.251   4.108   2.465
 2545SOL     OW 7650   2.179   4.271   3.142
 2545SOL    HW1 7651   2.217   4.212   3.214
 2545SOL    HW2 7652   2.219   4.245   3.054
 2546SOL     OW 7653   3.286   3.938   2.974
 2546SOL    HW1 7654   3.338   3.873   3.029
 2546SOL    HW2 7655   3.237   4.001   3.035
 2547SOL     OW 7656   2.863   3.758   3.016
 2547SOL    HW1 7657   2.800   3.686   2.985
 2547SOL    HW2 7658   2.956   3.722   3.016
 2548SOL     OW 7659   3.214   3.776   2.030
 2548SOL    HW1 7660   3.249   3.735   1.946
 2548SOL    HW2 7661   3.124   3.738   2.050
 2549SOL     OW 7662   3.162   4.177   2.553
 2549SOL    HW1 7663   3.103   4.257   2.557
 2549SOL    HW2 7664   3.177   4.142   2.646
 2550SOL     OW 7665   3.455   3.945   2.744
 2550SOL    HW1 7666   3.371   3.944   2.798
 2550SOL    HW2 7667   3.457   4.028   2.688
 2551SOL     OW 7668   2.092   4.352   3.837
 2551SOL    HW1 7669   1.999   4.350   3.874
 2551SOL    HW2 7670   2.093   4.313   3.745
 2552SOL     OW 7671   2.087   3.999   4.720
 2552SOL    HW1 7672   2.122   3.982   4.812
 2552SOL    HW2 7673   1.999   3.954   4.708
 2553SOL     OW 7674   1.881   4.092   4.371
 2553SOL    HW1 7675   1.799   4.135   4.410
 2553SOL    HW2 7676   1.853   4.019   4.308
 2554SOL     OW 7677   2.997   4.427   4.441
 2554SOL    HW1 7678   3.054   4.505   4.416
 2554SOL    HW2 7679   2.937   4.453   4.517
 2555SOL     OW 7680   3.617   4.331   3.955
 2555SOL    HW1 7681   3.605   4.318   3.856
 2555SOL    HW2 7682   3.587   4.250   4.004
 2556SOL     OW 7683   2.547   4.736   4.389
 2556SOL    HW1 7684   2.616   4.720   4.459
 2556SOL    HW2 7685   2.474   4.793   4.427
 2557SOL     OW 7686   3.465   4.171   4.461
 2557SOL    HW1 7687   3.391   4.217   4.411
 2557SOL    HW2 7688   3.516   4.239   4.514
 2558SOL     OW 7689   1.984   4.367   4.287
 2558SOL    HW1 7690   1.939   4.279   4.304
 2558SOL    HW2 7691   1.983   4.421   4.371
 2559SOL     OW 7692   2.671   3.728   4.226
 2559SOL    HW1 7693   2.711   3.819   4.217
 2559SOL    HW2 7694   2.571   3.736   4.232
 2560SOL     OW 7695   2.460   4.453   3.994
 2560SOL    HW1 7696   2.484   4.522   3.926
 2560SOL    HW2 7697   2.382   4.486   4.048
 2561SOL     OW 7698   3.143   4.069   4.668
 2561SOL    HW1 7699   3.057   4.019   4.655
 2561SOL    HW2 7700   3.205   4.015   4.724
 2562SOL     OW 7701   2.903   4.425   4.153
 2562SOL    HW1 7702   2.929   4.421   4.249
 2562SOL    HW2 7703   2.818   4.374   4.139
 2563SOL     OW 7704   1.938   4.535   4.513
 2563SOL    HW1 7705   2.037   4.523   4.522
 2563SOL    HW2 7706   1.914   4.630   4.534
 2564SOL     OW 7707   2.727   4.072   3.919
 2564SOL    HW1 7708   2.786   4.135   3.870
 2564SOL    HW2 7709   2.746   3.978   3.890
 2565SOL     OW 7710   2.412   3.920   4.609
 2565SOL    HW1 7711   2.407   3.915   4.709
 2565SOL    HW2 7712   2.414   4.016   4.580
 2566SOL     OW 7713   3.320   4.459   4.452
 2566SOL    HW1 7714   3.315   4.394   4.527
 2566SOL    HW2 7715   3.400   4.518   4.465
 2567SOL     OW 7716   3.262   3.831   4.150
 2567SOL    HW1 7717   3.238   3.794   4.060
 2567SOL    HW2 7718   3.361   3.847   4.154
 2568SOL     OW 7719   2.244   4.424   4.204
 2568SOL    HW1 7720   2.289   4.334   4.201
 2568SOL    HW2 7721   2.150   4.413   4.237
 2569SOL     OW 7722   2.476   3.846   3.841
 2569SOL    HW1 7723   2.574   3.824   3.848
 2569SOL    HW2 7724   2.445   3.829   3.748
 2570SOL     OW 7725   2.401   3.788   4.236
 2570SOL    HW1 7726   2.320   3.789   4.294
 2570SOL    HW2 7727   2.404   3.871   4.181
 2571SOL     OW 7728   2.159   3.759   3.895
 2571SOL    HW1 7729   2.208   3.843   3.874
 2571SOL    HW2 7730   2.221   3.694   3.940
 2572SOL     OW 7731   2.797   3.960   4.204
 2572SOL    HW1 7732   2.749   4.001   4.126
 2572SOL    HW2 7733   2.896   3.958   4.185
 2573SOL     OW 7734   2.321   4.876   4.465
 2573SOL    HW1 7735   2.250   4.849   4.530
 2573SOL    HW2 7736   2.295   4.848   4.372
 2574SOL     OW 7737   2.894   4.273   3.740
 2574SOL    HW1 7738   2.853   4.355   3.701
 2574SOL    HW2 7739   2.958   4.299   3.813
 2575SOL     OW 7740   2.728   4.178   4.366
 2575SOL    HW1 7741   2.696   4.250   4.304
 2575SOL    HW2 7742   2.752   4.097   4.313
 2576SOL     OW 7743   2.879   3.763   4.477
 2576SOL    HW1 7744   2.807   3.768   4.408
 2576SOL    HW2 7745   2.855   3.694   4.546
 2577SOL     OW 7746   3.291   4.897   4.591
 2577SOL    HW1 7747   3.236   4.813   4.584
 2577SOL    HW2 7748   3.317   4.926   4.499
 2578SOL     OW 7749   3.719   4.557   4.101
 2578SOL    HW1 7750   3.761   4.493   4.165
 2578SOL    HW2 7751   3.681   4.506   4.023
 2579SOL     OW 7752   3.252   4.299   3.802
 2579SOL    HW1 7753   3.198   4.278   3.883
 2579SOL    HW2 7754   3.343   4.258   3.811
 2580SOL     OW 7755   2.389   3.980   4.052
 2580SOL    HW1 7756   2.416   3.921   3.977
 2580SOL    HW2 7757   2.389   4.075   4.021
 2581SOL     OW 7758   2.428   4.261   4.589
 2581SOL    HW1 7759   2.440   4.327   4.515
 2581SOL    HW2 7760   2.474   4.295   4.672
 2582SOL     OW 7761   3.444   4.363   4.196
 2582SOL    HW1 7762   3.413   4.424   4.269
 2582SOL    HW2 7763   3.494   4.415   4.127
 2583SOL     OW 7764   3.071   4.249   3.999
 2583SOL    HW1 7765   3.084   4.165   4.053
 2583SOL    HW2 7766   3.042   4.323   4.059
 2584SOL     OW 7767   2.169   3.787   4.342
 2584SOL    HW1 7768   2.158   3.881   4.375
 2584SOL    HW2 7769   2.164   3.724   4.419
 2585SOL     OW 7770   3.484   4.091   4.098
 2585SOL    HW1 7771   3.486   4.015   4.162
 2585SOL    HW2 7772   3.436   4.168   4.138
 2586SOL     OW 7773   3.402   3.998   3.849
 2586SOL    HW1 7774   3.341   3.923   3.872
 2586SOL    HW2 7775   3.424   4.050   3.932
 2587SOL     OW 7776   2.677   4.296   4.049
 2587SOL    HW1 7777   2.684   4.207   4.003
 2587SOL    HW2 7778   2.583   4.330   4.041
 2588SOL     OW 7779   2.335   4.224   3.915
 2588SOL    HW1 7780   2.396   4.304   3.919
 2588SOL    HW2 7781   2.240   4.255   3.922
 2589SOL     OW 7782   3.588   3.859   4.247
 2589SOL    HW1 7783   3.661   3.842   4.180
 2589SOL    HW2 7784   3.557   3.772   4.285
 2590SOL     OW 7785   3.142   4.651   4.396
 2590SOL    HW1 7786   3.202   4.570   4.398
 2590SOL    HW2 7787   3.182   4.720   4.336
 2591SOL     OW 7788   3.703   3.899   4.687
 2591SOL    HW1 7789   3.742   3.814   4.651
 2591SOL    HW2 7790   3.605   3.901   4.668
 2592SOL     OW 7791   2.125   4.050   4.444
 2592SOL    HW1 7792   2.046   4.101   4.410
 2592SOL    HW2 7793   2.116   4.035   4.542
 2593SOL     OW 7794   2.778   4.634   4.015
 2593SOL    HW1 7795   2.841   4.672   3.947
 2593SOL    HW2 7796   2.818   4.551   4.054
 2594SOL     OW 7797   1.937   4.069   3.757
 2594SOL    HW1 7798   1.845   4.041   3.728
 2594SOL    HW2 7799   1.968   4.146   3.701
 2595SOL     OW 7800   1.934   3.890   4.042
 2595SOL    HW1 7801   1.917   3.973   3.988
 2595SOL    HW2 7802   2.024   3.853   4.020
 2596SOL     OW 7803   3.087   4.049   4.173
 2596SOL    HW1 7804   3.152   3.975   4.162
 2596SOL    HW2 7805   3.107   4.099   4.257
 2597SOL     OW 7806   2.456   4.469   4.376
 2597SOL    HW1 7807   2.506   4.554   4.357
 2597SOL    HW2 7808   2.368   4.471   4.328
 2598SOL     OW 7809   2.290   4.148   4.244
 2598SOL    HW1 7810   2.320   4.076   4.182
 2598SOL    HW2 7811   2.251   4.108   4.327
 2599SOL     OW 7812   3.214   3.776   3.892
 2599SOL    HW1 7813   3.249   3.735   3.808
 2599SOL    HW2 7814   3.124   3.738   3.912
 2600SOL     OW 7815   3.162   4.177   4.415
 2600SOL    HW1 7816   3.103   4.257   4.419
 2600SOL    HW2 7817   3.177   4.142   4.508
 2601SOL     OW 7818   3.954   0.628   0.113
 2601SOL    HW1 7819   3.861   0.626   0.150
 2601SOL    HW2 7820   3.955   0.589   0.021
 2602SOL     OW 7821   3.949   0.275   0.996
 2602SOL    HW1 7822   3.984   0.258   1.088
 2602SOL    HW2 7823   3.861   0.230   0.984
 2603SOL     OW 7824   3.743   0.368   0.647
 2603SOL    HW1 7825   3.661   0.411   0.686
 2603SOL    HW2 7826   3.715   0.295   0.584
 2604SOL     OW 7827   4.293   1.275   1.165
 2604SOL    HW1 7828   4.200   1.268   1.128
 2604SOL    HW2 7829   4.304   1.364   1.209
 2605SOL     OW 7830   4.574   0.798   1.823
 2605SOL    HW1 7831   4.570   0.874   1.888
 2605SOL    HW2 7832   4.596   0.834   1.732
 2606SOL     OW 7833   4.409   1.012   0.665
 2606SOL    HW1 7834   4.478   0.996   0.735
 2606SOL    HW2 7835   4.336   1.069   0.703
 2607SOL     OW 7836   4.410   1.161   1.803
 2607SOL    HW1 7837   4.470   1.240   1.817
 2607SOL    HW2 7838   4.324   1.192   1.762
 2608SOL     OW 7839   4.059   1.435   1.061
 2608SOL    HW1 7840   3.981   1.404   1.008
 2608SOL    HW2 7841   4.117   1.493   1.004
 2609SOL     OW 7842   4.162   0.392   1.499
 2609SOL    HW1 7843   4.244   0.336   1.508
 2609SOL    HW2 7844   4.081   0.334   1.503
 2610SOL     OW 7845   3.955   1.713   0.483
 2610SOL    HW1 7846   3.989   1.790   0.537
 2610SOL    HW2 7847   3.999   1.713   0.393
 2611SOL     OW 7848   3.954   1.434   0.538
 2611SOL    HW1 7849   3.928   1.530   0.538
 2611SOL    HW2 7850   3.883   1.380   0.583
 2612SOL     OW 7851   3.964   1.091   0.886
 2612SOL    HW1 7852   3.978   1.007   0.938
 2612SOL    HW2 7853   3.909   1.155   0.941
 2613SOL     OW 7854   4.344   1.786   1.439
 2613SOL    HW1 7855   4.252   1.769   1.474
 2613SOL    HW2 7856   4.372   1.878   1.465
 2614SOL     OW 7857   4.330   0.964   0.123
 2614SOL    HW1 7858   4.337   1.048   0.069
 2614SOL    HW2 7859   4.376   0.977   0.211
 2615SOL     OW 7860   3.846   0.643   0.563
 2615SOL    HW1 7861   3.801   0.555   0.580
 2615SOL    HW2 7862   3.845   0.697   0.647
 2616SOL     OW 7863   3.751   1.596   0.117
 2616SOL    HW1 7864   3.732   1.500   0.138
 2616SOL    HW2 7865   3.718   1.654   0.192
 2617SOL     OW 7866   3.837   0.737   1.597
 2617SOL    HW1 7867   3.925   0.724   1.642
 2617SOL    HW2 7868   3.824   0.834   1.575
 2618SOL     OW 7869   4.337   1.365   0.726
 2618SOL    HW1 7870   4.288   1.278   0.735
 2618SOL    HW2 7871   4.314   1.408   0.639
 2619SOL     OW 7872   4.533   0.004   0.502
 2619SOL    HW1 7873   4.573   0.095   0.493
 2619SOL    HW2 7874   4.433   0.012   0.508
 2620SOL     OW 7875   3.921   0.976   1.264
 2620SOL    HW1 7876   4.010   0.931   1.250
 2620SOL    HW2 7877   3.848   0.911   1.245
 2621SOL     OW 7878   4.041   0.251   1.801
 2621SOL    HW1 7879   4.112   0.322   1.807
 2621SOL    HW2 7880   3.953   0.290   1.829
 2622SOL     OW 7881   4.322   0.729   0.270
 2622SOL    HW1 7882   4.346   0.798   0.202
 2622SOL    HW2 7883   4.244   0.762   0.324
 2623SOL     OW 7884   4.531   0.605   1.465
 2623SOL    HW1 7885   4.484   0.602   1.554
 2623SOL    HW2 7886   4.480   0.550   1.399
 2624SOL     OW 7887   3.800   0.811   0.789
 2624SOL    HW1 7888   3.899   0.799   0.798
 2624SOL    HW2 7889   3.776   0.906   0.810
 2625SOL     OW 7890   3.854   1.821   1.571
 2625SOL    HW1 7891   3.844   1.806   1.670
 2625SOL    HW2 7892   3.768   1.857   1.535
 2626SOL     OW 7893   4.274   0.196   0.885
 2626SOL    HW1 7894   4.269   0.191   0.985
 2626SOL    HW2 7895   4.276   0.292   0.856
 2627SOL     OW 7896   4.075   1.801   0.853
 2627SOL    HW1 7897   4.125   1.715   0.859
 2627SOL    HW2 7898   4.140   1.878   0.850
 2628SOL     OW 7899   4.045   0.943   0.242
 2628SOL    HW1 7900   4.127   0.982   0.200
 2628SOL    HW2 7901   4.018   0.861   0.193
 2629SOL     OW 7902   4.185   1.266   1.727
 2629SOL    HW1 7903   4.135   1.267   1.641
 2629SOL    HW2 7904   4.122   1.248   1.803
 2630SOL     OW 7905   4.835   1.776   0.237
 2630SOL    HW1 7906   4.775   1.714   0.287
 2630SOL    HW2 7907   4.866   1.732   0.152
 2631SOL     OW 7908   3.926   0.285   1.498
 2631SOL    HW1 7909   3.846   0.345   1.485
 2631SOL    HW2 7910   3.916   0.236   1.584
 2632SOL     OW 7911   4.188   1.743   0.323
 2632SOL    HW1 7912   4.221   1.782   0.409
 2632SOL    HW2 7913   4.264   1.736   0.258
 2633SOL     OW 7914   3.973   1.785   1.241
 2633SOL    HW1 7915   4.030   1.720   1.291
 2633SOL    HW2 7916   3.957   1.752   1.148
 2634SOL     OW 7917   4.106   0.700   0.480
 2634SOL    HW1 7918   4.151   0.610   0.477
 2634SOL    HW2 7919   4.012   0.689   0.513
 2635SOL     OW 7920   4.338   0.122   0.117
 2635SOL    HW1 7921   4.436   0.100   0.124
 2635SOL    HW2 7922   4.307   0.105   0.024
 2636SOL     OW 7923   4.505   0.264   1.749
 2636SOL    HW1 7924   4.572   0.203   1.792
 2636SOL    HW2 7925   4.432   0.283   1.814
 2637SOL     OW 7926   4.527   1.402   0.924
 2637SOL    HW1 7927   4.617   1.416   0.882
 2637SOL    HW2 7928   4.456   1.404   0.853
 2638SOL     OW 7929   4.646   0.503   0.899
 2638SOL    HW1 7930   4.621   0.494   0.803
 2638SOL    HW2 7931   4.694   0.421   0.930
 2639SOL     OW 7932   4.263   0.064   0.512
 2639SOL    HW1 7933   4.182   0.065   0.570
 2639SOL    HW2 7934   4.266   0.147   0.457
 2640SOL     OW 7935   4.021   0.035   0.171
 2640SOL    HW1 7936   4.070   0.119   0.150
 2640SOL    HW2 7937   4.083  -0.030   0.216
 2641SOL     OW 7938   4.183   1.152   0.741
 2641SOL    HW1 7939   4.112   1.125   0.806
 2641SOL    HW2 7940   4.157   1.124   0.648
 2642SOL     OW 7941   3.802   0.556   1.386
 2642SOL    HW1 7942   3.894   0.555   1.345
 2642SOL    HW2 7943   3.796   0.630   1.453
 2643SOL     OW 7944   4.285   0.222   1.147
 2643SOL    HW1 7945   4.323   0.138   1.184
 2643SOL    HW2 7946   4.197   0.241   1.191
 2644SOL     OW 7947   4.212   1.385   0.174
 2644SOL    HW1 7948   4.125   1.370   0.221
 2644SOL    HW2 7949   4.195   1.411   0.079
 2645SOL     OW 7950   4.251   0.256   0.328
 2645SOL    HW1 7951   4.278   0.197   0.253
 2645SOL    HW2 7952   4.251   0.351   0.297
 2646SOL     OW 7953   4.639   0.089   1.402
 2646SOL    HW1 7954   4.664   0.069   1.307
 2646SOL    HW2 7955   4.711   0.145   1.444
 2647SOL     OW 7956   4.134   0.813   1.251
 2647SOL    HW1 7957   4.220   0.825   1.301
 2647SOL    HW2 7958   4.092   0.726   1.278
 2648SOL     OW 7959   3.788   1.564   1.331
 2648SOL    HW1 7960   3.742   1.646   1.297
 2648SOL    HW2 7961   3.886   1.583   1.340
 2649SOL     OW 7962   4.091   1.100   0.501
 2649SOL    HW1 7963   4.084   1.183   0.445
 2649SOL    HW2 7964   4.095   1.020   0.441
 2650SOL     OW 7965   4.290   0.537   0.865
 2650SOL    HW1 7966   4.302   0.603   0.791
 2650SOL    HW2 7967   4.336   0.571   0.948
 2651SOL     OW 7968   4.078   1.510   1.329
 2651SOL    HW1 7969   4.057   1.466   1.242
 2651SOL    HW2 7970   4.175   1.536   1.332
 2652SOL     OW 7971   4.126   0.751   1.598
 2652SOL    HW1 7972   4.194   0.806   1.551
 2652SOL    HW2 7973   4.166   0.663   1.625
 2653SOL     OW 7974   4.228   0.050   1.740
 2653SOL    HW1 7975   4.186  -0.007   1.670
 2653SOL    HW2 7976   4.162   0.119   1.772
 2654SOL     OW 7977   4.297   0.870   1.029
 2654SOL    HW1 7978   4.341   0.959   1.020
 2654SOL    HW2 7979   4.234   0.870   1.106
 2655SOL     OW 7980   4.031   0.213   1.231
 2655SOL    HW1 7981   4.008   0.250   1.321
 2655SOL    HW2 7982   4.001   0.118   1.225
 2656SOL     OW 7983   3.761   1.310   1.282
 2656SOL    HW1 7984   3.814   1.261   1.350
 2656SOL    HW2 7985   3.783   1.408   1.287
 2657SOL     OW 7986   4.456   0.634   1.064
 2657SOL    HW1 7987   4.515   0.608   0.988
 2657SOL    HW2 7988   4.428   0.730   1.053
 2658SOL     OW 7989   4.031   0.063   0.618
 2658SOL    HW1 7990   4.020   0.157   0.651
 2658SOL    HW2 7991   4.026   0.000   0.695
 2659SOL     OW 7992   4.747   0.766   0.966
 2659SOL    HW1 7993   4.762   0.787   1.062
 2659SOL    HW2 7994   4.717   0.671   0.957
 2660SOL     OW 7995   4.704   1.573   1.700
 2660SOL    HW1 7996   4.684   1.617   1.612
 2660SOL    HW2 7997   4.743   1.482   1.684
 2661SOL     OW 7998   4.074   0.898   1.804
 2661SOL    HW1 7999   4.150   0.942   1.852
 2661SOL    HW2 8000   4.109   0.851   1.722
 2662SOL     OW 8001   4.043   0.810   0.949
 2662SOL    HW1 8002   4.136   0.846   0.954
 2662SOL    HW2 8003   4.037   0.725   1.001
 2663SOL     OW 8004   4.063   0.509   1.006
 2663SOL    HW1 8005   4.011   0.426   0.989
 2663SOL    HW2 8006   4.140   0.514   0.942
 2664SOL     OW 8007   3.732   1.326   0.200
 2664SOL    HW1 8008   3.639   1.347   0.169
 2664SOL    HW2 8009   3.742   1.227   0.213
 2665SOL     OW 8010   3.812   1.801   0.927
 2665SOL    HW1 8011   3.770   1.715   0.900
 2665SOL    HW2 8012   3.906   1.804   0.893
 2666SOL     OW 8013   4.228   1.568   0.910
 2666SOL    HW1 8014   4.294   1.642   0.919
 2666SOL    HW2 8015   4.272   1.489   0.868
 2667SOL     OW 8016   3.764   0.544   1.114
 2667SOL    HW1 8017   3.849   0.511   1.073
 2667SOL    HW2 8018   3.777   0.559   1.212
 2668SOL     OW 8019   3.913   0.520   1.722
 2668SOL    HW1 8020   3.972   0.480   1.652
 2668SOL    HW2 8021   3.855   0.591   1.681
 2669SOL     OW 8022   4.539   0.572   0.325
 2669SOL    HW1 8023   4.546   0.483   0.279
 2669SOL    HW2 8024   4.445   0.606   0.317
 2670SOL     OW 8025   3.976   1.564   1.744
 2670SOL    HW1 8026   3.946   1.621   1.820
 2670SOL    HW2 8027   3.969   1.467   1.770
 2671SOL     OW 8028   4.395   0.464   1.269
 2671SOL    HW1 8029   4.361   0.375   1.239
 2671SOL    HW2 8030   4.421   0.518   1.189
 2672SOL     OW 8031   4.197   0.500   0.191
 2672SOL    HW1 8032   4.258   0.580   0.195
 2672SOL    HW2 8033   4.102   0.531   0.198
 2673SOL     OW 8034   3.883   1.137   1.466
 2673SOL    HW1 8035   3.905   1.076   1.542
 2673SOL    HW2 8036   3.893   1.088   1.380
 2674SOL     OW 8037   3.807   1.258   1.022
 2674SOL    HW1 8038   3.802   1.257   1.122
 2674SOL    HW2 8039   3.724   1.217   0.984
 2675SOL     OW 8040   4.412   1.662   1.716
 2675SOL    HW1 8041   4.356   1.743   1.725
 2675SOL    HW2 8042   4.464   1.666   1.630
 2676SOL     OW 8043   4.627   0.086   0.133
 2676SOL    HW1 8044   4.678   0.087   0.047
 2676SOL    HW2 8045   4.683   0.044   0.204
 2677SOL     OW 8046   3.854   1.794   1.851
 2677SOL    HW1 8047   3.813   1.720   1.904
 2677SOL    HW2 8048   3.918   1.845   1.909
 2678SOL     OW 8049   4.554   1.273   1.422
 2678SOL    HW1 8050   4.549   1.306   1.517
 2678SOL    HW2 8051   4.468   1.292   1.376
 2679SOL     OW 8052   4.396   1.616   0.154
 2679SOL    HW1 8053   4.405   1.626   0.055
 2679SOL    HW2 8054   4.356   1.527   0.175
 2680SOL     OW 8055   3.987   0.326   0.720
 2680SOL    HW1 8056   3.908   0.377   0.686
 2680SOL    HW2 8057   3.978   0.311   0.818
 2681SOL     OW 8058   4.918   1.612   0.031
 2681SOL    HW1 8059   4.924   1.519   0.068
 2681SOL    HW2 8060   4.859   1.612  -0.049
 2682SOL     OW 8061   4.546   1.002   1.372
 2682SOL    HW1 8062   4.586   1.001   1.280
 2682SOL    HW2 8063   4.556   1.094   1.412
 2683SOL     OW 8064   4.096   1.288   1.490
 2683SOL    HW1 8065   4.083   1.381   1.456
 2683SOL    HW2 8066   4.012   1.236   1.477
 2684SOL     OW 8067   4.314   1.487   0.491
 2684SOL    HW1 8068   4.356   1.429   0.421
 2684SOL    HW2 8069   4.270   1.566   0.447
 2685SOL     OW 8070   3.979   1.348   0.290
 2685SOL    HW1 8071   3.883   1.349   0.263
 2685SOL    HW2 8072   3.991   1.401   0.374
 2686SOL     OW 8073   3.829   1.013   1.726
 2686SOL    HW1 8074   3.752   0.980   1.780
 2686SOL    HW2 8075   3.914   0.983   1.768
 2687SOL     OW 8076   4.396   0.203   1.489
 2687SOL    HW1 8077   4.486   0.187   1.449
 2687SOL    HW2 8078   4.404   0.208   1.588
 2688SOL     OW 8079   3.796   0.166   0.318
 2688SOL    HW1 8080   3.779   0.249   0.264
 2688SOL    HW2 8081   3.886   0.129   0.296
 2689SOL     OW 8082   4.337   0.842   1.431
 2689SOL    HW1 8083   4.393   0.923   1.414
 2689SOL    HW2 8084   4.396   0.762   1.434
 2690SOL     OW 8085   4.440   0.565   1.708
 2690SOL    HW1 8086   4.459   0.630   1.782
 2690SOL    HW2 8087   4.500   0.485   1.717
 2691SOL     OW 8088   4.114   1.741   1.560
 2691SOL    HW1 8089   4.023   1.782   1.558
 2691SOL    HW2 8090   4.107   1.647   1.592
 2692SOL     OW 8091   4.318   0.745   0.652
 2692SOL    HW1 8092   4.368   0.830   0.633
 2692SOL    HW2 8093   4.230   0.747   0.604
 2693SOL     OW 8094   4.385   1.790   0.953
 2693SOL    HW1 8095   4.339   1.878   0.940
 2693SOL    HW2 8096   4.484   1.802   0.946
 2694SOL     OW 8097   3.945   1.314   1.844
 2694SOL    HW1 8098   3.880   1.241   1.823
 2694SOL    HW2 8099   3.949   1.328   1.942
 2695SOL     OW 8100   3.803   1.240   0.653
 2695SOL    HW1 8101   3.802   1.193   0.741
 2695SOL    HW2 8102   3.885   1.212   0.602
 2696SOL     OW 8103   4.396   1.391   1.624
 2696SOL    HW1 8104   4.318   1.341   1.662
 2696SOL    HW2 8105   4.393   1.486   1.655
 2697SOL     OW 8106   4.152   0.424   0.520
 2697SOL    HW1 8107   4.182   0.352   0.458
 2697SOL    HW2 8108   4.113   0.384   0.603
 2698SOL     OW 8109   4.041   0.547   1.280
 2698SOL    HW1 8110   4.079   0.488   1.352
 2698SOL    HW2 8111   4.081   0.521   1.192
 2699SOL     OW 8112   4.536   1.586   0.687
 2699SOL    HW1 8113   4.568   1.596   0.593
 2699SOL    HW2 8114   4.457   1.524   0.689
 2700SOL     OW 8115   4.725   0.034   1.154
 2700SOL    HW1 8116   4.662  -0.038   1.123
 2700SOL    HW2 8117   4.818  -0.002   1.154
 2701SOL     OW 8118   4.342   1.567   1.284
 2701SOL    HW1 8119   4.337   1.649   1.341
 2701SOL    HW2 8120   4.431   1.564   1.239
 2702SOL     OW 8121   3.763   1.077   0.300
 2702SOL    HW1 8122   3.862   1.066   0.291
 2702SOL    HW2 8123   3.723   0.991   0.332
 2703SOL     OW 8124   3.954   0.628   1.975
 2703SOL    HW1 8125   3.861   0.626   2.012
 2703SOL    HW2 8126   3.955   0.589   1.883
 2704SOL     OW 8127   3.949   0.275   2.858
 2704SOL    HW1 8128   3.984   0.258   2.950
 2704SOL    HW2 8129   3.861   0.230   2.846
 2705SOL     OW 8130   3.743   0.368   2.509
 2705SOL    HW1 8131   3.661   0.411   2.548
 2705SOL    HW2 8132   3.715   0.295   2.446
 2706SOL     OW 8133   4.293   1.275   3.027
 2706SOL    HW1 8134   4.200   1.268   2.990
 2706SOL    HW2 8135   4.304   1.364   3.071
 2707SOL     OW 8136   4.574   0.798   3.685
 2707SOL    HW1 8137   4.570   0.874   3.750
 2707SOL    HW2 8138   4.596   0.834   3.594
 2708SOL     OW 8139   4.409   1.012   2.527
 2708SOL    HW1 8140   4.478   0.996   2.597
 2708SOL    HW2 8141   4.336   1.069   2.565
 2709SOL     OW 8142   4.410   1.161   3.665
 2709SOL    HW1 8143   4.470   1.240   3.679
 2709SOL    HW2 8144   4.324   1.192   3.624
 2710SOL     OW 8145   4.059   1.435   2.923
 2710SOL    HW1 8146   3.981   1.404   2.870
 2710SOL    HW2 8147   4.117   1.493   2.866
 2711SOL     OW 8148   4.162   0.392   3.361
 2711SOL    HW1 8149   4.244   0.336   3.370
 2711SOL    HW2 8150   4.081   0.334   3.365
 2712SOL     OW 8151   3.955   1.713   2.345
 2712SOL    HW1 8152   3.989   1.790   2.399
 2712SOL    HW2 8153   3.999   1.713   2.255
 2713SOL     OW 8154   3.954   1.434   2.400
 2713SOL    HW1 8155   3.928   1.530   2.400
 2713SOL    HW2 8156   3.883   1.380   2.445
 2714SOL     OW 8157   3.964   1.091   2.748
 2714SOL    HW1 8158   3.978   1.007   2.800
 2714SOL    HW2 8159   3.909   1.155   2.803
 2715SOL     OW 8160   4.344   1.786   3.301
 2715SOL    HW1 8161   4.252   1.769   3.336
 2715SOL    HW2 8162   4.372   1.878   3.327
 2716SOL     OW 8163   4.330   0.964   1.985
 2716SOL    HW1 8164   4.337   1.048   1.931
 2716SOL    HW2 8165   4.376   0.977   2.073
 2717SOL     OW 8166   3.846   0.643   2.425
 2717SOL    HW1 8167   3.801   0.555   2.442
 2717SOL    HW2 8168   3.845   0.697   2.509
 2718SOL     OW 8169   3.751   1.596   1.979
 2718SOL    HW1 8170   3.732   1.500   2.000
 2718SOL    HW2 8171   3.718   1.654   2.054
 2719SOL     OW 8172   3.837   0.737   3.459
 2719SOL    HW1 8173   3.925   0.724   3.504
 2719SOL    HW2 8174   3.824   0.834   3.437
 2720SOL     OW 8175   4.337   1.365   2.588
 2720SOL    HW1 8176   4.288   1.278   2.597
 2720SOL    HW2 8177   4.314   1.408   2.501
 2721SOL     OW 8178   4.533   0.004   2.364
 2721SOL    HW1 8179   4.573   0.095   2.355
 2721SOL    HW2 8180   4.433   0.012   2.370
 2722SOL     OW 8181   3.921   0.976   3.126
 2722SOL    HW1 8182   4.010   0.931   3.112
 2722SOL    HW2 8183   3.848   0.911   3.107
 2723SOL     OW 8184   4.041   0.251   3.663
 2723SOL    HW1 8185   4.112   0.322   3.669
 2723SOL    HW2 8186   3.953   0.290   3.691
 2724SOL     OW 8187   4.322   0.729   2.132
 2724SOL    HW1 8188   4.346   0.798   2.064
 2724SOL    HW2 8189   4.244   0.762   2.186
 2725SOL     OW 8190   4.531   0.605   3.327
 2725SOL    HW1 8191   4.484   0.602   3.416
 2725SOL    HW2 8192   4.480   0.550   3.261
 2726SOL     OW 8193   3.800   0.811   2.651
 2726SOL    HW1 8194   3.899   0.799   2.660
 2726SOL    HW2 8195   3.776   0.906   2.672
 2727SOL     OW 8196   3.854   1.821   3.433
 2727SOL    HW1 8197   3.844   1.806   3.532
 2727SOL    HW2 8198   3.768   1.857   3.397
 2728SOL     OW 8199   4.274   0.196   2.747
 2728SOL    HW1 8200   4.269   0.191   2.847
 2728SOL    HW2 8201   4.276   0.292   2.718
 2729SOL     OW 8202   4.075   1.801   2.715
 2729SOL    HW1 8203   4.125   1.715   2.721
 2729SOL    HW2 8204   4.140   1.878   2.712
 2730SOL     OW 8205   4.045   0.943   2.104
 2730SOL    HW1 8206   4.127   0.982   2.062
 2730SOL    HW2 8207   4.018   0.861   2.055
 2731SOL     OW 8208   4.185   1.266   3.589
 2731SOL    HW1 8209   4.135   1.267   3.503
 2731SOL    HW2 8210   4.122   1.248   3.665
 2732SOL     OW 8211   4.835   1.776   2.099
 2732SOL    HW1 8212   4.775   1.714   2.149
 2732SOL    HW2 8213   4.866   1.732   2.014
 2733SOL     OW 8214   3.926   0.285   3.360
 2733SOL    HW1 8215   3.846   0.345   3.347
 2733SOL    HW2 8216   3.916   0.236   3.446
 2734SOL     OW 8217   4.188   1.743   2.185
 2734SOL    HW1 8218   4.221   1.782   2.271
 2734SOL    HW2 8219   4.264   1.736   2.120
 2735SOL     OW 8220   3.973   1.785   3.103
 2735SOL    HW1 8221   4.030   1.720   3.153
 2735SOL    HW2 8222   3.957   1.752   3.010
 2736SOL     OW 8223   4.106   0.700   2.342
 2736SOL    HW1 8224   4.151   0.610   2.339
 2736SOL    HW2 8225   4.012   0.689   2.375
 2737SOL     OW 8226   4.338   0.122   1.979
 2737SOL    HW1 8227   4.436   0.100   1.986
 2737SOL    HW2 8228   4.307   0.105   1.886
 2738SOL     OW 8229   4.505   0.264   3.611
 2738SOL    HW1 8230   4.572   0.203   3.654
 2738SOL    HW2 8231   4.432   0.283   3.676
 2739SOL     OW 8232   4.527   1.402   2.786
 2739SOL    HW1 8233   4.617   1.416   2.744
 2739SOL    HW2 8234   4.456   1.404   2.715
 2740SOL     OW 8235   4.646   0.503   2.761
 2740SOL    HW1 8236   4.621   0.494   2.665
 2740SOL    HW2 8237   4.694   0.421   2.792
 2741SOL     OW 8238   4.263   0.064   2.374
 2741SOL    HW1 8239   4.182   0.065   2.432
 2741SOL    HW2 8240   4.266   0.147   2.319
 2742SOL     OW 8241   4.021   0.035   2.033
 2742SOL    HW1 8242   4.070   0.119   2.012
 2742SOL    HW2 8243   4.083  -0.030   2.078
 2743SOL     OW 8244   4.183   1.152   2.603
 2743SOL    HW1 8245   4.112   1.125   2.668
 2743SOL    HW2 8246   4.157   1.124   2.510
 2744SOL     OW 8247   3.802   0.556   3.248
 2744SOL    HW1 8248   3.894   0.555   3.207
 2744SOL    HW2 8249   3.796   0.630   3.315
 2745SOL     OW 8250   4.285   0.222   3.009
 2745SOL    HW1 8251   4.323   0.138   3.046
 2745SOL    HW2 8252   4.197   0.241   3.053
 2746SOL     OW 8253   4.212   1.385   2.036
 2746SOL    HW1 8254   4.125   1.370   2.083
 2746SOL    HW2 8255   4.195   1.411   1.941
 2747SOL     OW 8256   4.251   0.256   2.190
 2747SOL    HW1 8257   4.278   0.197   2.115
 2747SOL    HW2 8258   4.251   0.351   2.159
 2748SOL     OW 8259   4.639   0.089   3.264
 2748SOL    HW1 8260   4.664   0.069   3.169
 2748SOL    HW2 8261   4.711   0.145   3.306
 2749SOL     OW 8262   4.134   0.813   3.113
 2749SOL    HW1 8263   4.220   0.825   3.163
 2749SOL    HW2 8264   4.092   0.726   3.140
 2750SOL     OW 8265   3.788   1.564   3.193
 2750SOL    HW1 8266   3.742   1.646   3.159
 2750SOL    HW2 8267   3.886   1.583   3.202
 2751SOL     OW 8268   4.091   1.100   2.363
 2751SOL    HW1 8269   4.084   1.183   2.307
 2751SOL    HW2 8270   4.095   1.020   2.303
 2752SOL     OW 8271   4.290   0.537   2.727
 2752SOL    HW1 8272   4.302   0.603   2.653
 2752SOL    HW2 8273   4.336   0.571   2.810
 2753SOL     OW 8274   4.078   1.510   3.191
 2753SOL    HW1 8275   4.057   1.466   3.104
 2753SOL    HW2 8276   4.175   1.536   3.194
 2754SOL     OW 8277   4.126   0.751   3.460
 2754SOL    HW1 8278   4.194   0.806   3.413
 2754SOL    HW2 8279   4.166   0.663   3.487
 2755SOL     OW 8280   4.228   0.050   3.602
 2755SOL    HW1 8281   4.186  -0.007   3.532
 2755SOL    HW2 8282   4.162   0.119   3.634
 2756SOL     OW 8283   4.297   0.870   2.891
 2756SOL    HW1 8284   4.341   0.959   2.882
 2756SOL    HW2 8285   4.234   0.870   2.968
 2757SOL     OW 8286   4.031   0.213   3.093
 2757SOL    HW1 8287   4.008   0.250   3.183
 2757SOL    HW2 8288   4.001   0.118   3.087
 2758SOL     OW 8289   3.761   1.310   3.144
 2758SOL    HW1 8290   3.814   1.261   3.212
 2758SOL    HW2 8291   3.783   1.408   3.149
 2759SOL     OW 8292   4.456   0.634   2.926
 2759SOL    HW1 8293   4.515   0.608   2.850
 2759SOL    HW2 8294   4.428   0.730   2.915
 2760SOL     OW 8295   4.031   0.063   2.480
 2760SOL    HW1 8296   4.020   0.157   2.513
 2760SOL    HW2 8297   4.026   0.000   2.557
 2761SOL     OW 8298   4.747   0.766   2.828
 2761SOL    HW1 8299   4.762   0.787   2.924
 2761SOL    HW2 8300   4.717   0.671   2.819
 2762SOL     OW 8301   4.704   1.573   3.562
 2762SOL    HW1 8302   4.684   1.617   3.474
 2762SOL    HW2 8303   4.743   1.482   3.546
 2763SOL     OW 8304   4.074   0.898   3.666
 2763SOL    HW1 8305   4.150   0.942   3.714
 2763SOL    HW2 8306   4.109   0.851   3.584
 2764SOL     OW 8307   4.043   0.810   2.811
 2764SOL    HW1 8308   4.136   0.846   2.816
 2764SOL    HW2 8309   4.037   0.725   2.863
 2765SOL     OW 8310   4.063   0.509   2.868
 2765SOL    HW1 8311   4.011   0.426   2.851
 2765SOL    HW2 8312   4.140   0.514   2.804
 2766SOL     OW 8313   3.732   1.326   2.062
 2766SOL    HW1 8314   3.639   1.347   2.031
 2766SOL    HW2 8315   3.742   1.227   2.075
 2767SOL     OW 8316   3.812   1.801   2.789
 2767SOL    HW1 8317   3.770   1.715   2.762
 2767SOL    HW2 8318   3.906   1.804   2.755
 2768SOL     OW 8319   4.228   1.568   2.772
 2768SOL    HW1 8320   4.294   1.642   2.781
 2768SOL    HW2 8321   4.272   1.489   2.730
 2769SOL     OW 8322   3.764   0.544   2.976
 2769SOL    HW1 8323   3.849   0.511   2.935
 2769SOL    HW2 8324   3.777   0.559   3.074
 2770SOL     OW 8325   3.913   0.520   3.584
 2770SOL    HW1 8326   3.972   0.480   3.514
 2770SOL    HW2 8327   3.855   0.591   3.543
 2771SOL     OW 8328   4.539   0.572   2.187
 2771SOL    HW1 8329   4.546   0.483   2.141
 2771SOL    HW2 8330   4.445   0.606   2.179
 2772SOL     OW 8331   3.976   1.564   3.606
 2772SOL    HW1 8332   3.946   1.621   3.682
 2772SOL    HW2 8333   3.969   1.467   3.632
 2773SOL     OW 8334   4.395   0.464   3.131
 2773SOL    HW1 8335   4.361   0.375   3.101
 2773SOL    HW2 8336   4.421   0.518   3.051
 2774SOL     OW 8337   4.197   0.500   2.053
 2774SOL    HW1 8338   4.258   0.580   2.057
 2774SOL    HW2 8339   4.102   0.531   2.060
 2775SOL     OW 8340   3.883   1.137   3.328
 2775SOL    HW1 8341   3.905   1.076   3.404
 2775SOL    HW2 8342   3.893   1.088   3.242
 2776SOL     OW 8343   3.807   1.258   2.884
 2776SOL    HW1 8344   3.802   1.257   2.984
 2776SOL    HW2 8345   3.724   1.217   2.846
 2777SOL     OW 8346   4.412   1.662   3.578
 2777SOL    HW1 8347   4.356   1.743   3.587
 2777SOL    HW2 8348   4.464   1.666   3.492
 2778SOL     OW 8349   3.854   1.794   3.713
 2778SOL    HW1 8350   3.813   1.720   3.766
 2778SOL    HW2 8351   3.918   1.845   3.771
 2779SOL     OW 8352   4.554   1.273   3.284
 2779SOL    HW1 8353   4.549   1.306   3.379
 2779SOL    HW2 8354   4.468   1.292   3.238
 2780SOL     OW 8355   4.396   1.616   2.016
 2780SOL    HW1 8356   4.405   1.626   1.917
 2780SOL    HW2 8357   4.356   1.527   2.037
 2781SOL     OW 8358   3.987   0.326   2.582
 2781SOL    HW1 8359   3.908   0.377   2.548
 2781SOL    HW2 8360   3.978   0.311   2.680
 2782SOL     OW 8361   4.546   1.002   3.234
 2782SOL    HW1 8362   4.586   1.001   3.142
 2782SOL    HW2 8363   4.556   1.094   3.274
 2783SOL     OW 8364   4.096   1.288   3.352
 2783SOL    HW1 8365   4.083   1.381   3.318
 2783SOL    HW2 8366   4.012   1.236   3.339
 2784SOL     OW 8367   4.314   1.487   2.353
 2784SOL    HW1 8368   4.356   1.429   2.283
 2784SOL    HW2 8369   4.270   1.566   2.309
 2785SOL     OW 8370   3.979   1.348   2.152
 2785SOL    HW1 8371   3.883   1.349   2.125
 2785SOL    HW2 8372   3.991   1.401   2.236
 2786SOL     OW 8373   3.829   1.013   3.588
 2786SOL    HW1 8374   3.752   0.980   3.642
 2786SOL    HW2 8375   3.914   0.983   3.630
 2787SOL     OW 8376   4.396   0.203   3.351
 2787SOL    HW1 8377   4.486   0.187   3.311
 2787SOL    HW2 8378   4.404   0.208   3.450
 2788SOL     OW 8379   3.799   0.345   1.895
 2788SOL    HW1 8380   3.707   0.317   1.866
 2788SOL    HW2 8381   3.830   0.422   1.839
 2789SOL     OW 8382   3.796   0.166   2.180
 2789SOL    HW1 8383   3.779   0.249   2.126
 2789SOL    HW2 8384   3.886   0.129   2.158
 2790SOL     OW 8385   4.337   0.842   3.293
 2790SOL    HW1 8386   4.393   0.923   3.276
 2790SOL    HW2 8387   4.396   0.762   3.296
 2791SOL     OW 8388   4.440   0.565   3.570
 2791SOL    HW1 8389   4.459   0.630   3.644
 2791SOL    HW2 8390   4.500   0.485   3.579
 2792SOL     OW 8391   4.114   1.741   3.422
 2792SOL    HW1 8392   4.023   1.782   3.420
 2792SOL    HW2 8393   4.107   1.647   3.454
 2793SOL     OW 8394   4.318   0.745   2.514
 2793SOL    HW1 8395   4.368   0.830   2.495
 2793SOL    HW2 8396   4.230   0.747   2.466
 2794SOL     OW 8397   4.385   1.790   2.815
 2794SOL    HW1 8398   4.339   1.878   2.802
 2794SOL    HW2 8399   4.484   1.802   2.808
 2795SOL     OW 8400   3.945   1.314   3.706
 2795SOL    HW1 8401   3.880   1.241   3.685
 2795SOL    HW2 8402   3.949   1.328   3.804
 2796SOL     OW 8403   3.803   1.240   2.515
 2796SOL    HW1 8404   3.802   1.193   2.603
 2796SOL    HW2 8405   3.885   1.212   2.464
 2797SOL     OW 8406   4.396   1.391   3.486
 2797SOL    HW1 8407   4.318   1.341   3.524
 2797SOL    HW2 8408   4.393   1.486   3.517
 2798SOL     OW 8409   4.152   0.424   2.382
 2798SOL    HW1 8410   4.182   0.352   2.320
 2798SOL    HW2 8411   4.113   0.384   2.465
 2799SOL     OW 8412   4.041   0.547   3.142
 2799SOL    HW1 8413   4.079   0.488   3.214
 2799SOL    HW2 8414   4.081   0.521   3.054
 2800SOL     OW 8415   4.536   1.586   2.549
 2800SOL    HW1 8416   4.568   1.596   2.455
 2800SOL    HW2 8417   4.457   1.524   2.551
 2801SOL     OW 8418   4.725   0.034   3.016
 2801SOL    HW1 8419   4.662  -0.038   2.985
 2801SOL    HW2 8420   4.818  -0.002   3.016
 2802SOL     OW 8421   4.342   1.567   3.146
 2802SOL    HW1 8422   4.337   1.649   3.203
 2802SOL    HW2 8423   4.431   1.564   3.101
 2803SOL     OW 8424   3.763   1.077   2.162
 2803SOL    HW1 8425   3.862   1.066   2.153
 2803SOL    HW2 8426   3.723   0.991   2.194
 2804SOL     OW 8427   3.954   0.628   3.837
 2804SOL    HW1 8428   3.861   0.626   3.874
 2804SOL    HW2 8429   3.955   0.589   3.745
 2805SOL     OW 8430   3.949   0.275   4.720
 2805SOL    HW1 8431   3.984   0.258   4.812
 2805SOL    HW2 8432   3.861   0.230   4.708
 2806SOL     OW 8433   3.743   0.368   4.371
 2806SOL    HW1 8434   3.661   0.411   4.410
 2806SOL    HW2 8435   3.715   0.295   4.308
 2807SOL     OW 8436   4.492   1.144   4.747
 2807SOL    HW1 8437   4.414   1.161   4.807
 2807SOL    HW2 8438   4.526   1.231   4.711
 2808SOL     OW 8439   4.409   1.012   4.389
 2808SOL    HW1 8440   4.478   0.996   4.459
 2808SOL    HW2 8441   4.336   1.069   4.427
 2809SOL     OW 8442   3.955   1.713   4.207
 2809SOL    HW1 8443   3.989   1.790   4.261
 2809SOL    HW2 8444   3.999   1.713   4.117
 2810SOL     OW 8445   3.954   1.434   4.262
 2810SOL    HW1 8446   3.928   1.530   4.262
 2810SOL    HW2 8447   3.883   1.380   4.307
 2811SOL     OW 8448   3.964   1.091   4.610
 2811SOL    HW1 8449   3.978   1.007   4.662
 2811SOL    HW2 8450   3.909   1.155   4.665
 2812SOL     OW 8451   4.330   0.964   3.847
 2812SOL    HW1 8452   4.337   1.048   3.793
 2812SOL    HW2 8453   4.376   0.977   3.935
 2813SOL     OW 8454   3.846   0.643   4.287
 2813SOL    HW1 8455   3.801   0.555   4.304
 2813SOL    HW2 8456   3.845   0.697   4.371
 2814SOL     OW 8457   3.751   1.596   3.841
 2814SOL    HW1 8458   3.732   1.500   3.862
 2814SOL    HW2 8459   3.718   1.654   3.916
 2815SOL     OW 8460   4.337   1.365   4.450
 2815SOL    HW1 8461   4.288   1.278   4.459
 2815SOL    HW2 8462   4.314   1.408   4.363
 2816SOL     OW 8463   4.533   0.004   4.226
 2816SOL    HW1 8464   4.573   0.095   4.217
 2816SOL    HW2 8465   4.433   0.012   4.232
 2817SOL     OW 8466   4.322   0.729   3.994
 2817SOL    HW1 8467   4.346   0.798   3.926
 2817SOL    HW2 8468   4.244   0.762   4.048
 2818SOL     OW 8469   3.800   0.811   4.513
 2818SOL    HW1 8470   3.899   0.799   4.522
 2818SOL    HW2 8471   3.776   0.906   4.534
 2819SOL     OW 8472   4.075   1.801   4.577
 2819SOL    HW1 8473   4.125   1.715   4.583
 2819SOL    HW2 8474   4.140   1.878   4.574
 2820SOL     OW 8475   4.045   0.943   3.966
 2820SOL    HW1 8476   4.127   0.982   3.924
 2820SOL    HW2 8477   4.018   0.861   3.917
 2821SOL     OW 8478   4.835   1.776   3.961
 2821SOL    HW1 8479   4.775   1.714   4.011
 2821SOL    HW2 8480   4.866   1.732   3.876
 2822SOL     OW 8481   4.188   1.743   4.047
 2822SOL    HW1 8482   4.221   1.782   4.133
 2822SOL    HW2 8483   4.264   1.736   3.982
 2823SOL     OW 8484   4.106   0.700   4.204
 2823SOL    HW1 8485   4.151   0.610   4.201
 2823SOL    HW2 8486   4.012   0.689   4.237
 2824SOL     OW 8487   4.338   0.122   3.841
 2824SOL    HW1 8488   4.436   0.100   3.848
 2824SOL    HW2 8489   4.307   0.105   3.748
 2825SOL     OW 8490   4.527   1.402   4.648
 2825SOL    HW1 8491   4.617   1.416   4.606
 2825SOL    HW2 8492   4.456   1.404   4.577
 2826SOL     OW 8493   4.263   0.064   4.236
 2826SOL    HW1 8494   4.182   0.065   4.294
 2826SOL    HW2 8495   4.266   0.147   4.181
 2827SOL     OW 8496   4.021   0.035   3.895
 2827SOL    HW1 8497   4.070   0.119   3.874
 2827SOL    HW2 8498   4.083  -0.030   3.940
 2828SOL     OW 8499   4.183   1.152   4.465
 2828SOL    HW1 8500   4.112   1.125   4.530
 2828SOL    HW2 8501   4.157   1.124   4.372
 2829SOL     OW 8502   4.212   1.385   3.898
 2829SOL    HW1 8503   4.125   1.370   3.945
 2829SOL    HW2 8504   4.195   1.411   3.803
 2830SOL     OW 8505   4.251   0.256   4.052
 2830SOL    HW1 8506   4.278   0.197   3.977
 2830SOL    HW2 8507   4.251   0.351   4.021
 2831SOL     OW 8508   4.091   1.100   4.225
 2831SOL    HW1 8509   4.084   1.183   4.169
 2831SOL    HW2 8510   4.095   1.020   4.165
 2832SOL     OW 8511   4.290   0.537   4.589
 2832SOL    HW1 8512   4.302   0.603   4.515
 2832SOL    HW2 8513   4.336   0.571   4.672
 2833SOL     OW 8514   4.031   0.063   4.342
 2833SOL    HW1 8515   4.020   0.157   4.375
 2833SOL    HW2 8516   4.026   0.000   4.419
 2834SOL     OW 8517   4.747   0.766   4.690
 2834SOL    HW1 8518   4.762   0.787   4.786
 2834SOL    HW2 8519   4.717   0.671   4.681
 2835SOL     OW 8520   3.732   1.326   3.924
 2835SOL    HW1 8521   3.639   1.347   3.893
 2835SOL    HW2 8522   3.742   1.227   3.937
 2836SOL     OW 8523   3.812   1.801   4.651
 2836SOL    HW1 8524   3.770   1.715   4.624
 2836SOL    HW2 8525   3.906   1.804   4.617
 2837SOL     OW 8526   4.539   0.572   4.049
 2837SOL    HW1 8527   4.546   0.483   4.003
 2837SOL    HW2 8528   4.445   0.606   4.041
 2838SOL     OW 8529   4.197   0.500   3.915
 2838SOL    HW1 8530   4.258   0.580   3.919
 2838SOL    HW2 8531   4.102   0.531   3.922
 2839SOL     OW 8532   4.396   1.616   3.878
 2839SOL    HW1 8533   4.405   1.626   3.779
 2839SOL    HW2 8534   4.356   1.527   3.899
 2840SOL     OW 8535   3.987   0.326   4.444
 2840SOL    HW1 8536   3.908   0.377   4.410
 2840SOL    HW2 8537   3.978   0.311   4.542
 2841SOL     OW 8538   4.314   1.487   4.215
 2841SOL    HW1 8539   4.356   1.429   4.145
 2841SOL    HW2 8540   4.270   1.566   4.171
 2842SOL     OW 8541   3.979   1.348   4.014
 2842SOL    HW1 8542   3.883   1.349   3.987
 2842SOL    HW2 8543   3.991   1.401   4.098
 2843SOL     OW 8544   3.799   0.345   3.757
 2843SOL    HW1 8545   3.707   0.317   3.728
 2843SOL    HW2 8546   3.830   0.422   3.701
 2844SOL     OW 8547   3.796   0.166   4.042
 2844SOL    HW1 8548   3.779   0.249   3.988
 2844SOL    HW2 8549   3.886   0.129   4.020
 2845SOL     OW 8550   4.318   0.745   4.376
 2845SOL    HW1 8551   4.368   0.830   4.357
 2845SOL    HW2 8552   4.230   0.747   4.328
 2846SOL     OW 8553   4.385   1.790   4.677
 2846SOL    HW1 8554   4.339   1.878   4.664
 2846SOL    HW2 8555   4.484   1.802   4.670
 2847SOL     OW 8556   3.803   1.240   4.377
 2847SOL    HW1 8557   3.802   1.193   4.465
 2847SOL    HW2 8558   3.885   1.212   4.326
 2848SOL     OW 8559   4.152   0.424   4.244
 2848SOL    HW1 8560   4.182   0.352   4.182
 2848SOL    HW2 8561   4.113   0.384   4.327
 2849SOL     OW 8562   4.536   1.586   4.411
 2849SOL    HW1 8563   4.568   1.596   4.317
 2849SOL    HW2 8564   4.457   1.524   4.413
 2850SOL     OW 8565   3.763   1.077   4.024
 2850SOL    HW1 8566   3.862   1.066   4.015
 2850SOL    HW2 8567   3.723   0.991   4.056
 2851SOL     OW 8568   3.954   2.490   0.113
 2851SOL    HW1 8569   3.861   2.488   0.150
 2851SOL    HW2 8570   3.955   2.451   0.021
 2852SOL     OW 8571   3.949   2.137   0.996
 2852SOL    HW1 8572   3.984   2.120   1.088
 2852SOL    HW2 8573   3.861   2.092   0.984
 2853SOL     OW 8574   3.743   2.230   0.647
 2853SOL    HW1 8575   3.661   2.273   0.686
 2853SOL    HW2 8576   3.715   2.157   0.584
 2854SOL     OW 8577   4.293   3.137   1.165
 2854SOL    HW1 8578   4.200   3.130   1.128
 2854SOL    HW2 8579   4.304   3.226   1.209
 2855SOL     OW 8580   4.574   2.660   1.823
 2855SOL    HW1 8581   4.570   2.736   1.888
 2855SOL    HW2 8582   4.596   2.696   1.732
 2856SOL     OW 8583   4.409   2.874   0.665
 2856SOL    HW1 8584   4.478   2.858   0.735
 2856SOL    HW2 8585   4.336   2.931   0.703
 2857SOL     OW 8586   4.410   3.023   1.803
 2857SOL    HW1 8587   4.470   3.102   1.817
 2857SOL    HW2 8588   4.324   3.054   1.762
 2858SOL     OW 8589   4.059   3.297   1.061
 2858SOL    HW1 8590   3.981   3.266   1.008
 2858SOL    HW2 8591   4.117   3.355   1.004
 2859SOL     OW 8592   4.162   2.254   1.499
 2859SOL    HW1 8593   4.244   2.198   1.508
 2859SOL    HW2 8594   4.081   2.196   1.503
 2860SOL     OW 8595   3.955   3.575   0.483
 2860SOL    HW1 8596   3.989   3.652   0.537
 2860SOL    HW2 8597   3.999   3.575   0.393
 2861SOL     OW 8598   3.954   3.296   0.538
 2861SOL    HW1 8599   3.928   3.392   0.538
 2861SOL    HW2 8600   3.883   3.242   0.583
 2862SOL     OW 8601   3.964   2.953   0.886
 2862SOL    HW1 8602   3.978   2.869   0.938
 2862SOL    HW2 8603   3.909   3.017   0.941
 2863SOL     OW 8604   4.344   3.648   1.439
 2863SOL    HW1 8605   4.252   3.631   1.474
 2863SOL    HW2 8606   4.372   3.740   1.465
 2864SOL     OW 8607   4.330   2.826   0.123
 2864SOL    HW1 8608   4.337   2.910   0.069
 2864SOL    HW2 8609   4.376   2.839   0.211
 2865SOL     OW 8610   3.846   2.505   0.563
 2865SOL    HW1 8611   3.801   2.417   0.580
 2865SOL    HW2 8612   3.845   2.559   0.647
 2866SOL     OW 8613   3.751   3.458   0.117
 2866SOL    HW1 8614   3.732   3.362   0.138
 2866SOL    HW2 8615   3.718   3.516   0.192
 2867SOL     OW 8616   3.837   2.599   1.597
 2867SOL    HW1 8617   3.925   2.586   1.642
 2867SOL    HW2 8618   3.824   2.696   1.575
 2868SOL     OW 8619   4.337   3.227   0.726
 2868SOL    HW1 8620   4.288   3.140   0.735
 2868SOL    HW2 8621   4.314   3.270   0.639
 2869SOL     OW 8622   4.533   1.866   0.502
 2869SOL    HW1 8623   4.573   1.957   0.493
 2869SOL    HW2 8624   4.433   1.874   0.508
 2870SOL     OW 8625   3.921   2.838   1.264
 2870SOL    HW1 8626   4.010   2.793   1.250
 2870SOL    HW2 8627   3.848   2.773   1.245
 2871SOL     OW 8628   4.041   2.113   1.801
 2871SOL    HW1 8629   4.112   2.184   1.807
 2871SOL    HW2 8630   3.953   2.152   1.829
 2872SOL     OW 8631   4.322   2.591   0.270
 2872SOL    HW1 8632   4.346   2.660   0.202
 2872SOL    HW2 8633   4.244   2.624   0.324
 2873SOL     OW 8634   4.531   2.467   1.465
 2873SOL    HW1 8635   4.484   2.464   1.554
 2873SOL    HW2 8636   4.480   2.412   1.399
 2874SOL     OW 8637   3.800   2.673   0.789
 2874SOL    HW1 8638   3.899   2.661   0.798
 2874SOL    HW2 8639   3.776   2.768   0.810
 2875SOL     OW 8640   3.854   3.683   1.571
 2875SOL    HW1 8641   3.844   3.668   1.670
 2875SOL    HW2 8642   3.768   3.719   1.535
 2876SOL     OW 8643   4.274   2.058   0.885
 2876SOL    HW1 8644   4.269   2.053   0.985
 2876SOL    HW2 8645   4.276   2.154   0.856
 2877SOL     OW 8646   4.075   3.663   0.853
 2877SOL    HW1 8647   4.125   3.577   0.859
 2877SOL    HW2 8648   4.140   3.740   0.850
 2878SOL     OW 8649   4.045   2.805   0.242
 2878SOL    HW1 8650   4.127   2.844   0.200
 2878SOL    HW2 8651   4.018   2.723   0.193
 2879SOL     OW 8652   4.185   3.128   1.727
 2879SOL    HW1 8653   4.135   3.129   1.641
 2879SOL    HW2 8654   4.122   3.110   1.803
 2880SOL     OW 8655   4.835   3.638   0.237
 2880SOL    HW1 8656   4.775   3.576   0.287
 2880SOL    HW2 8657   4.866   3.594   0.152
 2881SOL     OW 8658   3.926   2.147   1.498
 2881SOL    HW1 8659   3.846   2.207   1.485
 2881SOL    HW2 8660   3.916   2.098   1.584
 2882SOL     OW 8661   4.188   3.605   0.323
 2882SOL    HW1 8662   4.221   3.644   0.409
 2882SOL    HW2 8663   4.264   3.598   0.258
 2883SOL     OW 8664   3.973   3.647   1.241
 2883SOL    HW1 8665   4.030   3.582   1.291
 2883SOL    HW2 8666   3.957   3.614   1.148
 2884SOL     OW 8667   4.106   2.562   0.480
 2884SOL    HW1 8668   4.151   2.472   0.477
 2884SOL    HW2 8669   4.012   2.551   0.513
 2885SOL     OW 8670   4.505   2.126   1.749
 2885SOL    HW1 8671   4.572   2.065   1.792
 2885SOL    HW2 8672   4.432   2.145   1.814
 2886SOL     OW 8673   4.527   3.264   0.924
 2886SOL    HW1 8674   4.617   3.278   0.882
 2886SOL    HW2 8675   4.456   3.266   0.853
 2887SOL     OW 8676   4.646   2.365   0.899
 2887SOL    HW1 8677   4.621   2.356   0.803
 2887SOL    HW2 8678   4.694   2.283   0.930
 2888SOL     OW 8679   4.263   1.926   0.512
 2888SOL    HW1 8680   4.182   1.927   0.570
 2888SOL    HW2 8681   4.266   2.009   0.457
 2889SOL     OW 8682   4.021   1.897   0.171
 2889SOL    HW1 8683   4.070   1.981   0.150
 2889SOL    HW2 8684   4.083   1.832   0.216
 2890SOL     OW 8685   4.183   3.014   0.741
 2890SOL    HW1 8686   4.112   2.987   0.806
 2890SOL    HW2 8687   4.157   2.986   0.648
 2891SOL     OW 8688   3.802   2.418   1.386
 2891SOL    HW1 8689   3.894   2.417   1.345
 2891SOL    HW2 8690   3.796   2.492   1.453
 2892SOL     OW 8691   4.285   2.084   1.147
 2892SOL    HW1 8692   4.323   2.000   1.184
 2892SOL    HW2 8693   4.197   2.103   1.191
 2893SOL     OW 8694   4.212   3.247   0.174
 2893SOL    HW1 8695   4.125   3.232   0.221
 2893SOL    HW2 8696   4.195   3.273   0.079
 2894SOL     OW 8697   4.251   2.118   0.328
 2894SOL    HW1 8698   4.278   2.059   0.253
 2894SOL    HW2 8699   4.251   2.213   0.297
 2895SOL     OW 8700   4.639   1.951   1.402
 2895SOL    HW1 8701   4.664   1.931   1.307
 2895SOL    HW2 8702   4.711   2.007   1.444
 2896SOL     OW 8703   4.134   2.675   1.251
 2896SOL    HW1 8704   4.220   2.687   1.301
 2896SOL    HW2 8705   4.092   2.588   1.278
 2897SOL     OW 8706   3.788   3.426   1.331
 2897SOL    HW1 8707   3.742   3.508   1.297
 2897SOL    HW2 8708   3.886   3.445   1.340
 2898SOL     OW 8709   4.091   2.962   0.501
 2898SOL    HW1 8710   4.084   3.045   0.445
 2898SOL    HW2 8711   4.095   2.882   0.441
 2899SOL     OW 8712   4.290   2.399   0.865
 2899SOL    HW1 8713   4.302   2.465   0.791
 2899SOL    HW2 8714   4.336   2.433   0.948
 2900SOL     OW 8715   4.078   3.372   1.329
 2900SOL    HW1 8716   4.057   3.328   1.242
 2900SOL    HW2 8717   4.175   3.398   1.332
 2901SOL     OW 8718   4.126   2.613   1.598
 2901SOL    HW1 8719   4.194   2.668   1.551
 2901SOL    HW2 8720   4.166   2.525   1.625
 2902SOL     OW 8721   4.228   1.912   1.740
 2902SOL    HW1 8722   4.186   1.855   1.670
 2902SOL    HW2 8723   4.162   1.981   1.772
 2903SOL     OW 8724   4.297   2.732   1.029
 2903SOL    HW1 8725   4.341   2.821   1.020
 2903SOL    HW2 8726   4.234   2.732   1.106
 2904SOL     OW 8727   4.031   2.075   1.231
 2904SOL    HW1 8728   4.008   2.112   1.321
 2904SOL    HW2 8729   4.001   1.980   1.225
 2905SOL     OW 8730   3.761   3.172   1.282
 2905SOL    HW1 8731   3.814   3.123   1.350
 2905SOL    HW2 8732   3.783   3.270   1.287
 2906SOL     OW 8733   4.456   2.496   1.064
 2906SOL    HW1 8734   4.515   2.470   0.988
 2906SOL    HW2 8735   4.428   2.592   1.053
 2907SOL     OW 8736   4.031   1.925   0.618
 2907SOL    HW1 8737   4.020   2.019   0.651
 2907SOL    HW2 8738   4.026   1.862   0.695
 2908SOL     OW 8739   4.747   2.628   0.966
 2908SOL    HW1 8740   4.762   2.649   1.062
 2908SOL    HW2 8741   4.717   2.533   0.957
 2909SOL     OW 8742   4.704   3.435   1.700
 2909SOL    HW1 8743   4.684   3.479   1.612
 2909SOL    HW2 8744   4.743   3.344   1.684
 2910SOL     OW 8745   4.074   2.760   1.804
 2910SOL    HW1 8746   4.150   2.804   1.852
 2910SOL    HW2 8747   4.109   2.713   1.722
 2911SOL     OW 8748   4.043   2.672   0.949
 2911SOL    HW1 8749   4.136   2.708   0.954
 2911SOL    HW2 8750   4.037   2.587   1.001
 2912SOL     OW 8751   4.063   2.371   1.006
 2912SOL    HW1 8752   4.011   2.288   0.989
 2912SOL    HW2 8753   4.140   2.376   0.942
 2913SOL     OW 8754   3.732   3.188   0.200
 2913SOL    HW1 8755   3.639   3.209   0.169
 2913SOL    HW2 8756   3.742   3.089   0.213
 2914SOL     OW 8757   3.812   3.663   0.927
 2914SOL    HW1 8758   3.770   3.577   0.900
 2914SOL    HW2 8759   3.906   3.666   0.893
 2915SOL     OW 8760   4.228   3.430   0.910
 2915SOL    HW1 8761   4.294   3.504   0.919
 2915SOL    HW2 8762   4.272   3.351   0.868
 2916SOL     OW 8763   3.764   2.406   1.114
 2916SOL    HW1 8764   3.849   2.373   1.073
 2916SOL    HW2 8765   3.777   2.421   1.212
 2917SOL     OW 8766   3.913   2.382   1.722
 2917SOL    HW1 8767   3.972   2.342   1.652
 2917SOL    HW2 8768   3.855   2.453   1.681
 2918SOL     OW 8769   4.539   2.434   0.325
 2918SOL    HW1 8770   4.546   2.345   0.279
 2918SOL    HW2 8771   4.445   2.468   0.317
 2919SOL     OW 8772   3.976   3.426   1.744
 2919SOL    HW1 8773   3.946   3.483   1.820
 2919SOL    HW2 8774   3.969   3.329   1.770
 2920SOL     OW 8775   4.395   2.326   1.269
 2920SOL    HW1 8776   4.361   2.237   1.239
 2920SOL    HW2 8777   4.421   2.380   1.189
 2921SOL     OW 8778   4.197   2.362   0.191
 2921SOL    HW1 8779   4.258   2.442   0.195
 2921SOL    HW2 8780   4.102   2.393   0.198
 2922SOL     OW 8781   3.883   2.999   1.466
 2922SOL    HW1 8782   3.905   2.938   1.542
 2922SOL    HW2 8783   3.893   2.950   1.380
 2923SOL     OW 8784   3.807   3.120   1.022
 2923SOL    HW1 8785   3.802   3.119   1.122
 2923SOL    HW2 8786   3.724   3.079   0.984
 2924SOL     OW 8787   4.412   3.524   1.716
 2924SOL    HW1 8788   4.356   3.605   1.725
 2924SOL    HW2 8789   4.464   3.528   1.630
 2925SOL     OW 8790   4.627   1.948   0.133
 2925SOL    HW1 8791   4.678   1.949   0.047
 2925SOL    HW2 8792   4.683   1.906   0.204
 2926SOL     OW 8793   3.854   3.656   1.851
 2926SOL    HW1 8794   3.813   3.582   1.904
 2926SOL    HW2 8795   3.918   3.707   1.909
 2927SOL     OW 8796   4.554   3.135   1.422
 2927SOL    HW1 8797   4.549   3.168   1.517
 2927SOL    HW2 8798   4.468   3.154   1.376
 2928SOL     OW 8799   4.396   3.478   0.154
 2928SOL    HW1 8800   4.405   3.488   0.055
 2928SOL    HW2 8801   4.356   3.389   0.175
 2929SOL     OW 8802   3.987   2.188   0.720
 2929SOL    HW1 8803   3.908   2.239   0.686
 2929SOL    HW2 8804   3.978   2.173   0.818
 2930SOL     OW 8805   4.918   3.474   0.031
 2930SOL    HW1 8806   4.924   3.381   0.068
 2930SOL    HW2 8807   4.859   3.474  -0.049
 2931SOL     OW 8808   4.546   2.864   1.372
 2931SOL    HW1 8809   4.586   2.863   1.280
 2931SOL    HW2 8810   4.556   2.956   1.412
 2932SOL     OW 8811   4.096   3.150   1.490
 2932SOL    HW1 8812   4.083   3.243   1.456
 2932SOL    HW2 8813   4.012   3.098   1.477
 2933SOL     OW 8814   4.314   3.349   0.491
 2933SOL    HW1 8815   4.356   3.291   0.421
 2933SOL    HW2 8816   4.270   3.428   0.447
 2934SOL     OW 8817   3.979   3.210   0.290
 2934SOL    HW1 8818   3.883   3.211   0.263
 2934SOL    HW2 8819   3.991   3.263   0.374
 2935SOL     OW 8820   3.829   2.875   1.726
 2935SOL    HW1 8821   3.752   2.842   1.780
 2935SOL    HW2 8822   3.914   2.845   1.768
 2936SOL     OW 8823   4.396   2.065   1.489
 2936SOL    HW1 8824   4.486   2.049   1.449
 2936SOL    HW2 8825   4.404   2.070   1.588
 2937SOL     OW 8826   3.796   2.028   0.318
 2937SOL    HW1 8827   3.779   2.111   0.264
 2937SOL    HW2 8828   3.886   1.991   0.296
 2938SOL     OW 8829   4.337   2.704   1.431
 2938SOL    HW1 8830   4.393   2.785   1.414
 2938SOL    HW2 8831   4.396   2.624   1.434
 2939SOL     OW 8832   4.440   2.427   1.708
 2939SOL    HW1 8833   4.459   2.492   1.782
 2939SOL    HW2 8834   4.500   2.347   1.717
 2940SOL     OW 8835   4.114   3.603   1.560
 2940SOL    HW1 8836   4.023   3.644   1.558
 2940SOL    HW2 8837   4.107   3.509   1.592
 2941SOL     OW 8838   4.318   2.607   0.652
 2941SOL    HW1 8839   4.368   2.692   0.633
 2941SOL    HW2 8840   4.230   2.609   0.604
 2942SOL     OW 8841   4.385   3.652   0.953
 2942SOL    HW1 8842   4.339   3.740   0.940
 2942SOL    HW2 8843   4.484   3.664   0.946
 2943SOL     OW 8844   3.945   3.176   1.844
 2943SOL    HW1 8845   3.880   3.103   1.823
 2943SOL    HW2 8846   3.949   3.190   1.942
 2944SOL     OW 8847   3.803   3.102   0.653
 2944SOL    HW1 8848   3.802   3.055   0.741
 2944SOL    HW2 8849   3.885   3.074   0.602
 2945SOL     OW 8850   4.396   3.253   1.624
 2945SOL    HW1 8851   4.318   3.203   1.662
 2945SOL    HW2 8852   4.393   3.348   1.655
 2946SOL     OW 8853   4.152   2.286   0.520
 2946SOL    HW1 8854   4.182   2.214   0.458
 2946SOL    HW2 8855   4.113   2.246   0.603
 2947SOL     OW 8856   4.041   2.409   1.280
 2947SOL    HW1 8857   4.079   2.350   1.352
 2947SOL    HW2 8858   4.081   2.383   1.192
 2948SOL     OW 8859   4.536   3.448   0.687
 2948SOL    HW1 8860   4.568   3.458   0.593
 2948SOL    HW2 8861   4.457   3.386   0.689
 2949SOL     OW 8862   4.342   3.429   1.284
 2949SOL    HW1 8863   4.337   3.511   1.341
 2949SOL    HW2 8864   4.431   3.426   1.239
 2950SOL     OW 8865   3.763   2.939   0.300
 2950SOL    HW1 8866   3.862   2.928   0.291
 2950SOL    HW2 8867   3.723   2.853   0.332
 2951SOL     OW 8868   3.954   2.490   1.975
 2951SOL    HW1 8869   3.861   2.488   2.012
 2951SOL    HW2 8870   3.955   2.451   1.883
 2952SOL     OW 8871   3.949   2.137   2.858
 2952SOL    HW1 8872   3.984   2.120   2.950
 2952SOL    HW2 8873   3.861   2.092   2.846
 2953SOL     OW 8874   3.743   2.230   2.509
 2953SOL    HW1 8875   3.661   2.273   2.548
 2953SOL    HW2 8876   3.715   2.157   2.446
 2954SOL     OW 8877   4.293   3.137   3.027
 2954SOL    HW1 8878   4.200   3.130   2.990
 2954SOL    HW2 8879   4.304   3.226   3.071
 2955SOL     OW 8880   4.574   2.660   3.685
 2955SOL    HW1 8881   4.570   2.736   3.750
 2955SOL    HW2 8882   4.596   2.696   3.594
 2956SOL     OW 8883   4.409   2.874   2.527
 2956SOL    HW1 8884   4.478   2.858   2.597
 2956SOL    HW2 8885   4.336   2.931   2.565
 2957SOL     OW 8886   4.410   3.023   3.665
 2957SOL    HW1 8887   4.470   3.102   3.679
 2957SOL    HW2 8888   4.324   3.054   3.624
 2958SOL     OW 8889   4.059   3.297   2.923
 2958SOL    HW1 8890   3.981   3.266   2.870
 2958SOL    HW2 8891   4.117   3.355   2.866
 2959SOL     OW 8892   4.162   2.254   3.361
 2959SOL    HW1 8893   4.244   2.198   3.370
 2959SOL    HW2 8894   4.081   2.196   3.365
 2960SOL     OW 8895   3.955   3.575   2.345
 2960SOL    HW1 8896   3.989   3.652   2.399
 2960SOL    HW2 8897   3.999   3.575   2.255
 2961SOL     OW 8898   3.954   3.296   2.400
 2961SOL    HW1 8899   3.928   3.392   2.400
 2961SOL    HW2 8900   3.883   3.242   2.445
 2962SOL     OW 8901   3.964   2.953   2.748
 2962SOL    HW1 8902   3.978   2.869   2.800
 2962SOL    HW2 8903   3.909   3.017   2.803
 2963SOL     OW 8904   4.344   3.648   3.301
 2963SOL    HW1 8905   4.252   3.631   3.336
 2963SOL    HW2 8906   4.372   3.740   3.327
 2964SOL     OW 8907   4.330   2.826   1.985
 2964SOL    HW1 8908   4.337   2.910   1.931
 2964SOL    HW2 8909   4.376   2.839   2.073
 2965SOL     OW 8910   3.846   2.505   2.425
 2965SOL    HW1 8911   3.801   2.417   2.442
 2965SOL    HW2 8912   3.845   2.559   2.509
 2966SOL     OW 8913   3.751   3.458   1.979
 2966SOL    HW1 8914   3.732   3.362   2.000
 2966SOL    HW2 8915   3.718   3.516   2.054
 2967SOL     OW 8916   3.837   2.599   3.459
 2967SOL    HW1 8917   3.925   2.586   3.504
 2967SOL    HW2 8918   3.824   2.696   3.437
 2968SOL     OW 8919   4.337   3.227   2.588
 2968SOL    HW1 8920   4.288   3.140   2.597
 2968SOL    HW2 8921   4.314   3.270   2.501
 2969SOL     OW 8922   4.533   1.866   2.364
 2969SOL    HW1 8923   4.573   1.957   2.355
 2969SOL    HW2 8924   4.433   1.874   2.370
 2970SOL     OW 8925   3.921   2.838   3.126
 2970SOL    HW1 8926   4.010   2.793   3.112
 2970SOL    HW2 8927   3.848   2.773   3.107
 2971SOL     OW 8928   4.041   2.113   3.663
 2971SOL    HW1 8929   4.112   2.184   3.669
 2971SOL    HW2 8930   3.953   2.152   3.691
 2972SOL     OW 8931   4.322   2.591   2.132
 2972SOL    HW1 8932   4.346   2.660   2.064
 2972SOL    HW2 8933   4.244   2.624   2.186
 2973SOL     OW 8934   4.531   2.467   3.327
 2973SOL    HW1 8935   4.484   2.464   3.416
 2973SOL    HW2 8936   4.480   2.412   3.261
 2974SOL     OW 8937   3.800   2.673   2.651
 2974SOL    HW1 8938   3.899   2.661   2.660
 2974SOL    HW2 8939   3.776   2.768   2.672
 2975SOL     OW 8940   3.854   3.683   3.433
 2975SOL    HW1 8941   3.844   3.668   3.532
 2975SOL    HW2 8942   3.768   3.719   3.397
 2976SOL     OW 8943   4.274   2.058   2.747
 2976SOL    HW1 8944   4.269   2.053   2.847
 2976SOL    HW2 8945   4.276   2.154   2.718
 2977SOL     OW 8946   4.075   3.663   2.715
 2977SOL    HW1 8947   4.125   3.577   2.721
 2977SOL    HW2 8948   4.140   3.740   2.712
 2978SOL     OW 8949   4.045   2.805   2.104
 2978SOL    HW1 8950   4.127   2.844   2.062
 2978SOL    HW2 8951   4.018   2.723   2.055
 2979SOL     OW 8952   4.185   3.128   3.589
 2979SOL    HW1 8953   4.135   3.129   3.503
 2979SOL    HW2 8954   4.122   3.110   3.665
 2980SOL     OW 8955   4.835   3.638   2.099
 2980SOL    HW1 8956   4.775   3.576   2.149
 2980SOL    HW2 8957   4.866   3.594   2.014
 2981SOL     OW 8958   3.926   2.147   3.360
 2981SOL    HW1 8959   3.846   2.207   3.347
 2981SOL    HW2 8960   3.916   2.098   3.446
 2982SOL     OW 8961   4.188   3.605   2.185
 2982SOL    HW1 8962   4.221   3.644   2.271
 2982SOL    HW2 8963   4.264   3.598   2.120
 2983SOL     OW 8964   3.973   3.647   3.103
 2983SOL    HW1 8965   4.030   3.582   3.153
 2983SOL    HW2 8966   3.957   3.614   3.010
 2984SOL     OW 8967   4.106   2.562   2.342
 2984SOL    HW1 8968   4.151   2.472   2.339
 2984SOL    HW2 8969   4.012   2.551   2.375
 2985SOL     OW 8970   4.338   1.984   1.979
 2985SOL    HW1 8971   4.436   1.962   1.986
 2985SOL    HW2 8972   4.307   1.967   1.886
 2986SOL     OW 8973   4.505   2.126   3.611
 2986SOL    HW1 8974   4.572   2.065   3.654
 2986SOL    HW2 8975   4.432   2.145   3.676
 2987SOL     OW 8976   4.527   3.264   2.786
 2987SOL    HW1 8977   4.617   3.278   2.744
 2987SOL    HW2 8978   4.456   3.266   2.715
 2988SOL     OW 8979   4.646   2.365   2.761
 2988SOL    HW1 8980   4.621   2.356   2.665
 2988SOL    HW2 8981   4.694   2.283   2.792
 2989SOL     OW 8982   4.263   1.926   2.374
 2989SOL    HW1 8983   4.182   1.927   2.432
 2989SOL    HW2 8984   4.266   2.009   2.319
 2990SOL     OW 8985   4.021   1.897   2.033
 2990SOL    HW1 8986   4.070   1.981   2.012
 2990SOL    HW2 8987   4.083   1.832   2.078
 2991SOL     OW 8988   4.183   3.014   2.603
 2991SOL    HW1 8989   4.112   2.987   2.668
 2991SOL    HW2 8990   4.157   2.986   2.510
 2992SOL     OW 8991   3.802   2.418   3.248
 2992SOL    HW1 8992   3.894   2.417   3.207
 2992SOL    HW2 8993   3.796   2.492   3.315
 2993SOL     OW 8994   4.285   2.084   3.009
 2993SOL    HW1 8995   4.323   2.000   3.046
 2993SOL    HW2 8996   4.197   2.103   3.053
 2994SOL     OW 8997   4.212   3.247   2.036
 2994SOL    HW1 8998   4.125   3.232   2.083
 2994SOL    HW2 8999   4.195   3.273   1.941
 2995SOL     OW 9000   4.251   2.118   2.190
 2995SOL    HW1 9001   4.278   2.059   2.115
 2995SOL    HW2 9002   4.251   2.213   2.159
 2996SOL     OW 9003   4.639   1.951   3.264
 2996SOL    HW1 9004   4.664   1.931   3.169
 2996SOL    HW2 9005   4.711   2.007   3.306
 2997SOL     OW 9006   4.134   2.675   3.113
 2997SOL    HW1 9007   4.220   2.687   3.163
 2997SOL    HW2 9008   4.092   2.588   3.140
 2998SOL     OW 9009   3.788   3.426   3.193
 2998SOL    HW1 9010   3.742   3.508   3.159
 2998SOL    HW2 9011   3.886   3.445   3.202
 2999SOL     OW 9012   4.091   2.962   2.363
 2999SOL    HW1 9013   4.084   3.045   2.307
 2999SOL    HW2 9014   4.095   2.882   2.303
 3000SOL     OW 9015   4.290   2.399   2.727
 3000SOL    HW1 9016   4.302   2.465   2.653
 3000SOL    HW2 9017   4.336   2.433   2.810
 3001SOL     OW 9018   4.078   3.372   3.191
 3001SOL    HW1 9019   4.057   3.328   3.104
 3001SOL    HW2 9020   4.175   3.398   3.194
 3002SOL     OW 9021   4.126   2.613   3.460
 3002SOL    HW1 9022   4.194   2.668   3.413
 3002SOL    HW2 9023   4.166   2.525   3.487
 3003SOL     OW 9024   4.228   1.912   3.602
 3003SOL    HW1 9025   4.186   1.855   3.532
 3003SOL    HW2 9026   4.162   1.981   3.634
 3004SOL     OW 9027   4.297   2.732   2.891
 3004SOL    HW1 9028   4.341   2.821   2.882
 3004SOL    HW2 9029   4.234   2.732   2.968
 3005SOL     OW 9030   4.031   2.075   3.093
 3005SOL    HW1 9031   4.008   2.112   3.183
 3005SOL    HW2 9032   4.001   1.980   3.087
 3006SOL     OW 9033   3.761   3.172   3.144
 3006SOL    HW1 9034   3.814   3.123   3.212
 3006SOL    HW2 9035   3.783   3.270   3.149
 3007SOL     OW 9036   4.456   2.496   2.926
 3007SOL    HW1 9037   4.515   2.470   2.850
 3007SOL    HW2 9038   4.428   2.592   2.915
 3008SOL     OW 9039   4.031   1.925   2.480
 3008SOL    HW1 9040   4.020   2.019   2.513
 3008SOL    HW2 9041   4.026   1.862   2.557
 3009SOL     OW 9042   4.747   2.628   2.828
 3009SOL    HW1 9043   4.762   2.649   2.924
 3009SOL    HW2 9044   4.717   2.533   2.819
 3010SOL     OW 9045   4.704   3.435   3.562
 3010SOL    HW1 9046   4.684   3.479   3.474
 3010SOL    HW2 9047   4.743   3.344   3.546
 3011SOL     OW 9048   4.074   2.760   3.666
 3011SOL    HW1 9049   4.150   2.804   3.714
 3011SOL    HW2 9050   4.109   2.713   3.584
 3012SOL     OW 9051   4.043   2.672   2.811
 3012SOL    HW1 9052   4.136   2.708   2.816
 3012SOL    HW2 9053   4.037   2.587   2.863
 3013SOL     OW 9054   4.063   2.371   2.868
 3013SOL    HW1 9055   4.011   2.288   2.851
 3013SOL    HW2 9056   4.140   2.376   2.804
 3014SOL     OW 9057   3.732   3.188   2.062
 3014SOL    HW1 9058   3.639   3.209   2.031
 3014SOL    HW2 9059   3.742   3.089   2.075
 3015SOL     OW 9060   3.812   3.663   2.789
 3015SOL    HW1 9061   3.770   3.577   2.762
 3015SOL    HW2 9062   3.906   3.666   2.755
 3016SOL     OW 9063   4.228   3.430   2.772
 3016SOL    HW1 9064   4.294   3.504   2.781
 3016SOL    HW2 9065   4.272   3.351   2.730
 3017SOL     OW 9066   3.764   2.406   2.976
 3017SOL    HW1 9067   3.849   2.373   2.935
 3017SOL    HW2 9068   3.777   2.421   3.074
 3018SOL     OW 9069   3.913   2.382   3.584
 3018SOL    HW1 9070   3.972   2.342   3.514
 3018SOL    HW2 9071   3.855   2.453   3.543
 3019SOL     OW 9072   4.539   2.434   2.187
 3019SOL    HW1 9073   4.546   2.345   2.141
 3019SOL    HW2 9074   4.445   2.468   2.179
 3020SOL     OW 9075   3.976   3.426   3.606
 3020SOL    HW1 9076   3.946   3.483   3.682
 3020SOL    HW2 9077   3.969   3.329   3.632
 3021SOL     OW 9078   4.395   2.326   3.131
 3021SOL    HW1 9079   4.361   2.237   3.101
 3021SOL    HW2 9080   4.421   2.380   3.051
 3022SOL     OW 9081   4.197   2.362   2.053
 3022SOL    HW1 9082   4.258   2.442   2.057
 3022SOL    HW2 9083   4.102   2.393   2.060
 3023SOL     OW 9084   3.883   2.999   3.328
 3023SOL    HW1 9085   3.905   2.938   3.404
 3023SOL    HW2 9086   3.893   2.950   3.242
 3024SOL     OW 9087   3.807   3.120   2.884
 3024SOL    HW1 9088   3.802   3.119   2.984
 3024SOL    HW2 9089   3.724   3.079   2.846
 3025SOL     OW 9090   4.412   3.524   3.578
 3025SOL    HW1 9091   4.356   3.605   3.587
 3025SOL    HW2 9092   4.464   3.528   3.492
 3026SOL     OW 9093   4.627   1.948   1.995
 3026SOL    HW1 9094   4.678   1.949   1.909
 3026SOL    HW2 9095   4.683   1.906   2.066
 3027SOL     OW 9096   3.854   3.656   3.713
 3027SOL    HW1 9097   3.813   3.582   3.766
 3027SOL    HW2 9098   3.918   3.707   3.771
 3028SOL     OW 9099   4.554   3.135   3.284
 3028SOL    HW1 9100   4.549   3.168   3.379
 3028SOL    HW2 9101   4.468   3.154   3.238
 3029SOL     OW 9102   4.396   3.478   2.016
 3029SOL    HW1 9103   4.405   3.488   1.917
 3029SOL    HW2 9104   4.356   3.389   2.037
 3030SOL     OW 9105   3.987   2.188   2.582
 3030SOL    HW1 9106   3.908   2.239   2.548
 3030SOL    HW2 9107   3.978   2.173   2.680
 3031SOL     OW 9108   4.546   2.864   3.234
 3031SOL    HW1 9109   4.586   2.863   3.142
 3031SOL    HW2 9110   4.556   2.956   3.274
 3032SOL     OW 9111   4.096   3.150   3.352
 3032SOL    HW1 9112   4.083   3.243   3.318
 3032SOL    HW2 9113   4.012   3.098   3.339
 3033SOL     OW 9114   4.314   3.349   2.353
 3033SOL    HW1 9115   4.356   3.291   2.283
 3033SOL    HW2 9116   4.270   3.428   2.309
 3034SOL     OW 9117   3.979   3.210   2.152
 3034SOL    HW1 9118   3.883   3.211   2.125
 3034SOL    HW2 9119   3.991   3.263   2.236
 3035SOL     OW 9120   3.829   2.875   3.588
 3035SOL    HW1 9121   3.752   2.842   3.642
 3035SOL    HW2 9122   3.914   2.845   3.630
 3036SOL     OW 9123   4.396   2.065   3.351
 3036SOL    HW1 9124   4.486   2.049   3.311
 3036SOL    HW2 9125   4.404   2.070   3.450
 3037SOL     OW 9126   3.799   2.207   1.895
 3037SOL    HW1 9127   3.707   2.179   1.866
 3037SOL    HW2 9128   3.830   2.284   1.839
 3038SOL     OW 9129   3.796   2.028   2.180
 3038SOL    HW1 9130   3.779   2.111   2.126
 3038SOL    HW2 9131   3.886   1.991   2.158
 3039SOL     OW 9132   4.337   2.704   3.293
 3039SOL    HW1 9133   4.393   2.785   3.276
 3039SOL    HW2 9134   4.396   2.624   3.296
 3040SOL     OW 9135   4.440   2.427   3.570
 3040SOL    HW1 9136   4.459   2.492   3.644
 3040SOL    HW2 9137   4.500   2.347   3.579
 3041SOL     OW 9138   4.114   3.603   3.422
 3041SOL    HW1 9139   4.023   3.644   3.420
 3041SOL    HW2 9140   4.107   3.509   3.454
 3042SOL     OW 9141   4.318   2.607   2.514
 3042SOL    HW1 9142   4.368   2.692   2.495
 3042SOL    HW2 9143   4.230   2.609   2.466
 3043SOL     OW 9144   4.385   3.652   2.815
 3043SOL    HW1 9145   4.339   3.740   2.802
 3043SOL    HW2 9146   4.484   3.664   2.808
 3044SOL     OW 9147   3.945   3.176   3.706
 3044SOL    HW1 9148   3.880   3.103   3.685
 3044SOL    HW2 9149   3.949   3.190   3.804
 3045SOL     OW 9150   3.803   3.102   2.515
 3045SOL    HW1 9151   3.802   3.055   2.603
 3045SOL    HW2 9152   3.885   3.074   2.464
 3046SOL     OW 9153   4.396   3.253   3.486
 3046SOL    HW1 9154   4.318   3.203   3.524
 3046SOL    HW2 9155   4.393   3.348   3.517
 3047SOL     OW 9156   4.152   2.286   2.382
 3047SOL    HW1 9157   4.182   2.214   2.320
 3047SOL    HW2 9158   4.113   2.246   2.465
 3048SOL     OW 9159   4.041   2.409   3.142
 3048SOL    HW1 9160   4.079   2.350   3.214
 3048SOL    HW2 9161   4.081   2.383   3.054
 3049SOL     OW 9162   4.536   3.448   2.549
 3049SOL    HW1 9163   4.568   3.458   2.455
 3049SOL    HW2 9164   4.457   3.386   2.551
 3050SOL     OW 9165   4.342   3.429   3.146
 3050SOL    HW1 9166   4.337   3.511   3.203
 3050SOL    HW2 9167   4.431   3.426   3.101
 3051SOL     OW 9168   3.763   2.939   2.162
 3051SOL    HW1 9169   3.862   2.928   2.153
 3051SOL    HW2 9170   3.723   2.853   2.194
 3052SOL     OW 9171   3.954   2.490   3.837
 3052SOL    HW1 9172   3.861   2.488   3.874
 3052SOL    HW2 9173   3.955   2.451   3.745
 3053SOL     OW 9174   3.949   2.137   4.720
 3053SOL    HW1 9175   3.984   2.120   4.812
 3053SOL    HW2 9176   3.861   2.092   4.708
 3054SOL     OW 9177   3.743   2.230   4.371
 3054SOL    HW1 9178   3.661   2.273   4.410
 3054SOL    HW2 9179   3.715   2.157   4.308
 3055SOL     OW 9180   4.492   3.006   4.747
 3055SOL    HW1 9181   4.414   3.023   4.807
 3055SOL    HW2 9182   4.526   3.093   4.711
 3056SOL     OW 9183   4.409   2.874   4.389
 3056SOL    HW1 9184   4.478   2.858   4.459
 3056SOL    HW2 9185   4.336   2.931   4.427
 3057SOL     OW 9186   3.955   3.575   4.207
 3057SOL    HW1 9187   3.989   3.652   4.261
 3057SOL    HW2 9188   3.999   3.575   4.117
 3058SOL     OW 9189   3.954   3.296   4.262
 3058SOL    HW1 9190   3.928   3.392   4.262
 3058SOL    HW2 9191   3.883   3.242   4.307
 3059SOL     OW 9192   3.964   2.953   4.610
 3059SOL    HW1 9193   3.978   2.869   4.662
 3059SOL    HW2 9194   3.909   3.017   4.665
 3060SOL     OW 9195   4.330   2.826   3.847
 3060SOL    HW1 9196   4.337   2.910   3.793
 3060SOL    HW2 9197   4.376   2.839   3.935
 3061SOL     OW 9198   3.846   2.505   4.287
 3061SOL    HW1 9199   3.801   2.417   4.304
 3061SOL    HW2 9200   3.845   2.559   4.371
 3062SOL     OW 9201   3.751   3.458   3.841
 3062SOL    HW1 9202   3.732   3.362   3.862
 3062SOL    HW2 9203   3.718   3.516   3.916
 3063SOL     OW 9204   4.337   3.227   4.450
 3063SOL    HW1 9205   4.288   3.140   4.459
 3063SOL    HW2 9206   4.314   3.270   4.363
 3064SOL     OW 9207   4.533   1.866   4.226
 3064SOL    HW1 9208   4.573   1.957   4.217
 3064SOL    HW2 9209   4.433   1.874   4.232
 3065SOL     OW 9210   4.322   2.591   3.994
 3065SOL    HW1 9211   4.346   2.660   3.926
 3065SOL    HW2 9212   4.244   2.624   4.048
 3066SOL     OW 9213   3.800   2.673   4.513
 3066SOL    HW1 9214   3.899   2.661   4.522
 3066SOL    HW2 9215   3.776   2.768   4.534
 3067SOL     OW 9216   4.274   2.058   4.609
 3067SOL    HW1 9217   4.269   2.053   4.709
 3067SOL    HW2 9218   4.276   2.154   4.580
 3068SOL     OW 9219   4.075   3.663   4.577
 3068SOL    HW1 9220   4.125   3.577   4.583
 3068SOL    HW2 9221   4.140   3.740   4.574
 3069SOL     OW 9222   4.045   2.805   3.966
 3069SOL    HW1 9223   4.127   2.844   3.924
 3069SOL    HW2 9224   4.018   2.723   3.917
 3070SOL     OW 9225   4.835   3.638   3.961
 3070SOL    HW1 9226   4.775   3.576   4.011
 3070SOL    HW2 9227   4.866   3.594   3.876
 3071SOL     OW 9228   4.188   3.605   4.047
 3071SOL    HW1 9229   4.221   3.644   4.133
 3071SOL    HW2 9230   4.264   3.598   3.982
 3072SOL     OW 9231   4.106   2.562   4.204
 3072SOL    HW1 9232   4.151   2.472   4.201
 3072SOL    HW2 9233   4.012   2.551   4.237
 3073SOL     OW 9234   4.338   1.984   3.841
 3073SOL    HW1 9235   4.436   1.962   3.848
 3073SOL    HW2 9236   4.307   1.967   3.748
 3074SOL     OW 9237   4.527   3.264   4.648
 3074SOL    HW1 9238   4.617   3.278   4.606
 3074SOL    HW2 9239   4.456   3.266   4.577
 3075SOL     OW 9240   4.263   1.926   4.236
 3075SOL    HW1 9241   4.182   1.927   4.294
 3075SOL    HW2 9242   4.266   2.009   4.181
 3076SOL     OW 9243   4.021   1.897   3.895
 3076SOL    HW1 9244   4.070   1.981   3.874
 3076SOL    HW2 9245   4.083   1.832   3.940
 3077SOL     OW 9246   4.183   3.014   4.465
 3077SOL    HW1 9247   4.112   2.987   4.530
 3077SOL    HW2 9248   4.157   2.986   4.372
 3078SOL     OW 9249   4.212   3.247   3.898
 3078SOL    HW1 9250   4.125   3.232   3.945
 3078SOL    HW2 9251   4.195   3.273   3.803
 3079SOL     OW 9252   4.251   2.118   4.052
 3079SOL    HW1 9253   4.278   2.059   3.977
 3079SOL    HW2 9254   4.251   2.213   4.021
 3080SOL     OW 9255   4.091   2.962   4.225
 3080SOL    HW1 9256   4.084   3.045   4.169
 3080SOL    HW2 9257   4.095   2.882   4.165
 3081SOL     OW 9258   4.290   2.399   4.589
 3081SOL    HW1 9259   4.302   2.465   4.515
 3081SOL    HW2 9260   4.336   2.433   4.672
 3082SOL     OW 9261   4.031   1.925   4.342
 3082SOL    HW1 9262   4.020   2.019   4.375
 3082SOL    HW2 9263   4.026   1.862   4.419
 3083SOL     OW 9264   4.747   2.628   4.690
 3083SOL    HW1 9265   4.762   2.649   4.786
 3083SOL    HW2 9266   4.717   2.533   4.681
 3084SOL     OW 9267   3.732   3.188   3.924
 3084SOL    HW1 9268   3.639   3.209   3.893
 3084SOL    HW2 9269   3.742   3.089   3.937
 3085SOL     OW 9270   3.812   3.663   4.651
 3085SOL    HW1 9271   3.770   3.577   4.624
 3085SOL    HW2 9272   3.906   3.666   4.617
 3086SOL     OW 9273   4.539   2.434   4.049
 3086SOL    HW1 9274   4.546   2.345   4.003
 3086SOL    HW2 9275   4.445   2.468   4.041
 3087SOL     OW 9276   4.197   2.362   3.915
 3087SOL    HW1 9277   4.258   2.442   3.919
 3087SOL    HW2 9278   4.102   2.393   3.922
 3088SOL     OW 9279   4.627   1.948   3.857
 3088SOL    HW1 9280   4.678   1.949   3.771
 3088SOL    HW2 9281   4.683   1.906   3.928
 3089SOL     OW 9282   4.396   3.478   3.878
 3089SOL    HW1 9283   4.405   3.488   3.779
 3089SOL    HW2 9284   4.356   3.389   3.899
 3090SOL     OW 9285   3.987   2.188   4.444
 3090SOL    HW1 9286   3.908   2.239   4.410
 3090SOL    HW2 9287   3.978   2.173   4.542
 3091SOL     OW 9288   4.314   3.349   4.215
 3091SOL    HW1 9289   4.356   3.291   4.145
 3091SOL    HW2 9290   4.270   3.428   4.171
 3092SOL     OW 9291   3.979   3.210   4.014
 3092SOL    HW1 9292   3.883   3.211   3.987
 3092SOL    HW2 9293   3.991   3.263   4.098
 3093SOL     OW 9294   3.799   2.207   3.757
 3093SOL    HW1 9295   3.707   2.179   3.728
 3093SOL    HW2 9296   3.830   2.284   3.701
 3094SOL     OW 9297   3.796   2.028   4.042
 3094SOL    HW1 9298   3.779   2.111   3.988
 3094SOL    HW2 9299   3.886   1.991   4.020
 3095SOL     OW 9300   4.318   2.607   4.376
 3095SOL    HW1 9301   4.368   2.692   4.357
 3095SOL    HW2 9302   4.230   2.609   4.328
 3096SOL     OW 9303   4.385   3.652   4.677
 3096SOL    HW1 9304   4.339   3.740   4.664
 3096SOL    HW2 9305   4.484   3.664   4.670
 3097SOL     OW 9306   3.803   3.102   4.377
 3097SOL    HW1 9307   3.802   3.055   4.465
 3097SOL    HW2 9308   3.885   3.074   4.326
 3098SOL     OW 9309   4.152   2.286   4.244
 3098SOL    HW1 9310   4.182   2.214   4.182
 3098SOL    HW2 9311   4.113   2.246   4.327
 3099SOL     OW 9312   4.536   3.448   4.411
 3099SOL    HW1 9313   4.568   3.458   4.317
 3099SOL    HW2 9314   4.457   3.386   4.413
 3100SOL     OW 9315   3.763   2.939   4.024
 3100SOL    HW1 9316   3.862   2.928   4.015
 3100SOL    HW2 9317   3.723   2.853   4.056
 3101SOL     OW 9318   3.954   4.352   0.113
 3101SOL    HW1 9319   3.861   4.350   0.150
 3101SOL    HW2 9320   3.955   4.313   0.021
 3102SOL     OW 9321   3.949   3.999   0.996
 3102SOL    HW1 9322   3.984   3.982   1.088
 3102SOL    HW2 9323   3.861   3.954   0.984
 3103SOL     OW 9324   3.743   4.092   0.647
 3103SOL    HW1 9325   3.661   4.135   0.686
 3103SOL    HW2 9326   3.715   4.019   0.584
 3104SOL     OW 9327   4.574   4.522   1.823
 3104SOL    HW1 9328   4.570   4.598   1.888
 3104SOL    HW2 9329   4.596   4.558   1.732
 3105SOL     OW 9330   4.409   4.736   0.665
 3105SOL    HW1 9331   4.478   4.720   0.735
 3105SOL    HW2 9332   4.336   4.793   0.703
 3106SOL     OW 9333   4.162   4.116   1.499
 3106SOL    HW1 9334   4.244   4.060   1.508
 3106SOL    HW2 9335   4.081   4.058   1.503
 3107SOL     OW 9336   3.846   4.367   0.563
 3107SOL    HW1 9337   3.801   4.279   0.580
 3107SOL    HW2 9338   3.845   4.421   0.647
 3108SOL     OW 9339   3.837   4.461   1.597
 3108SOL    HW1 9340   3.925   4.448   1.642
 3108SOL    HW2 9341   3.824   4.558   1.575
 3109SOL     OW 9342   4.533   3.728   0.502
 3109SOL    HW1 9343   4.573   3.819   0.493
 3109SOL    HW2 9344   4.433   3.736   0.508
 3110SOL     OW 9345   4.041   3.975   1.801
 3110SOL    HW1 9346   4.112   4.046   1.807
 3110SOL    HW2 9347   3.953   4.014   1.829
 3111SOL     OW 9348   4.322   4.453   0.270
 3111SOL    HW1 9349   4.346   4.522   0.202
 3111SOL    HW2 9350   4.244   4.486   0.324
 3112SOL     OW 9351   4.531   4.329   1.465
 3112SOL    HW1 9352   4.484   4.326   1.554
 3112SOL    HW2 9353   4.480   4.274   1.399
 3113SOL     OW 9354   3.800   4.535   0.789
 3113SOL    HW1 9355   3.899   4.523   0.798
 3113SOL    HW2 9356   3.776   4.630   0.810
 3114SOL     OW 9357   4.274   3.920   0.885
 3114SOL    HW1 9358   4.269   3.915   0.985
 3114SOL    HW2 9359   4.276   4.016   0.856
 3115SOL     OW 9360   3.926   4.009   1.498
 3115SOL    HW1 9361   3.846   4.069   1.485
 3115SOL    HW2 9362   3.916   3.960   1.584
 3116SOL     OW 9363   4.106   4.424   0.480
 3116SOL    HW1 9364   4.151   4.334   0.477
 3116SOL    HW2 9365   4.012   4.413   0.513
 3117SOL     OW 9366   4.505   3.988   1.749
 3117SOL    HW1 9367   4.572   3.927   1.792
 3117SOL    HW2 9368   4.432   4.007   1.814
 3118SOL     OW 9369   4.646   4.227   0.899
 3118SOL    HW1 9370   4.621   4.218   0.803
 3118SOL    HW2 9371   4.694   4.145   0.930
 3119SOL     OW 9372   4.263   3.788   0.512
 3119SOL    HW1 9373   4.182   3.789   0.570
 3119SOL    HW2 9374   4.266   3.871   0.457
 3120SOL     OW 9375   4.021   3.759   0.171
 3120SOL    HW1 9376   4.070   3.843   0.150
 3120SOL    HW2 9377   4.083   3.694   0.216
 3121SOL     OW 9378   4.183   4.876   0.741
 3121SOL    HW1 9379   4.112   4.849   0.806
 3121SOL    HW2 9380   4.157   4.848   0.648
 3122SOL     OW 9381   3.802   4.280   1.386
 3122SOL    HW1 9382   3.894   4.279   1.345
 3122SOL    HW2 9383   3.796   4.354   1.453
 3123SOL     OW 9384   4.285   3.946   1.147
 3123SOL    HW1 9385   4.323   3.862   1.184
 3123SOL    HW2 9386   4.197   3.965   1.191
 3124SOL     OW 9387   4.251   3.980   0.328
 3124SOL    HW1 9388   4.278   3.921   0.253
 3124SOL    HW2 9389   4.251   4.075   0.297
 3125SOL     OW 9390   4.639   3.813   1.402
 3125SOL    HW1 9391   4.664   3.793   1.307
 3125SOL    HW2 9392   4.711   3.869   1.444
 3126SOL     OW 9393   4.134   4.537   1.251
 3126SOL    HW1 9394   4.220   4.549   1.301
 3126SOL    HW2 9395   4.092   4.450   1.278
 3127SOL     OW 9396   4.290   4.261   0.865
 3127SOL    HW1 9397   4.302   4.327   0.791
 3127SOL    HW2 9398   4.336   4.295   0.948
 3128SOL     OW 9399   4.126   4.475   1.598
 3128SOL    HW1 9400   4.194   4.530   1.551
 3128SOL    HW2 9401   4.166   4.387   1.625
 3129SOL     OW 9402   4.228   3.774   1.740
 3129SOL    HW1 9403   4.186   3.717   1.670
 3129SOL    HW2 9404   4.162   3.843   1.772
 3130SOL     OW 9405   4.297   4.594   1.029
 3130SOL    HW1 9406   4.341   4.683   1.020
 3130SOL    HW2 9407   4.234   4.594   1.106
 3131SOL     OW 9408   4.031   3.937   1.231
 3131SOL    HW1 9409   4.008   3.974   1.321
 3131SOL    HW2 9410   4.001   3.842   1.225
 3132SOL     OW 9411   4.456   4.358   1.064
 3132SOL    HW1 9412   4.515   4.332   0.988
 3132SOL    HW2 9413   4.428   4.454   1.053
 3133SOL     OW 9414   4.031   3.787   0.618
 3133SOL    HW1 9415   4.020   3.881   0.651
 3133SOL    HW2 9416   4.026   3.724   0.695
 3134SOL     OW 9417   4.747   4.490   0.966
 3134SOL    HW1 9418   4.762   4.511   1.062
 3134SOL    HW2 9419   4.717   4.395   0.957
 3135SOL     OW 9420   4.043   4.534   0.949
 3135SOL    HW1 9421   4.136   4.570   0.954
 3135SOL    HW2 9422   4.037   4.449   1.001
 3136SOL     OW 9423   4.063   4.233   1.006
 3136SOL    HW1 9424   4.011   4.150   0.989
 3136SOL    HW2 9425   4.140   4.238   0.942
 3137SOL     OW 9426   4.726   4.520   1.238
 3137SOL    HW1 9427   4.767   4.488   1.324
 3137SOL    HW2 9428   4.630   4.493   1.235
 3138SOL     OW 9429   3.764   4.268   1.114
 3138SOL    HW1 9430   3.849   4.235   1.073
 3138SOL    HW2 9431   3.777   4.283   1.212
 3139SOL     OW 9432   3.913   4.244   1.722
 3139SOL    HW1 9433   3.972   4.204   1.652
 3139SOL    HW2 9434   3.855   4.315   1.681
 3140SOL     OW 9435   4.539   4.296   0.325
 3140SOL    HW1 9436   4.546   4.207   0.279
 3140SOL    HW2 9437   4.445   4.330   0.317
 3141SOL     OW 9438   4.395   4.188   1.269
 3141SOL    HW1 9439   4.361   4.099   1.239
 3141SOL    HW2 9440   4.421   4.242   1.189
 3142SOL     OW 9441   4.197   4.224   0.191
 3142SOL    HW1 9442   4.258   4.304   0.195
 3142SOL    HW2 9443   4.102   4.255   0.198
 3143SOL     OW 9444   4.627   3.810   0.133
 3143SOL    HW1 9445   4.678   3.811   0.047
 3143SOL    HW2 9446   4.683   3.768   0.204
 3144SOL     OW 9447   3.987   4.050   0.720
 3144SOL    HW1 9448   3.908   4.101   0.686
 3144SOL    HW2 9449   3.978   4.035   0.818
 3145SOL     OW 9450   3.829   4.737   1.726
 3145SOL    HW1 9451   3.752   4.704   1.780
 3145SOL    HW2 9452   3.914   4.707   1.768
 3146SOL     OW 9453   4.396   3.927   1.489
 3146SOL    HW1 9454   4.486   3.911   1.449
 3146SOL    HW2 9455   4.404   3.932   1.588
 3147SOL     OW 9456   3.796   3.890   0.318
 3147SOL    HW1 9457   3.779   3.973   0.264
 3147SOL    HW2 9458   3.886   3.853   0.296
 3148SOL     OW 9459   4.337   4.566   1.431
 3148SOL    HW1 9460   4.393   4.647   1.414
 3148SOL    HW2 9461   4.396   4.486   1.434
 3149SOL     OW 9462   4.440   4.289   1.708
 3149SOL    HW1 9463   4.459   4.354   1.782
 3149SOL    HW2 9464   4.500   4.209   1.717
 3150SOL     OW 9465   4.318   4.469   0.652
 3150SOL    HW1 9466   4.368   4.554   0.633
 3150SOL    HW2 9467   4.230   4.471   0.604
 3151SOL     OW 9468   4.152   4.148   0.520
 3151SOL    HW1 9469   4.182   4.076   0.458
 3151SOL    HW2 9470   4.113   4.108   0.603
 3152SOL     OW 9471   4.041   4.271   1.280
 3152SOL    HW1 9472   4.079   4.212   1.352
 3152SOL    HW2 9473   4.081   4.245   1.192
 3153SOL     OW 9474   3.954   4.352   1.975
 3153SOL    HW1 9475   3.861   4.350   2.012
 3153SOL    HW2 9476   3.955   4.313   1.883
 3154SOL     OW 9477   3.949   3.999   2.858
 3154SOL    HW1 9478   3.984   3.982   2.950
 3154SOL    HW2 9479   3.861   3.954   2.846
 3155SOL     OW 9480   3.743   4.092   2.509
 3155SOL    HW1 9481   3.661   4.135   2.548
 3155SOL    HW2 9482   3.715   4.019   2.446
 3156SOL     OW 9483   4.574   4.522   3.685
 3156SOL    HW1 9484   4.570   4.598   3.750
 3156SOL    HW2 9485   4.596   4.558   3.594
 3157SOL     OW 9486   4.409   4.736   2.527
 3157SOL    HW1 9487   4.478   4.720   2.597
 3157SOL    HW2 9488   4.336   4.793   2.565
 3158SOL     OW 9489   4.162   4.116   3.361
 3158SOL    HW1 9490   4.244   4.060   3.370
 3158SOL    HW2 9491   4.081   4.058   3.365
 3159SOL     OW 9492   3.846   4.367   2.425
 3159SOL    HW1 9493   3.801   4.279   2.442
 3159SOL    HW2 9494   3.845   4.421   2.509
 3160SOL     OW 9495   3.837   4.461   3.459
 3160SOL    HW1 9496   3.925   4.448   3.504
 3160SOL    HW2 9497   3.824   4.558   3.437
 3161SOL     OW 9498   4.533   3.728   2.364
 3161SOL    HW1 9499   4.573   3.819   2.355
 3161SOL    HW2 9500   4.433   3.736   2.370
 3162SOL     OW 9501   4.041   3.975   3.663
 3162SOL    HW1 9502   4.112   4.046   3.669
 3162SOL    HW2 9503   3.953   4.014   3.691
 3163SOL     OW 9504   4.322   4.453   2.132
 3163SOL    HW1 9505   4.346   4.522   2.064
 3163SOL    HW2 9506   4.244   4.486   2.186
 3164SOL     OW 9507   4.531   4.329   3.327
 3164SOL    HW1 9508   4.484   4.326   3.416
 3164SOL    HW2 9509   4.480   4.274   3.261
 3165SOL     OW 9510   3.800   4.535   2.651
 3165SOL    HW1 9511   3.899   4.523   2.660
 3165SOL    HW2 9512   3.776   4.630   2.672
 3166SOL     OW 9513   4.274   3.920   2.747
 3166SOL    HW1 9514   4.269   3.915   2.847
 3166SOL    HW2 9515   4.276   4.016   2.718
 3167SOL     OW 9516   3.926   4.009   3.360
 3167SOL    HW1 9517   3.846   4.069   3.347
 3167SOL    HW2 9518   3.916   3.960   3.446
 3168SOL     OW 9519   4.106   4.424   2.342
 3168SOL    HW1 9520   4.151   4.334   2.339
 3168SOL    HW2 9521   4.012   4.413   2.375
 3169SOL     OW 9522   4.338   3.846   1.979
 3169SOL    HW1 9523   4.436   3.824   1.986
 3169SOL    HW2 9524   4.307   3.829   1.886
 3170SOL     OW 9525   4.505   3.988   3.611
 3170SOL    HW1 9526   4.572   3.927   3.654
 3170SOL    HW2 9527   4.432   4.007   3.676
 3171SOL     OW 9528   4.646   4.227   2.761
 3171SOL    HW1 9529   4.621   4.218   2.665
 3171SOL    HW2 9530   4.694   4.145   2.792
 3172SOL     OW 9531   4.263   3.788   2.374
 3172SOL    HW1 9532   4.182   3.789   2.432
 3172SOL    HW2 9533   4.266   3.871   2.319
 3173SOL     OW 9534   4.021   3.759   2.033
 3173SOL    HW1 9535   4.070   3.843   2.012
 3173SOL    HW2 9536   4.083   3.694   2.078
 3174SOL     OW 9537   4.183   4.876   2.603
 3174SOL    HW1 9538   4.112   4.849   2.668
 3174SOL    HW2 9539   4.157   4.848   2.510
 3175SOL     OW 9540   3.802   4.280   3.248
 3175SOL    HW1 9541   3.894   4.279   3.207
 3175SOL    HW2 9542   3.796   4.354   3.315
 3176SOL     OW 9543   4.285   3.946   3.009
 3176SOL    HW1 9544   4.323   3.862   3.046
 3176SOL    HW2 9545   4.197   3.965   3.053
 3177SOL     OW 9546   4.251   3.980   2.190
 3177SOL    HW1 9547   4.278   3.921   2.115
 3177SOL    HW2 9548   4.251   4.075   2.159
 3178SOL     OW 9549   4.639   3.813   3.264
 3178SOL    HW1 9550   4.664   3.793   3.169
 3178SOL    HW2 9551   4.711   3.869   3.306
 3179SOL     OW 9552   4.134   4.537   3.113
 3179SOL    HW1 9553   4.220   4.549   3.163
 3179SOL    HW2 9554   4.092   4.450   3.140
 3180SOL     OW 9555   4.290   4.261   2.727
 3180SOL    HW1 9556   4.302   4.327   2.653
 3180SOL    HW2 9557   4.336   4.295   2.810
 3181SOL     OW 9558   4.126   4.475   3.460
 3181SOL    HW1 9559   4.194   4.530   3.413
 3181SOL    HW2 9560   4.166   4.387   3.487
 3182SOL     OW 9561   4.228   3.774   3.602
 3182SOL    HW1 9562   4.186   3.717   3.532
 3182SOL    HW2 9563   4.162   3.843   3.634
 3183SOL     OW 9564   4.297   4.594   2.891
 3183SOL    HW1 9565   4.341   4.683   2.882
 3183SOL    HW2 9566   4.234   4.594   2.968
 3184SOL     OW 9567   4.031   3.937   3.093
 3184SOL    HW1 9568   4.008   3.974   3.183
 3184SOL    HW2 9569   4.001   3.842   3.087
 3185SOL     OW 9570   4.456   4.358   2.926
 3185SOL    HW1 9571   4.515   4.332   2.850
 3185SOL    HW2 9572   4.428   4.454   2.915
 3186SOL     OW 9573   4.031   3.787   2.480
 3186SOL    HW1 9574   4.020   3.881   2.513
 3186SOL    HW2 9575   4.026   3.724   2.557
 3187SOL     OW 9576   4.747   4.490   2.828
 3187SOL    HW1 9577   4.762   4.511   2.924
 3187SOL    HW2 9578   4.717   4.395   2.819
 3188SOL     OW 9579   4.043   4.534   2.811
 3188SOL    HW1 9580   4.136   4.570   2.816
 3188SOL    HW2 9581   4.037   4.449   2.863
 3189SOL     OW 9582   4.063   4.233   2.868
 3189SOL    HW1 9583   4.011   4.150   2.851
 3189SOL    HW2 9584   4.140   4.238   2.804
 3190SOL     OW 9585   4.726   4.520   3.100
 3190SOL    HW1 9586   4.767   4.488   3.186
 3190SOL    HW2 9587   4.630   4.493   3.097
 3191SOL     OW 9588   3.764   4.268   2.976
 3191SOL    HW1 9589   3.849   4.235   2.935
 3191SOL    HW2 9590   3.777   4.283   3.074
 3192SOL     OW 9591   3.913   4.244   3.584
 3192SOL    HW1 9592   3.972   4.204   3.514
 3192SOL    HW2 9593   3.855   4.315   3.543
 3193SOL     OW 9594   4.539   4.296   2.187
 3193SOL    HW1 9595   4.546   4.207   2.141
 3193SOL    HW2 9596   4.445   4.330   2.179
 3194SOL     OW 9597   4.395   4.188   3.131
 3194SOL    HW1 9598   4.361   4.099   3.101
 3194SOL    HW2 9599   4.421   4.242   3.051
 3195SOL     OW 9600   4.197   4.224   2.053
 3195SOL    HW1 9601   4.258   4.304   2.057
 3195SOL    HW2 9602   4.102   4.255   2.060
 3196SOL     OW 9603   4.627   3.810   1.995
 3196SOL    HW1 9604   4.678   3.811   1.909
 3196SOL    HW2 9605   4.683   3.768   2.066
 3197SOL     OW 9606   3.987   4.050   2.582
 3197SOL    HW1 9607   3.908   4.101   2.548
 3197SOL    HW2 9608   3.978   4.035   2.680
 3198SOL     OW 9609   4.640   4.634   2.153
 3198SOL    HW1 9610   4.703   4.672   2.085
 3198SOL    HW2 9611   4.680   4.551   2.192
 3199SOL     OW 9612   3.829   4.737   3.588
 3199SOL    HW1 9613   3.752   4.704   3.642
 3199SOL    HW2 9614   3.914   4.707   3.630
 3200SOL     OW 9615   4.396   3.927   3.351
 3200SOL    HW1 9616   4.486   3.911   3.311
 3200SOL    HW2 9617   4.404   3.932   3.450
 3201SOL     OW 9618   3.799   4.069   1.895
 3201SOL    HW1 9619   3.707   4.041   1.866
 3201SOL    HW2 9620   3.830   4.146   1.839
 3202SOL     OW 9621   3.796   3.890   2.180
 3202SOL    HW1 9622   3.779   3.973   2.126
 3202SOL    HW2 9623   3.886   3.853   2.158
 3203SOL     OW 9624   4.337   4.566   3.293
 3203SOL    HW1 9625   4.393   4.647   3.276
 3203SOL    HW2 9626   4.396   4.486   3.296
 3204SOL     OW 9627   4.440   4.289   3.570
 3204SOL    HW1 9628   4.459   4.354   3.644
 3204SOL    HW2 9629   4.500   4.209   3.579
 3205SOL     OW 9630   4.318   4.469   2.514
 3205SOL    HW1 9631   4.368   4.554   2.495
 3205SOL    HW2 9632   4.230   4.471   2.466
 3206SOL     OW 9633   4.152   4.148   2.382
 3206SOL    HW1 9634   4.182   4.076   2.320
 3206SOL    HW2 9635   4.113   4.108   2.465
 3207SOL     OW 9636   4.041   4.271   3.142
 3207SOL    HW1 9637   4.079   4.212   3.214
 3207SOL    HW2 9638   4.081   4.245   3.054
 3208SOL     OW 9639   3.954   4.352   3.837
 3208SOL    HW1 9640   3.861   4.350   3.874
 3208SOL    HW2 9641   3.955   4.313   3.745
 3209SOL     OW 9642   3.949   3.999   4.720
 3209SOL    HW1 9643   3.984   3.982   4.812
 3209SOL    HW2 9644   3.861   3.954   4.708
 3210SOL     OW 9645   3.743   4.092   4.371
 3210SOL    HW1 9646   3.661   4.135   4.410
 3210SOL    HW2 9647   3.715   4.019   4.308
 3211SOL     OW 9648   4.409   4.736   4.389
 3211SOL    HW1 9649   4.478   4.720   4.459
 3211SOL    HW2 9650   4.336   4.793   4.427
 3212SOL     OW 9651   3.846   4.367   4.287
 3212SOL    HW1 9652   3.801   4.279   4.304
 3212SOL    HW2 9653   3.845   4.421   4.371
 3213SOL     OW 9654   4.533   3.728   4.226
 3213SOL    HW1 9655   4.573   3.819   4.217
 3213SOL    HW2 9656   4.433   3.736   4.232
 3214SOL     OW 9657   4.322   4.453   3.994
 3214SOL    HW1 9658   4.346   4.522   3.926
 3214SOL    HW2 9659   4.244   4.486   4.048
 3215SOL     OW 9660   3.800   4.535   4.513
 3215SOL    HW1 9661   3.899   4.523   4.522
 3215SOL    HW2 9662   3.776   4.630   4.534
 3216SOL     OW 9663   4.274   3.920   4.609
 3216SOL    HW1 9664   4.269   3.915   4.709
 3216SOL    HW2 9665   4.276   4.016   4.580
 3217SOL     OW 9666   4.106   4.424   4.204
 3217SOL    HW1 9667   4.151   4.334   4.201
 3217SOL    HW2 9668   4.012   4.413   4.237
 3218SOL     OW 9669   4.338   3.846   3.841
 3218SOL    HW1 9670   4.436   3.824   3.848
 3218SOL    HW2 9671   4.307   3.829   3.748
 3219SOL     OW 9672   4.263   3.788   4.236
 3219SOL    HW1 9673   4.182   3.789   4.294
 3219SOL    HW2 9674   4.266   3.871   4.181
 3220SOL     OW 9675   4.021   3.759   3.895
 3220SOL    HW1 9676   4.070   3.843   3.874
 3220SOL    HW2 9677   4.083   3.694   3.940
 3221SOL     OW 9678   4.183   4.876   4.465
 3221SOL    HW1 9679   4.112   4.849   4.530
 3221SOL    HW2 9680   4.157   4.848   4.372
 3222SOL     OW 9681   4.251   3.980   4.052
 3222SOL    HW1 9682   4.278   3.921   3.977
 3222SOL    HW2 9683   4.251   4.075   4.021
 3223SOL     OW 9684   4.290   4.261   4.589
 3223SOL    HW1 9685   4.302   4.327   4.515
 3223SOL    HW2 9686   4.336   4.295   4.672
 3224SOL     OW 9687   4.031   3.787   4.342
 3224SOL    HW1 9688   4.020   3.881   4.375
 3224SOL    HW2 9689   4.026   3.724   4.419
 3225SOL     OW 9690   4.747   4.490   4.690
 3225SOL    HW1 9691   4.762   4.511   4.786
 3225SOL    HW2 9692   4.717   4.395   4.681
 3226SOL     OW 9693   4.539   4.296   4.049
 3226SOL    HW1 9694   4.546   4.207   4.003
 3226SOL    HW2 9695   4.445   4.330   4.041
 3227SOL     OW 9696   4.197   4.224   3.915
 3227SOL    HW1 9697   4.258   4.304   3.919
 3227SOL    HW2 9698   4.102   4.255   3.922
 3228SOL     OW 9699   4.627   3.810   3.857
 3228SOL    HW1 9700   4.678   3.811   3.771
 3228SOL    HW2 9701   4.683   3.768   3.928
 3229SOL     OW 9702   3.987   4.050   4.444
 3229SOL    HW1 9703   3.908   4.101   4.410
 3229SOL    HW2 9704   3.978   4.035   4.542
 3230SOL     OW 9705   4.640   4.634   4.015
 3230SOL    HW1 9706   4.703   4.672   3.947
 3230SOL    HW2 9707   4.680   4.551   4.054
 3231SOL     OW 9708   3.799   4.069   3.757
 3231SOL    HW1 9709   3.707   4.041   3.728
 3231SOL    HW2 9710   3.830   4.146   3.701
 3232SOL     OW 9711   3.796   3.890   4.042
 3232SOL    HW1 9712   3.779   3.973   3.988
 3232SOL    HW2 9713   3.886   3.853   4.020
 3233SOL     OW 9714   4.318   4.469   4.376
 3233SOL    HW1 9715   4.368   4.554   4.357
 3233SOL    HW2 9716   4.230   4.471   4.328
 3234SOL     OW 9717   4.152   4.148   4.244
 3234SOL    HW1 9718   4.182   4.076   4.182
 3234SOL    HW2 9719   4.113   4.108   4.327
   4.64445   4.64445   4.64445
