mobley_5935995_GMX.gro created by acpype (v: 2023.10.27) on Wed May 20 23:46:15 2026
 9356
    1MOL     C1    1   2.185   2.254   2.473
    1MOL     C2    2   2.268   2.432   2.237
    1MOL     C3    3   2.299   2.228   2.096
    1MOL     C4    4   2.440   2.263   2.300
    1MOL     C5    5   2.192   2.211   2.326
    1MOL     C6    6   2.300   2.282   2.240
    1MOL     H1    7   2.162   2.360   2.483
    1MOL     H2    8   2.106   2.198   2.524
    1MOL     H3    9   2.279   2.233   2.525
    1MOL     H4   10   2.269   2.475   2.338
    1MOL     H5   11   2.169   2.451   2.194
    1MOL     H6   12   2.341   2.487   2.177
    1MOL     H7   13   2.330   2.123   2.091
    1MOL     H8   14   2.199   2.236   2.052
    1MOL     H9   15   2.368   2.285   2.033
    1MOL    H10   16   2.443   2.295   2.405
    1MOL    H11   17   2.515   2.321   2.245
    1MOL    H12   18   2.472   2.158   2.297
    1MOL    H13   19   2.093   2.228   2.282
    1MOL    H14   20   2.208   2.103   2.324
    2SOL     OW   21   0.230   0.628   0.113
    2SOL    HW1   22   0.137   0.626   0.150
    2SOL    HW2   23   0.231   0.589   0.021
    3SOL     OW   24   0.225   0.275   0.996
    3SOL    HW1   25   0.260   0.258   1.088
    3SOL    HW2   26   0.137   0.230   0.984
    4SOL     OW   27   0.019   0.368   0.647
    4SOL    HW1   28  -0.063   0.411   0.686
    4SOL    HW2   29  -0.009   0.295   0.584
    5SOL     OW   30   0.569   1.275   1.165
    5SOL    HW1   31   0.476   1.268   1.128
    5SOL    HW2   32   0.580   1.364   1.209
    6SOL     OW   33   1.555   1.511   0.703
    6SOL    HW1   34   1.498   1.495   0.784
    6SOL    HW2   35   1.496   1.521   0.623
    7SOL     OW   36   1.135   0.703   0.717
    7SOL    HW1   37   1.192   0.781   0.692
    7SOL    HW2   38   1.075   0.729   0.793
    8SOL     OW   39   1.755   0.607   0.231
    8SOL    HW1   40   1.743   0.594   0.132
    8SOL    HW2   41   1.725   0.526   0.280
    9SOL     OW   42   0.768   1.144   1.023
    9SOL    HW1   43   0.690   1.161   1.083
    9SOL    HW2   44   0.802   1.231   0.987
   10SOL     OW   45   0.850   0.798   1.823
   10SOL    HW1   46   0.846   0.874   1.888
   10SOL    HW2   47   0.872   0.834   1.732
   11SOL     OW   48   0.685   1.012   0.665
   11SOL    HW1   49   0.754   0.996   0.735
   11SOL    HW2   50   0.612   1.069   0.703
   12SOL     OW   51   0.686   1.161   1.803
   12SOL    HW1   52   0.746   1.240   1.817
   12SOL    HW2   53   0.600   1.192   1.762
   13SOL     OW   54   0.335   1.435   1.061
   13SOL    HW1   55   0.257   1.404   1.008
   13SOL    HW2   56   0.393   1.493   1.004
   14SOL     OW   57   1.460   1.505   1.339
   14SOL    HW1   58   1.484   1.599   1.365
   14SOL    HW2   59   1.444   1.451   1.421
   15SOL     OW   60   0.438   0.392   1.499
   15SOL    HW1   61   0.520   0.336   1.508
   15SOL    HW2   62   0.357   0.334   1.503
   16SOL     OW   63   1.603   0.447   0.737
   16SOL    HW1   64   1.529   0.493   0.687
   16SOL    HW2   65   1.654   0.515   0.790
   17SOL     OW   66   0.231   1.713   0.483
   17SOL    HW1   67   0.265   1.790   0.537
   17SOL    HW2   68   0.275   1.713   0.393
   18SOL     OW   69   1.127   1.341   1.690
   18SOL    HW1   70   1.174   1.341   1.778
   18SOL    HW2   71   1.079   1.254   1.679
   19SOL     OW   72   0.230   1.434   0.538
   19SOL    HW1   73   0.204   1.530   0.538
   19SOL    HW2   74   0.159   1.380   0.583
   20SOL     OW   75   0.240   1.091   0.886
   20SOL    HW1   76   0.254   1.007   0.938
   20SOL    HW2   77   0.185   1.155   0.941
   21SOL     OW   78   0.620   1.786   1.439
   21SOL    HW1   79   0.528   1.769   1.474
   21SOL    HW2   80   0.648   1.878   1.465
   22SOL     OW   81   0.606   0.964   0.123
   22SOL    HW1   82   0.613   1.048   0.069
   22SOL    HW2   83   0.652   0.977   0.211
   23SOL     OW   84   1.594   0.114   1.480
   23SOL    HW1   85   1.576   0.181   1.408
   23SOL    HW2   86   1.591   0.160   1.569
   24SOL     OW   87   0.122   0.643   0.563
   24SOL    HW1   88   0.077   0.555   0.580
   24SOL    HW2   89   0.121   0.697   0.647
   25SOL     OW   90   1.842   1.767   0.359
   25SOL    HW1   91   1.896   1.738   0.439
   25SOL    HW2   92   1.872   1.857   0.330
   26SOL     OW   93   0.027   1.596   0.117
   26SOL    HW1   94   0.008   1.500   0.138
   26SOL    HW2   95  -0.006   1.654   0.192
   27SOL     OW   96   1.689   0.922   0.612
   27SOL    HW1   97   1.784   0.893   0.620
   27SOL    HW2   98   1.681   0.987   0.537
   28SOL     OW   99   1.641   1.108   0.432
   28SOL    HW1  100   1.727   1.110   0.380
   28SOL    HW2  101   1.655   1.155   0.520
   29SOL     OW  102   0.113   0.737   1.597
   29SOL    HW1  103   0.201   0.724   1.642
   29SOL    HW2  104   0.100   0.834   1.575
   30SOL     OW  105   0.613   1.365   0.726
   30SOL    HW1  106   0.564   1.278   0.735
   30SOL    HW2  107   0.590   1.408   0.639
   31SOL     OW  108   1.293   1.228   1.423
   31SOL    HW1  109   1.330   1.155   1.365
   31SOL    HW2  110   1.345   1.233   1.508
   32SOL     OW  111   0.809   0.004   0.502
   32SOL    HW1  112   0.849   0.095   0.493
   32SOL    HW2  113   0.709   0.012   0.508
   33SOL     OW  114   0.197   0.976   1.264
   33SOL    HW1  115   0.286   0.931   1.250
   33SOL    HW2  116   0.124   0.911   1.245
   34SOL     OW  117   1.525   0.999   0.190
   34SOL    HW1  118   1.462   0.923   0.203
   34SOL    HW2  119   1.573   1.017   0.276
   35SOL     OW  120   1.187   1.792   1.616
   35SOL    HW1  121   1.211   1.852   1.540
   35SOL    HW2  122   1.194   1.697   1.586
   36SOL     OW  123   0.317   0.251   1.801
   36SOL    HW1  124   0.388   0.322   1.807
   36SOL    HW2  125   0.229   0.290   1.829
   37SOL     OW  126   1.466   1.417   0.953
   37SOL    HW1  127   1.407   1.423   1.033
   37SOL    HW2  128   1.451   1.329   0.907
   38SOL     OW  129   1.667   1.714   0.572
   38SOL    HW1  130   1.626   1.691   0.484
   38SOL    HW2  131   1.649   1.640   0.637
   39SOL     OW  132   0.598   0.729   0.270
   39SOL    HW1  133   0.622   0.798   0.202
   39SOL    HW2  134   0.520   0.762   0.324
   40SOL     OW  135   1.281   0.345   0.944
   40SOL    HW1  136   1.195   0.295   0.931
   40SOL    HW2  137   1.343   0.291   1.000
   41SOL     OW  138   1.576   1.662   0.307
   41SOL    HW1  139   1.665   1.708   0.310
   41SOL    HW2  140   1.555   1.638   0.212
   42SOL     OW  141   0.807   0.605   1.465
   42SOL    HW1  142   0.760   0.602   1.554
   42SOL    HW2  143   0.756   0.550   1.399
   43SOL     OW  144   1.394   0.469   1.674
   43SOL    HW1  145   1.374   0.512   1.762
   43SOL    HW2  146   1.472   0.407   1.683
   44SOL     OW  147   0.973   0.890   1.572
   44SOL    HW1  148   1.019   0.806   1.543
   44SOL    HW2  149   0.917   0.924   1.497
   45SOL     OW  150   0.991   0.410   1.242
   45SOL    HW1  151   0.914   0.444   1.296
   45SOL    HW2  152   0.957   0.359   1.163
   46SOL     OW  153   1.041   0.701   0.429
   46SOL    HW1  154   1.067   0.697   0.525
   46SOL    HW2  155   0.956   0.650   0.415
   47SOL     OW  156   0.076   0.811   0.789
   47SOL    HW1  157   0.175   0.799   0.798
   47SOL    HW2  158   0.052   0.906   0.810
   48SOL     OW  159   0.130   1.821   1.571
   48SOL    HW1  160   0.120   1.806   1.670
   48SOL    HW2  161   0.044   1.857   1.535
   49SOL     OW  162   0.865   0.348   0.195
   49SOL    HW1  163   0.924   0.411   0.146
   49SOL    HW2  164   0.884   0.254   0.166
   50SOL     OW  165   1.719   0.585   1.831
   50SOL    HW1  166   1.693   0.674   1.795
   50SOL    HW2  167   1.717   0.517   1.758
   51SOL     OW  168   1.362   1.144   0.545
   51SOL    HW1  169   1.445   1.115   0.497
   51SOL    HW2  170   1.313   1.211   0.489
   52SOL     OW  171   0.550   0.196   0.885
   52SOL    HW1  172   0.545   0.191   0.985
   52SOL    HW2  173   0.552   0.292   0.856
   53SOL     OW  174   1.008   1.456   0.477
   53SOL    HW1  175   0.962   1.528   0.425
   53SOL    HW2  176   1.004   1.476   0.575
   54SOL     OW  177   0.351   1.801   0.853
   54SOL    HW1  178   0.401   1.715   0.859
   54SOL    HW2  179   0.416   1.878   0.850
   55SOL     OW  180   1.795   1.066   0.873
   55SOL    HW1  181   1.733   1.051   0.797
   55SOL    HW2  182   1.743   1.077   0.958
   56SOL     OW  183   1.227   1.550   1.506
   56SOL    HW1  184   1.233   1.473   1.570
   56SOL    HW2  185   1.175   1.524   1.426
   57SOL     OW  186   0.321   0.943   0.242
   57SOL    HW1  187   0.403   0.982   0.200
   57SOL    HW2  188   0.294   0.861   0.193
   58SOL     OW  189   1.458   0.735   0.728
   58SOL    HW1  190   1.453   0.670   0.803
   58SOL    HW2  191   1.538   0.794   0.741
   59SOL     OW  192   0.461   1.266   1.727
   59SOL    HW1  193   0.411   1.267   1.641
   59SOL    HW2  194   0.398   1.248   1.803
   60SOL     OW  195   1.111   1.776   0.237
   60SOL    HW1  196   1.051   1.714   0.287
   60SOL    HW2  197   1.142   1.732   0.152
   61SOL     OW  198   0.202   0.285   1.498
   61SOL    HW1  199   0.122   0.345   1.485
   61SOL    HW2  200   0.192   0.236   1.584
   62SOL     OW  201   1.632   1.377   0.081
   62SOL    HW1  202   1.600   1.471   0.071
   62SOL    HW2  203   1.556   1.314   0.069
   63SOL     OW  204   0.464   1.743   0.323
   63SOL    HW1  205   0.497   1.782   0.409
   63SOL    HW2  206   0.540   1.736   0.258
   64SOL     OW  207   1.400   0.107   0.426
   64SOL    HW1  208   1.376   0.070   0.336
   64SOL    HW2  209   1.499   0.123   0.430
   65SOL     OW  210   0.249   1.785   1.241
   65SOL    HW1  211   0.306   1.720   1.291
   65SOL    HW2  212   0.233   1.752   1.148
   66SOL     OW  213   0.940   1.698   0.904
   66SOL    HW1  214   1.020   1.641   0.925
   66SOL    HW2  215   0.891   1.658   0.827
   67SOL     OW  216   0.382   0.700   0.480
   67SOL    HW1  217   0.427   0.610   0.477
   67SOL    HW2  218   0.288   0.689   0.513
   68SOL     OW  219   1.547   0.222   1.729
   68SOL    HW1  220   1.542   0.259   1.821
   68SOL    HW2  221   1.475   0.153   1.717
   69SOL     OW  222   0.614   0.122   0.117
   69SOL    HW1  223   0.712   0.100   0.124
   69SOL    HW2  224   0.583   0.105   0.024
   70SOL     OW  225   0.781   0.264   1.749
   70SOL    HW1  226   0.848   0.203   1.792
   70SOL    HW2  227   0.708   0.283   1.814
   71SOL     OW  228   0.888   1.514   1.195
   71SOL    HW1  229   0.865   1.489   1.101
   71SOL    HW2  230   0.949   1.445   1.234
   72SOL     OW  231   1.351   0.590   1.433
   72SOL    HW1  232   1.379   0.547   1.518
   72SOL    HW2  233   1.376   0.686   1.434
   73SOL     OW  234   0.803   1.402   0.924
   73SOL    HW1  235   0.893   1.416   0.882
   73SOL    HW2  236   0.732   1.404   0.853
   74SOL     OW  237   0.922   0.503   0.899
   74SOL    HW1  238   0.897   0.494   0.803
   74SOL    HW2  239   0.970   0.421   0.930
   75SOL     OW  240   0.539   0.064   0.512
   75SOL    HW1  241   0.458   0.065   0.570
   75SOL    HW2  242   0.542   0.147   0.457
   76SOL     OW  243   1.434   1.188   0.041
   76SOL    HW1  244   1.466   1.112   0.098
   76SOL    HW2  245   1.342   1.215   0.071
   77SOL     OW  246   0.297   0.035   0.171
   77SOL    HW1  247   0.346   0.119   0.150
   77SOL    HW2  248   0.359  -0.030   0.216
   78SOL     OW  249   0.935   0.236   0.480
   78SOL    HW1  250   0.887   0.277   0.402
   78SOL    HW2  251   1.034   0.234   0.461
   79SOL     OW  252   1.076   0.683   1.464
   79SOL    HW1  253   0.996   0.622   1.467
   79SOL    HW2  254   1.157   0.630   1.440
   80SOL     OW  255   1.227   1.570   0.793
   80SOL    HW1  256   1.248   1.644   0.728
   80SOL    HW2  257   1.295   1.570   0.866
   81SOL     OW  258   0.459   1.152   0.741
   81SOL    HW1  259   0.388   1.125   0.806
   81SOL    HW2  260   0.433   1.124   0.648
   82SOL     OW  261   1.271   1.797   0.591
   82SOL    HW1  262   1.315   1.861   0.527
   82SOL    HW2  263   1.221   1.849   0.661
   83SOL     OW  264   1.032   0.549   0.016
   83SOL    HW1  265   0.991   0.631  -0.023
   83SOL    HW2  266   1.096   0.575   0.089
   84SOL     OW  267   0.078   0.556   1.386
   84SOL    HW1  268   0.170   0.555   1.345
   84SOL    HW2  269   0.072   0.630   1.453
   85SOL     OW  270   0.561   0.222   1.147
   85SOL    HW1  271   0.599   0.138   1.184
   85SOL    HW2  272   0.473   0.241   1.191
   86SOL     OW  273   0.866   0.454   0.642
   86SOL    HW1  274   0.834   0.526   0.580
   86SOL    HW2  275   0.890   0.373   0.589
   87SOL     OW  276   1.017   0.039   0.753
   87SOL    HW1  277   0.945   0.044   0.684
   87SOL    HW2  278   0.993  -0.030   0.822
   88SOL     OW  279   1.429   1.173   0.867
   88SOL    HW1  280   1.374   1.089   0.860
   88SOL    HW2  281   1.455   1.202   0.775
   89SOL     OW  282   1.466   0.590   0.992
   89SOL    HW1  283   1.436   0.495   0.999
   89SOL    HW2  284   1.539   0.606   1.058
   90SOL     OW  285   1.857   0.833   0.377
   90SOL    HW1  286   1.899   0.769   0.441
   90SOL    HW2  287   1.819   0.782   0.299
   91SOL     OW  288   0.488   1.385   0.174
   91SOL    HW1  289   0.401   1.370   0.221
   91SOL    HW2  290   0.471   1.411   0.079
   92SOL     OW  291   1.664   1.280   0.657
   92SOL    HW1  292   1.763   1.288   0.671
   92SOL    HW2  293   1.619   1.364   0.688
   93SOL     OW  294   1.390   0.575   0.078
   93SOL    HW1  295   1.336   0.554   0.159
   93SOL    HW2  296   1.481   0.534   0.087
   94SOL     OW  297   0.527   0.256   0.328
   94SOL    HW1  298   0.554   0.197   0.253
   94SOL    HW2  299   0.527   0.351   0.297
   95SOL     OW  300   1.754   1.223   1.588
   95SOL    HW1  301   1.845   1.184   1.575
   95SOL    HW2  302   1.762   1.319   1.612
   96SOL     OW  303   1.064   1.347   1.340
   96SOL    HW1  304   0.984   1.324   1.395
   96SOL    HW2  305   1.147   1.321   1.389
   97SOL     OW  306   1.592   1.629   1.625
   97SOL    HW1  307   1.619   1.663   1.535
   97SOL    HW2  308   1.671   1.591   1.671
   98SOL     OW  309   1.111   1.195   1.100
   98SOL    HW1  310   1.071   1.239   1.181
   98SOL    HW2  311   1.070   1.232   1.017
   99SOL     OW  312   1.638   1.099   1.079
   99SOL    HW1  313   1.643   1.180   1.138
   99SOL    HW2  314   1.552   1.101   1.028
  100SOL     OW  315   0.915   0.089   1.402
  100SOL    HW1  316   0.940   0.069   1.307
  100SOL    HW2  317   0.987   0.145   1.444
  101SOL     OW  318   0.980   1.116   1.719
  101SOL    HW1  319   0.881   1.122   1.729
  101SOL    HW2  320   1.003   1.036   1.663
  102SOL     OW  321   0.705   1.050   0.368
  102SOL    HW1  322   0.691   1.057   0.467
  102SOL    HW2  323   0.789   0.999   0.350
  103SOL     OW  324   0.410   0.813   1.251
  103SOL    HW1  325   0.496   0.825   1.301
  103SOL    HW2  326   0.368   0.726   1.278
  104SOL     OW  327   1.274   0.386   1.262
  104SOL    HW1  328   1.295   0.460   1.326
  104SOL    HW2  329   1.185   0.403   1.219
  105SOL     OW  330   0.064   1.564   1.331
  105SOL    HW1  331   0.018   1.646   1.297
  105SOL    HW2  332   0.162   1.583   1.340
  106SOL     OW  333   0.367   1.100   0.501
  106SOL    HW1  334   0.360   1.183   0.445
  106SOL    HW2  335   0.371   1.020   0.441
  107SOL     OW  336   0.566   0.537   0.865
  107SOL    HW1  337   0.578   0.603   0.791
  107SOL    HW2  338   0.612   0.571   0.948
  108SOL     OW  339   1.252   1.348   0.388
  108SOL    HW1  340   1.302   1.425   0.428
  108SOL    HW2  341   1.157   1.350   0.420
  109SOL     OW  342   1.272   1.445   1.142
  109SOL    HW1  343   1.319   1.458   1.229
  109SOL    HW2  344   1.206   1.371   1.151
  110SOL     OW  345   1.582   0.639   0.472
  110SOL    HW1  346   1.551   0.700   0.545
  110SOL    HW2  347   1.632   0.691   0.403
  111SOL     OW  348   0.354   1.510   1.329
  111SOL    HW1  349   0.333   1.466   1.242
  111SOL    HW2  350   0.451   1.536   1.332
  112SOL     OW  351   0.402   0.751   1.598
  112SOL    HW1  352   0.470   0.806   1.551
  112SOL    HW2  353   0.442   0.663   1.625
  113SOL     OW  354   1.587   0.779   1.670
  113SOL    HW1  355   1.495   0.817   1.665
  113SOL    HW2  356   1.647   0.826   1.605
  114SOL     OW  357   1.013   0.105   1.770
  114SOL    HW1  358   1.019   0.190   1.718
  114SOL    HW2  359   1.045   0.029   1.713
  115SOL     OW  360   0.504   0.050   1.740
  115SOL    HW1  361   0.462  -0.007   1.670
  115SOL    HW2  362   0.438   0.119   1.772
  116SOL     OW  363   0.573   0.870   1.029
  116SOL    HW1  364   0.617   0.959   1.020
  116SOL    HW2  365   0.510   0.870   1.106
  117SOL     OW  366   1.360   0.862   1.045
  117SOL    HW1  367   1.285   0.862   0.979
  117SOL    HW2  368   1.397   0.770   1.054
  118SOL     OW  369   1.209   0.525   0.275
  118SOL    HW1  370   1.222   0.441   0.329
  118SOL    HW2  371   1.180   0.599   0.335
  119SOL     OW  372   0.307   0.213   1.231
  119SOL    HW1  373   0.284   0.250   1.321
  119SOL    HW2  374   0.277   0.118   1.225
  120SOL     OW  375   0.037   1.310   1.282
  120SOL    HW1  376   0.090   1.261   1.350
  120SOL    HW2  377   0.059   1.408   1.287
  121SOL     OW  378   0.732   0.634   1.064
  121SOL    HW1  379   0.791   0.608   0.988
  121SOL    HW2  380   0.704   0.730   1.053
  122SOL     OW  381   1.728   0.935   1.854
  122SOL    HW1  382   1.682   0.928   1.765
  122SOL    HW2  383   1.666   0.979   1.920
  123SOL     OW  384   0.307   0.063   0.618
  123SOL    HW1  385   0.296   0.157   0.651
  123SOL    HW2  386   0.302   0.000   0.695
  124SOL     OW  387   1.622   0.367   0.374
  124SOL    HW1  388   1.624   0.291   0.438
  124SOL    HW2  389   1.574   0.444   0.414
  125SOL     OW  390   1.023   0.766   0.966
  125SOL    HW1  391   1.038   0.787   1.062
  125SOL    HW2  392   0.993   0.671   0.957
  126SOL     OW  393   0.980   1.573   1.700
  126SOL    HW1  394   0.960   1.617   1.612
  126SOL    HW2  395   1.019   1.482   1.684
  127SOL     OW  396   1.859   1.518   1.605
  127SOL    HW1  397   1.873   1.545   1.510
  127SOL    HW2  398   1.942   1.540   1.658
  128SOL     OW  399   0.350   0.898   1.804
  128SOL    HW1  400   0.426   0.942   1.852
  128SOL    HW2  401   0.385   0.851   1.722
  129SOL     OW  402   1.540   0.274   0.125
  129SOL    HW1  403   1.479   0.199   0.148
  129SOL    HW2  404   1.562   0.326   0.208
  130SOL     OW  405   1.303   0.838   0.042
  130SOL    HW1  406   1.337   0.745   0.057
  130SOL    HW2  407   1.321   0.865  -0.053
  131SOL     OW  408   1.068   1.333   0.849
  131SOL    HW1  409   1.075   1.249   0.794
  131SOL    HW2  410   1.130   1.402   0.813
  132SOL     OW  411   0.319   0.810   0.949
  132SOL    HW1  412   0.412   0.846   0.954
  132SOL    HW2  413   0.313   0.725   1.001
  133SOL     OW  414   0.339   0.509   1.006
  133SOL    HW1  415   0.287   0.426   0.989
  133SOL    HW2  416   0.416   0.514   0.942
  134SOL     OW  417   1.138   0.380   1.678
  134SOL    HW1  418   1.093   0.443   1.742
  134SOL    HW2  419   1.231   0.411   1.661
  135SOL     OW  420   1.160   0.207   1.477
  135SOL    HW1  421   1.160   0.271   1.554
  135SOL    HW2  422   1.188   0.255   1.394
  136SOL     OW  423   0.008   1.326   0.200
  136SOL    HW1  424  -0.085   1.347   0.169
  136SOL    HW2  425   0.018   1.227   0.213
  137SOL     OW  426   0.088   1.801   0.927
  137SOL    HW1  427   0.046   1.715   0.900
  137SOL    HW2  428   0.182   1.804   0.893
  138SOL     OW  429   0.504   1.568   0.910
  138SOL    HW1  430   0.570   1.642   0.919
  138SOL    HW2  431   0.548   1.489   0.868
  139SOL     OW  432   1.002   0.796   1.238
  139SOL    HW1  433   1.043   0.764   1.324
  139SOL    HW2  434   0.906   0.769   1.235
  140SOL     OW  435   0.040   0.544   1.114
  140SOL    HW1  436   0.125   0.511   1.073
  140SOL    HW2  437   0.053   0.559   1.212
  141SOL     OW  438   0.189   0.520   1.722
  141SOL    HW1  439   0.248   0.480   1.652
  141SOL    HW2  440   0.131   0.591   1.681
  142SOL     OW  441   1.369   0.950   1.660
  142SOL    HW1  442   1.408   1.039   1.680
  142SOL    HW2  443   1.379   0.930   1.563
  143SOL     OW  444   0.815   0.572   0.325
  143SOL    HW1  445   0.822   0.483   0.279
  143SOL    HW2  446   0.721   0.606   0.317
  144SOL     OW  447   1.657   0.604   1.206
  144SOL    HW1  448   1.619   0.535   1.268
  144SOL    HW2  449   1.739   0.568   1.162
  145SOL     OW  450   0.252   1.564   1.744
  145SOL    HW1  451   0.222   1.621   1.820
  145SOL    HW2  452   0.245   1.467   1.770
  146SOL     OW  453   0.671   0.464   1.269
  146SOL    HW1  454   0.637   0.375   1.239
  146SOL    HW2  455   0.697   0.518   1.189
  147SOL     OW  456   0.930   1.678   1.465
  147SOL    HW1  457   0.906   1.660   1.370
  147SOL    HW2  458   0.960   1.772   1.475
  148SOL     OW  459   0.473   0.500   0.191
  148SOL    HW1  460   0.534   0.580   0.195
  148SOL    HW2  461   0.378   0.531   0.198
  149SOL     OW  462   0.159   1.137   1.466
  149SOL    HW1  463   0.181   1.076   1.542
  149SOL    HW2  464   0.169   1.088   1.380
  150SOL     OW  465   1.347   1.059   1.234
  150SOL    HW1  466   1.371   0.996   1.160
  150SOL    HW2  467   1.257   1.099   1.216
  151SOL     OW  468   1.302   0.855   0.309
  151SOL    HW1  469   1.216   0.824   0.351
  151SOL    HW2  470   1.298   0.841   0.210
  152SOL     OW  471   1.759   1.747   1.154
  152SOL    HW1  472   1.820   1.777   1.081
  152SOL    HW2  473   1.721   1.658   1.132
  153SOL     OW  474   1.252   1.731   1.128
  153SOL    HW1  475   1.336   1.736   1.074
  153SOL    HW2  476   1.229   1.635   1.146
  154SOL     OW  477   0.083   1.258   1.022
  154SOL    HW1  478   0.078   1.257   1.122
  154SOL    HW2  479   0.000   1.217   0.984
  155SOL     OW  480   0.688   1.662   1.716
  155SOL    HW1  481   0.632   1.743   1.725
  155SOL    HW2  482   0.740   1.666   1.630
  156SOL     OW  483   0.903   0.086   0.133
  156SOL    HW1  484   0.954   0.087   0.047
  156SOL    HW2  485   0.959   0.044   0.204
  157SOL     OW  486   1.726   0.135   0.523
  157SOL    HW1  487   1.799   0.118   0.456
  157SOL    HW2  488   1.695   0.048   0.561
  158SOL     OW  489   1.388   1.573   0.477
  158SOL    HW1  490   1.455   1.585   0.403
  158SOL    HW2  491   1.348   1.662   0.500
  159SOL     OW  492   0.130   1.794   1.851
  159SOL    HW1  493   0.089   1.720   1.904
  159SOL    HW2  494   0.194   1.845   1.909
  160SOL     OW  495   1.280   0.927   0.672
  160SOL    HW1  496   1.340   0.846   0.674
  160SOL    HW2  497   1.320   0.996   0.612
  161SOL     OW  498   0.830   1.273   1.422
  161SOL    HW1  499   0.825   1.306   1.517
  161SOL    HW2  500   0.744   1.292   1.376
  162SOL     OW  501   0.672   1.616   0.154
  162SOL    HW1  502   0.681   1.626   0.055
  162SOL    HW2  503   0.632   1.527   0.175
  163SOL     OW  504   1.650   1.720   1.394
  163SOL    HW1  505   1.703   1.730   1.310
  163SOL    HW2  506   1.623   1.810   1.428
  164SOL     OW  507   1.841   0.175   0.963
  164SOL    HW1  508   1.880   0.090   0.927
  164SOL    HW2  509   1.743   0.177   0.944
  165SOL     OW  510   0.263   0.326   0.720
  165SOL    HW1  511   0.184   0.377   0.686
  165SOL    HW2  512   0.254   0.311   0.818
  166SOL     OW  513   1.194   1.612   0.031
  166SOL    HW1  514   1.200   1.519   0.068
  166SOL    HW2  515   1.135   1.612  -0.049
  167SOL     OW  516   0.822   1.002   1.372
  167SOL    HW1  517   0.862   1.001   1.280
  167SOL    HW2  518   0.832   1.094   1.412
  168SOL     OW  519   0.916   0.910   0.291
  168SOL    HW1  520   0.979   0.948   0.223
  168SOL    HW2  521   0.956   0.827   0.330
  169SOL     OW  522   1.504   1.607   0.044
  169SOL    HW1  523   1.412   1.644   0.051
  169SOL    HW2  524   1.542   1.627  -0.046
  170SOL     OW  525   0.372   1.288   1.490
  170SOL    HW1  526   0.359   1.381   1.456
  170SOL    HW2  527   0.288   1.236   1.477
  171SOL     OW  528   1.614   1.292   1.289
  171SOL    HW1  529   1.674   1.295   1.369
  171SOL    HW2  530   1.539   1.356   1.302
  172SOL     OW  531   1.039   1.098   0.696
  172SOL    HW1  532   0.969   1.051   0.750
  172SOL    HW2  533   1.098   1.030   0.653
  173SOL     OW  534   1.014   0.236   0.971
  173SOL    HW1  535   1.006   0.200   0.878
  173SOL    HW2  536   1.012   0.160   1.036
  174SOL     OW  537   0.590   1.487   0.491
  174SOL    HW1  538   0.632   1.429   0.421
  174SOL    HW2  539   0.546   1.566   0.447
  175SOL     OW  540   1.709   0.385   1.381
  175SOL    HW1  541   1.782   0.454   1.385
  175SOL    HW2  542   1.737   0.310   1.322
  176SOL     OW  543   0.255   1.348   0.290
  176SOL    HW1  544   0.159   1.349   0.263
  176SOL    HW2  545   0.267   1.401   0.374
  177SOL     OW  546   0.105   1.013   1.726
  177SOL    HW1  547   0.028   0.980   1.780
  177SOL    HW2  548   0.190   0.983   1.768
  178SOL     OW  549   0.672   0.203   1.489
  178SOL    HW1  550   0.762   0.187   1.449
  178SOL    HW2  551   0.680   0.208   1.588
  179SOL     OW  552   0.075   0.345   0.033
  179SOL    HW1  553  -0.017   0.317   0.004
  179SOL    HW2  554   0.106   0.422  -0.023
  180SOL     OW  555   1.440   0.856   1.398
  180SOL    HW1  556   1.383   0.908   1.335
  180SOL    HW2  557   1.536   0.868   1.374
  181SOL     OW  558   0.072   0.166   0.318
  181SOL    HW1  559   0.055   0.249   0.264
  181SOL    HW2  560   0.162   0.129   0.296
  182SOL     OW  561   1.183   1.335   0.119
  182SOL    HW1  562   1.084   1.324   0.121
  182SOL    HW2  563   1.217   1.350   0.212
  183SOL     OW  564   0.613   0.842   1.431
  183SOL    HW1  565   0.669   0.923   1.414
  183SOL    HW2  566   0.672   0.762   1.434
  184SOL     OW  567   1.493   1.767   0.959
  184SOL    HW1  568   1.526   1.831   0.890
  184SOL    HW2  569   1.559   1.761   1.034
  185SOL     OW  570   0.716   0.565   1.708
  185SOL    HW1  571   0.735   0.630   1.782
  185SOL    HW2  572   0.776   0.485   1.717
  186SOL     OW  573   1.450   1.220   1.633
  186SOL    HW1  574   1.441   1.210   1.732
  186SOL    HW2  575   1.546   1.213   1.607
  187SOL     OW  576   0.390   1.741   1.560
  187SOL    HW1  577   0.299   1.782   1.558
  187SOL    HW2  578   0.383   1.647   1.592
  188SOL     OW  579   1.674   0.883   1.254
  188SOL    HW1  580   1.647   0.794   1.217
  188SOL    HW2  581   1.675   0.951   1.181
  189SOL     OW  582   1.225   0.325   0.449
  189SOL    HW1  583   1.290   0.251   0.438
  189SOL    HW2  584   1.245   0.375   0.533
  190SOL     OW  585   0.594   0.745   0.652
  190SOL    HW1  586   0.644   0.830   0.633
  190SOL    HW2  587   0.506   0.747   0.604
  191SOL     OW  588   1.777   0.342   1.642
  191SOL    HW1  589   1.760   0.373   1.548
  191SOL    HW2  590   1.693   0.305   1.680
  192SOL     OW  591   1.730   0.934   1.517
  192SOL    HW1  592   1.768   1.025   1.532
  192SOL    HW2  593   1.722   0.917   1.418
  193SOL     OW  594   0.859   1.374   0.016
  193SOL    HW1  595   0.813   1.389   0.104
  193SOL    HW2  596   0.903   1.459  -0.014
  194SOL     OW  597   0.661   1.790   0.953
  194SOL    HW1  598   0.615   1.878   0.940
  194SOL    HW2  599   0.760   1.802   0.946
  195SOL     OW  600   0.859   0.956   0.861
  195SOL    HW1  601   0.913   0.887   0.909
  195SOL    HW2  602   0.827   1.025   0.927
  196SOL     OW  603   1.083   0.984   0.087
  196SOL    HW1  604   1.060   1.037   0.005
  196SOL    HW2  605   1.164   0.928   0.068
  197SOL     OW  606   1.861   1.569   0.851
  197SOL    HW1  607   1.790   1.557   0.781
  197SOL    HW2  608   1.862   1.490   0.911
  198SOL     OW  609   0.221   1.314   1.844
  198SOL    HW1  610   0.156   1.241   1.823
  198SOL    HW2  611   0.225   1.328   1.942
  199SOL     OW  612   0.079   1.240   0.653
  199SOL    HW1  613   0.078   1.193   0.741
  199SOL    HW2  614   0.161   1.212   0.602
  200SOL     OW  615   0.672   1.391   1.624
  200SOL    HW1  616   0.594   1.341   1.662
  200SOL    HW2  617   0.669   1.486   1.655
  201SOL     OW  618   1.824   0.192   1.227
  201SOL    HW1  619   1.820   0.102   1.271
  201SOL    HW2  620   1.827   0.181   1.128
  202SOL     OW  621   0.428   0.424   0.520
  202SOL    HW1  622   0.458   0.352   0.458
  202SOL    HW2  623   0.389   0.384   0.603
  203SOL     OW  624   1.705   1.487   1.104
  203SOL    HW1  625   1.612   1.462   1.077
  203SOL    HW2  626   1.731   1.437   1.186
  204SOL     OW  627   0.317   0.547   1.280
  204SOL    HW1  628   0.355   0.488   1.352
  204SOL    HW2  629   0.357   0.521   1.192
  205SOL     OW  630   0.812   1.586   0.687
  205SOL    HW1  631   0.844   1.596   0.593
  205SOL    HW2  632   0.733   1.524   0.689
  206SOL     OW  633   1.424   0.214   1.112
  206SOL    HW1  634   1.476   0.149   1.167
  206SOL    HW2  635   1.375   0.277   1.173
  207SOL     OW  636   1.001   0.034   1.154
  207SOL    HW1  637   0.938  -0.038   1.123
  207SOL    HW2  638   1.094  -0.002   1.154
  208SOL     OW  639   0.770   1.330   0.301
  208SOL    HW1  640   0.724   1.243   0.318
  208SOL    HW2  641   0.861   1.327   0.342
  209SOL     OW  642   0.618   1.567   1.284
  209SOL    HW1  643   0.613   1.649   1.341
  209SOL    HW2  644   0.707   1.564   1.239
  210SOL     OW  645   1.352   0.052   0.168
  210SOL    HW1  646   1.387   0.011   0.084
  210SOL    HW2  647   1.262   0.014   0.188
  211SOL     OW  648   1.300   0.453   0.691
  211SOL    HW1  649   1.241   0.533   0.695
  211SOL    HW2  650   1.315   0.418   0.784
  212SOL     OW  651   1.593   0.221   0.882
  212SOL    HW1  652   1.509   0.220   0.936
  212SOL    HW2  653   1.595   0.304   0.826
  213SOL     OW  654   0.039   1.077   0.300
  213SOL    HW1  655   0.138   1.066   0.291
  213SOL    HW2  656  -0.001   0.991   0.332
  214SOL     OW  657   0.875   1.646   0.337
  214SOL    HW1  658   0.798   1.611   0.283
  214SOL    HW2  659   0.843   1.717   0.399
  215SOL     OW  660   0.230   0.628   1.975
  215SOL    HW1  661   0.137   0.626   2.012
  215SOL    HW2  662   0.231   0.589   1.883
  216SOL     OW  663   0.225   0.275   2.858
  216SOL    HW1  664   0.260   0.258   2.950
  216SOL    HW2  665   0.137   0.230   2.846
  217SOL     OW  666   0.019   0.368   2.509
  217SOL    HW1  667  -0.063   0.411   2.548
  217SOL    HW2  668  -0.009   0.295   2.446
  218SOL     OW  669   0.569   1.275   3.027
  218SOL    HW1  670   0.476   1.268   2.990
  218SOL    HW2  671   0.580   1.364   3.071
  219SOL     OW  672   1.555   1.511   2.565
  219SOL    HW1  673   1.498   1.495   2.646
  219SOL    HW2  674   1.496   1.521   2.485
  220SOL     OW  675   1.135   0.703   2.579
  220SOL    HW1  676   1.192   0.781   2.554
  220SOL    HW2  677   1.075   0.729   2.655
  221SOL     OW  678   1.755   0.607   2.093
  221SOL    HW1  679   1.743   0.594   1.994
  221SOL    HW2  680   1.725   0.526   2.142
  222SOL     OW  681   0.768   1.144   2.885
  222SOL    HW1  682   0.690   1.161   2.945
  222SOL    HW2  683   0.802   1.231   2.849
  223SOL     OW  684   0.850   0.798   3.685
  223SOL    HW1  685   0.846   0.874   3.750
  223SOL    HW2  686   0.872   0.834   3.594
  224SOL     OW  687   0.685   1.012   2.527
  224SOL    HW1  688   0.754   0.996   2.597
  224SOL    HW2  689   0.612   1.069   2.565
  225SOL     OW  690   0.686   1.161   3.665
  225SOL    HW1  691   0.746   1.240   3.679
  225SOL    HW2  692   0.600   1.192   3.624
  226SOL     OW  693   0.335   1.435   2.923
  226SOL    HW1  694   0.257   1.404   2.870
  226SOL    HW2  695   0.393   1.493   2.866
  227SOL     OW  696   1.460   1.505   3.201
  227SOL    HW1  697   1.484   1.599   3.227
  227SOL    HW2  698   1.444   1.451   3.283
  228SOL     OW  699   0.438   0.392   3.361
  228SOL    HW1  700   0.520   0.336   3.370
  228SOL    HW2  701   0.357   0.334   3.365
  229SOL     OW  702   1.603   0.447   2.599
  229SOL    HW1  703   1.529   0.493   2.549
  229SOL    HW2  704   1.654   0.515   2.652
  230SOL     OW  705   0.231   1.713   2.345
  230SOL    HW1  706   0.265   1.790   2.399
  230SOL    HW2  707   0.275   1.713   2.255
  231SOL     OW  708   1.127   1.341   3.552
  231SOL    HW1  709   1.174   1.341   3.640
  231SOL    HW2  710   1.079   1.254   3.541
  232SOL     OW  711   0.230   1.434   2.400
  232SOL    HW1  712   0.204   1.530   2.400
  232SOL    HW2  713   0.159   1.380   2.445
  233SOL     OW  714   0.240   1.091   2.748
  233SOL    HW1  715   0.254   1.007   2.800
  233SOL    HW2  716   0.185   1.155   2.803
  234SOL     OW  717   0.620   1.786   3.301
  234SOL    HW1  718   0.528   1.769   3.336
  234SOL    HW2  719   0.648   1.878   3.327
  235SOL     OW  720   0.606   0.964   1.985
  235SOL    HW1  721   0.613   1.048   1.931
  235SOL    HW2  722   0.652   0.977   2.073
  236SOL     OW  723   1.594   0.114   3.342
  236SOL    HW1  724   1.576   0.181   3.270
  236SOL    HW2  725   1.591   0.160   3.431
  237SOL     OW  726   0.122   0.643   2.425
  237SOL    HW1  727   0.077   0.555   2.442
  237SOL    HW2  728   0.121   0.697   2.509
  238SOL     OW  729   1.842   1.767   2.221
  238SOL    HW1  730   1.896   1.738   2.301
  238SOL    HW2  731   1.872   1.857   2.192
  239SOL     OW  732   0.027   1.596   1.979
  239SOL    HW1  733   0.008   1.500   2.000
  239SOL    HW2  734  -0.006   1.654   2.054
  240SOL     OW  735   1.689   0.922   2.474
  240SOL    HW1  736   1.784   0.893   2.482
  240SOL    HW2  737   1.681   0.987   2.399
  241SOL     OW  738   1.641   1.108   2.294
  241SOL    HW1  739   1.727   1.110   2.242
  241SOL    HW2  740   1.655   1.155   2.382
  242SOL     OW  741   0.113   0.737   3.459
  242SOL    HW1  742   0.201   0.724   3.504
  242SOL    HW2  743   0.100   0.834   3.437
  243SOL     OW  744   0.613   1.365   2.588
  243SOL    HW1  745   0.564   1.278   2.597
  243SOL    HW2  746   0.590   1.408   2.501
  244SOL     OW  747   1.293   1.228   3.285
  244SOL    HW1  748   1.330   1.155   3.227
  244SOL    HW2  749   1.345   1.233   3.370
  245SOL     OW  750   0.809   0.004   2.364
  245SOL    HW1  751   0.849   0.095   2.355
  245SOL    HW2  752   0.709   0.012   2.370
  246SOL     OW  753   0.197   0.976   3.126
  246SOL    HW1  754   0.286   0.931   3.112
  246SOL    HW2  755   0.124   0.911   3.107
  247SOL     OW  756   1.525   0.999   2.052
  247SOL    HW1  757   1.462   0.923   2.065
  247SOL    HW2  758   1.573   1.017   2.138
  248SOL     OW  759   1.187   1.792   3.478
  248SOL    HW1  760   1.211   1.852   3.402
  248SOL    HW2  761   1.194   1.697   3.448
  249SOL     OW  762   0.317   0.251   3.663
  249SOL    HW1  763   0.388   0.322   3.669
  249SOL    HW2  764   0.229   0.290   3.691
  250SOL     OW  765   1.466   1.417   2.815
  250SOL    HW1  766   1.407   1.423   2.895
  250SOL    HW2  767   1.451   1.329   2.769
  251SOL     OW  768   1.667   1.714   2.434
  251SOL    HW1  769   1.626   1.691   2.346
  251SOL    HW2  770   1.649   1.640   2.499
  252SOL     OW  771   0.598   0.729   2.132
  252SOL    HW1  772   0.622   0.798   2.064
  252SOL    HW2  773   0.520   0.762   2.186
  253SOL     OW  774   1.281   0.345   2.806
  253SOL    HW1  775   1.195   0.295   2.793
  253SOL    HW2  776   1.343   0.291   2.862
  254SOL     OW  777   1.576   1.662   2.169
  254SOL    HW1  778   1.665   1.708   2.172
  254SOL    HW2  779   1.555   1.638   2.074
  255SOL     OW  780   0.807   0.605   3.327
  255SOL    HW1  781   0.760   0.602   3.416
  255SOL    HW2  782   0.756   0.550   3.261
  256SOL     OW  783   1.394   0.469   3.536
  256SOL    HW1  784   1.374   0.512   3.624
  256SOL    HW2  785   1.472   0.407   3.545
  257SOL     OW  786   0.973   0.890   3.434
  257SOL    HW1  787   1.019   0.806   3.405
  257SOL    HW2  788   0.917   0.924   3.359
  258SOL     OW  789   0.991   0.410   3.104
  258SOL    HW1  790   0.914   0.444   3.158
  258SOL    HW2  791   0.957   0.359   3.025
  259SOL     OW  792   1.041   0.701   2.291
  259SOL    HW1  793   1.067   0.697   2.387
  259SOL    HW2  794   0.956   0.650   2.277
  260SOL     OW  795   0.076   0.811   2.651
  260SOL    HW1  796   0.175   0.799   2.660
  260SOL    HW2  797   0.052   0.906   2.672
  261SOL     OW  798   0.130   1.821   3.433
  261SOL    HW1  799   0.120   1.806   3.532
  261SOL    HW2  800   0.044   1.857   3.397
  262SOL     OW  801   0.865   0.348   2.057
  262SOL    HW1  802   0.924   0.411   2.008
  262SOL    HW2  803   0.884   0.254   2.028
  263SOL     OW  804   1.719   0.585   3.693
  263SOL    HW1  805   1.693   0.674   3.657
  263SOL    HW2  806   1.717   0.517   3.620
  264SOL     OW  807   1.362   1.144   2.407
  264SOL    HW1  808   1.445   1.115   2.359
  264SOL    HW2  809   1.313   1.211   2.351
  265SOL     OW  810   0.550   0.196   2.747
  265SOL    HW1  811   0.545   0.191   2.847
  265SOL    HW2  812   0.552   0.292   2.718
  266SOL     OW  813   1.008   1.456   2.339
  266SOL    HW1  814   0.962   1.528   2.287
  266SOL    HW2  815   1.004   1.476   2.437
  267SOL     OW  816   0.351   1.801   2.715
  267SOL    HW1  817   0.401   1.715   2.721
  267SOL    HW2  818   0.416   1.878   2.712
  268SOL     OW  819   1.795   1.066   2.735
  268SOL    HW1  820   1.733   1.051   2.659
  268SOL    HW2  821   1.743   1.077   2.820
  269SOL     OW  822   1.227   1.550   3.368
  269SOL    HW1  823   1.233   1.473   3.432
  269SOL    HW2  824   1.175   1.524   3.288
  270SOL     OW  825   0.321   0.943   2.104
  270SOL    HW1  826   0.403   0.982   2.062
  270SOL    HW2  827   0.294   0.861   2.055
  271SOL     OW  828   1.458   0.735   2.590
  271SOL    HW1  829   1.453   0.670   2.665
  271SOL    HW2  830   1.538   0.794   2.603
  272SOL     OW  831   0.461   1.266   3.589
  272SOL    HW1  832   0.411   1.267   3.503
  272SOL    HW2  833   0.398   1.248   3.665
  273SOL     OW  834   1.111   1.776   2.099
  273SOL    HW1  835   1.051   1.714   2.149
  273SOL    HW2  836   1.142   1.732   2.014
  274SOL     OW  837   0.202   0.285   3.360
  274SOL    HW1  838   0.122   0.345   3.347
  274SOL    HW2  839   0.192   0.236   3.446
  275SOL     OW  840   1.632   1.377   1.943
  275SOL    HW1  841   1.600   1.471   1.933
  275SOL    HW2  842   1.556   1.314   1.931
  276SOL     OW  843   0.464   1.743   2.185
  276SOL    HW1  844   0.497   1.782   2.271
  276SOL    HW2  845   0.540   1.736   2.120
  277SOL     OW  846   1.400   0.107   2.288
  277SOL    HW1  847   1.376   0.070   2.198
  277SOL    HW2  848   1.499   0.123   2.292
  278SOL     OW  849   0.249   1.785   3.103
  278SOL    HW1  850   0.306   1.720   3.153
  278SOL    HW2  851   0.233   1.752   3.010
  279SOL     OW  852   0.940   1.698   2.766
  279SOL    HW1  853   1.020   1.641   2.787
  279SOL    HW2  854   0.891   1.658   2.689
  280SOL     OW  855   0.382   0.700   2.342
  280SOL    HW1  856   0.427   0.610   2.339
  280SOL    HW2  857   0.288   0.689   2.375
  281SOL     OW  858   1.547   0.222   3.591
  281SOL    HW1  859   1.542   0.259   3.683
  281SOL    HW2  860   1.475   0.153   3.579
  282SOL     OW  861   0.614   0.122   1.979
  282SOL    HW1  862   0.712   0.100   1.986
  282SOL    HW2  863   0.583   0.105   1.886
  283SOL     OW  864   0.781   0.264   3.611
  283SOL    HW1  865   0.848   0.203   3.654
  283SOL    HW2  866   0.708   0.283   3.676
  284SOL     OW  867   0.888   1.514   3.057
  284SOL    HW1  868   0.865   1.489   2.963
  284SOL    HW2  869   0.949   1.445   3.096
  285SOL     OW  870   1.351   0.590   3.295
  285SOL    HW1  871   1.379   0.547   3.380
  285SOL    HW2  872   1.376   0.686   3.296
  286SOL     OW  873   0.803   1.402   2.786
  286SOL    HW1  874   0.893   1.416   2.744
  286SOL    HW2  875   0.732   1.404   2.715
  287SOL     OW  876   0.922   0.503   2.761
  287SOL    HW1  877   0.897   0.494   2.665
  287SOL    HW2  878   0.970   0.421   2.792
  288SOL     OW  879   0.539   0.064   2.374
  288SOL    HW1  880   0.458   0.065   2.432
  288SOL    HW2  881   0.542   0.147   2.319
  289SOL     OW  882   1.434   1.188   1.903
  289SOL    HW1  883   1.466   1.112   1.960
  289SOL    HW2  884   1.342   1.215   1.933
  290SOL     OW  885   0.297   0.035   2.033
  290SOL    HW1  886   0.346   0.119   2.012
  290SOL    HW2  887   0.359  -0.030   2.078
  291SOL     OW  888   0.935   0.236   2.342
  291SOL    HW1  889   0.887   0.277   2.264
  291SOL    HW2  890   1.034   0.234   2.323
  292SOL     OW  891   1.076   0.683   3.326
  292SOL    HW1  892   0.996   0.622   3.329
  292SOL    HW2  893   1.157   0.630   3.302
  293SOL     OW  894   1.227   1.570   2.655
  293SOL    HW1  895   1.248   1.644   2.590
  293SOL    HW2  896   1.295   1.570   2.728
  294SOL     OW  897   0.459   1.152   2.603
  294SOL    HW1  898   0.388   1.125   2.668
  294SOL    HW2  899   0.433   1.124   2.510
  295SOL     OW  900   1.271   1.797   2.453
  295SOL    HW1  901   1.315   1.861   2.389
  295SOL    HW2  902   1.221   1.849   2.523
  296SOL     OW  903   1.032   0.549   1.878
  296SOL    HW1  904   0.991   0.631   1.839
  296SOL    HW2  905   1.096   0.575   1.951
  297SOL     OW  906   0.078   0.556   3.248
  297SOL    HW1  907   0.170   0.555   3.207
  297SOL    HW2  908   0.072   0.630   3.315
  298SOL     OW  909   0.561   0.222   3.009
  298SOL    HW1  910   0.599   0.138   3.046
  298SOL    HW2  911   0.473   0.241   3.053
  299SOL     OW  912   0.866   0.454   2.504
  299SOL    HW1  913   0.834   0.526   2.442
  299SOL    HW2  914   0.890   0.373   2.451
  300SOL     OW  915   1.017   0.039   2.615
  300SOL    HW1  916   0.945   0.044   2.546
  300SOL    HW2  917   0.993  -0.030   2.684
  301SOL     OW  918   1.429   1.173   2.729
  301SOL    HW1  919   1.374   1.089   2.722
  301SOL    HW2  920   1.455   1.202   2.637
  302SOL     OW  921   1.466   0.590   2.854
  302SOL    HW1  922   1.436   0.495   2.861
  302SOL    HW2  923   1.539   0.606   2.920
  303SOL     OW  924   1.857   0.833   2.239
  303SOL    HW1  925   1.899   0.769   2.303
  303SOL    HW2  926   1.819   0.782   2.161
  304SOL     OW  927   0.488   1.385   2.036
  304SOL    HW1  928   0.401   1.370   2.083
  304SOL    HW2  929   0.471   1.411   1.941
  305SOL     OW  930   1.664   1.280   2.519
  305SOL    HW1  931   1.763   1.288   2.533
  305SOL    HW2  932   1.619   1.364   2.550
  306SOL     OW  933   1.390   0.575   1.940
  306SOL    HW1  934   1.336   0.554   2.021
  306SOL    HW2  935   1.481   0.534   1.949
  307SOL     OW  936   0.527   0.256   2.190
  307SOL    HW1  937   0.554   0.197   2.115
  307SOL    HW2  938   0.527   0.351   2.159
  308SOL     OW  939   1.754   1.223   3.450
  308SOL    HW1  940   1.845   1.184   3.437
  308SOL    HW2  941   1.762   1.319   3.474
  309SOL     OW  942   1.064   1.347   3.202
  309SOL    HW1  943   0.984   1.324   3.257
  309SOL    HW2  944   1.147   1.321   3.251
  310SOL     OW  945   1.592   1.629   3.487
  310SOL    HW1  946   1.619   1.663   3.397
  310SOL    HW2  947   1.671   1.591   3.533
  311SOL     OW  948   1.111   1.195   2.962
  311SOL    HW1  949   1.071   1.239   3.043
  311SOL    HW2  950   1.070   1.232   2.879
  312SOL     OW  951   1.638   1.099   2.941
  312SOL    HW1  952   1.643   1.180   3.000
  312SOL    HW2  953   1.552   1.101   2.890
  313SOL     OW  954   0.915   0.089   3.264
  313SOL    HW1  955   0.940   0.069   3.169
  313SOL    HW2  956   0.987   0.145   3.306
  314SOL     OW  957   0.980   1.116   3.581
  314SOL    HW1  958   0.881   1.122   3.591
  314SOL    HW2  959   1.003   1.036   3.525
  315SOL     OW  960   0.705   1.050   2.230
  315SOL    HW1  961   0.691   1.057   2.329
  315SOL    HW2  962   0.789   0.999   2.212
  316SOL     OW  963   0.410   0.813   3.113
  316SOL    HW1  964   0.496   0.825   3.163
  316SOL    HW2  965   0.368   0.726   3.140
  317SOL     OW  966   1.274   0.386   3.124
  317SOL    HW1  967   1.295   0.460   3.188
  317SOL    HW2  968   1.185   0.403   3.081
  318SOL     OW  969   0.064   1.564   3.193
  318SOL    HW1  970   0.018   1.646   3.159
  318SOL    HW2  971   0.162   1.583   3.202
  319SOL     OW  972   0.367   1.100   2.363
  319SOL    HW1  973   0.360   1.183   2.307
  319SOL    HW2  974   0.371   1.020   2.303
  320SOL     OW  975   0.566   0.537   2.727
  320SOL    HW1  976   0.578   0.603   2.653
  320SOL    HW2  977   0.612   0.571   2.810
  321SOL     OW  978   1.252   1.348   2.250
  321SOL    HW1  979   1.302   1.425   2.290
  321SOL    HW2  980   1.157   1.350   2.282
  322SOL     OW  981   1.272   1.445   3.004
  322SOL    HW1  982   1.319   1.458   3.091
  322SOL    HW2  983   1.206   1.371   3.013
  323SOL     OW  984   1.582   0.639   2.334
  323SOL    HW1  985   1.551   0.700   2.407
  323SOL    HW2  986   1.632   0.691   2.265
  324SOL     OW  987   0.354   1.510   3.191
  324SOL    HW1  988   0.333   1.466   3.104
  324SOL    HW2  989   0.451   1.536   3.194
  325SOL     OW  990   0.402   0.751   3.460
  325SOL    HW1  991   0.470   0.806   3.413
  325SOL    HW2  992   0.442   0.663   3.487
  326SOL     OW  993   1.587   0.779   3.532
  326SOL    HW1  994   1.495   0.817   3.527
  326SOL    HW2  995   1.647   0.826   3.467
  327SOL     OW  996   1.013   0.105   3.632
  327SOL    HW1  997   1.019   0.190   3.580
  327SOL    HW2  998   1.045   0.029   3.575
  328SOL     OW  999   0.504   0.050   3.602
  328SOL    HW1 1000   0.462  -0.007   3.532
  328SOL    HW2 1001   0.438   0.119   3.634
  329SOL     OW 1002   0.573   0.870   2.891
  329SOL    HW1 1003   0.617   0.959   2.882
  329SOL    HW2 1004   0.510   0.870   2.968
  330SOL     OW 1005   1.360   0.862   2.907
  330SOL    HW1 1006   1.285   0.862   2.841
  330SOL    HW2 1007   1.397   0.770   2.916
  331SOL     OW 1008   1.209   0.525   2.137
  331SOL    HW1 1009   1.222   0.441   2.191
  331SOL    HW2 1010   1.180   0.599   2.197
  332SOL     OW 1011   0.307   0.213   3.093
  332SOL    HW1 1012   0.284   0.250   3.183
  332SOL    HW2 1013   0.277   0.118   3.087
  333SOL     OW 1014   0.037   1.310   3.144
  333SOL    HW1 1015   0.090   1.261   3.212
  333SOL    HW2 1016   0.059   1.408   3.149
  334SOL     OW 1017   0.732   0.634   2.926
  334SOL    HW1 1018   0.791   0.608   2.850
  334SOL    HW2 1019   0.704   0.730   2.915
  335SOL     OW 1020   1.728   0.935   3.716
  335SOL    HW1 1021   1.682   0.928   3.627
  335SOL    HW2 1022   1.666   0.979   3.782
  336SOL     OW 1023   0.307   0.063   2.480
  336SOL    HW1 1024   0.296   0.157   2.513
  336SOL    HW2 1025   0.302   0.000   2.557
  337SOL     OW 1026   1.622   0.367   2.236
  337SOL    HW1 1027   1.624   0.291   2.300
  337SOL    HW2 1028   1.574   0.444   2.276
  338SOL     OW 1029   1.023   0.766   2.828
  338SOL    HW1 1030   1.038   0.787   2.924
  338SOL    HW2 1031   0.993   0.671   2.819
  339SOL     OW 1032   0.980   1.573   3.562
  339SOL    HW1 1033   0.960   1.617   3.474
  339SOL    HW2 1034   1.019   1.482   3.546
  340SOL     OW 1035   1.859   1.518   3.467
  340SOL    HW1 1036   1.873   1.545   3.372
  340SOL    HW2 1037   1.942   1.540   3.520
  341SOL     OW 1038   0.350   0.898   3.666
  341SOL    HW1 1039   0.426   0.942   3.714
  341SOL    HW2 1040   0.385   0.851   3.584
  342SOL     OW 1041   1.540   0.274   1.987
  342SOL    HW1 1042   1.479   0.199   2.010
  342SOL    HW2 1043   1.562   0.326   2.070
  343SOL     OW 1044   1.303   0.838   1.904
  343SOL    HW1 1045   1.337   0.745   1.919
  343SOL    HW2 1046   1.321   0.865   1.809
  344SOL     OW 1047   1.068   1.333   2.711
  344SOL    HW1 1048   1.075   1.249   2.656
  344SOL    HW2 1049   1.130   1.402   2.675
  345SOL     OW 1050   0.319   0.810   2.811
  345SOL    HW1 1051   0.412   0.846   2.816
  345SOL    HW2 1052   0.313   0.725   2.863
  346SOL     OW 1053   0.339   0.509   2.868
  346SOL    HW1 1054   0.287   0.426   2.851
  346SOL    HW2 1055   0.416   0.514   2.804
  347SOL     OW 1056   1.138   0.380   3.540
  347SOL    HW1 1057   1.093   0.443   3.604
  347SOL    HW2 1058   1.231   0.411   3.523
  348SOL     OW 1059   1.160   0.207   3.339
  348SOL    HW1 1060   1.160   0.271   3.416
  348SOL    HW2 1061   1.188   0.255   3.256
  349SOL     OW 1062   0.008   1.326   2.062
  349SOL    HW1 1063  -0.085   1.347   2.031
  349SOL    HW2 1064   0.018   1.227   2.075
  350SOL     OW 1065   0.088   1.801   2.789
  350SOL    HW1 1066   0.046   1.715   2.762
  350SOL    HW2 1067   0.182   1.804   2.755
  351SOL     OW 1068   0.504   1.568   2.772
  351SOL    HW1 1069   0.570   1.642   2.781
  351SOL    HW2 1070   0.548   1.489   2.730
  352SOL     OW 1071   1.002   0.796   3.100
  352SOL    HW1 1072   1.043   0.764   3.186
  352SOL    HW2 1073   0.906   0.769   3.097
  353SOL     OW 1074   0.040   0.544   2.976
  353SOL    HW1 1075   0.125   0.511   2.935
  353SOL    HW2 1076   0.053   0.559   3.074
  354SOL     OW 1077   0.189   0.520   3.584
  354SOL    HW1 1078   0.248   0.480   3.514
  354SOL    HW2 1079   0.131   0.591   3.543
  355SOL     OW 1080   1.369   0.950   3.522
  355SOL    HW1 1081   1.408   1.039   3.542
  355SOL    HW2 1082   1.379   0.930   3.425
  356SOL     OW 1083   0.815   0.572   2.187
  356SOL    HW1 1084   0.822   0.483   2.141
  356SOL    HW2 1085   0.721   0.606   2.179
  357SOL     OW 1086   1.657   0.604   3.068
  357SOL    HW1 1087   1.619   0.535   3.130
  357SOL    HW2 1088   1.739   0.568   3.024
  358SOL     OW 1089   0.252   1.564   3.606
  358SOL    HW1 1090   0.222   1.621   3.682
  358SOL    HW2 1091   0.245   1.467   3.632
  359SOL     OW 1092   0.671   0.464   3.131
  359SOL    HW1 1093   0.637   0.375   3.101
  359SOL    HW2 1094   0.697   0.518   3.051
  360SOL     OW 1095   0.930   1.678   3.327
  360SOL    HW1 1096   0.906   1.660   3.232
  360SOL    HW2 1097   0.960   1.772   3.337
  361SOL     OW 1098   0.473   0.500   2.053
  361SOL    HW1 1099   0.534   0.580   2.057
  361SOL    HW2 1100   0.378   0.531   2.060
  362SOL     OW 1101   0.159   1.137   3.328
  362SOL    HW1 1102   0.181   1.076   3.404
  362SOL    HW2 1103   0.169   1.088   3.242
  363SOL     OW 1104   1.347   1.059   3.096
  363SOL    HW1 1105   1.371   0.996   3.022
  363SOL    HW2 1106   1.257   1.099   3.078
  364SOL     OW 1107   1.302   0.855   2.171
  364SOL    HW1 1108   1.216   0.824   2.213
  364SOL    HW2 1109   1.298   0.841   2.072
  365SOL     OW 1110   1.759   1.747   3.016
  365SOL    HW1 1111   1.820   1.777   2.943
  365SOL    HW2 1112   1.721   1.658   2.994
  366SOL     OW 1113   1.252   1.731   2.990
  366SOL    HW1 1114   1.336   1.736   2.936
  366SOL    HW2 1115   1.229   1.635   3.008
  367SOL     OW 1116   0.083   1.258   2.884
  367SOL    HW1 1117   0.078   1.257   2.984
  367SOL    HW2 1118   0.000   1.217   2.846
  368SOL     OW 1119   0.688   1.662   3.578
  368SOL    HW1 1120   0.632   1.743   3.587
  368SOL    HW2 1121   0.740   1.666   3.492
  369SOL     OW 1122   1.726   0.135   2.385
  369SOL    HW1 1123   1.799   0.118   2.318
  369SOL    HW2 1124   1.695   0.048   2.423
  370SOL     OW 1125   1.388   1.573   2.339
  370SOL    HW1 1126   1.455   1.585   2.265
  370SOL    HW2 1127   1.348   1.662   2.362
  371SOL     OW 1128   0.130   1.794   3.713
  371SOL    HW1 1129   0.089   1.720   3.766
  371SOL    HW2 1130   0.194   1.845   3.771
  372SOL     OW 1131   1.280   0.927   2.534
  372SOL    HW1 1132   1.340   0.846   2.536
  372SOL    HW2 1133   1.320   0.996   2.474
  373SOL     OW 1134   0.830   1.273   3.284
  373SOL    HW1 1135   0.825   1.306   3.379
  373SOL    HW2 1136   0.744   1.292   3.238
  374SOL     OW 1137   0.672   1.616   2.016
  374SOL    HW1 1138   0.681   1.626   1.917
  374SOL    HW2 1139   0.632   1.527   2.037
  375SOL     OW 1140   1.650   1.720   3.256
  375SOL    HW1 1141   1.703   1.730   3.172
  375SOL    HW2 1142   1.623   1.810   3.290
  376SOL     OW 1143   1.841   0.175   2.825
  376SOL    HW1 1144   1.880   0.090   2.789
  376SOL    HW2 1145   1.743   0.177   2.806
  377SOL     OW 1146   0.263   0.326   2.582
  377SOL    HW1 1147   0.184   0.377   2.548
  377SOL    HW2 1148   0.254   0.311   2.680
  378SOL     OW 1149   1.194   1.612   1.893
  378SOL    HW1 1150   1.200   1.519   1.930
  378SOL    HW2 1151   1.135   1.612   1.813
  379SOL     OW 1152   0.822   1.002   3.234
  379SOL    HW1 1153   0.862   1.001   3.142
  379SOL    HW2 1154   0.832   1.094   3.274
  380SOL     OW 1155   0.916   0.910   2.153
  380SOL    HW1 1156   0.979   0.948   2.085
  380SOL    HW2 1157   0.956   0.827   2.192
  381SOL     OW 1158   1.504   1.607   1.906
  381SOL    HW1 1159   1.412   1.644   1.913
  381SOL    HW2 1160   1.542   1.627   1.816
  382SOL     OW 1161   0.372   1.288   3.352
  382SOL    HW1 1162   0.359   1.381   3.318
  382SOL    HW2 1163   0.288   1.236   3.339
  383SOL     OW 1164   1.614   1.292   3.151
  383SOL    HW1 1165   1.674   1.295   3.231
  383SOL    HW2 1166   1.539   1.356   3.164
  384SOL     OW 1167   1.039   1.098   2.558
  384SOL    HW1 1168   0.969   1.051   2.612
  384SOL    HW2 1169   1.098   1.030   2.515
  385SOL     OW 1170   1.014   0.236   2.833
  385SOL    HW1 1171   1.006   0.200   2.740
  385SOL    HW2 1172   1.012   0.160   2.898
  386SOL     OW 1173   0.590   1.487   2.353
  386SOL    HW1 1174   0.632   1.429   2.283
  386SOL    HW2 1175   0.546   1.566   2.309
  387SOL     OW 1176   1.709   0.385   3.243
  387SOL    HW1 1177   1.782   0.454   3.247
  387SOL    HW2 1178   1.737   0.310   3.184
  388SOL     OW 1179   0.255   1.348   2.152
  388SOL    HW1 1180   0.159   1.349   2.125
  388SOL    HW2 1181   0.267   1.401   2.236
  389SOL     OW 1182   0.105   1.013   3.588
  389SOL    HW1 1183   0.028   0.980   3.642
  389SOL    HW2 1184   0.190   0.983   3.630
  390SOL     OW 1185   0.672   0.203   3.351
  390SOL    HW1 1186   0.762   0.187   3.311
  390SOL    HW2 1187   0.680   0.208   3.450
  391SOL     OW 1188   0.075   0.345   1.895
  391SOL    HW1 1189  -0.017   0.317   1.866
  391SOL    HW2 1190   0.106   0.422   1.839
  392SOL     OW 1191   1.440   0.856   3.260
  392SOL    HW1 1192   1.383   0.908   3.197
  392SOL    HW2 1193   1.536   0.868   3.236
  393SOL     OW 1194   0.072   0.166   2.180
  393SOL    HW1 1195   0.055   0.249   2.126
  393SOL    HW2 1196   0.162   0.129   2.158
  394SOL     OW 1197   1.183   1.335   1.981
  394SOL    HW1 1198   1.084   1.324   1.983
  394SOL    HW2 1199   1.217   1.350   2.074
  395SOL     OW 1200   0.613   0.842   3.293
  395SOL    HW1 1201   0.669   0.923   3.276
  395SOL    HW2 1202   0.672   0.762   3.296
  396SOL     OW 1203   1.493   1.767   2.821
  396SOL    HW1 1204   1.526   1.831   2.752
  396SOL    HW2 1205   1.559   1.761   2.896
  397SOL     OW 1206   0.716   0.565   3.570
  397SOL    HW1 1207   0.735   0.630   3.644
  397SOL    HW2 1208   0.776   0.485   3.579
  398SOL     OW 1209   1.450   1.220   3.495
  398SOL    HW1 1210   1.441   1.210   3.594
  398SOL    HW2 1211   1.546   1.213   3.469
  399SOL     OW 1212   0.390   1.741   3.422
  399SOL    HW1 1213   0.299   1.782   3.420
  399SOL    HW2 1214   0.383   1.647   3.454
  400SOL     OW 1215   1.674   0.883   3.116
  400SOL    HW1 1216   1.647   0.794   3.079
  400SOL    HW2 1217   1.675   0.951   3.043
  401SOL     OW 1218   1.225   0.325   2.311
  401SOL    HW1 1219   1.290   0.251   2.300
  401SOL    HW2 1220   1.245   0.375   2.395
  402SOL     OW 1221   0.594   0.745   2.514
  402SOL    HW1 1222   0.644   0.830   2.495
  402SOL    HW2 1223   0.506   0.747   2.466
  403SOL     OW 1224   1.777   0.342   3.504
  403SOL    HW1 1225   1.760   0.373   3.410
  403SOL    HW2 1226   1.693   0.305   3.542
  404SOL     OW 1227   1.730   0.934   3.379
  404SOL    HW1 1228   1.768   1.025   3.394
  404SOL    HW2 1229   1.722   0.917   3.280
  405SOL     OW 1230   0.859   1.374   1.878
  405SOL    HW1 1231   0.813   1.389   1.966
  405SOL    HW2 1232   0.903   1.459   1.848
  406SOL     OW 1233   0.661   1.790   2.815
  406SOL    HW1 1234   0.615   1.878   2.802
  406SOL    HW2 1235   0.760   1.802   2.808
  407SOL     OW 1236   0.859   0.956   2.723
  407SOL    HW1 1237   0.913   0.887   2.771
  407SOL    HW2 1238   0.827   1.025   2.789
  408SOL     OW 1239   1.083   0.984   1.949
  408SOL    HW1 1240   1.060   1.037   1.867
  408SOL    HW2 1241   1.164   0.928   1.930
  409SOL     OW 1242   1.861   1.569   2.713
  409SOL    HW1 1243   1.790   1.557   2.643
  409SOL    HW2 1244   1.862   1.490   2.773
  410SOL     OW 1245   0.221   1.314   3.706
  410SOL    HW1 1246   0.156   1.241   3.685
  410SOL    HW2 1247   0.225   1.328   3.804
  411SOL     OW 1248   0.079   1.240   2.515
  411SOL    HW1 1249   0.078   1.193   2.603
  411SOL    HW2 1250   0.161   1.212   2.464
  412SOL     OW 1251   0.672   1.391   3.486
  412SOL    HW1 1252   0.594   1.341   3.524
  412SOL    HW2 1253   0.669   1.486   3.517
  413SOL     OW 1254   1.824   0.192   3.089
  413SOL    HW1 1255   1.820   0.102   3.133
  413SOL    HW2 1256   1.827   0.181   2.990
  414SOL     OW 1257   0.428   0.424   2.382
  414SOL    HW1 1258   0.458   0.352   2.320
  414SOL    HW2 1259   0.389   0.384   2.465
  415SOL     OW 1260   1.705   1.487   2.966
  415SOL    HW1 1261   1.612   1.462   2.939
  415SOL    HW2 1262   1.731   1.437   3.048
  416SOL     OW 1263   0.317   0.547   3.142
  416SOL    HW1 1264   0.355   0.488   3.214
  416SOL    HW2 1265   0.357   0.521   3.054
  417SOL     OW 1266   0.812   1.586   2.549
  417SOL    HW1 1267   0.844   1.596   2.455
  417SOL    HW2 1268   0.733   1.524   2.551
  418SOL     OW 1269   1.424   0.214   2.974
  418SOL    HW1 1270   1.476   0.149   3.029
  418SOL    HW2 1271   1.375   0.277   3.035
  419SOL     OW 1272   1.001   0.034   3.016
  419SOL    HW1 1273   0.938  -0.038   2.985
  419SOL    HW2 1274   1.094  -0.002   3.016
  420SOL     OW 1275   0.770   1.330   2.163
  420SOL    HW1 1276   0.724   1.243   2.180
  420SOL    HW2 1277   0.861   1.327   2.204
  421SOL     OW 1278   0.618   1.567   3.146
  421SOL    HW1 1279   0.613   1.649   3.203
  421SOL    HW2 1280   0.707   1.564   3.101
  422SOL     OW 1281   1.352   0.052   2.030
  422SOL    HW1 1282   1.387   0.011   1.946
  422SOL    HW2 1283   1.262   0.014   2.050
  423SOL     OW 1284   1.300   0.453   2.553
  423SOL    HW1 1285   1.241   0.533   2.557
  423SOL    HW2 1286   1.315   0.418   2.646
  424SOL     OW 1287   1.593   0.221   2.744
  424SOL    HW1 1288   1.509   0.220   2.798
  424SOL    HW2 1289   1.595   0.304   2.688
  425SOL     OW 1290   0.039   1.077   2.162
  425SOL    HW1 1291   0.138   1.066   2.153
  425SOL    HW2 1292  -0.001   0.991   2.194
  426SOL     OW 1293   0.875   1.646   2.199
  426SOL    HW1 1294   0.798   1.611   2.145
  426SOL    HW2 1295   0.843   1.717   2.261
  427SOL     OW 1296   0.230   0.628   3.837
  427SOL    HW1 1297   0.137   0.626   3.874
  427SOL    HW2 1298   0.231   0.589   3.745
  428SOL     OW 1299   0.225   0.275   4.720
  428SOL    HW1 1300   0.260   0.258   4.812
  428SOL    HW2 1301   0.137   0.230   4.708
  429SOL     OW 1302   0.019   0.368   4.371
  429SOL    HW1 1303  -0.063   0.411   4.410
  429SOL    HW2 1304  -0.009   0.295   4.308
  430SOL     OW 1305   1.755   0.607   3.955
  430SOL    HW1 1306   1.743   0.594   3.856
  430SOL    HW2 1307   1.725   0.526   4.004
  431SOL     OW 1308   0.685   1.012   4.389
  431SOL    HW1 1309   0.754   0.996   4.459
  431SOL    HW2 1310   0.612   1.069   4.427
  432SOL     OW 1311   1.603   0.447   4.461
  432SOL    HW1 1312   1.529   0.493   4.411
  432SOL    HW2 1313   1.654   0.515   4.514
  433SOL     OW 1314   0.231   1.713   4.207
  433SOL    HW1 1315   0.265   1.790   4.261
  433SOL    HW2 1316   0.275   1.713   4.117
  434SOL     OW 1317   0.230   1.434   4.262
  434SOL    HW1 1318   0.204   1.530   4.262
  434SOL    HW2 1319   0.159   1.380   4.307
  435SOL     OW 1320   0.240   1.091   4.610
  435SOL    HW1 1321   0.254   1.007   4.662
  435SOL    HW2 1322   0.185   1.155   4.665
  436SOL     OW 1323   0.606   0.964   3.847
  436SOL    HW1 1324   0.613   1.048   3.793
  436SOL    HW2 1325   0.652   0.977   3.935
  437SOL     OW 1326   0.122   0.643   4.287
  437SOL    HW1 1327   0.077   0.555   4.304
  437SOL    HW2 1328   0.121   0.697   4.371
  438SOL     OW 1329   1.842   1.767   4.083
  438SOL    HW1 1330   1.896   1.738   4.163
  438SOL    HW2 1331   1.872   1.857   4.054
  439SOL     OW 1332   0.027   1.596   3.841
  439SOL    HW1 1333   0.008   1.500   3.862
  439SOL    HW2 1334  -0.006   1.654   3.916
  440SOL     OW 1335   1.689   0.922   4.336
  440SOL    HW1 1336   1.784   0.893   4.344
  440SOL    HW2 1337   1.681   0.987   4.261
  441SOL     OW 1338   1.641   1.108   4.156
  441SOL    HW1 1339   1.727   1.110   4.104
  441SOL    HW2 1340   1.655   1.155   4.244
  442SOL     OW 1341   0.613   1.365   4.450
  442SOL    HW1 1342   0.564   1.278   4.459
  442SOL    HW2 1343   0.590   1.408   4.363
  443SOL     OW 1344   0.809   0.004   4.226
  443SOL    HW1 1345   0.849   0.095   4.217
  443SOL    HW2 1346   0.709   0.012   4.232
  444SOL     OW 1347   1.525   0.999   3.914
  444SOL    HW1 1348   1.462   0.923   3.927
  444SOL    HW2 1349   1.573   1.017   4.000
  445SOL     OW 1350   1.667   1.714   4.296
  445SOL    HW1 1351   1.626   1.691   4.208
  445SOL    HW2 1352   1.649   1.640   4.361
  446SOL     OW 1353   0.598   0.729   3.994
  446SOL    HW1 1354   0.622   0.798   3.926
  446SOL    HW2 1355   0.520   0.762   4.048
  447SOL     OW 1356   1.281   0.345   4.668
  447SOL    HW1 1357   1.195   0.295   4.655
  447SOL    HW2 1358   1.343   0.291   4.724
  448SOL     OW 1359   1.576   1.662   4.031
  448SOL    HW1 1360   1.665   1.708   4.034
  448SOL    HW2 1361   1.555   1.638   3.936
  449SOL     OW 1362   1.041   0.701   4.153
  449SOL    HW1 1363   1.067   0.697   4.249
  449SOL    HW2 1364   0.956   0.650   4.139
  450SOL     OW 1365   0.076   0.811   4.513
  450SOL    HW1 1366   0.175   0.799   4.522
  450SOL    HW2 1367   0.052   0.906   4.534
  451SOL     OW 1368   0.865   0.348   3.919
  451SOL    HW1 1369   0.924   0.411   3.870
  451SOL    HW2 1370   0.884   0.254   3.890
  452SOL     OW 1371   1.362   1.144   4.269
  452SOL    HW1 1372   1.445   1.115   4.221
  452SOL    HW2 1373   1.313   1.211   4.213
  453SOL     OW 1374   1.008   1.456   4.201
  453SOL    HW1 1375   0.962   1.528   4.149
  453SOL    HW2 1376   1.004   1.476   4.299
  454SOL     OW 1377   0.351   1.801   4.577
  454SOL    HW1 1378   0.401   1.715   4.583
  454SOL    HW2 1379   0.416   1.878   4.574
  455SOL     OW 1380   1.795   1.066   4.597
  455SOL    HW1 1381   1.733   1.051   4.521
  455SOL    HW2 1382   1.743   1.077   4.682
  456SOL     OW 1383   0.321   0.943   3.966
  456SOL    HW1 1384   0.403   0.982   3.924
  456SOL    HW2 1385   0.294   0.861   3.917
  457SOL     OW 1386   1.458   0.735   4.452
  457SOL    HW1 1387   1.453   0.670   4.527
  457SOL    HW2 1388   1.538   0.794   4.465
  458SOL     OW 1389   1.111   1.776   3.961
  458SOL    HW1 1390   1.051   1.714   4.011
  458SOL    HW2 1391   1.142   1.732   3.876
  459SOL     OW 1392   1.632   1.377   3.805
  459SOL    HW1 1393   1.600   1.471   3.795
  459SOL    HW2 1394   1.556   1.314   3.793
  460SOL     OW 1395   0.464   1.743   4.047
  460SOL    HW1 1396   0.497   1.782   4.133
  460SOL    HW2 1397   0.540   1.736   3.982
  461SOL     OW 1398   1.400   0.107   4.150
  461SOL    HW1 1399   1.376   0.070   4.060
  461SOL    HW2 1400   1.499   0.123   4.154
  462SOL     OW 1401   0.940   1.698   4.628
  462SOL    HW1 1402   1.020   1.641   4.649
  462SOL    HW2 1403   0.891   1.658   4.551
  463SOL     OW 1404   0.382   0.700   4.204
  463SOL    HW1 1405   0.427   0.610   4.201
  463SOL    HW2 1406   0.288   0.689   4.237
  464SOL     OW 1407   0.614   0.122   3.841
  464SOL    HW1 1408   0.712   0.100   3.848
  464SOL    HW2 1409   0.583   0.105   3.748
  465SOL     OW 1410   0.539   0.064   4.236
  465SOL    HW1 1411   0.458   0.065   4.294
  465SOL    HW2 1412   0.542   0.147   4.181
  466SOL     OW 1413   1.434   1.188   3.765
  466SOL    HW1 1414   1.466   1.112   3.822
  466SOL    HW2 1415   1.342   1.215   3.795
  467SOL     OW 1416   0.297   0.035   3.895
  467SOL    HW1 1417   0.346   0.119   3.874
  467SOL    HW2 1418   0.359  -0.030   3.940
  468SOL     OW 1419   0.935   0.236   4.204
  468SOL    HW1 1420   0.887   0.277   4.126
  468SOL    HW2 1421   1.034   0.234   4.185
  469SOL     OW 1422   0.459   1.152   4.465
  469SOL    HW1 1423   0.388   1.125   4.530
  469SOL    HW2 1424   0.433   1.124   4.372
  470SOL     OW 1425   1.271   1.797   4.315
  470SOL    HW1 1426   1.315   1.861   4.251
  470SOL    HW2 1427   1.221   1.849   4.385
  471SOL     OW 1428   1.032   0.549   3.740
  471SOL    HW1 1429   0.991   0.631   3.701
  471SOL    HW2 1430   1.096   0.575   3.813
  472SOL     OW 1431   0.866   0.454   4.366
  472SOL    HW1 1432   0.834   0.526   4.304
  472SOL    HW2 1433   0.890   0.373   4.313
  473SOL     OW 1434   1.857   0.833   4.101
  473SOL    HW1 1435   1.899   0.769   4.165
  473SOL    HW2 1436   1.819   0.782   4.023
  474SOL     OW 1437   0.488   1.385   3.898
  474SOL    HW1 1438   0.401   1.370   3.945
  474SOL    HW2 1439   0.471   1.411   3.803
  475SOL     OW 1440   1.664   1.280   4.381
  475SOL    HW1 1441   1.763   1.288   4.395
  475SOL    HW2 1442   1.619   1.364   4.412
  476SOL     OW 1443   1.390   0.575   3.802
  476SOL    HW1 1444   1.336   0.554   3.883
  476SOL    HW2 1445   1.481   0.534   3.811
  477SOL     OW 1446   0.527   0.256   4.052
  477SOL    HW1 1447   0.554   0.197   3.977
  477SOL    HW2 1448   0.527   0.351   4.021
  478SOL     OW 1449   0.705   1.050   4.092
  478SOL    HW1 1450   0.691   1.057   4.191
  478SOL    HW2 1451   0.789   0.999   4.074
  479SOL     OW 1452   0.367   1.100   4.225
  479SOL    HW1 1453   0.360   1.183   4.169
  479SOL    HW2 1454   0.371   1.020   4.165
  480SOL     OW 1455   1.252   1.348   4.112
  480SOL    HW1 1456   1.302   1.425   4.152
  480SOL    HW2 1457   1.157   1.350   4.144
  481SOL     OW 1458   1.582   0.639   4.196
  481SOL    HW1 1459   1.551   0.700   4.269
  481SOL    HW2 1460   1.632   0.691   4.127
  482SOL     OW 1461   1.209   0.525   3.999
  482SOL    HW1 1462   1.222   0.441   4.053
  482SOL    HW2 1463   1.180   0.599   4.059
  483SOL     OW 1464   0.307   0.063   4.342
  483SOL    HW1 1465   0.296   0.157   4.375
  483SOL    HW2 1466   0.302   0.000   4.419
  484SOL     OW 1467   1.622   0.367   4.098
  484SOL    HW1 1468   1.624   0.291   4.162
  484SOL    HW2 1469   1.574   0.444   4.138
  485SOL     OW 1470   1.023   0.766   4.690
  485SOL    HW1 1471   1.038   0.787   4.786
  485SOL    HW2 1472   0.993   0.671   4.681
  486SOL     OW 1473   1.540   0.274   3.849
  486SOL    HW1 1474   1.479   0.199   3.872
  486SOL    HW2 1475   1.562   0.326   3.932
  487SOL     OW 1476   1.303   0.838   3.766
  487SOL    HW1 1477   1.337   0.745   3.781
  487SOL    HW2 1478   1.321   0.865   3.671
  488SOL     OW 1479   0.008   1.326   3.924
  488SOL    HW1 1480  -0.085   1.347   3.893
  488SOL    HW2 1481   0.018   1.227   3.937
  489SOL     OW 1482   0.040   0.544   4.838
  489SOL    HW1 1483   0.125   0.511   4.797
  489SOL    HW2 1484   0.053   0.559   4.936
  490SOL     OW 1485   0.815   0.572   4.049
  490SOL    HW1 1486   0.822   0.483   4.003
  490SOL    HW2 1487   0.721   0.606   4.041
  491SOL     OW 1488   0.473   0.500   3.915
  491SOL    HW1 1489   0.534   0.580   3.919
  491SOL    HW2 1490   0.378   0.531   3.922
  492SOL     OW 1491   1.302   0.855   4.033
  492SOL    HW1 1492   1.216   0.824   4.075
  492SOL    HW2 1493   1.298   0.841   3.934
  493SOL     OW 1494   1.726   0.135   4.247
  493SOL    HW1 1495   1.799   0.118   4.180
  493SOL    HW2 1496   1.695   0.048   4.285
  494SOL     OW 1497   1.388   1.573   4.201
  494SOL    HW1 1498   1.455   1.585   4.127
  494SOL    HW2 1499   1.348   1.662   4.224
  495SOL     OW 1500   0.672   1.616   3.878
  495SOL    HW1 1501   0.681   1.626   3.779
  495SOL    HW2 1502   0.632   1.527   3.899
  496SOL     OW 1503   1.841   0.175   4.687
  496SOL    HW1 1504   1.880   0.090   4.651
  496SOL    HW2 1505   1.743   0.177   4.668
  497SOL     OW 1506   0.263   0.326   4.444
  497SOL    HW1 1507   0.184   0.377   4.410
  497SOL    HW2 1508   0.254   0.311   4.542
  498SOL     OW 1509   1.194   1.612   3.755
  498SOL    HW1 1510   1.200   1.519   3.792
  498SOL    HW2 1511   1.135   1.612   3.675
  499SOL     OW 1512   0.916   0.910   4.015
  499SOL    HW1 1513   0.979   0.948   3.947
  499SOL    HW2 1514   0.956   0.827   4.054
  500SOL     OW 1515   1.504   1.607   3.768
  500SOL    HW1 1516   1.412   1.644   3.775
  500SOL    HW2 1517   1.542   1.627   3.678
  501SOL     OW 1518   0.590   1.487   4.215
  501SOL    HW1 1519   0.632   1.429   4.145
  501SOL    HW2 1520   0.546   1.566   4.171
  502SOL     OW 1521   0.255   1.348   4.014
  502SOL    HW1 1522   0.159   1.349   3.987
  502SOL    HW2 1523   0.267   1.401   4.098
  503SOL     OW 1524   0.075   0.345   3.757
  503SOL    HW1 1525  -0.017   0.317   3.728
  503SOL    HW2 1526   0.106   0.422   3.701
  504SOL     OW 1527   0.072   0.166   4.042
  504SOL    HW1 1528   0.055   0.249   3.988
  504SOL    HW2 1529   0.162   0.129   4.020
  505SOL     OW 1530   1.183   1.335   3.843
  505SOL    HW1 1531   1.084   1.324   3.845
  505SOL    HW2 1532   1.217   1.350   3.936
  506SOL     OW 1533   1.225   0.325   4.173
  506SOL    HW1 1534   1.290   0.251   4.162
  506SOL    HW2 1535   1.245   0.375   4.257
  507SOL     OW 1536   0.594   0.745   4.376
  507SOL    HW1 1537   0.644   0.830   4.357
  507SOL    HW2 1538   0.506   0.747   4.328
  508SOL     OW 1539   0.859   1.374   3.740
  508SOL    HW1 1540   0.813   1.389   3.828
  508SOL    HW2 1541   0.903   1.459   3.710
  509SOL     OW 1542   0.661   1.790   4.677
  509SOL    HW1 1543   0.615   1.878   4.664
  509SOL    HW2 1544   0.760   1.802   4.670
  510SOL     OW 1545   0.859   0.956   4.585
  510SOL    HW1 1546   0.913   0.887   4.633
  510SOL    HW2 1547   0.827   1.025   4.651
  511SOL     OW 1548   1.083   0.984   3.811
  511SOL    HW1 1549   1.060   1.037   3.729
  511SOL    HW2 1550   1.164   0.928   3.792
  512SOL     OW 1551   0.079   1.240   4.377
  512SOL    HW1 1552   0.078   1.193   4.465
  512SOL    HW2 1553   0.161   1.212   4.326
  513SOL     OW 1554   0.428   0.424   4.244
  513SOL    HW1 1555   0.458   0.352   4.182
  513SOL    HW2 1556   0.389   0.384   4.327
  514SOL     OW 1557   1.705   1.487   4.828
  514SOL    HW1 1558   1.612   1.462   4.801
  514SOL    HW2 1559   1.731   1.437   4.910
  515SOL     OW 1560   0.812   1.586   4.411
  515SOL    HW1 1561   0.844   1.596   4.317
  515SOL    HW2 1562   0.733   1.524   4.413
  516SOL     OW 1563   0.770   1.330   4.025
  516SOL    HW1 1564   0.724   1.243   4.042
  516SOL    HW2 1565   0.861   1.327   4.066
  517SOL     OW 1566   1.352   0.052   3.892
  517SOL    HW1 1567   1.387   0.011   3.808
  517SOL    HW2 1568   1.262   0.014   3.912
  518SOL     OW 1569   1.300   0.453   4.415
  518SOL    HW1 1570   1.241   0.533   4.419
  518SOL    HW2 1571   1.315   0.418   4.508
  519SOL     OW 1572   0.039   1.077   4.024
  519SOL    HW1 1573   0.138   1.066   4.015
  519SOL    HW2 1574  -0.001   0.991   4.056
  520SOL     OW 1575   0.875   1.646   4.061
  520SOL    HW1 1576   0.798   1.611   4.007
  520SOL    HW2 1577   0.843   1.717   4.123
  521SOL     OW 1578   0.230   2.490   0.113
  521SOL    HW1 1579   0.137   2.488   0.150
  521SOL    HW2 1580   0.231   2.451   0.021
  522SOL     OW 1581   0.225   2.137   0.996
  522SOL    HW1 1582   0.260   2.120   1.088
  522SOL    HW2 1583   0.137   2.092   0.984
  523SOL     OW 1584   0.019   2.230   0.647
  523SOL    HW1 1585  -0.063   2.273   0.686
  523SOL    HW2 1586  -0.009   2.157   0.584
  524SOL     OW 1587   0.569   3.137   1.165
  524SOL    HW1 1588   0.476   3.130   1.128
  524SOL    HW2 1589   0.580   3.226   1.209
  525SOL     OW 1590   1.555   3.373   0.703
  525SOL    HW1 1591   1.498   3.357   0.784
  525SOL    HW2 1592   1.496   3.383   0.623
  526SOL     OW 1593   1.135   2.565   0.717
  526SOL    HW1 1594   1.192   2.643   0.692
  526SOL    HW2 1595   1.075   2.591   0.793
  527SOL     OW 1596   1.755   2.469   0.231
  527SOL    HW1 1597   1.743   2.456   0.132
  527SOL    HW2 1598   1.725   2.388   0.280
  528SOL     OW 1599   0.768   3.006   1.023
  528SOL    HW1 1600   0.690   3.023   1.083
  528SOL    HW2 1601   0.802   3.093   0.987
  529SOL     OW 1602   0.850   2.660   1.823
  529SOL    HW1 1603   0.846   2.736   1.888
  529SOL    HW2 1604   0.872   2.696   1.732
  530SOL     OW 1605   0.685   2.874   0.665
  530SOL    HW1 1606   0.754   2.858   0.735
  530SOL    HW2 1607   0.612   2.931   0.703
  531SOL     OW 1608   0.686   3.023   1.803
  531SOL    HW1 1609   0.746   3.102   1.817
  531SOL    HW2 1610   0.600   3.054   1.762
  532SOL     OW 1611   0.335   3.297   1.061
  532SOL    HW1 1612   0.257   3.266   1.008
  532SOL    HW2 1613   0.393   3.355   1.004
  533SOL     OW 1614   1.460   3.367   1.339
  533SOL    HW1 1615   1.484   3.461   1.365
  533SOL    HW2 1616   1.444   3.313   1.421
  534SOL     OW 1617   0.438   2.254   1.499
  534SOL    HW1 1618   0.520   2.198   1.508
  534SOL    HW2 1619   0.357   2.196   1.503
  535SOL     OW 1620   1.603   2.309   0.737
  535SOL    HW1 1621   1.529   2.355   0.687
  535SOL    HW2 1622   1.654   2.377   0.790
  536SOL     OW 1623   0.231   3.575   0.483
  536SOL    HW1 1624   0.265   3.652   0.537
  536SOL    HW2 1625   0.275   3.575   0.393
  537SOL     OW 1626   1.127   3.203   1.690
  537SOL    HW1 1627   1.174   3.203   1.778
  537SOL    HW2 1628   1.079   3.116   1.679
  538SOL     OW 1629   0.230   3.296   0.538
  538SOL    HW1 1630   0.204   3.392   0.538
  538SOL    HW2 1631   0.159   3.242   0.583
  539SOL     OW 1632   0.240   2.953   0.886
  539SOL    HW1 1633   0.254   2.869   0.938
  539SOL    HW2 1634   0.185   3.017   0.941
  540SOL     OW 1635   0.620   3.648   1.439
  540SOL    HW1 1636   0.528   3.631   1.474
  540SOL    HW2 1637   0.648   3.740   1.465
  541SOL     OW 1638   0.606   2.826   0.123
  541SOL    HW1 1639   0.613   2.910   0.069
  541SOL    HW2 1640   0.652   2.839   0.211
  542SOL     OW 1641   1.594   1.976   1.480
  542SOL    HW1 1642   1.576   2.043   1.408
  542SOL    HW2 1643   1.591   2.022   1.569
  543SOL     OW 1644   0.122   2.505   0.563
  543SOL    HW1 1645   0.077   2.417   0.580
  543SOL    HW2 1646   0.121   2.559   0.647
  544SOL     OW 1647   1.842   3.629   0.359
  544SOL    HW1 1648   1.896   3.600   0.439
  544SOL    HW2 1649   1.872   3.719   0.330
  545SOL     OW 1650   0.027   3.458   0.117
  545SOL    HW1 1651   0.008   3.362   0.138
  545SOL    HW2 1652  -0.006   3.516   0.192
  546SOL     OW 1653   1.689   2.784   0.612
  546SOL    HW1 1654   1.784   2.755   0.620
  546SOL    HW2 1655   1.681   2.849   0.537
  547SOL     OW 1656   1.641   2.970   0.432
  547SOL    HW1 1657   1.727   2.972   0.380
  547SOL    HW2 1658   1.655   3.017   0.520
  548SOL     OW 1659   0.113   2.599   1.597
  548SOL    HW1 1660   0.201   2.586   1.642
  548SOL    HW2 1661   0.100   2.696   1.575
  549SOL     OW 1662   0.613   3.227   0.726
  549SOL    HW1 1663   0.564   3.140   0.735
  549SOL    HW2 1664   0.590   3.270   0.639
  550SOL     OW 1665   1.293   3.090   1.423
  550SOL    HW1 1666   1.330   3.017   1.365
  550SOL    HW2 1667   1.345   3.095   1.508
  551SOL     OW 1668   0.809   1.866   0.502
  551SOL    HW1 1669   0.849   1.957   0.493
  551SOL    HW2 1670   0.709   1.874   0.508
  552SOL     OW 1671   0.197   2.838   1.264
  552SOL    HW1 1672   0.286   2.793   1.250
  552SOL    HW2 1673   0.124   2.773   1.245
  553SOL     OW 1674   1.525   2.861   0.190
  553SOL    HW1 1675   1.462   2.785   0.203
  553SOL    HW2 1676   1.573   2.879   0.276
  554SOL     OW 1677   1.187   3.654   1.616
  554SOL    HW1 1678   1.211   3.714   1.540
  554SOL    HW2 1679   1.194   3.559   1.586
  555SOL     OW 1680   0.317   2.113   1.801
  555SOL    HW1 1681   0.388   2.184   1.807
  555SOL    HW2 1682   0.229   2.152   1.829
  556SOL     OW 1683   1.466   3.279   0.953
  556SOL    HW1 1684   1.407   3.285   1.033
  556SOL    HW2 1685   1.451   3.191   0.907
  557SOL     OW 1686   1.667   3.576   0.572
  557SOL    HW1 1687   1.626   3.553   0.484
  557SOL    HW2 1688   1.649   3.502   0.637
  558SOL     OW 1689   0.598   2.591   0.270
  558SOL    HW1 1690   0.622   2.660   0.202
  558SOL    HW2 1691   0.520   2.624   0.324
  559SOL     OW 1692   1.281   2.207   0.944
  559SOL    HW1 1693   1.195   2.157   0.931
  559SOL    HW2 1694   1.343   2.153   1.000
  560SOL     OW 1695   1.576   3.524   0.307
  560SOL    HW1 1696   1.665   3.570   0.310
  560SOL    HW2 1697   1.555   3.500   0.212
  561SOL     OW 1698   0.807   2.467   1.465
  561SOL    HW1 1699   0.760   2.464   1.554
  561SOL    HW2 1700   0.756   2.412   1.399
  562SOL     OW 1701   1.394   2.331   1.674
  562SOL    HW1 1702   1.374   2.374   1.762
  562SOL    HW2 1703   1.472   2.269   1.683
  563SOL     OW 1704   0.973   2.752   1.572
  563SOL    HW1 1705   1.019   2.668   1.543
  563SOL    HW2 1706   0.917   2.786   1.497
  564SOL     OW 1707   0.991   2.272   1.242
  564SOL    HW1 1708   0.914   2.306   1.296
  564SOL    HW2 1709   0.957   2.221   1.163
  565SOL     OW 1710   1.041   2.563   0.429
  565SOL    HW1 1711   1.067   2.559   0.525
  565SOL    HW2 1712   0.956   2.512   0.415
  566SOL     OW 1713   0.076   2.673   0.789
  566SOL    HW1 1714   0.175   2.661   0.798
  566SOL    HW2 1715   0.052   2.768   0.810
  567SOL     OW 1716   0.130   3.683   1.571
  567SOL    HW1 1717   0.120   3.668   1.670
  567SOL    HW2 1718   0.044   3.719   1.535
  568SOL     OW 1719   0.865   2.210   0.195
  568SOL    HW1 1720   0.924   2.273   0.146
  568SOL    HW2 1721   0.884   2.116   0.166
  569SOL     OW 1722   1.719   2.447   1.831
  569SOL    HW1 1723   1.693   2.536   1.795
  569SOL    HW2 1724   1.717   2.379   1.758
  570SOL     OW 1725   1.362   3.006   0.545
  570SOL    HW1 1726   1.445   2.977   0.497
  570SOL    HW2 1727   1.313   3.073   0.489
  571SOL     OW 1728   0.550   2.058   0.885
  571SOL    HW1 1729   0.545   2.053   0.985
  571SOL    HW2 1730   0.552   2.154   0.856
  572SOL     OW 1731   1.008   3.318   0.477
  572SOL    HW1 1732   0.962   3.390   0.425
  572SOL    HW2 1733   1.004   3.338   0.575
  573SOL     OW 1734   0.351   3.663   0.853
  573SOL    HW1 1735   0.401   3.577   0.859
  573SOL    HW2 1736   0.416   3.740   0.850
  574SOL     OW 1737   1.795   2.928   0.873
  574SOL    HW1 1738   1.733   2.913   0.797
  574SOL    HW2 1739   1.743   2.939   0.958
  575SOL     OW 1740   1.227   3.412   1.506
  575SOL    HW1 1741   1.233   3.335   1.570
  575SOL    HW2 1742   1.175   3.386   1.426
  576SOL     OW 1743   0.321   2.805   0.242
  576SOL    HW1 1744   0.403   2.844   0.200
  576SOL    HW2 1745   0.294   2.723   0.193
  577SOL     OW 1746   1.458   2.597   0.728
  577SOL    HW1 1747   1.453   2.532   0.803
  577SOL    HW2 1748   1.538   2.656   0.741
  578SOL     OW 1749   0.461   3.128   1.727
  578SOL    HW1 1750   0.411   3.129   1.641
  578SOL    HW2 1751   0.398   3.110   1.803
  579SOL     OW 1752   1.111   3.638   0.237
  579SOL    HW1 1753   1.051   3.576   0.287
  579SOL    HW2 1754   1.142   3.594   0.152
  580SOL     OW 1755   0.202   2.147   1.498
  580SOL    HW1 1756   0.122   2.207   1.485
  580SOL    HW2 1757   0.192   2.098   1.584
  581SOL     OW 1758   1.632   3.239   0.081
  581SOL    HW1 1759   1.600   3.333   0.071
  581SOL    HW2 1760   1.556   3.176   0.069
  582SOL     OW 1761   0.464   3.605   0.323
  582SOL    HW1 1762   0.497   3.644   0.409
  582SOL    HW2 1763   0.540   3.598   0.258
  583SOL     OW 1764   1.400   1.969   0.426
  583SOL    HW1 1765   1.376   1.932   0.336
  583SOL    HW2 1766   1.499   1.985   0.430
  584SOL     OW 1767   0.249   3.647   1.241
  584SOL    HW1 1768   0.306   3.582   1.291
  584SOL    HW2 1769   0.233   3.614   1.148
  585SOL     OW 1770   0.940   3.560   0.904
  585SOL    HW1 1771   1.020   3.503   0.925
  585SOL    HW2 1772   0.891   3.520   0.827
  586SOL     OW 1773   0.382   2.562   0.480
  586SOL    HW1 1774   0.427   2.472   0.477
  586SOL    HW2 1775   0.288   2.551   0.513
  587SOL     OW 1776   1.547   2.084   1.729
  587SOL    HW1 1777   1.542   2.121   1.821
  587SOL    HW2 1778   1.475   2.015   1.717
  588SOL     OW 1779   0.781   2.126   1.749
  588SOL    HW1 1780   0.848   2.065   1.792
  588SOL    HW2 1781   0.708   2.145   1.814
  589SOL     OW 1782   0.888   3.376   1.195
  589SOL    HW1 1783   0.865   3.351   1.101
  589SOL    HW2 1784   0.949   3.307   1.234
  590SOL     OW 1785   1.351   2.452   1.433
  590SOL    HW1 1786   1.379   2.409   1.518
  590SOL    HW2 1787   1.376   2.548   1.434
  591SOL     OW 1788   0.803   3.264   0.924
  591SOL    HW1 1789   0.893   3.278   0.882
  591SOL    HW2 1790   0.732   3.266   0.853
  592SOL     OW 1791   0.922   2.365   0.899
  592SOL    HW1 1792   0.897   2.356   0.803
  592SOL    HW2 1793   0.970   2.283   0.930
  593SOL     OW 1794   0.539   1.926   0.512
  593SOL    HW1 1795   0.458   1.927   0.570
  593SOL    HW2 1796   0.542   2.009   0.457
  594SOL     OW 1797   1.434   3.050   0.041
  594SOL    HW1 1798   1.466   2.974   0.098
  594SOL    HW2 1799   1.342   3.077   0.071
  595SOL     OW 1800   0.297   1.897   0.171
  595SOL    HW1 1801   0.346   1.981   0.150
  595SOL    HW2 1802   0.359   1.832   0.216
  596SOL     OW 1803   0.935   2.098   0.480
  596SOL    HW1 1804   0.887   2.139   0.402
  596SOL    HW2 1805   1.034   2.096   0.461
  597SOL     OW 1806   1.076   2.545   1.464
  597SOL    HW1 1807   0.996   2.484   1.467
  597SOL    HW2 1808   1.157   2.492   1.440
  598SOL     OW 1809   1.227   3.432   0.793
  598SOL    HW1 1810   1.248   3.506   0.728
  598SOL    HW2 1811   1.295   3.432   0.866
  599SOL     OW 1812   0.459   3.014   0.741
  599SOL    HW1 1813   0.388   2.987   0.806
  599SOL    HW2 1814   0.433   2.986   0.648
  600SOL     OW 1815   1.271   3.659   0.591
  600SOL    HW1 1816   1.315   3.723   0.527
  600SOL    HW2 1817   1.221   3.711   0.661
  601SOL     OW 1818   1.032   2.411   0.016
  601SOL    HW1 1819   0.991   2.493  -0.023
  601SOL    HW2 1820   1.096   2.437   0.089
  602SOL     OW 1821   0.078   2.418   1.386
  602SOL    HW1 1822   0.170   2.417   1.345
  602SOL    HW2 1823   0.072   2.492   1.453
  603SOL     OW 1824   0.561   2.084   1.147
  603SOL    HW1 1825   0.599   2.000   1.184
  603SOL    HW2 1826   0.473   2.103   1.191
  604SOL     OW 1827   0.866   2.316   0.642
  604SOL    HW1 1828   0.834   2.388   0.580
  604SOL    HW2 1829   0.890   2.235   0.589
  605SOL     OW 1830   1.017   1.901   0.753
  605SOL    HW1 1831   0.945   1.906   0.684
  605SOL    HW2 1832   0.993   1.832   0.822
  606SOL     OW 1833   1.429   3.035   0.867
  606SOL    HW1 1834   1.374   2.951   0.860
  606SOL    HW2 1835   1.455   3.064   0.775
  607SOL     OW 1836   1.466   2.452   0.992
  607SOL    HW1 1837   1.436   2.357   0.999
  607SOL    HW2 1838   1.539   2.468   1.058
  608SOL     OW 1839   1.857   2.695   0.377
  608SOL    HW1 1840   1.899   2.631   0.441
  608SOL    HW2 1841   1.819   2.644   0.299
  609SOL     OW 1842   0.488   3.247   0.174
  609SOL    HW1 1843   0.401   3.232   0.221
  609SOL    HW2 1844   0.471   3.273   0.079
  610SOL     OW 1845   1.664   3.142   0.657
  610SOL    HW1 1846   1.763   3.150   0.671
  610SOL    HW2 1847   1.619   3.226   0.688
  611SOL     OW 1848   1.390   2.437   0.078
  611SOL    HW1 1849   1.336   2.416   0.159
  611SOL    HW2 1850   1.481   2.396   0.087
  612SOL     OW 1851   0.527   2.118   0.328
  612SOL    HW1 1852   0.554   2.059   0.253
  612SOL    HW2 1853   0.527   2.213   0.297
  613SOL     OW 1854   1.754   3.085   1.588
  613SOL    HW1 1855   1.845   3.046   1.575
  613SOL    HW2 1856   1.762   3.181   1.612
  614SOL     OW 1857   1.064   3.209   1.340
  614SOL    HW1 1858   0.984   3.186   1.395
  614SOL    HW2 1859   1.147   3.183   1.389
  615SOL     OW 1860   1.592   3.491   1.625
  615SOL    HW1 1861   1.619   3.525   1.535
  615SOL    HW2 1862   1.671   3.453   1.671
  616SOL     OW 1863   1.111   3.057   1.100
  616SOL    HW1 1864   1.071   3.101   1.181
  616SOL    HW2 1865   1.070   3.094   1.017
  617SOL     OW 1866   1.638   2.961   1.079
  617SOL    HW1 1867   1.643   3.042   1.138
  617SOL    HW2 1868   1.552   2.963   1.028
  618SOL     OW 1869   0.915   1.951   1.402
  618SOL    HW1 1870   0.940   1.931   1.307
  618SOL    HW2 1871   0.987   2.007   1.444
  619SOL     OW 1872   0.980   2.978   1.719
  619SOL    HW1 1873   0.881   2.984   1.729
  619SOL    HW2 1874   1.003   2.898   1.663
  620SOL     OW 1875   0.705   2.912   0.368
  620SOL    HW1 1876   0.691   2.919   0.467
  620SOL    HW2 1877   0.789   2.861   0.350
  621SOL     OW 1878   0.410   2.675   1.251
  621SOL    HW1 1879   0.496   2.687   1.301
  621SOL    HW2 1880   0.368   2.588   1.278
  622SOL     OW 1881   1.274   2.248   1.262
  622SOL    HW1 1882   1.295   2.322   1.326
  622SOL    HW2 1883   1.185   2.265   1.219
  623SOL     OW 1884   0.064   3.426   1.331
  623SOL    HW1 1885   0.018   3.508   1.297
  623SOL    HW2 1886   0.162   3.445   1.340
  624SOL     OW 1887   0.367   2.962   0.501
  624SOL    HW1 1888   0.360   3.045   0.445
  624SOL    HW2 1889   0.371   2.882   0.441
  625SOL     OW 1890   0.566   2.399   0.865
  625SOL    HW1 1891   0.578   2.465   0.791
  625SOL    HW2 1892   0.612   2.433   0.948
  626SOL     OW 1893   1.252   3.210   0.388
  626SOL    HW1 1894   1.302   3.287   0.428
  626SOL    HW2 1895   1.157   3.212   0.420
  627SOL     OW 1896   1.272   3.307   1.142
  627SOL    HW1 1897   1.319   3.320   1.229
  627SOL    HW2 1898   1.206   3.233   1.151
  628SOL     OW 1899   1.582   2.501   0.472
  628SOL    HW1 1900   1.551   2.562   0.545
  628SOL    HW2 1901   1.632   2.553   0.403
  629SOL     OW 1902   0.354   3.372   1.329
  629SOL    HW1 1903   0.333   3.328   1.242
  629SOL    HW2 1904   0.451   3.398   1.332
  630SOL     OW 1905   0.402   2.613   1.598
  630SOL    HW1 1906   0.470   2.668   1.551
  630SOL    HW2 1907   0.442   2.525   1.625
  631SOL     OW 1908   1.587   2.641   1.670
  631SOL    HW1 1909   1.495   2.679   1.665
  631SOL    HW2 1910   1.647   2.688   1.605
  632SOL     OW 1911   1.013   1.967   1.770
  632SOL    HW1 1912   1.019   2.052   1.718
  632SOL    HW2 1913   1.045   1.891   1.713
  633SOL     OW 1914   0.504   1.912   1.740
  633SOL    HW1 1915   0.462   1.855   1.670
  633SOL    HW2 1916   0.438   1.981   1.772
  634SOL     OW 1917   0.573   2.732   1.029
  634SOL    HW1 1918   0.617   2.821   1.020
  634SOL    HW2 1919   0.510   2.732   1.106
  635SOL     OW 1920   1.360   2.724   1.045
  635SOL    HW1 1921   1.285   2.724   0.979
  635SOL    HW2 1922   1.397   2.632   1.054
  636SOL     OW 1923   1.209   2.387   0.275
  636SOL    HW1 1924   1.222   2.303   0.329
  636SOL    HW2 1925   1.180   2.461   0.335
  637SOL     OW 1926   0.307   2.075   1.231
  637SOL    HW1 1927   0.284   2.112   1.321
  637SOL    HW2 1928   0.277   1.980   1.225
  638SOL     OW 1929   0.037   3.172   1.282
  638SOL    HW1 1930   0.090   3.123   1.350
  638SOL    HW2 1931   0.059   3.270   1.287
  639SOL     OW 1932   0.732   2.496   1.064
  639SOL    HW1 1933   0.791   2.470   0.988
  639SOL    HW2 1934   0.704   2.592   1.053
  640SOL     OW 1935   1.728   2.797   1.854
  640SOL    HW1 1936   1.682   2.790   1.765
  640SOL    HW2 1937   1.666   2.841   1.920
  641SOL     OW 1938   0.307   1.925   0.618
  641SOL    HW1 1939   0.296   2.019   0.651
  641SOL    HW2 1940   0.302   1.862   0.695
  642SOL     OW 1941   1.622   2.229   0.374
  642SOL    HW1 1942   1.624   2.153   0.438
  642SOL    HW2 1943   1.574   2.306   0.414
  643SOL     OW 1944   1.023   2.628   0.966
  643SOL    HW1 1945   1.038   2.649   1.062
  643SOL    HW2 1946   0.993   2.533   0.957
  644SOL     OW 1947   0.980   3.435   1.700
  644SOL    HW1 1948   0.960   3.479   1.612
  644SOL    HW2 1949   1.019   3.344   1.684
  645SOL     OW 1950   1.859   3.380   1.605
  645SOL    HW1 1951   1.873   3.407   1.510
  645SOL    HW2 1952   1.942   3.402   1.658
  646SOL     OW 1953   0.350   2.760   1.804
  646SOL    HW1 1954   0.426   2.804   1.852
  646SOL    HW2 1955   0.385   2.713   1.722
  647SOL     OW 1956   1.540   2.136   0.125
  647SOL    HW1 1957   1.479   2.061   0.148
  647SOL    HW2 1958   1.562   2.188   0.208
  648SOL     OW 1959   1.303   2.700   0.042
  648SOL    HW1 1960   1.337   2.607   0.057
  648SOL    HW2 1961   1.321   2.727  -0.053
  649SOL     OW 1962   1.068   3.195   0.849
  649SOL    HW1 1963   1.075   3.111   0.794
  649SOL    HW2 1964   1.130   3.264   0.813
  650SOL     OW 1965   0.319   2.672   0.949
  650SOL    HW1 1966   0.412   2.708   0.954
  650SOL    HW2 1967   0.313   2.587   1.001
  651SOL     OW 1968   0.339   2.371   1.006
  651SOL    HW1 1969   0.287   2.288   0.989
  651SOL    HW2 1970   0.416   2.376   0.942
  652SOL     OW 1971   1.138   2.242   1.678
  652SOL    HW1 1972   1.093   2.305   1.742
  652SOL    HW2 1973   1.231   2.273   1.661
  653SOL     OW 1974   1.160   2.069   1.477
  653SOL    HW1 1975   1.160   2.133   1.554
  653SOL    HW2 1976   1.188   2.117   1.394
  654SOL     OW 1977   0.008   3.188   0.200
  654SOL    HW1 1978  -0.085   3.209   0.169
  654SOL    HW2 1979   0.018   3.089   0.213
  655SOL     OW 1980   0.088   3.663   0.927
  655SOL    HW1 1981   0.046   3.577   0.900
  655SOL    HW2 1982   0.182   3.666   0.893
  656SOL     OW 1983   0.504   3.430   0.910
  656SOL    HW1 1984   0.570   3.504   0.919
  656SOL    HW2 1985   0.548   3.351   0.868
  657SOL     OW 1986   1.002   2.658   1.238
  657SOL    HW1 1987   1.043   2.626   1.324
  657SOL    HW2 1988   0.906   2.631   1.235
  658SOL     OW 1989   0.040   2.406   1.114
  658SOL    HW1 1990   0.125   2.373   1.073
  658SOL    HW2 1991   0.053   2.421   1.212
  659SOL     OW 1992   0.189   2.382   1.722
  659SOL    HW1 1993   0.248   2.342   1.652
  659SOL    HW2 1994   0.131   2.453   1.681
  660SOL     OW 1995   1.369   2.812   1.660
  660SOL    HW1 1996   1.408   2.901   1.680
  660SOL    HW2 1997   1.379   2.792   1.563
  661SOL     OW 1998   0.815   2.434   0.325
  661SOL    HW1 1999   0.822   2.345   0.279
  661SOL    HW2 2000   0.721   2.468   0.317
  662SOL     OW 2001   1.657   2.466   1.206
  662SOL    HW1 2002   1.619   2.397   1.268
  662SOL    HW2 2003   1.739   2.430   1.162
  663SOL     OW 2004   0.252   3.426   1.744
  663SOL    HW1 2005   0.222   3.483   1.820
  663SOL    HW2 2006   0.245   3.329   1.770
  664SOL     OW 2007   0.671   2.326   1.269
  664SOL    HW1 2008   0.637   2.237   1.239
  664SOL    HW2 2009   0.697   2.380   1.189
  665SOL     OW 2010   0.930   3.540   1.465
  665SOL    HW1 2011   0.906   3.522   1.370
  665SOL    HW2 2012   0.960   3.634   1.475
  666SOL     OW 2013   0.473   2.362   0.191
  666SOL    HW1 2014   0.534   2.442   0.195
  666SOL    HW2 2015   0.378   2.393   0.198
  667SOL     OW 2016   0.159   2.999   1.466
  667SOL    HW1 2017   0.181   2.938   1.542
  667SOL    HW2 2018   0.169   2.950   1.380
  668SOL     OW 2019   1.347   2.921   1.234
  668SOL    HW1 2020   1.371   2.858   1.160
  668SOL    HW2 2021   1.257   2.961   1.216
  669SOL     OW 2022   1.302   2.717   0.309
  669SOL    HW1 2023   1.216   2.686   0.351
  669SOL    HW2 2024   1.298   2.703   0.210
  670SOL     OW 2025   1.759   3.609   1.154
  670SOL    HW1 2026   1.820   3.639   1.081
  670SOL    HW2 2027   1.721   3.520   1.132
  671SOL     OW 2028   1.252   3.593   1.128
  671SOL    HW1 2029   1.336   3.598   1.074
  671SOL    HW2 2030   1.229   3.497   1.146
  672SOL     OW 2031   0.083   3.120   1.022
  672SOL    HW1 2032   0.078   3.119   1.122
  672SOL    HW2 2033   0.000   3.079   0.984
  673SOL     OW 2034   0.688   3.524   1.716
  673SOL    HW1 2035   0.632   3.605   1.725
  673SOL    HW2 2036   0.740   3.528   1.630
  674SOL     OW 2037   0.903   1.948   0.133
  674SOL    HW1 2038   0.954   1.949   0.047
  674SOL    HW2 2039   0.959   1.906   0.204
  675SOL     OW 2040   1.726   1.997   0.523
  675SOL    HW1 2041   1.799   1.980   0.456
  675SOL    HW2 2042   1.695   1.910   0.561
  676SOL     OW 2043   1.388   3.435   0.477
  676SOL    HW1 2044   1.455   3.447   0.403
  676SOL    HW2 2045   1.348   3.524   0.500
  677SOL     OW 2046   0.130   3.656   1.851
  677SOL    HW1 2047   0.089   3.582   1.904
  677SOL    HW2 2048   0.194   3.707   1.909
  678SOL     OW 2049   1.280   2.789   0.672
  678SOL    HW1 2050   1.340   2.708   0.674
  678SOL    HW2 2051   1.320   2.858   0.612
  679SOL     OW 2052   0.830   3.135   1.422
  679SOL    HW1 2053   0.825   3.168   1.517
  679SOL    HW2 2054   0.744   3.154   1.376
  680SOL     OW 2055   0.672   3.478   0.154
  680SOL    HW1 2056   0.681   3.488   0.055
  680SOL    HW2 2057   0.632   3.389   0.175
  681SOL     OW 2058   1.650   3.582   1.394
  681SOL    HW1 2059   1.703   3.592   1.310
  681SOL    HW2 2060   1.623   3.672   1.428
  682SOL     OW 2061   1.841   2.037   0.963
  682SOL    HW1 2062   1.880   1.952   0.927
  682SOL    HW2 2063   1.743   2.039   0.944
  683SOL     OW 2064   0.263   2.188   0.720
  683SOL    HW1 2065   0.184   2.239   0.686
  683SOL    HW2 2066   0.254   2.173   0.818
  684SOL     OW 2067   1.194   3.474   0.031
  684SOL    HW1 2068   1.200   3.381   0.068
  684SOL    HW2 2069   1.135   3.474  -0.049
  685SOL     OW 2070   0.822   2.864   1.372
  685SOL    HW1 2071   0.862   2.863   1.280
  685SOL    HW2 2072   0.832   2.956   1.412
  686SOL     OW 2073   0.916   2.772   0.291
  686SOL    HW1 2074   0.979   2.810   0.223
  686SOL    HW2 2075   0.956   2.689   0.330
  687SOL     OW 2076   1.504   3.469   0.044
  687SOL    HW1 2077   1.412   3.506   0.051
  687SOL    HW2 2078   1.542   3.489  -0.046
  688SOL     OW 2079   0.372   3.150   1.490
  688SOL    HW1 2080   0.359   3.243   1.456
  688SOL    HW2 2081   0.288   3.098   1.477
  689SOL     OW 2082   1.614   3.154   1.289
  689SOL    HW1 2083   1.674   3.157   1.369
  689SOL    HW2 2084   1.539   3.218   1.302
  690SOL     OW 2085   1.039   2.960   0.696
  690SOL    HW1 2086   0.969   2.913   0.750
  690SOL    HW2 2087   1.098   2.892   0.653
  691SOL     OW 2088   1.014   2.098   0.971
  691SOL    HW1 2089   1.006   2.062   0.878
  691SOL    HW2 2090   1.012   2.022   1.036
  692SOL     OW 2091   0.590   3.349   0.491
  692SOL    HW1 2092   0.632   3.291   0.421
  692SOL    HW2 2093   0.546   3.428   0.447
  693SOL     OW 2094   1.709   2.247   1.381
  693SOL    HW1 2095   1.782   2.316   1.385
  693SOL    HW2 2096   1.737   2.172   1.322
  694SOL     OW 2097   0.255   3.210   0.290
  694SOL    HW1 2098   0.159   3.211   0.263
  694SOL    HW2 2099   0.267   3.263   0.374
  695SOL     OW 2100   0.105   2.875   1.726
  695SOL    HW1 2101   0.028   2.842   1.780
  695SOL    HW2 2102   0.190   2.845   1.768
  696SOL     OW 2103   0.672   2.065   1.489
  696SOL    HW1 2104   0.762   2.049   1.449
  696SOL    HW2 2105   0.680   2.070   1.588
  697SOL     OW 2106   0.075   2.207   0.033
  697SOL    HW1 2107  -0.017   2.179   0.004
  697SOL    HW2 2108   0.106   2.284  -0.023
  698SOL     OW 2109   1.440   2.718   1.398
  698SOL    HW1 2110   1.383   2.770   1.335
  698SOL    HW2 2111   1.536   2.730   1.374
  699SOL     OW 2112   0.072   2.028   0.318
  699SOL    HW1 2113   0.055   2.111   0.264
  699SOL    HW2 2114   0.162   1.991   0.296
  700SOL     OW 2115   1.183   3.197   0.119
  700SOL    HW1 2116   1.084   3.186   0.121
  700SOL    HW2 2117   1.217   3.212   0.212
  701SOL     OW 2118   0.613   2.704   1.431
  701SOL    HW1 2119   0.669   2.785   1.414
  701SOL    HW2 2120   0.672   2.624   1.434
  702SOL     OW 2121   1.493   3.629   0.959
  702SOL    HW1 2122   1.526   3.693   0.890
  702SOL    HW2 2123   1.559   3.623   1.034
  703SOL     OW 2124   0.716   2.427   1.708
  703SOL    HW1 2125   0.735   2.492   1.782
  703SOL    HW2 2126   0.776   2.347   1.717
  704SOL     OW 2127   1.450   3.082   1.633
  704SOL    HW1 2128   1.441   3.072   1.732
  704SOL    HW2 2129   1.546   3.075   1.607
  705SOL     OW 2130   0.390   3.603   1.560
  705SOL    HW1 2131   0.299   3.644   1.558
  705SOL    HW2 2132   0.383   3.509   1.592
  706SOL     OW 2133   1.674   2.745   1.254
  706SOL    HW1 2134   1.647   2.656   1.217
  706SOL    HW2 2135   1.675   2.813   1.181
  707SOL     OW 2136   1.225   2.187   0.449
  707SOL    HW1 2137   1.290   2.113   0.438
  707SOL    HW2 2138   1.245   2.237   0.533
  708SOL     OW 2139   0.594   2.607   0.652
  708SOL    HW1 2140   0.644   2.692   0.633
  708SOL    HW2 2141   0.506   2.609   0.604
  709SOL     OW 2142   1.777   2.204   1.642
  709SOL    HW1 2143   1.760   2.235   1.548
  709SOL    HW2 2144   1.693   2.167   1.680
  710SOL     OW 2145   1.730   2.796   1.517
  710SOL    HW1 2146   1.768   2.887   1.532
  710SOL    HW2 2147   1.722   2.779   1.418
  711SOL     OW 2148   0.859   3.236   0.016
  711SOL    HW1 2149   0.813   3.251   0.104
  711SOL    HW2 2150   0.903   3.321  -0.014
  712SOL     OW 2151   0.661   3.652   0.953
  712SOL    HW1 2152   0.615   3.740   0.940
  712SOL    HW2 2153   0.760   3.664   0.946
  713SOL     OW 2154   0.859   2.818   0.861
  713SOL    HW1 2155   0.913   2.749   0.909
  713SOL    HW2 2156   0.827   2.887   0.927
  714SOL     OW 2157   1.083   2.846   0.087
  714SOL    HW1 2158   1.060   2.899   0.005
  714SOL    HW2 2159   1.164   2.790   0.068
  715SOL     OW 2160   1.861   3.431   0.851
  715SOL    HW1 2161   1.790   3.419   0.781
  715SOL    HW2 2162   1.862   3.352   0.911
  716SOL     OW 2163   0.221   3.176   1.844
  716SOL    HW1 2164   0.156   3.103   1.823
  716SOL    HW2 2165   0.225   3.190   1.942
  717SOL     OW 2166   0.079   3.102   0.653
  717SOL    HW1 2167   0.078   3.055   0.741
  717SOL    HW2 2168   0.161   3.074   0.602
  718SOL     OW 2169   0.672   3.253   1.624
  718SOL    HW1 2170   0.594   3.203   1.662
  718SOL    HW2 2171   0.669   3.348   1.655
  719SOL     OW 2172   1.824   2.054   1.227
  719SOL    HW1 2173   1.820   1.964   1.271
  719SOL    HW2 2174   1.827   2.043   1.128
  720SOL     OW 2175   0.428   2.286   0.520
  720SOL    HW1 2176   0.458   2.214   0.458
  720SOL    HW2 2177   0.389   2.246   0.603
  721SOL     OW 2178   1.705   3.349   1.104
  721SOL    HW1 2179   1.612   3.324   1.077
  721SOL    HW2 2180   1.731   3.299   1.186
  722SOL     OW 2181   0.317   2.409   1.280
  722SOL    HW1 2182   0.355   2.350   1.352
  722SOL    HW2 2183   0.357   2.383   1.192
  723SOL     OW 2184   0.812   3.448   0.687
  723SOL    HW1 2185   0.844   3.458   0.593
  723SOL    HW2 2186   0.733   3.386   0.689
  724SOL     OW 2187   1.424   2.076   1.112
  724SOL    HW1 2188   1.476   2.011   1.167
  724SOL    HW2 2189   1.375   2.139   1.173
  725SOL     OW 2190   1.001   1.896   1.154
  725SOL    HW1 2191   0.938   1.824   1.123
  725SOL    HW2 2192   1.094   1.860   1.154
  726SOL     OW 2193   0.770   3.192   0.301
  726SOL    HW1 2194   0.724   3.105   0.318
  726SOL    HW2 2195   0.861   3.189   0.342
  727SOL     OW 2196   0.618   3.429   1.284
  727SOL    HW1 2197   0.613   3.511   1.341
  727SOL    HW2 2198   0.707   3.426   1.239
  728SOL     OW 2199   1.352   1.914   0.168
  728SOL    HW1 2200   1.387   1.873   0.084
  728SOL    HW2 2201   1.262   1.876   0.188
  729SOL     OW 2202   1.300   2.315   0.691
  729SOL    HW1 2203   1.241   2.395   0.695
  729SOL    HW2 2204   1.315   2.280   0.784
  730SOL     OW 2205   1.593   2.083   0.882
  730SOL    HW1 2206   1.509   2.082   0.936
  730SOL    HW2 2207   1.595   2.166   0.826
  731SOL     OW 2208   0.039   2.939   0.300
  731SOL    HW1 2209   0.138   2.928   0.291
  731SOL    HW2 2210  -0.001   2.853   0.332
  732SOL     OW 2211   0.875   3.508   0.337
  732SOL    HW1 2212   0.798   3.473   0.283
  732SOL    HW2 2213   0.843   3.579   0.399
  733SOL     OW 2214   0.230   2.490   1.975
  733SOL    HW1 2215   0.137   2.488   2.012
  733SOL    HW2 2216   0.231   2.451   1.883
  734SOL     OW 2217   0.225   2.137   2.858
  734SOL    HW1 2218   0.260   2.120   2.950
  734SOL    HW2 2219   0.137   2.092   2.846
  735SOL     OW 2220   0.019   2.230   2.509
  735SOL    HW1 2221  -0.063   2.273   2.548
  735SOL    HW2 2222  -0.009   2.157   2.446
  736SOL     OW 2223   0.569   3.137   3.027
  736SOL    HW1 2224   0.476   3.130   2.990
  736SOL    HW2 2225   0.580   3.226   3.071
  737SOL     OW 2226   1.555   3.373   2.565
  737SOL    HW1 2227   1.498   3.357   2.646
  737SOL    HW2 2228   1.496   3.383   2.485
  738SOL     OW 2229   1.135   2.565   2.579
  738SOL    HW1 2230   1.192   2.643   2.554
  738SOL    HW2 2231   1.075   2.591   2.655
  739SOL     OW 2232   1.755   2.469   2.093
  739SOL    HW1 2233   1.743   2.456   1.994
  739SOL    HW2 2234   1.725   2.388   2.142
  740SOL     OW 2235   0.768   3.006   2.885
  740SOL    HW1 2236   0.690   3.023   2.945
  740SOL    HW2 2237   0.802   3.093   2.849
  741SOL     OW 2238   0.850   2.660   3.685
  741SOL    HW1 2239   0.846   2.736   3.750
  741SOL    HW2 2240   0.872   2.696   3.594
  742SOL     OW 2241   0.685   2.874   2.527
  742SOL    HW1 2242   0.754   2.858   2.597
  742SOL    HW2 2243   0.612   2.931   2.565
  743SOL     OW 2244   0.686   3.023   3.665
  743SOL    HW1 2245   0.746   3.102   3.679
  743SOL    HW2 2246   0.600   3.054   3.624
  744SOL     OW 2247   0.335   3.297   2.923
  744SOL    HW1 2248   0.257   3.266   2.870
  744SOL    HW2 2249   0.393   3.355   2.866
  745SOL     OW 2250   1.460   3.367   3.201
  745SOL    HW1 2251   1.484   3.461   3.227
  745SOL    HW2 2252   1.444   3.313   3.283
  746SOL     OW 2253   0.438   2.254   3.361
  746SOL    HW1 2254   0.520   2.198   3.370
  746SOL    HW2 2255   0.357   2.196   3.365
  747SOL     OW 2256   1.603   2.309   2.599
  747SOL    HW1 2257   1.529   2.355   2.549
  747SOL    HW2 2258   1.654   2.377   2.652
  748SOL     OW 2259   0.231   3.575   2.345
  748SOL    HW1 2260   0.265   3.652   2.399
  748SOL    HW2 2261   0.275   3.575   2.255
  749SOL     OW 2262   1.127   3.203   3.552
  749SOL    HW1 2263   1.174   3.203   3.640
  749SOL    HW2 2264   1.079   3.116   3.541
  750SOL     OW 2265   0.230   3.296   2.400
  750SOL    HW1 2266   0.204   3.392   2.400
  750SOL    HW2 2267   0.159   3.242   2.445
  751SOL     OW 2268   0.240   2.953   2.748
  751SOL    HW1 2269   0.254   2.869   2.800
  751SOL    HW2 2270   0.185   3.017   2.803
  752SOL     OW 2271   0.620   3.648   3.301
  752SOL    HW1 2272   0.528   3.631   3.336
  752SOL    HW2 2273   0.648   3.740   3.327
  753SOL     OW 2274   0.606   2.826   1.985
  753SOL    HW1 2275   0.613   2.910   1.931
  753SOL    HW2 2276   0.652   2.839   2.073
  754SOL     OW 2277   1.594   1.976   3.342
  754SOL    HW1 2278   1.576   2.043   3.270
  754SOL    HW2 2279   1.591   2.022   3.431
  755SOL     OW 2280   0.122   2.505   2.425
  755SOL    HW1 2281   0.077   2.417   2.442
  755SOL    HW2 2282   0.121   2.559   2.509
  756SOL     OW 2283   1.842   3.629   2.221
  756SOL    HW1 2284   1.896   3.600   2.301
  756SOL    HW2 2285   1.872   3.719   2.192
  757SOL     OW 2286   0.027   3.458   1.979
  757SOL    HW1 2287   0.008   3.362   2.000
  757SOL    HW2 2288  -0.006   3.516   2.054
  758SOL     OW 2289   1.689   2.784   2.474
  758SOL    HW1 2290   1.784   2.755   2.482
  758SOL    HW2 2291   1.681   2.849   2.399
  759SOL     OW 2292   1.641   2.970   2.294
  759SOL    HW1 2293   1.727   2.972   2.242
  759SOL    HW2 2294   1.655   3.017   2.382
  760SOL     OW 2295   0.113   2.599   3.459
  760SOL    HW1 2296   0.201   2.586   3.504
  760SOL    HW2 2297   0.100   2.696   3.437
  761SOL     OW 2298   0.613   3.227   2.588
  761SOL    HW1 2299   0.564   3.140   2.597
  761SOL    HW2 2300   0.590   3.270   2.501
  762SOL     OW 2301   1.293   3.090   3.285
  762SOL    HW1 2302   1.330   3.017   3.227
  762SOL    HW2 2303   1.345   3.095   3.370
  763SOL     OW 2304   0.809   1.866   2.364
  763SOL    HW1 2305   0.849   1.957   2.355
  763SOL    HW2 2306   0.709   1.874   2.370
  764SOL     OW 2307   0.197   2.838   3.126
  764SOL    HW1 2308   0.286   2.793   3.112
  764SOL    HW2 2309   0.124   2.773   3.107
  765SOL     OW 2310   1.525   2.861   2.052
  765SOL    HW1 2311   1.462   2.785   2.065
  765SOL    HW2 2312   1.573   2.879   2.138
  766SOL     OW 2313   1.187   3.654   3.478
  766SOL    HW1 2314   1.211   3.714   3.402
  766SOL    HW2 2315   1.194   3.559   3.448
  767SOL     OW 2316   0.317   2.113   3.663
  767SOL    HW1 2317   0.388   2.184   3.669
  767SOL    HW2 2318   0.229   2.152   3.691
  768SOL     OW 2319   1.466   3.279   2.815
  768SOL    HW1 2320   1.407   3.285   2.895
  768SOL    HW2 2321   1.451   3.191   2.769
  769SOL     OW 2322   1.667   3.576   2.434
  769SOL    HW1 2323   1.626   3.553   2.346
  769SOL    HW2 2324   1.649   3.502   2.499
  770SOL     OW 2325   0.598   2.591   2.132
  770SOL    HW1 2326   0.622   2.660   2.064
  770SOL    HW2 2327   0.520   2.624   2.186
  771SOL     OW 2328   1.281   2.207   2.806
  771SOL    HW1 2329   1.195   2.157   2.793
  771SOL    HW2 2330   1.343   2.153   2.862
  772SOL     OW 2331   1.576   3.524   2.169
  772SOL    HW1 2332   1.665   3.570   2.172
  772SOL    HW2 2333   1.555   3.500   2.074
  773SOL     OW 2334   0.807   2.467   3.327
  773SOL    HW1 2335   0.760   2.464   3.416
  773SOL    HW2 2336   0.756   2.412   3.261
  774SOL     OW 2337   1.394   2.331   3.536
  774SOL    HW1 2338   1.374   2.374   3.624
  774SOL    HW2 2339   1.472   2.269   3.545
  775SOL     OW 2340   0.973   2.752   3.434
  775SOL    HW1 2341   1.019   2.668   3.405
  775SOL    HW2 2342   0.917   2.786   3.359
  776SOL     OW 2343   0.991   2.272   3.104
  776SOL    HW1 2344   0.914   2.306   3.158
  776SOL    HW2 2345   0.957   2.221   3.025
  777SOL     OW 2346   1.041   2.563   2.291
  777SOL    HW1 2347   1.067   2.559   2.387
  777SOL    HW2 2348   0.956   2.512   2.277
  778SOL     OW 2349   0.076   2.673   2.651
  778SOL    HW1 2350   0.175   2.661   2.660
  778SOL    HW2 2351   0.052   2.768   2.672
  779SOL     OW 2352   0.130   3.683   3.433
  779SOL    HW1 2353   0.120   3.668   3.532
  779SOL    HW2 2354   0.044   3.719   3.397
  780SOL     OW 2355   0.865   2.210   2.057
  780SOL    HW1 2356   0.924   2.273   2.008
  780SOL    HW2 2357   0.884   2.116   2.028
  781SOL     OW 2358   1.719   2.447   3.693
  781SOL    HW1 2359   1.693   2.536   3.657
  781SOL    HW2 2360   1.717   2.379   3.620
  782SOL     OW 2361   1.362   3.006   2.407
  782SOL    HW1 2362   1.445   2.977   2.359
  782SOL    HW2 2363   1.313   3.073   2.351
  783SOL     OW 2364   0.550   2.058   2.747
  783SOL    HW1 2365   0.545   2.053   2.847
  783SOL    HW2 2366   0.552   2.154   2.718
  784SOL     OW 2367   1.008   3.318   2.339
  784SOL    HW1 2368   0.962   3.390   2.287
  784SOL    HW2 2369   1.004   3.338   2.437
  785SOL     OW 2370   0.351   3.663   2.715
  785SOL    HW1 2371   0.401   3.577   2.721
  785SOL    HW2 2372   0.416   3.740   2.712
  786SOL     OW 2373   1.795   2.928   2.735
  786SOL    HW1 2374   1.733   2.913   2.659
  786SOL    HW2 2375   1.743   2.939   2.820
  787SOL     OW 2376   1.227   3.412   3.368
  787SOL    HW1 2377   1.233   3.335   3.432
  787SOL    HW2 2378   1.175   3.386   3.288
  788SOL     OW 2379   0.321   2.805   2.104
  788SOL    HW1 2380   0.403   2.844   2.062
  788SOL    HW2 2381   0.294   2.723   2.055
  789SOL     OW 2382   1.458   2.597   2.590
  789SOL    HW1 2383   1.453   2.532   2.665
  789SOL    HW2 2384   1.538   2.656   2.603
  790SOL     OW 2385   0.461   3.128   3.589
  790SOL    HW1 2386   0.411   3.129   3.503
  790SOL    HW2 2387   0.398   3.110   3.665
  791SOL     OW 2388   1.111   3.638   2.099
  791SOL    HW1 2389   1.051   3.576   2.149
  791SOL    HW2 2390   1.142   3.594   2.014
  792SOL     OW 2391   0.202   2.147   3.360
  792SOL    HW1 2392   0.122   2.207   3.347
  792SOL    HW2 2393   0.192   2.098   3.446
  793SOL     OW 2394   1.632   3.239   1.943
  793SOL    HW1 2395   1.600   3.333   1.933
  793SOL    HW2 2396   1.556   3.176   1.931
  794SOL     OW 2397   0.464   3.605   2.185
  794SOL    HW1 2398   0.497   3.644   2.271
  794SOL    HW2 2399   0.540   3.598   2.120
  795SOL     OW 2400   1.400   1.969   2.288
  795SOL    HW1 2401   1.376   1.932   2.198
  795SOL    HW2 2402   1.499   1.985   2.292
  796SOL     OW 2403   0.249   3.647   3.103
  796SOL    HW1 2404   0.306   3.582   3.153
  796SOL    HW2 2405   0.233   3.614   3.010
  797SOL     OW 2406   0.940   3.560   2.766
  797SOL    HW1 2407   1.020   3.503   2.787
  797SOL    HW2 2408   0.891   3.520   2.689
  798SOL     OW 2409   0.382   2.562   2.342
  798SOL    HW1 2410   0.427   2.472   2.339
  798SOL    HW2 2411   0.288   2.551   2.375
  799SOL     OW 2412   1.547   2.084   3.591
  799SOL    HW1 2413   1.542   2.121   3.683
  799SOL    HW2 2414   1.475   2.015   3.579
  800SOL     OW 2415   0.614   1.984   1.979
  800SOL    HW1 2416   0.712   1.962   1.986
  800SOL    HW2 2417   0.583   1.967   1.886
  801SOL     OW 2418   0.781   2.126   3.611
  801SOL    HW1 2419   0.848   2.065   3.654
  801SOL    HW2 2420   0.708   2.145   3.676
  802SOL     OW 2421   0.888   3.376   3.057
  802SOL    HW1 2422   0.865   3.351   2.963
  802SOL    HW2 2423   0.949   3.307   3.096
  803SOL     OW 2424   1.351   2.452   3.295
  803SOL    HW1 2425   1.379   2.409   3.380
  803SOL    HW2 2426   1.376   2.548   3.296
  804SOL     OW 2427   0.803   3.264   2.786
  804SOL    HW1 2428   0.893   3.278   2.744
  804SOL    HW2 2429   0.732   3.266   2.715
  805SOL     OW 2430   0.922   2.365   2.761
  805SOL    HW1 2431   0.897   2.356   2.665
  805SOL    HW2 2432   0.970   2.283   2.792
  806SOL     OW 2433   0.539   1.926   2.374
  806SOL    HW1 2434   0.458   1.927   2.432
  806SOL    HW2 2435   0.542   2.009   2.319
  807SOL     OW 2436   1.434   3.050   1.903
  807SOL    HW1 2437   1.466   2.974   1.960
  807SOL    HW2 2438   1.342   3.077   1.933
  808SOL     OW 2439   0.297   1.897   2.033
  808SOL    HW1 2440   0.346   1.981   2.012
  808SOL    HW2 2441   0.359   1.832   2.078
  809SOL     OW 2442   0.935   2.098   2.342
  809SOL    HW1 2443   0.887   2.139   2.264
  809SOL    HW2 2444   1.034   2.096   2.323
  810SOL     OW 2445   1.076   2.545   3.326
  810SOL    HW1 2446   0.996   2.484   3.329
  810SOL    HW2 2447   1.157   2.492   3.302
  811SOL     OW 2448   1.227   3.432   2.655
  811SOL    HW1 2449   1.248   3.506   2.590
  811SOL    HW2 2450   1.295   3.432   2.728
  812SOL     OW 2451   0.459   3.014   2.603
  812SOL    HW1 2452   0.388   2.987   2.668
  812SOL    HW2 2453   0.433   2.986   2.510
  813SOL     OW 2454   1.271   3.659   2.453
  813SOL    HW1 2455   1.315   3.723   2.389
  813SOL    HW2 2456   1.221   3.711   2.523
  814SOL     OW 2457   1.032   2.411   1.878
  814SOL    HW1 2458   0.991   2.493   1.839
  814SOL    HW2 2459   1.096   2.437   1.951
  815SOL     OW 2460   0.078   2.418   3.248
  815SOL    HW1 2461   0.170   2.417   3.207
  815SOL    HW2 2462   0.072   2.492   3.315
  816SOL     OW 2463   0.561   2.084   3.009
  816SOL    HW1 2464   0.599   2.000   3.046
  816SOL    HW2 2465   0.473   2.103   3.053
  817SOL     OW 2466   0.866   2.316   2.504
  817SOL    HW1 2467   0.834   2.388   2.442
  817SOL    HW2 2468   0.890   2.235   2.451
  818SOL     OW 2469   1.017   1.901   2.615
  818SOL    HW1 2470   0.945   1.906   2.546
  818SOL    HW2 2471   0.993   1.832   2.684
  819SOL     OW 2472   1.429   3.035   2.729
  819SOL    HW1 2473   1.374   2.951   2.722
  819SOL    HW2 2474   1.455   3.064   2.637
  820SOL     OW 2475   1.466   2.452   2.854
  820SOL    HW1 2476   1.436   2.357   2.861
  820SOL    HW2 2477   1.539   2.468   2.920
  821SOL     OW 2478   1.857   2.695   2.239
  821SOL    HW1 2479   1.899   2.631   2.303
  821SOL    HW2 2480   1.819   2.644   2.161
  822SOL     OW 2481   0.488   3.247   2.036
  822SOL    HW1 2482   0.401   3.232   2.083
  822SOL    HW2 2483   0.471   3.273   1.941
  823SOL     OW 2484   1.664   3.142   2.519
  823SOL    HW1 2485   1.763   3.150   2.533
  823SOL    HW2 2486   1.619   3.226   2.550
  824SOL     OW 2487   1.390   2.437   1.940
  824SOL    HW1 2488   1.336   2.416   2.021
  824SOL    HW2 2489   1.481   2.396   1.949
  825SOL     OW 2490   0.527   2.118   2.190
  825SOL    HW1 2491   0.554   2.059   2.115
  825SOL    HW2 2492   0.527   2.213   2.159
  826SOL     OW 2493   1.754   3.085   3.450
  826SOL    HW1 2494   1.845   3.046   3.437
  826SOL    HW2 2495   1.762   3.181   3.474
  827SOL     OW 2496   1.064   3.209   3.202
  827SOL    HW1 2497   0.984   3.186   3.257
  827SOL    HW2 2498   1.147   3.183   3.251
  828SOL     OW 2499   1.592   3.491   3.487
  828SOL    HW1 2500   1.619   3.525   3.397
  828SOL    HW2 2501   1.671   3.453   3.533
  829SOL     OW 2502   1.111   3.057   2.962
  829SOL    HW1 2503   1.071   3.101   3.043
  829SOL    HW2 2504   1.070   3.094   2.879
  830SOL     OW 2505   1.638   2.961   2.941
  830SOL    HW1 2506   1.643   3.042   3.000
  830SOL    HW2 2507   1.552   2.963   2.890
  831SOL     OW 2508   0.915   1.951   3.264
  831SOL    HW1 2509   0.940   1.931   3.169
  831SOL    HW2 2510   0.987   2.007   3.306
  832SOL     OW 2511   0.980   2.978   3.581
  832SOL    HW1 2512   0.881   2.984   3.591
  832SOL    HW2 2513   1.003   2.898   3.525
  833SOL     OW 2514   0.705   2.912   2.230
  833SOL    HW1 2515   0.691   2.919   2.329
  833SOL    HW2 2516   0.789   2.861   2.212
  834SOL     OW 2517   0.410   2.675   3.113
  834SOL    HW1 2518   0.496   2.687   3.163
  834SOL    HW2 2519   0.368   2.588   3.140
  835SOL     OW 2520   1.274   2.248   3.124
  835SOL    HW1 2521   1.295   2.322   3.188
  835SOL    HW2 2522   1.185   2.265   3.081
  836SOL     OW 2523   0.064   3.426   3.193
  836SOL    HW1 2524   0.018   3.508   3.159
  836SOL    HW2 2525   0.162   3.445   3.202
  837SOL     OW 2526   0.367   2.962   2.363
  837SOL    HW1 2527   0.360   3.045   2.307
  837SOL    HW2 2528   0.371   2.882   2.303
  838SOL     OW 2529   0.566   2.399   2.727
  838SOL    HW1 2530   0.578   2.465   2.653
  838SOL    HW2 2531   0.612   2.433   2.810
  839SOL     OW 2532   1.252   3.210   2.250
  839SOL    HW1 2533   1.302   3.287   2.290
  839SOL    HW2 2534   1.157   3.212   2.282
  840SOL     OW 2535   1.272   3.307   3.004
  840SOL    HW1 2536   1.319   3.320   3.091
  840SOL    HW2 2537   1.206   3.233   3.013
  841SOL     OW 2538   1.582   2.501   2.334
  841SOL    HW1 2539   1.551   2.562   2.407
  841SOL    HW2 2540   1.632   2.553   2.265
  842SOL     OW 2541   0.354   3.372   3.191
  842SOL    HW1 2542   0.333   3.328   3.104
  842SOL    HW2 2543   0.451   3.398   3.194
  843SOL     OW 2544   0.402   2.613   3.460
  843SOL    HW1 2545   0.470   2.668   3.413
  843SOL    HW2 2546   0.442   2.525   3.487
  844SOL     OW 2547   1.587   2.641   3.532
  844SOL    HW1 2548   1.495   2.679   3.527
  844SOL    HW2 2549   1.647   2.688   3.467
  845SOL     OW 2550   1.013   1.967   3.632
  845SOL    HW1 2551   1.019   2.052   3.580
  845SOL    HW2 2552   1.045   1.891   3.575
  846SOL     OW 2553   0.504   1.912   3.602
  846SOL    HW1 2554   0.462   1.855   3.532
  846SOL    HW2 2555   0.438   1.981   3.634
  847SOL     OW 2556   0.573   2.732   2.891
  847SOL    HW1 2557   0.617   2.821   2.882
  847SOL    HW2 2558   0.510   2.732   2.968
  848SOL     OW 2559   1.360   2.724   2.907
  848SOL    HW1 2560   1.285   2.724   2.841
  848SOL    HW2 2561   1.397   2.632   2.916
  849SOL     OW 2562   1.209   2.387   2.137
  849SOL    HW1 2563   1.222   2.303   2.191
  849SOL    HW2 2564   1.180   2.461   2.197
  850SOL     OW 2565   0.307   2.075   3.093
  850SOL    HW1 2566   0.284   2.112   3.183
  850SOL    HW2 2567   0.277   1.980   3.087
  851SOL     OW 2568   0.037   3.172   3.144
  851SOL    HW1 2569   0.090   3.123   3.212
  851SOL    HW2 2570   0.059   3.270   3.149
  852SOL     OW 2571   0.732   2.496   2.926
  852SOL    HW1 2572   0.791   2.470   2.850
  852SOL    HW2 2573   0.704   2.592   2.915
  853SOL     OW 2574   1.728   2.797   3.716
  853SOL    HW1 2575   1.682   2.790   3.627
  853SOL    HW2 2576   1.666   2.841   3.782
  854SOL     OW 2577   0.307   1.925   2.480
  854SOL    HW1 2578   0.296   2.019   2.513
  854SOL    HW2 2579   0.302   1.862   2.557
  855SOL     OW 2580   1.622   2.229   2.236
  855SOL    HW1 2581   1.624   2.153   2.300
  855SOL    HW2 2582   1.574   2.306   2.276
  856SOL     OW 2583   1.023   2.628   2.828
  856SOL    HW1 2584   1.038   2.649   2.924
  856SOL    HW2 2585   0.993   2.533   2.819
  857SOL     OW 2586   0.980   3.435   3.562
  857SOL    HW1 2587   0.960   3.479   3.474
  857SOL    HW2 2588   1.019   3.344   3.546
  858SOL     OW 2589   1.859   3.380   3.467
  858SOL    HW1 2590   1.873   3.407   3.372
  858SOL    HW2 2591   1.942   3.402   3.520
  859SOL     OW 2592   0.350   2.760   3.666
  859SOL    HW1 2593   0.426   2.804   3.714
  859SOL    HW2 2594   0.385   2.713   3.584
  860SOL     OW 2595   1.540   2.136   1.987
  860SOL    HW1 2596   1.479   2.061   2.010
  860SOL    HW2 2597   1.562   2.188   2.070
  861SOL     OW 2598   1.303   2.700   1.904
  861SOL    HW1 2599   1.337   2.607   1.919
  861SOL    HW2 2600   1.321   2.727   1.809
  862SOL     OW 2601   1.068   3.195   2.711
  862SOL    HW1 2602   1.075   3.111   2.656
  862SOL    HW2 2603   1.130   3.264   2.675
  863SOL     OW 2604   0.319   2.672   2.811
  863SOL    HW1 2605   0.412   2.708   2.816
  863SOL    HW2 2606   0.313   2.587   2.863
  864SOL     OW 2607   0.339   2.371   2.868
  864SOL    HW1 2608   0.287   2.288   2.851
  864SOL    HW2 2609   0.416   2.376   2.804
  865SOL     OW 2610   1.138   2.242   3.540
  865SOL    HW1 2611   1.093   2.305   3.604
  865SOL    HW2 2612   1.231   2.273   3.523
  866SOL     OW 2613   1.160   2.069   3.339
  866SOL    HW1 2614   1.160   2.133   3.416
  866SOL    HW2 2615   1.188   2.117   3.256
  867SOL     OW 2616   0.008   3.188   2.062
  867SOL    HW1 2617  -0.085   3.209   2.031
  867SOL    HW2 2618   0.018   3.089   2.075
  868SOL     OW 2619   0.088   3.663   2.789
  868SOL    HW1 2620   0.046   3.577   2.762
  868SOL    HW2 2621   0.182   3.666   2.755
  869SOL     OW 2622   0.504   3.430   2.772
  869SOL    HW1 2623   0.570   3.504   2.781
  869SOL    HW2 2624   0.548   3.351   2.730
  870SOL     OW 2625   1.002   2.658   3.100
  870SOL    HW1 2626   1.043   2.626   3.186
  870SOL    HW2 2627   0.906   2.631   3.097
  871SOL     OW 2628   0.040   2.406   2.976
  871SOL    HW1 2629   0.125   2.373   2.935
  871SOL    HW2 2630   0.053   2.421   3.074
  872SOL     OW 2631   0.189   2.382   3.584
  872SOL    HW1 2632   0.248   2.342   3.514
  872SOL    HW2 2633   0.131   2.453   3.543
  873SOL     OW 2634   1.369   2.812   3.522
  873SOL    HW1 2635   1.408   2.901   3.542
  873SOL    HW2 2636   1.379   2.792   3.425
  874SOL     OW 2637   0.815   2.434   2.187
  874SOL    HW1 2638   0.822   2.345   2.141
  874SOL    HW2 2639   0.721   2.468   2.179
  875SOL     OW 2640   1.657   2.466   3.068
  875SOL    HW1 2641   1.619   2.397   3.130
  875SOL    HW2 2642   1.739   2.430   3.024
  876SOL     OW 2643   0.252   3.426   3.606
  876SOL    HW1 2644   0.222   3.483   3.682
  876SOL    HW2 2645   0.245   3.329   3.632
  877SOL     OW 2646   0.671   2.326   3.131
  877SOL    HW1 2647   0.637   2.237   3.101
  877SOL    HW2 2648   0.697   2.380   3.051
  878SOL     OW 2649   0.930   3.540   3.327
  878SOL    HW1 2650   0.906   3.522   3.232
  878SOL    HW2 2651   0.960   3.634   3.337
  879SOL     OW 2652   0.473   2.362   2.053
  879SOL    HW1 2653   0.534   2.442   2.057
  879SOL    HW2 2654   0.378   2.393   2.060
  880SOL     OW 2655   0.159   2.999   3.328
  880SOL    HW1 2656   0.181   2.938   3.404
  880SOL    HW2 2657   0.169   2.950   3.242
  881SOL     OW 2658   1.347   2.921   3.096
  881SOL    HW1 2659   1.371   2.858   3.022
  881SOL    HW2 2660   1.257   2.961   3.078
  882SOL     OW 2661   1.302   2.717   2.171
  882SOL    HW1 2662   1.216   2.686   2.213
  882SOL    HW2 2663   1.298   2.703   2.072
  883SOL     OW 2664   1.759   3.609   3.016
  883SOL    HW1 2665   1.820   3.639   2.943
  883SOL    HW2 2666   1.721   3.520   2.994
  884SOL     OW 2667   1.252   3.593   2.990
  884SOL    HW1 2668   1.336   3.598   2.936
  884SOL    HW2 2669   1.229   3.497   3.008
  885SOL     OW 2670   0.083   3.120   2.884
  885SOL    HW1 2671   0.078   3.119   2.984
  885SOL    HW2 2672   0.000   3.079   2.846
  886SOL     OW 2673   0.688   3.524   3.578
  886SOL    HW1 2674   0.632   3.605   3.587
  886SOL    HW2 2675   0.740   3.528   3.492
  887SOL     OW 2676   1.726   1.997   2.385
  887SOL    HW1 2677   1.799   1.980   2.318
  887SOL    HW2 2678   1.695   1.910   2.423
  888SOL     OW 2679   1.388   3.435   2.339
  888SOL    HW1 2680   1.455   3.447   2.265
  888SOL    HW2 2681   1.348   3.524   2.362
  889SOL     OW 2682   0.130   3.656   3.713
  889SOL    HW1 2683   0.089   3.582   3.766
  889SOL    HW2 2684   0.194   3.707   3.771
  890SOL     OW 2685   1.280   2.789   2.534
  890SOL    HW1 2686   1.340   2.708   2.536
  890SOL    HW2 2687   1.320   2.858   2.474
  891SOL     OW 2688   0.830   3.135   3.284
  891SOL    HW1 2689   0.825   3.168   3.379
  891SOL    HW2 2690   0.744   3.154   3.238
  892SOL     OW 2691   0.672   3.478   2.016
  892SOL    HW1 2692   0.681   3.488   1.917
  892SOL    HW2 2693   0.632   3.389   2.037
  893SOL     OW 2694   1.650   3.582   3.256
  893SOL    HW1 2695   1.703   3.592   3.172
  893SOL    HW2 2696   1.623   3.672   3.290
  894SOL     OW 2697   1.841   2.037   2.825
  894SOL    HW1 2698   1.880   1.952   2.789
  894SOL    HW2 2699   1.743   2.039   2.806
  895SOL     OW 2700   0.263   2.188   2.582
  895SOL    HW1 2701   0.184   2.239   2.548
  895SOL    HW2 2702   0.254   2.173   2.680
  896SOL     OW 2703   1.194   3.474   1.893
  896SOL    HW1 2704   1.200   3.381   1.930
  896SOL    HW2 2705   1.135   3.474   1.813
  897SOL     OW 2706   0.822   2.864   3.234
  897SOL    HW1 2707   0.862   2.863   3.142
  897SOL    HW2 2708   0.832   2.956   3.274
  898SOL     OW 2709   0.916   2.772   2.153
  898SOL    HW1 2710   0.979   2.810   2.085
  898SOL    HW2 2711   0.956   2.689   2.192
  899SOL     OW 2712   1.504   3.469   1.906
  899SOL    HW1 2713   1.412   3.506   1.913
  899SOL    HW2 2714   1.542   3.489   1.816
  900SOL     OW 2715   0.372   3.150   3.352
  900SOL    HW1 2716   0.359   3.243   3.318
  900SOL    HW2 2717   0.288   3.098   3.339
  901SOL     OW 2718   1.614   3.154   3.151
  901SOL    HW1 2719   1.674   3.157   3.231
  901SOL    HW2 2720   1.539   3.218   3.164
  902SOL     OW 2721   1.039   2.960   2.558
  902SOL    HW1 2722   0.969   2.913   2.612
  902SOL    HW2 2723   1.098   2.892   2.515
  903SOL     OW 2724   1.014   2.098   2.833
  903SOL    HW1 2725   1.006   2.062   2.740
  903SOL    HW2 2726   1.012   2.022   2.898
  904SOL     OW 2727   0.590   3.349   2.353
  904SOL    HW1 2728   0.632   3.291   2.283
  904SOL    HW2 2729   0.546   3.428   2.309
  905SOL     OW 2730   1.709   2.247   3.243
  905SOL    HW1 2731   1.782   2.316   3.247
  905SOL    HW2 2732   1.737   2.172   3.184
  906SOL     OW 2733   0.255   3.210   2.152
  906SOL    HW1 2734   0.159   3.211   2.125
  906SOL    HW2 2735   0.267   3.263   2.236
  907SOL     OW 2736   0.105   2.875   3.588
  907SOL    HW1 2737   0.028   2.842   3.642
  907SOL    HW2 2738   0.190   2.845   3.630
  908SOL     OW 2739   0.672   2.065   3.351
  908SOL    HW1 2740   0.762   2.049   3.311
  908SOL    HW2 2741   0.680   2.070   3.450
  909SOL     OW 2742   0.075   2.207   1.895
  909SOL    HW1 2743  -0.017   2.179   1.866
  909SOL    HW2 2744   0.106   2.284   1.839
  910SOL     OW 2745   1.440   2.718   3.260
  910SOL    HW1 2746   1.383   2.770   3.197
  910SOL    HW2 2747   1.536   2.730   3.236
  911SOL     OW 2748   0.072   2.028   2.180
  911SOL    HW1 2749   0.055   2.111   2.126
  911SOL    HW2 2750   0.162   1.991   2.158
  912SOL     OW 2751   1.183   3.197   1.981
  912SOL    HW1 2752   1.084   3.186   1.983
  912SOL    HW2 2753   1.217   3.212   2.074
  913SOL     OW 2754   0.613   2.704   3.293
  913SOL    HW1 2755   0.669   2.785   3.276
  913SOL    HW2 2756   0.672   2.624   3.296
  914SOL     OW 2757   1.493   3.629   2.821
  914SOL    HW1 2758   1.526   3.693   2.752
  914SOL    HW2 2759   1.559   3.623   2.896
  915SOL     OW 2760   0.716   2.427   3.570
  915SOL    HW1 2761   0.735   2.492   3.644
  915SOL    HW2 2762   0.776   2.347   3.579
  916SOL     OW 2763   1.450   3.082   3.495
  916SOL    HW1 2764   1.441   3.072   3.594
  916SOL    HW2 2765   1.546   3.075   3.469
  917SOL     OW 2766   0.390   3.603   3.422
  917SOL    HW1 2767   0.299   3.644   3.420
  917SOL    HW2 2768   0.383   3.509   3.454
  918SOL     OW 2769   1.674   2.745   3.116
  918SOL    HW1 2770   1.647   2.656   3.079
  918SOL    HW2 2771   1.675   2.813   3.043
  919SOL     OW 2772   1.225   2.187   2.311
  919SOL    HW1 2773   1.290   2.113   2.300
  919SOL    HW2 2774   1.245   2.237   2.395
  920SOL     OW 2775   0.594   2.607   2.514
  920SOL    HW1 2776   0.644   2.692   2.495
  920SOL    HW2 2777   0.506   2.609   2.466
  921SOL     OW 2778   1.777   2.204   3.504
  921SOL    HW1 2779   1.760   2.235   3.410
  921SOL    HW2 2780   1.693   2.167   3.542
  922SOL     OW 2781   1.730   2.796   3.379
  922SOL    HW1 2782   1.768   2.887   3.394
  922SOL    HW2 2783   1.722   2.779   3.280
  923SOL     OW 2784   0.859   3.236   1.878
  923SOL    HW1 2785   0.813   3.251   1.966
  923SOL    HW2 2786   0.903   3.321   1.848
  924SOL     OW 2787   0.661   3.652   2.815
  924SOL    HW1 2788   0.615   3.740   2.802
  924SOL    HW2 2789   0.760   3.664   2.808
  925SOL     OW 2790   0.859   2.818   2.723
  925SOL    HW1 2791   0.913   2.749   2.771
  925SOL    HW2 2792   0.827   2.887   2.789
  926SOL     OW 2793   1.083   2.846   1.949
  926SOL    HW1 2794   1.060   2.899   1.867
  926SOL    HW2 2795   1.164   2.790   1.930
  927SOL     OW 2796   1.861   3.431   2.713
  927SOL    HW1 2797   1.790   3.419   2.643
  927SOL    HW2 2798   1.862   3.352   2.773
  928SOL     OW 2799   0.221   3.176   3.706
  928SOL    HW1 2800   0.156   3.103   3.685
  928SOL    HW2 2801   0.225   3.190   3.804
  929SOL     OW 2802   0.079   3.102   2.515
  929SOL    HW1 2803   0.078   3.055   2.603
  929SOL    HW2 2804   0.161   3.074   2.464
  930SOL     OW 2805   0.672   3.253   3.486
  930SOL    HW1 2806   0.594   3.203   3.524
  930SOL    HW2 2807   0.669   3.348   3.517
  931SOL     OW 2808   1.824   2.054   3.089
  931SOL    HW1 2809   1.820   1.964   3.133
  931SOL    HW2 2810   1.827   2.043   2.990
  932SOL     OW 2811   0.428   2.286   2.382
  932SOL    HW1 2812   0.458   2.214   2.320
  932SOL    HW2 2813   0.389   2.246   2.465
  933SOL     OW 2814   1.705   3.349   2.966
  933SOL    HW1 2815   1.612   3.324   2.939
  933SOL    HW2 2816   1.731   3.299   3.048
  934SOL     OW 2817   0.317   2.409   3.142
  934SOL    HW1 2818   0.355   2.350   3.214
  934SOL    HW2 2819   0.357   2.383   3.054
  935SOL     OW 2820   0.812   3.448   2.549
  935SOL    HW1 2821   0.844   3.458   2.455
  935SOL    HW2 2822   0.733   3.386   2.551
  936SOL     OW 2823   1.424   2.076   2.974
  936SOL    HW1 2824   1.476   2.011   3.029
  936SOL    HW2 2825   1.375   2.139   3.035
  937SOL     OW 2826   1.001   1.896   3.016
  937SOL    HW1 2827   0.938   1.824   2.985
  937SOL    HW2 2828   1.094   1.860   3.016
  938SOL     OW 2829   0.770   3.192   2.163
  938SOL    HW1 2830   0.724   3.105   2.180
  938SOL    HW2 2831   0.861   3.189   2.204
  939SOL     OW 2832   0.618   3.429   3.146
  939SOL    HW1 2833   0.613   3.511   3.203
  939SOL    HW2 2834   0.707   3.426   3.101
  940SOL     OW 2835   1.352   1.914   2.030
  940SOL    HW1 2836   1.387   1.873   1.946
  940SOL    HW2 2837   1.262   1.876   2.050
  941SOL     OW 2838   1.300   2.315   2.553
  941SOL    HW1 2839   1.241   2.395   2.557
  941SOL    HW2 2840   1.315   2.280   2.646
  942SOL     OW 2841   1.593   2.083   2.744
  942SOL    HW1 2842   1.509   2.082   2.798
  942SOL    HW2 2843   1.595   2.166   2.688
  943SOL     OW 2844   0.039   2.939   2.162
  943SOL    HW1 2845   0.138   2.928   2.153
  943SOL    HW2 2846  -0.001   2.853   2.194
  944SOL     OW 2847   0.875   3.508   2.199
  944SOL    HW1 2848   0.798   3.473   2.145
  944SOL    HW2 2849   0.843   3.579   2.261
  945SOL     OW 2850   0.230   2.490   3.837
  945SOL    HW1 2851   0.137   2.488   3.874
  945SOL    HW2 2852   0.231   2.451   3.745
  946SOL     OW 2853   0.225   2.137   4.720
  946SOL    HW1 2854   0.260   2.120   4.812
  946SOL    HW2 2855   0.137   2.092   4.708
  947SOL     OW 2856   0.019   2.230   4.371
  947SOL    HW1 2857  -0.063   2.273   4.410
  947SOL    HW2 2858  -0.009   2.157   4.308
  948SOL     OW 2859   1.755   2.469   3.955
  948SOL    HW1 2860   1.743   2.456   3.856
  948SOL    HW2 2861   1.725   2.388   4.004
  949SOL     OW 2862   0.685   2.874   4.389
  949SOL    HW1 2863   0.754   2.858   4.459
  949SOL    HW2 2864   0.612   2.931   4.427
  950SOL     OW 2865   1.603   2.309   4.461
  950SOL    HW1 2866   1.529   2.355   4.411
  950SOL    HW2 2867   1.654   2.377   4.514
  951SOL     OW 2868   0.231   3.575   4.207
  951SOL    HW1 2869   0.265   3.652   4.261
  951SOL    HW2 2870   0.275   3.575   4.117
  952SOL     OW 2871   0.230   3.296   4.262
  952SOL    HW1 2872   0.204   3.392   4.262
  952SOL    HW2 2873   0.159   3.242   4.307
  953SOL     OW 2874   0.240   2.953   4.610
  953SOL    HW1 2875   0.254   2.869   4.662
  953SOL    HW2 2876   0.185   3.017   4.665
  954SOL     OW 2877   0.606   2.826   3.847
  954SOL    HW1 2878   0.613   2.910   3.793
  954SOL    HW2 2879   0.652   2.839   3.935
  955SOL     OW 2880   0.122   2.505   4.287
  955SOL    HW1 2881   0.077   2.417   4.304
  955SOL    HW2 2882   0.121   2.559   4.371
  956SOL     OW 2883   1.842   3.629   4.083
  956SOL    HW1 2884   1.896   3.600   4.163
  956SOL    HW2 2885   1.872   3.719   4.054
  957SOL     OW 2886   0.027   3.458   3.841
  957SOL    HW1 2887   0.008   3.362   3.862
  957SOL    HW2 2888  -0.006   3.516   3.916
  958SOL     OW 2889   1.689   2.784   4.336
  958SOL    HW1 2890   1.784   2.755   4.344
  958SOL    HW2 2891   1.681   2.849   4.261
  959SOL     OW 2892   1.641   2.970   4.156
  959SOL    HW1 2893   1.727   2.972   4.104
  959SOL    HW2 2894   1.655   3.017   4.244
  960SOL     OW 2895   0.613   3.227   4.450
  960SOL    HW1 2896   0.564   3.140   4.459
  960SOL    HW2 2897   0.590   3.270   4.363
  961SOL     OW 2898   0.809   1.866   4.226
  961SOL    HW1 2899   0.849   1.957   4.217
  961SOL    HW2 2900   0.709   1.874   4.232
  962SOL     OW 2901   1.525   2.861   3.914
  962SOL    HW1 2902   1.462   2.785   3.927
  962SOL    HW2 2903   1.573   2.879   4.000
  963SOL     OW 2904   1.667   3.576   4.296
  963SOL    HW1 2905   1.626   3.553   4.208
  963SOL    HW2 2906   1.649   3.502   4.361
  964SOL     OW 2907   0.598   2.591   3.994
  964SOL    HW1 2908   0.622   2.660   3.926
  964SOL    HW2 2909   0.520   2.624   4.048
  965SOL     OW 2910   1.281   2.207   4.668
  965SOL    HW1 2911   1.195   2.157   4.655
  965SOL    HW2 2912   1.343   2.153   4.724
  966SOL     OW 2913   1.576   3.524   4.031
  966SOL    HW1 2914   1.665   3.570   4.034
  966SOL    HW2 2915   1.555   3.500   3.936
  967SOL     OW 2916   1.041   2.563   4.153
  967SOL    HW1 2917   1.067   2.559   4.249
  967SOL    HW2 2918   0.956   2.512   4.139
  968SOL     OW 2919   0.076   2.673   4.513
  968SOL    HW1 2920   0.175   2.661   4.522
  968SOL    HW2 2921   0.052   2.768   4.534
  969SOL     OW 2922   0.865   2.210   3.919
  969SOL    HW1 2923   0.924   2.273   3.870
  969SOL    HW2 2924   0.884   2.116   3.890
  970SOL     OW 2925   1.362   3.006   4.269
  970SOL    HW1 2926   1.445   2.977   4.221
  970SOL    HW2 2927   1.313   3.073   4.213
  971SOL     OW 2928   1.008   3.318   4.201
  971SOL    HW1 2929   0.962   3.390   4.149
  971SOL    HW2 2930   1.004   3.338   4.299
  972SOL     OW 2931   0.351   3.663   4.577
  972SOL    HW1 2932   0.401   3.577   4.583
  972SOL    HW2 2933   0.416   3.740   4.574
  973SOL     OW 2934   1.795   2.928   4.597
  973SOL    HW1 2935   1.733   2.913   4.521
  973SOL    HW2 2936   1.743   2.939   4.682
  974SOL     OW 2937   0.321   2.805   3.966
  974SOL    HW1 2938   0.403   2.844   3.924
  974SOL    HW2 2939   0.294   2.723   3.917
  975SOL     OW 2940   1.458   2.597   4.452
  975SOL    HW1 2941   1.453   2.532   4.527
  975SOL    HW2 2942   1.538   2.656   4.465
  976SOL     OW 2943   1.111   3.638   3.961
  976SOL    HW1 2944   1.051   3.576   4.011
  976SOL    HW2 2945   1.142   3.594   3.876
  977SOL     OW 2946   1.632   3.239   3.805
  977SOL    HW1 2947   1.600   3.333   3.795
  977SOL    HW2 2948   1.556   3.176   3.793
  978SOL     OW 2949   0.464   3.605   4.047
  978SOL    HW1 2950   0.497   3.644   4.133
  978SOL    HW2 2951   0.540   3.598   3.982
  979SOL     OW 2952   1.400   1.969   4.150
  979SOL    HW1 2953   1.376   1.932   4.060
  979SOL    HW2 2954   1.499   1.985   4.154
  980SOL     OW 2955   0.940   3.560   4.628
  980SOL    HW1 2956   1.020   3.503   4.649
  980SOL    HW2 2957   0.891   3.520   4.551
  981SOL     OW 2958   0.382   2.562   4.204
  981SOL    HW1 2959   0.427   2.472   4.201
  981SOL    HW2 2960   0.288   2.551   4.237
  982SOL     OW 2961   0.614   1.984   3.841
  982SOL    HW1 2962   0.712   1.962   3.848
  982SOL    HW2 2963   0.583   1.967   3.748
  983SOL     OW 2964   0.539   1.926   4.236
  983SOL    HW1 2965   0.458   1.927   4.294
  983SOL    HW2 2966   0.542   2.009   4.181
  984SOL     OW 2967   1.434   3.050   3.765
  984SOL    HW1 2968   1.466   2.974   3.822
  984SOL    HW2 2969   1.342   3.077   3.795
  985SOL     OW 2970   0.297   1.897   3.895
  985SOL    HW1 2971   0.346   1.981   3.874
  985SOL    HW2 2972   0.359   1.832   3.940
  986SOL     OW 2973   0.935   2.098   4.204
  986SOL    HW1 2974   0.887   2.139   4.126
  986SOL    HW2 2975   1.034   2.096   4.185
  987SOL     OW 2976   0.459   3.014   4.465
  987SOL    HW1 2977   0.388   2.987   4.530
  987SOL    HW2 2978   0.433   2.986   4.372
  988SOL     OW 2979   1.271   3.659   4.315
  988SOL    HW1 2980   1.315   3.723   4.251
  988SOL    HW2 2981   1.221   3.711   4.385
  989SOL     OW 2982   1.032   2.411   3.740
  989SOL    HW1 2983   0.991   2.493   3.701
  989SOL    HW2 2984   1.096   2.437   3.813
  990SOL     OW 2985   0.866   2.316   4.366
  990SOL    HW1 2986   0.834   2.388   4.304
  990SOL    HW2 2987   0.890   2.235   4.313
  991SOL     OW 2988   1.857   2.695   4.101
  991SOL    HW1 2989   1.899   2.631   4.165
  991SOL    HW2 2990   1.819   2.644   4.023
  992SOL     OW 2991   0.488   3.247   3.898
  992SOL    HW1 2992   0.401   3.232   3.945
  992SOL    HW2 2993   0.471   3.273   3.803
  993SOL     OW 2994   1.664   3.142   4.381
  993SOL    HW1 2995   1.763   3.150   4.395
  993SOL    HW2 2996   1.619   3.226   4.412
  994SOL     OW 2997   1.390   2.437   3.802
  994SOL    HW1 2998   1.336   2.416   3.883
  994SOL    HW2 2999   1.481   2.396   3.811
  995SOL     OW 3000   0.527   2.118   4.052
  995SOL    HW1 3001   0.554   2.059   3.977
  995SOL    HW2 3002   0.527   2.213   4.021
  996SOL     OW 3003   0.705   2.912   4.092
  996SOL    HW1 3004   0.691   2.919   4.191
  996SOL    HW2 3005   0.789   2.861   4.074
  997SOL     OW 3006   0.367   2.962   4.225
  997SOL    HW1 3007   0.360   3.045   4.169
  997SOL    HW2 3008   0.371   2.882   4.165
  998SOL     OW 3009   1.252   3.210   4.112
  998SOL    HW1 3010   1.302   3.287   4.152
  998SOL    HW2 3011   1.157   3.212   4.144
  999SOL     OW 3012   1.582   2.501   4.196
  999SOL    HW1 3013   1.551   2.562   4.269
  999SOL    HW2 3014   1.632   2.553   4.127
 1000SOL     OW 3015   1.209   2.387   3.999
 1000SOL    HW1 3016   1.222   2.303   4.053
 1000SOL    HW2 3017   1.180   2.461   4.059
 1001SOL     OW 3018   0.307   1.925   4.342
 1001SOL    HW1 3019   0.296   2.019   4.375
 1001SOL    HW2 3020   0.302   1.862   4.419
 1002SOL     OW 3021   1.622   2.229   4.098
 1002SOL    HW1 3022   1.624   2.153   4.162
 1002SOL    HW2 3023   1.574   2.306   4.138
 1003SOL     OW 3024   1.023   2.628   4.690
 1003SOL    HW1 3025   1.038   2.649   4.786
 1003SOL    HW2 3026   0.993   2.533   4.681
 1004SOL     OW 3027   1.540   2.136   3.849
 1004SOL    HW1 3028   1.479   2.061   3.872
 1004SOL    HW2 3029   1.562   2.188   3.932
 1005SOL     OW 3030   1.303   2.700   3.766
 1005SOL    HW1 3031   1.337   2.607   3.781
 1005SOL    HW2 3032   1.321   2.727   3.671
 1006SOL     OW 3033   0.008   3.188   3.924
 1006SOL    HW1 3034  -0.085   3.209   3.893
 1006SOL    HW2 3035   0.018   3.089   3.937
 1007SOL     OW 3036   0.040   2.406   4.838
 1007SOL    HW1 3037   0.125   2.373   4.797
 1007SOL    HW2 3038   0.053   2.421   4.936
 1008SOL     OW 3039   0.815   2.434   4.049
 1008SOL    HW1 3040   0.822   2.345   4.003
 1008SOL    HW2 3041   0.721   2.468   4.041
 1009SOL     OW 3042   0.473   2.362   3.915
 1009SOL    HW1 3043   0.534   2.442   3.919
 1009SOL    HW2 3044   0.378   2.393   3.922
 1010SOL     OW 3045   1.302   2.717   4.033
 1010SOL    HW1 3046   1.216   2.686   4.075
 1010SOL    HW2 3047   1.298   2.703   3.934
 1011SOL     OW 3048   1.726   1.997   4.247
 1011SOL    HW1 3049   1.799   1.980   4.180
 1011SOL    HW2 3050   1.695   1.910   4.285
 1012SOL     OW 3051   1.388   3.435   4.201
 1012SOL    HW1 3052   1.455   3.447   4.127
 1012SOL    HW2 3053   1.348   3.524   4.224
 1013SOL     OW 3054   0.672   3.478   3.878
 1013SOL    HW1 3055   0.681   3.488   3.779
 1013SOL    HW2 3056   0.632   3.389   3.899
 1014SOL     OW 3057   1.841   2.037   4.687
 1014SOL    HW1 3058   1.880   1.952   4.651
 1014SOL    HW2 3059   1.743   2.039   4.668
 1015SOL     OW 3060   0.263   2.188   4.444
 1015SOL    HW1 3061   0.184   2.239   4.410
 1015SOL    HW2 3062   0.254   2.173   4.542
 1016SOL     OW 3063   1.194   3.474   3.755
 1016SOL    HW1 3064   1.200   3.381   3.792
 1016SOL    HW2 3065   1.135   3.474   3.675
 1017SOL     OW 3066   0.916   2.772   4.015
 1017SOL    HW1 3067   0.979   2.810   3.947
 1017SOL    HW2 3068   0.956   2.689   4.054
 1018SOL     OW 3069   1.504   3.469   3.768
 1018SOL    HW1 3070   1.412   3.506   3.775
 1018SOL    HW2 3071   1.542   3.489   3.678
 1019SOL     OW 3072   0.590   3.349   4.215
 1019SOL    HW1 3073   0.632   3.291   4.145
 1019SOL    HW2 3074   0.546   3.428   4.171
 1020SOL     OW 3075   0.255   3.210   4.014
 1020SOL    HW1 3076   0.159   3.211   3.987
 1020SOL    HW2 3077   0.267   3.263   4.098
 1021SOL     OW 3078   0.075   2.207   3.757
 1021SOL    HW1 3079  -0.017   2.179   3.728
 1021SOL    HW2 3080   0.106   2.284   3.701
 1022SOL     OW 3081   0.072   2.028   4.042
 1022SOL    HW1 3082   0.055   2.111   3.988
 1022SOL    HW2 3083   0.162   1.991   4.020
 1023SOL     OW 3084   1.183   3.197   3.843
 1023SOL    HW1 3085   1.084   3.186   3.845
 1023SOL    HW2 3086   1.217   3.212   3.936
 1024SOL     OW 3087   1.225   2.187   4.173
 1024SOL    HW1 3088   1.290   2.113   4.162
 1024SOL    HW2 3089   1.245   2.237   4.257
 1025SOL     OW 3090   0.594   2.607   4.376
 1025SOL    HW1 3091   0.644   2.692   4.357
 1025SOL    HW2 3092   0.506   2.609   4.328
 1026SOL     OW 3093   0.859   3.236   3.740
 1026SOL    HW1 3094   0.813   3.251   3.828
 1026SOL    HW2 3095   0.903   3.321   3.710
 1027SOL     OW 3096   0.661   3.652   4.677
 1027SOL    HW1 3097   0.615   3.740   4.664
 1027SOL    HW2 3098   0.760   3.664   4.670
 1028SOL     OW 3099   0.859   2.818   4.585
 1028SOL    HW1 3100   0.913   2.749   4.633
 1028SOL    HW2 3101   0.827   2.887   4.651
 1029SOL     OW 3102   1.083   2.846   3.811
 1029SOL    HW1 3103   1.060   2.899   3.729
 1029SOL    HW2 3104   1.164   2.790   3.792
 1030SOL     OW 3105   0.079   3.102   4.377
 1030SOL    HW1 3106   0.078   3.055   4.465
 1030SOL    HW2 3107   0.161   3.074   4.326
 1031SOL     OW 3108   0.428   2.286   4.244
 1031SOL    HW1 3109   0.458   2.214   4.182
 1031SOL    HW2 3110   0.389   2.246   4.327
 1032SOL     OW 3111   1.705   3.349   4.828
 1032SOL    HW1 3112   1.612   3.324   4.801
 1032SOL    HW2 3113   1.731   3.299   4.910
 1033SOL     OW 3114   0.812   3.448   4.411
 1033SOL    HW1 3115   0.844   3.458   4.317
 1033SOL    HW2 3116   0.733   3.386   4.413
 1034SOL     OW 3117   0.770   3.192   4.025
 1034SOL    HW1 3118   0.724   3.105   4.042
 1034SOL    HW2 3119   0.861   3.189   4.066
 1035SOL     OW 3120   1.352   1.914   3.892
 1035SOL    HW1 3121   1.387   1.873   3.808
 1035SOL    HW2 3122   1.262   1.876   3.912
 1036SOL     OW 3123   1.300   2.315   4.415
 1036SOL    HW1 3124   1.241   2.395   4.419
 1036SOL    HW2 3125   1.315   2.280   4.508
 1037SOL     OW 3126   0.039   2.939   4.024
 1037SOL    HW1 3127   0.138   2.928   4.015
 1037SOL    HW2 3128  -0.001   2.853   4.056
 1038SOL     OW 3129   0.875   3.508   4.061
 1038SOL    HW1 3130   0.798   3.473   4.007
 1038SOL    HW2 3131   0.843   3.579   4.123
 1039SOL     OW 3132   0.230   4.352   0.113
 1039SOL    HW1 3133   0.137   4.350   0.150
 1039SOL    HW2 3134   0.231   4.313   0.021
 1040SOL     OW 3135   0.225   3.999   0.996
 1040SOL    HW1 3136   0.260   3.982   1.088
 1040SOL    HW2 3137   0.137   3.954   0.984
 1041SOL     OW 3138   0.019   4.092   0.647
 1041SOL    HW1 3139  -0.063   4.135   0.686
 1041SOL    HW2 3140  -0.009   4.019   0.584
 1042SOL     OW 3141   1.755   4.331   0.231
 1042SOL    HW1 3142   1.743   4.318   0.132
 1042SOL    HW2 3143   1.725   4.250   0.280
 1043SOL     OW 3144   0.850   4.522   1.823
 1043SOL    HW1 3145   0.846   4.598   1.888
 1043SOL    HW2 3146   0.872   4.558   1.732
 1044SOL     OW 3147   0.685   4.736   0.665
 1044SOL    HW1 3148   0.754   4.720   0.735
 1044SOL    HW2 3149   0.612   4.793   0.703
 1045SOL     OW 3150   0.438   4.116   1.499
 1045SOL    HW1 3151   0.520   4.060   1.508
 1045SOL    HW2 3152   0.357   4.058   1.503
 1046SOL     OW 3153   1.603   4.171   0.737
 1046SOL    HW1 3154   1.529   4.217   0.687
 1046SOL    HW2 3155   1.654   4.239   0.790
 1047SOL     OW 3156   1.594   3.838   1.480
 1047SOL    HW1 3157   1.576   3.905   1.408
 1047SOL    HW2 3158   1.591   3.884   1.569
 1048SOL     OW 3159   0.122   4.367   0.563
 1048SOL    HW1 3160   0.077   4.279   0.580
 1048SOL    HW2 3161   0.121   4.421   0.647
 1049SOL     OW 3162   0.113   4.461   1.597
 1049SOL    HW1 3163   0.201   4.448   1.642
 1049SOL    HW2 3164   0.100   4.558   1.575
 1050SOL     OW 3165   0.809   3.728   0.502
 1050SOL    HW1 3166   0.849   3.819   0.493
 1050SOL    HW2 3167   0.709   3.736   0.508
 1051SOL     OW 3168   0.317   3.975   1.801
 1051SOL    HW1 3169   0.388   4.046   1.807
 1051SOL    HW2 3170   0.229   4.014   1.829
 1052SOL     OW 3171   0.598   4.453   0.270
 1052SOL    HW1 3172   0.622   4.522   0.202
 1052SOL    HW2 3173   0.520   4.486   0.324
 1053SOL     OW 3174   1.281   4.069   0.944
 1053SOL    HW1 3175   1.195   4.019   0.931
 1053SOL    HW2 3176   1.343   4.015   1.000
 1054SOL     OW 3177   0.807   4.329   1.465
 1054SOL    HW1 3178   0.760   4.326   1.554
 1054SOL    HW2 3179   0.756   4.274   1.399
 1055SOL     OW 3180   1.394   4.193   1.674
 1055SOL    HW1 3181   1.374   4.236   1.762
 1055SOL    HW2 3182   1.472   4.131   1.683
 1056SOL     OW 3183   0.991   4.134   1.242
 1056SOL    HW1 3184   0.914   4.168   1.296
 1056SOL    HW2 3185   0.957   4.083   1.163
 1057SOL     OW 3186   1.041   4.425   0.429
 1057SOL    HW1 3187   1.067   4.421   0.525
 1057SOL    HW2 3188   0.956   4.374   0.415
 1058SOL     OW 3189   0.076   4.535   0.789
 1058SOL    HW1 3190   0.175   4.523   0.798
 1058SOL    HW2 3191   0.052   4.630   0.810
 1059SOL     OW 3192   0.865   4.072   0.195
 1059SOL    HW1 3193   0.924   4.135   0.146
 1059SOL    HW2 3194   0.884   3.978   0.166
 1060SOL     OW 3195   1.719   4.309   1.831
 1060SOL    HW1 3196   1.693   4.398   1.795
 1060SOL    HW2 3197   1.717   4.241   1.758
 1061SOL     OW 3198   0.550   3.920   0.885
 1061SOL    HW1 3199   0.545   3.915   0.985
 1061SOL    HW2 3200   0.552   4.016   0.856
 1062SOL     OW 3201   1.458   4.459   0.728
 1062SOL    HW1 3202   1.453   4.394   0.803
 1062SOL    HW2 3203   1.538   4.518   0.741
 1063SOL     OW 3204   0.202   4.009   1.498
 1063SOL    HW1 3205   0.122   4.069   1.485
 1063SOL    HW2 3206   0.192   3.960   1.584
 1064SOL     OW 3207   1.400   3.831   0.426
 1064SOL    HW1 3208   1.376   3.794   0.336
 1064SOL    HW2 3209   1.499   3.847   0.430
 1065SOL     OW 3210   0.382   4.424   0.480
 1065SOL    HW1 3211   0.427   4.334   0.477
 1065SOL    HW2 3212   0.288   4.413   0.513
 1066SOL     OW 3213   1.547   3.946   1.729
 1066SOL    HW1 3214   1.542   3.983   1.821
 1066SOL    HW2 3215   1.475   3.877   1.717
 1067SOL     OW 3216   0.781   3.988   1.749
 1067SOL    HW1 3217   0.848   3.927   1.792
 1067SOL    HW2 3218   0.708   4.007   1.814
 1068SOL     OW 3219   1.351   4.314   1.433
 1068SOL    HW1 3220   1.379   4.271   1.518
 1068SOL    HW2 3221   1.376   4.410   1.434
 1069SOL     OW 3222   0.922   4.227   0.899
 1069SOL    HW1 3223   0.897   4.218   0.803
 1069SOL    HW2 3224   0.970   4.145   0.930
 1070SOL     OW 3225   0.539   3.788   0.512
 1070SOL    HW1 3226   0.458   3.789   0.570
 1070SOL    HW2 3227   0.542   3.871   0.457
 1071SOL     OW 3228   0.297   3.759   0.171
 1071SOL    HW1 3229   0.346   3.843   0.150
 1071SOL    HW2 3230   0.359   3.694   0.216
 1072SOL     OW 3231   0.935   3.960   0.480
 1072SOL    HW1 3232   0.887   4.001   0.402
 1072SOL    HW2 3233   1.034   3.958   0.461
 1073SOL     OW 3234   1.076   4.407   1.464
 1073SOL    HW1 3235   0.996   4.346   1.467
 1073SOL    HW2 3236   1.157   4.354   1.440
 1074SOL     OW 3237   1.032   4.273   0.016
 1074SOL    HW1 3238   0.991   4.355  -0.023
 1074SOL    HW2 3239   1.096   4.299   0.089
 1075SOL     OW 3240   0.078   4.280   1.386
 1075SOL    HW1 3241   0.170   4.279   1.345
 1075SOL    HW2 3242   0.072   4.354   1.453
 1076SOL     OW 3243   0.561   3.946   1.147
 1076SOL    HW1 3244   0.599   3.862   1.184
 1076SOL    HW2 3245   0.473   3.965   1.191
 1077SOL     OW 3246   0.866   4.178   0.642
 1077SOL    HW1 3247   0.834   4.250   0.580
 1077SOL    HW2 3248   0.890   4.097   0.589
 1078SOL     OW 3249   1.017   3.763   0.753
 1078SOL    HW1 3250   0.945   3.768   0.684
 1078SOL    HW2 3251   0.993   3.694   0.822
 1079SOL     OW 3252   1.466   4.314   0.992
 1079SOL    HW1 3253   1.436   4.219   0.999
 1079SOL    HW2 3254   1.539   4.330   1.058
 1080SOL     OW 3255   1.857   4.557   0.377
 1080SOL    HW1 3256   1.899   4.493   0.441
 1080SOL    HW2 3257   1.819   4.506   0.299
 1081SOL     OW 3258   1.390   4.299   0.078
 1081SOL    HW1 3259   1.336   4.278   0.159
 1081SOL    HW2 3260   1.481   4.258   0.087
 1082SOL     OW 3261   0.527   3.980   0.328
 1082SOL    HW1 3262   0.554   3.921   0.253
 1082SOL    HW2 3263   0.527   4.075   0.297
 1083SOL     OW 3264   0.915   3.813   1.402
 1083SOL    HW1 3265   0.940   3.793   1.307
 1083SOL    HW2 3266   0.987   3.869   1.444
 1084SOL     OW 3267   0.705   4.774   0.368
 1084SOL    HW1 3268   0.691   4.781   0.467
 1084SOL    HW2 3269   0.789   4.723   0.350
 1085SOL     OW 3270   0.410   4.537   1.251
 1085SOL    HW1 3271   0.496   4.549   1.301
 1085SOL    HW2 3272   0.368   4.450   1.278
 1086SOL     OW 3273   1.274   4.110   1.262
 1086SOL    HW1 3274   1.295   4.184   1.326
 1086SOL    HW2 3275   1.185   4.127   1.219
 1087SOL     OW 3276   0.566   4.261   0.865
 1087SOL    HW1 3277   0.578   4.327   0.791
 1087SOL    HW2 3278   0.612   4.295   0.948
 1088SOL     OW 3279   1.582   4.363   0.472
 1088SOL    HW1 3280   1.551   4.424   0.545
 1088SOL    HW2 3281   1.632   4.415   0.403
 1089SOL     OW 3282   1.587   4.503   1.670
 1089SOL    HW1 3283   1.495   4.541   1.665
 1089SOL    HW2 3284   1.647   4.550   1.605
 1090SOL     OW 3285   1.013   3.829   1.770
 1090SOL    HW1 3286   1.019   3.914   1.718
 1090SOL    HW2 3287   1.045   3.753   1.713
 1091SOL     OW 3288   0.504   3.774   1.740
 1091SOL    HW1 3289   0.462   3.717   1.670
 1091SOL    HW2 3290   0.438   3.843   1.772
 1092SOL     OW 3291   1.360   4.586   1.045
 1092SOL    HW1 3292   1.285   4.586   0.979
 1092SOL    HW2 3293   1.397   4.494   1.054
 1093SOL     OW 3294   1.209   4.249   0.275
 1093SOL    HW1 3295   1.222   4.165   0.329
 1093SOL    HW2 3296   1.180   4.323   0.335
 1094SOL     OW 3297   0.307   3.937   1.231
 1094SOL    HW1 3298   0.284   3.974   1.321
 1094SOL    HW2 3299   0.277   3.842   1.225
 1095SOL     OW 3300   0.732   4.358   1.064
 1095SOL    HW1 3301   0.791   4.332   0.988
 1095SOL    HW2 3302   0.704   4.454   1.053
 1096SOL     OW 3303   1.728   4.659   1.854
 1096SOL    HW1 3304   1.682   4.652   1.765
 1096SOL    HW2 3305   1.666   4.703   1.920
 1097SOL     OW 3306   0.307   3.787   0.618
 1097SOL    HW1 3307   0.296   3.881   0.651
 1097SOL    HW2 3308   0.302   3.724   0.695
 1098SOL     OW 3309   1.622   4.091   0.374
 1098SOL    HW1 3310   1.624   4.015   0.438
 1098SOL    HW2 3311   1.574   4.168   0.414
 1099SOL     OW 3312   1.540   3.998   0.125
 1099SOL    HW1 3313   1.479   3.923   0.148
 1099SOL    HW2 3314   1.562   4.050   0.208
 1100SOL     OW 3315   0.319   4.534   0.949
 1100SOL    HW1 3316   0.412   4.570   0.954
 1100SOL    HW2 3317   0.313   4.449   1.001
 1101SOL     OW 3318   0.339   4.233   1.006
 1101SOL    HW1 3319   0.287   4.150   0.989
 1101SOL    HW2 3320   0.416   4.238   0.942
 1102SOL     OW 3321   1.138   4.104   1.678
 1102SOL    HW1 3322   1.093   4.167   1.742
 1102SOL    HW2 3323   1.231   4.135   1.661
 1103SOL     OW 3324   1.160   3.931   1.477
 1103SOL    HW1 3325   1.160   3.995   1.554
 1103SOL    HW2 3326   1.188   3.979   1.394
 1104SOL     OW 3327   0.040   4.268   1.114
 1104SOL    HW1 3328   0.125   4.235   1.073
 1104SOL    HW2 3329   0.053   4.283   1.212
 1105SOL     OW 3330   0.189   4.244   1.722
 1105SOL    HW1 3331   0.248   4.204   1.652
 1105SOL    HW2 3332   0.131   4.315   1.681
 1106SOL     OW 3333   0.815   4.296   0.325
 1106SOL    HW1 3334   0.822   4.207   0.279
 1106SOL    HW2 3335   0.721   4.330   0.317
 1107SOL     OW 3336   1.657   4.328   1.206
 1107SOL    HW1 3337   1.619   4.259   1.268
 1107SOL    HW2 3338   1.739   4.292   1.162
 1108SOL     OW 3339   0.671   4.188   1.269
 1108SOL    HW1 3340   0.637   4.099   1.239
 1108SOL    HW2 3341   0.697   4.242   1.189
 1109SOL     OW 3342   0.473   4.224   0.191
 1109SOL    HW1 3343   0.534   4.304   0.195
 1109SOL    HW2 3344   0.378   4.255   0.198
 1110SOL     OW 3345   0.903   3.810   0.133
 1110SOL    HW1 3346   0.954   3.811   0.047
 1110SOL    HW2 3347   0.959   3.768   0.204
 1111SOL     OW 3348   1.726   3.859   0.523
 1111SOL    HW1 3349   1.799   3.842   0.456
 1111SOL    HW2 3350   1.695   3.772   0.561
 1112SOL     OW 3351   1.280   4.651   0.672
 1112SOL    HW1 3352   1.340   4.570   0.674
 1112SOL    HW2 3353   1.320   4.720   0.612
 1113SOL     OW 3354   1.841   3.899   0.963
 1113SOL    HW1 3355   1.880   3.814   0.927
 1113SOL    HW2 3356   1.743   3.901   0.944
 1114SOL     OW 3357   0.263   4.050   0.720
 1114SOL    HW1 3358   0.184   4.101   0.686
 1114SOL    HW2 3359   0.254   4.035   0.818
 1115SOL     OW 3360   1.014   3.960   0.971
 1115SOL    HW1 3361   1.006   3.924   0.878
 1115SOL    HW2 3362   1.012   3.884   1.036
 1116SOL     OW 3363   1.709   4.109   1.381
 1116SOL    HW1 3364   1.782   4.178   1.385
 1116SOL    HW2 3365   1.737   4.034   1.322
 1117SOL     OW 3366   0.105   4.737   1.726
 1117SOL    HW1 3367   0.028   4.704   1.780
 1117SOL    HW2 3368   0.190   4.707   1.768
 1118SOL     OW 3369   0.672   3.927   1.489
 1118SOL    HW1 3370   0.762   3.911   1.449
 1118SOL    HW2 3371   0.680   3.932   1.588
 1119SOL     OW 3372   0.075   4.069   0.033
 1119SOL    HW1 3373  -0.017   4.041   0.004
 1119SOL    HW2 3374   0.106   4.146  -0.023
 1120SOL     OW 3375   0.072   3.890   0.318
 1120SOL    HW1 3376   0.055   3.973   0.264
 1120SOL    HW2 3377   0.162   3.853   0.296
 1121SOL     OW 3378   0.716   4.289   1.708
 1121SOL    HW1 3379   0.735   4.354   1.782
 1121SOL    HW2 3380   0.776   4.209   1.717
 1122SOL     OW 3381   1.674   4.607   1.254
 1122SOL    HW1 3382   1.647   4.518   1.217
 1122SOL    HW2 3383   1.675   4.675   1.181
 1123SOL     OW 3384   1.225   4.049   0.449
 1123SOL    HW1 3385   1.290   3.975   0.438
 1123SOL    HW2 3386   1.245   4.099   0.533
 1124SOL     OW 3387   0.594   4.469   0.652
 1124SOL    HW1 3388   0.644   4.554   0.633
 1124SOL    HW2 3389   0.506   4.471   0.604
 1125SOL     OW 3390   1.777   4.066   1.642
 1125SOL    HW1 3391   1.760   4.097   1.548
 1125SOL    HW2 3392   1.693   4.029   1.680
 1126SOL     OW 3393   0.859   4.680   0.861
 1126SOL    HW1 3394   0.913   4.611   0.909
 1126SOL    HW2 3395   0.827   4.749   0.927
 1127SOL     OW 3396   1.824   3.916   1.227
 1127SOL    HW1 3397   1.820   3.826   1.271
 1127SOL    HW2 3398   1.827   3.905   1.128
 1128SOL     OW 3399   0.428   4.148   0.520
 1128SOL    HW1 3400   0.458   4.076   0.458
 1128SOL    HW2 3401   0.389   4.108   0.603
 1129SOL     OW 3402   0.317   4.271   1.280
 1129SOL    HW1 3403   0.355   4.212   1.352
 1129SOL    HW2 3404   0.357   4.245   1.192
 1130SOL     OW 3405   1.424   3.938   1.112
 1130SOL    HW1 3406   1.476   3.873   1.167
 1130SOL    HW2 3407   1.375   4.001   1.173
 1131SOL     OW 3408   1.001   3.758   1.154
 1131SOL    HW1 3409   0.938   3.686   1.123
 1131SOL    HW2 3410   1.094   3.722   1.154
 1132SOL     OW 3411   1.352   3.776   0.168
 1132SOL    HW1 3412   1.387   3.735   0.084
 1132SOL    HW2 3413   1.262   3.738   0.188
 1133SOL     OW 3414   1.300   4.177   0.691
 1133SOL    HW1 3415   1.241   4.257   0.695
 1133SOL    HW2 3416   1.315   4.142   0.784
 1134SOL     OW 3417   1.593   3.945   0.882
 1134SOL    HW1 3418   1.509   3.944   0.936
 1134SOL    HW2 3419   1.595   4.028   0.826
 1135SOL     OW 3420   0.230   4.352   1.975
 1135SOL    HW1 3421   0.137   4.350   2.012
 1135SOL    HW2 3422   0.231   4.313   1.883
 1136SOL     OW 3423   0.225   3.999   2.858
 1136SOL    HW1 3424   0.260   3.982   2.950
 1136SOL    HW2 3425   0.137   3.954   2.846
 1137SOL     OW 3426   0.019   4.092   2.509
 1137SOL    HW1 3427  -0.063   4.135   2.548
 1137SOL    HW2 3428  -0.009   4.019   2.446
 1138SOL     OW 3429   1.755   4.331   2.093
 1138SOL    HW1 3430   1.743   4.318   1.994
 1138SOL    HW2 3431   1.725   4.250   2.142
 1139SOL     OW 3432   0.850   4.522   3.685
 1139SOL    HW1 3433   0.846   4.598   3.750
 1139SOL    HW2 3434   0.872   4.558   3.594
 1140SOL     OW 3435   0.685   4.736   2.527
 1140SOL    HW1 3436   0.754   4.720   2.597
 1140SOL    HW2 3437   0.612   4.793   2.565
 1141SOL     OW 3438   0.438   4.116   3.361
 1141SOL    HW1 3439   0.520   4.060   3.370
 1141SOL    HW2 3440   0.357   4.058   3.365
 1142SOL     OW 3441   1.603   4.171   2.599
 1142SOL    HW1 3442   1.529   4.217   2.549
 1142SOL    HW2 3443   1.654   4.239   2.652
 1143SOL     OW 3444   1.594   3.838   3.342
 1143SOL    HW1 3445   1.576   3.905   3.270
 1143SOL    HW2 3446   1.591   3.884   3.431
 1144SOL     OW 3447   0.122   4.367   2.425
 1144SOL    HW1 3448   0.077   4.279   2.442
 1144SOL    HW2 3449   0.121   4.421   2.509
 1145SOL     OW 3450   0.113   4.461   3.459
 1145SOL    HW1 3451   0.201   4.448   3.504
 1145SOL    HW2 3452   0.100   4.558   3.437
 1146SOL     OW 3453   0.809   3.728   2.364
 1146SOL    HW1 3454   0.849   3.819   2.355
 1146SOL    HW2 3455   0.709   3.736   2.370
 1147SOL     OW 3456   0.317   3.975   3.663
 1147SOL    HW1 3457   0.388   4.046   3.669
 1147SOL    HW2 3458   0.229   4.014   3.691
 1148SOL     OW 3459   0.598   4.453   2.132
 1148SOL    HW1 3460   0.622   4.522   2.064
 1148SOL    HW2 3461   0.520   4.486   2.186
 1149SOL     OW 3462   1.281   4.069   2.806
 1149SOL    HW1 3463   1.195   4.019   2.793
 1149SOL    HW2 3464   1.343   4.015   2.862
 1150SOL     OW 3465   0.807   4.329   3.327
 1150SOL    HW1 3466   0.760   4.326   3.416
 1150SOL    HW2 3467   0.756   4.274   3.261
 1151SOL     OW 3468   1.394   4.193   3.536
 1151SOL    HW1 3469   1.374   4.236   3.624
 1151SOL    HW2 3470   1.472   4.131   3.545
 1152SOL     OW 3471   0.991   4.134   3.104
 1152SOL    HW1 3472   0.914   4.168   3.158
 1152SOL    HW2 3473   0.957   4.083   3.025
 1153SOL     OW 3474   1.041   4.425   2.291
 1153SOL    HW1 3475   1.067   4.421   2.387
 1153SOL    HW2 3476   0.956   4.374   2.277
 1154SOL     OW 3477   0.076   4.535   2.651
 1154SOL    HW1 3478   0.175   4.523   2.660
 1154SOL    HW2 3479   0.052   4.630   2.672
 1155SOL     OW 3480   0.865   4.072   2.057
 1155SOL    HW1 3481   0.924   4.135   2.008
 1155SOL    HW2 3482   0.884   3.978   2.028
 1156SOL     OW 3483   1.719   4.309   3.693
 1156SOL    HW1 3484   1.693   4.398   3.657
 1156SOL    HW2 3485   1.717   4.241   3.620
 1157SOL     OW 3486   0.550   3.920   2.747
 1157SOL    HW1 3487   0.545   3.915   2.847
 1157SOL    HW2 3488   0.552   4.016   2.718
 1158SOL     OW 3489   1.458   4.459   2.590
 1158SOL    HW1 3490   1.453   4.394   2.665
 1158SOL    HW2 3491   1.538   4.518   2.603
 1159SOL     OW 3492   0.202   4.009   3.360
 1159SOL    HW1 3493   0.122   4.069   3.347
 1159SOL    HW2 3494   0.192   3.960   3.446
 1160SOL     OW 3495   1.400   3.831   2.288
 1160SOL    HW1 3496   1.376   3.794   2.198
 1160SOL    HW2 3497   1.499   3.847   2.292
 1161SOL     OW 3498   0.382   4.424   2.342
 1161SOL    HW1 3499   0.427   4.334   2.339
 1161SOL    HW2 3500   0.288   4.413   2.375
 1162SOL     OW 3501   1.547   3.946   3.591
 1162SOL    HW1 3502   1.542   3.983   3.683
 1162SOL    HW2 3503   1.475   3.877   3.579
 1163SOL     OW 3504   0.614   3.846   1.979
 1163SOL    HW1 3505   0.712   3.824   1.986
 1163SOL    HW2 3506   0.583   3.829   1.886
 1164SOL     OW 3507   0.781   3.988   3.611
 1164SOL    HW1 3508   0.848   3.927   3.654
 1164SOL    HW2 3509   0.708   4.007   3.676
 1165SOL     OW 3510   1.351   4.314   3.295
 1165SOL    HW1 3511   1.379   4.271   3.380
 1165SOL    HW2 3512   1.376   4.410   3.296
 1166SOL     OW 3513   0.922   4.227   2.761
 1166SOL    HW1 3514   0.897   4.218   2.665
 1166SOL    HW2 3515   0.970   4.145   2.792
 1167SOL     OW 3516   0.539   3.788   2.374
 1167SOL    HW1 3517   0.458   3.789   2.432
 1167SOL    HW2 3518   0.542   3.871   2.319
 1168SOL     OW 3519   0.297   3.759   2.033
 1168SOL    HW1 3520   0.346   3.843   2.012
 1168SOL    HW2 3521   0.359   3.694   2.078
 1169SOL     OW 3522   0.935   3.960   2.342
 1169SOL    HW1 3523   0.887   4.001   2.264
 1169SOL    HW2 3524   1.034   3.958   2.323
 1170SOL     OW 3525   1.076   4.407   3.326
 1170SOL    HW1 3526   0.996   4.346   3.329
 1170SOL    HW2 3527   1.157   4.354   3.302
 1171SOL     OW 3528   1.032   4.273   1.878
 1171SOL    HW1 3529   0.991   4.355   1.839
 1171SOL    HW2 3530   1.096   4.299   1.951
 1172SOL     OW 3531   0.078   4.280   3.248
 1172SOL    HW1 3532   0.170   4.279   3.207
 1172SOL    HW2 3533   0.072   4.354   3.315
 1173SOL     OW 3534   0.561   3.946   3.009
 1173SOL    HW1 3535   0.599   3.862   3.046
 1173SOL    HW2 3536   0.473   3.965   3.053
 1174SOL     OW 3537   0.866   4.178   2.504
 1174SOL    HW1 3538   0.834   4.250   2.442
 1174SOL    HW2 3539   0.890   4.097   2.451
 1175SOL     OW 3540   1.017   3.763   2.615
 1175SOL    HW1 3541   0.945   3.768   2.546
 1175SOL    HW2 3542   0.993   3.694   2.684
 1176SOL     OW 3543   1.466   4.314   2.854
 1176SOL    HW1 3544   1.436   4.219   2.861
 1176SOL    HW2 3545   1.539   4.330   2.920
 1177SOL     OW 3546   1.857   4.557   2.239
 1177SOL    HW1 3547   1.899   4.493   2.303
 1177SOL    HW2 3548   1.819   4.506   2.161
 1178SOL     OW 3549   1.390   4.299   1.940
 1178SOL    HW1 3550   1.336   4.278   2.021
 1178SOL    HW2 3551   1.481   4.258   1.949
 1179SOL     OW 3552   0.527   3.980   2.190
 1179SOL    HW1 3553   0.554   3.921   2.115
 1179SOL    HW2 3554   0.527   4.075   2.159
 1180SOL     OW 3555   0.915   3.813   3.264
 1180SOL    HW1 3556   0.940   3.793   3.169
 1180SOL    HW2 3557   0.987   3.869   3.306
 1181SOL     OW 3558   0.705   4.774   2.230
 1181SOL    HW1 3559   0.691   4.781   2.329
 1181SOL    HW2 3560   0.789   4.723   2.212
 1182SOL     OW 3561   0.410   4.537   3.113
 1182SOL    HW1 3562   0.496   4.549   3.163
 1182SOL    HW2 3563   0.368   4.450   3.140
 1183SOL     OW 3564   1.274   4.110   3.124
 1183SOL    HW1 3565   1.295   4.184   3.188
 1183SOL    HW2 3566   1.185   4.127   3.081
 1184SOL     OW 3567   0.566   4.261   2.727
 1184SOL    HW1 3568   0.578   4.327   2.653
 1184SOL    HW2 3569   0.612   4.295   2.810
 1185SOL     OW 3570   1.582   4.363   2.334
 1185SOL    HW1 3571   1.551   4.424   2.407
 1185SOL    HW2 3572   1.632   4.415   2.265
 1186SOL     OW 3573   1.587   4.503   3.532
 1186SOL    HW1 3574   1.495   4.541   3.527
 1186SOL    HW2 3575   1.647   4.550   3.467
 1187SOL     OW 3576   1.013   3.829   3.632
 1187SOL    HW1 3577   1.019   3.914   3.580
 1187SOL    HW2 3578   1.045   3.753   3.575
 1188SOL     OW 3579   0.504   3.774   3.602
 1188SOL    HW1 3580   0.462   3.717   3.532
 1188SOL    HW2 3581   0.438   3.843   3.634
 1189SOL     OW 3582   1.360   4.586   2.907
 1189SOL    HW1 3583   1.285   4.586   2.841
 1189SOL    HW2 3584   1.397   4.494   2.916
 1190SOL     OW 3585   1.209   4.249   2.137
 1190SOL    HW1 3586   1.222   4.165   2.191
 1190SOL    HW2 3587   1.180   4.323   2.197
 1191SOL     OW 3588   0.307   3.937   3.093
 1191SOL    HW1 3589   0.284   3.974   3.183
 1191SOL    HW2 3590   0.277   3.842   3.087
 1192SOL     OW 3591   0.732   4.358   2.926
 1192SOL    HW1 3592   0.791   4.332   2.850
 1192SOL    HW2 3593   0.704   4.454   2.915
 1193SOL     OW 3594   1.728   4.659   3.716
 1193SOL    HW1 3595   1.682   4.652   3.627
 1193SOL    HW2 3596   1.666   4.703   3.782
 1194SOL     OW 3597   0.307   3.787   2.480
 1194SOL    HW1 3598   0.296   3.881   2.513
 1194SOL    HW2 3599   0.302   3.724   2.557
 1195SOL     OW 3600   1.622   4.091   2.236
 1195SOL    HW1 3601   1.624   4.015   2.300
 1195SOL    HW2 3602   1.574   4.168   2.276
 1196SOL     OW 3603   1.540   3.998   1.987
 1196SOL    HW1 3604   1.479   3.923   2.010
 1196SOL    HW2 3605   1.562   4.050   2.070
 1197SOL     OW 3606   0.319   4.534   2.811
 1197SOL    HW1 3607   0.412   4.570   2.816
 1197SOL    HW2 3608   0.313   4.449   2.863
 1198SOL     OW 3609   0.339   4.233   2.868
 1198SOL    HW1 3610   0.287   4.150   2.851
 1198SOL    HW2 3611   0.416   4.238   2.804
 1199SOL     OW 3612   1.138   4.104   3.540
 1199SOL    HW1 3613   1.093   4.167   3.604
 1199SOL    HW2 3614   1.231   4.135   3.523
 1200SOL     OW 3615   1.160   3.931   3.339
 1200SOL    HW1 3616   1.160   3.995   3.416
 1200SOL    HW2 3617   1.188   3.979   3.256
 1201SOL     OW 3618   0.040   4.268   2.976
 1201SOL    HW1 3619   0.125   4.235   2.935
 1201SOL    HW2 3620   0.053   4.283   3.074
 1202SOL     OW 3621   0.189   4.244   3.584
 1202SOL    HW1 3622   0.248   4.204   3.514
 1202SOL    HW2 3623   0.131   4.315   3.543
 1203SOL     OW 3624   0.815   4.296   2.187
 1203SOL    HW1 3625   0.822   4.207   2.141
 1203SOL    HW2 3626   0.721   4.330   2.179
 1204SOL     OW 3627   1.657   4.328   3.068
 1204SOL    HW1 3628   1.619   4.259   3.130
 1204SOL    HW2 3629   1.739   4.292   3.024
 1205SOL     OW 3630   0.671   4.188   3.131
 1205SOL    HW1 3631   0.637   4.099   3.101
 1205SOL    HW2 3632   0.697   4.242   3.051
 1206SOL     OW 3633   0.473   4.224   2.053
 1206SOL    HW1 3634   0.534   4.304   2.057
 1206SOL    HW2 3635   0.378   4.255   2.060
 1207SOL     OW 3636   1.726   3.859   2.385
 1207SOL    HW1 3637   1.799   3.842   2.318
 1207SOL    HW2 3638   1.695   3.772   2.423
 1208SOL     OW 3639   1.280   4.651   2.534
 1208SOL    HW1 3640   1.340   4.570   2.536
 1208SOL    HW2 3641   1.320   4.720   2.474
 1209SOL     OW 3642   1.841   3.899   2.825
 1209SOL    HW1 3643   1.880   3.814   2.789
 1209SOL    HW2 3644   1.743   3.901   2.806
 1210SOL     OW 3645   0.263   4.050   2.582
 1210SOL    HW1 3646   0.184   4.101   2.548
 1210SOL    HW2 3647   0.254   4.035   2.680
 1211SOL     OW 3648   0.916   4.634   2.153
 1211SOL    HW1 3649   0.979   4.672   2.085
 1211SOL    HW2 3650   0.956   4.551   2.192
 1212SOL     OW 3651   1.014   3.960   2.833
 1212SOL    HW1 3652   1.006   3.924   2.740
 1212SOL    HW2 3653   1.012   3.884   2.898
 1213SOL     OW 3654   1.709   4.109   3.243
 1213SOL    HW1 3655   1.782   4.178   3.247
 1213SOL    HW2 3656   1.737   4.034   3.184
 1214SOL     OW 3657   0.105   4.737   3.588
 1214SOL    HW1 3658   0.028   4.704   3.642
 1214SOL    HW2 3659   0.190   4.707   3.630
 1215SOL     OW 3660   0.672   3.927   3.351
 1215SOL    HW1 3661   0.762   3.911   3.311
 1215SOL    HW2 3662   0.680   3.932   3.450
 1216SOL     OW 3663   0.075   4.069   1.895
 1216SOL    HW1 3664  -0.017   4.041   1.866
 1216SOL    HW2 3665   0.106   4.146   1.839
 1217SOL     OW 3666   0.072   3.890   2.180
 1217SOL    HW1 3667   0.055   3.973   2.126
 1217SOL    HW2 3668   0.162   3.853   2.158
 1218SOL     OW 3669   0.716   4.289   3.570
 1218SOL    HW1 3670   0.735   4.354   3.644
 1218SOL    HW2 3671   0.776   4.209   3.579
 1219SOL     OW 3672   1.674   4.607   3.116
 1219SOL    HW1 3673   1.647   4.518   3.079
 1219SOL    HW2 3674   1.675   4.675   3.043
 1220SOL     OW 3675   1.225   4.049   2.311
 1220SOL    HW1 3676   1.290   3.975   2.300
 1220SOL    HW2 3677   1.245   4.099   2.395
 1221SOL     OW 3678   0.594   4.469   2.514
 1221SOL    HW1 3679   0.644   4.554   2.495
 1221SOL    HW2 3680   0.506   4.471   2.466
 1222SOL     OW 3681   1.777   4.066   3.504
 1222SOL    HW1 3682   1.760   4.097   3.410
 1222SOL    HW2 3683   1.693   4.029   3.542
 1223SOL     OW 3684   0.859   4.680   2.723
 1223SOL    HW1 3685   0.913   4.611   2.771
 1223SOL    HW2 3686   0.827   4.749   2.789
 1224SOL     OW 3687   1.824   3.916   3.089
 1224SOL    HW1 3688   1.820   3.826   3.133
 1224SOL    HW2 3689   1.827   3.905   2.990
 1225SOL     OW 3690   0.428   4.148   2.382
 1225SOL    HW1 3691   0.458   4.076   2.320
 1225SOL    HW2 3692   0.389   4.108   2.465
 1226SOL     OW 3693   0.317   4.271   3.142
 1226SOL    HW1 3694   0.355   4.212   3.214
 1226SOL    HW2 3695   0.357   4.245   3.054
 1227SOL     OW 3696   1.424   3.938   2.974
 1227SOL    HW1 3697   1.476   3.873   3.029
 1227SOL    HW2 3698   1.375   4.001   3.035
 1228SOL     OW 3699   1.001   3.758   3.016
 1228SOL    HW1 3700   0.938   3.686   2.985
 1228SOL    HW2 3701   1.094   3.722   3.016
 1229SOL     OW 3702   1.352   3.776   2.030
 1229SOL    HW1 3703   1.387   3.735   1.946
 1229SOL    HW2 3704   1.262   3.738   2.050
 1230SOL     OW 3705   1.300   4.177   2.553
 1230SOL    HW1 3706   1.241   4.257   2.557
 1230SOL    HW2 3707   1.315   4.142   2.646
 1231SOL     OW 3708   1.593   3.945   2.744
 1231SOL    HW1 3709   1.509   3.944   2.798
 1231SOL    HW2 3710   1.595   4.028   2.688
 1232SOL     OW 3711   0.230   4.352   3.837
 1232SOL    HW1 3712   0.137   4.350   3.874
 1232SOL    HW2 3713   0.231   4.313   3.745
 1233SOL     OW 3714   0.225   3.999   4.720
 1233SOL    HW1 3715   0.260   3.982   4.812
 1233SOL    HW2 3716   0.137   3.954   4.708
 1234SOL     OW 3717   0.019   4.092   4.371
 1234SOL    HW1 3718  -0.063   4.135   4.410
 1234SOL    HW2 3719  -0.009   4.019   4.308
 1235SOL     OW 3720   1.755   4.331   3.955
 1235SOL    HW1 3721   1.743   4.318   3.856
 1235SOL    HW2 3722   1.725   4.250   4.004
 1236SOL     OW 3723   0.685   4.736   4.389
 1236SOL    HW1 3724   0.754   4.720   4.459
 1236SOL    HW2 3725   0.612   4.793   4.427
 1237SOL     OW 3726   1.603   4.171   4.461
 1237SOL    HW1 3727   1.529   4.217   4.411
 1237SOL    HW2 3728   1.654   4.239   4.514
 1238SOL     OW 3729   0.122   4.367   4.287
 1238SOL    HW1 3730   0.077   4.279   4.304
 1238SOL    HW2 3731   0.121   4.421   4.371
 1239SOL     OW 3732   0.809   3.728   4.226
 1239SOL    HW1 3733   0.849   3.819   4.217
 1239SOL    HW2 3734   0.709   3.736   4.232
 1240SOL     OW 3735   0.598   4.453   3.994
 1240SOL    HW1 3736   0.622   4.522   3.926
 1240SOL    HW2 3737   0.520   4.486   4.048
 1241SOL     OW 3738   1.281   4.069   4.668
 1241SOL    HW1 3739   1.195   4.019   4.655
 1241SOL    HW2 3740   1.343   4.015   4.724
 1242SOL     OW 3741   1.041   4.425   4.153
 1242SOL    HW1 3742   1.067   4.421   4.249
 1242SOL    HW2 3743   0.956   4.374   4.139
 1243SOL     OW 3744   0.076   4.535   4.513
 1243SOL    HW1 3745   0.175   4.523   4.522
 1243SOL    HW2 3746   0.052   4.630   4.534
 1244SOL     OW 3747   0.865   4.072   3.919
 1244SOL    HW1 3748   0.924   4.135   3.870
 1244SOL    HW2 3749   0.884   3.978   3.890
 1245SOL     OW 3750   1.458   4.459   4.452
 1245SOL    HW1 3751   1.453   4.394   4.527
 1245SOL    HW2 3752   1.538   4.518   4.465
 1246SOL     OW 3753   1.400   3.831   4.150
 1246SOL    HW1 3754   1.376   3.794   4.060
 1246SOL    HW2 3755   1.499   3.847   4.154
 1247SOL     OW 3756   0.382   4.424   4.204
 1247SOL    HW1 3757   0.427   4.334   4.201
 1247SOL    HW2 3758   0.288   4.413   4.237
 1248SOL     OW 3759   0.614   3.846   3.841
 1248SOL    HW1 3760   0.712   3.824   3.848
 1248SOL    HW2 3761   0.583   3.829   3.748
 1249SOL     OW 3762   0.539   3.788   4.236
 1249SOL    HW1 3763   0.458   3.789   4.294
 1249SOL    HW2 3764   0.542   3.871   4.181
 1250SOL     OW 3765   0.297   3.759   3.895
 1250SOL    HW1 3766   0.346   3.843   3.874
 1250SOL    HW2 3767   0.359   3.694   3.940
 1251SOL     OW 3768   0.935   3.960   4.204
 1251SOL    HW1 3769   0.887   4.001   4.126
 1251SOL    HW2 3770   1.034   3.958   4.185
 1252SOL     OW 3771   1.032   4.273   3.740
 1252SOL    HW1 3772   0.991   4.355   3.701
 1252SOL    HW2 3773   1.096   4.299   3.813
 1253SOL     OW 3774   0.866   4.178   4.366
 1253SOL    HW1 3775   0.834   4.250   4.304
 1253SOL    HW2 3776   0.890   4.097   4.313
 1254SOL     OW 3777   1.857   4.557   4.101
 1254SOL    HW1 3778   1.899   4.493   4.165
 1254SOL    HW2 3779   1.819   4.506   4.023
 1255SOL     OW 3780   1.390   4.299   3.802
 1255SOL    HW1 3781   1.336   4.278   3.883
 1255SOL    HW2 3782   1.481   4.258   3.811
 1256SOL     OW 3783   0.527   3.980   4.052
 1256SOL    HW1 3784   0.554   3.921   3.977
 1256SOL    HW2 3785   0.527   4.075   4.021
 1257SOL     OW 3786   0.705   4.774   4.092
 1257SOL    HW1 3787   0.691   4.781   4.191
 1257SOL    HW2 3788   0.789   4.723   4.074
 1258SOL     OW 3789   1.582   4.363   4.196
 1258SOL    HW1 3790   1.551   4.424   4.269
 1258SOL    HW2 3791   1.632   4.415   4.127
 1259SOL     OW 3792   1.209   4.249   3.999
 1259SOL    HW1 3793   1.222   4.165   4.053
 1259SOL    HW2 3794   1.180   4.323   4.059
 1260SOL     OW 3795   0.307   3.787   4.342
 1260SOL    HW1 3796   0.296   3.881   4.375
 1260SOL    HW2 3797   0.302   3.724   4.419
 1261SOL     OW 3798   1.622   4.091   4.098
 1261SOL    HW1 3799   1.624   4.015   4.162
 1261SOL    HW2 3800   1.574   4.168   4.138
 1262SOL     OW 3801   1.540   3.998   3.849
 1262SOL    HW1 3802   1.479   3.923   3.872
 1262SOL    HW2 3803   1.562   4.050   3.932
 1263SOL     OW 3804   0.040   4.268   4.838
 1263SOL    HW1 3805   0.125   4.235   4.797
 1263SOL    HW2 3806   0.053   4.283   4.936
 1264SOL     OW 3807   0.815   4.296   4.049
 1264SOL    HW1 3808   0.822   4.207   4.003
 1264SOL    HW2 3809   0.721   4.330   4.041
 1265SOL     OW 3810   0.473   4.224   3.915
 1265SOL    HW1 3811   0.534   4.304   3.919
 1265SOL    HW2 3812   0.378   4.255   3.922
 1266SOL     OW 3813   1.726   3.859   4.247
 1266SOL    HW1 3814   1.799   3.842   4.180
 1266SOL    HW2 3815   1.695   3.772   4.285
 1267SOL     OW 3816   1.280   4.651   4.396
 1267SOL    HW1 3817   1.340   4.570   4.398
 1267SOL    HW2 3818   1.320   4.720   4.336
 1268SOL     OW 3819   1.841   3.899   4.687
 1268SOL    HW1 3820   1.880   3.814   4.651
 1268SOL    HW2 3821   1.743   3.901   4.668
 1269SOL     OW 3822   0.263   4.050   4.444
 1269SOL    HW1 3823   0.184   4.101   4.410
 1269SOL    HW2 3824   0.254   4.035   4.542
 1270SOL     OW 3825   0.916   4.634   4.015
 1270SOL    HW1 3826   0.979   4.672   3.947
 1270SOL    HW2 3827   0.956   4.551   4.054
 1271SOL     OW 3828   1.039   4.822   4.420
 1271SOL    HW1 3829   0.969   4.775   4.474
 1271SOL    HW2 3830   1.098   4.754   4.377
 1272SOL     OW 3831   0.075   4.069   3.757
 1272SOL    HW1 3832  -0.017   4.041   3.728
 1272SOL    HW2 3833   0.106   4.146   3.701
 1273SOL     OW 3834   0.072   3.890   4.042
 1273SOL    HW1 3835   0.055   3.973   3.988
 1273SOL    HW2 3836   0.162   3.853   4.020
 1274SOL     OW 3837   1.225   4.049   4.173
 1274SOL    HW1 3838   1.290   3.975   4.162
 1274SOL    HW2 3839   1.245   4.099   4.257
 1275SOL     OW 3840   0.594   4.469   4.376
 1275SOL    HW1 3841   0.644   4.554   4.357
 1275SOL    HW2 3842   0.506   4.471   4.328
 1276SOL     OW 3843   0.428   4.148   4.244
 1276SOL    HW1 3844   0.458   4.076   4.182
 1276SOL    HW2 3845   0.389   4.108   4.327
 1277SOL     OW 3846   1.352   3.776   3.892
 1277SOL    HW1 3847   1.387   3.735   3.808
 1277SOL    HW2 3848   1.262   3.738   3.912
 1278SOL     OW 3849   1.300   4.177   4.415
 1278SOL    HW1 3850   1.241   4.257   4.419
 1278SOL    HW2 3851   1.315   4.142   4.508
 1279SOL     OW 3852   2.092   0.628   0.113
 1279SOL    HW1 3853   1.999   0.626   0.150
 1279SOL    HW2 3854   2.093   0.589   0.021
 1280SOL     OW 3855   2.087   0.275   0.996
 1280SOL    HW1 3856   2.122   0.258   1.088
 1280SOL    HW2 3857   1.999   0.230   0.984
 1281SOL     OW 3858   1.881   0.368   0.647
 1281SOL    HW1 3859   1.799   0.411   0.686
 1281SOL    HW2 3860   1.853   0.295   0.584
 1282SOL     OW 3861   2.431   1.275   1.165
 1282SOL    HW1 3862   2.338   1.268   1.128
 1282SOL    HW2 3863   2.442   1.364   1.209
 1283SOL     OW 3864   3.417   1.511   0.703
 1283SOL    HW1 3865   3.360   1.495   0.784
 1283SOL    HW2 3866   3.358   1.521   0.623
 1284SOL     OW 3867   2.997   0.703   0.717
 1284SOL    HW1 3868   3.054   0.781   0.692
 1284SOL    HW2 3869   2.937   0.729   0.793
 1285SOL     OW 3870   3.617   0.607   0.231
 1285SOL    HW1 3871   3.605   0.594   0.132
 1285SOL    HW2 3872   3.587   0.526   0.280
 1286SOL     OW 3873   2.630   1.144   1.023
 1286SOL    HW1 3874   2.552   1.161   1.083
 1286SOL    HW2 3875   2.664   1.231   0.987
 1287SOL     OW 3876   2.712   0.798   1.823
 1287SOL    HW1 3877   2.708   0.874   1.888
 1287SOL    HW2 3878   2.734   0.834   1.732
 1288SOL     OW 3879   2.547   1.012   0.665
 1288SOL    HW1 3880   2.616   0.996   0.735
 1288SOL    HW2 3881   2.474   1.069   0.703
 1289SOL     OW 3882   2.548   1.161   1.803
 1289SOL    HW1 3883   2.608   1.240   1.817
 1289SOL    HW2 3884   2.462   1.192   1.762
 1290SOL     OW 3885   2.197   1.435   1.061
 1290SOL    HW1 3886   2.119   1.404   1.008
 1290SOL    HW2 3887   2.255   1.493   1.004
 1291SOL     OW 3888   3.322   1.505   1.339
 1291SOL    HW1 3889   3.346   1.599   1.365
 1291SOL    HW2 3890   3.306   1.451   1.421
 1292SOL     OW 3891   2.300   0.392   1.499
 1292SOL    HW1 3892   2.382   0.336   1.508
 1292SOL    HW2 3893   2.219   0.334   1.503
 1293SOL     OW 3894   3.465   0.447   0.737
 1293SOL    HW1 3895   3.391   0.493   0.687
 1293SOL    HW2 3896   3.516   0.515   0.790
 1294SOL     OW 3897   2.093   1.713   0.483
 1294SOL    HW1 3898   2.127   1.790   0.537
 1294SOL    HW2 3899   2.137   1.713   0.393
 1295SOL     OW 3900   2.989   1.341   1.690
 1295SOL    HW1 3901   3.036   1.341   1.778
 1295SOL    HW2 3902   2.941   1.254   1.679
 1296SOL     OW 3903   2.092   1.434   0.538
 1296SOL    HW1 3904   2.066   1.530   0.538
 1296SOL    HW2 3905   2.021   1.380   0.583
 1297SOL     OW 3906   2.102   1.091   0.886
 1297SOL    HW1 3907   2.116   1.007   0.938
 1297SOL    HW2 3908   2.047   1.155   0.941
 1298SOL     OW 3909   2.482   1.786   1.439
 1298SOL    HW1 3910   2.390   1.769   1.474
 1298SOL    HW2 3911   2.510   1.878   1.465
 1299SOL     OW 3912   2.468   0.964   0.123
 1299SOL    HW1 3913   2.475   1.048   0.069
 1299SOL    HW2 3914   2.514   0.977   0.211
 1300SOL     OW 3915   3.456   0.114   1.480
 1300SOL    HW1 3916   3.438   0.181   1.408
 1300SOL    HW2 3917   3.453   0.160   1.569
 1301SOL     OW 3918   1.984   0.643   0.563
 1301SOL    HW1 3919   1.939   0.555   0.580
 1301SOL    HW2 3920   1.983   0.697   0.647
 1302SOL     OW 3921   3.704   1.767   0.359
 1302SOL    HW1 3922   3.758   1.738   0.439
 1302SOL    HW2 3923   3.734   1.857   0.330
 1303SOL     OW 3924   1.889   1.596   0.117
 1303SOL    HW1 3925   1.870   1.500   0.138
 1303SOL    HW2 3926   1.856   1.654   0.192
 1304SOL     OW 3927   3.551   0.922   0.612
 1304SOL    HW1 3928   3.646   0.893   0.620
 1304SOL    HW2 3929   3.543   0.987   0.537
 1305SOL     OW 3930   3.503   1.108   0.432
 1305SOL    HW1 3931   3.589   1.110   0.380
 1305SOL    HW2 3932   3.517   1.155   0.520
 1306SOL     OW 3933   1.975   0.737   1.597
 1306SOL    HW1 3934   2.063   0.724   1.642
 1306SOL    HW2 3935   1.962   0.834   1.575
 1307SOL     OW 3936   2.475   1.365   0.726
 1307SOL    HW1 3937   2.426   1.278   0.735
 1307SOL    HW2 3938   2.452   1.408   0.639
 1308SOL     OW 3939   3.155   1.228   1.423
 1308SOL    HW1 3940   3.192   1.155   1.365
 1308SOL    HW2 3941   3.207   1.233   1.508
 1309SOL     OW 3942   2.671   0.004   0.502
 1309SOL    HW1 3943   2.711   0.095   0.493
 1309SOL    HW2 3944   2.571   0.012   0.508
 1310SOL     OW 3945   2.059   0.976   1.264
 1310SOL    HW1 3946   2.148   0.931   1.250
 1310SOL    HW2 3947   1.986   0.911   1.245
 1311SOL     OW 3948   3.387   0.999   0.190
 1311SOL    HW1 3949   3.324   0.923   0.203
 1311SOL    HW2 3950   3.435   1.017   0.276
 1312SOL     OW 3951   3.049   1.792   1.616
 1312SOL    HW1 3952   3.073   1.852   1.540
 1312SOL    HW2 3953   3.056   1.697   1.586
 1313SOL     OW 3954   2.179   0.251   1.801
 1313SOL    HW1 3955   2.250   0.322   1.807
 1313SOL    HW2 3956   2.091   0.290   1.829
 1314SOL     OW 3957   3.328   1.417   0.953
 1314SOL    HW1 3958   3.269   1.423   1.033
 1314SOL    HW2 3959   3.313   1.329   0.907
 1315SOL     OW 3960   3.529   1.714   0.572
 1315SOL    HW1 3961   3.488   1.691   0.484
 1315SOL    HW2 3962   3.511   1.640   0.637
 1316SOL     OW 3963   2.460   0.729   0.270
 1316SOL    HW1 3964   2.484   0.798   0.202
 1316SOL    HW2 3965   2.382   0.762   0.324
 1317SOL     OW 3966   3.143   0.345   0.944
 1317SOL    HW1 3967   3.057   0.295   0.931
 1317SOL    HW2 3968   3.205   0.291   1.000
 1318SOL     OW 3969   3.438   1.662   0.307
 1318SOL    HW1 3970   3.527   1.708   0.310
 1318SOL    HW2 3971   3.417   1.638   0.212
 1319SOL     OW 3972   2.669   0.605   1.465
 1319SOL    HW1 3973   2.622   0.602   1.554
 1319SOL    HW2 3974   2.618   0.550   1.399
 1320SOL     OW 3975   3.256   0.469   1.674
 1320SOL    HW1 3976   3.236   0.512   1.762
 1320SOL    HW2 3977   3.334   0.407   1.683
 1321SOL     OW 3978   2.835   0.890   1.572
 1321SOL    HW1 3979   2.881   0.806   1.543
 1321SOL    HW2 3980   2.779   0.924   1.497
 1322SOL     OW 3981   2.853   0.410   1.242
 1322SOL    HW1 3982   2.776   0.444   1.296
 1322SOL    HW2 3983   2.819   0.359   1.163
 1323SOL     OW 3984   2.903   0.701   0.429
 1323SOL    HW1 3985   2.929   0.697   0.525
 1323SOL    HW2 3986   2.818   0.650   0.415
 1324SOL     OW 3987   1.938   0.811   0.789
 1324SOL    HW1 3988   2.037   0.799   0.798
 1324SOL    HW2 3989   1.914   0.906   0.810
 1325SOL     OW 3990   1.992   1.821   1.571
 1325SOL    HW1 3991   1.982   1.806   1.670
 1325SOL    HW2 3992   1.906   1.857   1.535
 1326SOL     OW 3993   2.727   0.348   0.195
 1326SOL    HW1 3994   2.786   0.411   0.146
 1326SOL    HW2 3995   2.746   0.254   0.166
 1327SOL     OW 3996   3.581   0.585   1.831
 1327SOL    HW1 3997   3.555   0.674   1.795
 1327SOL    HW2 3998   3.579   0.517   1.758
 1328SOL     OW 3999   3.224   1.144   0.545
 1328SOL    HW1 4000   3.307   1.115   0.497
 1328SOL    HW2 4001   3.175   1.211   0.489
 1329SOL     OW 4002   2.412   0.196   0.885
 1329SOL    HW1 4003   2.407   0.191   0.985
 1329SOL    HW2 4004   2.414   0.292   0.856
 1330SOL     OW 4005   2.870   1.456   0.477
 1330SOL    HW1 4006   2.824   1.528   0.425
 1330SOL    HW2 4007   2.866   1.476   0.575
 1331SOL     OW 4008   2.213   1.801   0.853
 1331SOL    HW1 4009   2.263   1.715   0.859
 1331SOL    HW2 4010   2.278   1.878   0.850
 1332SOL     OW 4011   3.657   1.066   0.873
 1332SOL    HW1 4012   3.595   1.051   0.797
 1332SOL    HW2 4013   3.605   1.077   0.958
 1333SOL     OW 4014   3.089   1.550   1.506
 1333SOL    HW1 4015   3.095   1.473   1.570
 1333SOL    HW2 4016   3.037   1.524   1.426
 1334SOL     OW 4017   2.183   0.943   0.242
 1334SOL    HW1 4018   2.265   0.982   0.200
 1334SOL    HW2 4019   2.156   0.861   0.193
 1335SOL     OW 4020   3.320   0.735   0.728
 1335SOL    HW1 4021   3.315   0.670   0.803
 1335SOL    HW2 4022   3.400   0.794   0.741
 1336SOL     OW 4023   2.323   1.266   1.727
 1336SOL    HW1 4024   2.273   1.267   1.641
 1336SOL    HW2 4025   2.260   1.248   1.803
 1337SOL     OW 4026   2.973   1.776   0.237
 1337SOL    HW1 4027   2.913   1.714   0.287
 1337SOL    HW2 4028   3.004   1.732   0.152
 1338SOL     OW 4029   2.064   0.285   1.498
 1338SOL    HW1 4030   1.984   0.345   1.485
 1338SOL    HW2 4031   2.054   0.236   1.584
 1339SOL     OW 4032   3.494   1.377   0.081
 1339SOL    HW1 4033   3.462   1.471   0.071
 1339SOL    HW2 4034   3.418   1.314   0.069
 1340SOL     OW 4035   2.326   1.743   0.323
 1340SOL    HW1 4036   2.359   1.782   0.409
 1340SOL    HW2 4037   2.402   1.736   0.258
 1341SOL     OW 4038   3.262   0.107   0.426
 1341SOL    HW1 4039   3.238   0.070   0.336
 1341SOL    HW2 4040   3.361   0.123   0.430
 1342SOL     OW 4041   2.111   1.785   1.241
 1342SOL    HW1 4042   2.168   1.720   1.291
 1342SOL    HW2 4043   2.095   1.752   1.148
 1343SOL     OW 4044   2.802   1.698   0.904
 1343SOL    HW1 4045   2.882   1.641   0.925
 1343SOL    HW2 4046   2.753   1.658   0.827
 1344SOL     OW 4047   2.244   0.700   0.480
 1344SOL    HW1 4048   2.289   0.610   0.477
 1344SOL    HW2 4049   2.150   0.689   0.513
 1345SOL     OW 4050   3.409   0.222   1.729
 1345SOL    HW1 4051   3.404   0.259   1.821
 1345SOL    HW2 4052   3.337   0.153   1.717
 1346SOL     OW 4053   2.476   0.122   0.117
 1346SOL    HW1 4054   2.574   0.100   0.124
 1346SOL    HW2 4055   2.445   0.105   0.024
 1347SOL     OW 4056   2.643   0.264   1.749
 1347SOL    HW1 4057   2.710   0.203   1.792
 1347SOL    HW2 4058   2.570   0.283   1.814
 1348SOL     OW 4059   2.750   1.514   1.195
 1348SOL    HW1 4060   2.727   1.489   1.101
 1348SOL    HW2 4061   2.811   1.445   1.234
 1349SOL     OW 4062   3.213   0.590   1.433
 1349SOL    HW1 4063   3.241   0.547   1.518
 1349SOL    HW2 4064   3.238   0.686   1.434
 1350SOL     OW 4065   2.665   1.402   0.924
 1350SOL    HW1 4066   2.755   1.416   0.882
 1350SOL    HW2 4067   2.594   1.404   0.853
 1351SOL     OW 4068   2.784   0.503   0.899
 1351SOL    HW1 4069   2.759   0.494   0.803
 1351SOL    HW2 4070   2.832   0.421   0.930
 1352SOL     OW 4071   2.401   0.064   0.512
 1352SOL    HW1 4072   2.320   0.065   0.570
 1352SOL    HW2 4073   2.404   0.147   0.457
 1353SOL     OW 4074   3.296   1.188   0.041
 1353SOL    HW1 4075   3.328   1.112   0.098
 1353SOL    HW2 4076   3.204   1.215   0.071
 1354SOL     OW 4077   2.159   0.035   0.171
 1354SOL    HW1 4078   2.208   0.119   0.150
 1354SOL    HW2 4079   2.221  -0.030   0.216
 1355SOL     OW 4080   2.797   0.236   0.480
 1355SOL    HW1 4081   2.749   0.277   0.402
 1355SOL    HW2 4082   2.896   0.234   0.461
 1356SOL     OW 4083   2.938   0.683   1.464
 1356SOL    HW1 4084   2.858   0.622   1.467
 1356SOL    HW2 4085   3.019   0.630   1.440
 1357SOL     OW 4086   3.089   1.570   0.793
 1357SOL    HW1 4087   3.110   1.644   0.728
 1357SOL    HW2 4088   3.157   1.570   0.866
 1358SOL     OW 4089   2.321   1.152   0.741
 1358SOL    HW1 4090   2.250   1.125   0.806
 1358SOL    HW2 4091   2.295   1.124   0.648
 1359SOL     OW 4092   3.133   1.797   0.591
 1359SOL    HW1 4093   3.177   1.861   0.527
 1359SOL    HW2 4094   3.083   1.849   0.661
 1360SOL     OW 4095   2.894   0.549   0.016
 1360SOL    HW1 4096   2.853   0.631  -0.023
 1360SOL    HW2 4097   2.958   0.575   0.089
 1361SOL     OW 4098   1.940   0.556   1.386
 1361SOL    HW1 4099   2.032   0.555   1.345
 1361SOL    HW2 4100   1.934   0.630   1.453
 1362SOL     OW 4101   2.423   0.222   1.147
 1362SOL    HW1 4102   2.461   0.138   1.184
 1362SOL    HW2 4103   2.335   0.241   1.191
 1363SOL     OW 4104   2.728   0.454   0.642
 1363SOL    HW1 4105   2.696   0.526   0.580
 1363SOL    HW2 4106   2.752   0.373   0.589
 1364SOL     OW 4107   2.879   0.039   0.753
 1364SOL    HW1 4108   2.807   0.044   0.684
 1364SOL    HW2 4109   2.855  -0.030   0.822
 1365SOL     OW 4110   3.291   1.173   0.867
 1365SOL    HW1 4111   3.236   1.089   0.860
 1365SOL    HW2 4112   3.317   1.202   0.775
 1366SOL     OW 4113   3.328   0.590   0.992
 1366SOL    HW1 4114   3.298   0.495   0.999
 1366SOL    HW2 4115   3.401   0.606   1.058
 1367SOL     OW 4116   3.719   0.833   0.377
 1367SOL    HW1 4117   3.761   0.769   0.441
 1367SOL    HW2 4118   3.681   0.782   0.299
 1368SOL     OW 4119   2.350   1.385   0.174
 1368SOL    HW1 4120   2.263   1.370   0.221
 1368SOL    HW2 4121   2.333   1.411   0.079
 1369SOL     OW 4122   3.526   1.280   0.657
 1369SOL    HW1 4123   3.625   1.288   0.671
 1369SOL    HW2 4124   3.481   1.364   0.688
 1370SOL     OW 4125   3.252   0.575   0.078
 1370SOL    HW1 4126   3.198   0.554   0.159
 1370SOL    HW2 4127   3.343   0.534   0.087
 1371SOL     OW 4128   2.389   0.256   0.328
 1371SOL    HW1 4129   2.416   0.197   0.253
 1371SOL    HW2 4130   2.389   0.351   0.297
 1372SOL     OW 4131   3.616   1.223   1.588
 1372SOL    HW1 4132   3.707   1.184   1.575
 1372SOL    HW2 4133   3.624   1.319   1.612
 1373SOL     OW 4134   2.926   1.347   1.340
 1373SOL    HW1 4135   2.846   1.324   1.395
 1373SOL    HW2 4136   3.009   1.321   1.389
 1374SOL     OW 4137   3.454   1.629   1.625
 1374SOL    HW1 4138   3.481   1.663   1.535
 1374SOL    HW2 4139   3.533   1.591   1.671
 1375SOL     OW 4140   2.973   1.195   1.100
 1375SOL    HW1 4141   2.933   1.239   1.181
 1375SOL    HW2 4142   2.932   1.232   1.017
 1376SOL     OW 4143   3.500   1.099   1.079
 1376SOL    HW1 4144   3.505   1.180   1.138
 1376SOL    HW2 4145   3.414   1.101   1.028
 1377SOL     OW 4146   2.777   0.089   1.402
 1377SOL    HW1 4147   2.802   0.069   1.307
 1377SOL    HW2 4148   2.849   0.145   1.444
 1378SOL     OW 4149   2.842   1.116   1.719
 1378SOL    HW1 4150   2.743   1.122   1.729
 1378SOL    HW2 4151   2.865   1.036   1.663
 1379SOL     OW 4152   2.567   1.050   0.368
 1379SOL    HW1 4153   2.553   1.057   0.467
 1379SOL    HW2 4154   2.651   0.999   0.350
 1380SOL     OW 4155   2.272   0.813   1.251
 1380SOL    HW1 4156   2.358   0.825   1.301
 1380SOL    HW2 4157   2.230   0.726   1.278
 1381SOL     OW 4158   3.136   0.386   1.262
 1381SOL    HW1 4159   3.157   0.460   1.326
 1381SOL    HW2 4160   3.047   0.403   1.219
 1382SOL     OW 4161   1.926   1.564   1.331
 1382SOL    HW1 4162   1.880   1.646   1.297
 1382SOL    HW2 4163   2.024   1.583   1.340
 1383SOL     OW 4164   2.229   1.100   0.501
 1383SOL    HW1 4165   2.222   1.183   0.445
 1383SOL    HW2 4166   2.233   1.020   0.441
 1384SOL     OW 4167   2.428   0.537   0.865
 1384SOL    HW1 4168   2.440   0.603   0.791
 1384SOL    HW2 4169   2.474   0.571   0.948
 1385SOL     OW 4170   3.114   1.348   0.388
 1385SOL    HW1 4171   3.164   1.425   0.428
 1385SOL    HW2 4172   3.019   1.350   0.420
 1386SOL     OW 4173   3.134   1.445   1.142
 1386SOL    HW1 4174   3.181   1.458   1.229
 1386SOL    HW2 4175   3.068   1.371   1.151
 1387SOL     OW 4176   3.444   0.639   0.472
 1387SOL    HW1 4177   3.413   0.700   0.545
 1387SOL    HW2 4178   3.494   0.691   0.403
 1388SOL     OW 4179   2.216   1.510   1.329
 1388SOL    HW1 4180   2.195   1.466   1.242
 1388SOL    HW2 4181   2.313   1.536   1.332
 1389SOL     OW 4182   2.264   0.751   1.598
 1389SOL    HW1 4183   2.332   0.806   1.551
 1389SOL    HW2 4184   2.304   0.663   1.625
 1390SOL     OW 4185   3.449   0.779   1.670
 1390SOL    HW1 4186   3.357   0.817   1.665
 1390SOL    HW2 4187   3.509   0.826   1.605
 1391SOL     OW 4188   2.875   0.105   1.770
 1391SOL    HW1 4189   2.881   0.190   1.718
 1391SOL    HW2 4190   2.907   0.029   1.713
 1392SOL     OW 4191   2.366   0.050   1.740
 1392SOL    HW1 4192   2.324  -0.007   1.670
 1392SOL    HW2 4193   2.300   0.119   1.772
 1393SOL     OW 4194   2.435   0.870   1.029
 1393SOL    HW1 4195   2.479   0.959   1.020
 1393SOL    HW2 4196   2.372   0.870   1.106
 1394SOL     OW 4197   3.222   0.862   1.045
 1394SOL    HW1 4198   3.147   0.862   0.979
 1394SOL    HW2 4199   3.259   0.770   1.054
 1395SOL     OW 4200   3.071   0.525   0.275
 1395SOL    HW1 4201   3.084   0.441   0.329
 1395SOL    HW2 4202   3.042   0.599   0.335
 1396SOL     OW 4203   2.169   0.213   1.231
 1396SOL    HW1 4204   2.146   0.250   1.321
 1396SOL    HW2 4205   2.139   0.118   1.225
 1397SOL     OW 4206   1.899   1.310   1.282
 1397SOL    HW1 4207   1.952   1.261   1.350
 1397SOL    HW2 4208   1.921   1.408   1.287
 1398SOL     OW 4209   2.594   0.634   1.064
 1398SOL    HW1 4210   2.653   0.608   0.988
 1398SOL    HW2 4211   2.566   0.730   1.053
 1399SOL     OW 4212   3.590   0.935   1.854
 1399SOL    HW1 4213   3.544   0.928   1.765
 1399SOL    HW2 4214   3.528   0.979   1.920
 1400SOL     OW 4215   2.169   0.063   0.618
 1400SOL    HW1 4216   2.158   0.157   0.651
 1400SOL    HW2 4217   2.164   0.000   0.695
 1401SOL     OW 4218   3.484   0.367   0.374
 1401SOL    HW1 4219   3.486   0.291   0.438
 1401SOL    HW2 4220   3.436   0.444   0.414
 1402SOL     OW 4221   2.885   0.766   0.966
 1402SOL    HW1 4222   2.900   0.787   1.062
 1402SOL    HW2 4223   2.855   0.671   0.957
 1403SOL     OW 4224   2.842   1.573   1.700
 1403SOL    HW1 4225   2.822   1.617   1.612
 1403SOL    HW2 4226   2.881   1.482   1.684
 1404SOL     OW 4227   3.721   1.518   1.605
 1404SOL    HW1 4228   3.735   1.545   1.510
 1404SOL    HW2 4229   3.804   1.540   1.658
 1405SOL     OW 4230   2.212   0.898   1.804
 1405SOL    HW1 4231   2.288   0.942   1.852
 1405SOL    HW2 4232   2.247   0.851   1.722
 1406SOL     OW 4233   3.402   0.274   0.125
 1406SOL    HW1 4234   3.341   0.199   0.148
 1406SOL    HW2 4235   3.424   0.326   0.208
 1407SOL     OW 4236   3.165   0.838   0.042
 1407SOL    HW1 4237   3.199   0.745   0.057
 1407SOL    HW2 4238   3.183   0.865  -0.053
 1408SOL     OW 4239   2.930   1.333   0.849
 1408SOL    HW1 4240   2.937   1.249   0.794
 1408SOL    HW2 4241   2.992   1.402   0.813
 1409SOL     OW 4242   2.181   0.810   0.949
 1409SOL    HW1 4243   2.274   0.846   0.954
 1409SOL    HW2 4244   2.175   0.725   1.001
 1410SOL     OW 4245   2.201   0.509   1.006
 1410SOL    HW1 4246   2.149   0.426   0.989
 1410SOL    HW2 4247   2.278   0.514   0.942
 1411SOL     OW 4248   3.000   0.380   1.678
 1411SOL    HW1 4249   2.955   0.443   1.742
 1411SOL    HW2 4250   3.093   0.411   1.661
 1412SOL     OW 4251   3.022   0.207   1.477
 1412SOL    HW1 4252   3.022   0.271   1.554
 1412SOL    HW2 4253   3.050   0.255   1.394
 1413SOL     OW 4254   1.870   1.326   0.200
 1413SOL    HW1 4255   1.777   1.347   0.169
 1413SOL    HW2 4256   1.880   1.227   0.213
 1414SOL     OW 4257   1.950   1.801   0.927
 1414SOL    HW1 4258   1.908   1.715   0.900
 1414SOL    HW2 4259   2.044   1.804   0.893
 1415SOL     OW 4260   2.366   1.568   0.910
 1415SOL    HW1 4261   2.432   1.642   0.919
 1415SOL    HW2 4262   2.410   1.489   0.868
 1416SOL     OW 4263   2.864   0.796   1.238
 1416SOL    HW1 4264   2.905   0.764   1.324
 1416SOL    HW2 4265   2.768   0.769   1.235
 1417SOL     OW 4266   1.902   0.544   1.114
 1417SOL    HW1 4267   1.987   0.511   1.073
 1417SOL    HW2 4268   1.915   0.559   1.212
 1418SOL     OW 4269   2.051   0.520   1.722
 1418SOL    HW1 4270   2.110   0.480   1.652
 1418SOL    HW2 4271   1.993   0.591   1.681
 1419SOL     OW 4272   3.231   0.950   1.660
 1419SOL    HW1 4273   3.270   1.039   1.680
 1419SOL    HW2 4274   3.241   0.930   1.563
 1420SOL     OW 4275   2.677   0.572   0.325
 1420SOL    HW1 4276   2.684   0.483   0.279
 1420SOL    HW2 4277   2.583   0.606   0.317
 1421SOL     OW 4278   3.519   0.604   1.206
 1421SOL    HW1 4279   3.481   0.535   1.268
 1421SOL    HW2 4280   3.601   0.568   1.162
 1422SOL     OW 4281   2.114   1.564   1.744
 1422SOL    HW1 4282   2.084   1.621   1.820
 1422SOL    HW2 4283   2.107   1.467   1.770
 1423SOL     OW 4284   2.533   0.464   1.269
 1423SOL    HW1 4285   2.499   0.375   1.239
 1423SOL    HW2 4286   2.559   0.518   1.189
 1424SOL     OW 4287   2.792   1.678   1.465
 1424SOL    HW1 4288   2.768   1.660   1.370
 1424SOL    HW2 4289   2.822   1.772   1.475
 1425SOL     OW 4290   2.335   0.500   0.191
 1425SOL    HW1 4291   2.396   0.580   0.195
 1425SOL    HW2 4292   2.240   0.531   0.198
 1426SOL     OW 4293   2.021   1.137   1.466
 1426SOL    HW1 4294   2.043   1.076   1.542
 1426SOL    HW2 4295   2.031   1.088   1.380
 1427SOL     OW 4296   3.209   1.059   1.234
 1427SOL    HW1 4297   3.233   0.996   1.160
 1427SOL    HW2 4298   3.119   1.099   1.216
 1428SOL     OW 4299   3.164   0.855   0.309
 1428SOL    HW1 4300   3.078   0.824   0.351
 1428SOL    HW2 4301   3.160   0.841   0.210
 1429SOL     OW 4302   3.621   1.747   1.154
 1429SOL    HW1 4303   3.682   1.777   1.081
 1429SOL    HW2 4304   3.583   1.658   1.132
 1430SOL     OW 4305   3.114   1.731   1.128
 1430SOL    HW1 4306   3.198   1.736   1.074
 1430SOL    HW2 4307   3.091   1.635   1.146
 1431SOL     OW 4308   1.945   1.258   1.022
 1431SOL    HW1 4309   1.940   1.257   1.122
 1431SOL    HW2 4310   1.862   1.217   0.984
 1432SOL     OW 4311   2.550   1.662   1.716
 1432SOL    HW1 4312   2.494   1.743   1.725
 1432SOL    HW2 4313   2.602   1.666   1.630
 1433SOL     OW 4314   2.765   0.086   0.133
 1433SOL    HW1 4315   2.816   0.087   0.047
 1433SOL    HW2 4316   2.821   0.044   0.204
 1434SOL     OW 4317   3.588   0.135   0.523
 1434SOL    HW1 4318   3.661   0.118   0.456
 1434SOL    HW2 4319   3.557   0.048   0.561
 1435SOL     OW 4320   3.250   1.573   0.477
 1435SOL    HW1 4321   3.317   1.585   0.403
 1435SOL    HW2 4322   3.210   1.662   0.500
 1436SOL     OW 4323   1.992   1.794   1.851
 1436SOL    HW1 4324   1.951   1.720   1.904
 1436SOL    HW2 4325   2.056   1.845   1.909
 1437SOL     OW 4326   3.142   0.927   0.672
 1437SOL    HW1 4327   3.202   0.846   0.674
 1437SOL    HW2 4328   3.182   0.996   0.612
 1438SOL     OW 4329   2.692   1.273   1.422
 1438SOL    HW1 4330   2.687   1.306   1.517
 1438SOL    HW2 4331   2.606   1.292   1.376
 1439SOL     OW 4332   2.534   1.616   0.154
 1439SOL    HW1 4333   2.543   1.626   0.055
 1439SOL    HW2 4334   2.494   1.527   0.175
 1440SOL     OW 4335   3.512   1.720   1.394
 1440SOL    HW1 4336   3.565   1.730   1.310
 1440SOL    HW2 4337   3.485   1.810   1.428
 1441SOL     OW 4338   3.703   0.175   0.963
 1441SOL    HW1 4339   3.742   0.090   0.927
 1441SOL    HW2 4340   3.605   0.177   0.944
 1442SOL     OW 4341   2.125   0.326   0.720
 1442SOL    HW1 4342   2.046   0.377   0.686
 1442SOL    HW2 4343   2.116   0.311   0.818
 1443SOL     OW 4344   3.056   1.612   0.031
 1443SOL    HW1 4345   3.062   1.519   0.068
 1443SOL    HW2 4346   2.997   1.612  -0.049
 1444SOL     OW 4347   2.684   1.002   1.372
 1444SOL    HW1 4348   2.724   1.001   1.280
 1444SOL    HW2 4349   2.694   1.094   1.412
 1445SOL     OW 4350   2.778   0.910   0.291
 1445SOL    HW1 4351   2.841   0.948   0.223
 1445SOL    HW2 4352   2.818   0.827   0.330
 1446SOL     OW 4353   3.366   1.607   0.044
 1446SOL    HW1 4354   3.274   1.644   0.051
 1446SOL    HW2 4355   3.404   1.627  -0.046
 1447SOL     OW 4356   2.234   1.288   1.490
 1447SOL    HW1 4357   2.221   1.381   1.456
 1447SOL    HW2 4358   2.150   1.236   1.477
 1448SOL     OW 4359   3.476   1.292   1.289
 1448SOL    HW1 4360   3.536   1.295   1.369
 1448SOL    HW2 4361   3.401   1.356   1.302
 1449SOL     OW 4362   2.901   1.098   0.696
 1449SOL    HW1 4363   2.831   1.051   0.750
 1449SOL    HW2 4364   2.960   1.030   0.653
 1450SOL     OW 4365   2.876   0.236   0.971
 1450SOL    HW1 4366   2.868   0.200   0.878
 1450SOL    HW2 4367   2.874   0.160   1.036
 1451SOL     OW 4368   2.452   1.487   0.491
 1451SOL    HW1 4369   2.494   1.429   0.421
 1451SOL    HW2 4370   2.408   1.566   0.447
 1452SOL     OW 4371   3.571   0.385   1.381
 1452SOL    HW1 4372   3.644   0.454   1.385
 1452SOL    HW2 4373   3.599   0.310   1.322
 1453SOL     OW 4374   2.117   1.348   0.290
 1453SOL    HW1 4375   2.021   1.349   0.263
 1453SOL    HW2 4376   2.129   1.401   0.374
 1454SOL     OW 4377   1.967   1.013   1.726
 1454SOL    HW1 4378   1.890   0.980   1.780
 1454SOL    HW2 4379   2.052   0.983   1.768
 1455SOL     OW 4380   2.534   0.203   1.489
 1455SOL    HW1 4381   2.624   0.187   1.449
 1455SOL    HW2 4382   2.542   0.208   1.588
 1456SOL     OW 4383   1.937   0.345   0.033
 1456SOL    HW1 4384   1.845   0.317   0.004
 1456SOL    HW2 4385   1.968   0.422  -0.023
 1457SOL     OW 4386   3.302   0.856   1.398
 1457SOL    HW1 4387   3.245   0.908   1.335
 1457SOL    HW2 4388   3.398   0.868   1.374
 1458SOL     OW 4389   1.934   0.166   0.318
 1458SOL    HW1 4390   1.917   0.249   0.264
 1458SOL    HW2 4391   2.024   0.129   0.296
 1459SOL     OW 4392   3.045   1.335   0.119
 1459SOL    HW1 4393   2.946   1.324   0.121
 1459SOL    HW2 4394   3.079   1.350   0.212
 1460SOL     OW 4395   2.475   0.842   1.431
 1460SOL    HW1 4396   2.531   0.923   1.414
 1460SOL    HW2 4397   2.534   0.762   1.434
 1461SOL     OW 4398   3.355   1.767   0.959
 1461SOL    HW1 4399   3.388   1.831   0.890
 1461SOL    HW2 4400   3.421   1.761   1.034
 1462SOL     OW 4401   2.578   0.565   1.708
 1462SOL    HW1 4402   2.597   0.630   1.782
 1462SOL    HW2 4403   2.638   0.485   1.717
 1463SOL     OW 4404   3.312   1.220   1.633
 1463SOL    HW1 4405   3.303   1.210   1.732
 1463SOL    HW2 4406   3.408   1.213   1.607
 1464SOL     OW 4407   2.252   1.741   1.560
 1464SOL    HW1 4408   2.161   1.782   1.558
 1464SOL    HW2 4409   2.245   1.647   1.592
 1465SOL     OW 4410   3.536   0.883   1.254
 1465SOL    HW1 4411   3.509   0.794   1.217
 1465SOL    HW2 4412   3.537   0.951   1.181
 1466SOL     OW 4413   3.087   0.325   0.449
 1466SOL    HW1 4414   3.152   0.251   0.438
 1466SOL    HW2 4415   3.107   0.375   0.533
 1467SOL     OW 4416   2.456   0.745   0.652
 1467SOL    HW1 4417   2.506   0.830   0.633
 1467SOL    HW2 4418   2.368   0.747   0.604
 1468SOL     OW 4419   3.639   0.342   1.642
 1468SOL    HW1 4420   3.622   0.373   1.548
 1468SOL    HW2 4421   3.555   0.305   1.680
 1469SOL     OW 4422   3.592   0.934   1.517
 1469SOL    HW1 4423   3.630   1.025   1.532
 1469SOL    HW2 4424   3.584   0.917   1.418
 1470SOL     OW 4425   2.721   1.374   0.016
 1470SOL    HW1 4426   2.675   1.389   0.104
 1470SOL    HW2 4427   2.765   1.459  -0.014
 1471SOL     OW 4428   2.523   1.790   0.953
 1471SOL    HW1 4429   2.477   1.878   0.940
 1471SOL    HW2 4430   2.622   1.802   0.946
 1472SOL     OW 4431   2.721   0.956   0.861
 1472SOL    HW1 4432   2.775   0.887   0.909
 1472SOL    HW2 4433   2.689   1.025   0.927
 1473SOL     OW 4434   2.945   0.984   0.087
 1473SOL    HW1 4435   2.922   1.037   0.005
 1473SOL    HW2 4436   3.026   0.928   0.068
 1474SOL     OW 4437   3.723   1.569   0.851
 1474SOL    HW1 4438   3.652   1.557   0.781
 1474SOL    HW2 4439   3.724   1.490   0.911
 1475SOL     OW 4440   2.083   1.314   1.844
 1475SOL    HW1 4441   2.018   1.241   1.823
 1475SOL    HW2 4442   2.087   1.328   1.942
 1476SOL     OW 4443   1.941   1.240   0.653
 1476SOL    HW1 4444   1.940   1.193   0.741
 1476SOL    HW2 4445   2.023   1.212   0.602
 1477SOL     OW 4446   2.534   1.391   1.624
 1477SOL    HW1 4447   2.456   1.341   1.662
 1477SOL    HW2 4448   2.531   1.486   1.655
 1478SOL     OW 4449   3.686   0.192   1.227
 1478SOL    HW1 4450   3.682   0.102   1.271
 1478SOL    HW2 4451   3.689   0.181   1.128
 1479SOL     OW 4452   2.290   0.424   0.520
 1479SOL    HW1 4453   2.320   0.352   0.458
 1479SOL    HW2 4454   2.251   0.384   0.603
 1480SOL     OW 4455   3.567   1.487   1.104
 1480SOL    HW1 4456   3.474   1.462   1.077
 1480SOL    HW2 4457   3.593   1.437   1.186
 1481SOL     OW 4458   2.179   0.547   1.280
 1481SOL    HW1 4459   2.217   0.488   1.352
 1481SOL    HW2 4460   2.219   0.521   1.192
 1482SOL     OW 4461   2.674   1.586   0.687
 1482SOL    HW1 4462   2.706   1.596   0.593
 1482SOL    HW2 4463   2.595   1.524   0.689
 1483SOL     OW 4464   3.286   0.214   1.112
 1483SOL    HW1 4465   3.338   0.149   1.167
 1483SOL    HW2 4466   3.237   0.277   1.173
 1484SOL     OW 4467   2.863   0.034   1.154
 1484SOL    HW1 4468   2.800  -0.038   1.123
 1484SOL    HW2 4469   2.956  -0.002   1.154
 1485SOL     OW 4470   2.632   1.330   0.301
 1485SOL    HW1 4471   2.586   1.243   0.318
 1485SOL    HW2 4472   2.723   1.327   0.342
 1486SOL     OW 4473   2.480   1.567   1.284
 1486SOL    HW1 4474   2.475   1.649   1.341
 1486SOL    HW2 4475   2.569   1.564   1.239
 1487SOL     OW 4476   3.214   0.052   0.168
 1487SOL    HW1 4477   3.249   0.011   0.084
 1487SOL    HW2 4478   3.124   0.014   0.188
 1488SOL     OW 4479   3.162   0.453   0.691
 1488SOL    HW1 4480   3.103   0.533   0.695
 1488SOL    HW2 4481   3.177   0.418   0.784
 1489SOL     OW 4482   3.455   0.221   0.882
 1489SOL    HW1 4483   3.371   0.220   0.936
 1489SOL    HW2 4484   3.457   0.304   0.826
 1490SOL     OW 4485   1.901   1.077   0.300
 1490SOL    HW1 4486   2.000   1.066   0.291
 1490SOL    HW2 4487   1.861   0.991   0.332
 1491SOL     OW 4488   2.737   1.646   0.337
 1491SOL    HW1 4489   2.660   1.611   0.283
 1491SOL    HW2 4490   2.705   1.717   0.399
 1492SOL     OW 4491   2.092   0.628   1.975
 1492SOL    HW1 4492   1.999   0.626   2.012
 1492SOL    HW2 4493   2.093   0.589   1.883
 1493SOL     OW 4494   2.087   0.275   2.858
 1493SOL    HW1 4495   2.122   0.258   2.950
 1493SOL    HW2 4496   1.999   0.230   2.846
 1494SOL     OW 4497   1.881   0.368   2.509
 1494SOL    HW1 4498   1.799   0.411   2.548
 1494SOL    HW2 4499   1.853   0.295   2.446
 1495SOL     OW 4500   2.431   1.275   3.027
 1495SOL    HW1 4501   2.338   1.268   2.990
 1495SOL    HW2 4502   2.442   1.364   3.071
 1496SOL     OW 4503   3.417   1.511   2.565
 1496SOL    HW1 4504   3.360   1.495   2.646
 1496SOL    HW2 4505   3.358   1.521   2.485
 1497SOL     OW 4506   2.997   0.703   2.579
 1497SOL    HW1 4507   3.054   0.781   2.554
 1497SOL    HW2 4508   2.937   0.729   2.655
 1498SOL     OW 4509   3.617   0.607   2.093
 1498SOL    HW1 4510   3.605   0.594   1.994
 1498SOL    HW2 4511   3.587   0.526   2.142
 1499SOL     OW 4512   2.630   1.144   2.885
 1499SOL    HW1 4513   2.552   1.161   2.945
 1499SOL    HW2 4514   2.664   1.231   2.849
 1500SOL     OW 4515   2.712   0.798   3.685
 1500SOL    HW1 4516   2.708   0.874   3.750
 1500SOL    HW2 4517   2.734   0.834   3.594
 1501SOL     OW 4518   2.547   1.012   2.527
 1501SOL    HW1 4519   2.616   0.996   2.597
 1501SOL    HW2 4520   2.474   1.069   2.565
 1502SOL     OW 4521   2.548   1.161   3.665
 1502SOL    HW1 4522   2.608   1.240   3.679
 1502SOL    HW2 4523   2.462   1.192   3.624
 1503SOL     OW 4524   2.197   1.435   2.923
 1503SOL    HW1 4525   2.119   1.404   2.870
 1503SOL    HW2 4526   2.255   1.493   2.866
 1504SOL     OW 4527   3.322   1.505   3.201
 1504SOL    HW1 4528   3.346   1.599   3.227
 1504SOL    HW2 4529   3.306   1.451   3.283
 1505SOL     OW 4530   2.300   0.392   3.361
 1505SOL    HW1 4531   2.382   0.336   3.370
 1505SOL    HW2 4532   2.219   0.334   3.365
 1506SOL     OW 4533   3.465   0.447   2.599
 1506SOL    HW1 4534   3.391   0.493   2.549
 1506SOL    HW2 4535   3.516   0.515   2.652
 1507SOL     OW 4536   2.093   1.713   2.345
 1507SOL    HW1 4537   2.127   1.790   2.399
 1507SOL    HW2 4538   2.137   1.713   2.255
 1508SOL     OW 4539   2.989   1.341   3.552
 1508SOL    HW1 4540   3.036   1.341   3.640
 1508SOL    HW2 4541   2.941   1.254   3.541
 1509SOL     OW 4542   2.092   1.434   2.400
 1509SOL    HW1 4543   2.066   1.530   2.400
 1509SOL    HW2 4544   2.021   1.380   2.445
 1510SOL     OW 4545   2.102   1.091   2.748
 1510SOL    HW1 4546   2.116   1.007   2.800
 1510SOL    HW2 4547   2.047   1.155   2.803
 1511SOL     OW 4548   2.482   1.786   3.301
 1511SOL    HW1 4549   2.390   1.769   3.336
 1511SOL    HW2 4550   2.510   1.878   3.327
 1512SOL     OW 4551   2.468   0.964   1.985
 1512SOL    HW1 4552   2.475   1.048   1.931
 1512SOL    HW2 4553   2.514   0.977   2.073
 1513SOL     OW 4554   3.456   0.114   3.342
 1513SOL    HW1 4555   3.438   0.181   3.270
 1513SOL    HW2 4556   3.453   0.160   3.431
 1514SOL     OW 4557   1.984   0.643   2.425
 1514SOL    HW1 4558   1.939   0.555   2.442
 1514SOL    HW2 4559   1.983   0.697   2.509
 1515SOL     OW 4560   3.704   1.767   2.221
 1515SOL    HW1 4561   3.758   1.738   2.301
 1515SOL    HW2 4562   3.734   1.857   2.192
 1516SOL     OW 4563   1.889   1.596   1.979
 1516SOL    HW1 4564   1.870   1.500   2.000
 1516SOL    HW2 4565   1.856   1.654   2.054
 1517SOL     OW 4566   3.551   0.922   2.474
 1517SOL    HW1 4567   3.646   0.893   2.482
 1517SOL    HW2 4568   3.543   0.987   2.399
 1518SOL     OW 4569   3.503   1.108   2.294
 1518SOL    HW1 4570   3.589   1.110   2.242
 1518SOL    HW2 4571   3.517   1.155   2.382
 1519SOL     OW 4572   1.975   0.737   3.459
 1519SOL    HW1 4573   2.063   0.724   3.504
 1519SOL    HW2 4574   1.962   0.834   3.437
 1520SOL     OW 4575   2.475   1.365   2.588
 1520SOL    HW1 4576   2.426   1.278   2.597
 1520SOL    HW2 4577   2.452   1.408   2.501
 1521SOL     OW 4578   3.155   1.228   3.285
 1521SOL    HW1 4579   3.192   1.155   3.227
 1521SOL    HW2 4580   3.207   1.233   3.370
 1522SOL     OW 4581   2.671   0.004   2.364
 1522SOL    HW1 4582   2.711   0.095   2.355
 1522SOL    HW2 4583   2.571   0.012   2.370
 1523SOL     OW 4584   2.059   0.976   3.126
 1523SOL    HW1 4585   2.148   0.931   3.112
 1523SOL    HW2 4586   1.986   0.911   3.107
 1524SOL     OW 4587   3.387   0.999   2.052
 1524SOL    HW1 4588   3.324   0.923   2.065
 1524SOL    HW2 4589   3.435   1.017   2.138
 1525SOL     OW 4590   3.049   1.792   3.478
 1525SOL    HW1 4591   3.073   1.852   3.402
 1525SOL    HW2 4592   3.056   1.697   3.448
 1526SOL     OW 4593   2.179   0.251   3.663
 1526SOL    HW1 4594   2.250   0.322   3.669
 1526SOL    HW2 4595   2.091   0.290   3.691
 1527SOL     OW 4596   3.328   1.417   2.815
 1527SOL    HW1 4597   3.269   1.423   2.895
 1527SOL    HW2 4598   3.313   1.329   2.769
 1528SOL     OW 4599   3.529   1.714   2.434
 1528SOL    HW1 4600   3.488   1.691   2.346
 1528SOL    HW2 4601   3.511   1.640   2.499
 1529SOL     OW 4602   2.460   0.729   2.132
 1529SOL    HW1 4603   2.484   0.798   2.064
 1529SOL    HW2 4604   2.382   0.762   2.186
 1530SOL     OW 4605   3.143   0.345   2.806
 1530SOL    HW1 4606   3.057   0.295   2.793
 1530SOL    HW2 4607   3.205   0.291   2.862
 1531SOL     OW 4608   3.438   1.662   2.169
 1531SOL    HW1 4609   3.527   1.708   2.172
 1531SOL    HW2 4610   3.417   1.638   2.074
 1532SOL     OW 4611   2.669   0.605   3.327
 1532SOL    HW1 4612   2.622   0.602   3.416
 1532SOL    HW2 4613   2.618   0.550   3.261
 1533SOL     OW 4614   3.256   0.469   3.536
 1533SOL    HW1 4615   3.236   0.512   3.624
 1533SOL    HW2 4616   3.334   0.407   3.545
 1534SOL     OW 4617   2.835   0.890   3.434
 1534SOL    HW1 4618   2.881   0.806   3.405
 1534SOL    HW2 4619   2.779   0.924   3.359
 1535SOL     OW 4620   2.853   0.410   3.104
 1535SOL    HW1 4621   2.776   0.444   3.158
 1535SOL    HW2 4622   2.819   0.359   3.025
 1536SOL     OW 4623   2.903   0.701   2.291
 1536SOL    HW1 4624   2.929   0.697   2.387
 1536SOL    HW2 4625   2.818   0.650   2.277
 1537SOL     OW 4626   1.938   0.811   2.651
 1537SOL    HW1 4627   2.037   0.799   2.660
 1537SOL    HW2 4628   1.914   0.906   2.672
 1538SOL     OW 4629   1.992   1.821   3.433
 1538SOL    HW1 4630   1.982   1.806   3.532
 1538SOL    HW2 4631   1.906   1.857   3.397
 1539SOL     OW 4632   2.727   0.348   2.057
 1539SOL    HW1 4633   2.786   0.411   2.008
 1539SOL    HW2 4634   2.746   0.254   2.028
 1540SOL     OW 4635   3.581   0.585   3.693
 1540SOL    HW1 4636   3.555   0.674   3.657
 1540SOL    HW2 4637   3.579   0.517   3.620
 1541SOL     OW 4638   3.224   1.144   2.407
 1541SOL    HW1 4639   3.307   1.115   2.359
 1541SOL    HW2 4640   3.175   1.211   2.351
 1542SOL     OW 4641   2.412   0.196   2.747
 1542SOL    HW1 4642   2.407   0.191   2.847
 1542SOL    HW2 4643   2.414   0.292   2.718
 1543SOL     OW 4644   2.870   1.456   2.339
 1543SOL    HW1 4645   2.824   1.528   2.287
 1543SOL    HW2 4646   2.866   1.476   2.437
 1544SOL     OW 4647   2.213   1.801   2.715
 1544SOL    HW1 4648   2.263   1.715   2.721
 1544SOL    HW2 4649   2.278   1.878   2.712
 1545SOL     OW 4650   3.657   1.066   2.735
 1545SOL    HW1 4651   3.595   1.051   2.659
 1545SOL    HW2 4652   3.605   1.077   2.820
 1546SOL     OW 4653   3.089   1.550   3.368
 1546SOL    HW1 4654   3.095   1.473   3.432
 1546SOL    HW2 4655   3.037   1.524   3.288
 1547SOL     OW 4656   2.183   0.943   2.104
 1547SOL    HW1 4657   2.265   0.982   2.062
 1547SOL    HW2 4658   2.156   0.861   2.055
 1548SOL     OW 4659   3.320   0.735   2.590
 1548SOL    HW1 4660   3.315   0.670   2.665
 1548SOL    HW2 4661   3.400   0.794   2.603
 1549SOL     OW 4662   2.323   1.266   3.589
 1549SOL    HW1 4663   2.273   1.267   3.503
 1549SOL    HW2 4664   2.260   1.248   3.665
 1550SOL     OW 4665   2.973   1.776   2.099
 1550SOL    HW1 4666   2.913   1.714   2.149
 1550SOL    HW2 4667   3.004   1.732   2.014
 1551SOL     OW 4668   2.064   0.285   3.360
 1551SOL    HW1 4669   1.984   0.345   3.347
 1551SOL    HW2 4670   2.054   0.236   3.446
 1552SOL     OW 4671   3.494   1.377   1.943
 1552SOL    HW1 4672   3.462   1.471   1.933
 1552SOL    HW2 4673   3.418   1.314   1.931
 1553SOL     OW 4674   2.326   1.743   2.185
 1553SOL    HW1 4675   2.359   1.782   2.271
 1553SOL    HW2 4676   2.402   1.736   2.120
 1554SOL     OW 4677   3.262   0.107   2.288
 1554SOL    HW1 4678   3.238   0.070   2.198
 1554SOL    HW2 4679   3.361   0.123   2.292
 1555SOL     OW 4680   2.111   1.785   3.103
 1555SOL    HW1 4681   2.168   1.720   3.153
 1555SOL    HW2 4682   2.095   1.752   3.010
 1556SOL     OW 4683   2.802   1.698   2.766
 1556SOL    HW1 4684   2.882   1.641   2.787
 1556SOL    HW2 4685   2.753   1.658   2.689
 1557SOL     OW 4686   2.244   0.700   2.342
 1557SOL    HW1 4687   2.289   0.610   2.339
 1557SOL    HW2 4688   2.150   0.689   2.375
 1558SOL     OW 4689   3.409   0.222   3.591
 1558SOL    HW1 4690   3.404   0.259   3.683
 1558SOL    HW2 4691   3.337   0.153   3.579
 1559SOL     OW 4692   2.476   0.122   1.979
 1559SOL    HW1 4693   2.574   0.100   1.986
 1559SOL    HW2 4694   2.445   0.105   1.886
 1560SOL     OW 4695   2.643   0.264   3.611
 1560SOL    HW1 4696   2.710   0.203   3.654
 1560SOL    HW2 4697   2.570   0.283   3.676
 1561SOL     OW 4698   2.750   1.514   3.057
 1561SOL    HW1 4699   2.727   1.489   2.963
 1561SOL    HW2 4700   2.811   1.445   3.096
 1562SOL     OW 4701   3.213   0.590   3.295
 1562SOL    HW1 4702   3.241   0.547   3.380
 1562SOL    HW2 4703   3.238   0.686   3.296
 1563SOL     OW 4704   2.665   1.402   2.786
 1563SOL    HW1 4705   2.755   1.416   2.744
 1563SOL    HW2 4706   2.594   1.404   2.715
 1564SOL     OW 4707   2.784   0.503   2.761
 1564SOL    HW1 4708   2.759   0.494   2.665
 1564SOL    HW2 4709   2.832   0.421   2.792
 1565SOL     OW 4710   2.401   0.064   2.374
 1565SOL    HW1 4711   2.320   0.065   2.432
 1565SOL    HW2 4712   2.404   0.147   2.319
 1566SOL     OW 4713   3.296   1.188   1.903
 1566SOL    HW1 4714   3.328   1.112   1.960
 1566SOL    HW2 4715   3.204   1.215   1.933
 1567SOL     OW 4716   2.159   0.035   2.033
 1567SOL    HW1 4717   2.208   0.119   2.012
 1567SOL    HW2 4718   2.221  -0.030   2.078
 1568SOL     OW 4719   2.797   0.236   2.342
 1568SOL    HW1 4720   2.749   0.277   2.264
 1568SOL    HW2 4721   2.896   0.234   2.323
 1569SOL     OW 4722   2.938   0.683   3.326
 1569SOL    HW1 4723   2.858   0.622   3.329
 1569SOL    HW2 4724   3.019   0.630   3.302
 1570SOL     OW 4725   3.089   1.570   2.655
 1570SOL    HW1 4726   3.110   1.644   2.590
 1570SOL    HW2 4727   3.157   1.570   2.728
 1571SOL     OW 4728   2.321   1.152   2.603
 1571SOL    HW1 4729   2.250   1.125   2.668
 1571SOL    HW2 4730   2.295   1.124   2.510
 1572SOL     OW 4731   3.133   1.797   2.453
 1572SOL    HW1 4732   3.177   1.861   2.389
 1572SOL    HW2 4733   3.083   1.849   2.523
 1573SOL     OW 4734   2.894   0.549   1.878
 1573SOL    HW1 4735   2.853   0.631   1.839
 1573SOL    HW2 4736   2.958   0.575   1.951
 1574SOL     OW 4737   1.940   0.556   3.248
 1574SOL    HW1 4738   2.032   0.555   3.207
 1574SOL    HW2 4739   1.934   0.630   3.315
 1575SOL     OW 4740   2.423   0.222   3.009
 1575SOL    HW1 4741   2.461   0.138   3.046
 1575SOL    HW2 4742   2.335   0.241   3.053
 1576SOL     OW 4743   2.728   0.454   2.504
 1576SOL    HW1 4744   2.696   0.526   2.442
 1576SOL    HW2 4745   2.752   0.373   2.451
 1577SOL     OW 4746   2.879   0.039   2.615
 1577SOL    HW1 4747   2.807   0.044   2.546
 1577SOL    HW2 4748   2.855  -0.030   2.684
 1578SOL     OW 4749   3.291   1.173   2.729
 1578SOL    HW1 4750   3.236   1.089   2.722
 1578SOL    HW2 4751   3.317   1.202   2.637
 1579SOL     OW 4752   3.328   0.590   2.854
 1579SOL    HW1 4753   3.298   0.495   2.861
 1579SOL    HW2 4754   3.401   0.606   2.920
 1580SOL     OW 4755   3.719   0.833   2.239
 1580SOL    HW1 4756   3.761   0.769   2.303
 1580SOL    HW2 4757   3.681   0.782   2.161
 1581SOL     OW 4758   2.350   1.385   2.036
 1581SOL    HW1 4759   2.263   1.370   2.083
 1581SOL    HW2 4760   2.333   1.411   1.941
 1582SOL     OW 4761   3.526   1.280   2.519
 1582SOL    HW1 4762   3.625   1.288   2.533
 1582SOL    HW2 4763   3.481   1.364   2.550
 1583SOL     OW 4764   3.252   0.575   1.940
 1583SOL    HW1 4765   3.198   0.554   2.021
 1583SOL    HW2 4766   3.343   0.534   1.949
 1584SOL     OW 4767   2.389   0.256   2.190
 1584SOL    HW1 4768   2.416   0.197   2.115
 1584SOL    HW2 4769   2.389   0.351   2.159
 1585SOL     OW 4770   3.616   1.223   3.450
 1585SOL    HW1 4771   3.707   1.184   3.437
 1585SOL    HW2 4772   3.624   1.319   3.474
 1586SOL     OW 4773   2.926   1.347   3.202
 1586SOL    HW1 4774   2.846   1.324   3.257
 1586SOL    HW2 4775   3.009   1.321   3.251
 1587SOL     OW 4776   3.454   1.629   3.487
 1587SOL    HW1 4777   3.481   1.663   3.397
 1587SOL    HW2 4778   3.533   1.591   3.533
 1588SOL     OW 4779   2.973   1.195   2.962
 1588SOL    HW1 4780   2.933   1.239   3.043
 1588SOL    HW2 4781   2.932   1.232   2.879
 1589SOL     OW 4782   3.500   1.099   2.941
 1589SOL    HW1 4783   3.505   1.180   3.000
 1589SOL    HW2 4784   3.414   1.101   2.890
 1590SOL     OW 4785   2.777   0.089   3.264
 1590SOL    HW1 4786   2.802   0.069   3.169
 1590SOL    HW2 4787   2.849   0.145   3.306
 1591SOL     OW 4788   2.842   1.116   3.581
 1591SOL    HW1 4789   2.743   1.122   3.591
 1591SOL    HW2 4790   2.865   1.036   3.525
 1592SOL     OW 4791   2.567   1.050   2.230
 1592SOL    HW1 4792   2.553   1.057   2.329
 1592SOL    HW2 4793   2.651   0.999   2.212
 1593SOL     OW 4794   2.272   0.813   3.113
 1593SOL    HW1 4795   2.358   0.825   3.163
 1593SOL    HW2 4796   2.230   0.726   3.140
 1594SOL     OW 4797   3.136   0.386   3.124
 1594SOL    HW1 4798   3.157   0.460   3.188
 1594SOL    HW2 4799   3.047   0.403   3.081
 1595SOL     OW 4800   1.926   1.564   3.193
 1595SOL    HW1 4801   1.880   1.646   3.159
 1595SOL    HW2 4802   2.024   1.583   3.202
 1596SOL     OW 4803   2.229   1.100   2.363
 1596SOL    HW1 4804   2.222   1.183   2.307
 1596SOL    HW2 4805   2.233   1.020   2.303
 1597SOL     OW 4806   2.428   0.537   2.727
 1597SOL    HW1 4807   2.440   0.603   2.653
 1597SOL    HW2 4808   2.474   0.571   2.810
 1598SOL     OW 4809   3.114   1.348   2.250
 1598SOL    HW1 4810   3.164   1.425   2.290
 1598SOL    HW2 4811   3.019   1.350   2.282
 1599SOL     OW 4812   3.134   1.445   3.004
 1599SOL    HW1 4813   3.181   1.458   3.091
 1599SOL    HW2 4814   3.068   1.371   3.013
 1600SOL     OW 4815   3.444   0.639   2.334
 1600SOL    HW1 4816   3.413   0.700   2.407
 1600SOL    HW2 4817   3.494   0.691   2.265
 1601SOL     OW 4818   2.216   1.510   3.191
 1601SOL    HW1 4819   2.195   1.466   3.104
 1601SOL    HW2 4820   2.313   1.536   3.194
 1602SOL     OW 4821   2.264   0.751   3.460
 1602SOL    HW1 4822   2.332   0.806   3.413
 1602SOL    HW2 4823   2.304   0.663   3.487
 1603SOL     OW 4824   3.449   0.779   3.532
 1603SOL    HW1 4825   3.357   0.817   3.527
 1603SOL    HW2 4826   3.509   0.826   3.467
 1604SOL     OW 4827   2.875   0.105   3.632
 1604SOL    HW1 4828   2.881   0.190   3.580
 1604SOL    HW2 4829   2.907   0.029   3.575
 1605SOL     OW 4830   2.366   0.050   3.602
 1605SOL    HW1 4831   2.324  -0.007   3.532
 1605SOL    HW2 4832   2.300   0.119   3.634
 1606SOL     OW 4833   2.435   0.870   2.891
 1606SOL    HW1 4834   2.479   0.959   2.882
 1606SOL    HW2 4835   2.372   0.870   2.968
 1607SOL     OW 4836   3.222   0.862   2.907
 1607SOL    HW1 4837   3.147   0.862   2.841
 1607SOL    HW2 4838   3.259   0.770   2.916
 1608SOL     OW 4839   3.071   0.525   2.137
 1608SOL    HW1 4840   3.084   0.441   2.191
 1608SOL    HW2 4841   3.042   0.599   2.197
 1609SOL     OW 4842   2.169   0.213   3.093
 1609SOL    HW1 4843   2.146   0.250   3.183
 1609SOL    HW2 4844   2.139   0.118   3.087
 1610SOL     OW 4845   1.899   1.310   3.144
 1610SOL    HW1 4846   1.952   1.261   3.212
 1610SOL    HW2 4847   1.921   1.408   3.149
 1611SOL     OW 4848   2.594   0.634   2.926
 1611SOL    HW1 4849   2.653   0.608   2.850
 1611SOL    HW2 4850   2.566   0.730   2.915
 1612SOL     OW 4851   3.590   0.935   3.716
 1612SOL    HW1 4852   3.544   0.928   3.627
 1612SOL    HW2 4853   3.528   0.979   3.782
 1613SOL     OW 4854   2.169   0.063   2.480
 1613SOL    HW1 4855   2.158   0.157   2.513
 1613SOL    HW2 4856   2.164   0.000   2.557
 1614SOL     OW 4857   3.484   0.367   2.236
 1614SOL    HW1 4858   3.486   0.291   2.300
 1614SOL    HW2 4859   3.436   0.444   2.276
 1615SOL     OW 4860   2.885   0.766   2.828
 1615SOL    HW1 4861   2.900   0.787   2.924
 1615SOL    HW2 4862   2.855   0.671   2.819
 1616SOL     OW 4863   2.842   1.573   3.562
 1616SOL    HW1 4864   2.822   1.617   3.474
 1616SOL    HW2 4865   2.881   1.482   3.546
 1617SOL     OW 4866   3.721   1.518   3.467
 1617SOL    HW1 4867   3.735   1.545   3.372
 1617SOL    HW2 4868   3.804   1.540   3.520
 1618SOL     OW 4869   2.212   0.898   3.666
 1618SOL    HW1 4870   2.288   0.942   3.714
 1618SOL    HW2 4871   2.247   0.851   3.584
 1619SOL     OW 4872   3.402   0.274   1.987
 1619SOL    HW1 4873   3.341   0.199   2.010
 1619SOL    HW2 4874   3.424   0.326   2.070
 1620SOL     OW 4875   3.165   0.838   1.904
 1620SOL    HW1 4876   3.199   0.745   1.919
 1620SOL    HW2 4877   3.183   0.865   1.809
 1621SOL     OW 4878   2.930   1.333   2.711
 1621SOL    HW1 4879   2.937   1.249   2.656
 1621SOL    HW2 4880   2.992   1.402   2.675
 1622SOL     OW 4881   2.181   0.810   2.811
 1622SOL    HW1 4882   2.274   0.846   2.816
 1622SOL    HW2 4883   2.175   0.725   2.863
 1623SOL     OW 4884   2.201   0.509   2.868
 1623SOL    HW1 4885   2.149   0.426   2.851
 1623SOL    HW2 4886   2.278   0.514   2.804
 1624SOL     OW 4887   3.000   0.380   3.540
 1624SOL    HW1 4888   2.955   0.443   3.604
 1624SOL    HW2 4889   3.093   0.411   3.523
 1625SOL     OW 4890   3.022   0.207   3.339
 1625SOL    HW1 4891   3.022   0.271   3.416
 1625SOL    HW2 4892   3.050   0.255   3.256
 1626SOL     OW 4893   1.870   1.326   2.062
 1626SOL    HW1 4894   1.777   1.347   2.031
 1626SOL    HW2 4895   1.880   1.227   2.075
 1627SOL     OW 4896   1.950   1.801   2.789
 1627SOL    HW1 4897   1.908   1.715   2.762
 1627SOL    HW2 4898   2.044   1.804   2.755
 1628SOL     OW 4899   2.366   1.568   2.772
 1628SOL    HW1 4900   2.432   1.642   2.781
 1628SOL    HW2 4901   2.410   1.489   2.730
 1629SOL     OW 4902   2.864   0.796   3.100
 1629SOL    HW1 4903   2.905   0.764   3.186
 1629SOL    HW2 4904   2.768   0.769   3.097
 1630SOL     OW 4905   1.902   0.544   2.976
 1630SOL    HW1 4906   1.987   0.511   2.935
 1630SOL    HW2 4907   1.915   0.559   3.074
 1631SOL     OW 4908   2.051   0.520   3.584
 1631SOL    HW1 4909   2.110   0.480   3.514
 1631SOL    HW2 4910   1.993   0.591   3.543
 1632SOL     OW 4911   3.231   0.950   3.522
 1632SOL    HW1 4912   3.270   1.039   3.542
 1632SOL    HW2 4913   3.241   0.930   3.425
 1633SOL     OW 4914   2.677   0.572   2.187
 1633SOL    HW1 4915   2.684   0.483   2.141
 1633SOL    HW2 4916   2.583   0.606   2.179
 1634SOL     OW 4917   3.519   0.604   3.068
 1634SOL    HW1 4918   3.481   0.535   3.130
 1634SOL    HW2 4919   3.601   0.568   3.024
 1635SOL     OW 4920   2.114   1.564   3.606
 1635SOL    HW1 4921   2.084   1.621   3.682
 1635SOL    HW2 4922   2.107   1.467   3.632
 1636SOL     OW 4923   2.533   0.464   3.131
 1636SOL    HW1 4924   2.499   0.375   3.101
 1636SOL    HW2 4925   2.559   0.518   3.051
 1637SOL     OW 4926   2.792   1.678   3.327
 1637SOL    HW1 4927   2.768   1.660   3.232
 1637SOL    HW2 4928   2.822   1.772   3.337
 1638SOL     OW 4929   2.335   0.500   2.053
 1638SOL    HW1 4930   2.396   0.580   2.057
 1638SOL    HW2 4931   2.240   0.531   2.060
 1639SOL     OW 4932   2.021   1.137   3.328
 1639SOL    HW1 4933   2.043   1.076   3.404
 1639SOL    HW2 4934   2.031   1.088   3.242
 1640SOL     OW 4935   3.209   1.059   3.096
 1640SOL    HW1 4936   3.233   0.996   3.022
 1640SOL    HW2 4937   3.119   1.099   3.078
 1641SOL     OW 4938   3.164   0.855   2.171
 1641SOL    HW1 4939   3.078   0.824   2.213
 1641SOL    HW2 4940   3.160   0.841   2.072
 1642SOL     OW 4941   3.621   1.747   3.016
 1642SOL    HW1 4942   3.682   1.777   2.943
 1642SOL    HW2 4943   3.583   1.658   2.994
 1643SOL     OW 4944   3.114   1.731   2.990
 1643SOL    HW1 4945   3.198   1.736   2.936
 1643SOL    HW2 4946   3.091   1.635   3.008
 1644SOL     OW 4947   1.945   1.258   2.884
 1644SOL    HW1 4948   1.940   1.257   2.984
 1644SOL    HW2 4949   1.862   1.217   2.846
 1645SOL     OW 4950   2.550   1.662   3.578
 1645SOL    HW1 4951   2.494   1.743   3.587
 1645SOL    HW2 4952   2.602   1.666   3.492
 1646SOL     OW 4953   3.588   0.135   2.385
 1646SOL    HW1 4954   3.661   0.118   2.318
 1646SOL    HW2 4955   3.557   0.048   2.423
 1647SOL     OW 4956   3.250   1.573   2.339
 1647SOL    HW1 4957   3.317   1.585   2.265
 1647SOL    HW2 4958   3.210   1.662   2.362
 1648SOL     OW 4959   1.992   1.794   3.713
 1648SOL    HW1 4960   1.951   1.720   3.766
 1648SOL    HW2 4961   2.056   1.845   3.771
 1649SOL     OW 4962   3.142   0.927   2.534
 1649SOL    HW1 4963   3.202   0.846   2.536
 1649SOL    HW2 4964   3.182   0.996   2.474
 1650SOL     OW 4965   2.692   1.273   3.284
 1650SOL    HW1 4966   2.687   1.306   3.379
 1650SOL    HW2 4967   2.606   1.292   3.238
 1651SOL     OW 4968   2.534   1.616   2.016
 1651SOL    HW1 4969   2.543   1.626   1.917
 1651SOL    HW2 4970   2.494   1.527   2.037
 1652SOL     OW 4971   3.512   1.720   3.256
 1652SOL    HW1 4972   3.565   1.730   3.172
 1652SOL    HW2 4973   3.485   1.810   3.290
 1653SOL     OW 4974   3.703   0.175   2.825
 1653SOL    HW1 4975   3.742   0.090   2.789
 1653SOL    HW2 4976   3.605   0.177   2.806
 1654SOL     OW 4977   2.125   0.326   2.582
 1654SOL    HW1 4978   2.046   0.377   2.548
 1654SOL    HW2 4979   2.116   0.311   2.680
 1655SOL     OW 4980   3.056   1.612   1.893
 1655SOL    HW1 4981   3.062   1.519   1.930
 1655SOL    HW2 4982   2.997   1.612   1.813
 1656SOL     OW 4983   2.684   1.002   3.234
 1656SOL    HW1 4984   2.724   1.001   3.142
 1656SOL    HW2 4985   2.694   1.094   3.274
 1657SOL     OW 4986   2.778   0.910   2.153
 1657SOL    HW1 4987   2.841   0.948   2.085
 1657SOL    HW2 4988   2.818   0.827   2.192
 1658SOL     OW 4989   3.366   1.607   1.906
 1658SOL    HW1 4990   3.274   1.644   1.913
 1658SOL    HW2 4991   3.404   1.627   1.816
 1659SOL     OW 4992   2.234   1.288   3.352
 1659SOL    HW1 4993   2.221   1.381   3.318
 1659SOL    HW2 4994   2.150   1.236   3.339
 1660SOL     OW 4995   3.476   1.292   3.151
 1660SOL    HW1 4996   3.536   1.295   3.231
 1660SOL    HW2 4997   3.401   1.356   3.164
 1661SOL     OW 4998   2.901   1.098   2.558
 1661SOL    HW1 4999   2.831   1.051   2.612
 1661SOL    HW2 5000   2.960   1.030   2.515
 1662SOL     OW 5001   2.876   0.236   2.833
 1662SOL    HW1 5002   2.868   0.200   2.740
 1662SOL    HW2 5003   2.874   0.160   2.898
 1663SOL     OW 5004   2.452   1.487   2.353
 1663SOL    HW1 5005   2.494   1.429   2.283
 1663SOL    HW2 5006   2.408   1.566   2.309
 1664SOL     OW 5007   3.571   0.385   3.243
 1664SOL    HW1 5008   3.644   0.454   3.247
 1664SOL    HW2 5009   3.599   0.310   3.184
 1665SOL     OW 5010   2.117   1.348   2.152
 1665SOL    HW1 5011   2.021   1.349   2.125
 1665SOL    HW2 5012   2.129   1.401   2.236
 1666SOL     OW 5013   1.967   1.013   3.588
 1666SOL    HW1 5014   1.890   0.980   3.642
 1666SOL    HW2 5015   2.052   0.983   3.630
 1667SOL     OW 5016   2.534   0.203   3.351
 1667SOL    HW1 5017   2.624   0.187   3.311
 1667SOL    HW2 5018   2.542   0.208   3.450
 1668SOL     OW 5019   1.937   0.345   1.895
 1668SOL    HW1 5020   1.845   0.317   1.866
 1668SOL    HW2 5021   1.968   0.422   1.839
 1669SOL     OW 5022   3.302   0.856   3.260
 1669SOL    HW1 5023   3.245   0.908   3.197
 1669SOL    HW2 5024   3.398   0.868   3.236
 1670SOL     OW 5025   1.934   0.166   2.180
 1670SOL    HW1 5026   1.917   0.249   2.126
 1670SOL    HW2 5027   2.024   0.129   2.158
 1671SOL     OW 5028   3.045   1.335   1.981
 1671SOL    HW1 5029   2.946   1.324   1.983
 1671SOL    HW2 5030   3.079   1.350   2.074
 1672SOL     OW 5031   2.475   0.842   3.293
 1672SOL    HW1 5032   2.531   0.923   3.276
 1672SOL    HW2 5033   2.534   0.762   3.296
 1673SOL     OW 5034   3.355   1.767   2.821
 1673SOL    HW1 5035   3.388   1.831   2.752
 1673SOL    HW2 5036   3.421   1.761   2.896
 1674SOL     OW 5037   2.578   0.565   3.570
 1674SOL    HW1 5038   2.597   0.630   3.644
 1674SOL    HW2 5039   2.638   0.485   3.579
 1675SOL     OW 5040   3.312   1.220   3.495
 1675SOL    HW1 5041   3.303   1.210   3.594
 1675SOL    HW2 5042   3.408   1.213   3.469
 1676SOL     OW 5043   2.252   1.741   3.422
 1676SOL    HW1 5044   2.161   1.782   3.420
 1676SOL    HW2 5045   2.245   1.647   3.454
 1677SOL     OW 5046   3.536   0.883   3.116
 1677SOL    HW1 5047   3.509   0.794   3.079
 1677SOL    HW2 5048   3.537   0.951   3.043
 1678SOL     OW 5049   3.087   0.325   2.311
 1678SOL    HW1 5050   3.152   0.251   2.300
 1678SOL    HW2 5051   3.107   0.375   2.395
 1679SOL     OW 5052   2.456   0.745   2.514
 1679SOL    HW1 5053   2.506   0.830   2.495
 1679SOL    HW2 5054   2.368   0.747   2.466
 1680SOL     OW 5055   3.639   0.342   3.504
 1680SOL    HW1 5056   3.622   0.373   3.410
 1680SOL    HW2 5057   3.555   0.305   3.542
 1681SOL     OW 5058   3.592   0.934   3.379
 1681SOL    HW1 5059   3.630   1.025   3.394
 1681SOL    HW2 5060   3.584   0.917   3.280
 1682SOL     OW 5061   2.721   1.374   1.878
 1682SOL    HW1 5062   2.675   1.389   1.966
 1682SOL    HW2 5063   2.765   1.459   1.848
 1683SOL     OW 5064   2.523   1.790   2.815
 1683SOL    HW1 5065   2.477   1.878   2.802
 1683SOL    HW2 5066   2.622   1.802   2.808
 1684SOL     OW 5067   2.721   0.956   2.723
 1684SOL    HW1 5068   2.775   0.887   2.771
 1684SOL    HW2 5069   2.689   1.025   2.789
 1685SOL     OW 5070   2.945   0.984   1.949
 1685SOL    HW1 5071   2.922   1.037   1.867
 1685SOL    HW2 5072   3.026   0.928   1.930
 1686SOL     OW 5073   3.723   1.569   2.713
 1686SOL    HW1 5074   3.652   1.557   2.643
 1686SOL    HW2 5075   3.724   1.490   2.773
 1687SOL     OW 5076   2.083   1.314   3.706
 1687SOL    HW1 5077   2.018   1.241   3.685
 1687SOL    HW2 5078   2.087   1.328   3.804
 1688SOL     OW 5079   1.941   1.240   2.515
 1688SOL    HW1 5080   1.940   1.193   2.603
 1688SOL    HW2 5081   2.023   1.212   2.464
 1689SOL     OW 5082   2.534   1.391   3.486
 1689SOL    HW1 5083   2.456   1.341   3.524
 1689SOL    HW2 5084   2.531   1.486   3.517
 1690SOL     OW 5085   3.686   0.192   3.089
 1690SOL    HW1 5086   3.682   0.102   3.133
 1690SOL    HW2 5087   3.689   0.181   2.990
 1691SOL     OW 5088   2.290   0.424   2.382
 1691SOL    HW1 5089   2.320   0.352   2.320
 1691SOL    HW2 5090   2.251   0.384   2.465
 1692SOL     OW 5091   3.567   1.487   2.966
 1692SOL    HW1 5092   3.474   1.462   2.939
 1692SOL    HW2 5093   3.593   1.437   3.048
 1693SOL     OW 5094   2.179   0.547   3.142
 1693SOL    HW1 5095   2.217   0.488   3.214
 1693SOL    HW2 5096   2.219   0.521   3.054
 1694SOL     OW 5097   2.674   1.586   2.549
 1694SOL    HW1 5098   2.706   1.596   2.455
 1694SOL    HW2 5099   2.595   1.524   2.551
 1695SOL     OW 5100   3.286   0.214   2.974
 1695SOL    HW1 5101   3.338   0.149   3.029
 1695SOL    HW2 5102   3.237   0.277   3.035
 1696SOL     OW 5103   2.863   0.034   3.016
 1696SOL    HW1 5104   2.800  -0.038   2.985
 1696SOL    HW2 5105   2.956  -0.002   3.016
 1697SOL     OW 5106   2.632   1.330   2.163
 1697SOL    HW1 5107   2.586   1.243   2.180
 1697SOL    HW2 5108   2.723   1.327   2.204
 1698SOL     OW 5109   2.480   1.567   3.146
 1698SOL    HW1 5110   2.475   1.649   3.203
 1698SOL    HW2 5111   2.569   1.564   3.101
 1699SOL     OW 5112   3.214   0.052   2.030
 1699SOL    HW1 5113   3.249   0.011   1.946
 1699SOL    HW2 5114   3.124   0.014   2.050
 1700SOL     OW 5115   3.162   0.453   2.553
 1700SOL    HW1 5116   3.103   0.533   2.557
 1700SOL    HW2 5117   3.177   0.418   2.646
 1701SOL     OW 5118   3.455   0.221   2.744
 1701SOL    HW1 5119   3.371   0.220   2.798
 1701SOL    HW2 5120   3.457   0.304   2.688
 1702SOL     OW 5121   1.901   1.077   2.162
 1702SOL    HW1 5122   2.000   1.066   2.153
 1702SOL    HW2 5123   1.861   0.991   2.194
 1703SOL     OW 5124   2.737   1.646   2.199
 1703SOL    HW1 5125   2.660   1.611   2.145
 1703SOL    HW2 5126   2.705   1.717   2.261
 1704SOL     OW 5127   2.092   0.628   3.837
 1704SOL    HW1 5128   1.999   0.626   3.874
 1704SOL    HW2 5129   2.093   0.589   3.745
 1705SOL     OW 5130   2.087   0.275   4.720
 1705SOL    HW1 5131   2.122   0.258   4.812
 1705SOL    HW2 5132   1.999   0.230   4.708
 1706SOL     OW 5133   1.881   0.368   4.371
 1706SOL    HW1 5134   1.799   0.411   4.410
 1706SOL    HW2 5135   1.853   0.295   4.308
 1707SOL     OW 5136   3.617   0.607   3.955
 1707SOL    HW1 5137   3.605   0.594   3.856
 1707SOL    HW2 5138   3.587   0.526   4.004
 1708SOL     OW 5139   2.547   1.012   4.389
 1708SOL    HW1 5140   2.616   0.996   4.459
 1708SOL    HW2 5141   2.474   1.069   4.427
 1709SOL     OW 5142   3.465   0.447   4.461
 1709SOL    HW1 5143   3.391   0.493   4.411
 1709SOL    HW2 5144   3.516   0.515   4.514
 1710SOL     OW 5145   2.093   1.713   4.207
 1710SOL    HW1 5146   2.127   1.790   4.261
 1710SOL    HW2 5147   2.137   1.713   4.117
 1711SOL     OW 5148   2.092   1.434   4.262
 1711SOL    HW1 5149   2.066   1.530   4.262
 1711SOL    HW2 5150   2.021   1.380   4.307
 1712SOL     OW 5151   2.102   1.091   4.610
 1712SOL    HW1 5152   2.116   1.007   4.662
 1712SOL    HW2 5153   2.047   1.155   4.665
 1713SOL     OW 5154   2.468   0.964   3.847
 1713SOL    HW1 5155   2.475   1.048   3.793
 1713SOL    HW2 5156   2.514   0.977   3.935
 1714SOL     OW 5157   1.984   0.643   4.287
 1714SOL    HW1 5158   1.939   0.555   4.304
 1714SOL    HW2 5159   1.983   0.697   4.371
 1715SOL     OW 5160   3.704   1.767   4.083
 1715SOL    HW1 5161   3.758   1.738   4.163
 1715SOL    HW2 5162   3.734   1.857   4.054
 1716SOL     OW 5163   1.889   1.596   3.841
 1716SOL    HW1 5164   1.870   1.500   3.862
 1716SOL    HW2 5165   1.856   1.654   3.916
 1717SOL     OW 5166   3.551   0.922   4.336
 1717SOL    HW1 5167   3.646   0.893   4.344
 1717SOL    HW2 5168   3.543   0.987   4.261
 1718SOL     OW 5169   3.503   1.108   4.156
 1718SOL    HW1 5170   3.589   1.110   4.104
 1718SOL    HW2 5171   3.517   1.155   4.244
 1719SOL     OW 5172   2.475   1.365   4.450
 1719SOL    HW1 5173   2.426   1.278   4.459
 1719SOL    HW2 5174   2.452   1.408   4.363
 1720SOL     OW 5175   2.671   0.004   4.226
 1720SOL    HW1 5176   2.711   0.095   4.217
 1720SOL    HW2 5177   2.571   0.012   4.232
 1721SOL     OW 5178   3.387   0.999   3.914
 1721SOL    HW1 5179   3.324   0.923   3.927
 1721SOL    HW2 5180   3.435   1.017   4.000
 1722SOL     OW 5181   3.529   1.714   4.296
 1722SOL    HW1 5182   3.488   1.691   4.208
 1722SOL    HW2 5183   3.511   1.640   4.361
 1723SOL     OW 5184   2.460   0.729   3.994
 1723SOL    HW1 5185   2.484   0.798   3.926
 1723SOL    HW2 5186   2.382   0.762   4.048
 1724SOL     OW 5187   3.143   0.345   4.668
 1724SOL    HW1 5188   3.057   0.295   4.655
 1724SOL    HW2 5189   3.205   0.291   4.724
 1725SOL     OW 5190   3.438   1.662   4.031
 1725SOL    HW1 5191   3.527   1.708   4.034
 1725SOL    HW2 5192   3.417   1.638   3.936
 1726SOL     OW 5193   2.903   0.701   4.153
 1726SOL    HW1 5194   2.929   0.697   4.249
 1726SOL    HW2 5195   2.818   0.650   4.139
 1727SOL     OW 5196   1.938   0.811   4.513
 1727SOL    HW1 5197   2.037   0.799   4.522
 1727SOL    HW2 5198   1.914   0.906   4.534
 1728SOL     OW 5199   2.727   0.348   3.919
 1728SOL    HW1 5200   2.786   0.411   3.870
 1728SOL    HW2 5201   2.746   0.254   3.890
 1729SOL     OW 5202   3.224   1.144   4.269
 1729SOL    HW1 5203   3.307   1.115   4.221
 1729SOL    HW2 5204   3.175   1.211   4.213
 1730SOL     OW 5205   2.870   1.456   4.201
 1730SOL    HW1 5206   2.824   1.528   4.149
 1730SOL    HW2 5207   2.866   1.476   4.299
 1731SOL     OW 5208   2.213   1.801   4.577
 1731SOL    HW1 5209   2.263   1.715   4.583
 1731SOL    HW2 5210   2.278   1.878   4.574
 1732SOL     OW 5211   3.657   1.066   4.597
 1732SOL    HW1 5212   3.595   1.051   4.521
 1732SOL    HW2 5213   3.605   1.077   4.682
 1733SOL     OW 5214   2.183   0.943   3.966
 1733SOL    HW1 5215   2.265   0.982   3.924
 1733SOL    HW2 5216   2.156   0.861   3.917
 1734SOL     OW 5217   3.320   0.735   4.452
 1734SOL    HW1 5218   3.315   0.670   4.527
 1734SOL    HW2 5219   3.400   0.794   4.465
 1735SOL     OW 5220   2.973   1.776   3.961
 1735SOL    HW1 5221   2.913   1.714   4.011
 1735SOL    HW2 5222   3.004   1.732   3.876
 1736SOL     OW 5223   3.494   1.377   3.805
 1736SOL    HW1 5224   3.462   1.471   3.795
 1736SOL    HW2 5225   3.418   1.314   3.793
 1737SOL     OW 5226   2.326   1.743   4.047
 1737SOL    HW1 5227   2.359   1.782   4.133
 1737SOL    HW2 5228   2.402   1.736   3.982
 1738SOL     OW 5229   3.262   0.107   4.150
 1738SOL    HW1 5230   3.238   0.070   4.060
 1738SOL    HW2 5231   3.361   0.123   4.154
 1739SOL     OW 5232   2.802   1.698   4.628
 1739SOL    HW1 5233   2.882   1.641   4.649
 1739SOL    HW2 5234   2.753   1.658   4.551
 1740SOL     OW 5235   2.244   0.700   4.204
 1740SOL    HW1 5236   2.289   0.610   4.201
 1740SOL    HW2 5237   2.150   0.689   4.237
 1741SOL     OW 5238   2.476   0.122   3.841
 1741SOL    HW1 5239   2.574   0.100   3.848
 1741SOL    HW2 5240   2.445   0.105   3.748
 1742SOL     OW 5241   2.401   0.064   4.236
 1742SOL    HW1 5242   2.320   0.065   4.294
 1742SOL    HW2 5243   2.404   0.147   4.181
 1743SOL     OW 5244   3.296   1.188   3.765
 1743SOL    HW1 5245   3.328   1.112   3.822
 1743SOL    HW2 5246   3.204   1.215   3.795
 1744SOL     OW 5247   2.159   0.035   3.895
 1744SOL    HW1 5248   2.208   0.119   3.874
 1744SOL    HW2 5249   2.221  -0.030   3.940
 1745SOL     OW 5250   2.797   0.236   4.204
 1745SOL    HW1 5251   2.749   0.277   4.126
 1745SOL    HW2 5252   2.896   0.234   4.185
 1746SOL     OW 5253   2.321   1.152   4.465
 1746SOL    HW1 5254   2.250   1.125   4.530
 1746SOL    HW2 5255   2.295   1.124   4.372
 1747SOL     OW 5256   3.133   1.797   4.315
 1747SOL    HW1 5257   3.177   1.861   4.251
 1747SOL    HW2 5258   3.083   1.849   4.385
 1748SOL     OW 5259   2.894   0.549   3.740
 1748SOL    HW1 5260   2.853   0.631   3.701
 1748SOL    HW2 5261   2.958   0.575   3.813
 1749SOL     OW 5262   2.728   0.454   4.366
 1749SOL    HW1 5263   2.696   0.526   4.304
 1749SOL    HW2 5264   2.752   0.373   4.313
 1750SOL     OW 5265   3.719   0.833   4.101
 1750SOL    HW1 5266   3.761   0.769   4.165
 1750SOL    HW2 5267   3.681   0.782   4.023
 1751SOL     OW 5268   2.350   1.385   3.898
 1751SOL    HW1 5269   2.263   1.370   3.945
 1751SOL    HW2 5270   2.333   1.411   3.803
 1752SOL     OW 5271   3.526   1.280   4.381
 1752SOL    HW1 5272   3.625   1.288   4.395
 1752SOL    HW2 5273   3.481   1.364   4.412
 1753SOL     OW 5274   3.252   0.575   3.802
 1753SOL    HW1 5275   3.198   0.554   3.883
 1753SOL    HW2 5276   3.343   0.534   3.811
 1754SOL     OW 5277   2.389   0.256   4.052
 1754SOL    HW1 5278   2.416   0.197   3.977
 1754SOL    HW2 5279   2.389   0.351   4.021
 1755SOL     OW 5280   2.567   1.050   4.092
 1755SOL    HW1 5281   2.553   1.057   4.191
 1755SOL    HW2 5282   2.651   0.999   4.074
 1756SOL     OW 5283   2.229   1.100   4.225
 1756SOL    HW1 5284   2.222   1.183   4.169
 1756SOL    HW2 5285   2.233   1.020   4.165
 1757SOL     OW 5286   3.114   1.348   4.112
 1757SOL    HW1 5287   3.164   1.425   4.152
 1757SOL    HW2 5288   3.019   1.350   4.144
 1758SOL     OW 5289   3.444   0.639   4.196
 1758SOL    HW1 5290   3.413   0.700   4.269
 1758SOL    HW2 5291   3.494   0.691   4.127
 1759SOL     OW 5292   3.071   0.525   3.999
 1759SOL    HW1 5293   3.084   0.441   4.053
 1759SOL    HW2 5294   3.042   0.599   4.059
 1760SOL     OW 5295   2.169   0.063   4.342
 1760SOL    HW1 5296   2.158   0.157   4.375
 1760SOL    HW2 5297   2.164   0.000   4.419
 1761SOL     OW 5298   3.484   0.367   4.098
 1761SOL    HW1 5299   3.486   0.291   4.162
 1761SOL    HW2 5300   3.436   0.444   4.138
 1762SOL     OW 5301   2.885   0.766   4.690
 1762SOL    HW1 5302   2.900   0.787   4.786
 1762SOL    HW2 5303   2.855   0.671   4.681
 1763SOL     OW 5304   3.402   0.274   3.849
 1763SOL    HW1 5305   3.341   0.199   3.872
 1763SOL    HW2 5306   3.424   0.326   3.932
 1764SOL     OW 5307   3.165   0.838   3.766
 1764SOL    HW1 5308   3.199   0.745   3.781
 1764SOL    HW2 5309   3.183   0.865   3.671
 1765SOL     OW 5310   1.870   1.326   3.924
 1765SOL    HW1 5311   1.777   1.347   3.893
 1765SOL    HW2 5312   1.880   1.227   3.937
 1766SOL     OW 5313   2.677   0.572   4.049
 1766SOL    HW1 5314   2.684   0.483   4.003
 1766SOL    HW2 5315   2.583   0.606   4.041
 1767SOL     OW 5316   2.335   0.500   3.915
 1767SOL    HW1 5317   2.396   0.580   3.919
 1767SOL    HW2 5318   2.240   0.531   3.922
 1768SOL     OW 5319   3.164   0.855   4.033
 1768SOL    HW1 5320   3.078   0.824   4.075
 1768SOL    HW2 5321   3.160   0.841   3.934
 1769SOL     OW 5322   3.588   0.135   4.247
 1769SOL    HW1 5323   3.661   0.118   4.180
 1769SOL    HW2 5324   3.557   0.048   4.285
 1770SOL     OW 5325   3.250   1.573   4.201
 1770SOL    HW1 5326   3.317   1.585   4.127
 1770SOL    HW2 5327   3.210   1.662   4.224
 1771SOL     OW 5328   2.534   1.616   3.878
 1771SOL    HW1 5329   2.543   1.626   3.779
 1771SOL    HW2 5330   2.494   1.527   3.899
 1772SOL     OW 5331   3.703   0.175   4.687
 1772SOL    HW1 5332   3.742   0.090   4.651
 1772SOL    HW2 5333   3.605   0.177   4.668
 1773SOL     OW 5334   2.125   0.326   4.444
 1773SOL    HW1 5335   2.046   0.377   4.410
 1773SOL    HW2 5336   2.116   0.311   4.542
 1774SOL     OW 5337   3.056   1.612   3.755
 1774SOL    HW1 5338   3.062   1.519   3.792
 1774SOL    HW2 5339   2.997   1.612   3.675
 1775SOL     OW 5340   2.778   0.910   4.015
 1775SOL    HW1 5341   2.841   0.948   3.947
 1775SOL    HW2 5342   2.818   0.827   4.054
 1776SOL     OW 5343   3.366   1.607   3.768
 1776SOL    HW1 5344   3.274   1.644   3.775
 1776SOL    HW2 5345   3.404   1.627   3.678
 1777SOL     OW 5346   2.452   1.487   4.215
 1777SOL    HW1 5347   2.494   1.429   4.145
 1777SOL    HW2 5348   2.408   1.566   4.171
 1778SOL     OW 5349   2.117   1.348   4.014
 1778SOL    HW1 5350   2.021   1.349   3.987
 1778SOL    HW2 5351   2.129   1.401   4.098
 1779SOL     OW 5352   1.937   0.345   3.757
 1779SOL    HW1 5353   1.845   0.317   3.728
 1779SOL    HW2 5354   1.968   0.422   3.701
 1780SOL     OW 5355   1.934   0.166   4.042
 1780SOL    HW1 5356   1.917   0.249   3.988
 1780SOL    HW2 5357   2.024   0.129   4.020
 1781SOL     OW 5358   3.045   1.335   3.843
 1781SOL    HW1 5359   2.946   1.324   3.845
 1781SOL    HW2 5360   3.079   1.350   3.936
 1782SOL     OW 5361   3.087   0.325   4.173
 1782SOL    HW1 5362   3.152   0.251   4.162
 1782SOL    HW2 5363   3.107   0.375   4.257
 1783SOL     OW 5364   2.456   0.745   4.376
 1783SOL    HW1 5365   2.506   0.830   4.357
 1783SOL    HW2 5366   2.368   0.747   4.328
 1784SOL     OW 5367   2.721   1.374   3.740
 1784SOL    HW1 5368   2.675   1.389   3.828
 1784SOL    HW2 5369   2.765   1.459   3.710
 1785SOL     OW 5370   2.523   1.790   4.677
 1785SOL    HW1 5371   2.477   1.878   4.664
 1785SOL    HW2 5372   2.622   1.802   4.670
 1786SOL     OW 5373   2.721   0.956   4.585
 1786SOL    HW1 5374   2.775   0.887   4.633
 1786SOL    HW2 5375   2.689   1.025   4.651
 1787SOL     OW 5376   2.945   0.984   3.811
 1787SOL    HW1 5377   2.922   1.037   3.729
 1787SOL    HW2 5378   3.026   0.928   3.792
 1788SOL     OW 5379   1.941   1.240   4.377
 1788SOL    HW1 5380   1.940   1.193   4.465
 1788SOL    HW2 5381   2.023   1.212   4.326
 1789SOL     OW 5382   2.290   0.424   4.244
 1789SOL    HW1 5383   2.320   0.352   4.182
 1789SOL    HW2 5384   2.251   0.384   4.327
 1790SOL     OW 5385   3.567   1.487   4.828
 1790SOL    HW1 5386   3.474   1.462   4.801
 1790SOL    HW2 5387   3.593   1.437   4.910
 1791SOL     OW 5388   2.674   1.586   4.411
 1791SOL    HW1 5389   2.706   1.596   4.317
 1791SOL    HW2 5390   2.595   1.524   4.413
 1792SOL     OW 5391   2.632   1.330   4.025
 1792SOL    HW1 5392   2.586   1.243   4.042
 1792SOL    HW2 5393   2.723   1.327   4.066
 1793SOL     OW 5394   3.214   0.052   3.892
 1793SOL    HW1 5395   3.249   0.011   3.808
 1793SOL    HW2 5396   3.124   0.014   3.912
 1794SOL     OW 5397   3.162   0.453   4.415
 1794SOL    HW1 5398   3.103   0.533   4.419
 1794SOL    HW2 5399   3.177   0.418   4.508
 1795SOL     OW 5400   1.901   1.077   4.024
 1795SOL    HW1 5401   2.000   1.066   4.015
 1795SOL    HW2 5402   1.861   0.991   4.056
 1796SOL     OW 5403   2.737   1.646   4.061
 1796SOL    HW1 5404   2.660   1.611   4.007
 1796SOL    HW2 5405   2.705   1.717   4.123
 1797SOL     OW 5406   2.092   2.490   0.113
 1797SOL    HW1 5407   1.999   2.488   0.150
 1797SOL    HW2 5408   2.093   2.451   0.021
 1798SOL     OW 5409   2.087   2.137   0.996
 1798SOL    HW1 5410   2.122   2.120   1.088
 1798SOL    HW2 5411   1.999   2.092   0.984
 1799SOL     OW 5412   1.881   2.230   0.647
 1799SOL    HW1 5413   1.799   2.273   0.686
 1799SOL    HW2 5414   1.853   2.157   0.584
 1800SOL     OW 5415   2.431   3.137   1.165
 1800SOL    HW1 5416   2.338   3.130   1.128
 1800SOL    HW2 5417   2.442   3.226   1.209
 1801SOL     OW 5418   3.417   3.373   0.703
 1801SOL    HW1 5419   3.360   3.357   0.784
 1801SOL    HW2 5420   3.358   3.383   0.623
 1802SOL     OW 5421   2.997   2.565   0.717
 1802SOL    HW1 5422   3.054   2.643   0.692
 1802SOL    HW2 5423   2.937   2.591   0.793
 1803SOL     OW 5424   3.617   2.469   0.231
 1803SOL    HW1 5425   3.605   2.456   0.132
 1803SOL    HW2 5426   3.587   2.388   0.280
 1804SOL     OW 5427   2.630   3.006   1.023
 1804SOL    HW1 5428   2.552   3.023   1.083
 1804SOL    HW2 5429   2.664   3.093   0.987
 1805SOL     OW 5430   2.712   2.660   1.823
 1805SOL    HW1 5431   2.708   2.736   1.888
 1805SOL    HW2 5432   2.734   2.696   1.732
 1806SOL     OW 5433   2.547   2.874   0.665
 1806SOL    HW1 5434   2.616   2.858   0.735
 1806SOL    HW2 5435   2.474   2.931   0.703
 1807SOL     OW 5436   2.548   3.023   1.803
 1807SOL    HW1 5437   2.608   3.102   1.817
 1807SOL    HW2 5438   2.462   3.054   1.762
 1808SOL     OW 5439   2.197   3.297   1.061
 1808SOL    HW1 5440   2.119   3.266   1.008
 1808SOL    HW2 5441   2.255   3.355   1.004
 1809SOL     OW 5442   3.322   3.367   1.339
 1809SOL    HW1 5443   3.346   3.461   1.365
 1809SOL    HW2 5444   3.306   3.313   1.421
 1810SOL     OW 5445   2.300   2.254   1.499
 1810SOL    HW1 5446   2.382   2.198   1.508
 1810SOL    HW2 5447   2.219   2.196   1.503
 1811SOL     OW 5448   3.465   2.309   0.737
 1811SOL    HW1 5449   3.391   2.355   0.687
 1811SOL    HW2 5450   3.516   2.377   0.790
 1812SOL     OW 5451   2.093   3.575   0.483
 1812SOL    HW1 5452   2.127   3.652   0.537
 1812SOL    HW2 5453   2.137   3.575   0.393
 1813SOL     OW 5454   2.989   3.203   1.690
 1813SOL    HW1 5455   3.036   3.203   1.778
 1813SOL    HW2 5456   2.941   3.116   1.679
 1814SOL     OW 5457   2.092   3.296   0.538
 1814SOL    HW1 5458   2.066   3.392   0.538
 1814SOL    HW2 5459   2.021   3.242   0.583
 1815SOL     OW 5460   2.102   2.953   0.886
 1815SOL    HW1 5461   2.116   2.869   0.938
 1815SOL    HW2 5462   2.047   3.017   0.941
 1816SOL     OW 5463   2.482   3.648   1.439
 1816SOL    HW1 5464   2.390   3.631   1.474
 1816SOL    HW2 5465   2.510   3.740   1.465
 1817SOL     OW 5466   2.468   2.826   0.123
 1817SOL    HW1 5467   2.475   2.910   0.069
 1817SOL    HW2 5468   2.514   2.839   0.211
 1818SOL     OW 5469   3.456   1.976   1.480
 1818SOL    HW1 5470   3.438   2.043   1.408
 1818SOL    HW2 5471   3.453   2.022   1.569
 1819SOL     OW 5472   1.984   2.505   0.563
 1819SOL    HW1 5473   1.939   2.417   0.580
 1819SOL    HW2 5474   1.983   2.559   0.647
 1820SOL     OW 5475   3.704   3.629   0.359
 1820SOL    HW1 5476   3.758   3.600   0.439
 1820SOL    HW2 5477   3.734   3.719   0.330
 1821SOL     OW 5478   1.889   3.458   0.117
 1821SOL    HW1 5479   1.870   3.362   0.138
 1821SOL    HW2 5480   1.856   3.516   0.192
 1822SOL     OW 5481   3.551   2.784   0.612
 1822SOL    HW1 5482   3.646   2.755   0.620
 1822SOL    HW2 5483   3.543   2.849   0.537
 1823SOL     OW 5484   3.503   2.970   0.432
 1823SOL    HW1 5485   3.589   2.972   0.380
 1823SOL    HW2 5486   3.517   3.017   0.520
 1824SOL     OW 5487   1.975   2.599   1.597
 1824SOL    HW1 5488   2.063   2.586   1.642
 1824SOL    HW2 5489   1.962   2.696   1.575
 1825SOL     OW 5490   2.475   3.227   0.726
 1825SOL    HW1 5491   2.426   3.140   0.735
 1825SOL    HW2 5492   2.452   3.270   0.639
 1826SOL     OW 5493   3.155   3.090   1.423
 1826SOL    HW1 5494   3.192   3.017   1.365
 1826SOL    HW2 5495   3.207   3.095   1.508
 1827SOL     OW 5496   2.671   1.866   0.502
 1827SOL    HW1 5497   2.711   1.957   0.493
 1827SOL    HW2 5498   2.571   1.874   0.508
 1828SOL     OW 5499   2.059   2.838   1.264
 1828SOL    HW1 5500   2.148   2.793   1.250
 1828SOL    HW2 5501   1.986   2.773   1.245
 1829SOL     OW 5502   3.387   2.861   0.190
 1829SOL    HW1 5503   3.324   2.785   0.203
 1829SOL    HW2 5504   3.435   2.879   0.276
 1830SOL     OW 5505   3.049   3.654   1.616
 1830SOL    HW1 5506   3.073   3.714   1.540
 1830SOL    HW2 5507   3.056   3.559   1.586
 1831SOL     OW 5508   2.179   2.113   1.801
 1831SOL    HW1 5509   2.250   2.184   1.807
 1831SOL    HW2 5510   2.091   2.152   1.829
 1832SOL     OW 5511   3.328   3.279   0.953
 1832SOL    HW1 5512   3.269   3.285   1.033
 1832SOL    HW2 5513   3.313   3.191   0.907
 1833SOL     OW 5514   3.529   3.576   0.572
 1833SOL    HW1 5515   3.488   3.553   0.484
 1833SOL    HW2 5516   3.511   3.502   0.637
 1834SOL     OW 5517   2.460   2.591   0.270
 1834SOL    HW1 5518   2.484   2.660   0.202
 1834SOL    HW2 5519   2.382   2.624   0.324
 1835SOL     OW 5520   3.143   2.207   0.944
 1835SOL    HW1 5521   3.057   2.157   0.931
 1835SOL    HW2 5522   3.205   2.153   1.000
 1836SOL     OW 5523   3.438   3.524   0.307
 1836SOL    HW1 5524   3.527   3.570   0.310
 1836SOL    HW2 5525   3.417   3.500   0.212
 1837SOL     OW 5526   2.669   2.467   1.465
 1837SOL    HW1 5527   2.622   2.464   1.554
 1837SOL    HW2 5528   2.618   2.412   1.399
 1838SOL     OW 5529   3.256   2.331   1.674
 1838SOL    HW1 5530   3.236   2.374   1.762
 1838SOL    HW2 5531   3.334   2.269   1.683
 1839SOL     OW 5532   2.835   2.752   1.572
 1839SOL    HW1 5533   2.881   2.668   1.543
 1839SOL    HW2 5534   2.779   2.786   1.497
 1840SOL     OW 5535   2.853   2.272   1.242
 1840SOL    HW1 5536   2.776   2.306   1.296
 1840SOL    HW2 5537   2.819   2.221   1.163
 1841SOL     OW 5538   2.903   2.563   0.429
 1841SOL    HW1 5539   2.929   2.559   0.525
 1841SOL    HW2 5540   2.818   2.512   0.415
 1842SOL     OW 5541   1.938   2.673   0.789
 1842SOL    HW1 5542   2.037   2.661   0.798
 1842SOL    HW2 5543   1.914   2.768   0.810
 1843SOL     OW 5544   1.992   3.683   1.571
 1843SOL    HW1 5545   1.982   3.668   1.670
 1843SOL    HW2 5546   1.906   3.719   1.535
 1844SOL     OW 5547   2.727   2.210   0.195
 1844SOL    HW1 5548   2.786   2.273   0.146
 1844SOL    HW2 5549   2.746   2.116   0.166
 1845SOL     OW 5550   3.581   2.447   1.831
 1845SOL    HW1 5551   3.555   2.536   1.795
 1845SOL    HW2 5552   3.579   2.379   1.758
 1846SOL     OW 5553   3.224   3.006   0.545
 1846SOL    HW1 5554   3.307   2.977   0.497
 1846SOL    HW2 5555   3.175   3.073   0.489
 1847SOL     OW 5556   2.412   2.058   0.885
 1847SOL    HW1 5557   2.407   2.053   0.985
 1847SOL    HW2 5558   2.414   2.154   0.856
 1848SOL     OW 5559   2.870   3.318   0.477
 1848SOL    HW1 5560   2.824   3.390   0.425
 1848SOL    HW2 5561   2.866   3.338   0.575
 1849SOL     OW 5562   2.213   3.663   0.853
 1849SOL    HW1 5563   2.263   3.577   0.859
 1849SOL    HW2 5564   2.278   3.740   0.850
 1850SOL     OW 5565   3.657   2.928   0.873
 1850SOL    HW1 5566   3.595   2.913   0.797
 1850SOL    HW2 5567   3.605   2.939   0.958
 1851SOL     OW 5568   3.089   3.412   1.506
 1851SOL    HW1 5569   3.095   3.335   1.570
 1851SOL    HW2 5570   3.037   3.386   1.426
 1852SOL     OW 5571   2.183   2.805   0.242
 1852SOL    HW1 5572   2.265   2.844   0.200
 1852SOL    HW2 5573   2.156   2.723   0.193
 1853SOL     OW 5574   3.320   2.597   0.728
 1853SOL    HW1 5575   3.315   2.532   0.803
 1853SOL    HW2 5576   3.400   2.656   0.741
 1854SOL     OW 5577   2.323   3.128   1.727
 1854SOL    HW1 5578   2.273   3.129   1.641
 1854SOL    HW2 5579   2.260   3.110   1.803
 1855SOL     OW 5580   2.973   3.638   0.237
 1855SOL    HW1 5581   2.913   3.576   0.287
 1855SOL    HW2 5582   3.004   3.594   0.152
 1856SOL     OW 5583   2.064   2.147   1.498
 1856SOL    HW1 5584   1.984   2.207   1.485
 1856SOL    HW2 5585   2.054   2.098   1.584
 1857SOL     OW 5586   3.494   3.239   0.081
 1857SOL    HW1 5587   3.462   3.333   0.071
 1857SOL    HW2 5588   3.418   3.176   0.069
 1858SOL     OW 5589   2.326   3.605   0.323
 1858SOL    HW1 5590   2.359   3.644   0.409
 1858SOL    HW2 5591   2.402   3.598   0.258
 1859SOL     OW 5592   3.262   1.969   0.426
 1859SOL    HW1 5593   3.238   1.932   0.336
 1859SOL    HW2 5594   3.361   1.985   0.430
 1860SOL     OW 5595   2.111   3.647   1.241
 1860SOL    HW1 5596   2.168   3.582   1.291
 1860SOL    HW2 5597   2.095   3.614   1.148
 1861SOL     OW 5598   2.802   3.560   0.904
 1861SOL    HW1 5599   2.882   3.503   0.925
 1861SOL    HW2 5600   2.753   3.520   0.827
 1862SOL     OW 5601   2.244   2.562   0.480
 1862SOL    HW1 5602   2.289   2.472   0.477
 1862SOL    HW2 5603   2.150   2.551   0.513
 1863SOL     OW 5604   3.409   2.084   1.729
 1863SOL    HW1 5605   3.404   2.121   1.821
 1863SOL    HW2 5606   3.337   2.015   1.717
 1864SOL     OW 5607   2.643   2.126   1.749
 1864SOL    HW1 5608   2.710   2.065   1.792
 1864SOL    HW2 5609   2.570   2.145   1.814
 1865SOL     OW 5610   2.750   3.376   1.195
 1865SOL    HW1 5611   2.727   3.351   1.101
 1865SOL    HW2 5612   2.811   3.307   1.234
 1866SOL     OW 5613   3.213   2.452   1.433
 1866SOL    HW1 5614   3.241   2.409   1.518
 1866SOL    HW2 5615   3.238   2.548   1.434
 1867SOL     OW 5616   2.665   3.264   0.924
 1867SOL    HW1 5617   2.755   3.278   0.882
 1867SOL    HW2 5618   2.594   3.266   0.853
 1868SOL     OW 5619   2.784   2.365   0.899
 1868SOL    HW1 5620   2.759   2.356   0.803
 1868SOL    HW2 5621   2.832   2.283   0.930
 1869SOL     OW 5622   2.401   1.926   0.512
 1869SOL    HW1 5623   2.320   1.927   0.570
 1869SOL    HW2 5624   2.404   2.009   0.457
 1870SOL     OW 5625   3.296   3.050   0.041
 1870SOL    HW1 5626   3.328   2.974   0.098
 1870SOL    HW2 5627   3.204   3.077   0.071
 1871SOL     OW 5628   2.159   1.897   0.171
 1871SOL    HW1 5629   2.208   1.981   0.150
 1871SOL    HW2 5630   2.221   1.832   0.216
 1872SOL     OW 5631   2.797   2.098   0.480
 1872SOL    HW1 5632   2.749   2.139   0.402
 1872SOL    HW2 5633   2.896   2.096   0.461
 1873SOL     OW 5634   2.938   2.545   1.464
 1873SOL    HW1 5635   2.858   2.484   1.467
 1873SOL    HW2 5636   3.019   2.492   1.440
 1874SOL     OW 5637   3.089   3.432   0.793
 1874SOL    HW1 5638   3.110   3.506   0.728
 1874SOL    HW2 5639   3.157   3.432   0.866
 1875SOL     OW 5640   2.321   3.014   0.741
 1875SOL    HW1 5641   2.250   2.987   0.806
 1875SOL    HW2 5642   2.295   2.986   0.648
 1876SOL     OW 5643   3.133   3.659   0.591
 1876SOL    HW1 5644   3.177   3.723   0.527
 1876SOL    HW2 5645   3.083   3.711   0.661
 1877SOL     OW 5646   2.894   2.411   0.016
 1877SOL    HW1 5647   2.853   2.493  -0.023
 1877SOL    HW2 5648   2.958   2.437   0.089
 1878SOL     OW 5649   1.940   2.418   1.386
 1878SOL    HW1 5650   2.032   2.417   1.345
 1878SOL    HW2 5651   1.934   2.492   1.453
 1879SOL     OW 5652   2.423   2.084   1.147
 1879SOL    HW1 5653   2.461   2.000   1.184
 1879SOL    HW2 5654   2.335   2.103   1.191
 1880SOL     OW 5655   2.728   2.316   0.642
 1880SOL    HW1 5656   2.696   2.388   0.580
 1880SOL    HW2 5657   2.752   2.235   0.589
 1881SOL     OW 5658   2.879   1.901   0.753
 1881SOL    HW1 5659   2.807   1.906   0.684
 1881SOL    HW2 5660   2.855   1.832   0.822
 1882SOL     OW 5661   3.291   3.035   0.867
 1882SOL    HW1 5662   3.236   2.951   0.860
 1882SOL    HW2 5663   3.317   3.064   0.775
 1883SOL     OW 5664   3.328   2.452   0.992
 1883SOL    HW1 5665   3.298   2.357   0.999
 1883SOL    HW2 5666   3.401   2.468   1.058
 1884SOL     OW 5667   3.719   2.695   0.377
 1884SOL    HW1 5668   3.761   2.631   0.441
 1884SOL    HW2 5669   3.681   2.644   0.299
 1885SOL     OW 5670   2.350   3.247   0.174
 1885SOL    HW1 5671   2.263   3.232   0.221
 1885SOL    HW2 5672   2.333   3.273   0.079
 1886SOL     OW 5673   3.526   3.142   0.657
 1886SOL    HW1 5674   3.625   3.150   0.671
 1886SOL    HW2 5675   3.481   3.226   0.688
 1887SOL     OW 5676   3.252   2.437   0.078
 1887SOL    HW1 5677   3.198   2.416   0.159
 1887SOL    HW2 5678   3.343   2.396   0.087
 1888SOL     OW 5679   2.389   2.118   0.328
 1888SOL    HW1 5680   2.416   2.059   0.253
 1888SOL    HW2 5681   2.389   2.213   0.297
 1889SOL     OW 5682   3.616   3.085   1.588
 1889SOL    HW1 5683   3.707   3.046   1.575
 1889SOL    HW2 5684   3.624   3.181   1.612
 1890SOL     OW 5685   2.926   3.209   1.340
 1890SOL    HW1 5686   2.846   3.186   1.395
 1890SOL    HW2 5687   3.009   3.183   1.389
 1891SOL     OW 5688   3.454   3.491   1.625
 1891SOL    HW1 5689   3.481   3.525   1.535
 1891SOL    HW2 5690   3.533   3.453   1.671
 1892SOL     OW 5691   2.973   3.057   1.100
 1892SOL    HW1 5692   2.933   3.101   1.181
 1892SOL    HW2 5693   2.932   3.094   1.017
 1893SOL     OW 5694   3.500   2.961   1.079
 1893SOL    HW1 5695   3.505   3.042   1.138
 1893SOL    HW2 5696   3.414   2.963   1.028
 1894SOL     OW 5697   2.777   1.951   1.402
 1894SOL    HW1 5698   2.802   1.931   1.307
 1894SOL    HW2 5699   2.849   2.007   1.444
 1895SOL     OW 5700   2.842   2.978   1.719
 1895SOL    HW1 5701   2.743   2.984   1.729
 1895SOL    HW2 5702   2.865   2.898   1.663
 1896SOL     OW 5703   2.567   2.912   0.368
 1896SOL    HW1 5704   2.553   2.919   0.467
 1896SOL    HW2 5705   2.651   2.861   0.350
 1897SOL     OW 5706   2.272   2.675   1.251
 1897SOL    HW1 5707   2.358   2.687   1.301
 1897SOL    HW2 5708   2.230   2.588   1.278
 1898SOL     OW 5709   3.136   2.248   1.262
 1898SOL    HW1 5710   3.157   2.322   1.326
 1898SOL    HW2 5711   3.047   2.265   1.219
 1899SOL     OW 5712   1.926   3.426   1.331
 1899SOL    HW1 5713   1.880   3.508   1.297
 1899SOL    HW2 5714   2.024   3.445   1.340
 1900SOL     OW 5715   2.229   2.962   0.501
 1900SOL    HW1 5716   2.222   3.045   0.445
 1900SOL    HW2 5717   2.233   2.882   0.441
 1901SOL     OW 5718   2.428   2.399   0.865
 1901SOL    HW1 5719   2.440   2.465   0.791
 1901SOL    HW2 5720   2.474   2.433   0.948
 1902SOL     OW 5721   3.114   3.210   0.388
 1902SOL    HW1 5722   3.164   3.287   0.428
 1902SOL    HW2 5723   3.019   3.212   0.420
 1903SOL     OW 5724   3.134   3.307   1.142
 1903SOL    HW1 5725   3.181   3.320   1.229
 1903SOL    HW2 5726   3.068   3.233   1.151
 1904SOL     OW 5727   3.444   2.501   0.472
 1904SOL    HW1 5728   3.413   2.562   0.545
 1904SOL    HW2 5729   3.494   2.553   0.403
 1905SOL     OW 5730   2.216   3.372   1.329
 1905SOL    HW1 5731   2.195   3.328   1.242
 1905SOL    HW2 5732   2.313   3.398   1.332
 1906SOL     OW 5733   2.264   2.613   1.598
 1906SOL    HW1 5734   2.332   2.668   1.551
 1906SOL    HW2 5735   2.304   2.525   1.625
 1907SOL     OW 5736   3.449   2.641   1.670
 1907SOL    HW1 5737   3.357   2.679   1.665
 1907SOL    HW2 5738   3.509   2.688   1.605
 1908SOL     OW 5739   2.875   1.967   1.770
 1908SOL    HW1 5740   2.881   2.052   1.718
 1908SOL    HW2 5741   2.907   1.891   1.713
 1909SOL     OW 5742   2.366   1.912   1.740
 1909SOL    HW1 5743   2.324   1.855   1.670
 1909SOL    HW2 5744   2.300   1.981   1.772
 1910SOL     OW 5745   2.435   2.732   1.029
 1910SOL    HW1 5746   2.479   2.821   1.020
 1910SOL    HW2 5747   2.372   2.732   1.106
 1911SOL     OW 5748   3.222   2.724   1.045
 1911SOL    HW1 5749   3.147   2.724   0.979
 1911SOL    HW2 5750   3.259   2.632   1.054
 1912SOL     OW 5751   3.071   2.387   0.275
 1912SOL    HW1 5752   3.084   2.303   0.329
 1912SOL    HW2 5753   3.042   2.461   0.335
 1913SOL     OW 5754   2.169   2.075   1.231
 1913SOL    HW1 5755   2.146   2.112   1.321
 1913SOL    HW2 5756   2.139   1.980   1.225
 1914SOL     OW 5757   1.899   3.172   1.282
 1914SOL    HW1 5758   1.952   3.123   1.350
 1914SOL    HW2 5759   1.921   3.270   1.287
 1915SOL     OW 5760   2.594   2.496   1.064
 1915SOL    HW1 5761   2.653   2.470   0.988
 1915SOL    HW2 5762   2.566   2.592   1.053
 1916SOL     OW 5763   3.590   2.797   1.854
 1916SOL    HW1 5764   3.544   2.790   1.765
 1916SOL    HW2 5765   3.528   2.841   1.920
 1917SOL     OW 5766   2.169   1.925   0.618
 1917SOL    HW1 5767   2.158   2.019   0.651
 1917SOL    HW2 5768   2.164   1.862   0.695
 1918SOL     OW 5769   3.484   2.229   0.374
 1918SOL    HW1 5770   3.486   2.153   0.438
 1918SOL    HW2 5771   3.436   2.306   0.414
 1919SOL     OW 5772   2.885   2.628   0.966
 1919SOL    HW1 5773   2.900   2.649   1.062
 1919SOL    HW2 5774   2.855   2.533   0.957
 1920SOL     OW 5775   2.842   3.435   1.700
 1920SOL    HW1 5776   2.822   3.479   1.612
 1920SOL    HW2 5777   2.881   3.344   1.684
 1921SOL     OW 5778   3.721   3.380   1.605
 1921SOL    HW1 5779   3.735   3.407   1.510
 1921SOL    HW2 5780   3.804   3.402   1.658
 1922SOL     OW 5781   2.212   2.760   1.804
 1922SOL    HW1 5782   2.288   2.804   1.852
 1922SOL    HW2 5783   2.247   2.713   1.722
 1923SOL     OW 5784   3.402   2.136   0.125
 1923SOL    HW1 5785   3.341   2.061   0.148
 1923SOL    HW2 5786   3.424   2.188   0.208
 1924SOL     OW 5787   3.165   2.700   0.042
 1924SOL    HW1 5788   3.199   2.607   0.057
 1924SOL    HW2 5789   3.183   2.727  -0.053
 1925SOL     OW 5790   2.930   3.195   0.849
 1925SOL    HW1 5791   2.937   3.111   0.794
 1925SOL    HW2 5792   2.992   3.264   0.813
 1926SOL     OW 5793   2.181   2.672   0.949
 1926SOL    HW1 5794   2.274   2.708   0.954
 1926SOL    HW2 5795   2.175   2.587   1.001
 1927SOL     OW 5796   2.201   2.371   1.006
 1927SOL    HW1 5797   2.149   2.288   0.989
 1927SOL    HW2 5798   2.278   2.376   0.942
 1928SOL     OW 5799   3.000   2.242   1.678
 1928SOL    HW1 5800   2.955   2.305   1.742
 1928SOL    HW2 5801   3.093   2.273   1.661
 1929SOL     OW 5802   3.022   2.069   1.477
 1929SOL    HW1 5803   3.022   2.133   1.554
 1929SOL    HW2 5804   3.050   2.117   1.394
 1930SOL     OW 5805   1.870   3.188   0.200
 1930SOL    HW1 5806   1.777   3.209   0.169
 1930SOL    HW2 5807   1.880   3.089   0.213
 1931SOL     OW 5808   1.950   3.663   0.927
 1931SOL    HW1 5809   1.908   3.577   0.900
 1931SOL    HW2 5810   2.044   3.666   0.893
 1932SOL     OW 5811   2.366   3.430   0.910
 1932SOL    HW1 5812   2.432   3.504   0.919
 1932SOL    HW2 5813   2.410   3.351   0.868
 1933SOL     OW 5814   2.864   2.658   1.238
 1933SOL    HW1 5815   2.905   2.626   1.324
 1933SOL    HW2 5816   2.768   2.631   1.235
 1934SOL     OW 5817   1.902   2.406   1.114
 1934SOL    HW1 5818   1.987   2.373   1.073
 1934SOL    HW2 5819   1.915   2.421   1.212
 1935SOL     OW 5820   2.051   2.382   1.722
 1935SOL    HW1 5821   2.110   2.342   1.652
 1935SOL    HW2 5822   1.993   2.453   1.681
 1936SOL     OW 5823   3.231   2.812   1.660
 1936SOL    HW1 5824   3.270   2.901   1.680
 1936SOL    HW2 5825   3.241   2.792   1.563
 1937SOL     OW 5826   2.677   2.434   0.325
 1937SOL    HW1 5827   2.684   2.345   0.279
 1937SOL    HW2 5828   2.583   2.468   0.317
 1938SOL     OW 5829   3.519   2.466   1.206
 1938SOL    HW1 5830   3.481   2.397   1.268
 1938SOL    HW2 5831   3.601   2.430   1.162
 1939SOL     OW 5832   2.114   3.426   1.744
 1939SOL    HW1 5833   2.084   3.483   1.820
 1939SOL    HW2 5834   2.107   3.329   1.770
 1940SOL     OW 5835   2.533   2.326   1.269
 1940SOL    HW1 5836   2.499   2.237   1.239
 1940SOL    HW2 5837   2.559   2.380   1.189
 1941SOL     OW 5838   2.792   3.540   1.465
 1941SOL    HW1 5839   2.768   3.522   1.370
 1941SOL    HW2 5840   2.822   3.634   1.475
 1942SOL     OW 5841   2.335   2.362   0.191
 1942SOL    HW1 5842   2.396   2.442   0.195
 1942SOL    HW2 5843   2.240   2.393   0.198
 1943SOL     OW 5844   2.021   2.999   1.466
 1943SOL    HW1 5845   2.043   2.938   1.542
 1943SOL    HW2 5846   2.031   2.950   1.380
 1944SOL     OW 5847   3.209   2.921   1.234
 1944SOL    HW1 5848   3.233   2.858   1.160
 1944SOL    HW2 5849   3.119   2.961   1.216
 1945SOL     OW 5850   3.164   2.717   0.309
 1945SOL    HW1 5851   3.078   2.686   0.351
 1945SOL    HW2 5852   3.160   2.703   0.210
 1946SOL     OW 5853   3.621   3.609   1.154
 1946SOL    HW1 5854   3.682   3.639   1.081
 1946SOL    HW2 5855   3.583   3.520   1.132
 1947SOL     OW 5856   3.114   3.593   1.128
 1947SOL    HW1 5857   3.198   3.598   1.074
 1947SOL    HW2 5858   3.091   3.497   1.146
 1948SOL     OW 5859   1.945   3.120   1.022
 1948SOL    HW1 5860   1.940   3.119   1.122
 1948SOL    HW2 5861   1.862   3.079   0.984
 1949SOL     OW 5862   2.550   3.524   1.716
 1949SOL    HW1 5863   2.494   3.605   1.725
 1949SOL    HW2 5864   2.602   3.528   1.630
 1950SOL     OW 5865   2.765   1.948   0.133
 1950SOL    HW1 5866   2.816   1.949   0.047
 1950SOL    HW2 5867   2.821   1.906   0.204
 1951SOL     OW 5868   3.588   1.997   0.523
 1951SOL    HW1 5869   3.661   1.980   0.456
 1951SOL    HW2 5870   3.557   1.910   0.561
 1952SOL     OW 5871   3.250   3.435   0.477
 1952SOL    HW1 5872   3.317   3.447   0.403
 1952SOL    HW2 5873   3.210   3.524   0.500
 1953SOL     OW 5874   1.992   3.656   1.851
 1953SOL    HW1 5875   1.951   3.582   1.904
 1953SOL    HW2 5876   2.056   3.707   1.909
 1954SOL     OW 5877   3.142   2.789   0.672
 1954SOL    HW1 5878   3.202   2.708   0.674
 1954SOL    HW2 5879   3.182   2.858   0.612
 1955SOL     OW 5880   2.692   3.135   1.422
 1955SOL    HW1 5881   2.687   3.168   1.517
 1955SOL    HW2 5882   2.606   3.154   1.376
 1956SOL     OW 5883   2.534   3.478   0.154
 1956SOL    HW1 5884   2.543   3.488   0.055
 1956SOL    HW2 5885   2.494   3.389   0.175
 1957SOL     OW 5886   3.512   3.582   1.394
 1957SOL    HW1 5887   3.565   3.592   1.310
 1957SOL    HW2 5888   3.485   3.672   1.428
 1958SOL     OW 5889   3.703   2.037   0.963
 1958SOL    HW1 5890   3.742   1.952   0.927
 1958SOL    HW2 5891   3.605   2.039   0.944
 1959SOL     OW 5892   2.125   2.188   0.720
 1959SOL    HW1 5893   2.046   2.239   0.686
 1959SOL    HW2 5894   2.116   2.173   0.818
 1960SOL     OW 5895   3.056   3.474   0.031
 1960SOL    HW1 5896   3.062   3.381   0.068
 1960SOL    HW2 5897   2.997   3.474  -0.049
 1961SOL     OW 5898   2.684   2.864   1.372
 1961SOL    HW1 5899   2.724   2.863   1.280
 1961SOL    HW2 5900   2.694   2.956   1.412
 1962SOL     OW 5901   2.778   2.772   0.291
 1962SOL    HW1 5902   2.841   2.810   0.223
 1962SOL    HW2 5903   2.818   2.689   0.330
 1963SOL     OW 5904   3.366   3.469   0.044
 1963SOL    HW1 5905   3.274   3.506   0.051
 1963SOL    HW2 5906   3.404   3.489  -0.046
 1964SOL     OW 5907   2.234   3.150   1.490
 1964SOL    HW1 5908   2.221   3.243   1.456
 1964SOL    HW2 5909   2.150   3.098   1.477
 1965SOL     OW 5910   3.476   3.154   1.289
 1965SOL    HW1 5911   3.536   3.157   1.369
 1965SOL    HW2 5912   3.401   3.218   1.302
 1966SOL     OW 5913   2.901   2.960   0.696
 1966SOL    HW1 5914   2.831   2.913   0.750
 1966SOL    HW2 5915   2.960   2.892   0.653
 1967SOL     OW 5916   2.876   2.098   0.971
 1967SOL    HW1 5917   2.868   2.062   0.878
 1967SOL    HW2 5918   2.874   2.022   1.036
 1968SOL     OW 5919   2.452   3.349   0.491
 1968SOL    HW1 5920   2.494   3.291   0.421
 1968SOL    HW2 5921   2.408   3.428   0.447
 1969SOL     OW 5922   3.571   2.247   1.381
 1969SOL    HW1 5923   3.644   2.316   1.385
 1969SOL    HW2 5924   3.599   2.172   1.322
 1970SOL     OW 5925   2.117   3.210   0.290
 1970SOL    HW1 5926   2.021   3.211   0.263
 1970SOL    HW2 5927   2.129   3.263   0.374
 1971SOL     OW 5928   1.967   2.875   1.726
 1971SOL    HW1 5929   1.890   2.842   1.780
 1971SOL    HW2 5930   2.052   2.845   1.768
 1972SOL     OW 5931   2.534   2.065   1.489
 1972SOL    HW1 5932   2.624   2.049   1.449
 1972SOL    HW2 5933   2.542   2.070   1.588
 1973SOL     OW 5934   1.937   2.207   0.033
 1973SOL    HW1 5935   1.845   2.179   0.004
 1973SOL    HW2 5936   1.968   2.284  -0.023
 1974SOL     OW 5937   3.302   2.718   1.398
 1974SOL    HW1 5938   3.245   2.770   1.335
 1974SOL    HW2 5939   3.398   2.730   1.374
 1975SOL     OW 5940   1.934   2.028   0.318
 1975SOL    HW1 5941   1.917   2.111   0.264
 1975SOL    HW2 5942   2.024   1.991   0.296
 1976SOL     OW 5943   3.045   3.197   0.119
 1976SOL    HW1 5944   2.946   3.186   0.121
 1976SOL    HW2 5945   3.079   3.212   0.212
 1977SOL     OW 5946   2.475   2.704   1.431
 1977SOL    HW1 5947   2.531   2.785   1.414
 1977SOL    HW2 5948   2.534   2.624   1.434
 1978SOL     OW 5949   3.355   3.629   0.959
 1978SOL    HW1 5950   3.388   3.693   0.890
 1978SOL    HW2 5951   3.421   3.623   1.034
 1979SOL     OW 5952   2.578   2.427   1.708
 1979SOL    HW1 5953   2.597   2.492   1.782
 1979SOL    HW2 5954   2.638   2.347   1.717
 1980SOL     OW 5955   3.312   3.082   1.633
 1980SOL    HW1 5956   3.303   3.072   1.732
 1980SOL    HW2 5957   3.408   3.075   1.607
 1981SOL     OW 5958   2.252   3.603   1.560
 1981SOL    HW1 5959   2.161   3.644   1.558
 1981SOL    HW2 5960   2.245   3.509   1.592
 1982SOL     OW 5961   3.536   2.745   1.254
 1982SOL    HW1 5962   3.509   2.656   1.217
 1982SOL    HW2 5963   3.537   2.813   1.181
 1983SOL     OW 5964   3.087   2.187   0.449
 1983SOL    HW1 5965   3.152   2.113   0.438
 1983SOL    HW2 5966   3.107   2.237   0.533
 1984SOL     OW 5967   2.456   2.607   0.652
 1984SOL    HW1 5968   2.506   2.692   0.633
 1984SOL    HW2 5969   2.368   2.609   0.604
 1985SOL     OW 5970   3.639   2.204   1.642
 1985SOL    HW1 5971   3.622   2.235   1.548
 1985SOL    HW2 5972   3.555   2.167   1.680
 1986SOL     OW 5973   3.592   2.796   1.517
 1986SOL    HW1 5974   3.630   2.887   1.532
 1986SOL    HW2 5975   3.584   2.779   1.418
 1987SOL     OW 5976   2.721   3.236   0.016
 1987SOL    HW1 5977   2.675   3.251   0.104
 1987SOL    HW2 5978   2.765   3.321  -0.014
 1988SOL     OW 5979   2.523   3.652   0.953
 1988SOL    HW1 5980   2.477   3.740   0.940
 1988SOL    HW2 5981   2.622   3.664   0.946
 1989SOL     OW 5982   2.721   2.818   0.861
 1989SOL    HW1 5983   2.775   2.749   0.909
 1989SOL    HW2 5984   2.689   2.887   0.927
 1990SOL     OW 5985   2.945   2.846   0.087
 1990SOL    HW1 5986   2.922   2.899   0.005
 1990SOL    HW2 5987   3.026   2.790   0.068
 1991SOL     OW 5988   3.723   3.431   0.851
 1991SOL    HW1 5989   3.652   3.419   0.781
 1991SOL    HW2 5990   3.724   3.352   0.911
 1992SOL     OW 5991   2.083   3.176   1.844
 1992SOL    HW1 5992   2.018   3.103   1.823
 1992SOL    HW2 5993   2.087   3.190   1.942
 1993SOL     OW 5994   1.941   3.102   0.653
 1993SOL    HW1 5995   1.940   3.055   0.741
 1993SOL    HW2 5996   2.023   3.074   0.602
 1994SOL     OW 5997   2.534   3.253   1.624
 1994SOL    HW1 5998   2.456   3.203   1.662
 1994SOL    HW2 5999   2.531   3.348   1.655
 1995SOL     OW 6000   3.686   2.054   1.227
 1995SOL    HW1 6001   3.682   1.964   1.271
 1995SOL    HW2 6002   3.689   2.043   1.128
 1996SOL     OW 6003   2.290   2.286   0.520
 1996SOL    HW1 6004   2.320   2.214   0.458
 1996SOL    HW2 6005   2.251   2.246   0.603
 1997SOL     OW 6006   3.567   3.349   1.104
 1997SOL    HW1 6007   3.474   3.324   1.077
 1997SOL    HW2 6008   3.593   3.299   1.186
 1998SOL     OW 6009   2.179   2.409   1.280
 1998SOL    HW1 6010   2.217   2.350   1.352
 1998SOL    HW2 6011   2.219   2.383   1.192
 1999SOL     OW 6012   2.674   3.448   0.687
 1999SOL    HW1 6013   2.706   3.458   0.593
 1999SOL    HW2 6014   2.595   3.386   0.689
 2000SOL     OW 6015   3.286   2.076   1.112
 2000SOL    HW1 6016   3.338   2.011   1.167
 2000SOL    HW2 6017   3.237   2.139   1.173
 2001SOL     OW 6018   2.863   1.896   1.154
 2001SOL    HW1 6019   2.800   1.824   1.123
 2001SOL    HW2 6020   2.956   1.860   1.154
 2002SOL     OW 6021   2.632   3.192   0.301
 2002SOL    HW1 6022   2.586   3.105   0.318
 2002SOL    HW2 6023   2.723   3.189   0.342
 2003SOL     OW 6024   2.480   3.429   1.284
 2003SOL    HW1 6025   2.475   3.511   1.341
 2003SOL    HW2 6026   2.569   3.426   1.239
 2004SOL     OW 6027   3.214   1.914   0.168
 2004SOL    HW1 6028   3.249   1.873   0.084
 2004SOL    HW2 6029   3.124   1.876   0.188
 2005SOL     OW 6030   3.162   2.315   0.691
 2005SOL    HW1 6031   3.103   2.395   0.695
 2005SOL    HW2 6032   3.177   2.280   0.784
 2006SOL     OW 6033   3.455   2.083   0.882
 2006SOL    HW1 6034   3.371   2.082   0.936
 2006SOL    HW2 6035   3.457   2.166   0.826
 2007SOL     OW 6036   1.901   2.939   0.300
 2007SOL    HW1 6037   2.000   2.928   0.291
 2007SOL    HW2 6038   1.861   2.853   0.332
 2008SOL     OW 6039   2.737   3.508   0.337
 2008SOL    HW1 6040   2.660   3.473   0.283
 2008SOL    HW2 6041   2.705   3.579   0.399
 2009SOL     OW 6042   2.092   2.490   1.975
 2009SOL    HW1 6043   1.999   2.488   2.012
 2009SOL    HW2 6044   2.093   2.451   1.883
 2010SOL     OW 6045   2.087   2.137   2.858
 2010SOL    HW1 6046   2.122   2.120   2.950
 2010SOL    HW2 6047   1.999   2.092   2.846
 2011SOL     OW 6048   1.881   2.230   2.509
 2011SOL    HW1 6049   1.799   2.273   2.548
 2011SOL    HW2 6050   1.853   2.157   2.446
 2012SOL     OW 6051   2.431   3.137   3.027
 2012SOL    HW1 6052   2.338   3.130   2.990
 2012SOL    HW2 6053   2.442   3.226   3.071
 2013SOL     OW 6054   3.417   3.373   2.565
 2013SOL    HW1 6055   3.360   3.357   2.646
 2013SOL    HW2 6056   3.358   3.383   2.485
 2014SOL     OW 6057   2.997   2.565   2.579
 2014SOL    HW1 6058   3.054   2.643   2.554
 2014SOL    HW2 6059   2.937   2.591   2.655
 2015SOL     OW 6060   3.617   2.469   2.093
 2015SOL    HW1 6061   3.605   2.456   1.994
 2015SOL    HW2 6062   3.587   2.388   2.142
 2016SOL     OW 6063   2.630   3.006   2.885
 2016SOL    HW1 6064   2.552   3.023   2.945
 2016SOL    HW2 6065   2.664   3.093   2.849
 2017SOL     OW 6066   2.712   2.660   3.685
 2017SOL    HW1 6067   2.708   2.736   3.750
 2017SOL    HW2 6068   2.734   2.696   3.594
 2018SOL     OW 6069   2.547   2.874   2.527
 2018SOL    HW1 6070   2.616   2.858   2.597
 2018SOL    HW2 6071   2.474   2.931   2.565
 2019SOL     OW 6072   2.548   3.023   3.665
 2019SOL    HW1 6073   2.608   3.102   3.679
 2019SOL    HW2 6074   2.462   3.054   3.624
 2020SOL     OW 6075   2.197   3.297   2.923
 2020SOL    HW1 6076   2.119   3.266   2.870
 2020SOL    HW2 6077   2.255   3.355   2.866
 2021SOL     OW 6078   3.322   3.367   3.201
 2021SOL    HW1 6079   3.346   3.461   3.227
 2021SOL    HW2 6080   3.306   3.313   3.283
 2022SOL     OW 6081   2.300   2.254   3.361
 2022SOL    HW1 6082   2.382   2.198   3.370
 2022SOL    HW2 6083   2.219   2.196   3.365
 2023SOL     OW 6084   3.465   2.309   2.599
 2023SOL    HW1 6085   3.391   2.355   2.549
 2023SOL    HW2 6086   3.516   2.377   2.652
 2024SOL     OW 6087   2.093   3.575   2.345
 2024SOL    HW1 6088   2.127   3.652   2.399
 2024SOL    HW2 6089   2.137   3.575   2.255
 2025SOL     OW 6090   2.989   3.203   3.552
 2025SOL    HW1 6091   3.036   3.203   3.640
 2025SOL    HW2 6092   2.941   3.116   3.541
 2026SOL     OW 6093   2.092   3.296   2.400
 2026SOL    HW1 6094   2.066   3.392   2.400
 2026SOL    HW2 6095   2.021   3.242   2.445
 2027SOL     OW 6096   2.102   2.953   2.748
 2027SOL    HW1 6097   2.116   2.869   2.800
 2027SOL    HW2 6098   2.047   3.017   2.803
 2028SOL     OW 6099   2.482   3.648   3.301
 2028SOL    HW1 6100   2.390   3.631   3.336
 2028SOL    HW2 6101   2.510   3.740   3.327
 2029SOL     OW 6102   2.468   2.826   1.985
 2029SOL    HW1 6103   2.475   2.910   1.931
 2029SOL    HW2 6104   2.514   2.839   2.073
 2030SOL     OW 6105   3.456   1.976   3.342
 2030SOL    HW1 6106   3.438   2.043   3.270
 2030SOL    HW2 6107   3.453   2.022   3.431
 2031SOL     OW 6108   1.984   2.505   2.425
 2031SOL    HW1 6109   1.939   2.417   2.442
 2031SOL    HW2 6110   1.983   2.559   2.509
 2032SOL     OW 6111   3.704   3.629   2.221
 2032SOL    HW1 6112   3.758   3.600   2.301
 2032SOL    HW2 6113   3.734   3.719   2.192
 2033SOL     OW 6114   1.889   3.458   1.979
 2033SOL    HW1 6115   1.870   3.362   2.000
 2033SOL    HW2 6116   1.856   3.516   2.054
 2034SOL     OW 6117   3.551   2.784   2.474
 2034SOL    HW1 6118   3.646   2.755   2.482
 2034SOL    HW2 6119   3.543   2.849   2.399
 2035SOL     OW 6120   3.503   2.970   2.294
 2035SOL    HW1 6121   3.589   2.972   2.242
 2035SOL    HW2 6122   3.517   3.017   2.382
 2036SOL     OW 6123   1.975   2.599   3.459
 2036SOL    HW1 6124   2.063   2.586   3.504
 2036SOL    HW2 6125   1.962   2.696   3.437
 2037SOL     OW 6126   2.475   3.227   2.588
 2037SOL    HW1 6127   2.426   3.140   2.597
 2037SOL    HW2 6128   2.452   3.270   2.501
 2038SOL     OW 6129   3.155   3.090   3.285
 2038SOL    HW1 6130   3.192   3.017   3.227
 2038SOL    HW2 6131   3.207   3.095   3.370
 2039SOL     OW 6132   2.671   1.866   2.364
 2039SOL    HW1 6133   2.711   1.957   2.355
 2039SOL    HW2 6134   2.571   1.874   2.370
 2040SOL     OW 6135   2.059   2.838   3.126
 2040SOL    HW1 6136   2.148   2.793   3.112
 2040SOL    HW2 6137   1.986   2.773   3.107
 2041SOL     OW 6138   3.387   2.861   2.052
 2041SOL    HW1 6139   3.324   2.785   2.065
 2041SOL    HW2 6140   3.435   2.879   2.138
 2042SOL     OW 6141   3.049   3.654   3.478
 2042SOL    HW1 6142   3.073   3.714   3.402
 2042SOL    HW2 6143   3.056   3.559   3.448
 2043SOL     OW 6144   2.179   2.113   3.663
 2043SOL    HW1 6145   2.250   2.184   3.669
 2043SOL    HW2 6146   2.091   2.152   3.691
 2044SOL     OW 6147   3.328   3.279   2.815
 2044SOL    HW1 6148   3.269   3.285   2.895
 2044SOL    HW2 6149   3.313   3.191   2.769
 2045SOL     OW 6150   3.529   3.576   2.434
 2045SOL    HW1 6151   3.488   3.553   2.346
 2045SOL    HW2 6152   3.511   3.502   2.499
 2046SOL     OW 6153   2.460   2.591   2.132
 2046SOL    HW1 6154   2.484   2.660   2.064
 2046SOL    HW2 6155   2.382   2.624   2.186
 2047SOL     OW 6156   3.143   2.207   2.806
 2047SOL    HW1 6157   3.057   2.157   2.793
 2047SOL    HW2 6158   3.205   2.153   2.862
 2048SOL     OW 6159   3.438   3.524   2.169
 2048SOL    HW1 6160   3.527   3.570   2.172
 2048SOL    HW2 6161   3.417   3.500   2.074
 2049SOL     OW 6162   2.669   2.467   3.327
 2049SOL    HW1 6163   2.622   2.464   3.416
 2049SOL    HW2 6164   2.618   2.412   3.261
 2050SOL     OW 6165   3.256   2.331   3.536
 2050SOL    HW1 6166   3.236   2.374   3.624
 2050SOL    HW2 6167   3.334   2.269   3.545
 2051SOL     OW 6168   2.835   2.752   3.434
 2051SOL    HW1 6169   2.881   2.668   3.405
 2051SOL    HW2 6170   2.779   2.786   3.359
 2052SOL     OW 6171   2.853   2.272   3.104
 2052SOL    HW1 6172   2.776   2.306   3.158
 2052SOL    HW2 6173   2.819   2.221   3.025
 2053SOL     OW 6174   2.903   2.563   2.291
 2053SOL    HW1 6175   2.929   2.559   2.387
 2053SOL    HW2 6176   2.818   2.512   2.277
 2054SOL     OW 6177   1.938   2.673   2.651
 2054SOL    HW1 6178   2.037   2.661   2.660
 2054SOL    HW2 6179   1.914   2.768   2.672
 2055SOL     OW 6180   1.992   3.683   3.433
 2055SOL    HW1 6181   1.982   3.668   3.532
 2055SOL    HW2 6182   1.906   3.719   3.397
 2056SOL     OW 6183   2.727   2.210   2.057
 2056SOL    HW1 6184   2.786   2.273   2.008
 2056SOL    HW2 6185   2.746   2.116   2.028
 2057SOL     OW 6186   3.581   2.447   3.693
 2057SOL    HW1 6187   3.555   2.536   3.657
 2057SOL    HW2 6188   3.579   2.379   3.620
 2058SOL     OW 6189   3.224   3.006   2.407
 2058SOL    HW1 6190   3.307   2.977   2.359
 2058SOL    HW2 6191   3.175   3.073   2.351
 2059SOL     OW 6192   2.412   2.058   2.747
 2059SOL    HW1 6193   2.407   2.053   2.847
 2059SOL    HW2 6194   2.414   2.154   2.718
 2060SOL     OW 6195   2.870   3.318   2.339
 2060SOL    HW1 6196   2.824   3.390   2.287
 2060SOL    HW2 6197   2.866   3.338   2.437
 2061SOL     OW 6198   2.213   3.663   2.715
 2061SOL    HW1 6199   2.263   3.577   2.721
 2061SOL    HW2 6200   2.278   3.740   2.712
 2062SOL     OW 6201   3.657   2.928   2.735
 2062SOL    HW1 6202   3.595   2.913   2.659
 2062SOL    HW2 6203   3.605   2.939   2.820
 2063SOL     OW 6204   3.089   3.412   3.368
 2063SOL    HW1 6205   3.095   3.335   3.432
 2063SOL    HW2 6206   3.037   3.386   3.288
 2064SOL     OW 6207   2.183   2.805   2.104
 2064SOL    HW1 6208   2.265   2.844   2.062
 2064SOL    HW2 6209   2.156   2.723   2.055
 2065SOL     OW 6210   3.320   2.597   2.590
 2065SOL    HW1 6211   3.315   2.532   2.665
 2065SOL    HW2 6212   3.400   2.656   2.603
 2066SOL     OW 6213   2.323   3.128   3.589
 2066SOL    HW1 6214   2.273   3.129   3.503
 2066SOL    HW2 6215   2.260   3.110   3.665
 2067SOL     OW 6216   2.973   3.638   2.099
 2067SOL    HW1 6217   2.913   3.576   2.149
 2067SOL    HW2 6218   3.004   3.594   2.014
 2068SOL     OW 6219   2.064   2.147   3.360
 2068SOL    HW1 6220   1.984   2.207   3.347
 2068SOL    HW2 6221   2.054   2.098   3.446
 2069SOL     OW 6222   3.494   3.239   1.943
 2069SOL    HW1 6223   3.462   3.333   1.933
 2069SOL    HW2 6224   3.418   3.176   1.931
 2070SOL     OW 6225   2.326   3.605   2.185
 2070SOL    HW1 6226   2.359   3.644   2.271
 2070SOL    HW2 6227   2.402   3.598   2.120
 2071SOL     OW 6228   3.262   1.969   2.288
 2071SOL    HW1 6229   3.238   1.932   2.198
 2071SOL    HW2 6230   3.361   1.985   2.292
 2072SOL     OW 6231   2.111   3.647   3.103
 2072SOL    HW1 6232   2.168   3.582   3.153
 2072SOL    HW2 6233   2.095   3.614   3.010
 2073SOL     OW 6234   2.802   3.560   2.766
 2073SOL    HW1 6235   2.882   3.503   2.787
 2073SOL    HW2 6236   2.753   3.520   2.689
 2074SOL     OW 6237   3.409   2.084   3.591
 2074SOL    HW1 6238   3.404   2.121   3.683
 2074SOL    HW2 6239   3.337   2.015   3.579
 2075SOL     OW 6240   2.476   1.984   1.979
 2075SOL    HW1 6241   2.574   1.962   1.986
 2075SOL    HW2 6242   2.445   1.967   1.886
 2076SOL     OW 6243   2.643   2.126   3.611
 2076SOL    HW1 6244   2.710   2.065   3.654
 2076SOL    HW2 6245   2.570   2.145   3.676
 2077SOL     OW 6246   2.750   3.376   3.057
 2077SOL    HW1 6247   2.727   3.351   2.963
 2077SOL    HW2 6248   2.811   3.307   3.096
 2078SOL     OW 6249   3.213   2.452   3.295
 2078SOL    HW1 6250   3.241   2.409   3.380
 2078SOL    HW2 6251   3.238   2.548   3.296
 2079SOL     OW 6252   2.665   3.264   2.786
 2079SOL    HW1 6253   2.755   3.278   2.744
 2079SOL    HW2 6254   2.594   3.266   2.715
 2080SOL     OW 6255   2.784   2.365   2.761
 2080SOL    HW1 6256   2.759   2.356   2.665
 2080SOL    HW2 6257   2.832   2.283   2.792
 2081SOL     OW 6258   2.401   1.926   2.374
 2081SOL    HW1 6259   2.320   1.927   2.432
 2081SOL    HW2 6260   2.404   2.009   2.319
 2082SOL     OW 6261   3.296   3.050   1.903
 2082SOL    HW1 6262   3.328   2.974   1.960
 2082SOL    HW2 6263   3.204   3.077   1.933
 2083SOL     OW 6264   2.159   1.897   2.033
 2083SOL    HW1 6265   2.208   1.981   2.012
 2083SOL    HW2 6266   2.221   1.832   2.078
 2084SOL     OW 6267   2.797   2.098   2.342
 2084SOL    HW1 6268   2.749   2.139   2.264
 2084SOL    HW2 6269   2.896   2.096   2.323
 2085SOL     OW 6270   2.938   2.545   3.326
 2085SOL    HW1 6271   2.858   2.484   3.329
 2085SOL    HW2 6272   3.019   2.492   3.302
 2086SOL     OW 6273   3.089   3.432   2.655
 2086SOL    HW1 6274   3.110   3.506   2.590
 2086SOL    HW2 6275   3.157   3.432   2.728
 2087SOL     OW 6276   2.321   3.014   2.603
 2087SOL    HW1 6277   2.250   2.987   2.668
 2087SOL    HW2 6278   2.295   2.986   2.510
 2088SOL     OW 6279   3.133   3.659   2.453
 2088SOL    HW1 6280   3.177   3.723   2.389
 2088SOL    HW2 6281   3.083   3.711   2.523
 2089SOL     OW 6282   2.894   2.411   1.878
 2089SOL    HW1 6283   2.853   2.493   1.839
 2089SOL    HW2 6284   2.958   2.437   1.951
 2090SOL     OW 6285   1.940   2.418   3.248
 2090SOL    HW1 6286   2.032   2.417   3.207
 2090SOL    HW2 6287   1.934   2.492   3.315
 2091SOL     OW 6288   2.423   2.084   3.009
 2091SOL    HW1 6289   2.461   2.000   3.046
 2091SOL    HW2 6290   2.335   2.103   3.053
 2092SOL     OW 6291   2.728   2.316   2.504
 2092SOL    HW1 6292   2.696   2.388   2.442
 2092SOL    HW2 6293   2.752   2.235   2.451
 2093SOL     OW 6294   2.879   1.901   2.615
 2093SOL    HW1 6295   2.807   1.906   2.546
 2093SOL    HW2 6296   2.855   1.832   2.684
 2094SOL     OW 6297   3.291   3.035   2.729
 2094SOL    HW1 6298   3.236   2.951   2.722
 2094SOL    HW2 6299   3.317   3.064   2.637
 2095SOL     OW 6300   3.328   2.452   2.854
 2095SOL    HW1 6301   3.298   2.357   2.861
 2095SOL    HW2 6302   3.401   2.468   2.920
 2096SOL     OW 6303   3.719   2.695   2.239
 2096SOL    HW1 6304   3.761   2.631   2.303
 2096SOL    HW2 6305   3.681   2.644   2.161
 2097SOL     OW 6306   2.350   3.247   2.036
 2097SOL    HW1 6307   2.263   3.232   2.083
 2097SOL    HW2 6308   2.333   3.273   1.941
 2098SOL     OW 6309   3.526   3.142   2.519
 2098SOL    HW1 6310   3.625   3.150   2.533
 2098SOL    HW2 6311   3.481   3.226   2.550
 2099SOL     OW 6312   3.252   2.437   1.940
 2099SOL    HW1 6313   3.198   2.416   2.021
 2099SOL    HW2 6314   3.343   2.396   1.949
 2100SOL     OW 6315   3.616   3.085   3.450
 2100SOL    HW1 6316   3.707   3.046   3.437
 2100SOL    HW2 6317   3.624   3.181   3.474
 2101SOL     OW 6318   2.926   3.209   3.202
 2101SOL    HW1 6319   2.846   3.186   3.257
 2101SOL    HW2 6320   3.009   3.183   3.251
 2102SOL     OW 6321   3.454   3.491   3.487
 2102SOL    HW1 6322   3.481   3.525   3.397
 2102SOL    HW2 6323   3.533   3.453   3.533
 2103SOL     OW 6324   2.973   3.057   2.962
 2103SOL    HW1 6325   2.933   3.101   3.043
 2103SOL    HW2 6326   2.932   3.094   2.879
 2104SOL     OW 6327   3.500   2.961   2.941
 2104SOL    HW1 6328   3.505   3.042   3.000
 2104SOL    HW2 6329   3.414   2.963   2.890
 2105SOL     OW 6330   2.777   1.951   3.264
 2105SOL    HW1 6331   2.802   1.931   3.169
 2105SOL    HW2 6332   2.849   2.007   3.306
 2106SOL     OW 6333   2.842   2.978   3.581
 2106SOL    HW1 6334   2.743   2.984   3.591
 2106SOL    HW2 6335   2.865   2.898   3.525
 2107SOL     OW 6336   2.567   2.912   2.230
 2107SOL    HW1 6337   2.553   2.919   2.329
 2107SOL    HW2 6338   2.651   2.861   2.212
 2108SOL     OW 6339   2.272   2.675   3.113
 2108SOL    HW1 6340   2.358   2.687   3.163
 2108SOL    HW2 6341   2.230   2.588   3.140
 2109SOL     OW 6342   3.136   2.248   3.124
 2109SOL    HW1 6343   3.157   2.322   3.188
 2109SOL    HW2 6344   3.047   2.265   3.081
 2110SOL     OW 6345   1.926   3.426   3.193
 2110SOL    HW1 6346   1.880   3.508   3.159
 2110SOL    HW2 6347   2.024   3.445   3.202
 2111SOL     OW 6348   2.229   2.962   2.363
 2111SOL    HW1 6349   2.222   3.045   2.307
 2111SOL    HW2 6350   2.233   2.882   2.303
 2112SOL     OW 6351   2.428   2.399   2.727
 2112SOL    HW1 6352   2.440   2.465   2.653
 2112SOL    HW2 6353   2.474   2.433   2.810
 2113SOL     OW 6354   3.114   3.210   2.250
 2113SOL    HW1 6355   3.164   3.287   2.290
 2113SOL    HW2 6356   3.019   3.212   2.282
 2114SOL     OW 6357   3.134   3.307   3.004
 2114SOL    HW1 6358   3.181   3.320   3.091
 2114SOL    HW2 6359   3.068   3.233   3.013
 2115SOL     OW 6360   3.444   2.501   2.334
 2115SOL    HW1 6361   3.413   2.562   2.407
 2115SOL    HW2 6362   3.494   2.553   2.265
 2116SOL     OW 6363   2.216   3.372   3.191
 2116SOL    HW1 6364   2.195   3.328   3.104
 2116SOL    HW2 6365   2.313   3.398   3.194
 2117SOL     OW 6366   2.264   2.613   3.460
 2117SOL    HW1 6367   2.332   2.668   3.413
 2117SOL    HW2 6368   2.304   2.525   3.487
 2118SOL     OW 6369   3.449   2.641   3.532
 2118SOL    HW1 6370   3.357   2.679   3.527
 2118SOL    HW2 6371   3.509   2.688   3.467
 2119SOL     OW 6372   2.875   1.967   3.632
 2119SOL    HW1 6373   2.881   2.052   3.580
 2119SOL    HW2 6374   2.907   1.891   3.575
 2120SOL     OW 6375   2.366   1.912   3.602
 2120SOL    HW1 6376   2.324   1.855   3.532
 2120SOL    HW2 6377   2.300   1.981   3.634
 2121SOL     OW 6378   2.435   2.732   2.891
 2121SOL    HW1 6379   2.479   2.821   2.882
 2121SOL    HW2 6380   2.372   2.732   2.968
 2122SOL     OW 6381   3.222   2.724   2.907
 2122SOL    HW1 6382   3.147   2.724   2.841
 2122SOL    HW2 6383   3.259   2.632   2.916
 2123SOL     OW 6384   3.071   2.387   2.137
 2123SOL    HW1 6385   3.084   2.303   2.191
 2123SOL    HW2 6386   3.042   2.461   2.197
 2124SOL     OW 6387   2.169   2.075   3.093
 2124SOL    HW1 6388   2.146   2.112   3.183
 2124SOL    HW2 6389   2.139   1.980   3.087
 2125SOL     OW 6390   1.899   3.172   3.144
 2125SOL    HW1 6391   1.952   3.123   3.212
 2125SOL    HW2 6392   1.921   3.270   3.149
 2126SOL     OW 6393   2.594   2.496   2.926
 2126SOL    HW1 6394   2.653   2.470   2.850
 2126SOL    HW2 6395   2.566   2.592   2.915
 2127SOL     OW 6396   3.590   2.797   3.716
 2127SOL    HW1 6397   3.544   2.790   3.627
 2127SOL    HW2 6398   3.528   2.841   3.782
 2128SOL     OW 6399   2.169   1.925   2.480
 2128SOL    HW1 6400   2.158   2.019   2.513
 2128SOL    HW2 6401   2.164   1.862   2.557
 2129SOL     OW 6402   3.484   2.229   2.236
 2129SOL    HW1 6403   3.486   2.153   2.300
 2129SOL    HW2 6404   3.436   2.306   2.276
 2130SOL     OW 6405   2.885   2.628   2.828
 2130SOL    HW1 6406   2.900   2.649   2.924
 2130SOL    HW2 6407   2.855   2.533   2.819
 2131SOL     OW 6408   2.842   3.435   3.562
 2131SOL    HW1 6409   2.822   3.479   3.474
 2131SOL    HW2 6410   2.881   3.344   3.546
 2132SOL     OW 6411   3.721   3.380   3.467
 2132SOL    HW1 6412   3.735   3.407   3.372
 2132SOL    HW2 6413   3.804   3.402   3.520
 2133SOL     OW 6414   2.212   2.760   3.666
 2133SOL    HW1 6415   2.288   2.804   3.714
 2133SOL    HW2 6416   2.247   2.713   3.584
 2134SOL     OW 6417   3.402   2.136   1.987
 2134SOL    HW1 6418   3.341   2.061   2.010
 2134SOL    HW2 6419   3.424   2.188   2.070
 2135SOL     OW 6420   3.165   2.700   1.904
 2135SOL    HW1 6421   3.199   2.607   1.919
 2135SOL    HW2 6422   3.183   2.727   1.809
 2136SOL     OW 6423   2.930   3.195   2.711
 2136SOL    HW1 6424   2.937   3.111   2.656
 2136SOL    HW2 6425   2.992   3.264   2.675
 2137SOL     OW 6426   2.181   2.672   2.811
 2137SOL    HW1 6427   2.274   2.708   2.816
 2137SOL    HW2 6428   2.175   2.587   2.863
 2138SOL     OW 6429   2.201   2.371   2.868
 2138SOL    HW1 6430   2.149   2.288   2.851
 2138SOL    HW2 6431   2.278   2.376   2.804
 2139SOL     OW 6432   3.000   2.242   3.540
 2139SOL    HW1 6433   2.955   2.305   3.604
 2139SOL    HW2 6434   3.093   2.273   3.523
 2140SOL     OW 6435   3.022   2.069   3.339
 2140SOL    HW1 6436   3.022   2.133   3.416
 2140SOL    HW2 6437   3.050   2.117   3.256
 2141SOL     OW 6438   1.870   3.188   2.062
 2141SOL    HW1 6439   1.777   3.209   2.031
 2141SOL    HW2 6440   1.880   3.089   2.075
 2142SOL     OW 6441   1.950   3.663   2.789
 2142SOL    HW1 6442   1.908   3.577   2.762
 2142SOL    HW2 6443   2.044   3.666   2.755
 2143SOL     OW 6444   2.366   3.430   2.772
 2143SOL    HW1 6445   2.432   3.504   2.781
 2143SOL    HW2 6446   2.410   3.351   2.730
 2144SOL     OW 6447   2.864   2.658   3.100
 2144SOL    HW1 6448   2.905   2.626   3.186
 2144SOL    HW2 6449   2.768   2.631   3.097
 2145SOL     OW 6450   1.902   2.406   2.976
 2145SOL    HW1 6451   1.987   2.373   2.935
 2145SOL    HW2 6452   1.915   2.421   3.074
 2146SOL     OW 6453   2.051   2.382   3.584
 2146SOL    HW1 6454   2.110   2.342   3.514
 2146SOL    HW2 6455   1.993   2.453   3.543
 2147SOL     OW 6456   3.231   2.812   3.522
 2147SOL    HW1 6457   3.270   2.901   3.542
 2147SOL    HW2 6458   3.241   2.792   3.425
 2148SOL     OW 6459   2.677   2.434   2.187
 2148SOL    HW1 6460   2.684   2.345   2.141
 2148SOL    HW2 6461   2.583   2.468   2.179
 2149SOL     OW 6462   3.519   2.466   3.068
 2149SOL    HW1 6463   3.481   2.397   3.130
 2149SOL    HW2 6464   3.601   2.430   3.024
 2150SOL     OW 6465   2.114   3.426   3.606
 2150SOL    HW1 6466   2.084   3.483   3.682
 2150SOL    HW2 6467   2.107   3.329   3.632
 2151SOL     OW 6468   2.533   2.326   3.131
 2151SOL    HW1 6469   2.499   2.237   3.101
 2151SOL    HW2 6470   2.559   2.380   3.051
 2152SOL     OW 6471   2.792   3.540   3.327
 2152SOL    HW1 6472   2.768   3.522   3.232
 2152SOL    HW2 6473   2.822   3.634   3.337
 2153SOL     OW 6474   2.021   2.999   3.328
 2153SOL    HW1 6475   2.043   2.938   3.404
 2153SOL    HW2 6476   2.031   2.950   3.242
 2154SOL     OW 6477   3.209   2.921   3.096
 2154SOL    HW1 6478   3.233   2.858   3.022
 2154SOL    HW2 6479   3.119   2.961   3.078
 2155SOL     OW 6480   3.164   2.717   2.171
 2155SOL    HW1 6481   3.078   2.686   2.213
 2155SOL    HW2 6482   3.160   2.703   2.072
 2156SOL     OW 6483   3.621   3.609   3.016
 2156SOL    HW1 6484   3.682   3.639   2.943
 2156SOL    HW2 6485   3.583   3.520   2.994
 2157SOL     OW 6486   3.114   3.593   2.990
 2157SOL    HW1 6487   3.198   3.598   2.936
 2157SOL    HW2 6488   3.091   3.497   3.008
 2158SOL     OW 6489   1.945   3.120   2.884
 2158SOL    HW1 6490   1.940   3.119   2.984
 2158SOL    HW2 6491   1.862   3.079   2.846
 2159SOL     OW 6492   2.550   3.524   3.578
 2159SOL    HW1 6493   2.494   3.605   3.587
 2159SOL    HW2 6494   2.602   3.528   3.492
 2160SOL     OW 6495   3.588   1.997   2.385
 2160SOL    HW1 6496   3.661   1.980   2.318
 2160SOL    HW2 6497   3.557   1.910   2.423
 2161SOL     OW 6498   3.250   3.435   2.339
 2161SOL    HW1 6499   3.317   3.447   2.265
 2161SOL    HW2 6500   3.210   3.524   2.362
 2162SOL     OW 6501   1.992   3.656   3.713
 2162SOL    HW1 6502   1.951   3.582   3.766
 2162SOL    HW2 6503   2.056   3.707   3.771
 2163SOL     OW 6504   3.142   2.789   2.534
 2163SOL    HW1 6505   3.202   2.708   2.536
 2163SOL    HW2 6506   3.182   2.858   2.474
 2164SOL     OW 6507   2.692   3.135   3.284
 2164SOL    HW1 6508   2.687   3.168   3.379
 2164SOL    HW2 6509   2.606   3.154   3.238
 2165SOL     OW 6510   2.534   3.478   2.016
 2165SOL    HW1 6511   2.543   3.488   1.917
 2165SOL    HW2 6512   2.494   3.389   2.037
 2166SOL     OW 6513   3.512   3.582   3.256
 2166SOL    HW1 6514   3.565   3.592   3.172
 2166SOL    HW2 6515   3.485   3.672   3.290
 2167SOL     OW 6516   3.703   2.037   2.825
 2167SOL    HW1 6517   3.742   1.952   2.789
 2167SOL    HW2 6518   3.605   2.039   2.806
 2168SOL     OW 6519   3.056   3.474   1.893
 2168SOL    HW1 6520   3.062   3.381   1.930
 2168SOL    HW2 6521   2.997   3.474   1.813
 2169SOL     OW 6522   2.684   2.864   3.234
 2169SOL    HW1 6523   2.724   2.863   3.142
 2169SOL    HW2 6524   2.694   2.956   3.274
 2170SOL     OW 6525   2.778   2.772   2.153
 2170SOL    HW1 6526   2.841   2.810   2.085
 2170SOL    HW2 6527   2.818   2.689   2.192
 2171SOL     OW 6528   3.366   3.469   1.906
 2171SOL    HW1 6529   3.274   3.506   1.913
 2171SOL    HW2 6530   3.404   3.489   1.816
 2172SOL     OW 6531   2.234   3.150   3.352
 2172SOL    HW1 6532   2.221   3.243   3.318
 2172SOL    HW2 6533   2.150   3.098   3.339
 2173SOL     OW 6534   3.476   3.154   3.151
 2173SOL    HW1 6535   3.536   3.157   3.231
 2173SOL    HW2 6536   3.401   3.218   3.164
 2174SOL     OW 6537   2.901   2.960   2.558
 2174SOL    HW1 6538   2.831   2.913   2.612
 2174SOL    HW2 6539   2.960   2.892   2.515
 2175SOL     OW 6540   2.876   2.098   2.833
 2175SOL    HW1 6541   2.868   2.062   2.740
 2175SOL    HW2 6542   2.874   2.022   2.898
 2176SOL     OW 6543   2.452   3.349   2.353
 2176SOL    HW1 6544   2.494   3.291   2.283
 2176SOL    HW2 6545   2.408   3.428   2.309
 2177SOL     OW 6546   3.571   2.247   3.243
 2177SOL    HW1 6547   3.644   2.316   3.247
 2177SOL    HW2 6548   3.599   2.172   3.184
 2178SOL     OW 6549   2.117   3.210   2.152
 2178SOL    HW1 6550   2.021   3.211   2.125
 2178SOL    HW2 6551   2.129   3.263   2.236
 2179SOL     OW 6552   1.967   2.875   3.588
 2179SOL    HW1 6553   1.890   2.842   3.642
 2179SOL    HW2 6554   2.052   2.845   3.630
 2180SOL     OW 6555   2.534   2.065   3.351
 2180SOL    HW1 6556   2.624   2.049   3.311
 2180SOL    HW2 6557   2.542   2.070   3.450
 2181SOL     OW 6558   1.937   2.207   1.895
 2181SOL    HW1 6559   1.845   2.179   1.866
 2181SOL    HW2 6560   1.968   2.284   1.839
 2182SOL     OW 6561   3.302   2.718   3.260
 2182SOL    HW1 6562   3.245   2.770   3.197
 2182SOL    HW2 6563   3.398   2.730   3.236
 2183SOL     OW 6564   1.934   2.028   2.180
 2183SOL    HW1 6565   1.917   2.111   2.126
 2183SOL    HW2 6566   2.024   1.991   2.158
 2184SOL     OW 6567   3.045   3.197   1.981
 2184SOL    HW1 6568   2.946   3.186   1.983
 2184SOL    HW2 6569   3.079   3.212   2.074
 2185SOL     OW 6570   2.475   2.704   3.293
 2185SOL    HW1 6571   2.531   2.785   3.276
 2185SOL    HW2 6572   2.534   2.624   3.296
 2186SOL     OW 6573   3.355   3.629   2.821
 2186SOL    HW1 6574   3.388   3.693   2.752
 2186SOL    HW2 6575   3.421   3.623   2.896
 2187SOL     OW 6576   2.578   2.427   3.570
 2187SOL    HW1 6577   2.597   2.492   3.644
 2187SOL    HW2 6578   2.638   2.347   3.579
 2188SOL     OW 6579   3.312   3.082   3.495
 2188SOL    HW1 6580   3.303   3.072   3.594
 2188SOL    HW2 6581   3.408   3.075   3.469
 2189SOL     OW 6582   2.252   3.603   3.422
 2189SOL    HW1 6583   2.161   3.644   3.420
 2189SOL    HW2 6584   2.245   3.509   3.454
 2190SOL     OW 6585   3.536   2.745   3.116
 2190SOL    HW1 6586   3.509   2.656   3.079
 2190SOL    HW2 6587   3.537   2.813   3.043
 2191SOL     OW 6588   3.087   2.187   2.311
 2191SOL    HW1 6589   3.152   2.113   2.300
 2191SOL    HW2 6590   3.107   2.237   2.395
 2192SOL     OW 6591   2.456   2.607   2.514
 2192SOL    HW1 6592   2.506   2.692   2.495
 2192SOL    HW2 6593   2.368   2.609   2.466
 2193SOL     OW 6594   3.639   2.204   3.504
 2193SOL    HW1 6595   3.622   2.235   3.410
 2193SOL    HW2 6596   3.555   2.167   3.542
 2194SOL     OW 6597   3.592   2.796   3.379
 2194SOL    HW1 6598   3.630   2.887   3.394
 2194SOL    HW2 6599   3.584   2.779   3.280
 2195SOL     OW 6600   2.721   3.236   1.878
 2195SOL    HW1 6601   2.675   3.251   1.966
 2195SOL    HW2 6602   2.765   3.321   1.848
 2196SOL     OW 6603   2.523   3.652   2.815
 2196SOL    HW1 6604   2.477   3.740   2.802
 2196SOL    HW2 6605   2.622   3.664   2.808
 2197SOL     OW 6606   2.721   2.818   2.723
 2197SOL    HW1 6607   2.775   2.749   2.771
 2197SOL    HW2 6608   2.689   2.887   2.789
 2198SOL     OW 6609   2.945   2.846   1.949
 2198SOL    HW1 6610   2.922   2.899   1.867
 2198SOL    HW2 6611   3.026   2.790   1.930
 2199SOL     OW 6612   3.723   3.431   2.713
 2199SOL    HW1 6613   3.652   3.419   2.643
 2199SOL    HW2 6614   3.724   3.352   2.773
 2200SOL     OW 6615   2.083   3.176   3.706
 2200SOL    HW1 6616   2.018   3.103   3.685
 2200SOL    HW2 6617   2.087   3.190   3.804
 2201SOL     OW 6618   1.941   3.102   2.515
 2201SOL    HW1 6619   1.940   3.055   2.603
 2201SOL    HW2 6620   2.023   3.074   2.464
 2202SOL     OW 6621   2.534   3.253   3.486
 2202SOL    HW1 6622   2.456   3.203   3.524
 2202SOL    HW2 6623   2.531   3.348   3.517
 2203SOL     OW 6624   3.686   2.054   3.089
 2203SOL    HW1 6625   3.682   1.964   3.133
 2203SOL    HW2 6626   3.689   2.043   2.990
 2204SOL     OW 6627   3.567   3.349   2.966
 2204SOL    HW1 6628   3.474   3.324   2.939
 2204SOL    HW2 6629   3.593   3.299   3.048
 2205SOL     OW 6630   2.179   2.409   3.142
 2205SOL    HW1 6631   2.217   2.350   3.214
 2205SOL    HW2 6632   2.219   2.383   3.054
 2206SOL     OW 6633   2.674   3.448   2.549
 2206SOL    HW1 6634   2.706   3.458   2.455
 2206SOL    HW2 6635   2.595   3.386   2.551
 2207SOL     OW 6636   3.286   2.076   2.974
 2207SOL    HW1 6637   3.338   2.011   3.029
 2207SOL    HW2 6638   3.237   2.139   3.035
 2208SOL     OW 6639   2.863   1.896   3.016
 2208SOL    HW1 6640   2.800   1.824   2.985
 2208SOL    HW2 6641   2.956   1.860   3.016
 2209SOL     OW 6642   2.632   3.192   2.163
 2209SOL    HW1 6643   2.586   3.105   2.180
 2209SOL    HW2 6644   2.723   3.189   2.204
 2210SOL     OW 6645   2.480   3.429   3.146
 2210SOL    HW1 6646   2.475   3.511   3.203
 2210SOL    HW2 6647   2.569   3.426   3.101
 2211SOL     OW 6648   3.214   1.914   2.030
 2211SOL    HW1 6649   3.249   1.873   1.946
 2211SOL    HW2 6650   3.124   1.876   2.050
 2212SOL     OW 6651   3.162   2.315   2.553
 2212SOL    HW1 6652   3.103   2.395   2.557
 2212SOL    HW2 6653   3.177   2.280   2.646
 2213SOL     OW 6654   3.455   2.083   2.744
 2213SOL    HW1 6655   3.371   2.082   2.798
 2213SOL    HW2 6656   3.457   2.166   2.688
 2214SOL     OW 6657   1.901   2.939   2.162
 2214SOL    HW1 6658   2.000   2.928   2.153
 2214SOL    HW2 6659   1.861   2.853   2.194
 2215SOL     OW 6660   2.737   3.508   2.199
 2215SOL    HW1 6661   2.660   3.473   2.145
 2215SOL    HW2 6662   2.705   3.579   2.261
 2216SOL     OW 6663   2.092   2.490   3.837
 2216SOL    HW1 6664   1.999   2.488   3.874
 2216SOL    HW2 6665   2.093   2.451   3.745
 2217SOL     OW 6666   2.087   2.137   4.720
 2217SOL    HW1 6667   2.122   2.120   4.812
 2217SOL    HW2 6668   1.999   2.092   4.708
 2218SOL     OW 6669   1.881   2.230   4.371
 2218SOL    HW1 6670   1.799   2.273   4.410
 2218SOL    HW2 6671   1.853   2.157   4.308
 2219SOL     OW 6672   3.617   2.469   3.955
 2219SOL    HW1 6673   3.605   2.456   3.856
 2219SOL    HW2 6674   3.587   2.388   4.004
 2220SOL     OW 6675   2.547   2.874   4.389
 2220SOL    HW1 6676   2.616   2.858   4.459
 2220SOL    HW2 6677   2.474   2.931   4.427
 2221SOL     OW 6678   3.465   2.309   4.461
 2221SOL    HW1 6679   3.391   2.355   4.411
 2221SOL    HW2 6680   3.516   2.377   4.514
 2222SOL     OW 6681   2.093   3.575   4.207
 2222SOL    HW1 6682   2.127   3.652   4.261
 2222SOL    HW2 6683   2.137   3.575   4.117
 2223SOL     OW 6684   2.092   3.296   4.262
 2223SOL    HW1 6685   2.066   3.392   4.262
 2223SOL    HW2 6686   2.021   3.242   4.307
 2224SOL     OW 6687   2.102   2.953   4.610
 2224SOL    HW1 6688   2.116   2.869   4.662
 2224SOL    HW2 6689   2.047   3.017   4.665
 2225SOL     OW 6690   2.468   2.826   3.847
 2225SOL    HW1 6691   2.475   2.910   3.793
 2225SOL    HW2 6692   2.514   2.839   3.935
 2226SOL     OW 6693   1.984   2.505   4.287
 2226SOL    HW1 6694   1.939   2.417   4.304
 2226SOL    HW2 6695   1.983   2.559   4.371
 2227SOL     OW 6696   3.704   3.629   4.083
 2227SOL    HW1 6697   3.758   3.600   4.163
 2227SOL    HW2 6698   3.734   3.719   4.054
 2228SOL     OW 6699   1.889   3.458   3.841
 2228SOL    HW1 6700   1.870   3.362   3.862
 2228SOL    HW2 6701   1.856   3.516   3.916
 2229SOL     OW 6702   3.551   2.784   4.336
 2229SOL    HW1 6703   3.646   2.755   4.344
 2229SOL    HW2 6704   3.543   2.849   4.261
 2230SOL     OW 6705   3.503   2.970   4.156
 2230SOL    HW1 6706   3.589   2.972   4.104
 2230SOL    HW2 6707   3.517   3.017   4.244
 2231SOL     OW 6708   2.475   3.227   4.450
 2231SOL    HW1 6709   2.426   3.140   4.459
 2231SOL    HW2 6710   2.452   3.270   4.363
 2232SOL     OW 6711   2.671   1.866   4.226
 2232SOL    HW1 6712   2.711   1.957   4.217
 2232SOL    HW2 6713   2.571   1.874   4.232
 2233SOL     OW 6714   3.387   2.861   3.914
 2233SOL    HW1 6715   3.324   2.785   3.927
 2233SOL    HW2 6716   3.435   2.879   4.000
 2234SOL     OW 6717   3.529   3.576   4.296
 2234SOL    HW1 6718   3.488   3.553   4.208
 2234SOL    HW2 6719   3.511   3.502   4.361
 2235SOL     OW 6720   2.460   2.591   3.994
 2235SOL    HW1 6721   2.484   2.660   3.926
 2235SOL    HW2 6722   2.382   2.624   4.048
 2236SOL     OW 6723   3.143   2.207   4.668
 2236SOL    HW1 6724   3.057   2.157   4.655
 2236SOL    HW2 6725   3.205   2.153   4.724
 2237SOL     OW 6726   3.438   3.524   4.031
 2237SOL    HW1 6727   3.527   3.570   4.034
 2237SOL    HW2 6728   3.417   3.500   3.936
 2238SOL     OW 6729   2.903   2.563   4.153
 2238SOL    HW1 6730   2.929   2.559   4.249
 2238SOL    HW2 6731   2.818   2.512   4.139
 2239SOL     OW 6732   1.938   2.673   4.513
 2239SOL    HW1 6733   2.037   2.661   4.522
 2239SOL    HW2 6734   1.914   2.768   4.534
 2240SOL     OW 6735   2.727   2.210   3.919
 2240SOL    HW1 6736   2.786   2.273   3.870
 2240SOL    HW2 6737   2.746   2.116   3.890
 2241SOL     OW 6738   3.224   3.006   4.269
 2241SOL    HW1 6739   3.307   2.977   4.221
 2241SOL    HW2 6740   3.175   3.073   4.213
 2242SOL     OW 6741   2.870   3.318   4.201
 2242SOL    HW1 6742   2.824   3.390   4.149
 2242SOL    HW2 6743   2.866   3.338   4.299
 2243SOL     OW 6744   2.213   3.663   4.577
 2243SOL    HW1 6745   2.263   3.577   4.583
 2243SOL    HW2 6746   2.278   3.740   4.574
 2244SOL     OW 6747   3.657   2.928   4.597
 2244SOL    HW1 6748   3.595   2.913   4.521
 2244SOL    HW2 6749   3.605   2.939   4.682
 2245SOL     OW 6750   2.183   2.805   3.966
 2245SOL    HW1 6751   2.265   2.844   3.924
 2245SOL    HW2 6752   2.156   2.723   3.917
 2246SOL     OW 6753   3.320   2.597   4.452
 2246SOL    HW1 6754   3.315   2.532   4.527
 2246SOL    HW2 6755   3.400   2.656   4.465
 2247SOL     OW 6756   2.973   3.638   3.961
 2247SOL    HW1 6757   2.913   3.576   4.011
 2247SOL    HW2 6758   3.004   3.594   3.876
 2248SOL     OW 6759   3.494   3.239   3.805
 2248SOL    HW1 6760   3.462   3.333   3.795
 2248SOL    HW2 6761   3.418   3.176   3.793
 2249SOL     OW 6762   2.326   3.605   4.047
 2249SOL    HW1 6763   2.359   3.644   4.133
 2249SOL    HW2 6764   2.402   3.598   3.982
 2250SOL     OW 6765   3.262   1.969   4.150
 2250SOL    HW1 6766   3.238   1.932   4.060
 2250SOL    HW2 6767   3.361   1.985   4.154
 2251SOL     OW 6768   2.802   3.560   4.628
 2251SOL    HW1 6769   2.882   3.503   4.649
 2251SOL    HW2 6770   2.753   3.520   4.551
 2252SOL     OW 6771   2.244   2.562   4.204
 2252SOL    HW1 6772   2.289   2.472   4.201
 2252SOL    HW2 6773   2.150   2.551   4.237
 2253SOL     OW 6774   2.476   1.984   3.841
 2253SOL    HW1 6775   2.574   1.962   3.848
 2253SOL    HW2 6776   2.445   1.967   3.748
 2254SOL     OW 6777   2.401   1.926   4.236
 2254SOL    HW1 6778   2.320   1.927   4.294
 2254SOL    HW2 6779   2.404   2.009   4.181
 2255SOL     OW 6780   3.296   3.050   3.765
 2255SOL    HW1 6781   3.328   2.974   3.822
 2255SOL    HW2 6782   3.204   3.077   3.795
 2256SOL     OW 6783   2.159   1.897   3.895
 2256SOL    HW1 6784   2.208   1.981   3.874
 2256SOL    HW2 6785   2.221   1.832   3.940
 2257SOL     OW 6786   2.797   2.098   4.204
 2257SOL    HW1 6787   2.749   2.139   4.126
 2257SOL    HW2 6788   2.896   2.096   4.185
 2258SOL     OW 6789   2.321   3.014   4.465
 2258SOL    HW1 6790   2.250   2.987   4.530
 2258SOL    HW2 6791   2.295   2.986   4.372
 2259SOL     OW 6792   3.133   3.659   4.315
 2259SOL    HW1 6793   3.177   3.723   4.251
 2259SOL    HW2 6794   3.083   3.711   4.385
 2260SOL     OW 6795   2.894   2.411   3.740
 2260SOL    HW1 6796   2.853   2.493   3.701
 2260SOL    HW2 6797   2.958   2.437   3.813
 2261SOL     OW 6798   2.728   2.316   4.366
 2261SOL    HW1 6799   2.696   2.388   4.304
 2261SOL    HW2 6800   2.752   2.235   4.313
 2262SOL     OW 6801   3.719   2.695   4.101
 2262SOL    HW1 6802   3.761   2.631   4.165
 2262SOL    HW2 6803   3.681   2.644   4.023
 2263SOL     OW 6804   2.350   3.247   3.898
 2263SOL    HW1 6805   2.263   3.232   3.945
 2263SOL    HW2 6806   2.333   3.273   3.803
 2264SOL     OW 6807   3.526   3.142   4.381
 2264SOL    HW1 6808   3.625   3.150   4.395
 2264SOL    HW2 6809   3.481   3.226   4.412
 2265SOL     OW 6810   3.252   2.437   3.802
 2265SOL    HW1 6811   3.198   2.416   3.883
 2265SOL    HW2 6812   3.343   2.396   3.811
 2266SOL     OW 6813   2.389   2.118   4.052
 2266SOL    HW1 6814   2.416   2.059   3.977
 2266SOL    HW2 6815   2.389   2.213   4.021
 2267SOL     OW 6816   2.567   2.912   4.092
 2267SOL    HW1 6817   2.553   2.919   4.191
 2267SOL    HW2 6818   2.651   2.861   4.074
 2268SOL     OW 6819   2.229   2.962   4.225
 2268SOL    HW1 6820   2.222   3.045   4.169
 2268SOL    HW2 6821   2.233   2.882   4.165
 2269SOL     OW 6822   3.114   3.210   4.112
 2269SOL    HW1 6823   3.164   3.287   4.152
 2269SOL    HW2 6824   3.019   3.212   4.144
 2270SOL     OW 6825   3.444   2.501   4.196
 2270SOL    HW1 6826   3.413   2.562   4.269
 2270SOL    HW2 6827   3.494   2.553   4.127
 2271SOL     OW 6828   3.071   2.387   3.999
 2271SOL    HW1 6829   3.084   2.303   4.053
 2271SOL    HW2 6830   3.042   2.461   4.059
 2272SOL     OW 6831   2.169   1.925   4.342
 2272SOL    HW1 6832   2.158   2.019   4.375
 2272SOL    HW2 6833   2.164   1.862   4.419
 2273SOL     OW 6834   3.484   2.229   4.098
 2273SOL    HW1 6835   3.486   2.153   4.162
 2273SOL    HW2 6836   3.436   2.306   4.138
 2274SOL     OW 6837   2.885   2.628   4.690
 2274SOL    HW1 6838   2.900   2.649   4.786
 2274SOL    HW2 6839   2.855   2.533   4.681
 2275SOL     OW 6840   3.402   2.136   3.849
 2275SOL    HW1 6841   3.341   2.061   3.872
 2275SOL    HW2 6842   3.424   2.188   3.932
 2276SOL     OW 6843   3.165   2.700   3.766
 2276SOL    HW1 6844   3.199   2.607   3.781
 2276SOL    HW2 6845   3.183   2.727   3.671
 2277SOL     OW 6846   1.870   3.188   3.924
 2277SOL    HW1 6847   1.777   3.209   3.893
 2277SOL    HW2 6848   1.880   3.089   3.937
 2278SOL     OW 6849   2.677   2.434   4.049
 2278SOL    HW1 6850   2.684   2.345   4.003
 2278SOL    HW2 6851   2.583   2.468   4.041
 2279SOL     OW 6852   2.335   2.362   3.915
 2279SOL    HW1 6853   2.396   2.442   3.919
 2279SOL    HW2 6854   2.240   2.393   3.922
 2280SOL     OW 6855   3.164   2.717   4.033
 2280SOL    HW1 6856   3.078   2.686   4.075
 2280SOL    HW2 6857   3.160   2.703   3.934
 2281SOL     OW 6858   3.588   1.997   4.247
 2281SOL    HW1 6859   3.661   1.980   4.180
 2281SOL    HW2 6860   3.557   1.910   4.285
 2282SOL     OW 6861   3.250   3.435   4.201
 2282SOL    HW1 6862   3.317   3.447   4.127
 2282SOL    HW2 6863   3.210   3.524   4.224
 2283SOL     OW 6864   2.534   3.478   3.878
 2283SOL    HW1 6865   2.543   3.488   3.779
 2283SOL    HW2 6866   2.494   3.389   3.899
 2284SOL     OW 6867   3.703   2.037   4.687
 2284SOL    HW1 6868   3.742   1.952   4.651
 2284SOL    HW2 6869   3.605   2.039   4.668
 2285SOL     OW 6870   2.125   2.188   4.444
 2285SOL    HW1 6871   2.046   2.239   4.410
 2285SOL    HW2 6872   2.116   2.173   4.542
 2286SOL     OW 6873   3.056   3.474   3.755
 2286SOL    HW1 6874   3.062   3.381   3.792
 2286SOL    HW2 6875   2.997   3.474   3.675
 2287SOL     OW 6876   2.778   2.772   4.015
 2287SOL    HW1 6877   2.841   2.810   3.947
 2287SOL    HW2 6878   2.818   2.689   4.054
 2288SOL     OW 6879   3.366   3.469   3.768
 2288SOL    HW1 6880   3.274   3.506   3.775
 2288SOL    HW2 6881   3.404   3.489   3.678
 2289SOL     OW 6882   2.452   3.349   4.215
 2289SOL    HW1 6883   2.494   3.291   4.145
 2289SOL    HW2 6884   2.408   3.428   4.171
 2290SOL     OW 6885   2.117   3.210   4.014
 2290SOL    HW1 6886   2.021   3.211   3.987
 2290SOL    HW2 6887   2.129   3.263   4.098
 2291SOL     OW 6888   1.937   2.207   3.757
 2291SOL    HW1 6889   1.845   2.179   3.728
 2291SOL    HW2 6890   1.968   2.284   3.701
 2292SOL     OW 6891   1.934   2.028   4.042
 2292SOL    HW1 6892   1.917   2.111   3.988
 2292SOL    HW2 6893   2.024   1.991   4.020
 2293SOL     OW 6894   3.045   3.197   3.843
 2293SOL    HW1 6895   2.946   3.186   3.845
 2293SOL    HW2 6896   3.079   3.212   3.936
 2294SOL     OW 6897   3.087   2.187   4.173
 2294SOL    HW1 6898   3.152   2.113   4.162
 2294SOL    HW2 6899   3.107   2.237   4.257
 2295SOL     OW 6900   2.456   2.607   4.376
 2295SOL    HW1 6901   2.506   2.692   4.357
 2295SOL    HW2 6902   2.368   2.609   4.328
 2296SOL     OW 6903   2.721   3.236   3.740
 2296SOL    HW1 6904   2.675   3.251   3.828
 2296SOL    HW2 6905   2.765   3.321   3.710
 2297SOL     OW 6906   2.523   3.652   4.677
 2297SOL    HW1 6907   2.477   3.740   4.664
 2297SOL    HW2 6908   2.622   3.664   4.670
 2298SOL     OW 6909   2.721   2.818   4.585
 2298SOL    HW1 6910   2.775   2.749   4.633
 2298SOL    HW2 6911   2.689   2.887   4.651
 2299SOL     OW 6912   2.945   2.846   3.811
 2299SOL    HW1 6913   2.922   2.899   3.729
 2299SOL    HW2 6914   3.026   2.790   3.792
 2300SOL     OW 6915   1.941   3.102   4.377
 2300SOL    HW1 6916   1.940   3.055   4.465
 2300SOL    HW2 6917   2.023   3.074   4.326
 2301SOL     OW 6918   2.290   2.286   4.244
 2301SOL    HW1 6919   2.320   2.214   4.182
 2301SOL    HW2 6920   2.251   2.246   4.327
 2302SOL     OW 6921   3.567   3.349   4.828
 2302SOL    HW1 6922   3.474   3.324   4.801
 2302SOL    HW2 6923   3.593   3.299   4.910
 2303SOL     OW 6924   2.674   3.448   4.411
 2303SOL    HW1 6925   2.706   3.458   4.317
 2303SOL    HW2 6926   2.595   3.386   4.413
 2304SOL     OW 6927   2.632   3.192   4.025
 2304SOL    HW1 6928   2.586   3.105   4.042
 2304SOL    HW2 6929   2.723   3.189   4.066
 2305SOL     OW 6930   3.214   1.914   3.892
 2305SOL    HW1 6931   3.249   1.873   3.808
 2305SOL    HW2 6932   3.124   1.876   3.912
 2306SOL     OW 6933   3.162   2.315   4.415
 2306SOL    HW1 6934   3.103   2.395   4.419
 2306SOL    HW2 6935   3.177   2.280   4.508
 2307SOL     OW 6936   1.901   2.939   4.024
 2307SOL    HW1 6937   2.000   2.928   4.015
 2307SOL    HW2 6938   1.861   2.853   4.056
 2308SOL     OW 6939   2.737   3.508   4.061
 2308SOL    HW1 6940   2.660   3.473   4.007
 2308SOL    HW2 6941   2.705   3.579   4.123
 2309SOL     OW 6942   2.092   4.352   0.113
 2309SOL    HW1 6943   1.999   4.350   0.150
 2309SOL    HW2 6944   2.093   4.313   0.021
 2310SOL     OW 6945   2.087   3.999   0.996
 2310SOL    HW1 6946   2.122   3.982   1.088
 2310SOL    HW2 6947   1.999   3.954   0.984
 2311SOL     OW 6948   1.881   4.092   0.647
 2311SOL    HW1 6949   1.799   4.135   0.686
 2311SOL    HW2 6950   1.853   4.019   0.584
 2312SOL     OW 6951   3.617   4.331   0.231
 2312SOL    HW1 6952   3.605   4.318   0.132
 2312SOL    HW2 6953   3.587   4.250   0.280
 2313SOL     OW 6954   2.712   4.522   1.823
 2313SOL    HW1 6955   2.708   4.598   1.888
 2313SOL    HW2 6956   2.734   4.558   1.732
 2314SOL     OW 6957   2.547   4.736   0.665
 2314SOL    HW1 6958   2.616   4.720   0.735
 2314SOL    HW2 6959   2.474   4.793   0.703
 2315SOL     OW 6960   2.300   4.116   1.499
 2315SOL    HW1 6961   2.382   4.060   1.508
 2315SOL    HW2 6962   2.219   4.058   1.503
 2316SOL     OW 6963   3.465   4.171   0.737
 2316SOL    HW1 6964   3.391   4.217   0.687
 2316SOL    HW2 6965   3.516   4.239   0.790
 2317SOL     OW 6966   3.456   3.838   1.480
 2317SOL    HW1 6967   3.438   3.905   1.408
 2317SOL    HW2 6968   3.453   3.884   1.569
 2318SOL     OW 6969   1.984   4.367   0.563
 2318SOL    HW1 6970   1.939   4.279   0.580
 2318SOL    HW2 6971   1.983   4.421   0.647
 2319SOL     OW 6972   1.975   4.461   1.597
 2319SOL    HW1 6973   2.063   4.448   1.642
 2319SOL    HW2 6974   1.962   4.558   1.575
 2320SOL     OW 6975   2.671   3.728   0.502
 2320SOL    HW1 6976   2.711   3.819   0.493
 2320SOL    HW2 6977   2.571   3.736   0.508
 2321SOL     OW 6978   2.179   3.975   1.801
 2321SOL    HW1 6979   2.250   4.046   1.807
 2321SOL    HW2 6980   2.091   4.014   1.829
 2322SOL     OW 6981   2.460   4.453   0.270
 2322SOL    HW1 6982   2.484   4.522   0.202
 2322SOL    HW2 6983   2.382   4.486   0.324
 2323SOL     OW 6984   3.143   4.069   0.944
 2323SOL    HW1 6985   3.057   4.019   0.931
 2323SOL    HW2 6986   3.205   4.015   1.000
 2324SOL     OW 6987   2.669   4.329   1.465
 2324SOL    HW1 6988   2.622   4.326   1.554
 2324SOL    HW2 6989   2.618   4.274   1.399
 2325SOL     OW 6990   3.256   4.193   1.674
 2325SOL    HW1 6991   3.236   4.236   1.762
 2325SOL    HW2 6992   3.334   4.131   1.683
 2326SOL     OW 6993   2.853   4.134   1.242
 2326SOL    HW1 6994   2.776   4.168   1.296
 2326SOL    HW2 6995   2.819   4.083   1.163
 2327SOL     OW 6996   2.903   4.425   0.429
 2327SOL    HW1 6997   2.929   4.421   0.525
 2327SOL    HW2 6998   2.818   4.374   0.415
 2328SOL     OW 6999   2.727   4.072   0.195
 2328SOL    HW1 7000   2.786   4.135   0.146
 2328SOL    HW2 7001   2.746   3.978   0.166
 2329SOL     OW 7002   3.581   4.309   1.831
 2329SOL    HW1 7003   3.555   4.398   1.795
 2329SOL    HW2 7004   3.579   4.241   1.758
 2330SOL     OW 7005   2.412   3.920   0.885
 2330SOL    HW1 7006   2.407   3.915   0.985
 2330SOL    HW2 7007   2.414   4.016   0.856
 2331SOL     OW 7008   3.320   4.459   0.728
 2331SOL    HW1 7009   3.315   4.394   0.803
 2331SOL    HW2 7010   3.400   4.518   0.741
 2332SOL     OW 7011   2.064   4.009   1.498
 2332SOL    HW1 7012   1.984   4.069   1.485
 2332SOL    HW2 7013   2.054   3.960   1.584
 2333SOL     OW 7014   3.262   3.831   0.426
 2333SOL    HW1 7015   3.238   3.794   0.336
 2333SOL    HW2 7016   3.361   3.847   0.430
 2334SOL     OW 7017   2.244   4.424   0.480
 2334SOL    HW1 7018   2.289   4.334   0.477
 2334SOL    HW2 7019   2.150   4.413   0.513
 2335SOL     OW 7020   3.409   3.946   1.729
 2335SOL    HW1 7021   3.404   3.983   1.821
 2335SOL    HW2 7022   3.337   3.877   1.717
 2336SOL     OW 7023   2.643   3.988   1.749
 2336SOL    HW1 7024   2.710   3.927   1.792
 2336SOL    HW2 7025   2.570   4.007   1.814
 2337SOL     OW 7026   3.213   4.314   1.433
 2337SOL    HW1 7027   3.241   4.271   1.518
 2337SOL    HW2 7028   3.238   4.410   1.434
 2338SOL     OW 7029   2.784   4.227   0.899
 2338SOL    HW1 7030   2.759   4.218   0.803
 2338SOL    HW2 7031   2.832   4.145   0.930
 2339SOL     OW 7032   2.401   3.788   0.512
 2339SOL    HW1 7033   2.320   3.789   0.570
 2339SOL    HW2 7034   2.404   3.871   0.457
 2340SOL     OW 7035   2.159   3.759   0.171
 2340SOL    HW1 7036   2.208   3.843   0.150
 2340SOL    HW2 7037   2.221   3.694   0.216
 2341SOL     OW 7038   2.797   3.960   0.480
 2341SOL    HW1 7039   2.749   4.001   0.402
 2341SOL    HW2 7040   2.896   3.958   0.461
 2342SOL     OW 7041   2.938   4.407   1.464
 2342SOL    HW1 7042   2.858   4.346   1.467
 2342SOL    HW2 7043   3.019   4.354   1.440
 2343SOL     OW 7044   2.894   4.273   0.016
 2343SOL    HW1 7045   2.853   4.355  -0.023
 2343SOL    HW2 7046   2.958   4.299   0.089
 2344SOL     OW 7047   1.940   4.280   1.386
 2344SOL    HW1 7048   2.032   4.279   1.345
 2344SOL    HW2 7049   1.934   4.354   1.453
 2345SOL     OW 7050   2.423   3.946   1.147
 2345SOL    HW1 7051   2.461   3.862   1.184
 2345SOL    HW2 7052   2.335   3.965   1.191
 2346SOL     OW 7053   2.728   4.178   0.642
 2346SOL    HW1 7054   2.696   4.250   0.580
 2346SOL    HW2 7055   2.752   4.097   0.589
 2347SOL     OW 7056   2.879   3.763   0.753
 2347SOL    HW1 7057   2.807   3.768   0.684
 2347SOL    HW2 7058   2.855   3.694   0.822
 2348SOL     OW 7059   3.328   4.314   0.992
 2348SOL    HW1 7060   3.298   4.219   0.999
 2348SOL    HW2 7061   3.401   4.330   1.058
 2349SOL     OW 7062   3.719   4.557   0.377
 2349SOL    HW1 7063   3.761   4.493   0.441
 2349SOL    HW2 7064   3.681   4.506   0.299
 2350SOL     OW 7065   3.252   4.299   0.078
 2350SOL    HW1 7066   3.198   4.278   0.159
 2350SOL    HW2 7067   3.343   4.258   0.087
 2351SOL     OW 7068   2.389   3.980   0.328
 2351SOL    HW1 7069   2.416   3.921   0.253
 2351SOL    HW2 7070   2.389   4.075   0.297
 2352SOL     OW 7071   2.777   3.813   1.402
 2352SOL    HW1 7072   2.802   3.793   1.307
 2352SOL    HW2 7073   2.849   3.869   1.444
 2353SOL     OW 7074   2.567   4.774   0.368
 2353SOL    HW1 7075   2.553   4.781   0.467
 2353SOL    HW2 7076   2.651   4.723   0.350
 2354SOL     OW 7077   2.272   4.537   1.251
 2354SOL    HW1 7078   2.358   4.549   1.301
 2354SOL    HW2 7079   2.230   4.450   1.278
 2355SOL     OW 7080   3.136   4.110   1.262
 2355SOL    HW1 7081   3.157   4.184   1.326
 2355SOL    HW2 7082   3.047   4.127   1.219
 2356SOL     OW 7083   2.428   4.261   0.865
 2356SOL    HW1 7084   2.440   4.327   0.791
 2356SOL    HW2 7085   2.474   4.295   0.948
 2357SOL     OW 7086   3.444   4.363   0.472
 2357SOL    HW1 7087   3.413   4.424   0.545
 2357SOL    HW2 7088   3.494   4.415   0.403
 2358SOL     OW 7089   3.449   4.503   1.670
 2358SOL    HW1 7090   3.357   4.541   1.665
 2358SOL    HW2 7091   3.509   4.550   1.605
 2359SOL     OW 7092   2.875   3.829   1.770
 2359SOL    HW1 7093   2.881   3.914   1.718
 2359SOL    HW2 7094   2.907   3.753   1.713
 2360SOL     OW 7095   2.366   3.774   1.740
 2360SOL    HW1 7096   2.324   3.717   1.670
 2360SOL    HW2 7097   2.300   3.843   1.772
 2361SOL     OW 7098   3.222   4.586   1.045
 2361SOL    HW1 7099   3.147   4.586   0.979
 2361SOL    HW2 7100   3.259   4.494   1.054
 2362SOL     OW 7101   3.071   4.249   0.275
 2362SOL    HW1 7102   3.084   4.165   0.329
 2362SOL    HW2 7103   3.042   4.323   0.335
 2363SOL     OW 7104   2.169   3.937   1.231
 2363SOL    HW1 7105   2.146   3.974   1.321
 2363SOL    HW2 7106   2.139   3.842   1.225
 2364SOL     OW 7107   2.594   4.358   1.064
 2364SOL    HW1 7108   2.653   4.332   0.988
 2364SOL    HW2 7109   2.566   4.454   1.053
 2365SOL     OW 7110   3.590   4.659   1.854
 2365SOL    HW1 7111   3.544   4.652   1.765
 2365SOL    HW2 7112   3.528   4.703   1.920
 2366SOL     OW 7113   2.169   3.787   0.618
 2366SOL    HW1 7114   2.158   3.881   0.651
 2366SOL    HW2 7115   2.164   3.724   0.695
 2367SOL     OW 7116   3.484   4.091   0.374
 2367SOL    HW1 7117   3.486   4.015   0.438
 2367SOL    HW2 7118   3.436   4.168   0.414
 2368SOL     OW 7119   3.402   3.998   0.125
 2368SOL    HW1 7120   3.341   3.923   0.148
 2368SOL    HW2 7121   3.424   4.050   0.208
 2369SOL     OW 7122   2.181   4.534   0.949
 2369SOL    HW1 7123   2.274   4.570   0.954
 2369SOL    HW2 7124   2.175   4.449   1.001
 2370SOL     OW 7125   2.201   4.233   1.006
 2370SOL    HW1 7126   2.149   4.150   0.989
 2370SOL    HW2 7127   2.278   4.238   0.942
 2371SOL     OW 7128   3.000   4.104   1.678
 2371SOL    HW1 7129   2.955   4.167   1.742
 2371SOL    HW2 7130   3.093   4.135   1.661
 2372SOL     OW 7131   3.022   3.931   1.477
 2372SOL    HW1 7132   3.022   3.995   1.554
 2372SOL    HW2 7133   3.050   3.979   1.394
 2373SOL     OW 7134   1.902   4.268   1.114
 2373SOL    HW1 7135   1.987   4.235   1.073
 2373SOL    HW2 7136   1.915   4.283   1.212
 2374SOL     OW 7137   2.051   4.244   1.722
 2374SOL    HW1 7138   2.110   4.204   1.652
 2374SOL    HW2 7139   1.993   4.315   1.681
 2375SOL     OW 7140   2.677   4.296   0.325
 2375SOL    HW1 7141   2.684   4.207   0.279
 2375SOL    HW2 7142   2.583   4.330   0.317
 2376SOL     OW 7143   3.519   4.328   1.206
 2376SOL    HW1 7144   3.481   4.259   1.268
 2376SOL    HW2 7145   3.601   4.292   1.162
 2377SOL     OW 7146   2.533   4.188   1.269
 2377SOL    HW1 7147   2.499   4.099   1.239
 2377SOL    HW2 7148   2.559   4.242   1.189
 2378SOL     OW 7149   2.335   4.224   0.191
 2378SOL    HW1 7150   2.396   4.304   0.195
 2378SOL    HW2 7151   2.240   4.255   0.198
 2379SOL     OW 7152   2.765   3.810   0.133
 2379SOL    HW1 7153   2.816   3.811   0.047
 2379SOL    HW2 7154   2.821   3.768   0.204
 2380SOL     OW 7155   3.588   3.859   0.523
 2380SOL    HW1 7156   3.661   3.842   0.456
 2380SOL    HW2 7157   3.557   3.772   0.561
 2381SOL     OW 7158   3.142   4.651   0.672
 2381SOL    HW1 7159   3.202   4.570   0.674
 2381SOL    HW2 7160   3.182   4.720   0.612
 2382SOL     OW 7161   3.703   3.899   0.963
 2382SOL    HW1 7162   3.742   3.814   0.927
 2382SOL    HW2 7163   3.605   3.901   0.944
 2383SOL     OW 7164   2.125   4.050   0.720
 2383SOL    HW1 7165   2.046   4.101   0.686
 2383SOL    HW2 7166   2.116   4.035   0.818
 2384SOL     OW 7167   2.876   3.960   0.971
 2384SOL    HW1 7168   2.868   3.924   0.878
 2384SOL    HW2 7169   2.874   3.884   1.036
 2385SOL     OW 7170   3.571   4.109   1.381
 2385SOL    HW1 7171   3.644   4.178   1.385
 2385SOL    HW2 7172   3.599   4.034   1.322
 2386SOL     OW 7173   1.967   4.737   1.726
 2386SOL    HW1 7174   1.890   4.704   1.780
 2386SOL    HW2 7175   2.052   4.707   1.768
 2387SOL     OW 7176   2.534   3.927   1.489
 2387SOL    HW1 7177   2.624   3.911   1.449
 2387SOL    HW2 7178   2.542   3.932   1.588
 2388SOL     OW 7179   1.937   4.069   0.033
 2388SOL    HW1 7180   1.845   4.041   0.004
 2388SOL    HW2 7181   1.968   4.146  -0.023
 2389SOL     OW 7182   1.934   3.890   0.318
 2389SOL    HW1 7183   1.917   3.973   0.264
 2389SOL    HW2 7184   2.024   3.853   0.296
 2390SOL     OW 7185   2.578   4.289   1.708
 2390SOL    HW1 7186   2.597   4.354   1.782
 2390SOL    HW2 7187   2.638   4.209   1.717
 2391SOL     OW 7188   3.536   4.607   1.254
 2391SOL    HW1 7189   3.509   4.518   1.217
 2391SOL    HW2 7190   3.537   4.675   1.181
 2392SOL     OW 7191   3.087   4.049   0.449
 2392SOL    HW1 7192   3.152   3.975   0.438
 2392SOL    HW2 7193   3.107   4.099   0.533
 2393SOL     OW 7194   2.456   4.469   0.652
 2393SOL    HW1 7195   2.506   4.554   0.633
 2393SOL    HW2 7196   2.368   4.471   0.604
 2394SOL     OW 7197   3.639   4.066   1.642
 2394SOL    HW1 7198   3.622   4.097   1.548
 2394SOL    HW2 7199   3.555   4.029   1.680
 2395SOL     OW 7200   2.721   4.680   0.861
 2395SOL    HW1 7201   2.775   4.611   0.909
 2395SOL    HW2 7202   2.689   4.749   0.927
 2396SOL     OW 7203   3.686   3.916   1.227
 2396SOL    HW1 7204   3.682   3.826   1.271
 2396SOL    HW2 7205   3.689   3.905   1.128
 2397SOL     OW 7206   2.290   4.148   0.520
 2397SOL    HW1 7207   2.320   4.076   0.458
 2397SOL    HW2 7208   2.251   4.108   0.603
 2398SOL     OW 7209   2.179   4.271   1.280
 2398SOL    HW1 7210   2.217   4.212   1.352
 2398SOL    HW2 7211   2.219   4.245   1.192
 2399SOL     OW 7212   3.286   3.938   1.112
 2399SOL    HW1 7213   3.338   3.873   1.167
 2399SOL    HW2 7214   3.237   4.001   1.173
 2400SOL     OW 7215   2.863   3.758   1.154
 2400SOL    HW1 7216   2.800   3.686   1.123
 2400SOL    HW2 7217   2.956   3.722   1.154
 2401SOL     OW 7218   3.214   3.776   0.168
 2401SOL    HW1 7219   3.249   3.735   0.084
 2401SOL    HW2 7220   3.124   3.738   0.188
 2402SOL     OW 7221   3.162   4.177   0.691
 2402SOL    HW1 7222   3.103   4.257   0.695
 2402SOL    HW2 7223   3.177   4.142   0.784
 2403SOL     OW 7224   3.455   3.945   0.882
 2403SOL    HW1 7225   3.371   3.944   0.936
 2403SOL    HW2 7226   3.457   4.028   0.826
 2404SOL     OW 7227   2.092   4.352   1.975
 2404SOL    HW1 7228   1.999   4.350   2.012
 2404SOL    HW2 7229   2.093   4.313   1.883
 2405SOL     OW 7230   2.087   3.999   2.858
 2405SOL    HW1 7231   2.122   3.982   2.950
 2405SOL    HW2 7232   1.999   3.954   2.846
 2406SOL     OW 7233   1.881   4.092   2.509
 2406SOL    HW1 7234   1.799   4.135   2.548
 2406SOL    HW2 7235   1.853   4.019   2.446
 2407SOL     OW 7236   3.617   4.331   2.093
 2407SOL    HW1 7237   3.605   4.318   1.994
 2407SOL    HW2 7238   3.587   4.250   2.142
 2408SOL     OW 7239   2.712   4.522   3.685
 2408SOL    HW1 7240   2.708   4.598   3.750
 2408SOL    HW2 7241   2.734   4.558   3.594
 2409SOL     OW 7242   2.547   4.736   2.527
 2409SOL    HW1 7243   2.616   4.720   2.597
 2409SOL    HW2 7244   2.474   4.793   2.565
 2410SOL     OW 7245   2.300   4.116   3.361
 2410SOL    HW1 7246   2.382   4.060   3.370
 2410SOL    HW2 7247   2.219   4.058   3.365
 2411SOL     OW 7248   3.465   4.171   2.599
 2411SOL    HW1 7249   3.391   4.217   2.549
 2411SOL    HW2 7250   3.516   4.239   2.652
 2412SOL     OW 7251   3.456   3.838   3.342
 2412SOL    HW1 7252   3.438   3.905   3.270
 2412SOL    HW2 7253   3.453   3.884   3.431
 2413SOL     OW 7254   1.984   4.367   2.425
 2413SOL    HW1 7255   1.939   4.279   2.442
 2413SOL    HW2 7256   1.983   4.421   2.509
 2414SOL     OW 7257   1.975   4.461   3.459
 2414SOL    HW1 7258   2.063   4.448   3.504
 2414SOL    HW2 7259   1.962   4.558   3.437
 2415SOL     OW 7260   2.671   3.728   2.364
 2415SOL    HW1 7261   2.711   3.819   2.355
 2415SOL    HW2 7262   2.571   3.736   2.370
 2416SOL     OW 7263   2.179   3.975   3.663
 2416SOL    HW1 7264   2.250   4.046   3.669
 2416SOL    HW2 7265   2.091   4.014   3.691
 2417SOL     OW 7266   2.460   4.453   2.132
 2417SOL    HW1 7267   2.484   4.522   2.064
 2417SOL    HW2 7268   2.382   4.486   2.186
 2418SOL     OW 7269   3.143   4.069   2.806
 2418SOL    HW1 7270   3.057   4.019   2.793
 2418SOL    HW2 7271   3.205   4.015   2.862
 2419SOL     OW 7272   2.669   4.329   3.327
 2419SOL    HW1 7273   2.622   4.326   3.416
 2419SOL    HW2 7274   2.618   4.274   3.261
 2420SOL     OW 7275   3.256   4.193   3.536
 2420SOL    HW1 7276   3.236   4.236   3.624
 2420SOL    HW2 7277   3.334   4.131   3.545
 2421SOL     OW 7278   2.853   4.134   3.104
 2421SOL    HW1 7279   2.776   4.168   3.158
 2421SOL    HW2 7280   2.819   4.083   3.025
 2422SOL     OW 7281   2.903   4.425   2.291
 2422SOL    HW1 7282   2.929   4.421   2.387
 2422SOL    HW2 7283   2.818   4.374   2.277
 2423SOL     OW 7284   2.727   4.072   2.057
 2423SOL    HW1 7285   2.786   4.135   2.008
 2423SOL    HW2 7286   2.746   3.978   2.028
 2424SOL     OW 7287   3.581   4.309   3.693
 2424SOL    HW1 7288   3.555   4.398   3.657
 2424SOL    HW2 7289   3.579   4.241   3.620
 2425SOL     OW 7290   2.412   3.920   2.747
 2425SOL    HW1 7291   2.407   3.915   2.847
 2425SOL    HW2 7292   2.414   4.016   2.718
 2426SOL     OW 7293   3.320   4.459   2.590
 2426SOL    HW1 7294   3.315   4.394   2.665
 2426SOL    HW2 7295   3.400   4.518   2.603
 2427SOL     OW 7296   2.064   4.009   3.360
 2427SOL    HW1 7297   1.984   4.069   3.347
 2427SOL    HW2 7298   2.054   3.960   3.446
 2428SOL     OW 7299   3.262   3.831   2.288
 2428SOL    HW1 7300   3.238   3.794   2.198
 2428SOL    HW2 7301   3.361   3.847   2.292
 2429SOL     OW 7302   2.244   4.424   2.342
 2429SOL    HW1 7303   2.289   4.334   2.339
 2429SOL    HW2 7304   2.150   4.413   2.375
 2430SOL     OW 7305   3.409   3.946   3.591
 2430SOL    HW1 7306   3.404   3.983   3.683
 2430SOL    HW2 7307   3.337   3.877   3.579
 2431SOL     OW 7308   2.476   3.846   1.979
 2431SOL    HW1 7309   2.574   3.824   1.986
 2431SOL    HW2 7310   2.445   3.829   1.886
 2432SOL     OW 7311   2.643   3.988   3.611
 2432SOL    HW1 7312   2.710   3.927   3.654
 2432SOL    HW2 7313   2.570   4.007   3.676
 2433SOL     OW 7314   3.213   4.314   3.295
 2433SOL    HW1 7315   3.241   4.271   3.380
 2433SOL    HW2 7316   3.238   4.410   3.296
 2434SOL     OW 7317   2.784   4.227   2.761
 2434SOL    HW1 7318   2.759   4.218   2.665
 2434SOL    HW2 7319   2.832   4.145   2.792
 2435SOL     OW 7320   2.401   3.788   2.374
 2435SOL    HW1 7321   2.320   3.789   2.432
 2435SOL    HW2 7322   2.404   3.871   2.319
 2436SOL     OW 7323   2.159   3.759   2.033
 2436SOL    HW1 7324   2.208   3.843   2.012
 2436SOL    HW2 7325   2.221   3.694   2.078
 2437SOL     OW 7326   2.797   3.960   2.342
 2437SOL    HW1 7327   2.749   4.001   2.264
 2437SOL    HW2 7328   2.896   3.958   2.323
 2438SOL     OW 7329   2.938   4.407   3.326
 2438SOL    HW1 7330   2.858   4.346   3.329
 2438SOL    HW2 7331   3.019   4.354   3.302
 2439SOL     OW 7332   2.894   4.273   1.878
 2439SOL    HW1 7333   2.853   4.355   1.839
 2439SOL    HW2 7334   2.958   4.299   1.951
 2440SOL     OW 7335   1.940   4.280   3.248
 2440SOL    HW1 7336   2.032   4.279   3.207
 2440SOL    HW2 7337   1.934   4.354   3.315
 2441SOL     OW 7338   2.423   3.946   3.009
 2441SOL    HW1 7339   2.461   3.862   3.046
 2441SOL    HW2 7340   2.335   3.965   3.053
 2442SOL     OW 7341   2.728   4.178   2.504
 2442SOL    HW1 7342   2.696   4.250   2.442
 2442SOL    HW2 7343   2.752   4.097   2.451
 2443SOL     OW 7344   2.879   3.763   2.615
 2443SOL    HW1 7345   2.807   3.768   2.546
 2443SOL    HW2 7346   2.855   3.694   2.684
 2444SOL     OW 7347   3.328   4.314   2.854
 2444SOL    HW1 7348   3.298   4.219   2.861
 2444SOL    HW2 7349   3.401   4.330   2.920
 2445SOL     OW 7350   3.719   4.557   2.239
 2445SOL    HW1 7351   3.761   4.493   2.303
 2445SOL    HW2 7352   3.681   4.506   2.161
 2446SOL     OW 7353   3.252   4.299   1.940
 2446SOL    HW1 7354   3.198   4.278   2.021
 2446SOL    HW2 7355   3.343   4.258   1.949
 2447SOL     OW 7356   2.389   3.980   2.190
 2447SOL    HW1 7357   2.416   3.921   2.115
 2447SOL    HW2 7358   2.389   4.075   2.159
 2448SOL     OW 7359   2.777   3.813   3.264
 2448SOL    HW1 7360   2.802   3.793   3.169
 2448SOL    HW2 7361   2.849   3.869   3.306
 2449SOL     OW 7362   2.567   4.774   2.230
 2449SOL    HW1 7363   2.553   4.781   2.329
 2449SOL    HW2 7364   2.651   4.723   2.212
 2450SOL     OW 7365   2.272   4.537   3.113
 2450SOL    HW1 7366   2.358   4.549   3.163
 2450SOL    HW2 7367   2.230   4.450   3.140
 2451SOL     OW 7368   3.136   4.110   3.124
 2451SOL    HW1 7369   3.157   4.184   3.188
 2451SOL    HW2 7370   3.047   4.127   3.081
 2452SOL     OW 7371   2.428   4.261   2.727
 2452SOL    HW1 7372   2.440   4.327   2.653
 2452SOL    HW2 7373   2.474   4.295   2.810
 2453SOL     OW 7374   3.444   4.363   2.334
 2453SOL    HW1 7375   3.413   4.424   2.407
 2453SOL    HW2 7376   3.494   4.415   2.265
 2454SOL     OW 7377   3.449   4.503   3.532
 2454SOL    HW1 7378   3.357   4.541   3.527
 2454SOL    HW2 7379   3.509   4.550   3.467
 2455SOL     OW 7380   2.875   3.829   3.632
 2455SOL    HW1 7381   2.881   3.914   3.580
 2455SOL    HW2 7382   2.907   3.753   3.575
 2456SOL     OW 7383   2.366   3.774   3.602
 2456SOL    HW1 7384   2.324   3.717   3.532
 2456SOL    HW2 7385   2.300   3.843   3.634
 2457SOL     OW 7386   3.222   4.586   2.907
 2457SOL    HW1 7387   3.147   4.586   2.841
 2457SOL    HW2 7388   3.259   4.494   2.916
 2458SOL     OW 7389   3.071   4.249   2.137
 2458SOL    HW1 7390   3.084   4.165   2.191
 2458SOL    HW2 7391   3.042   4.323   2.197
 2459SOL     OW 7392   2.169   3.937   3.093
 2459SOL    HW1 7393   2.146   3.974   3.183
 2459SOL    HW2 7394   2.139   3.842   3.087
 2460SOL     OW 7395   2.594   4.358   2.926
 2460SOL    HW1 7396   2.653   4.332   2.850
 2460SOL    HW2 7397   2.566   4.454   2.915
 2461SOL     OW 7398   3.590   4.659   3.716
 2461SOL    HW1 7399   3.544   4.652   3.627
 2461SOL    HW2 7400   3.528   4.703   3.782
 2462SOL     OW 7401   2.169   3.787   2.480
 2462SOL    HW1 7402   2.158   3.881   2.513
 2462SOL    HW2 7403   2.164   3.724   2.557
 2463SOL     OW 7404   3.484   4.091   2.236
 2463SOL    HW1 7405   3.486   4.015   2.300
 2463SOL    HW2 7406   3.436   4.168   2.276
 2464SOL     OW 7407   3.402   3.998   1.987
 2464SOL    HW1 7408   3.341   3.923   2.010
 2464SOL    HW2 7409   3.424   4.050   2.070
 2465SOL     OW 7410   2.181   4.534   2.811
 2465SOL    HW1 7411   2.274   4.570   2.816
 2465SOL    HW2 7412   2.175   4.449   2.863
 2466SOL     OW 7413   2.201   4.233   2.868
 2466SOL    HW1 7414   2.149   4.150   2.851
 2466SOL    HW2 7415   2.278   4.238   2.804
 2467SOL     OW 7416   3.000   4.104   3.540
 2467SOL    HW1 7417   2.955   4.167   3.604
 2467SOL    HW2 7418   3.093   4.135   3.523
 2468SOL     OW 7419   3.022   3.931   3.339
 2468SOL    HW1 7420   3.022   3.995   3.416
 2468SOL    HW2 7421   3.050   3.979   3.256
 2469SOL     OW 7422   1.902   4.268   2.976
 2469SOL    HW1 7423   1.987   4.235   2.935
 2469SOL    HW2 7424   1.915   4.283   3.074
 2470SOL     OW 7425   2.051   4.244   3.584
 2470SOL    HW1 7426   2.110   4.204   3.514
 2470SOL    HW2 7427   1.993   4.315   3.543
 2471SOL     OW 7428   2.677   4.296   2.187
 2471SOL    HW1 7429   2.684   4.207   2.141
 2471SOL    HW2 7430   2.583   4.330   2.179
 2472SOL     OW 7431   3.519   4.328   3.068
 2472SOL    HW1 7432   3.481   4.259   3.130
 2472SOL    HW2 7433   3.601   4.292   3.024
 2473SOL     OW 7434   2.533   4.188   3.131
 2473SOL    HW1 7435   2.499   4.099   3.101
 2473SOL    HW2 7436   2.559   4.242   3.051
 2474SOL     OW 7437   2.335   4.224   2.053
 2474SOL    HW1 7438   2.396   4.304   2.057
 2474SOL    HW2 7439   2.240   4.255   2.060
 2475SOL     OW 7440   3.588   3.859   2.385
 2475SOL    HW1 7441   3.661   3.842   2.318
 2475SOL    HW2 7442   3.557   3.772   2.423
 2476SOL     OW 7443   3.142   4.651   2.534
 2476SOL    HW1 7444   3.202   4.570   2.536
 2476SOL    HW2 7445   3.182   4.720   2.474
 2477SOL     OW 7446   3.703   3.899   2.825
 2477SOL    HW1 7447   3.742   3.814   2.789
 2477SOL    HW2 7448   3.605   3.901   2.806
 2478SOL     OW 7449   2.125   4.050   2.582
 2478SOL    HW1 7450   2.046   4.101   2.548
 2478SOL    HW2 7451   2.116   4.035   2.680
 2479SOL     OW 7452   2.778   4.634   2.153
 2479SOL    HW1 7453   2.841   4.672   2.085
 2479SOL    HW2 7454   2.818   4.551   2.192
 2480SOL     OW 7455   2.876   3.960   2.833
 2480SOL    HW1 7456   2.868   3.924   2.740
 2480SOL    HW2 7457   2.874   3.884   2.898
 2481SOL     OW 7458   3.571   4.109   3.243
 2481SOL    HW1 7459   3.644   4.178   3.247
 2481SOL    HW2 7460   3.599   4.034   3.184
 2482SOL     OW 7461   1.967   4.737   3.588
 2482SOL    HW1 7462   1.890   4.704   3.642
 2482SOL    HW2 7463   2.052   4.707   3.630
 2483SOL     OW 7464   2.534   3.927   3.351
 2483SOL    HW1 7465   2.624   3.911   3.311
 2483SOL    HW2 7466   2.542   3.932   3.450
 2484SOL     OW 7467   1.937   4.069   1.895
 2484SOL    HW1 7468   1.845   4.041   1.866
 2484SOL    HW2 7469   1.968   4.146   1.839
 2485SOL     OW 7470   1.934   3.890   2.180
 2485SOL    HW1 7471   1.917   3.973   2.126
 2485SOL    HW2 7472   2.024   3.853   2.158
 2486SOL     OW 7473   2.578   4.289   3.570
 2486SOL    HW1 7474   2.597   4.354   3.644
 2486SOL    HW2 7475   2.638   4.209   3.579
 2487SOL     OW 7476   3.536   4.607   3.116
 2487SOL    HW1 7477   3.509   4.518   3.079
 2487SOL    HW2 7478   3.537   4.675   3.043
 2488SOL     OW 7479   3.087   4.049   2.311
 2488SOL    HW1 7480   3.152   3.975   2.300
 2488SOL    HW2 7481   3.107   4.099   2.395
 2489SOL     OW 7482   2.456   4.469   2.514
 2489SOL    HW1 7483   2.506   4.554   2.495
 2489SOL    HW2 7484   2.368   4.471   2.466
 2490SOL     OW 7485   3.639   4.066   3.504
 2490SOL    HW1 7486   3.622   4.097   3.410
 2490SOL    HW2 7487   3.555   4.029   3.542
 2491SOL     OW 7488   2.721   4.680   2.723
 2491SOL    HW1 7489   2.775   4.611   2.771
 2491SOL    HW2 7490   2.689   4.749   2.789
 2492SOL     OW 7491   3.686   3.916   3.089
 2492SOL    HW1 7492   3.682   3.826   3.133
 2492SOL    HW2 7493   3.689   3.905   2.990
 2493SOL     OW 7494   2.290   4.148   2.382
 2493SOL    HW1 7495   2.320   4.076   2.320
 2493SOL    HW2 7496   2.251   4.108   2.465
 2494SOL     OW 7497   2.179   4.271   3.142
 2494SOL    HW1 7498   2.217   4.212   3.214
 2494SOL    HW2 7499   2.219   4.245   3.054
 2495SOL     OW 7500   3.286   3.938   2.974
 2495SOL    HW1 7501   3.338   3.873   3.029
 2495SOL    HW2 7502   3.237   4.001   3.035
 2496SOL     OW 7503   2.863   3.758   3.016
 2496SOL    HW1 7504   2.800   3.686   2.985
 2496SOL    HW2 7505   2.956   3.722   3.016
 2497SOL     OW 7506   3.214   3.776   2.030
 2497SOL    HW1 7507   3.249   3.735   1.946
 2497SOL    HW2 7508   3.124   3.738   2.050
 2498SOL     OW 7509   3.162   4.177   2.553
 2498SOL    HW1 7510   3.103   4.257   2.557
 2498SOL    HW2 7511   3.177   4.142   2.646
 2499SOL     OW 7512   3.455   3.945   2.744
 2499SOL    HW1 7513   3.371   3.944   2.798
 2499SOL    HW2 7514   3.457   4.028   2.688
 2500SOL     OW 7515   2.092   4.352   3.837
 2500SOL    HW1 7516   1.999   4.350   3.874
 2500SOL    HW2 7517   2.093   4.313   3.745
 2501SOL     OW 7518   2.087   3.999   4.720
 2501SOL    HW1 7519   2.122   3.982   4.812
 2501SOL    HW2 7520   1.999   3.954   4.708
 2502SOL     OW 7521   1.881   4.092   4.371
 2502SOL    HW1 7522   1.799   4.135   4.410
 2502SOL    HW2 7523   1.853   4.019   4.308
 2503SOL     OW 7524   3.617   4.331   3.955
 2503SOL    HW1 7525   3.605   4.318   3.856
 2503SOL    HW2 7526   3.587   4.250   4.004
 2504SOL     OW 7527   2.547   4.736   4.389
 2504SOL    HW1 7528   2.616   4.720   4.459
 2504SOL    HW2 7529   2.474   4.793   4.427
 2505SOL     OW 7530   3.465   4.171   4.461
 2505SOL    HW1 7531   3.391   4.217   4.411
 2505SOL    HW2 7532   3.516   4.239   4.514
 2506SOL     OW 7533   1.984   4.367   4.287
 2506SOL    HW1 7534   1.939   4.279   4.304
 2506SOL    HW2 7535   1.983   4.421   4.371
 2507SOL     OW 7536   2.671   3.728   4.226
 2507SOL    HW1 7537   2.711   3.819   4.217
 2507SOL    HW2 7538   2.571   3.736   4.232
 2508SOL     OW 7539   2.460   4.453   3.994
 2508SOL    HW1 7540   2.484   4.522   3.926
 2508SOL    HW2 7541   2.382   4.486   4.048
 2509SOL     OW 7542   3.143   4.069   4.668
 2509SOL    HW1 7543   3.057   4.019   4.655
 2509SOL    HW2 7544   3.205   4.015   4.724
 2510SOL     OW 7545   2.903   4.425   4.153
 2510SOL    HW1 7546   2.929   4.421   4.249
 2510SOL    HW2 7547   2.818   4.374   4.139
 2511SOL     OW 7548   2.727   4.072   3.919
 2511SOL    HW1 7549   2.786   4.135   3.870
 2511SOL    HW2 7550   2.746   3.978   3.890
 2512SOL     OW 7551   3.320   4.459   4.452
 2512SOL    HW1 7552   3.315   4.394   4.527
 2512SOL    HW2 7553   3.400   4.518   4.465
 2513SOL     OW 7554   3.262   3.831   4.150
 2513SOL    HW1 7555   3.238   3.794   4.060
 2513SOL    HW2 7556   3.361   3.847   4.154
 2514SOL     OW 7557   2.244   4.424   4.204
 2514SOL    HW1 7558   2.289   4.334   4.201
 2514SOL    HW2 7559   2.150   4.413   4.237
 2515SOL     OW 7560   2.476   3.846   3.841
 2515SOL    HW1 7561   2.574   3.824   3.848
 2515SOL    HW2 7562   2.445   3.829   3.748
 2516SOL     OW 7563   2.401   3.788   4.236
 2516SOL    HW1 7564   2.320   3.789   4.294
 2516SOL    HW2 7565   2.404   3.871   4.181
 2517SOL     OW 7566   2.159   3.759   3.895
 2517SOL    HW1 7567   2.208   3.843   3.874
 2517SOL    HW2 7568   2.221   3.694   3.940
 2518SOL     OW 7569   2.797   3.960   4.204
 2518SOL    HW1 7570   2.749   4.001   4.126
 2518SOL    HW2 7571   2.896   3.958   4.185
 2519SOL     OW 7572   2.894   4.273   3.740
 2519SOL    HW1 7573   2.853   4.355   3.701
 2519SOL    HW2 7574   2.958   4.299   3.813
 2520SOL     OW 7575   2.728   4.178   4.366
 2520SOL    HW1 7576   2.696   4.250   4.304
 2520SOL    HW2 7577   2.752   4.097   4.313
 2521SOL     OW 7578   3.719   4.557   4.101
 2521SOL    HW1 7579   3.761   4.493   4.165
 2521SOL    HW2 7580   3.681   4.506   4.023
 2522SOL     OW 7581   3.252   4.299   3.802
 2522SOL    HW1 7582   3.198   4.278   3.883
 2522SOL    HW2 7583   3.343   4.258   3.811
 2523SOL     OW 7584   2.389   3.980   4.052
 2523SOL    HW1 7585   2.416   3.921   3.977
 2523SOL    HW2 7586   2.389   4.075   4.021
 2524SOL     OW 7587   2.567   4.774   4.092
 2524SOL    HW1 7588   2.553   4.781   4.191
 2524SOL    HW2 7589   2.651   4.723   4.074
 2525SOL     OW 7590   3.444   4.363   4.196
 2525SOL    HW1 7591   3.413   4.424   4.269
 2525SOL    HW2 7592   3.494   4.415   4.127
 2526SOL     OW 7593   3.071   4.249   3.999
 2526SOL    HW1 7594   3.084   4.165   4.053
 2526SOL    HW2 7595   3.042   4.323   4.059
 2527SOL     OW 7596   2.169   3.787   4.342
 2527SOL    HW1 7597   2.158   3.881   4.375
 2527SOL    HW2 7598   2.164   3.724   4.419
 2528SOL     OW 7599   3.484   4.091   4.098
 2528SOL    HW1 7600   3.486   4.015   4.162
 2528SOL    HW2 7601   3.436   4.168   4.138
 2529SOL     OW 7602   3.402   3.998   3.849
 2529SOL    HW1 7603   3.341   3.923   3.872
 2529SOL    HW2 7604   3.424   4.050   3.932
 2530SOL     OW 7605   2.677   4.296   4.049
 2530SOL    HW1 7606   2.684   4.207   4.003
 2530SOL    HW2 7607   2.583   4.330   4.041
 2531SOL     OW 7608   2.335   4.224   3.915
 2531SOL    HW1 7609   2.396   4.304   3.919
 2531SOL    HW2 7610   2.240   4.255   3.922
 2532SOL     OW 7611   3.588   3.859   4.247
 2532SOL    HW1 7612   3.661   3.842   4.180
 2532SOL    HW2 7613   3.557   3.772   4.285
 2533SOL     OW 7614   3.142   4.651   4.396
 2533SOL    HW1 7615   3.202   4.570   4.398
 2533SOL    HW2 7616   3.182   4.720   4.336
 2534SOL     OW 7617   3.703   3.899   4.687
 2534SOL    HW1 7618   3.742   3.814   4.651
 2534SOL    HW2 7619   3.605   3.901   4.668
 2535SOL     OW 7620   2.125   4.050   4.444
 2535SOL    HW1 7621   2.046   4.101   4.410
 2535SOL    HW2 7622   2.116   4.035   4.542
 2536SOL     OW 7623   2.778   4.634   4.015
 2536SOL    HW1 7624   2.841   4.672   3.947
 2536SOL    HW2 7625   2.818   4.551   4.054
 2537SOL     OW 7626   2.901   4.822   4.420
 2537SOL    HW1 7627   2.831   4.775   4.474
 2537SOL    HW2 7628   2.960   4.754   4.377
 2538SOL     OW 7629   1.937   4.069   3.757
 2538SOL    HW1 7630   1.845   4.041   3.728
 2538SOL    HW2 7631   1.968   4.146   3.701
 2539SOL     OW 7632   1.934   3.890   4.042
 2539SOL    HW1 7633   1.917   3.973   3.988
 2539SOL    HW2 7634   2.024   3.853   4.020
 2540SOL     OW 7635   3.087   4.049   4.173
 2540SOL    HW1 7636   3.152   3.975   4.162
 2540SOL    HW2 7637   3.107   4.099   4.257
 2541SOL     OW 7638   2.456   4.469   4.376
 2541SOL    HW1 7639   2.506   4.554   4.357
 2541SOL    HW2 7640   2.368   4.471   4.328
 2542SOL     OW 7641   2.290   4.148   4.244
 2542SOL    HW1 7642   2.320   4.076   4.182
 2542SOL    HW2 7643   2.251   4.108   4.327
 2543SOL     OW 7644   3.214   3.776   3.892
 2543SOL    HW1 7645   3.249   3.735   3.808
 2543SOL    HW2 7646   3.124   3.738   3.912
 2544SOL     OW 7647   3.162   4.177   4.415
 2544SOL    HW1 7648   3.103   4.257   4.419
 2544SOL    HW2 7649   3.177   4.142   4.508
 2545SOL     OW 7650   3.954   0.628   0.113
 2545SOL    HW1 7651   3.861   0.626   0.150
 2545SOL    HW2 7652   3.955   0.589   0.021
 2546SOL     OW 7653   3.949   0.275   0.996
 2546SOL    HW1 7654   3.984   0.258   1.088
 2546SOL    HW2 7655   3.861   0.230   0.984
 2547SOL     OW 7656   3.743   0.368   0.647
 2547SOL    HW1 7657   3.661   0.411   0.686
 2547SOL    HW2 7658   3.715   0.295   0.584
 2548SOL     OW 7659   4.293   1.275   1.165
 2548SOL    HW1 7660   4.200   1.268   1.128
 2548SOL    HW2 7661   4.304   1.364   1.209
 2549SOL     OW 7662   4.574   0.798   1.823
 2549SOL    HW1 7663   4.570   0.874   1.888
 2549SOL    HW2 7664   4.596   0.834   1.732
 2550SOL     OW 7665   4.409   1.012   0.665
 2550SOL    HW1 7666   4.478   0.996   0.735
 2550SOL    HW2 7667   4.336   1.069   0.703
 2551SOL     OW 7668   4.410   1.161   1.803
 2551SOL    HW1 7669   4.470   1.240   1.817
 2551SOL    HW2 7670   4.324   1.192   1.762
 2552SOL     OW 7671   4.059   1.435   1.061
 2552SOL    HW1 7672   3.981   1.404   1.008
 2552SOL    HW2 7673   4.117   1.493   1.004
 2553SOL     OW 7674   4.162   0.392   1.499
 2553SOL    HW1 7675   4.244   0.336   1.508
 2553SOL    HW2 7676   4.081   0.334   1.503
 2554SOL     OW 7677   3.955   1.713   0.483
 2554SOL    HW1 7678   3.989   1.790   0.537
 2554SOL    HW2 7679   3.999   1.713   0.393
 2555SOL     OW 7680   3.954   1.434   0.538
 2555SOL    HW1 7681   3.928   1.530   0.538
 2555SOL    HW2 7682   3.883   1.380   0.583
 2556SOL     OW 7683   3.964   1.091   0.886
 2556SOL    HW1 7684   3.978   1.007   0.938
 2556SOL    HW2 7685   3.909   1.155   0.941
 2557SOL     OW 7686   4.344   1.786   1.439
 2557SOL    HW1 7687   4.252   1.769   1.474
 2557SOL    HW2 7688   4.372   1.878   1.465
 2558SOL     OW 7689   4.330   0.964   0.123
 2558SOL    HW1 7690   4.337   1.048   0.069
 2558SOL    HW2 7691   4.376   0.977   0.211
 2559SOL     OW 7692   3.846   0.643   0.563
 2559SOL    HW1 7693   3.801   0.555   0.580
 2559SOL    HW2 7694   3.845   0.697   0.647
 2560SOL     OW 7695   3.751   1.596   0.117
 2560SOL    HW1 7696   3.732   1.500   0.138
 2560SOL    HW2 7697   3.718   1.654   0.192
 2561SOL     OW 7698   3.837   0.737   1.597
 2561SOL    HW1 7699   3.925   0.724   1.642
 2561SOL    HW2 7700   3.824   0.834   1.575
 2562SOL     OW 7701   4.337   1.365   0.726
 2562SOL    HW1 7702   4.288   1.278   0.735
 2562SOL    HW2 7703   4.314   1.408   0.639
 2563SOL     OW 7704   4.533   0.004   0.502
 2563SOL    HW1 7705   4.573   0.095   0.493
 2563SOL    HW2 7706   4.433   0.012   0.508
 2564SOL     OW 7707   3.921   0.976   1.264
 2564SOL    HW1 7708   4.010   0.931   1.250
 2564SOL    HW2 7709   3.848   0.911   1.245
 2565SOL     OW 7710   4.041   0.251   1.801
 2565SOL    HW1 7711   4.112   0.322   1.807
 2565SOL    HW2 7712   3.953   0.290   1.829
 2566SOL     OW 7713   4.322   0.729   0.270
 2566SOL    HW1 7714   4.346   0.798   0.202
 2566SOL    HW2 7715   4.244   0.762   0.324
 2567SOL     OW 7716   3.800   0.811   0.789
 2567SOL    HW1 7717   3.899   0.799   0.798
 2567SOL    HW2 7718   3.776   0.906   0.810
 2568SOL     OW 7719   3.854   1.821   1.571
 2568SOL    HW1 7720   3.844   1.806   1.670
 2568SOL    HW2 7721   3.768   1.857   1.535
 2569SOL     OW 7722   4.274   0.196   0.885
 2569SOL    HW1 7723   4.269   0.191   0.985
 2569SOL    HW2 7724   4.276   0.292   0.856
 2570SOL     OW 7725   4.075   1.801   0.853
 2570SOL    HW1 7726   4.125   1.715   0.859
 2570SOL    HW2 7727   4.140   1.878   0.850
 2571SOL     OW 7728   4.045   0.943   0.242
 2571SOL    HW1 7729   4.127   0.982   0.200
 2571SOL    HW2 7730   4.018   0.861   0.193
 2572SOL     OW 7731   4.185   1.266   1.727
 2572SOL    HW1 7732   4.135   1.267   1.641
 2572SOL    HW2 7733   4.122   1.248   1.803
 2573SOL     OW 7734   3.926   0.285   1.498
 2573SOL    HW1 7735   3.846   0.345   1.485
 2573SOL    HW2 7736   3.916   0.236   1.584
 2574SOL     OW 7737   4.188   1.743   0.323
 2574SOL    HW1 7738   4.221   1.782   0.409
 2574SOL    HW2 7739   4.264   1.736   0.258
 2575SOL     OW 7740   3.973   1.785   1.241
 2575SOL    HW1 7741   4.030   1.720   1.291
 2575SOL    HW2 7742   3.957   1.752   1.148
 2576SOL     OW 7743   4.106   0.700   0.480
 2576SOL    HW1 7744   4.151   0.610   0.477
 2576SOL    HW2 7745   4.012   0.689   0.513
 2577SOL     OW 7746   4.338   0.122   0.117
 2577SOL    HW1 7747   4.436   0.100   0.124
 2577SOL    HW2 7748   4.307   0.105   0.024
 2578SOL     OW 7749   4.527   1.402   0.924
 2578SOL    HW1 7750   4.617   1.416   0.882
 2578SOL    HW2 7751   4.456   1.404   0.853
 2579SOL     OW 7752   4.646   0.503   0.899
 2579SOL    HW1 7753   4.621   0.494   0.803
 2579SOL    HW2 7754   4.694   0.421   0.930
 2580SOL     OW 7755   4.263   0.064   0.512
 2580SOL    HW1 7756   4.182   0.065   0.570
 2580SOL    HW2 7757   4.266   0.147   0.457
 2581SOL     OW 7758   4.021   0.035   0.171
 2581SOL    HW1 7759   4.070   0.119   0.150
 2581SOL    HW2 7760   4.083  -0.030   0.216
 2582SOL     OW 7761   4.183   1.152   0.741
 2582SOL    HW1 7762   4.112   1.125   0.806
 2582SOL    HW2 7763   4.157   1.124   0.648
 2583SOL     OW 7764   3.802   0.556   1.386
 2583SOL    HW1 7765   3.894   0.555   1.345
 2583SOL    HW2 7766   3.796   0.630   1.453
 2584SOL     OW 7767   4.285   0.222   1.147
 2584SOL    HW1 7768   4.323   0.138   1.184
 2584SOL    HW2 7769   4.197   0.241   1.191
 2585SOL     OW 7770   4.212   1.385   0.174
 2585SOL    HW1 7771   4.125   1.370   0.221
 2585SOL    HW2 7772   4.195   1.411   0.079
 2586SOL     OW 7773   4.251   0.256   0.328
 2586SOL    HW1 7774   4.278   0.197   0.253
 2586SOL    HW2 7775   4.251   0.351   0.297
 2587SOL     OW 7776   4.639   0.089   1.402
 2587SOL    HW1 7777   4.664   0.069   1.307
 2587SOL    HW2 7778   4.711   0.145   1.444
 2588SOL     OW 7779   4.134   0.813   1.251
 2588SOL    HW1 7780   4.220   0.825   1.301
 2588SOL    HW2 7781   4.092   0.726   1.278
 2589SOL     OW 7782   3.788   1.564   1.331
 2589SOL    HW1 7783   3.742   1.646   1.297
 2589SOL    HW2 7784   3.886   1.583   1.340
 2590SOL     OW 7785   4.091   1.100   0.501
 2590SOL    HW1 7786   4.084   1.183   0.445
 2590SOL    HW2 7787   4.095   1.020   0.441
 2591SOL     OW 7788   4.290   0.537   0.865
 2591SOL    HW1 7789   4.302   0.603   0.791
 2591SOL    HW2 7790   4.336   0.571   0.948
 2592SOL     OW 7791   4.078   1.510   1.329
 2592SOL    HW1 7792   4.057   1.466   1.242
 2592SOL    HW2 7793   4.175   1.536   1.332
 2593SOL     OW 7794   4.126   0.751   1.598
 2593SOL    HW1 7795   4.194   0.806   1.551
 2593SOL    HW2 7796   4.166   0.663   1.625
 2594SOL     OW 7797   4.228   0.050   1.740
 2594SOL    HW1 7798   4.186  -0.007   1.670
 2594SOL    HW2 7799   4.162   0.119   1.772
 2595SOL     OW 7800   4.297   0.870   1.029
 2595SOL    HW1 7801   4.341   0.959   1.020
 2595SOL    HW2 7802   4.234   0.870   1.106
 2596SOL     OW 7803   4.031   0.213   1.231
 2596SOL    HW1 7804   4.008   0.250   1.321
 2596SOL    HW2 7805   4.001   0.118   1.225
 2597SOL     OW 7806   3.761   1.310   1.282
 2597SOL    HW1 7807   3.814   1.261   1.350
 2597SOL    HW2 7808   3.783   1.408   1.287
 2598SOL     OW 7809   4.456   0.634   1.064
 2598SOL    HW1 7810   4.515   0.608   0.988
 2598SOL    HW2 7811   4.428   0.730   1.053
 2599SOL     OW 7812   4.031   0.063   0.618
 2599SOL    HW1 7813   4.020   0.157   0.651
 2599SOL    HW2 7814   4.026   0.000   0.695
 2600SOL     OW 7815   4.074   0.898   1.804
 2600SOL    HW1 7816   4.150   0.942   1.852
 2600SOL    HW2 7817   4.109   0.851   1.722
 2601SOL     OW 7818   4.792   1.333   0.849
 2601SOL    HW1 7819   4.799   1.249   0.794
 2601SOL    HW2 7820   4.854   1.402   0.813
 2602SOL     OW 7821   4.043   0.810   0.949
 2602SOL    HW1 7822   4.136   0.846   0.954
 2602SOL    HW2 7823   4.037   0.725   1.001
 2603SOL     OW 7824   4.063   0.509   1.006
 2603SOL    HW1 7825   4.011   0.426   0.989
 2603SOL    HW2 7826   4.140   0.514   0.942
 2604SOL     OW 7827   3.732   1.326   0.200
 2604SOL    HW1 7828   3.639   1.347   0.169
 2604SOL    HW2 7829   3.742   1.227   0.213
 2605SOL     OW 7830   3.812   1.801   0.927
 2605SOL    HW1 7831   3.770   1.715   0.900
 2605SOL    HW2 7832   3.906   1.804   0.893
 2606SOL     OW 7833   4.228   1.568   0.910
 2606SOL    HW1 7834   4.294   1.642   0.919
 2606SOL    HW2 7835   4.272   1.489   0.868
 2607SOL     OW 7836   3.764   0.544   1.114
 2607SOL    HW1 7837   3.849   0.511   1.073
 2607SOL    HW2 7838   3.777   0.559   1.212
 2608SOL     OW 7839   3.913   0.520   1.722
 2608SOL    HW1 7840   3.972   0.480   1.652
 2608SOL    HW2 7841   3.855   0.591   1.681
 2609SOL     OW 7842   3.976   1.564   1.744
 2609SOL    HW1 7843   3.946   1.621   1.820
 2609SOL    HW2 7844   3.969   1.467   1.770
 2610SOL     OW 7845   4.395   0.464   1.269
 2610SOL    HW1 7846   4.361   0.375   1.239
 2610SOL    HW2 7847   4.421   0.518   1.189
 2611SOL     OW 7848   4.197   0.500   0.191
 2611SOL    HW1 7849   4.258   0.580   0.195
 2611SOL    HW2 7850   4.102   0.531   0.198
 2612SOL     OW 7851   3.883   1.137   1.466
 2612SOL    HW1 7852   3.905   1.076   1.542
 2612SOL    HW2 7853   3.893   1.088   1.380
 2613SOL     OW 7854   3.807   1.258   1.022
 2613SOL    HW1 7855   3.802   1.257   1.122
 2613SOL    HW2 7856   3.724   1.217   0.984
 2614SOL     OW 7857   4.412   1.662   1.716
 2614SOL    HW1 7858   4.356   1.743   1.725
 2614SOL    HW2 7859   4.464   1.666   1.630
 2615SOL     OW 7860   3.854   1.794   1.851
 2615SOL    HW1 7861   3.813   1.720   1.904
 2615SOL    HW2 7862   3.918   1.845   1.909
 2616SOL     OW 7863   4.396   1.616   0.154
 2616SOL    HW1 7864   4.405   1.626   0.055
 2616SOL    HW2 7865   4.356   1.527   0.175
 2617SOL     OW 7866   3.987   0.326   0.720
 2617SOL    HW1 7867   3.908   0.377   0.686
 2617SOL    HW2 7868   3.978   0.311   0.818
 2618SOL     OW 7869   4.546   1.002   1.372
 2618SOL    HW1 7870   4.586   1.001   1.280
 2618SOL    HW2 7871   4.556   1.094   1.412
 2619SOL     OW 7872   4.096   1.288   1.490
 2619SOL    HW1 7873   4.083   1.381   1.456
 2619SOL    HW2 7874   4.012   1.236   1.477
 2620SOL     OW 7875   4.314   1.487   0.491
 2620SOL    HW1 7876   4.356   1.429   0.421
 2620SOL    HW2 7877   4.270   1.566   0.447
 2621SOL     OW 7878   3.979   1.348   0.290
 2621SOL    HW1 7879   3.883   1.349   0.263
 2621SOL    HW2 7880   3.991   1.401   0.374
 2622SOL     OW 7881   3.829   1.013   1.726
 2622SOL    HW1 7882   3.752   0.980   1.780
 2622SOL    HW2 7883   3.914   0.983   1.768
 2623SOL     OW 7884   4.396   0.203   1.489
 2623SOL    HW1 7885   4.486   0.187   1.449
 2623SOL    HW2 7886   4.404   0.208   1.588
 2624SOL     OW 7887   3.799   0.345   0.033
 2624SOL    HW1 7888   3.707   0.317   0.004
 2624SOL    HW2 7889   3.830   0.422  -0.023
 2625SOL     OW 7890   3.796   0.166   0.318
 2625SOL    HW1 7891   3.779   0.249   0.264
 2625SOL    HW2 7892   3.886   0.129   0.296
 2626SOL     OW 7893   4.337   0.842   1.431
 2626SOL    HW1 7894   4.393   0.923   1.414
 2626SOL    HW2 7895   4.396   0.762   1.434
 2627SOL     OW 7896   4.440   0.565   1.708
 2627SOL    HW1 7897   4.459   0.630   1.782
 2627SOL    HW2 7898   4.500   0.485   1.717
 2628SOL     OW 7899   4.114   1.741   1.560
 2628SOL    HW1 7900   4.023   1.782   1.558
 2628SOL    HW2 7901   4.107   1.647   1.592
 2629SOL     OW 7902   4.318   0.745   0.652
 2629SOL    HW1 7903   4.368   0.830   0.633
 2629SOL    HW2 7904   4.230   0.747   0.604
 2630SOL     OW 7905   4.385   1.790   0.953
 2630SOL    HW1 7906   4.339   1.878   0.940
 2630SOL    HW2 7907   4.484   1.802   0.946
 2631SOL     OW 7908   3.945   1.314   1.844
 2631SOL    HW1 7909   3.880   1.241   1.823
 2631SOL    HW2 7910   3.949   1.328   1.942
 2632SOL     OW 7911   3.803   1.240   0.653
 2632SOL    HW1 7912   3.802   1.193   0.741
 2632SOL    HW2 7913   3.885   1.212   0.602
 2633SOL     OW 7914   4.396   1.391   1.624
 2633SOL    HW1 7915   4.318   1.341   1.662
 2633SOL    HW2 7916   4.393   1.486   1.655
 2634SOL     OW 7917   4.152   0.424   0.520
 2634SOL    HW1 7918   4.182   0.352   0.458
 2634SOL    HW2 7919   4.113   0.384   0.603
 2635SOL     OW 7920   4.041   0.547   1.280
 2635SOL    HW1 7921   4.079   0.488   1.352
 2635SOL    HW2 7922   4.081   0.521   1.192
 2636SOL     OW 7923   4.536   1.586   0.687
 2636SOL    HW1 7924   4.568   1.596   0.593
 2636SOL    HW2 7925   4.457   1.524   0.689
 2637SOL     OW 7926   4.725   0.034   1.154
 2637SOL    HW1 7927   4.662  -0.038   1.123
 2637SOL    HW2 7928   4.818  -0.002   1.154
 2638SOL     OW 7929   4.342   1.567   1.284
 2638SOL    HW1 7930   4.337   1.649   1.341
 2638SOL    HW2 7931   4.431   1.564   1.239
 2639SOL     OW 7932   3.763   1.077   0.300
 2639SOL    HW1 7933   3.862   1.066   0.291
 2639SOL    HW2 7934   3.723   0.991   0.332
 2640SOL     OW 7935   3.954   0.628   1.975
 2640SOL    HW1 7936   3.861   0.626   2.012
 2640SOL    HW2 7937   3.955   0.589   1.883
 2641SOL     OW 7938   3.949   0.275   2.858
 2641SOL    HW1 7939   3.984   0.258   2.950
 2641SOL    HW2 7940   3.861   0.230   2.846
 2642SOL     OW 7941   3.743   0.368   2.509
 2642SOL    HW1 7942   3.661   0.411   2.548
 2642SOL    HW2 7943   3.715   0.295   2.446
 2643SOL     OW 7944   4.293   1.275   3.027
 2643SOL    HW1 7945   4.200   1.268   2.990
 2643SOL    HW2 7946   4.304   1.364   3.071
 2644SOL     OW 7947   4.574   0.798   3.685
 2644SOL    HW1 7948   4.570   0.874   3.750
 2644SOL    HW2 7949   4.596   0.834   3.594
 2645SOL     OW 7950   4.409   1.012   2.527
 2645SOL    HW1 7951   4.478   0.996   2.597
 2645SOL    HW2 7952   4.336   1.069   2.565
 2646SOL     OW 7953   4.410   1.161   3.665
 2646SOL    HW1 7954   4.470   1.240   3.679
 2646SOL    HW2 7955   4.324   1.192   3.624
 2647SOL     OW 7956   4.059   1.435   2.923
 2647SOL    HW1 7957   3.981   1.404   2.870
 2647SOL    HW2 7958   4.117   1.493   2.866
 2648SOL     OW 7959   4.162   0.392   3.361
 2648SOL    HW1 7960   4.244   0.336   3.370
 2648SOL    HW2 7961   4.081   0.334   3.365
 2649SOL     OW 7962   3.955   1.713   2.345
 2649SOL    HW1 7963   3.989   1.790   2.399
 2649SOL    HW2 7964   3.999   1.713   2.255
 2650SOL     OW 7965   3.954   1.434   2.400
 2650SOL    HW1 7966   3.928   1.530   2.400
 2650SOL    HW2 7967   3.883   1.380   2.445
 2651SOL     OW 7968   3.964   1.091   2.748
 2651SOL    HW1 7969   3.978   1.007   2.800
 2651SOL    HW2 7970   3.909   1.155   2.803
 2652SOL     OW 7971   4.344   1.786   3.301
 2652SOL    HW1 7972   4.252   1.769   3.336
 2652SOL    HW2 7973   4.372   1.878   3.327
 2653SOL     OW 7974   4.330   0.964   1.985
 2653SOL    HW1 7975   4.337   1.048   1.931
 2653SOL    HW2 7976   4.376   0.977   2.073
 2654SOL     OW 7977   3.846   0.643   2.425
 2654SOL    HW1 7978   3.801   0.555   2.442
 2654SOL    HW2 7979   3.845   0.697   2.509
 2655SOL     OW 7980   3.751   1.596   1.979
 2655SOL    HW1 7981   3.732   1.500   2.000
 2655SOL    HW2 7982   3.718   1.654   2.054
 2656SOL     OW 7983   3.837   0.737   3.459
 2656SOL    HW1 7984   3.925   0.724   3.504
 2656SOL    HW2 7985   3.824   0.834   3.437
 2657SOL     OW 7986   4.337   1.365   2.588
 2657SOL    HW1 7987   4.288   1.278   2.597
 2657SOL    HW2 7988   4.314   1.408   2.501
 2658SOL     OW 7989   4.533   0.004   2.364
 2658SOL    HW1 7990   4.573   0.095   2.355
 2658SOL    HW2 7991   4.433   0.012   2.370
 2659SOL     OW 7992   3.921   0.976   3.126
 2659SOL    HW1 7993   4.010   0.931   3.112
 2659SOL    HW2 7994   3.848   0.911   3.107
 2660SOL     OW 7995   4.041   0.251   3.663
 2660SOL    HW1 7996   4.112   0.322   3.669
 2660SOL    HW2 7997   3.953   0.290   3.691
 2661SOL     OW 7998   4.322   0.729   2.132
 2661SOL    HW1 7999   4.346   0.798   2.064
 2661SOL    HW2 8000   4.244   0.762   2.186
 2662SOL     OW 8001   3.800   0.811   2.651
 2662SOL    HW1 8002   3.899   0.799   2.660
 2662SOL    HW2 8003   3.776   0.906   2.672
 2663SOL     OW 8004   3.854   1.821   3.433
 2663SOL    HW1 8005   3.844   1.806   3.532
 2663SOL    HW2 8006   3.768   1.857   3.397
 2664SOL     OW 8007   4.274   0.196   2.747
 2664SOL    HW1 8008   4.269   0.191   2.847
 2664SOL    HW2 8009   4.276   0.292   2.718
 2665SOL     OW 8010   4.075   1.801   2.715
 2665SOL    HW1 8011   4.125   1.715   2.721
 2665SOL    HW2 8012   4.140   1.878   2.712
 2666SOL     OW 8013   4.045   0.943   2.104
 2666SOL    HW1 8014   4.127   0.982   2.062
 2666SOL    HW2 8015   4.018   0.861   2.055
 2667SOL     OW 8016   4.185   1.266   3.589
 2667SOL    HW1 8017   4.135   1.267   3.503
 2667SOL    HW2 8018   4.122   1.248   3.665
 2668SOL     OW 8019   3.926   0.285   3.360
 2668SOL    HW1 8020   3.846   0.345   3.347
 2668SOL    HW2 8021   3.916   0.236   3.446
 2669SOL     OW 8022   4.188   1.743   2.185
 2669SOL    HW1 8023   4.221   1.782   2.271
 2669SOL    HW2 8024   4.264   1.736   2.120
 2670SOL     OW 8025   3.973   1.785   3.103
 2670SOL    HW1 8026   4.030   1.720   3.153
 2670SOL    HW2 8027   3.957   1.752   3.010
 2671SOL     OW 8028   4.106   0.700   2.342
 2671SOL    HW1 8029   4.151   0.610   2.339
 2671SOL    HW2 8030   4.012   0.689   2.375
 2672SOL     OW 8031   4.338   0.122   1.979
 2672SOL    HW1 8032   4.436   0.100   1.986
 2672SOL    HW2 8033   4.307   0.105   1.886
 2673SOL     OW 8034   4.527   1.402   2.786
 2673SOL    HW1 8035   4.617   1.416   2.744
 2673SOL    HW2 8036   4.456   1.404   2.715
 2674SOL     OW 8037   4.646   0.503   2.761
 2674SOL    HW1 8038   4.621   0.494   2.665
 2674SOL    HW2 8039   4.694   0.421   2.792
 2675SOL     OW 8040   4.263   0.064   2.374
 2675SOL    HW1 8041   4.182   0.065   2.432
 2675SOL    HW2 8042   4.266   0.147   2.319
 2676SOL     OW 8043   4.021   0.035   2.033
 2676SOL    HW1 8044   4.070   0.119   2.012
 2676SOL    HW2 8045   4.083  -0.030   2.078
 2677SOL     OW 8046   4.183   1.152   2.603
 2677SOL    HW1 8047   4.112   1.125   2.668
 2677SOL    HW2 8048   4.157   1.124   2.510
 2678SOL     OW 8049   3.802   0.556   3.248
 2678SOL    HW1 8050   3.894   0.555   3.207
 2678SOL    HW2 8051   3.796   0.630   3.315
 2679SOL     OW 8052   4.285   0.222   3.009
 2679SOL    HW1 8053   4.323   0.138   3.046
 2679SOL    HW2 8054   4.197   0.241   3.053
 2680SOL     OW 8055   4.212   1.385   2.036
 2680SOL    HW1 8056   4.125   1.370   2.083
 2680SOL    HW2 8057   4.195   1.411   1.941
 2681SOL     OW 8058   4.251   0.256   2.190
 2681SOL    HW1 8059   4.278   0.197   2.115
 2681SOL    HW2 8060   4.251   0.351   2.159
 2682SOL     OW 8061   4.639   0.089   3.264
 2682SOL    HW1 8062   4.664   0.069   3.169
 2682SOL    HW2 8063   4.711   0.145   3.306
 2683SOL     OW 8064   4.134   0.813   3.113
 2683SOL    HW1 8065   4.220   0.825   3.163
 2683SOL    HW2 8066   4.092   0.726   3.140
 2684SOL     OW 8067   3.788   1.564   3.193
 2684SOL    HW1 8068   3.742   1.646   3.159
 2684SOL    HW2 8069   3.886   1.583   3.202
 2685SOL     OW 8070   4.091   1.100   2.363
 2685SOL    HW1 8071   4.084   1.183   2.307
 2685SOL    HW2 8072   4.095   1.020   2.303
 2686SOL     OW 8073   4.290   0.537   2.727
 2686SOL    HW1 8074   4.302   0.603   2.653
 2686SOL    HW2 8075   4.336   0.571   2.810
 2687SOL     OW 8076   4.078   1.510   3.191
 2687SOL    HW1 8077   4.057   1.466   3.104
 2687SOL    HW2 8078   4.175   1.536   3.194
 2688SOL     OW 8079   4.126   0.751   3.460
 2688SOL    HW1 8080   4.194   0.806   3.413
 2688SOL    HW2 8081   4.166   0.663   3.487
 2689SOL     OW 8082   4.228   0.050   3.602
 2689SOL    HW1 8083   4.186  -0.007   3.532
 2689SOL    HW2 8084   4.162   0.119   3.634
 2690SOL     OW 8085   4.297   0.870   2.891
 2690SOL    HW1 8086   4.341   0.959   2.882
 2690SOL    HW2 8087   4.234   0.870   2.968
 2691SOL     OW 8088   4.031   0.213   3.093
 2691SOL    HW1 8089   4.008   0.250   3.183
 2691SOL    HW2 8090   4.001   0.118   3.087
 2692SOL     OW 8091   3.761   1.310   3.144
 2692SOL    HW1 8092   3.814   1.261   3.212
 2692SOL    HW2 8093   3.783   1.408   3.149
 2693SOL     OW 8094   4.456   0.634   2.926
 2693SOL    HW1 8095   4.515   0.608   2.850
 2693SOL    HW2 8096   4.428   0.730   2.915
 2694SOL     OW 8097   4.031   0.063   2.480
 2694SOL    HW1 8098   4.020   0.157   2.513
 2694SOL    HW2 8099   4.026   0.000   2.557
 2695SOL     OW 8100   4.074   0.898   3.666
 2695SOL    HW1 8101   4.150   0.942   3.714
 2695SOL    HW2 8102   4.109   0.851   3.584
 2696SOL     OW 8103   4.792   1.333   2.711
 2696SOL    HW1 8104   4.799   1.249   2.656
 2696SOL    HW2 8105   4.854   1.402   2.675
 2697SOL     OW 8106   4.043   0.810   2.811
 2697SOL    HW1 8107   4.136   0.846   2.816
 2697SOL    HW2 8108   4.037   0.725   2.863
 2698SOL     OW 8109   4.063   0.509   2.868
 2698SOL    HW1 8110   4.011   0.426   2.851
 2698SOL    HW2 8111   4.140   0.514   2.804
 2699SOL     OW 8112   3.732   1.326   2.062
 2699SOL    HW1 8113   3.639   1.347   2.031
 2699SOL    HW2 8114   3.742   1.227   2.075
 2700SOL     OW 8115   3.812   1.801   2.789
 2700SOL    HW1 8116   3.770   1.715   2.762
 2700SOL    HW2 8117   3.906   1.804   2.755
 2701SOL     OW 8118   4.228   1.568   2.772
 2701SOL    HW1 8119   4.294   1.642   2.781
 2701SOL    HW2 8120   4.272   1.489   2.730
 2702SOL     OW 8121   3.764   0.544   2.976
 2702SOL    HW1 8122   3.849   0.511   2.935
 2702SOL    HW2 8123   3.777   0.559   3.074
 2703SOL     OW 8124   3.913   0.520   3.584
 2703SOL    HW1 8125   3.972   0.480   3.514
 2703SOL    HW2 8126   3.855   0.591   3.543
 2704SOL     OW 8127   4.539   0.572   2.187
 2704SOL    HW1 8128   4.546   0.483   2.141
 2704SOL    HW2 8129   4.445   0.606   2.179
 2705SOL     OW 8130   3.976   1.564   3.606
 2705SOL    HW1 8131   3.946   1.621   3.682
 2705SOL    HW2 8132   3.969   1.467   3.632
 2706SOL     OW 8133   4.395   0.464   3.131
 2706SOL    HW1 8134   4.361   0.375   3.101
 2706SOL    HW2 8135   4.421   0.518   3.051
 2707SOL     OW 8136   4.197   0.500   2.053
 2707SOL    HW1 8137   4.258   0.580   2.057
 2707SOL    HW2 8138   4.102   0.531   2.060
 2708SOL     OW 8139   3.883   1.137   3.328
 2708SOL    HW1 8140   3.905   1.076   3.404
 2708SOL    HW2 8141   3.893   1.088   3.242
 2709SOL     OW 8142   3.807   1.258   2.884
 2709SOL    HW1 8143   3.802   1.257   2.984
 2709SOL    HW2 8144   3.724   1.217   2.846
 2710SOL     OW 8145   4.412   1.662   3.578
 2710SOL    HW1 8146   4.356   1.743   3.587
 2710SOL    HW2 8147   4.464   1.666   3.492
 2711SOL     OW 8148   3.854   1.794   3.713
 2711SOL    HW1 8149   3.813   1.720   3.766
 2711SOL    HW2 8150   3.918   1.845   3.771
 2712SOL     OW 8151   4.396   1.616   2.016
 2712SOL    HW1 8152   4.405   1.626   1.917
 2712SOL    HW2 8153   4.356   1.527   2.037
 2713SOL     OW 8154   3.987   0.326   2.582
 2713SOL    HW1 8155   3.908   0.377   2.548
 2713SOL    HW2 8156   3.978   0.311   2.680
 2714SOL     OW 8157   4.546   1.002   3.234
 2714SOL    HW1 8158   4.586   1.001   3.142
 2714SOL    HW2 8159   4.556   1.094   3.274
 2715SOL     OW 8160   4.096   1.288   3.352
 2715SOL    HW1 8161   4.083   1.381   3.318
 2715SOL    HW2 8162   4.012   1.236   3.339
 2716SOL     OW 8163   4.314   1.487   2.353
 2716SOL    HW1 8164   4.356   1.429   2.283
 2716SOL    HW2 8165   4.270   1.566   2.309
 2717SOL     OW 8166   3.979   1.348   2.152
 2717SOL    HW1 8167   3.883   1.349   2.125
 2717SOL    HW2 8168   3.991   1.401   2.236
 2718SOL     OW 8169   3.829   1.013   3.588
 2718SOL    HW1 8170   3.752   0.980   3.642
 2718SOL    HW2 8171   3.914   0.983   3.630
 2719SOL     OW 8172   4.396   0.203   3.351
 2719SOL    HW1 8173   4.486   0.187   3.311
 2719SOL    HW2 8174   4.404   0.208   3.450
 2720SOL     OW 8175   3.799   0.345   1.895
 2720SOL    HW1 8176   3.707   0.317   1.866
 2720SOL    HW2 8177   3.830   0.422   1.839
 2721SOL     OW 8178   3.796   0.166   2.180
 2721SOL    HW1 8179   3.779   0.249   2.126
 2721SOL    HW2 8180   3.886   0.129   2.158
 2722SOL     OW 8181   4.337   0.842   3.293
 2722SOL    HW1 8182   4.393   0.923   3.276
 2722SOL    HW2 8183   4.396   0.762   3.296
 2723SOL     OW 8184   4.440   0.565   3.570
 2723SOL    HW1 8185   4.459   0.630   3.644
 2723SOL    HW2 8186   4.500   0.485   3.579
 2724SOL     OW 8187   4.114   1.741   3.422
 2724SOL    HW1 8188   4.023   1.782   3.420
 2724SOL    HW2 8189   4.107   1.647   3.454
 2725SOL     OW 8190   4.318   0.745   2.514
 2725SOL    HW1 8191   4.368   0.830   2.495
 2725SOL    HW2 8192   4.230   0.747   2.466
 2726SOL     OW 8193   4.385   1.790   2.815
 2726SOL    HW1 8194   4.339   1.878   2.802
 2726SOL    HW2 8195   4.484   1.802   2.808
 2727SOL     OW 8196   3.945   1.314   3.706
 2727SOL    HW1 8197   3.880   1.241   3.685
 2727SOL    HW2 8198   3.949   1.328   3.804
 2728SOL     OW 8199   3.803   1.240   2.515
 2728SOL    HW1 8200   3.802   1.193   2.603
 2728SOL    HW2 8201   3.885   1.212   2.464
 2729SOL     OW 8202   4.396   1.391   3.486
 2729SOL    HW1 8203   4.318   1.341   3.524
 2729SOL    HW2 8204   4.393   1.486   3.517
 2730SOL     OW 8205   4.152   0.424   2.382
 2730SOL    HW1 8206   4.182   0.352   2.320
 2730SOL    HW2 8207   4.113   0.384   2.465
 2731SOL     OW 8208   4.041   0.547   3.142
 2731SOL    HW1 8209   4.079   0.488   3.214
 2731SOL    HW2 8210   4.081   0.521   3.054
 2732SOL     OW 8211   4.536   1.586   2.549
 2732SOL    HW1 8212   4.568   1.596   2.455
 2732SOL    HW2 8213   4.457   1.524   2.551
 2733SOL     OW 8214   4.725   0.034   3.016
 2733SOL    HW1 8215   4.662  -0.038   2.985
 2733SOL    HW2 8216   4.818  -0.002   3.016
 2734SOL     OW 8217   4.342   1.567   3.146
 2734SOL    HW1 8218   4.337   1.649   3.203
 2734SOL    HW2 8219   4.431   1.564   3.101
 2735SOL     OW 8220   3.763   1.077   2.162
 2735SOL    HW1 8221   3.862   1.066   2.153
 2735SOL    HW2 8222   3.723   0.991   2.194
 2736SOL     OW 8223   3.954   0.628   3.837
 2736SOL    HW1 8224   3.861   0.626   3.874
 2736SOL    HW2 8225   3.955   0.589   3.745
 2737SOL     OW 8226   3.949   0.275   4.720
 2737SOL    HW1 8227   3.984   0.258   4.812
 2737SOL    HW2 8228   3.861   0.230   4.708
 2738SOL     OW 8229   3.743   0.368   4.371
 2738SOL    HW1 8230   3.661   0.411   4.410
 2738SOL    HW2 8231   3.715   0.295   4.308
 2739SOL     OW 8232   4.409   1.012   4.389
 2739SOL    HW1 8233   4.478   0.996   4.459
 2739SOL    HW2 8234   4.336   1.069   4.427
 2740SOL     OW 8235   3.955   1.713   4.207
 2740SOL    HW1 8236   3.989   1.790   4.261
 2740SOL    HW2 8237   3.999   1.713   4.117
 2741SOL     OW 8238   3.954   1.434   4.262
 2741SOL    HW1 8239   3.928   1.530   4.262
 2741SOL    HW2 8240   3.883   1.380   4.307
 2742SOL     OW 8241   3.964   1.091   4.610
 2742SOL    HW1 8242   3.978   1.007   4.662
 2742SOL    HW2 8243   3.909   1.155   4.665
 2743SOL     OW 8244   4.330   0.964   3.847
 2743SOL    HW1 8245   4.337   1.048   3.793
 2743SOL    HW2 8246   4.376   0.977   3.935
 2744SOL     OW 8247   3.846   0.643   4.287
 2744SOL    HW1 8248   3.801   0.555   4.304
 2744SOL    HW2 8249   3.845   0.697   4.371
 2745SOL     OW 8250   3.751   1.596   3.841
 2745SOL    HW1 8251   3.732   1.500   3.862
 2745SOL    HW2 8252   3.718   1.654   3.916
 2746SOL     OW 8253   4.337   1.365   4.450
 2746SOL    HW1 8254   4.288   1.278   4.459
 2746SOL    HW2 8255   4.314   1.408   4.363
 2747SOL     OW 8256   4.533   0.004   4.226
 2747SOL    HW1 8257   4.573   0.095   4.217
 2747SOL    HW2 8258   4.433   0.012   4.232
 2748SOL     OW 8259   4.322   0.729   3.994
 2748SOL    HW1 8260   4.346   0.798   3.926
 2748SOL    HW2 8261   4.244   0.762   4.048
 2749SOL     OW 8262   3.800   0.811   4.513
 2749SOL    HW1 8263   3.899   0.799   4.522
 2749SOL    HW2 8264   3.776   0.906   4.534
 2750SOL     OW 8265   4.075   1.801   4.577
 2750SOL    HW1 8266   4.125   1.715   4.583
 2750SOL    HW2 8267   4.140   1.878   4.574
 2751SOL     OW 8268   4.045   0.943   3.966
 2751SOL    HW1 8269   4.127   0.982   3.924
 2751SOL    HW2 8270   4.018   0.861   3.917
 2752SOL     OW 8271   4.188   1.743   4.047
 2752SOL    HW1 8272   4.221   1.782   4.133
 2752SOL    HW2 8273   4.264   1.736   3.982
 2753SOL     OW 8274   4.106   0.700   4.204
 2753SOL    HW1 8275   4.151   0.610   4.201
 2753SOL    HW2 8276   4.012   0.689   4.237
 2754SOL     OW 8277   4.338   0.122   3.841
 2754SOL    HW1 8278   4.436   0.100   3.848
 2754SOL    HW2 8279   4.307   0.105   3.748
 2755SOL     OW 8280   4.263   0.064   4.236
 2755SOL    HW1 8281   4.182   0.065   4.294
 2755SOL    HW2 8282   4.266   0.147   4.181
 2756SOL     OW 8283   4.021   0.035   3.895
 2756SOL    HW1 8284   4.070   0.119   3.874
 2756SOL    HW2 8285   4.083  -0.030   3.940
 2757SOL     OW 8286   4.183   1.152   4.465
 2757SOL    HW1 8287   4.112   1.125   4.530
 2757SOL    HW2 8288   4.157   1.124   4.372
 2758SOL     OW 8289   4.212   1.385   3.898
 2758SOL    HW1 8290   4.125   1.370   3.945
 2758SOL    HW2 8291   4.195   1.411   3.803
 2759SOL     OW 8292   4.251   0.256   4.052
 2759SOL    HW1 8293   4.278   0.197   3.977
 2759SOL    HW2 8294   4.251   0.351   4.021
 2760SOL     OW 8295   4.091   1.100   4.225
 2760SOL    HW1 8296   4.084   1.183   4.169
 2760SOL    HW2 8297   4.095   1.020   4.165
 2761SOL     OW 8298   4.031   0.063   4.342
 2761SOL    HW1 8299   4.020   0.157   4.375
 2761SOL    HW2 8300   4.026   0.000   4.419
 2762SOL     OW 8301   4.792   1.333   4.573
 2762SOL    HW1 8302   4.799   1.249   4.518
 2762SOL    HW2 8303   4.854   1.402   4.537
 2763SOL     OW 8304   3.732   1.326   3.924
 2763SOL    HW1 8305   3.639   1.347   3.893
 2763SOL    HW2 8306   3.742   1.227   3.937
 2764SOL     OW 8307   4.539   0.572   4.049
 2764SOL    HW1 8308   4.546   0.483   4.003
 2764SOL    HW2 8309   4.445   0.606   4.041
 2765SOL     OW 8310   4.197   0.500   3.915
 2765SOL    HW1 8311   4.258   0.580   3.919
 2765SOL    HW2 8312   4.102   0.531   3.922
 2766SOL     OW 8313   4.396   1.616   3.878
 2766SOL    HW1 8314   4.405   1.626   3.779
 2766SOL    HW2 8315   4.356   1.527   3.899
 2767SOL     OW 8316   3.987   0.326   4.444
 2767SOL    HW1 8317   3.908   0.377   4.410
 2767SOL    HW2 8318   3.978   0.311   4.542
 2768SOL     OW 8319   4.314   1.487   4.215
 2768SOL    HW1 8320   4.356   1.429   4.145
 2768SOL    HW2 8321   4.270   1.566   4.171
 2769SOL     OW 8322   3.979   1.348   4.014
 2769SOL    HW1 8323   3.883   1.349   3.987
 2769SOL    HW2 8324   3.991   1.401   4.098
 2770SOL     OW 8325   3.799   0.345   3.757
 2770SOL    HW1 8326   3.707   0.317   3.728
 2770SOL    HW2 8327   3.830   0.422   3.701
 2771SOL     OW 8328   3.796   0.166   4.042
 2771SOL    HW1 8329   3.779   0.249   3.988
 2771SOL    HW2 8330   3.886   0.129   4.020
 2772SOL     OW 8331   4.318   0.745   4.376
 2772SOL    HW1 8332   4.368   0.830   4.357
 2772SOL    HW2 8333   4.230   0.747   4.328
 2773SOL     OW 8334   4.385   1.790   4.677
 2773SOL    HW1 8335   4.339   1.878   4.664
 2773SOL    HW2 8336   4.484   1.802   4.670
 2774SOL     OW 8337   3.803   1.240   4.377
 2774SOL    HW1 8338   3.802   1.193   4.465
 2774SOL    HW2 8339   3.885   1.212   4.326
 2775SOL     OW 8340   4.152   0.424   4.244
 2775SOL    HW1 8341   4.182   0.352   4.182
 2775SOL    HW2 8342   4.113   0.384   4.327
 2776SOL     OW 8343   4.536   1.586   4.411
 2776SOL    HW1 8344   4.568   1.596   4.317
 2776SOL    HW2 8345   4.457   1.524   4.413
 2777SOL     OW 8346   3.763   1.077   4.024
 2777SOL    HW1 8347   3.862   1.066   4.015
 2777SOL    HW2 8348   3.723   0.991   4.056
 2778SOL     OW 8349   3.954   2.490   0.113
 2778SOL    HW1 8350   3.861   2.488   0.150
 2778SOL    HW2 8351   3.955   2.451   0.021
 2779SOL     OW 8352   3.949   2.137   0.996
 2779SOL    HW1 8353   3.984   2.120   1.088
 2779SOL    HW2 8354   3.861   2.092   0.984
 2780SOL     OW 8355   3.743   2.230   0.647
 2780SOL    HW1 8356   3.661   2.273   0.686
 2780SOL    HW2 8357   3.715   2.157   0.584
 2781SOL     OW 8358   4.293   3.137   1.165
 2781SOL    HW1 8359   4.200   3.130   1.128
 2781SOL    HW2 8360   4.304   3.226   1.209
 2782SOL     OW 8361   4.574   2.660   1.823
 2782SOL    HW1 8362   4.570   2.736   1.888
 2782SOL    HW2 8363   4.596   2.696   1.732
 2783SOL     OW 8364   4.409   2.874   0.665
 2783SOL    HW1 8365   4.478   2.858   0.735
 2783SOL    HW2 8366   4.336   2.931   0.703
 2784SOL     OW 8367   4.410   3.023   1.803
 2784SOL    HW1 8368   4.470   3.102   1.817
 2784SOL    HW2 8369   4.324   3.054   1.762
 2785SOL     OW 8370   4.059   3.297   1.061
 2785SOL    HW1 8371   3.981   3.266   1.008
 2785SOL    HW2 8372   4.117   3.355   1.004
 2786SOL     OW 8373   4.162   2.254   1.499
 2786SOL    HW1 8374   4.244   2.198   1.508
 2786SOL    HW2 8375   4.081   2.196   1.503
 2787SOL     OW 8376   3.955   3.575   0.483
 2787SOL    HW1 8377   3.989   3.652   0.537
 2787SOL    HW2 8378   3.999   3.575   0.393
 2788SOL     OW 8379   3.954   3.296   0.538
 2788SOL    HW1 8380   3.928   3.392   0.538
 2788SOL    HW2 8381   3.883   3.242   0.583
 2789SOL     OW 8382   3.964   2.953   0.886
 2789SOL    HW1 8383   3.978   2.869   0.938
 2789SOL    HW2 8384   3.909   3.017   0.941
 2790SOL     OW 8385   4.344   3.648   1.439
 2790SOL    HW1 8386   4.252   3.631   1.474
 2790SOL    HW2 8387   4.372   3.740   1.465
 2791SOL     OW 8388   4.330   2.826   0.123
 2791SOL    HW1 8389   4.337   2.910   0.069
 2791SOL    HW2 8390   4.376   2.839   0.211
 2792SOL     OW 8391   3.846   2.505   0.563
 2792SOL    HW1 8392   3.801   2.417   0.580
 2792SOL    HW2 8393   3.845   2.559   0.647
 2793SOL     OW 8394   3.751   3.458   0.117
 2793SOL    HW1 8395   3.732   3.362   0.138
 2793SOL    HW2 8396   3.718   3.516   0.192
 2794SOL     OW 8397   3.837   2.599   1.597
 2794SOL    HW1 8398   3.925   2.586   1.642
 2794SOL    HW2 8399   3.824   2.696   1.575
 2795SOL     OW 8400   4.337   3.227   0.726
 2795SOL    HW1 8401   4.288   3.140   0.735
 2795SOL    HW2 8402   4.314   3.270   0.639
 2796SOL     OW 8403   4.533   1.866   0.502
 2796SOL    HW1 8404   4.573   1.957   0.493
 2796SOL    HW2 8405   4.433   1.874   0.508
 2797SOL     OW 8406   3.921   2.838   1.264
 2797SOL    HW1 8407   4.010   2.793   1.250
 2797SOL    HW2 8408   3.848   2.773   1.245
 2798SOL     OW 8409   4.041   2.113   1.801
 2798SOL    HW1 8410   4.112   2.184   1.807
 2798SOL    HW2 8411   3.953   2.152   1.829
 2799SOL     OW 8412   4.322   2.591   0.270
 2799SOL    HW1 8413   4.346   2.660   0.202
 2799SOL    HW2 8414   4.244   2.624   0.324
 2800SOL     OW 8415   3.800   2.673   0.789
 2800SOL    HW1 8416   3.899   2.661   0.798
 2800SOL    HW2 8417   3.776   2.768   0.810
 2801SOL     OW 8418   3.854   3.683   1.571
 2801SOL    HW1 8419   3.844   3.668   1.670
 2801SOL    HW2 8420   3.768   3.719   1.535
 2802SOL     OW 8421   4.274   2.058   0.885
 2802SOL    HW1 8422   4.269   2.053   0.985
 2802SOL    HW2 8423   4.276   2.154   0.856
 2803SOL     OW 8424   4.075   3.663   0.853
 2803SOL    HW1 8425   4.125   3.577   0.859
 2803SOL    HW2 8426   4.140   3.740   0.850
 2804SOL     OW 8427   4.045   2.805   0.242
 2804SOL    HW1 8428   4.127   2.844   0.200
 2804SOL    HW2 8429   4.018   2.723   0.193
 2805SOL     OW 8430   4.185   3.128   1.727
 2805SOL    HW1 8431   4.135   3.129   1.641
 2805SOL    HW2 8432   4.122   3.110   1.803
 2806SOL     OW 8433   3.926   2.147   1.498
 2806SOL    HW1 8434   3.846   2.207   1.485
 2806SOL    HW2 8435   3.916   2.098   1.584
 2807SOL     OW 8436   4.188   3.605   0.323
 2807SOL    HW1 8437   4.221   3.644   0.409
 2807SOL    HW2 8438   4.264   3.598   0.258
 2808SOL     OW 8439   3.973   3.647   1.241
 2808SOL    HW1 8440   4.030   3.582   1.291
 2808SOL    HW2 8441   3.957   3.614   1.148
 2809SOL     OW 8442   4.106   2.562   0.480
 2809SOL    HW1 8443   4.151   2.472   0.477
 2809SOL    HW2 8444   4.012   2.551   0.513
 2810SOL     OW 8445   4.527   3.264   0.924
 2810SOL    HW1 8446   4.617   3.278   0.882
 2810SOL    HW2 8447   4.456   3.266   0.853
 2811SOL     OW 8448   4.646   2.365   0.899
 2811SOL    HW1 8449   4.621   2.356   0.803
 2811SOL    HW2 8450   4.694   2.283   0.930
 2812SOL     OW 8451   4.263   1.926   0.512
 2812SOL    HW1 8452   4.182   1.927   0.570
 2812SOL    HW2 8453   4.266   2.009   0.457
 2813SOL     OW 8454   4.021   1.897   0.171
 2813SOL    HW1 8455   4.070   1.981   0.150
 2813SOL    HW2 8456   4.083   1.832   0.216
 2814SOL     OW 8457   4.183   3.014   0.741
 2814SOL    HW1 8458   4.112   2.987   0.806
 2814SOL    HW2 8459   4.157   2.986   0.648
 2815SOL     OW 8460   3.802   2.418   1.386
 2815SOL    HW1 8461   3.894   2.417   1.345
 2815SOL    HW2 8462   3.796   2.492   1.453
 2816SOL     OW 8463   4.285   2.084   1.147
 2816SOL    HW1 8464   4.323   2.000   1.184
 2816SOL    HW2 8465   4.197   2.103   1.191
 2817SOL     OW 8466   4.212   3.247   0.174
 2817SOL    HW1 8467   4.125   3.232   0.221
 2817SOL    HW2 8468   4.195   3.273   0.079
 2818SOL     OW 8469   4.251   2.118   0.328
 2818SOL    HW1 8470   4.278   2.059   0.253
 2818SOL    HW2 8471   4.251   2.213   0.297
 2819SOL     OW 8472   4.639   1.951   1.402
 2819SOL    HW1 8473   4.664   1.931   1.307
 2819SOL    HW2 8474   4.711   2.007   1.444
 2820SOL     OW 8475   4.134   2.675   1.251
 2820SOL    HW1 8476   4.220   2.687   1.301
 2820SOL    HW2 8477   4.092   2.588   1.278
 2821SOL     OW 8478   3.788   3.426   1.331
 2821SOL    HW1 8479   3.742   3.508   1.297
 2821SOL    HW2 8480   3.886   3.445   1.340
 2822SOL     OW 8481   4.091   2.962   0.501
 2822SOL    HW1 8482   4.084   3.045   0.445
 2822SOL    HW2 8483   4.095   2.882   0.441
 2823SOL     OW 8484   4.290   2.399   0.865
 2823SOL    HW1 8485   4.302   2.465   0.791
 2823SOL    HW2 8486   4.336   2.433   0.948
 2824SOL     OW 8487   4.078   3.372   1.329
 2824SOL    HW1 8488   4.057   3.328   1.242
 2824SOL    HW2 8489   4.175   3.398   1.332
 2825SOL     OW 8490   4.126   2.613   1.598
 2825SOL    HW1 8491   4.194   2.668   1.551
 2825SOL    HW2 8492   4.166   2.525   1.625
 2826SOL     OW 8493   4.228   1.912   1.740
 2826SOL    HW1 8494   4.186   1.855   1.670
 2826SOL    HW2 8495   4.162   1.981   1.772
 2827SOL     OW 8496   4.297   2.732   1.029
 2827SOL    HW1 8497   4.341   2.821   1.020
 2827SOL    HW2 8498   4.234   2.732   1.106
 2828SOL     OW 8499   4.031   2.075   1.231
 2828SOL    HW1 8500   4.008   2.112   1.321
 2828SOL    HW2 8501   4.001   1.980   1.225
 2829SOL     OW 8502   3.761   3.172   1.282
 2829SOL    HW1 8503   3.814   3.123   1.350
 2829SOL    HW2 8504   3.783   3.270   1.287
 2830SOL     OW 8505   4.456   2.496   1.064
 2830SOL    HW1 8506   4.515   2.470   0.988
 2830SOL    HW2 8507   4.428   2.592   1.053
 2831SOL     OW 8508   4.031   1.925   0.618
 2831SOL    HW1 8509   4.020   2.019   0.651
 2831SOL    HW2 8510   4.026   1.862   0.695
 2832SOL     OW 8511   4.074   2.760   1.804
 2832SOL    HW1 8512   4.150   2.804   1.852
 2832SOL    HW2 8513   4.109   2.713   1.722
 2833SOL     OW 8514   4.792   3.195   0.849
 2833SOL    HW1 8515   4.799   3.111   0.794
 2833SOL    HW2 8516   4.854   3.264   0.813
 2834SOL     OW 8517   4.043   2.672   0.949
 2834SOL    HW1 8518   4.136   2.708   0.954
 2834SOL    HW2 8519   4.037   2.587   1.001
 2835SOL     OW 8520   4.063   2.371   1.006
 2835SOL    HW1 8521   4.011   2.288   0.989
 2835SOL    HW2 8522   4.140   2.376   0.942
 2836SOL     OW 8523   3.732   3.188   0.200
 2836SOL    HW1 8524   3.639   3.209   0.169
 2836SOL    HW2 8525   3.742   3.089   0.213
 2837SOL     OW 8526   3.812   3.663   0.927
 2837SOL    HW1 8527   3.770   3.577   0.900
 2837SOL    HW2 8528   3.906   3.666   0.893
 2838SOL     OW 8529   4.228   3.430   0.910
 2838SOL    HW1 8530   4.294   3.504   0.919
 2838SOL    HW2 8531   4.272   3.351   0.868
 2839SOL     OW 8532   3.764   2.406   1.114
 2839SOL    HW1 8533   3.849   2.373   1.073
 2839SOL    HW2 8534   3.777   2.421   1.212
 2840SOL     OW 8535   3.913   2.382   1.722
 2840SOL    HW1 8536   3.972   2.342   1.652
 2840SOL    HW2 8537   3.855   2.453   1.681
 2841SOL     OW 8538   3.976   3.426   1.744
 2841SOL    HW1 8539   3.946   3.483   1.820
 2841SOL    HW2 8540   3.969   3.329   1.770
 2842SOL     OW 8541   4.395   2.326   1.269
 2842SOL    HW1 8542   4.361   2.237   1.239
 2842SOL    HW2 8543   4.421   2.380   1.189
 2843SOL     OW 8544   4.197   2.362   0.191
 2843SOL    HW1 8545   4.258   2.442   0.195
 2843SOL    HW2 8546   4.102   2.393   0.198
 2844SOL     OW 8547   3.883   2.999   1.466
 2844SOL    HW1 8548   3.905   2.938   1.542
 2844SOL    HW2 8549   3.893   2.950   1.380
 2845SOL     OW 8550   3.807   3.120   1.022
 2845SOL    HW1 8551   3.802   3.119   1.122
 2845SOL    HW2 8552   3.724   3.079   0.984
 2846SOL     OW 8553   4.412   3.524   1.716
 2846SOL    HW1 8554   4.356   3.605   1.725
 2846SOL    HW2 8555   4.464   3.528   1.630
 2847SOL     OW 8556   3.854   3.656   1.851
 2847SOL    HW1 8557   3.813   3.582   1.904
 2847SOL    HW2 8558   3.918   3.707   1.909
 2848SOL     OW 8559   4.396   3.478   0.154
 2848SOL    HW1 8560   4.405   3.488   0.055
 2848SOL    HW2 8561   4.356   3.389   0.175
 2849SOL     OW 8562   3.987   2.188   0.720
 2849SOL    HW1 8563   3.908   2.239   0.686
 2849SOL    HW2 8564   3.978   2.173   0.818
 2850SOL     OW 8565   4.546   2.864   1.372
 2850SOL    HW1 8566   4.586   2.863   1.280
 2850SOL    HW2 8567   4.556   2.956   1.412
 2851SOL     OW 8568   4.096   3.150   1.490
 2851SOL    HW1 8569   4.083   3.243   1.456
 2851SOL    HW2 8570   4.012   3.098   1.477
 2852SOL     OW 8571   4.314   3.349   0.491
 2852SOL    HW1 8572   4.356   3.291   0.421
 2852SOL    HW2 8573   4.270   3.428   0.447
 2853SOL     OW 8574   3.979   3.210   0.290
 2853SOL    HW1 8575   3.883   3.211   0.263
 2853SOL    HW2 8576   3.991   3.263   0.374
 2854SOL     OW 8577   3.829   2.875   1.726
 2854SOL    HW1 8578   3.752   2.842   1.780
 2854SOL    HW2 8579   3.914   2.845   1.768
 2855SOL     OW 8580   4.396   2.065   1.489
 2855SOL    HW1 8581   4.486   2.049   1.449
 2855SOL    HW2 8582   4.404   2.070   1.588
 2856SOL     OW 8583   3.799   2.207   0.033
 2856SOL    HW1 8584   3.707   2.179   0.004
 2856SOL    HW2 8585   3.830   2.284  -0.023
 2857SOL     OW 8586   3.796   2.028   0.318
 2857SOL    HW1 8587   3.779   2.111   0.264
 2857SOL    HW2 8588   3.886   1.991   0.296
 2858SOL     OW 8589   4.337   2.704   1.431
 2858SOL    HW1 8590   4.393   2.785   1.414
 2858SOL    HW2 8591   4.396   2.624   1.434
 2859SOL     OW 8592   4.440   2.427   1.708
 2859SOL    HW1 8593   4.459   2.492   1.782
 2859SOL    HW2 8594   4.500   2.347   1.717
 2860SOL     OW 8595   4.114   3.603   1.560
 2860SOL    HW1 8596   4.023   3.644   1.558
 2860SOL    HW2 8597   4.107   3.509   1.592
 2861SOL     OW 8598   4.318   2.607   0.652
 2861SOL    HW1 8599   4.368   2.692   0.633
 2861SOL    HW2 8600   4.230   2.609   0.604
 2862SOL     OW 8601   4.385   3.652   0.953
 2862SOL    HW1 8602   4.339   3.740   0.940
 2862SOL    HW2 8603   4.484   3.664   0.946
 2863SOL     OW 8604   3.945   3.176   1.844
 2863SOL    HW1 8605   3.880   3.103   1.823
 2863SOL    HW2 8606   3.949   3.190   1.942
 2864SOL     OW 8607   3.803   3.102   0.653
 2864SOL    HW1 8608   3.802   3.055   0.741
 2864SOL    HW2 8609   3.885   3.074   0.602
 2865SOL     OW 8610   4.396   3.253   1.624
 2865SOL    HW1 8611   4.318   3.203   1.662
 2865SOL    HW2 8612   4.393   3.348   1.655
 2866SOL     OW 8613   4.152   2.286   0.520
 2866SOL    HW1 8614   4.182   2.214   0.458
 2866SOL    HW2 8615   4.113   2.246   0.603
 2867SOL     OW 8616   4.041   2.409   1.280
 2867SOL    HW1 8617   4.079   2.350   1.352
 2867SOL    HW2 8618   4.081   2.383   1.192
 2868SOL     OW 8619   4.536   3.448   0.687
 2868SOL    HW1 8620   4.568   3.458   0.593
 2868SOL    HW2 8621   4.457   3.386   0.689
 2869SOL     OW 8622   4.342   3.429   1.284
 2869SOL    HW1 8623   4.337   3.511   1.341
 2869SOL    HW2 8624   4.431   3.426   1.239
 2870SOL     OW 8625   3.763   2.939   0.300
 2870SOL    HW1 8626   3.862   2.928   0.291
 2870SOL    HW2 8627   3.723   2.853   0.332
 2871SOL     OW 8628   3.954   2.490   1.975
 2871SOL    HW1 8629   3.861   2.488   2.012
 2871SOL    HW2 8630   3.955   2.451   1.883
 2872SOL     OW 8631   3.949   2.137   2.858
 2872SOL    HW1 8632   3.984   2.120   2.950
 2872SOL    HW2 8633   3.861   2.092   2.846
 2873SOL     OW 8634   3.743   2.230   2.509
 2873SOL    HW1 8635   3.661   2.273   2.548
 2873SOL    HW2 8636   3.715   2.157   2.446
 2874SOL     OW 8637   4.293   3.137   3.027
 2874SOL    HW1 8638   4.200   3.130   2.990
 2874SOL    HW2 8639   4.304   3.226   3.071
 2875SOL     OW 8640   4.574   2.660   3.685
 2875SOL    HW1 8641   4.570   2.736   3.750
 2875SOL    HW2 8642   4.596   2.696   3.594
 2876SOL     OW 8643   4.409   2.874   2.527
 2876SOL    HW1 8644   4.478   2.858   2.597
 2876SOL    HW2 8645   4.336   2.931   2.565
 2877SOL     OW 8646   4.410   3.023   3.665
 2877SOL    HW1 8647   4.470   3.102   3.679
 2877SOL    HW2 8648   4.324   3.054   3.624
 2878SOL     OW 8649   4.059   3.297   2.923
 2878SOL    HW1 8650   3.981   3.266   2.870
 2878SOL    HW2 8651   4.117   3.355   2.866
 2879SOL     OW 8652   4.162   2.254   3.361
 2879SOL    HW1 8653   4.244   2.198   3.370
 2879SOL    HW2 8654   4.081   2.196   3.365
 2880SOL     OW 8655   3.955   3.575   2.345
 2880SOL    HW1 8656   3.989   3.652   2.399
 2880SOL    HW2 8657   3.999   3.575   2.255
 2881SOL     OW 8658   3.954   3.296   2.400
 2881SOL    HW1 8659   3.928   3.392   2.400
 2881SOL    HW2 8660   3.883   3.242   2.445
 2882SOL     OW 8661   3.964   2.953   2.748
 2882SOL    HW1 8662   3.978   2.869   2.800
 2882SOL    HW2 8663   3.909   3.017   2.803
 2883SOL     OW 8664   4.344   3.648   3.301
 2883SOL    HW1 8665   4.252   3.631   3.336
 2883SOL    HW2 8666   4.372   3.740   3.327
 2884SOL     OW 8667   4.330   2.826   1.985
 2884SOL    HW1 8668   4.337   2.910   1.931
 2884SOL    HW2 8669   4.376   2.839   2.073
 2885SOL     OW 8670   3.846   2.505   2.425
 2885SOL    HW1 8671   3.801   2.417   2.442
 2885SOL    HW2 8672   3.845   2.559   2.509
 2886SOL     OW 8673   3.751   3.458   1.979
 2886SOL    HW1 8674   3.732   3.362   2.000
 2886SOL    HW2 8675   3.718   3.516   2.054
 2887SOL     OW 8676   3.837   2.599   3.459
 2887SOL    HW1 8677   3.925   2.586   3.504
 2887SOL    HW2 8678   3.824   2.696   3.437
 2888SOL     OW 8679   4.337   3.227   2.588
 2888SOL    HW1 8680   4.288   3.140   2.597
 2888SOL    HW2 8681   4.314   3.270   2.501
 2889SOL     OW 8682   4.533   1.866   2.364
 2889SOL    HW1 8683   4.573   1.957   2.355
 2889SOL    HW2 8684   4.433   1.874   2.370
 2890SOL     OW 8685   3.921   2.838   3.126
 2890SOL    HW1 8686   4.010   2.793   3.112
 2890SOL    HW2 8687   3.848   2.773   3.107
 2891SOL     OW 8688   4.041   2.113   3.663
 2891SOL    HW1 8689   4.112   2.184   3.669
 2891SOL    HW2 8690   3.953   2.152   3.691
 2892SOL     OW 8691   4.322   2.591   2.132
 2892SOL    HW1 8692   4.346   2.660   2.064
 2892SOL    HW2 8693   4.244   2.624   2.186
 2893SOL     OW 8694   3.800   2.673   2.651
 2893SOL    HW1 8695   3.899   2.661   2.660
 2893SOL    HW2 8696   3.776   2.768   2.672
 2894SOL     OW 8697   3.854   3.683   3.433
 2894SOL    HW1 8698   3.844   3.668   3.532
 2894SOL    HW2 8699   3.768   3.719   3.397
 2895SOL     OW 8700   4.274   2.058   2.747
 2895SOL    HW1 8701   4.269   2.053   2.847
 2895SOL    HW2 8702   4.276   2.154   2.718
 2896SOL     OW 8703   4.075   3.663   2.715
 2896SOL    HW1 8704   4.125   3.577   2.721
 2896SOL    HW2 8705   4.140   3.740   2.712
 2897SOL     OW 8706   4.045   2.805   2.104
 2897SOL    HW1 8707   4.127   2.844   2.062
 2897SOL    HW2 8708   4.018   2.723   2.055
 2898SOL     OW 8709   4.185   3.128   3.589
 2898SOL    HW1 8710   4.135   3.129   3.503
 2898SOL    HW2 8711   4.122   3.110   3.665
 2899SOL     OW 8712   3.926   2.147   3.360
 2899SOL    HW1 8713   3.846   2.207   3.347
 2899SOL    HW2 8714   3.916   2.098   3.446
 2900SOL     OW 8715   4.188   3.605   2.185
 2900SOL    HW1 8716   4.221   3.644   2.271
 2900SOL    HW2 8717   4.264   3.598   2.120
 2901SOL     OW 8718   3.973   3.647   3.103
 2901SOL    HW1 8719   4.030   3.582   3.153
 2901SOL    HW2 8720   3.957   3.614   3.010
 2902SOL     OW 8721   4.106   2.562   2.342
 2902SOL    HW1 8722   4.151   2.472   2.339
 2902SOL    HW2 8723   4.012   2.551   2.375
 2903SOL     OW 8724   4.338   1.984   1.979
 2903SOL    HW1 8725   4.436   1.962   1.986
 2903SOL    HW2 8726   4.307   1.967   1.886
 2904SOL     OW 8727   4.527   3.264   2.786
 2904SOL    HW1 8728   4.617   3.278   2.744
 2904SOL    HW2 8729   4.456   3.266   2.715
 2905SOL     OW 8730   4.646   2.365   2.761
 2905SOL    HW1 8731   4.621   2.356   2.665
 2905SOL    HW2 8732   4.694   2.283   2.792
 2906SOL     OW 8733   4.263   1.926   2.374
 2906SOL    HW1 8734   4.182   1.927   2.432
 2906SOL    HW2 8735   4.266   2.009   2.319
 2907SOL     OW 8736   4.021   1.897   2.033
 2907SOL    HW1 8737   4.070   1.981   2.012
 2907SOL    HW2 8738   4.083   1.832   2.078
 2908SOL     OW 8739   4.183   3.014   2.603
 2908SOL    HW1 8740   4.112   2.987   2.668
 2908SOL    HW2 8741   4.157   2.986   2.510
 2909SOL     OW 8742   3.802   2.418   3.248
 2909SOL    HW1 8743   3.894   2.417   3.207
 2909SOL    HW2 8744   3.796   2.492   3.315
 2910SOL     OW 8745   4.285   2.084   3.009
 2910SOL    HW1 8746   4.323   2.000   3.046
 2910SOL    HW2 8747   4.197   2.103   3.053
 2911SOL     OW 8748   4.212   3.247   2.036
 2911SOL    HW1 8749   4.125   3.232   2.083
 2911SOL    HW2 8750   4.195   3.273   1.941
 2912SOL     OW 8751   4.251   2.118   2.190
 2912SOL    HW1 8752   4.278   2.059   2.115
 2912SOL    HW2 8753   4.251   2.213   2.159
 2913SOL     OW 8754   4.639   1.951   3.264
 2913SOL    HW1 8755   4.664   1.931   3.169
 2913SOL    HW2 8756   4.711   2.007   3.306
 2914SOL     OW 8757   4.134   2.675   3.113
 2914SOL    HW1 8758   4.220   2.687   3.163
 2914SOL    HW2 8759   4.092   2.588   3.140
 2915SOL     OW 8760   3.788   3.426   3.193
 2915SOL    HW1 8761   3.742   3.508   3.159
 2915SOL    HW2 8762   3.886   3.445   3.202
 2916SOL     OW 8763   4.091   2.962   2.363
 2916SOL    HW1 8764   4.084   3.045   2.307
 2916SOL    HW2 8765   4.095   2.882   2.303
 2917SOL     OW 8766   4.290   2.399   2.727
 2917SOL    HW1 8767   4.302   2.465   2.653
 2917SOL    HW2 8768   4.336   2.433   2.810
 2918SOL     OW 8769   4.078   3.372   3.191
 2918SOL    HW1 8770   4.057   3.328   3.104
 2918SOL    HW2 8771   4.175   3.398   3.194
 2919SOL     OW 8772   4.126   2.613   3.460
 2919SOL    HW1 8773   4.194   2.668   3.413
 2919SOL    HW2 8774   4.166   2.525   3.487
 2920SOL     OW 8775   4.228   1.912   3.602
 2920SOL    HW1 8776   4.186   1.855   3.532
 2920SOL    HW2 8777   4.162   1.981   3.634
 2921SOL     OW 8778   4.297   2.732   2.891
 2921SOL    HW1 8779   4.341   2.821   2.882
 2921SOL    HW2 8780   4.234   2.732   2.968
 2922SOL     OW 8781   4.031   2.075   3.093
 2922SOL    HW1 8782   4.008   2.112   3.183
 2922SOL    HW2 8783   4.001   1.980   3.087
 2923SOL     OW 8784   3.761   3.172   3.144
 2923SOL    HW1 8785   3.814   3.123   3.212
 2923SOL    HW2 8786   3.783   3.270   3.149
 2924SOL     OW 8787   4.456   2.496   2.926
 2924SOL    HW1 8788   4.515   2.470   2.850
 2924SOL    HW2 8789   4.428   2.592   2.915
 2925SOL     OW 8790   4.031   1.925   2.480
 2925SOL    HW1 8791   4.020   2.019   2.513
 2925SOL    HW2 8792   4.026   1.862   2.557
 2926SOL     OW 8793   4.074   2.760   3.666
 2926SOL    HW1 8794   4.150   2.804   3.714
 2926SOL    HW2 8795   4.109   2.713   3.584
 2927SOL     OW 8796   4.792   3.195   2.711
 2927SOL    HW1 8797   4.799   3.111   2.656
 2927SOL    HW2 8798   4.854   3.264   2.675
 2928SOL     OW 8799   4.043   2.672   2.811
 2928SOL    HW1 8800   4.136   2.708   2.816
 2928SOL    HW2 8801   4.037   2.587   2.863
 2929SOL     OW 8802   4.063   2.371   2.868
 2929SOL    HW1 8803   4.011   2.288   2.851
 2929SOL    HW2 8804   4.140   2.376   2.804
 2930SOL     OW 8805   3.732   3.188   2.062
 2930SOL    HW1 8806   3.639   3.209   2.031
 2930SOL    HW2 8807   3.742   3.089   2.075
 2931SOL     OW 8808   3.812   3.663   2.789
 2931SOL    HW1 8809   3.770   3.577   2.762
 2931SOL    HW2 8810   3.906   3.666   2.755
 2932SOL     OW 8811   4.228   3.430   2.772
 2932SOL    HW1 8812   4.294   3.504   2.781
 2932SOL    HW2 8813   4.272   3.351   2.730
 2933SOL     OW 8814   3.764   2.406   2.976
 2933SOL    HW1 8815   3.849   2.373   2.935
 2933SOL    HW2 8816   3.777   2.421   3.074
 2934SOL     OW 8817   3.913   2.382   3.584
 2934SOL    HW1 8818   3.972   2.342   3.514
 2934SOL    HW2 8819   3.855   2.453   3.543
 2935SOL     OW 8820   4.539   2.434   2.187
 2935SOL    HW1 8821   4.546   2.345   2.141
 2935SOL    HW2 8822   4.445   2.468   2.179
 2936SOL     OW 8823   3.976   3.426   3.606
 2936SOL    HW1 8824   3.946   3.483   3.682
 2936SOL    HW2 8825   3.969   3.329   3.632
 2937SOL     OW 8826   4.395   2.326   3.131
 2937SOL    HW1 8827   4.361   2.237   3.101
 2937SOL    HW2 8828   4.421   2.380   3.051
 2938SOL     OW 8829   4.197   2.362   2.053
 2938SOL    HW1 8830   4.258   2.442   2.057
 2938SOL    HW2 8831   4.102   2.393   2.060
 2939SOL     OW 8832   3.883   2.999   3.328
 2939SOL    HW1 8833   3.905   2.938   3.404
 2939SOL    HW2 8834   3.893   2.950   3.242
 2940SOL     OW 8835   3.807   3.120   2.884
 2940SOL    HW1 8836   3.802   3.119   2.984
 2940SOL    HW2 8837   3.724   3.079   2.846
 2941SOL     OW 8838   4.412   3.524   3.578
 2941SOL    HW1 8839   4.356   3.605   3.587
 2941SOL    HW2 8840   4.464   3.528   3.492
 2942SOL     OW 8841   3.854   3.656   3.713
 2942SOL    HW1 8842   3.813   3.582   3.766
 2942SOL    HW2 8843   3.918   3.707   3.771
 2943SOL     OW 8844   4.396   3.478   2.016
 2943SOL    HW1 8845   4.405   3.488   1.917
 2943SOL    HW2 8846   4.356   3.389   2.037
 2944SOL     OW 8847   3.987   2.188   2.582
 2944SOL    HW1 8848   3.908   2.239   2.548
 2944SOL    HW2 8849   3.978   2.173   2.680
 2945SOL     OW 8850   4.546   2.864   3.234
 2945SOL    HW1 8851   4.586   2.863   3.142
 2945SOL    HW2 8852   4.556   2.956   3.274
 2946SOL     OW 8853   4.096   3.150   3.352
 2946SOL    HW1 8854   4.083   3.243   3.318
 2946SOL    HW2 8855   4.012   3.098   3.339
 2947SOL     OW 8856   4.314   3.349   2.353
 2947SOL    HW1 8857   4.356   3.291   2.283
 2947SOL    HW2 8858   4.270   3.428   2.309
 2948SOL     OW 8859   3.979   3.210   2.152
 2948SOL    HW1 8860   3.883   3.211   2.125
 2948SOL    HW2 8861   3.991   3.263   2.236
 2949SOL     OW 8862   3.829   2.875   3.588
 2949SOL    HW1 8863   3.752   2.842   3.642
 2949SOL    HW2 8864   3.914   2.845   3.630
 2950SOL     OW 8865   4.396   2.065   3.351
 2950SOL    HW1 8866   4.486   2.049   3.311
 2950SOL    HW2 8867   4.404   2.070   3.450
 2951SOL     OW 8868   3.799   2.207   1.895
 2951SOL    HW1 8869   3.707   2.179   1.866
 2951SOL    HW2 8870   3.830   2.284   1.839
 2952SOL     OW 8871   3.796   2.028   2.180
 2952SOL    HW1 8872   3.779   2.111   2.126
 2952SOL    HW2 8873   3.886   1.991   2.158
 2953SOL     OW 8874   4.337   2.704   3.293
 2953SOL    HW1 8875   4.393   2.785   3.276
 2953SOL    HW2 8876   4.396   2.624   3.296
 2954SOL     OW 8877   4.440   2.427   3.570
 2954SOL    HW1 8878   4.459   2.492   3.644
 2954SOL    HW2 8879   4.500   2.347   3.579
 2955SOL     OW 8880   4.114   3.603   3.422
 2955SOL    HW1 8881   4.023   3.644   3.420
 2955SOL    HW2 8882   4.107   3.509   3.454
 2956SOL     OW 8883   4.318   2.607   2.514
 2956SOL    HW1 8884   4.368   2.692   2.495
 2956SOL    HW2 8885   4.230   2.609   2.466
 2957SOL     OW 8886   4.385   3.652   2.815
 2957SOL    HW1 8887   4.339   3.740   2.802
 2957SOL    HW2 8888   4.484   3.664   2.808
 2958SOL     OW 8889   3.945   3.176   3.706
 2958SOL    HW1 8890   3.880   3.103   3.685
 2958SOL    HW2 8891   3.949   3.190   3.804
 2959SOL     OW 8892   3.803   3.102   2.515
 2959SOL    HW1 8893   3.802   3.055   2.603
 2959SOL    HW2 8894   3.885   3.074   2.464
 2960SOL     OW 8895   4.396   3.253   3.486
 2960SOL    HW1 8896   4.318   3.203   3.524
 2960SOL    HW2 8897   4.393   3.348   3.517
 2961SOL     OW 8898   4.152   2.286   2.382
 2961SOL    HW1 8899   4.182   2.214   2.320
 2961SOL    HW2 8900   4.113   2.246   2.465
 2962SOL     OW 8901   4.041   2.409   3.142
 2962SOL    HW1 8902   4.079   2.350   3.214
 2962SOL    HW2 8903   4.081   2.383   3.054
 2963SOL     OW 8904   4.536   3.448   2.549
 2963SOL    HW1 8905   4.568   3.458   2.455
 2963SOL    HW2 8906   4.457   3.386   2.551
 2964SOL     OW 8907   4.342   3.429   3.146
 2964SOL    HW1 8908   4.337   3.511   3.203
 2964SOL    HW2 8909   4.431   3.426   3.101
 2965SOL     OW 8910   3.763   2.939   2.162
 2965SOL    HW1 8911   3.862   2.928   2.153
 2965SOL    HW2 8912   3.723   2.853   2.194
 2966SOL     OW 8913   3.954   2.490   3.837
 2966SOL    HW1 8914   3.861   2.488   3.874
 2966SOL    HW2 8915   3.955   2.451   3.745
 2967SOL     OW 8916   3.949   2.137   4.720
 2967SOL    HW1 8917   3.984   2.120   4.812
 2967SOL    HW2 8918   3.861   2.092   4.708
 2968SOL     OW 8919   3.743   2.230   4.371
 2968SOL    HW1 8920   3.661   2.273   4.410
 2968SOL    HW2 8921   3.715   2.157   4.308
 2969SOL     OW 8922   4.409   2.874   4.389
 2969SOL    HW1 8923   4.478   2.858   4.459
 2969SOL    HW2 8924   4.336   2.931   4.427
 2970SOL     OW 8925   3.955   3.575   4.207
 2970SOL    HW1 8926   3.989   3.652   4.261
 2970SOL    HW2 8927   3.999   3.575   4.117
 2971SOL     OW 8928   3.954   3.296   4.262
 2971SOL    HW1 8929   3.928   3.392   4.262
 2971SOL    HW2 8930   3.883   3.242   4.307
 2972SOL     OW 8931   3.964   2.953   4.610
 2972SOL    HW1 8932   3.978   2.869   4.662
 2972SOL    HW2 8933   3.909   3.017   4.665
 2973SOL     OW 8934   4.330   2.826   3.847
 2973SOL    HW1 8935   4.337   2.910   3.793
 2973SOL    HW2 8936   4.376   2.839   3.935
 2974SOL     OW 8937   3.846   2.505   4.287
 2974SOL    HW1 8938   3.801   2.417   4.304
 2974SOL    HW2 8939   3.845   2.559   4.371
 2975SOL     OW 8940   3.751   3.458   3.841
 2975SOL    HW1 8941   3.732   3.362   3.862
 2975SOL    HW2 8942   3.718   3.516   3.916
 2976SOL     OW 8943   4.337   3.227   4.450
 2976SOL    HW1 8944   4.288   3.140   4.459
 2976SOL    HW2 8945   4.314   3.270   4.363
 2977SOL     OW 8946   4.533   1.866   4.226
 2977SOL    HW1 8947   4.573   1.957   4.217
 2977SOL    HW2 8948   4.433   1.874   4.232
 2978SOL     OW 8949   4.322   2.591   3.994
 2978SOL    HW1 8950   4.346   2.660   3.926
 2978SOL    HW2 8951   4.244   2.624   4.048
 2979SOL     OW 8952   3.800   2.673   4.513
 2979SOL    HW1 8953   3.899   2.661   4.522
 2979SOL    HW2 8954   3.776   2.768   4.534
 2980SOL     OW 8955   4.075   3.663   4.577
 2980SOL    HW1 8956   4.125   3.577   4.583
 2980SOL    HW2 8957   4.140   3.740   4.574
 2981SOL     OW 8958   4.045   2.805   3.966
 2981SOL    HW1 8959   4.127   2.844   3.924
 2981SOL    HW2 8960   4.018   2.723   3.917
 2982SOL     OW 8961   4.188   3.605   4.047
 2982SOL    HW1 8962   4.221   3.644   4.133
 2982SOL    HW2 8963   4.264   3.598   3.982
 2983SOL     OW 8964   4.106   2.562   4.204
 2983SOL    HW1 8965   4.151   2.472   4.201
 2983SOL    HW2 8966   4.012   2.551   4.237
 2984SOL     OW 8967   4.338   1.984   3.841
 2984SOL    HW1 8968   4.436   1.962   3.848
 2984SOL    HW2 8969   4.307   1.967   3.748
 2985SOL     OW 8970   4.263   1.926   4.236
 2985SOL    HW1 8971   4.182   1.927   4.294
 2985SOL    HW2 8972   4.266   2.009   4.181
 2986SOL     OW 8973   4.021   1.897   3.895
 2986SOL    HW1 8974   4.070   1.981   3.874
 2986SOL    HW2 8975   4.083   1.832   3.940
 2987SOL     OW 8976   4.183   3.014   4.465
 2987SOL    HW1 8977   4.112   2.987   4.530
 2987SOL    HW2 8978   4.157   2.986   4.372
 2988SOL     OW 8979   4.212   3.247   3.898
 2988SOL    HW1 8980   4.125   3.232   3.945
 2988SOL    HW2 8981   4.195   3.273   3.803
 2989SOL     OW 8982   4.251   2.118   4.052
 2989SOL    HW1 8983   4.278   2.059   3.977
 2989SOL    HW2 8984   4.251   2.213   4.021
 2990SOL     OW 8985   4.091   2.962   4.225
 2990SOL    HW1 8986   4.084   3.045   4.169
 2990SOL    HW2 8987   4.095   2.882   4.165
 2991SOL     OW 8988   4.031   1.925   4.342
 2991SOL    HW1 8989   4.020   2.019   4.375
 2991SOL    HW2 8990   4.026   1.862   4.419
 2992SOL     OW 8991   4.792   3.195   4.573
 2992SOL    HW1 8992   4.799   3.111   4.518
 2992SOL    HW2 8993   4.854   3.264   4.537
 2993SOL     OW 8994   3.732   3.188   3.924
 2993SOL    HW1 8995   3.639   3.209   3.893
 2993SOL    HW2 8996   3.742   3.089   3.937
 2994SOL     OW 8997   4.539   2.434   4.049
 2994SOL    HW1 8998   4.546   2.345   4.003
 2994SOL    HW2 8999   4.445   2.468   4.041
 2995SOL     OW 9000   4.197   2.362   3.915
 2995SOL    HW1 9001   4.258   2.442   3.919
 2995SOL    HW2 9002   4.102   2.393   3.922
 2996SOL     OW 9003   4.396   3.478   3.878
 2996SOL    HW1 9004   4.405   3.488   3.779
 2996SOL    HW2 9005   4.356   3.389   3.899
 2997SOL     OW 9006   3.987   2.188   4.444
 2997SOL    HW1 9007   3.908   2.239   4.410
 2997SOL    HW2 9008   3.978   2.173   4.542
 2998SOL     OW 9009   4.314   3.349   4.215
 2998SOL    HW1 9010   4.356   3.291   4.145
 2998SOL    HW2 9011   4.270   3.428   4.171
 2999SOL     OW 9012   3.979   3.210   4.014
 2999SOL    HW1 9013   3.883   3.211   3.987
 2999SOL    HW2 9014   3.991   3.263   4.098
 3000SOL     OW 9015   3.799   2.207   3.757
 3000SOL    HW1 9016   3.707   2.179   3.728
 3000SOL    HW2 9017   3.830   2.284   3.701
 3001SOL     OW 9018   3.796   2.028   4.042
 3001SOL    HW1 9019   3.779   2.111   3.988
 3001SOL    HW2 9020   3.886   1.991   4.020
 3002SOL     OW 9021   4.318   2.607   4.376
 3002SOL    HW1 9022   4.368   2.692   4.357
 3002SOL    HW2 9023   4.230   2.609   4.328
 3003SOL     OW 9024   4.385   3.652   4.677
 3003SOL    HW1 9025   4.339   3.740   4.664
 3003SOL    HW2 9026   4.484   3.664   4.670
 3004SOL     OW 9027   3.803   3.102   4.377
 3004SOL    HW1 9028   3.802   3.055   4.465
 3004SOL    HW2 9029   3.885   3.074   4.326
 3005SOL     OW 9030   4.152   2.286   4.244
 3005SOL    HW1 9031   4.182   2.214   4.182
 3005SOL    HW2 9032   4.113   2.246   4.327
 3006SOL     OW 9033   4.536   3.448   4.411
 3006SOL    HW1 9034   4.568   3.458   4.317
 3006SOL    HW2 9035   4.457   3.386   4.413
 3007SOL     OW 9036   3.763   2.939   4.024
 3007SOL    HW1 9037   3.862   2.928   4.015
 3007SOL    HW2 9038   3.723   2.853   4.056
 3008SOL     OW 9039   3.954   4.352   0.113
 3008SOL    HW1 9040   3.861   4.350   0.150
 3008SOL    HW2 9041   3.955   4.313   0.021
 3009SOL     OW 9042   3.949   3.999   0.996
 3009SOL    HW1 9043   3.984   3.982   1.088
 3009SOL    HW2 9044   3.861   3.954   0.984
 3010SOL     OW 9045   3.743   4.092   0.647
 3010SOL    HW1 9046   3.661   4.135   0.686
 3010SOL    HW2 9047   3.715   4.019   0.584
 3011SOL     OW 9048   4.574   4.522   1.823
 3011SOL    HW1 9049   4.570   4.598   1.888
 3011SOL    HW2 9050   4.596   4.558   1.732
 3012SOL     OW 9051   4.409   4.736   0.665
 3012SOL    HW1 9052   4.478   4.720   0.735
 3012SOL    HW2 9053   4.336   4.793   0.703
 3013SOL     OW 9054   4.162   4.116   1.499
 3013SOL    HW1 9055   4.244   4.060   1.508
 3013SOL    HW2 9056   4.081   4.058   1.503
 3014SOL     OW 9057   3.846   4.367   0.563
 3014SOL    HW1 9058   3.801   4.279   0.580
 3014SOL    HW2 9059   3.845   4.421   0.647
 3015SOL     OW 9060   3.837   4.461   1.597
 3015SOL    HW1 9061   3.925   4.448   1.642
 3015SOL    HW2 9062   3.824   4.558   1.575
 3016SOL     OW 9063   4.533   3.728   0.502
 3016SOL    HW1 9064   4.573   3.819   0.493
 3016SOL    HW2 9065   4.433   3.736   0.508
 3017SOL     OW 9066   4.041   3.975   1.801
 3017SOL    HW1 9067   4.112   4.046   1.807
 3017SOL    HW2 9068   3.953   4.014   1.829
 3018SOL     OW 9069   4.322   4.453   0.270
 3018SOL    HW1 9070   4.346   4.522   0.202
 3018SOL    HW2 9071   4.244   4.486   0.324
 3019SOL     OW 9072   4.274   3.920   0.885
 3019SOL    HW1 9073   4.269   3.915   0.985
 3019SOL    HW2 9074   4.276   4.016   0.856
 3020SOL     OW 9075   3.926   4.009   1.498
 3020SOL    HW1 9076   3.846   4.069   1.485
 3020SOL    HW2 9077   3.916   3.960   1.584
 3021SOL     OW 9078   4.106   4.424   0.480
 3021SOL    HW1 9079   4.151   4.334   0.477
 3021SOL    HW2 9080   4.012   4.413   0.513
 3022SOL     OW 9081   4.646   4.227   0.899
 3022SOL    HW1 9082   4.621   4.218   0.803
 3022SOL    HW2 9083   4.694   4.145   0.930
 3023SOL     OW 9084   4.263   3.788   0.512
 3023SOL    HW1 9085   4.182   3.789   0.570
 3023SOL    HW2 9086   4.266   3.871   0.457
 3024SOL     OW 9087   4.021   3.759   0.171
 3024SOL    HW1 9088   4.070   3.843   0.150
 3024SOL    HW2 9089   4.083   3.694   0.216
 3025SOL     OW 9090   3.802   4.280   1.386
 3025SOL    HW1 9091   3.894   4.279   1.345
 3025SOL    HW2 9092   3.796   4.354   1.453
 3026SOL     OW 9093   4.285   3.946   1.147
 3026SOL    HW1 9094   4.323   3.862   1.184
 3026SOL    HW2 9095   4.197   3.965   1.191
 3027SOL     OW 9096   4.251   3.980   0.328
 3027SOL    HW1 9097   4.278   3.921   0.253
 3027SOL    HW2 9098   4.251   4.075   0.297
 3028SOL     OW 9099   4.639   3.813   1.402
 3028SOL    HW1 9100   4.664   3.793   1.307
 3028SOL    HW2 9101   4.711   3.869   1.444
 3029SOL     OW 9102   4.134   4.537   1.251
 3029SOL    HW1 9103   4.220   4.549   1.301
 3029SOL    HW2 9104   4.092   4.450   1.278
 3030SOL     OW 9105   4.290   4.261   0.865
 3030SOL    HW1 9106   4.302   4.327   0.791
 3030SOL    HW2 9107   4.336   4.295   0.948
 3031SOL     OW 9108   4.228   3.774   1.740
 3031SOL    HW1 9109   4.186   3.717   1.670
 3031SOL    HW2 9110   4.162   3.843   1.772
 3032SOL     OW 9111   4.031   3.937   1.231
 3032SOL    HW1 9112   4.008   3.974   1.321
 3032SOL    HW2 9113   4.001   3.842   1.225
 3033SOL     OW 9114   4.456   4.358   1.064
 3033SOL    HW1 9115   4.515   4.332   0.988
 3033SOL    HW2 9116   4.428   4.454   1.053
 3034SOL     OW 9117   4.031   3.787   0.618
 3034SOL    HW1 9118   4.020   3.881   0.651
 3034SOL    HW2 9119   4.026   3.724   0.695
 3035SOL     OW 9120   4.043   4.534   0.949
 3035SOL    HW1 9121   4.136   4.570   0.954
 3035SOL    HW2 9122   4.037   4.449   1.001
 3036SOL     OW 9123   4.063   4.233   1.006
 3036SOL    HW1 9124   4.011   4.150   0.989
 3036SOL    HW2 9125   4.140   4.238   0.942
 3037SOL     OW 9126   3.764   4.268   1.114
 3037SOL    HW1 9127   3.849   4.235   1.073
 3037SOL    HW2 9128   3.777   4.283   1.212
 3038SOL     OW 9129   3.913   4.244   1.722
 3038SOL    HW1 9130   3.972   4.204   1.652
 3038SOL    HW2 9131   3.855   4.315   1.681
 3039SOL     OW 9132   4.395   4.188   1.269
 3039SOL    HW1 9133   4.361   4.099   1.239
 3039SOL    HW2 9134   4.421   4.242   1.189
 3040SOL     OW 9135   4.197   4.224   0.191
 3040SOL    HW1 9136   4.258   4.304   0.195
 3040SOL    HW2 9137   4.102   4.255   0.198
 3041SOL     OW 9138   3.987   4.050   0.720
 3041SOL    HW1 9139   3.908   4.101   0.686
 3041SOL    HW2 9140   3.978   4.035   0.818
 3042SOL     OW 9141   3.829   4.737   1.726
 3042SOL    HW1 9142   3.752   4.704   1.780
 3042SOL    HW2 9143   3.914   4.707   1.768
 3043SOL     OW 9144   4.396   3.927   1.489
 3043SOL    HW1 9145   4.486   3.911   1.449
 3043SOL    HW2 9146   4.404   3.932   1.588
 3044SOL     OW 9147   3.799   4.069   0.033
 3044SOL    HW1 9148   3.707   4.041   0.004
 3044SOL    HW2 9149   3.830   4.146  -0.023
 3045SOL     OW 9150   3.796   3.890   0.318
 3045SOL    HW1 9151   3.779   3.973   0.264
 3045SOL    HW2 9152   3.886   3.853   0.296
 3046SOL     OW 9153   4.440   4.289   1.708
 3046SOL    HW1 9154   4.459   4.354   1.782
 3046SOL    HW2 9155   4.500   4.209   1.717
 3047SOL     OW 9156   4.318   4.469   0.652
 3047SOL    HW1 9157   4.368   4.554   0.633
 3047SOL    HW2 9158   4.230   4.471   0.604
 3048SOL     OW 9159   4.152   4.148   0.520
 3048SOL    HW1 9160   4.182   4.076   0.458
 3048SOL    HW2 9161   4.113   4.108   0.603
 3049SOL     OW 9162   4.041   4.271   1.280
 3049SOL    HW1 9163   4.079   4.212   1.352
 3049SOL    HW2 9164   4.081   4.245   1.192
 3050SOL     OW 9165   3.954   4.352   1.975
 3050SOL    HW1 9166   3.861   4.350   2.012
 3050SOL    HW2 9167   3.955   4.313   1.883
 3051SOL     OW 9168   3.949   3.999   2.858
 3051SOL    HW1 9169   3.984   3.982   2.950
 3051SOL    HW2 9170   3.861   3.954   2.846
 3052SOL     OW 9171   3.743   4.092   2.509
 3052SOL    HW1 9172   3.661   4.135   2.548
 3052SOL    HW2 9173   3.715   4.019   2.446
 3053SOL     OW 9174   4.574   4.522   3.685
 3053SOL    HW1 9175   4.570   4.598   3.750
 3053SOL    HW2 9176   4.596   4.558   3.594
 3054SOL     OW 9177   4.409   4.736   2.527
 3054SOL    HW1 9178   4.478   4.720   2.597
 3054SOL    HW2 9179   4.336   4.793   2.565
 3055SOL     OW 9180   4.162   4.116   3.361
 3055SOL    HW1 9181   4.244   4.060   3.370
 3055SOL    HW2 9182   4.081   4.058   3.365
 3056SOL     OW 9183   3.846   4.367   2.425
 3056SOL    HW1 9184   3.801   4.279   2.442
 3056SOL    HW2 9185   3.845   4.421   2.509
 3057SOL     OW 9186   3.837   4.461   3.459
 3057SOL    HW1 9187   3.925   4.448   3.504
 3057SOL    HW2 9188   3.824   4.558   3.437
 3058SOL     OW 9189   4.533   3.728   2.364
 3058SOL    HW1 9190   4.573   3.819   2.355
 3058SOL    HW2 9191   4.433   3.736   2.370
 3059SOL     OW 9192   4.041   3.975   3.663
 3059SOL    HW1 9193   4.112   4.046   3.669
 3059SOL    HW2 9194   3.953   4.014   3.691
 3060SOL     OW 9195   4.322   4.453   2.132
 3060SOL    HW1 9196   4.346   4.522   2.064
 3060SOL    HW2 9197   4.244   4.486   2.186
 3061SOL     OW 9198   4.274   3.920   2.747
 3061SOL    HW1 9199   4.269   3.915   2.847
 3061SOL    HW2 9200   4.276   4.016   2.718
 3062SOL     OW 9201   3.926   4.009   3.360
 3062SOL    HW1 9202   3.846   4.069   3.347
 3062SOL    HW2 9203   3.916   3.960   3.446
 3063SOL     OW 9204   4.106   4.424   2.342
 3063SOL    HW1 9205   4.151   4.334   2.339
 3063SOL    HW2 9206   4.012   4.413   2.375
 3064SOL     OW 9207   4.338   3.846   1.979
 3064SOL    HW1 9208   4.436   3.824   1.986
 3064SOL    HW2 9209   4.307   3.829   1.886
 3065SOL     OW 9210   4.646   4.227   2.761
 3065SOL    HW1 9211   4.621   4.218   2.665
 3065SOL    HW2 9212   4.694   4.145   2.792
 3066SOL     OW 9213   4.263   3.788   2.374
 3066SOL    HW1 9214   4.182   3.789   2.432
 3066SOL    HW2 9215   4.266   3.871   2.319
 3067SOL     OW 9216   4.021   3.759   2.033
 3067SOL    HW1 9217   4.070   3.843   2.012
 3067SOL    HW2 9218   4.083   3.694   2.078
 3068SOL     OW 9219   3.802   4.280   3.248
 3068SOL    HW1 9220   3.894   4.279   3.207
 3068SOL    HW2 9221   3.796   4.354   3.315
 3069SOL     OW 9222   4.285   3.946   3.009
 3069SOL    HW1 9223   4.323   3.862   3.046
 3069SOL    HW2 9224   4.197   3.965   3.053
 3070SOL     OW 9225   4.251   3.980   2.190
 3070SOL    HW1 9226   4.278   3.921   2.115
 3070SOL    HW2 9227   4.251   4.075   2.159
 3071SOL     OW 9228   4.639   3.813   3.264
 3071SOL    HW1 9229   4.664   3.793   3.169
 3071SOL    HW2 9230   4.711   3.869   3.306
 3072SOL     OW 9231   4.134   4.537   3.113
 3072SOL    HW1 9232   4.220   4.549   3.163
 3072SOL    HW2 9233   4.092   4.450   3.140
 3073SOL     OW 9234   4.290   4.261   2.727
 3073SOL    HW1 9235   4.302   4.327   2.653
 3073SOL    HW2 9236   4.336   4.295   2.810
 3074SOL     OW 9237   4.228   3.774   3.602
 3074SOL    HW1 9238   4.186   3.717   3.532
 3074SOL    HW2 9239   4.162   3.843   3.634
 3075SOL     OW 9240   4.031   3.937   3.093
 3075SOL    HW1 9241   4.008   3.974   3.183
 3075SOL    HW2 9242   4.001   3.842   3.087
 3076SOL     OW 9243   4.456   4.358   2.926
 3076SOL    HW1 9244   4.515   4.332   2.850
 3076SOL    HW2 9245   4.428   4.454   2.915
 3077SOL     OW 9246   4.031   3.787   2.480
 3077SOL    HW1 9247   4.020   3.881   2.513
 3077SOL    HW2 9248   4.026   3.724   2.557
 3078SOL     OW 9249   4.043   4.534   2.811
 3078SOL    HW1 9250   4.136   4.570   2.816
 3078SOL    HW2 9251   4.037   4.449   2.863
 3079SOL     OW 9252   4.063   4.233   2.868
 3079SOL    HW1 9253   4.011   4.150   2.851
 3079SOL    HW2 9254   4.140   4.238   2.804
 3080SOL     OW 9255   3.764   4.268   2.976
 3080SOL    HW1 9256   3.849   4.235   2.935
 3080SOL    HW2 9257   3.777   4.283   3.074
 3081SOL     OW 9258   3.913   4.244   3.584
 3081SOL    HW1 9259   3.972   4.204   3.514
 3081SOL    HW2 9260   3.855   4.315   3.543
 3082SOL     OW 9261   4.539   4.296   2.187
 3082SOL    HW1 9262   4.546   4.207   2.141
 3082SOL    HW2 9263   4.445   4.330   2.179
 3083SOL     OW 9264   4.395   4.188   3.131
 3083SOL    HW1 9265   4.361   4.099   3.101
 3083SOL    HW2 9266   4.421   4.242   3.051
 3084SOL     OW 9267   4.197   4.224   2.053
 3084SOL    HW1 9268   4.258   4.304   2.057
 3084SOL    HW2 9269   4.102   4.255   2.060
 3085SOL     OW 9270   3.987   4.050   2.582
 3085SOL    HW1 9271   3.908   4.101   2.548
 3085SOL    HW2 9272   3.978   4.035   2.680
 3086SOL     OW 9273   3.829   4.737   3.588
 3086SOL    HW1 9274   3.752   4.704   3.642
 3086SOL    HW2 9275   3.914   4.707   3.630
 3087SOL     OW 9276   4.396   3.927   3.351
 3087SOL    HW1 9277   4.486   3.911   3.311
 3087SOL    HW2 9278   4.404   3.932   3.450
 3088SOL     OW 9279   3.799   4.069   1.895
 3088SOL    HW1 9280   3.707   4.041   1.866
 3088SOL    HW2 9281   3.830   4.146   1.839
 3089SOL     OW 9282   3.796   3.890   2.180
 3089SOL    HW1 9283   3.779   3.973   2.126
 3089SOL    HW2 9284   3.886   3.853   2.158
 3090SOL     OW 9285   4.440   4.289   3.570
 3090SOL    HW1 9286   4.459   4.354   3.644
 3090SOL    HW2 9287   4.500   4.209   3.579
 3091SOL     OW 9288   4.318   4.469   2.514
 3091SOL    HW1 9289   4.368   4.554   2.495
 3091SOL    HW2 9290   4.230   4.471   2.466
 3092SOL     OW 9291   4.152   4.148   2.382
 3092SOL    HW1 9292   4.182   4.076   2.320
 3092SOL    HW2 9293   4.113   4.108   2.465
 3093SOL     OW 9294   4.041   4.271   3.142
 3093SOL    HW1 9295   4.079   4.212   3.214
 3093SOL    HW2 9296   4.081   4.245   3.054
 3094SOL     OW 9297   3.954   4.352   3.837
 3094SOL    HW1 9298   3.861   4.350   3.874
 3094SOL    HW2 9299   3.955   4.313   3.745
 3095SOL     OW 9300   3.949   3.999   4.720
 3095SOL    HW1 9301   3.984   3.982   4.812
 3095SOL    HW2 9302   3.861   3.954   4.708
 3096SOL     OW 9303   3.743   4.092   4.371
 3096SOL    HW1 9304   3.661   4.135   4.410
 3096SOL    HW2 9305   3.715   4.019   4.308
 3097SOL     OW 9306   4.409   4.736   4.389
 3097SOL    HW1 9307   4.478   4.720   4.459
 3097SOL    HW2 9308   4.336   4.793   4.427
 3098SOL     OW 9309   3.846   4.367   4.287
 3098SOL    HW1 9310   3.801   4.279   4.304
 3098SOL    HW2 9311   3.845   4.421   4.371
 3099SOL     OW 9312   4.533   3.728   4.226
 3099SOL    HW1 9313   4.573   3.819   4.217
 3099SOL    HW2 9314   4.433   3.736   4.232
 3100SOL     OW 9315   4.322   4.453   3.994
 3100SOL    HW1 9316   4.346   4.522   3.926
 3100SOL    HW2 9317   4.244   4.486   4.048
 3101SOL     OW 9318   4.106   4.424   4.204
 3101SOL    HW1 9319   4.151   4.334   4.201
 3101SOL    HW2 9320   4.012   4.413   4.237
 3102SOL     OW 9321   4.338   3.846   3.841
 3102SOL    HW1 9322   4.436   3.824   3.848
 3102SOL    HW2 9323   4.307   3.829   3.748
 3103SOL     OW 9324   4.263   3.788   4.236
 3103SOL    HW1 9325   4.182   3.789   4.294
 3103SOL    HW2 9326   4.266   3.871   4.181
 3104SOL     OW 9327   4.021   3.759   3.895
 3104SOL    HW1 9328   4.070   3.843   3.874
 3104SOL    HW2 9329   4.083   3.694   3.940
 3105SOL     OW 9330   4.251   3.980   4.052
 3105SOL    HW1 9331   4.278   3.921   3.977
 3105SOL    HW2 9332   4.251   4.075   4.021
 3106SOL     OW 9333   4.031   3.787   4.342
 3106SOL    HW1 9334   4.020   3.881   4.375
 3106SOL    HW2 9335   4.026   3.724   4.419
 3107SOL     OW 9336   4.539   4.296   4.049
 3107SOL    HW1 9337   4.546   4.207   4.003
 3107SOL    HW2 9338   4.445   4.330   4.041
 3108SOL     OW 9339   4.197   4.224   3.915
 3108SOL    HW1 9340   4.258   4.304   3.919
 3108SOL    HW2 9341   4.102   4.255   3.922
 3109SOL     OW 9342   3.987   4.050   4.444
 3109SOL    HW1 9343   3.908   4.101   4.410
 3109SOL    HW2 9344   3.978   4.035   4.542
 3110SOL     OW 9345   3.799   4.069   3.757
 3110SOL    HW1 9346   3.707   4.041   3.728
 3110SOL    HW2 9347   3.830   4.146   3.701
 3111SOL     OW 9348   3.796   3.890   4.042
 3111SOL    HW1 9349   3.779   3.973   3.988
 3111SOL    HW2 9350   3.886   3.853   4.020
 3112SOL     OW 9351   4.318   4.469   4.376
 3112SOL    HW1 9352   4.368   4.554   4.357
 3112SOL    HW2 9353   4.230   4.471   4.328
 3113SOL     OW 9354   4.152   4.148   4.244
 3113SOL    HW1 9355   4.182   4.076   4.182
 3113SOL    HW2 9356   4.113   4.108   4.327
   4.56329   4.56329   4.56329
