mobley_5935995_GMX.gro created by acpype (v: 2023.10.27) on Wed May 20 23:46:15 2026
   20
    1MOL     C1    1   2.185   2.254   2.473
    1MOL     C2    2   2.268   2.432   2.237
    1MOL     C3    3   2.299   2.228   2.096
    1MOL     C4    4   2.440   2.263   2.300
    1MOL     C5    5   2.192   2.211   2.326
    1MOL     C6    6   2.300   2.282   2.240
    1MOL     H1    7   2.162   2.360   2.483
    1MOL     H2    8   2.106   2.198   2.524
    1MOL     H3    9   2.279   2.233   2.525
    1MOL     H4   10   2.269   2.475   2.338
    1MOL     H5   11   2.169   2.451   2.194
    1MOL     H6   12   2.341   2.487   2.177
    1MOL     H7   13   2.330   2.123   2.091
    1MOL     H8   14   2.199   2.236   2.052
    1MOL     H9   15   2.368   2.285   2.033
    1MOL    H10   16   2.443   2.295   2.405
    1MOL    H11   17   2.515   2.321   2.245
    1MOL    H12   18   2.472   2.158   2.297
    1MOL    H13   19   2.093   2.228   2.282
    1MOL    H14   20   2.208   2.103   2.324
   4.56329   4.56329   4.56329
