; mobley_2197088_GMX_OPLS.top created by acpype (v: 2023.10.27) on Thu May 21 00:04:07 2026

; Include forcefield parameters
#include "ffoplsaa.itp"

; Include mobley_2197088_GMX.itp topology
#include "mobley_2197088_GMX.itp"

; Ligand position restraints
#ifdef POSRES_LIG
#include "posre_mobley_2197088.itp"
#endif

[ system ]
 mobley_2197088

[ molecules ]
; Compound        nmols
 mobley_2197088   1     
