mobley_2197088_GMX.gro created by acpype (v: 2023.10.27) on Thu May 21 00:04:07 2026
 32
    1  MOL   C1    1   0.045  -0.074   0.028
    1  MOL   C2    2  -0.706  -0.871  -0.301
    1  MOL   C3    3  -0.028  -0.205   0.055
    1  MOL   C4    4  -0.633  -0.741  -0.329
    1  MOL   C5    5  -0.128  -0.237  -0.056
    1  MOL   C6    6  -0.547  -0.699  -0.209
    1  MOL   C7    7  -0.204  -0.367  -0.027
    1  MOL   C8    8  -0.472  -0.567  -0.232
    1  MOL   C9    9  -0.301  -0.401  -0.140
    1  MOL  C10   10  -0.380  -0.529  -0.115
    1  MOL   H1   11   0.116  -0.053   0.109
    1  MOL   H2   12  -0.025   0.010   0.022
    1  MOL   H3   13   0.101  -0.079  -0.066
    1  MOL   H4   14  -0.767  -0.899  -0.388
    1  MOL   H5   15  -0.636  -0.953  -0.282
    1  MOL   H6   16  -0.772  -0.861  -0.215
    1  MOL   H7   17  -0.080  -0.197   0.151
    1  MOL   H8   18   0.045  -0.286   0.064
    1  MOL   H9   19  -0.706  -0.663  -0.352
    1  MOL  H10   20  -0.569  -0.753  -0.418
    1  MOL  H11   21  -0.074  -0.246  -0.151
    1  MOL  H12   22  -0.199  -0.154  -0.067
    1  MOL  H13   23  -0.473  -0.777  -0.189
    1  MOL  H14   24  -0.610  -0.691  -0.120
    1  MOL  H15   25  -0.258  -0.355   0.068
    1  MOL  H16   26  -0.132  -0.449  -0.013
    1  MOL  H17   27  -0.544  -0.487  -0.251
    1  MOL  H18   28  -0.412  -0.577  -0.323
    1  MOL  H19   29  -0.244  -0.413  -0.233
    1  MOL  H20   30  -0.370  -0.317  -0.156
    1  MOL  H21   31  -0.439  -0.518  -0.023
    1  MOL  H22   32  -0.309  -0.611  -0.097
   17.77000    19.24400    11.37600
