n_decane
    32
   0.4520000  -0.7410000   0.2810000  -7.0610000  -8.7110000  -3.0140000
  -0.2800000  -2.0450000   0.5520000  -6.3260000  -7.4080000  -3.2890000
  -1.2770000  -2.3690000  -0.5600000  -5.4700000  -6.9880000  -2.0940000
  -2.0370000  -3.6650000  -0.2670000  -4.7180000  -5.6720000  -2.3180000
  -3.0070000  -4.0070000  -1.4000000  -3.8040000  -5.2920000  -1.1510000
   1.1610000  -0.5290000   1.0880000  -0.2490000   0.0970000   0.2170000
   1.0130000  -0.7930000  -0.6580000  -7.6710000  -8.9920000  -3.8780000
  -6.3560000  -9.5250000  -2.8170000  -7.7240000  -8.6130000  -2.1480000
  -0.8040000  -1.9700000   1.5120000   0.4520000  -2.8560000   0.6440000
  -7.0640000  -6.6330000  -3.5210000  -5.6940000  -7.5330000  -4.1760000
  -0.7450000  -2.4620000  -1.5140000  -1.9900000  -1.5420000  -0.6670000
  -4.7310000  -7.7730000  -1.8890000  -6.0980000  -6.9060000  -1.1990000
  -2.5840000  -3.5540000   0.6760000  -1.3220000  -4.4860000  -0.1340000
  -5.4440000  -4.8730000  -2.5060000  -4.1150000  -5.7740000  -3.2290000
  -2.4410000  -4.1310000  -2.3310000  -3.6980000  -3.1700000  -1.5610000
  -4.3900000  -5.1760000  -0.2330000  -3.0910000  -6.1060000  -0.9730000
