mobley_1178614_GMX.gro created by acpype (v: 2023.10.27) on Wed May 20 23:50:53 2026
   13
    1MOL     C1    1   2.267   2.286   2.119
    1MOL     C2    2   2.160   2.346   2.186
    1MOL     C3    3   2.372   2.230   2.191
    1MOL     C4    4   2.158   2.349   2.326
    1MOL     C5    5   2.370   2.233   2.331
    1MOL     C6    6   2.263   2.292   2.398
    1MOL     O1    7   2.474   2.177   2.399
    1MOL    CL1    8   2.258   2.298   2.570
    1MOL     H1    9   2.268   2.284   2.010
    1MOL     H2   10   2.078   2.390   2.130
    1MOL     H3   11   2.454   2.183   2.138
    1MOL     H4   12   2.074   2.396   2.377
    1MOL     H5   13   2.465   2.199   2.493
   4.56393   4.56393   4.56393
