mobley_3266352_GMX.gro created by acpype (v: 2023.10.27) on Thu May 21 00:01:15 2026
 23
    1  MOL   C1    1   0.188  -0.104  -0.011
    1  MOL   C2    2   0.283  -0.028   0.058
    1  MOL   C3    3   0.093  -0.177   0.059
    1  MOL   C4    4   0.281  -0.025   0.198
    1  MOL   C5    5   0.091  -0.174   0.199
    1  MOL   C6    6   0.185  -0.098   0.268
    1  MOL   C7    7   0.084  -0.170   0.483
    1  MOL   C8    8   0.282  -0.017   0.482
    1  MOL   C9    9   0.232   0.124   0.502
    1  MOL   N1   10   0.183  -0.095   0.409
    1  MOL   F1   11   0.324   0.197   0.569
    1  MOL   F2   12   0.208   0.185   0.384
    1  MOL   F3   13   0.118   0.126   0.574
    1  MOL   H1   14   0.190  -0.106  -0.120
    1  MOL   H2   15   0.357   0.029   0.004
    1  MOL   H3   16   0.019  -0.236   0.005
    1  MOL   H4   17   0.355   0.035   0.251
    1  MOL   H5   18   0.016  -0.231   0.252
    1  MOL   H6   19  -0.013  -0.120   0.478
    1  MOL   H7   20   0.114  -0.180   0.588
    1  MOL   H8   21   0.073  -0.270   0.440
    1  MOL   H9   22   0.301  -0.065   0.579
    1  MOL  H10   23   0.376  -0.016   0.426
    7.77000     9.35200    14.14000
