%VERSION  VERSION_STAMP = V0001.000  DATE = 05/21/26  00:01:18                  
%FLAG TITLE                                                                     
%FORMAT(20a4)                                                                   
N_methyl_N__222_trifluoroethyl_                                                 
%FLAG POINTERS                                                                  
%FORMAT(10I8)                                                                   
      23       6      10      13      21      18      43      19       0       0
     112       1      13      18      19       7      11       8       6       0
       0       0       0       0       0       0       0       0      23       0
       0
%FLAG ATOM_NAME                                                                 
%FORMAT(20a4)                                                                   
C1  C2  C3  C4  C5  C6  C7  C8  C9  N1  F1  F2  F3  H1  H2  H3  H4  H5  H6  H7  
H8  H9  H10 
%FLAG CHARGE                                                                    
%FORMAT(5E16.8)                                                                 
 -2.80623420E+00 -1.88600805E+00 -1.88600805E+00 -3.07956870E+00 -3.07956870E+00
  2.65316688E+00  3.42761463E+00  3.36748104E+00  1.09497801E+01 -1.22453856E+01
 -4.36666442E+00 -4.36666442E+00 -4.36666442E+00  2.44178820E+00  2.42356590E+00
  2.42356590E+00  2.53289970E+00  2.53289970E+00  8.14536810E-01  8.14536810E-01
  8.14536810E-01  1.45231731E+00  1.45231731E+00
%FLAG ATOMIC_NUMBER                                                             
%FORMAT(10I8)                                                                   
       6       6       6       6       6       6       6       6       6       7
       9       9       9       1       1       1       1       1       1       1
       1       1       1
%FLAG MASS                                                                      
%FORMAT(5E16.8)                                                                 
  1.20100000E+01  1.20100000E+01  1.20100000E+01  1.20100000E+01  1.20100000E+01
  1.20100000E+01  1.20100000E+01  1.20100000E+01  1.20100000E+01  1.40100000E+01
  1.90000000E+01  1.90000000E+01  1.90000000E+01  1.00800000E+00  1.00800000E+00
  1.00800000E+00  1.00800000E+00  1.00800000E+00  1.00800000E+00  1.00800000E+00
  1.00800000E+00  1.00800000E+00  1.00800000E+00
%FLAG ATOM_TYPE_INDEX                                                           
%FORMAT(10I8)                                                                   
       1       1       1       1       1       1       2       2       2       3
       4       4       4       5       5       5       5       5       6       6
       6       6       6
%FLAG NUMBER_EXCLUDED_ATOMS                                                     
%FORMAT(10I8)                                                                   
      10       9       8       9       8      13       8      10       6      10
       4       3       2       2       1       1       1       1       2       1
       1       1       1
%FLAG NONBONDED_PARM_INDEX                                                      
%FORMAT(10I8)                                                                   
       1       2       4       7      11      16       2       3       5       8
      12      17       4       5       6       9      13      18       7       8
       9      10      14      19      11      12      13      14      15      20
      16      17      18      19      20      21
%FLAG RESIDUE_LABEL                                                             
%FORMAT(20a4)                                                                   
MOL 
%FLAG RESIDUE_POINTER                                                           
%FORMAT(10I8)                                                                   
       1
%FLAG BOND_FORCE_CONSTANT                                                       
%FORMAT(5E16.8)                                                                 
  3.54250000E+02  3.60690000E+02  3.10840000E+02  2.56920000E+02  3.44220000E+02
  2.28890000E+02  3.34280000E+02
%FLAG BOND_EQUIL_VALUE                                                          
%FORMAT(5E16.8)                                                                 
  1.39860000E+00  1.08600000E+00  1.40300000E+00  1.46130000E+00  1.09690000E+00
  1.53540000E+00  1.35120000E+00
%FLAG ANGLE_FORCE_CONSTANT                                                      
%FORMAT(5E16.8)                                                                 
  6.36700000E+01  4.49000000E+01  6.71800000E+01  7.69400000E+01  7.64300000E+01
  7.93600000E+01  6.48100000E+01  4.32800000E+01  4.79700000E+01  1.06880000E+02
  3.56400000E+01
%FLAG ANGLE_EQUIL_VALUE                                                         
%FORMAT(5E16.8)                                                                 
  2.09474507E+00  2.09230160E+00  2.11411823E+00  2.08619295E+00  2.03435665E+00
  1.91078728E+00  1.98060048E+00  1.91270715E+00  1.91427794E+00  1.87396082E+00
  1.89455572E+00
%FLAG DIHEDRAL_FORCE_CONSTANT                                                   
%FORMAT(5E16.8)                                                                 
  3.62500000E+00  7.53000000E-01  3.32000000E-01  0.00000000E+00  1.55555556E-01
  1.90000000E-01  0.00000000E+00  1.10000000E+00
%FLAG DIHEDRAL_PERIODICITY                                                      
%FORMAT(5E16.8)                                                                 
  2.00000000E+00  2.00000000E+00  2.00000000E+00  2.00000000E+00  3.00000000E+00
  1.00000000E+00  3.00000000E+00  2.00000000E+00
%FLAG DIHEDRAL_PHASE                                                            
%FORMAT(5E16.8)                                                                 
  3.14159400E+00  3.14159400E+00  0.00000000E+00  0.00000000E+00  0.00000000E+00
  0.00000000E+00  0.00000000E+00  3.14159400E+00
%FLAG SCEE_SCALE_FACTOR                                                         
%FORMAT(5E16.8)                                                                 
  1.20000000E+00  1.20000000E+00  1.20000000E+00  1.20000000E+00  1.20000000E+00
  1.20000000E+00  1.20000000E+00  0.00000000E+00
%FLAG SCNB_SCALE_FACTOR                                                         
%FORMAT(5E16.8)                                                                 
  2.00000000E+00  2.00000000E+00  2.00000000E+00  2.00000000E+00  2.00000000E+00
  2.00000000E+00  2.00000000E+00  0.00000000E+00
%FLAG SOLTY                                                                     
%FORMAT(5E16.8)                                                                 
  0.00000000E+00  0.00000000E+00  0.00000000E+00  0.00000000E+00  0.00000000E+00
  0.00000000E+00
%FLAG LENNARD_JONES_ACOEF                                                       
%FORMAT(5E16.8)                                                                 
  6.96551276E+05  8.43969952E+05  1.02073671E+06  8.17329084E+05  9.93125065E+05
  9.54790629E+05  3.80155513E+05  4.63627012E+05  4.41532129E+05  2.02652992E+05
  7.52549148E+04  9.27554496E+04  8.59636060E+04  3.86097375E+04  6.90855956E+03
  5.63013422E+04  6.97998263E+04  6.37258620E+04  2.82810778E+04  4.88692384E+03
  3.39005767E+03
%FLAG LENNARD_JONES_BCOEF                                                       
%FORMAT(5E16.8)                                                                 
  5.24668528E+02  5.90251928E+02  6.63431737E+02  6.90283231E+02  7.77671659E+02
  9.06156687E+02  3.71304925E+02  4.19082844E+02  4.86017154E+02  2.59697739E+02
  1.09570372E+02  1.24325688E+02  1.42233990E+02  7.51823196E+01  2.10929191E+01
  1.01040256E+02  1.14981426E+02  1.30560951E+02  6.86000827E+01  1.89134207E+01
  1.67944276E+01
%FLAG BONDS_INC_HYDROGEN                                                        
%FORMAT(10I8)                                                                   
       0      39       2       3      42       2       6      45       2       9
      48       2      12      51       2      18      54       5      18      57
       5      18      60       5      21      63       5      21      66       5
%FLAG BONDS_WITHOUT_HYDROGEN                                                    
%FORMAT(10I8)                                                                   
       0       3       1       0       6       1       3       9       1       6
      12       1       9      15       1      12      15       1      15      27
       3      18      27       4      21      24       6      21      27       4
      24      30       7      24      33       7      24      36       7
%FLAG ANGLES_INC_HYDROGEN                                                       
%FORMAT(10I8)                                                                   
       0       3      42       2       0       6      45       2       3       0
      39       2       3       9      48       2       6       0      39       2
       6      12      51       2       9       3      42       2      12       6
      45       2      15       9      48       2      15      12      51       2
      24      21      63       8      24      21      66       8      27      18
      54       9      27      18      57       9      27      18      60       9
      27      21      63       9      27      21      66       9      54      18
      57      11      54      18      60      11      57      18      60      11
      63      21      66      11
%FLAG ANGLES_WITHOUT_HYDROGEN                                                   
%FORMAT(10I8)                                                                   
       0       3       9       1       0       6      12       1       3       0
       6       1       3       9      15       1       6      12      15       1
       9      15      12       1       9      15      27       3      12      15
      27       3      15      27      18       4      15      27      21       4
      18      27      21       5      21      24      30       6      21      24
      33       6      21      24      36       6      24      21      27       7
      30      24      33      10      30      24      36      10      33      24
      36      10
%FLAG DIHEDRALS_INC_HYDROGEN                                                    
%FORMAT(10I8)                                                                   
       0       3       9      48       1       0       6      12      51       1
       3       0       6      45       1       6       0       3      42       1
      39       0       3       9       1       9      15      12      51       1
      39       0       6      12       1      12      15       9      48       1
      15       9       3      42       1      15      12       6      45       1
      15      27      18      54       3      15      27      18      57       3
      15      27      18      60       3      15      27      21      63       3
      15      27      21      66       3      18      27      21      63       4
      18      27      21      66       4      21      27      18      54       4
      21      27      18      57       4      21      27      18      60       4
      27      15       9      48       1      27      15      12      51       1
      30      24      21      63       6      30      24     -21      63       7
      30      24      21      66       6      30      24     -21      66       7
      33      24      21      63       6      33      24     -21      63       7
      33      24      21      66       6      33      24     -21      66       7
      36      24      21      63       6      36      24     -21      63       7
      36      24      21      66       6      36      24     -21      66       7
      39       0       3      42       1      39       0       6      45       1
      42       3       9      48       1      45       6      12      51       1
      39       0      -6      -3       8       0       9      -3     -42       8
       0      12      -6     -45       8       3      15      -9     -48       8
       6      15     -12     -51       8
%FLAG DIHEDRALS_WITHOUT_HYDROGEN                                                
%FORMAT(10I8)                                                                   
       0       3       9      15       1       0       6     -12      15       1
       3       0       6      12       1       3       9     -15      12       1
       3       9      15      27       1       6       0       3       9       1
       6      12     -15       9       1       6      12      15      27       1
       9      15      27      18       2       9      15      27      21       2
      12      15      27      18       2      12      15      27      21       2
      15      27      21      24       4      18      27      21      24       4
      27      21      24      30       5      27      21      24      33       5
      27      21      24      36       5       9      12     -15     -27       8
      18      21     -27     -15       8
%FLAG EXCLUDED_ATOMS_LIST                                                       
%FORMAT(10I8)                                                                   
       2       3       4       5       6      14      15      16      17      18
       3       4       5       6      10      14      15      16      17       4
       5       6      10      14      15      16      18       5       6       7
       8      10      14      15      17      18       6       7       8      10
      14      16      17      18       7       8       9      10      15      16
      17      18      19      20      21      22      23       8       9      10
      19      20      21      22      23       9      10      11      12      13
      19      20      21      22      23      10      11      12      13      22
      23      11      12      13      17      18      19      20      21      22
      23      12      13      22      23      13      22      23      22      23
      15      16      17      18       0       0      20      21      21       0
      23       0
%FLAG HBOND_ACOEF                                                               
%FORMAT(5E16.8)                                                                 

%FLAG HBOND_BCOEF                                                               
%FORMAT(5E16.8)                                                                 

%FLAG HBCUT                                                                     
%FORMAT(5E16.8)                                                                 

%FLAG AMBER_ATOM_TYPE                                                           
%FORMAT(20a4)                                                                   
ca  ca  ca  ca  ca  ca  c3  c3  c3  nh  f   f   f   ha  ha  ha  ha  ha  h1  h1  
h1  h1  h1  
%FLAG TREE_CHAIN_CLASSIFICATION                                                 
%FORMAT(20a4)                                                                   
BLA BLA BLA BLA BLA BLA BLA BLA BLA BLA BLA BLA BLA BLA BLA BLA BLA BLA BLA BLA 
BLA BLA BLA 
%FLAG JOIN_ARRAY                                                                
%FORMAT(10I8)                                                                   
       0       0       0       0       0       0       0       0       0       0
       0       0       0       0       0       0       0       0       0       0
       0       0       0
%FLAG IROTAT                                                                    
%FORMAT(10I8)                                                                   
       0       0       0       0       0       0       0       0       0       0
       0       0       0       0       0       0       0       0       0       0
       0       0       0
%FLAG RADIUS_SET                                                                
%FORMAT(1a80)                                                                   
modified Bondi radii (mbondi)                                                   
%FLAG RADII                                                                     
%FORMAT(5E16.8)                                                                 
  1.70000000E+00  1.70000000E+00  1.70000000E+00  1.70000000E+00  1.70000000E+00
  1.70000000E+00  1.70000000E+00  1.70000000E+00  1.70000000E+00  1.55000000E+00
  1.50000000E+00  1.50000000E+00  1.50000000E+00  1.30000000E+00  1.30000000E+00
  1.30000000E+00  1.30000000E+00  1.30000000E+00  1.30000000E+00  1.30000000E+00
  1.30000000E+00  1.30000000E+00  1.30000000E+00
%FLAG SCREEN                                                                    
%FORMAT(5E16.8)                                                                 
  7.20000000E-01  7.20000000E-01  7.20000000E-01  7.20000000E-01  7.20000000E-01
  7.20000000E-01  7.20000000E-01  7.20000000E-01  7.20000000E-01  7.90000000E-01
  8.80000000E-01  8.80000000E-01  8.80000000E-01  8.50000000E-01  8.50000000E-01
  8.50000000E-01  8.50000000E-01  8.50000000E-01  8.50000000E-01  8.50000000E-01
  8.50000000E-01  8.50000000E-01  8.50000000E-01
%FLAG IPOL                                                                      
%FORMAT(1I8)                                                                    
       0
