N_methyl_N__222_trifluoroethyl_
    23
   1.8840000  -1.0360000  -0.1090000   2.8270000  -0.2760000   0.5840000
   0.9250000  -1.7660000   0.5930000   2.8100000  -0.2470000   1.9780000
   0.9080000  -1.7360000   1.9870000   1.8510000  -0.9770000   2.6800000
   0.8410000  -1.7020000   4.8280000   2.8170000  -0.1710000   4.8190000
   2.3190000   1.2390000   5.0220000   1.8340000  -0.9470000   4.0900000
   3.2370000   1.9730000   5.6890000   2.0830000   1.8540000   3.8440000
   1.1780000   1.2610000   5.7430000   1.8970000  -1.0590000  -1.1950000
   3.5740000   0.2920000   0.0370000   0.1910000  -2.3570000   0.0540000
   3.5490000   0.3490000   2.5080000   0.1560000  -2.3090000   2.5240000
  -0.1270000  -1.1950000   4.7830000   1.1400000  -1.7960000   5.8750000
   0.7340000  -2.7030000   4.4020000   3.0090000  -0.6450000   5.7870000
   3.7580000  -0.1610000   4.2610000
