; mobley_3266352_GMX_OPLS.itp created by acpype (v: 2023.10.27) on Thu May 21 00:01:15 2026

; For OPLS atomtypes manual fine tuning
; AC_at:OPLS_at:OPLScode: Possible_Alternatives (see ffoplsaa.atp and ffoplsaanb.itp)
; ca:CA:opls_145: ['166', '501', '502']
; c3:CT:opls_135: ['136', '137', '149', '157', '158', '206', '209', '210', '223B', '224B', '245', '246', '274', '283', '284', '285', '292', '292B', '293B', '296', '307', '308', '505']
; nh:N2:opls_300: ['303']
; f:x:opls_x: []
; ha:HA:opls_146: []
; h1:HC:opls_140: []

[ moleculetype ]
;name            nrexcl
 mobley_3266352   3

[ atoms ]
;   nr  type  resi  res  atom  cgnr     charge      mass       ; qtot   bond_type
     1 opls_145     1   MOL    C1    1    -0.154000     12.01100 ; qtot -0.154  CA  
     2 opls_145     1   MOL    C2    2    -0.103500     12.01100 ; qtot -0.258  CA  
     3 opls_145     1   MOL    C3    3    -0.103500     12.01100 ; qtot -0.361  CA  
     4 opls_145     1   MOL    C4    4    -0.169000     12.01100 ; qtot -0.530  CA  
     5 opls_145     1   MOL    C5    5    -0.169000     12.01100 ; qtot -0.699  CA  
     6 opls_145     1   MOL    C6    6     0.145600     12.01100 ; qtot -0.553  CA  
     7 opls_135     1   MOL    C7    7     0.188100     12.01100 ; qtot -0.365  CT  
     8 opls_135     1   MOL    C8    8     0.184800     12.01100 ; qtot -0.181  CT  
     9 opls_135     1   MOL    C9    9     0.600900     12.01100 ; qtot  0.420  CT  
    10 opls_300     1   MOL    N1   10    -0.673001     14.00670 ; qtot -0.253  N2  
    11 opls_x     1   MOL    F1   11    -0.239633      0.00000 ; qtot -0.492  x   
    12 opls_x     1   MOL    F2   12    -0.239633      0.00000 ; qtot -0.732  x   
    13 opls_x     1   MOL    F3   13    -0.239633      0.00000 ; qtot -0.972  x   
    14 opls_146     1   MOL    H1   14     0.134000      1.00800 ; qtot -0.838  HA  
    15 opls_146     1   MOL    H2   15     0.133000      1.00800 ; qtot -0.705  HA  
    16 opls_146     1   MOL    H3   16     0.133000      1.00800 ; qtot -0.572  HA  
    17 opls_146     1   MOL    H4   17     0.139000      1.00800 ; qtot -0.432  HA  
    18 opls_146     1   MOL    H5   18     0.139000      1.00800 ; qtot -0.293  HA  
    19 opls_140     1   MOL    H6   19     0.044700      1.00800 ; qtot -0.249  HC  
    20 opls_140     1   MOL    H7   20     0.044700      1.00800 ; qtot -0.204  HC  
    21 opls_140     1   MOL    H8   21     0.044700      1.00800 ; qtot -0.159  HC  
    22 opls_140     1   MOL    H9   22     0.079700      1.00800 ; qtot -0.080  HC  
    23 opls_140     1   MOL   H10   23     0.079700      1.00800 ; qtot -0.000  HC  

[ bonds ]
;   ai     aj funct   r             k
     1      2   1 ;    1.3986e-01    2.9644e+05 ;     C1 - C2         CA - CA    
     1      3   1 ;    1.3986e-01    2.9644e+05 ;     C1 - C3         CA - CA    
     1     14   1 ;    1.0860e-01    3.0183e+05 ;     C1 - H1         CA - HA    
     2      4   1 ;    1.3986e-01    2.9644e+05 ;     C2 - C4         CA - CA    
     2     15   1 ;    1.0860e-01    3.0183e+05 ;     C2 - H2         CA - HA    
     3      5   1 ;    1.3986e-01    2.9644e+05 ;     C3 - C5         CA - CA    
     3     16   1 ;    1.0860e-01    3.0183e+05 ;     C3 - H3         CA - HA    
     4      6   1 ;    1.3986e-01    2.9644e+05 ;     C4 - C6         CA - CA    
     4     17   1 ;    1.0860e-01    3.0183e+05 ;     C4 - H4         CA - HA    
     5      6   1 ;    1.3986e-01    2.9644e+05 ;     C5 - C6         CA - CA    
     5     18   1 ;    1.0860e-01    3.0183e+05 ;     C5 - H5         CA - HA    
     6     10   1 ;    1.4030e-01    2.6011e+05 ;     C6 - N1         CA - N2    
     7     10   1 ;    1.4613e-01    2.1499e+05 ;     C7 - N1         CT - N2    
     7     19   1 ;    1.0969e-01    2.8804e+05 ;     C7 - H6         CT - HC    
     7     20   1 ;    1.0969e-01    2.8804e+05 ;     C7 - H7         CT - HC    
     7     21   1 ;    1.0969e-01    2.8804e+05 ;     C7 - H8         CT - HC    
     8      9   1 ;    1.5354e-01    1.9154e+05 ;     C8 - C9         CT - CT    
     8     10   1 ;    1.4613e-01    2.1499e+05 ;     C8 - N1         CT - N2    
     8     22   1 ;    1.0969e-01    2.8804e+05 ;     C8 - H9         CT - HC    
     8     23   1 ;    1.0969e-01    2.8804e+05 ;     C8 - H10        CT - HC    
     9     11   1 ;    1.3512e-01    2.7973e+05 ;     C9 - F1         CT - x     
     9     12   1 ;    1.3512e-01    2.7973e+05 ;     C9 - F2         CT - x     
     9     13   1 ;    1.3512e-01    2.7973e+05 ;     C9 - F3         CT - x     

[ pairs ]
;   ai     aj    funct
     1      6      1 ;     C1 - C6    
     1     17      1 ;     C1 - H4    
     1     18      1 ;     C1 - H5    
     2      5      1 ;     C2 - C5    
     2     10      1 ;     C2 - N1    
     2     16      1 ;     C2 - H3    
     3      4      1 ;     C3 - C4    
     3     10      1 ;     C3 - N1    
     3     15      1 ;     C3 - H2    
     4      7      1 ;     C4 - C7    
     4      8      1 ;     C4 - C8    
     4     18      1 ;     C4 - H5    
     5      7      1 ;     C5 - C7    
     5      8      1 ;     C5 - C8    
     5     17      1 ;     C5 - H4    
     6      9      1 ;     C6 - C9    
     6     15      1 ;     C6 - H2    
     6     16      1 ;     C6 - H3    
     6     19      1 ;     C6 - H6    
     6     20      1 ;     C6 - H7    
     6     21      1 ;     C6 - H8    
     6     22      1 ;     C6 - H9    
     6     23      1 ;     C6 - H10   
     7      9      1 ;     C7 - C9    
     7     22      1 ;     C7 - H9    
     7     23      1 ;     C7 - H10   
     8     19      1 ;     C8 - H6    
     8     20      1 ;     C8 - H7    
     8     21      1 ;     C8 - H8    
    10     11      1 ;     N1 - F1    
    10     12      1 ;     N1 - F2    
    10     13      1 ;     N1 - F3    
    10     17      1 ;     N1 - H4    
    10     18      1 ;     N1 - H5    
    11     22      1 ;     F1 - H9    
    11     23      1 ;     F1 - H10   
    12     22      1 ;     F2 - H9    
    12     23      1 ;     F2 - H10   
    13     22      1 ;     F3 - H9    
    13     23      1 ;     F3 - H10   
    14      4      1 ;     H1 - C4    
    14      5      1 ;     H1 - C5    
    14     15      1 ;     H1 - H2    
    14     16      1 ;     H1 - H3    
    15     17      1 ;     H2 - H4    
    16     18      1 ;     H3 - H5    

[ angles ]
;   ai     aj     ak    funct   theta         cth
     1      2      4      1 ;    1.2002e+02    5.3279e+02 ;     C1 - C2   - C4       CA -   CA - CA  
     1      2     15      1 ;    1.1988e+02    3.7572e+02 ;     C1 - C2   - H2       CA -   CA - HA  
     1      3      5      1 ;    1.2002e+02    5.3279e+02 ;     C1 - C3   - C5       CA -   CA - CA  
     1      3     16      1 ;    1.1988e+02    3.7572e+02 ;     C1 - C3   - H3       CA -   CA - HA  
     2      1      3      1 ;    1.2002e+02    5.3279e+02 ;     C2 - C1   - C3       CA -   CA - CA  
     2      1     14      1 ;    1.1988e+02    3.7572e+02 ;     C2 - C1   - H1       CA -   CA - HA  
     2      4      6      1 ;    1.2002e+02    5.3279e+02 ;     C2 - C4   - C6       CA -   CA - CA  
     2      4     17      1 ;    1.1988e+02    3.7572e+02 ;     C2 - C4   - H4       CA -   CA - HA  
     3      1     14      1 ;    1.1988e+02    3.7572e+02 ;     C3 - C1   - H1       CA -   CA - HA  
     3      5      6      1 ;    1.2002e+02    5.3279e+02 ;     C3 - C5   - C6       CA -   CA - CA  
     3      5     18      1 ;    1.1988e+02    3.7572e+02 ;     C3 - C5   - H5       CA -   CA - HA  
     4      2     15      1 ;    1.1988e+02    3.7572e+02 ;     C4 - C2   - H2       CA -   CA - HA  
     4      6      5      1 ;    1.2002e+02    5.3279e+02 ;     C4 - C6   - C5       CA -   CA - CA  
     4      6     10      1 ;    1.2113e+02    5.6216e+02 ;     C4 - C6   - N1       CA -   CA - N2  
     5      3     16      1 ;    1.1988e+02    3.7572e+02 ;     C5 - C3   - H3       CA -   CA - HA  
     5      6     10      1 ;    1.2113e+02    5.6216e+02 ;     C5 - C6   - N1       CA -   CA - N2  
     6      4     17      1 ;    1.1988e+02    3.7572e+02 ;     C6 - C4   - H4       CA -   CA - HA  
     6      5     18      1 ;    1.1988e+02    3.7572e+02 ;     C6 - C5   - H5       CA -   CA - HA  
     6     10      7      1 ;    1.1953e+02    6.4383e+02 ;     C6 - N1   - C7       CA -   N2 - CT  
     6     10      8      1 ;    1.1953e+02    6.4383e+02 ;     C6 - N1   - C8       CA -   N2 - CT  
     7     10      8      1 ;    1.1656e+02    6.3957e+02 ;     C7 - N1   - C8       CT -   N2 - CT  
     8      9     11      1 ;    1.0948e+02    6.6408e+02 ;     C8 - C9   - F1       CT -   CT - x   
     8      9     12      1 ;    1.0948e+02    6.6408e+02 ;     C8 - C9   - F2       CT -   CT - x   
     8      9     13      1 ;    1.0948e+02    6.6408e+02 ;     C8 - C9   - F3       CT -   CT - x   
     9      8     10      1 ;    1.1348e+02    5.4233e+02 ;     C9 - C8   - N1       CT -   CT - N2  
     9      8     22      1 ;    1.0959e+02    3.6217e+02 ;     C9 - C8   - H9       CT -   CT - HC  
     9      8     23      1 ;    1.0959e+02    3.6217e+02 ;     C9 - C8   - H10      CT -   CT - HC  
    10      7     19      1 ;    1.0968e+02    4.0141e+02 ;     N1 - C7   - H6       N2 -   CT - HC  
    10      7     20      1 ;    1.0968e+02    4.0141e+02 ;     N1 - C7   - H7       N2 -   CT - HC  
    10      7     21      1 ;    1.0968e+02    4.0141e+02 ;     N1 - C7   - H8       N2 -   CT - HC  
    10      8     22      1 ;    1.0968e+02    4.0141e+02 ;     N1 - C8   - H9       N2 -   CT - HC  
    10      8     23      1 ;    1.0968e+02    4.0141e+02 ;     N1 - C8   - H10      N2 -   CT - HC  
    11      9     12      1 ;    1.0737e+02    8.9437e+02 ;     F1 - C9   - F2        x -   CT - x   
    11      9     13      1 ;    1.0737e+02    8.9437e+02 ;     F1 - C9   - F3        x -   CT - x   
    12      9     13      1 ;    1.0737e+02    8.9437e+02 ;     F2 - C9   - F3        x -   CT - x   
    19      7     20      1 ;    1.0855e+02    2.9824e+02 ;     H6 - C7   - H7       HC -   CT - HC  
    19      7     21      1 ;    1.0855e+02    2.9824e+02 ;     H6 - C7   - H8       HC -   CT - HC  
    20      7     21      1 ;    1.0855e+02    2.9824e+02 ;     H7 - C7   - H8       HC -   CT - HC  
    22      8     23      1 ;    1.0855e+02    2.9824e+02 ;     H9 - C8   - H10      HC -   CT - HC  

[ dihedrals ] ; propers
; for gromacs 4.5 or higher, using funct 9
;    i      j      k      l   func   phase     kd      pn
     1      2      4      6      9 ;   180.00  15.16700   2 ;     C1-    C2-    C4-    C6
     1      2      4     17      9 ;   180.00  15.16700   2 ;     C1-    C2-    C4-    H4
     1      3      5      6      9 ;   180.00  15.16700   2 ;     C1-    C3-    C5-    C6
     1      3      5     18      9 ;   180.00  15.16700   2 ;     C1-    C3-    C5-    H5
     2      1      3      5      9 ;   180.00  15.16700   2 ;     C2-    C1-    C3-    C5
     2      1      3     16      9 ;   180.00  15.16700   2 ;     C2-    C1-    C3-    H3
     2      4      6      5      9 ;   180.00  15.16700   2 ;     C2-    C4-    C6-    C5
     2      4      6     10      9 ;   180.00  15.16700   2 ;     C2-    C4-    C6-    N1
     3      1      2      4      9 ;   180.00  15.16700   2 ;     C3-    C1-    C2-    C4
     3      1      2     15      9 ;   180.00  15.16700   2 ;     C3-    C1-    C2-    H2
     3      5      6      4      9 ;   180.00  15.16700   2 ;     C3-    C5-    C6-    C4
     3      5      6     10      9 ;   180.00  15.16700   2 ;     C3-    C5-    C6-    N1
     4      6      5     18      9 ;   180.00  15.16700   2 ;     C4-    C6-    C5-    H5
     4      6     10      7      9 ;   180.00   3.15055   2 ;     C4-    C6-    N1-    C7
     4      6     10      8      9 ;   180.00   3.15055   2 ;     C4-    C6-    N1-    C8
     5      6      4     17      9 ;   180.00  15.16700   2 ;     C5-    C6-    C4-    H4
     5      6     10      7      9 ;   180.00   3.15055   2 ;     C5-    C6-    N1-    C7
     5      6     10      8      9 ;   180.00   3.15055   2 ;     C5-    C6-    N1-    C8
     6      4      2     15      9 ;   180.00  15.16700   2 ;     C6-    C4-    C2-    H2
     6      5      3     16      9 ;   180.00  15.16700   2 ;     C6-    C5-    C3-    H3
     6     10      7     19      9 ;     0.00   1.38909   2 ;     C6-    N1-    C7-    H6
     6     10      7     20      9 ;     0.00   1.38909   2 ;     C6-    N1-    C7-    H7
     6     10      7     21      9 ;     0.00   1.38909   2 ;     C6-    N1-    C7-    H8
     6     10      8      9      9 ;     0.00   0.00000   0 ;     C6-    N1-    C8-    C9
     6     10      8     22      9 ;     0.00   1.38909   2 ;     C6-    N1-    C8-    H9
     6     10      8     23      9 ;     0.00   1.38909   2 ;     C6-    N1-    C8-   H10
     7     10      8      9      9 ;     0.00   0.00000   0 ;     C7-    N1-    C8-    C9
     7     10      8     22      9 ;     0.00   0.00000   0 ;     C7-    N1-    C8-    H9
     7     10      8     23      9 ;     0.00   0.00000   0 ;     C7-    N1-    C8-   H10
     8     10      7     19      9 ;     0.00   0.00000   0 ;     C8-    N1-    C7-    H6
     8     10      7     20      9 ;     0.00   0.00000   0 ;     C8-    N1-    C7-    H7
     8     10      7     21      9 ;     0.00   0.00000   0 ;     C8-    N1-    C7-    H8
    10      6      4     17      9 ;   180.00  15.16700   2 ;     N1-    C6-    C4-    H4
    10      6      5     18      9 ;   180.00  15.16700   2 ;     N1-    C6-    C5-    H5
    10      8      9     11      9 ;     0.00   0.65084   3 ;     N1-    C8-    C9-    F1
    10      8      9     12      9 ;     0.00   0.65084   3 ;     N1-    C8-    C9-    F2
    10      8      9     13      9 ;     0.00   0.65084   3 ;     N1-    C8-    C9-    F3
    11      9      8     22      9 ;     0.00   0.00000   0 ;     F1-    C9-    C8-    H9
    11      9      8     22      9 ;     0.00   0.79496   1 ;     F1-    C9-    C8-    H9
    11      9      8     23      9 ;     0.00   0.00000   0 ;     F1-    C9-    C8-   H10
    11      9      8     23      9 ;     0.00   0.79496   1 ;     F1-    C9-    C8-   H10
    12      9      8     22      9 ;     0.00   0.00000   0 ;     F2-    C9-    C8-    H9
    12      9      8     22      9 ;     0.00   0.79496   1 ;     F2-    C9-    C8-    H9
    12      9      8     23      9 ;     0.00   0.00000   0 ;     F2-    C9-    C8-   H10
    12      9      8     23      9 ;     0.00   0.79496   1 ;     F2-    C9-    C8-   H10
    13      9      8     22      9 ;     0.00   0.00000   0 ;     F3-    C9-    C8-    H9
    13      9      8     22      9 ;     0.00   0.79496   1 ;     F3-    C9-    C8-    H9
    13      9      8     23      9 ;     0.00   0.00000   0 ;     F3-    C9-    C8-   H10
    13      9      8     23      9 ;     0.00   0.79496   1 ;     F3-    C9-    C8-   H10
    14      1      2      4      9 ;   180.00  15.16700   2 ;     H1-    C1-    C2-    C4
    14      1      2     15      9 ;   180.00  15.16700   2 ;     H1-    C1-    C2-    H2
    14      1      3      5      9 ;   180.00  15.16700   2 ;     H1-    C1-    C3-    C5
    14      1      3     16      9 ;   180.00  15.16700   2 ;     H1-    C1-    C3-    H3
    15      2      4     17      9 ;   180.00  15.16700   2 ;     H2-    C2-    C4-    H4
    16      3      5     18      9 ;   180.00  15.16700   2 ;     H3-    C3-    C5-    H5

[ dihedrals ] ; impropers
; treated as propers in GROMACS to use correct AMBER analytical function
;    i      j      k      l   func   phase     kd      pn
     1      4      2     15      4 ;   180.00   4.60240   2 ;     C1-    C4-    C2-    H2
     1      5      3     16      4 ;   180.00   4.60240   2 ;     C1-    C5-    C3-    H3
     2      6      4     17      4 ;   180.00   4.60240   2 ;     C2-    C6-    C4-    H4
     3      6      5     18      4 ;   180.00   4.60240   2 ;     C3-    C6-    C5-    H5
     4      5      6     10      4 ;   180.00   4.60240   2 ;     C4-    C5-    C6-    N1
     7      8     10      6      4 ;   180.00   4.60240   2 ;     C7-    C8-    N1-    C6
    14      1      3      2      4 ;   180.00   4.60240   2 ;     H1-    C1-    C3-    C2
