; mobley_3370989_GMX_OPLS.itp created by acpype (v: 2023.10.27) on Wed May 20 23:42:15 2026

; For OPLS atomtypes manual fine tuning
; AC_at:OPLS_at:OPLScode: Possible_Alternatives (see ffoplsaa.atp and ffoplsaanb.itp)
; c3:CT:opls_135: ['136', '137', '149', '157', '158', '206', '209', '210', '223B', '224B', '245', '246', '274', '283', '284', '285', '292', '292B', '293B', '296', '307', '308', '505']
; f:x:opls_x: []
; hc:HC:opls_140: []
; h2:x:opls_x: []

[ moleculetype ]
;name            nrexcl
 mobley_3370989   3

[ atoms ]
;   nr  type  resi  res  atom  cgnr     charge      mass       ; qtot   bond_type
     1 opls_135     1   MOL    C1    1    -0.152100     12.01100 ; qtot -0.152  CT  
     2 opls_135     1   MOL    C2    2     0.399899     12.01100 ; qtot  0.248  CT  
     3 opls_x     1   MOL    F1    3    -0.249300      0.00000 ; qtot -0.002  x   
     4 opls_x     1   MOL    F2    4    -0.249300      0.00000 ; qtot -0.251  x   
     5 opls_140     1   MOL    H1    5     0.063367      1.00800 ; qtot -0.187  HC  
     6 opls_140     1   MOL    H2    6     0.063367      1.00800 ; qtot -0.124  HC  
     7 opls_140     1   MOL    H3    7     0.063367      1.00800 ; qtot -0.061  HC  
     8 opls_x     1   MOL    H4    8     0.060700      0.00000 ; qtot  0.000  x   

[ bonds ]
;   ai     aj funct   r             k
     1      2   1 ;    1.5354e-01    1.9154e+05 ;     C1 - C2         CT - CT    
     1      5   1 ;    1.0962e-01    2.8891e+05 ;     C1 - H1         CT - HC    
     1      6   1 ;    1.0962e-01    2.8891e+05 ;     C1 - H2         CT - HC    
     1      7   1 ;    1.0962e-01    2.8891e+05 ;     C1 - H3         CT - HC    
     2      3   1 ;    1.3512e-01    2.7973e+05 ;     C2 - F1         CT - x     
     2      4   1 ;    1.3512e-01    2.7973e+05 ;     C2 - F2         CT - x     
     2      8   1 ;    1.0950e-01    2.9039e+05 ;     C2 - H4         CT - x     

[ pairs ]
;   ai     aj    funct
     5      3      1 ;     H1 - F1    
     5      4      1 ;     H1 - F2    
     5      8      1 ;     H1 - H4    
     6      3      1 ;     H2 - F1    
     6      4      1 ;     H2 - F2    
     6      8      1 ;     H2 - H4    
     7      3      1 ;     H3 - F1    
     7      4      1 ;     H3 - F2    
     7      8      1 ;     H3 - H4    

[ angles ]
;   ai     aj     ak    funct   theta         cth
     1      2      3      1 ;    1.0948e+02    6.6408e+02 ;     C1 - C2   - F1       CT -   CT - x   
     1      2      4      1 ;    1.0948e+02    6.6408e+02 ;     C1 - C2   - F2       CT -   CT - x   
     1      2      8      1 ;    1.1042e+02    3.6091e+02 ;     C1 - C2   - H4       CT -   CT - x   
     2      1      5      1 ;    1.0968e+02    3.6208e+02 ;     C2 - C1   - H1       CT -   CT - HC  
     2      1      6      1 ;    1.0968e+02    3.6208e+02 ;     C2 - C1   - H2       CT -   CT - HC  
     2      1      7      1 ;    1.0968e+02    3.6208e+02 ;     C2 - C1   - H3       CT -   CT - HC  
     3      2      4      1 ;    1.0737e+02    8.9437e+02 ;     F1 - C2   - F2        x -   CT - x   
     3      2      8      1 ;    1.0907e+02    5.0032e+02 ;     F1 - C2   - H4        x -   CT - x   
     4      2      8      1 ;    1.0907e+02    5.0032e+02 ;     F2 - C2   - H4        x -   CT - x   
     5      1      6      1 ;    1.0773e+02    2.9957e+02 ;     H1 - C1   - H2       HC -   CT - HC  
     5      1      7      1 ;    1.0773e+02    2.9957e+02 ;     H1 - C1   - H3       HC -   CT - HC  
     6      1      7      1 ;    1.0773e+02    2.9957e+02 ;     H2 - C1   - H3       HC -   CT - HC  

[ dihedrals ] ; propers
; for gromacs 4.5 or higher, using funct 9
;    i      j      k      l   func   phase     kd      pn
     5      1      2      3      9 ;     0.00   0.37656   3 ;     H1-    C1-    C2-    F1
     5      1      2      4      9 ;     0.00   0.37656   3 ;     H1-    C1-    C2-    F2
     5      1      2      8      9 ;     0.00   0.65084   3 ;     H1-    C1-    C2-    H4
     6      1      2      3      9 ;     0.00   0.37656   3 ;     H2-    C1-    C2-    F1
     6      1      2      4      9 ;     0.00   0.37656   3 ;     H2-    C1-    C2-    F2
     6      1      2      8      9 ;     0.00   0.65084   3 ;     H2-    C1-    C2-    H4
     7      1      2      3      9 ;     0.00   0.37656   3 ;     H3-    C1-    C2-    F1
     7      1      2      4      9 ;     0.00   0.37656   3 ;     H3-    C1-    C2-    F2
     7      1      2      8      9 ;     0.00   0.65084   3 ;     H3-    C1-    C2-    H4
