; mobley_5072416_GMX_OPLS.top created by acpype (v: 2023.10.27) on Wed May 20 23:58:51 2026

; Include forcefield parameters
#include "ffoplsaa.itp"

; Include mobley_5072416_GMX.itp topology
#include "mobley_5072416_GMX.itp"

; Ligand position restraints
#ifdef POSRES_LIG
#include "posre_mobley_5072416.itp"
#endif

[ system ]
 mobley_5072416

[ molecules ]
; Compound        nmols
 mobley_5072416   1     
