mobley_5072416_GMX.gro created by acpype (v: 2023.10.27) on Wed May 20 23:58:51 2026
 18
    1  MOL   C1    1   0.189  -0.104  -0.011
    1  MOL   C2    2   0.082  -0.044   0.056
    1  MOL   C3    3   0.294  -0.160   0.061
    1  MOL   C4    4   0.080  -0.041   0.196
    1  MOL   C5    5   0.292  -0.157   0.201
    1  MOL   C6    6   0.185  -0.098   0.268
    1  MOL   C7    7   0.119  -0.203   0.471
    1  MOL   N1    8   0.399  -0.215   0.273
    1  MOL   O1    9   0.181  -0.094   0.404
    1  MOL   H1   10   0.190  -0.106  -0.120
    1  MOL   H2   11   0.000  -0.000  -0.000
    1  MOL   H3   12   0.376  -0.207   0.008
    1  MOL   H4   13  -0.003   0.006   0.247
    1  MOL   H5   14   0.190  -0.285   0.482
    1  MOL   H6   15   0.032  -0.236   0.412
    1  MOL   H7   16   0.085  -0.170   0.569
    1  MOL   H8   17   0.455  -0.285   0.229
    1  MOL   H9   18   0.411  -0.192   0.369
    9.16400     5.81400    13.77600
