2_methoxyaniline
    18
   1.8850000  -1.0380000  -0.1090000   0.8180000  -0.4410000   0.5630000
   2.9350000  -1.6040000   0.6140000   0.8010000  -0.4100000   1.9570000
   2.9180000  -1.5730000   2.0080000   1.8510000  -0.9770000   2.6800000
   1.1870000  -2.0310000   4.7060000   3.9880000  -2.1500000   2.7270000
   1.8150000  -0.9360000   4.0420000   1.8980000  -1.0610000  -1.1950000
   0.0000000  -0.0000000  -0.0000000   3.7610000  -2.0660000   0.0800000
  -0.0340000   0.0560000   2.4740000   1.9020000  -2.8490000   4.8190000
   0.3240000  -2.3640000   4.1240000   0.8530000  -1.7030000   5.6930000
   4.5480000  -2.8510000   2.2870000   4.1070000  -1.9160000   3.6910000
