1_methylcyclohexene
    19
   1.7770000   0.4550000  -1.0850000   2.2250000   1.2890000  -2.0400000
   0.3710000  -0.0660000  -1.0290000   1.3430000   1.7500000  -3.1740000
  -0.5880000   0.6850000  -1.9520000   0.0500000   0.9430000  -3.3120000
   3.6290000   1.8160000  -2.0380000   2.4520000   0.1320000  -0.2970000
   0.3860000  -1.1290000  -1.2960000  -0.0000000   0.0000000   0.0000000
   1.0980000   2.8070000  -3.0140000   1.8940000   1.6870000  -4.1210000
  -1.5120000   0.1090000  -2.0710000  -0.8670000   1.6420000  -1.4930000
  -0.6510000   1.4780000  -3.9630000   0.2660000  -0.0170000  -3.7990000
   4.1710000   1.4010000  -1.1910000   3.6100000   2.9010000  -1.9620000
   4.1250000   1.5320000  -2.9640000
