%VERSION  VERSION_STAMP = V0001.000  DATE = 05/20/26  23:55:05                  
%FLAG TITLE                                                                     
%FORMAT(20a4)                                                                   
1_methylcyclohexene                                                             
%FLAG POINTERS                                                                  
%FORMAT(10I8)                                                                   
      19       4      12       7      28       8      42      13       0       0
     103       1       7       8      13       7      12      12       5       0
       0       0       0       0       0       0       0       0      19       0
       0
%FLAG ATOM_NAME                                                                 
%FORMAT(20a4)                                                                   
C1  C2  C3  C4  C5  C6  C7  H1  H2  H3  H4  H5  H6  H7  H8  H9  H10 H11 H12 
%FLAG CHARGE                                                                    
%FORMAT(5E16.8)                                                                 
 -3.13788006E+00 -2.17574262E+00 -7.87203360E-01 -7.50758760E-01 -1.37396142E+00
 -1.37396142E+00 -1.03684887E+00  2.18667600E+00  8.32759110E-01  8.32759110E-01
  8.41870260E-01  8.41870260E-01  7.32536460E-01  7.32536460E-01  7.32536460E-01
  7.32536460E-01  7.23425310E-01  7.23425310E-01  7.23425310E-01
%FLAG ATOMIC_NUMBER                                                             
%FORMAT(10I8)                                                                   
       6       6       6       6       6       6       6       1       1       1
       1       1       1       1       1       1       1       1       1
%FLAG MASS                                                                      
%FORMAT(5E16.8)                                                                 
  1.20100000E+01  1.20100000E+01  1.20100000E+01  1.20100000E+01  1.20100000E+01
  1.20100000E+01  1.20100000E+01  1.00800000E+00  1.00800000E+00  1.00800000E+00
  1.00800000E+00  1.00800000E+00  1.00800000E+00  1.00800000E+00  1.00800000E+00
  1.00800000E+00  1.00800000E+00  1.00800000E+00  1.00800000E+00
%FLAG ATOM_TYPE_INDEX                                                           
%FORMAT(10I8)                                                                   
       1       1       2       2       2       2       2       3       4       4
       4       4       4       4       4       4       4       4       4
%FLAG NUMBER_EXCLUDED_ATOMS                                                     
%FORMAT(10I8)                                                                   
      16      15      11      13      10       9       6       2       3       2
       3       2       3       2       1       1       2       1       1
%FLAG NONBONDED_PARM_INDEX                                                      
%FORMAT(10I8)                                                                   
       1       2       4       7       2       3       5       8       4       5
       6       9       7       8       9      10
%FLAG RESIDUE_LABEL                                                             
%FORMAT(20a4)                                                                   
MOL 
%FLAG RESIDUE_POINTER                                                           
%FORMAT(10I8)                                                                   
       1
%FLAG BOND_FORCE_CONSTANT                                                       
%FORMAT(5E16.8)                                                                 
  4.36000000E+02  2.44960000E+02  3.57290000E+02  2.48400000E+02  2.26810000E+02
  3.42750000E+02  3.45250000E+02
%FLAG BOND_EQUIL_VALUE                                                          
%FORMAT(5E16.8)                                                                 
  1.33790000E+00  1.51330000E+00  1.08820000E+00  1.50880000E+00  1.53840000E+00
  1.09790000E+00  1.09620000E+00
%FLAG ANGLE_FORCE_CONSTANT                                                      
%FORMAT(5E16.8)                                                                 
  6.12400000E+01  6.08800000E+01  6.05700000E+01  4.39000000E+01  4.63700000E+01
  4.37600000E+01  4.25500000E+01  6.01800000E+01  4.32300000E+01  5.97700000E+01
  3.59300000E+01  3.58000000E+01
%FLAG ANGLE_EQUIL_VALUE                                                         
%FORMAT(5E16.8)                                                                 
  2.14710497E+00  2.18078984E+00  1.94447215E+00  1.90782022E+00  2.10120279E+00
  1.93120765E+00  2.03453118E+00  1.93836350E+00  1.91026369E+00  2.03697464E+00
  1.86087085E+00  1.88024401E+00
%FLAG DIHEDRAL_FORCE_CONSTANT                                                   
%FORMAT(5E16.8)                                                                 
  0.00000000E+00  2.60000000E-01  1.55555556E-01  1.50000000E-01  5.78000000E+00
  1.33000000E+00  5.20000000E-01  1.30000000E-01  6.65000000E+00  1.50000000E-01
  1.20000000E-01  1.10000000E+00
%FLAG DIHEDRAL_PERIODICITY                                                      
%FORMAT(5E16.8)                                                                 
  2.00000000E+00  3.00000000E+00  3.00000000E+00  1.00000000E+00  2.00000000E+00
  3.00000000E+00  3.00000000E+00  3.00000000E+00  2.00000000E+00  3.00000000E+00
  3.00000000E+00  2.00000000E+00
%FLAG DIHEDRAL_PHASE                                                            
%FORMAT(5E16.8)                                                                 
  0.00000000E+00  3.14159400E+00  0.00000000E+00  0.00000000E+00  3.14159400E+00
  3.14159400E+00  0.00000000E+00  0.00000000E+00  3.14159400E+00  0.00000000E+00
  0.00000000E+00  3.14159400E+00
%FLAG SCEE_SCALE_FACTOR                                                         
%FORMAT(5E16.8)                                                                 
  1.20000000E+00  1.20000000E+00  1.20000000E+00  1.20000000E+00  1.20000000E+00
  1.20000000E+00  1.20000000E+00  1.20000000E+00  1.20000000E+00  1.20000000E+00
  1.20000000E+00  0.00000000E+00
%FLAG SCNB_SCALE_FACTOR                                                         
%FORMAT(5E16.8)                                                                 
  2.00000000E+00  2.00000000E+00  2.00000000E+00  2.00000000E+00  2.00000000E+00
  2.00000000E+00  2.00000000E+00  2.00000000E+00  2.00000000E+00  2.00000000E+00
  2.00000000E+00  0.00000000E+00
%FLAG SOLTY                                                                     
%FORMAT(5E16.8)                                                                 
  0.00000000E+00  0.00000000E+00  0.00000000E+00  0.00000000E+00  0.00000000E+00
%FLAG LENNARD_JONES_ACOEF                                                       
%FORMAT(5E16.8)                                                                 
  6.96551276E+05  8.43969952E+05  1.02073671E+06  7.52549148E+04  9.27554496E+04
  6.90855956E+03  8.12662403E+04  1.00235148E+05  7.41026906E+03  7.94617769E+03
%FLAG LENNARD_JONES_BCOEF                                                       
%FORMAT(5E16.8)                                                                 
  5.24668528E+02  5.90251928E+02  6.63431737E+02  1.09570372E+02  1.24325688E+02
  2.10929191E+01  1.21392023E+02  1.37787728E+02  2.32899892E+01  2.57122925E+01
%FLAG BONDS_INC_HYDROGEN                                                        
%FORMAT(10I8)                                                                   
       0      21       3       6      24       6       6      27       6       9
      30       6       9      33       6      12      36       6      12      39
       6      15      42       6      15      45       6      18      48       7
      18      51       7      18      54       7
%FLAG BONDS_WITHOUT_HYDROGEN                                                    
%FORMAT(10I8)                                                                   
       0       3       1       0       6       2       3       9       2       3
      18       4       6      12       5       9      15       5      12      15
       5
%FLAG ANGLES_INC_HYDROGEN                                                       
%FORMAT(10I8)                                                                   
       0       6      24       4       0       6      27       4       3       0
      21       5       3       9      30       4       3       9      33       4
       3      18      48       6       3      18      51       6       3      18
      54       6       6       0      21       7       6      12      36       9
       6      12      39       9       9      15      42       9       9      15
      45       9      12       6      24       9      12       6      27       9
      12      15      42       9      12      15      45       9      15       9
      30       9      15       9      33       9      15      12      36       9
      15      12      39       9      24       6      27      11      30       9
      33      11      36      12      39      11      42      15      45      11
      48      18      51      12      48      18      54      12      51      18
      54      12
%FLAG ANGLES_WITHOUT_HYDROGEN                                                   
%FORMAT(10I8)                                                                   
       0       3       9       1       0       3      18       2       0       6
      12       3       3       0       6       1       3       9      15       3
       6      12      15       8       9       3      18      10       9      15
      12       8
%FLAG DIHEDRALS_INC_HYDROGEN                                                    
%FORMAT(10I8)                                                                   
       0       3       9      30       2       0       3       9      33       2
       0       3      18      48       2       0       3      18      51       2
       0       3      18      54       2       0       6      12      36       3
       0       6      12      39       3       3       0       6      24       2
       3       0       6      27       2       3       9      15      42       3
       3       9      15      45       3       6      12      15      42       8
       6      12      15      45       8      21       0       3       9       9
       9       3      18      48      10       9       3      18      51      10
       9       3      18      54      10       9      15      12      36       8
       9      15      12      39       8      21       0       6      12       1
      12      15       9      30       8      12      15       9      33       8
      15      12       6      24       8      15      12       6      27       8
      21       0       3      18       9      18       3       9      30      10
      18       3       9      33      10      21       0       6      24       1
      21       0       6      27       1      24       6      12      36      11
      24       6      12      39      11      27       6      12      36      11
      27       6      12      39      11      30       9      15      42      11
      30       9      15      45      11      33       9      15      42      11
      33       9      15      45      11      36      12      15      42      11
      36      12      15      45      11      39      12      15      42      11
      39      12      15      45      11      21       0      -6      -3      12
%FLAG DIHEDRALS_WITHOUT_HYDROGEN                                                
%FORMAT(10I8)                                                                   
       0       3       9      15       1       0       6     -12      15       3
       3       0       6      12       1       3       9     -15      12       3
       6       0       3       9       4       6       0      -3       9       5
       6       0      -3       9       6       6       0       3      18       4
       6       0      -3      18       5       6       0      -3      18       6
       6      12     -15       9       7      15       9       3      18       1
       0      18      -3      -9      12
%FLAG EXCLUDED_ATOMS_LIST                                                       
%FORMAT(10I8)                                                                   
       2       3       4       5       6       7       8       9      10      11
      12      13      14      17      18      19       3       4       5       6
       7       8       9      10      11      12      15      16      17      18
      19       4       5       6       7       8       9      10      13      14
      15      16       5       6       7       8      11      12      13      14
      15      16      17      18      19       6       8       9      10      11
      12      13      14      15      16       7       9      10      11      12
      13      14      15      16       8      11      12      17      18      19
       9      10      10      13      14      13      14      12      15      16
      15      16      14      15      16      15      16      16       0      18
      19      19       0
%FLAG HBOND_ACOEF                                                               
%FORMAT(5E16.8)                                                                 

%FLAG HBOND_BCOEF                                                               
%FORMAT(5E16.8)                                                                 

%FLAG HBCUT                                                                     
%FORMAT(5E16.8)                                                                 

%FLAG AMBER_ATOM_TYPE                                                           
%FORMAT(20a4)                                                                   
c2  c2  c6  c6  c6  c6  c3  ha  hc  hc  hc  hc  hc  hc  hc  hc  hc  hc  hc  
%FLAG TREE_CHAIN_CLASSIFICATION                                                 
%FORMAT(20a4)                                                                   
BLA BLA BLA BLA BLA BLA BLA BLA BLA BLA BLA BLA BLA BLA BLA BLA BLA BLA BLA 
%FLAG JOIN_ARRAY                                                                
%FORMAT(10I8)                                                                   
       0       0       0       0       0       0       0       0       0       0
       0       0       0       0       0       0       0       0       0
%FLAG IROTAT                                                                    
%FORMAT(10I8)                                                                   
       0       0       0       0       0       0       0       0       0       0
       0       0       0       0       0       0       0       0       0
%FLAG RADIUS_SET                                                                
%FORMAT(1a80)                                                                   
modified Bondi radii (mbondi)                                                   
%FLAG RADII                                                                     
%FORMAT(5E16.8)                                                                 
  1.70000000E+00  1.70000000E+00  1.70000000E+00  1.70000000E+00  1.70000000E+00
  1.70000000E+00  1.70000000E+00  1.30000000E+00  1.30000000E+00  1.30000000E+00
  1.30000000E+00  1.30000000E+00  1.30000000E+00  1.30000000E+00  1.30000000E+00
  1.30000000E+00  1.30000000E+00  1.30000000E+00  1.30000000E+00
%FLAG SCREEN                                                                    
%FORMAT(5E16.8)                                                                 
  7.20000000E-01  7.20000000E-01  7.20000000E-01  7.20000000E-01  7.20000000E-01
  7.20000000E-01  7.20000000E-01  8.50000000E-01  8.50000000E-01  8.50000000E-01
  8.50000000E-01  8.50000000E-01  8.50000000E-01  8.50000000E-01  8.50000000E-01
  8.50000000E-01  8.50000000E-01  8.50000000E-01  8.50000000E-01
%FLAG IPOL                                                                      
%FORMAT(1I8)                                                                    
       0
