; mobley_6571751_GMX_OPLS.itp created by acpype (v: 2023.10.27) on Wed May 20 23:55:04 2026

; For OPLS atomtypes manual fine tuning
; AC_at:OPLS_at:OPLScode: Possible_Alternatives (see ffoplsaa.atp and ffoplsaanb.itp)
; c2:CR:opls_509: ['510']
; c6:x:opls_x: []
; c3:CT:opls_135: ['136', '137', '149', '157', '158', '206', '209', '210', '223B', '224B', '245', '246', '274', '283', '284', '285', '292', '292B', '293B', '296', '307', '308', '505']
; ha:HA:opls_146: []
; hc:HC:opls_140: []

[ moleculetype ]
;name            nrexcl
 mobley_6571751   3

[ atoms ]
;   nr  type  resi  res  atom  cgnr     charge      mass       ; qtot   bond_type
     1 opls_509     1   MOL    C1    1    -0.172200     12.01100 ; qtot -0.172  CR  
     2 opls_509     1   MOL    C2    2    -0.119400     12.01100 ; qtot -0.292  CR  
     3 opls_x     1   MOL    C3    3    -0.043200      0.00000 ; qtot -0.335  x   
     4 opls_x     1   MOL    C4    4    -0.041200      0.00000 ; qtot -0.376  x   
     5 opls_x     1   MOL    C5    5    -0.075400      0.00000 ; qtot -0.451  x   
     6 opls_x     1   MOL    C6    6    -0.075400      0.00000 ; qtot -0.527  x   
     7 opls_135     1   MOL    C7    7    -0.056900     12.01100 ; qtot -0.584  CT  
     8 opls_146     1   MOL    H1    8     0.120000      1.00800 ; qtot -0.464  HA  
     9 opls_140     1   MOL    H2    9     0.045700      1.00800 ; qtot -0.418  HC  
    10 opls_140     1   MOL    H3   10     0.045700      1.00800 ; qtot -0.372  HC  
    11 opls_140     1   MOL    H4   11     0.046200      1.00800 ; qtot -0.326  HC  
    12 opls_140     1   MOL    H5   12     0.046200      1.00800 ; qtot -0.280  HC  
    13 opls_140     1   MOL    H6   13     0.040200      1.00800 ; qtot -0.240  HC  
    14 opls_140     1   MOL    H7   14     0.040200      1.00800 ; qtot -0.199  HC  
    15 opls_140     1   MOL    H8   15     0.040200      1.00800 ; qtot -0.159  HC  
    16 opls_140     1   MOL    H9   16     0.040200      1.00800 ; qtot -0.119  HC  
    17 opls_140     1   MOL   H10   17     0.039700      1.00800 ; qtot -0.079  HC  
    18 opls_140     1   MOL   H11   18     0.039700      1.00800 ; qtot -0.040  HC  
    19 opls_140     1   MOL   H12   19     0.039700      1.00800 ; qtot  0.000  HC  

[ bonds ]
;   ai     aj funct   r             k
     1      2   1 ;    1.3379e-01    3.6484e+05 ;     C1 - C2         CR - CR    
     1      3   1 ;    1.5133e-01    2.0498e+05 ;     C1 - C3         CR - x     
     1      8   1 ;    1.0882e-01    2.9898e+05 ;     C1 - H1         CR - HA    
     2      4   1 ;    1.5133e-01    2.0498e+05 ;     C2 - C4         CR - x     
     2      7   1 ;    1.5088e-01    2.0786e+05 ;     C2 - C7         CR - CT    
     3      5   1 ;    1.5384e-01    1.8979e+05 ;     C3 - C5          x - x     
     3      9   1 ;    1.0979e-01    2.8681e+05 ;     C3 - H2          x - HC    
     3     10   1 ;    1.0979e-01    2.8681e+05 ;     C3 - H3          x - HC    
     4      6   1 ;    1.5384e-01    1.8979e+05 ;     C4 - C6          x - x     
     4     11   1 ;    1.0979e-01    2.8681e+05 ;     C4 - H4          x - HC    
     4     12   1 ;    1.0979e-01    2.8681e+05 ;     C4 - H5          x - HC    
     5      6   1 ;    1.5384e-01    1.8979e+05 ;     C5 - C6          x - x     
     5     13   1 ;    1.0979e-01    2.8681e+05 ;     C5 - H6          x - HC    
     5     14   1 ;    1.0979e-01    2.8681e+05 ;     C5 - H7          x - HC    
     6     15   1 ;    1.0979e-01    2.8681e+05 ;     C6 - H8          x - HC    
     6     16   1 ;    1.0979e-01    2.8681e+05 ;     C6 - H9          x - HC    
     7     17   1 ;    1.0962e-01    2.8891e+05 ;     C7 - H10        CT - HC    
     7     18   1 ;    1.0962e-01    2.8891e+05 ;     C7 - H11        CT - HC    
     7     19   1 ;    1.0962e-01    2.8891e+05 ;     C7 - H12        CT - HC    

[ pairs ]
;   ai     aj    funct
     1      6      1 ;     C1 - C6    
     1     11      1 ;     C1 - H4    
     1     12      1 ;     C1 - H5    
     1     13      1 ;     C1 - H6    
     1     14      1 ;     C1 - H7    
     1     17      1 ;     C1 - H10   
     1     18      1 ;     C1 - H11   
     1     19      1 ;     C1 - H12   
     2      5      1 ;     C2 - C5    
     2      9      1 ;     C2 - H2    
     2     10      1 ;     C2 - H3    
     2     15      1 ;     C2 - H8    
     2     16      1 ;     C2 - H9    
     3      4      1 ;     C3 - C4    
     3      7      1 ;     C3 - C7    
     3     15      1 ;     C3 - H8    
     3     16      1 ;     C3 - H9    
     4     13      1 ;     C4 - H6    
     4     14      1 ;     C4 - H7    
     4     17      1 ;     C4 - H10   
     4     18      1 ;     C4 - H11   
     4     19      1 ;     C4 - H12   
     5     11      1 ;     C5 - H4    
     5     12      1 ;     C5 - H5    
     6      7      1 ;     C6 - C7    
     6      9      1 ;     C6 - H2    
     6     10      1 ;     C6 - H3    
     7     11      1 ;     C7 - H4    
     7     12      1 ;     C7 - H5    
     8      4      1 ;     H1 - C4    
     8      5      1 ;     H1 - C5    
     8      7      1 ;     H1 - C7    
     8      9      1 ;     H1 - H2    
     8     10      1 ;     H1 - H3    
     9     13      1 ;     H2 - H6    
     9     14      1 ;     H2 - H7    
    10     13      1 ;     H3 - H6    
    10     14      1 ;     H3 - H7    
    11     15      1 ;     H4 - H8    
    11     16      1 ;     H4 - H9    
    12     15      1 ;     H5 - H8    
    12     16      1 ;     H5 - H9    
    13     15      1 ;     H6 - H8    
    13     16      1 ;     H6 - H9    
    14     15      1 ;     H7 - H8    
    14     16      1 ;     H7 - H9    

[ angles ]
;   ai     aj     ak    funct   theta         cth
     1      2      4      1 ;    1.2302e+02    5.1246e+02 ;     C1 - C2   - C4       CR -   CR - x   
     1      2      7      1 ;    1.2495e+02    5.0944e+02 ;     C1 - C2   - C7       CR -   CR - CT  
     1      3      5      1 ;    1.1141e+02    5.0685e+02 ;     C1 - C3   - C5       CR -    x - x   
     1      3      9      1 ;    1.0931e+02    3.6736e+02 ;     C1 - C3   - H2       CR -    x - HC  
     1      3     10      1 ;    1.0931e+02    3.6736e+02 ;     C1 - C3   - H3       CR -    x - HC  
     2      1      3      1 ;    1.2302e+02    5.1246e+02 ;     C2 - C1   - C3       CR -   CR - x   
     2      1      8      1 ;    1.2039e+02    3.8802e+02 ;     C2 - C1   - H1       CR -   CR - HA  
     2      4      6      1 ;    1.1141e+02    5.0685e+02 ;     C2 - C4   - C6       CR -    x - x   
     2      4     11      1 ;    1.0931e+02    3.6736e+02 ;     C2 - C4   - H4       CR -    x - HC  
     2      4     12      1 ;    1.0931e+02    3.6736e+02 ;     C2 - C4   - H5       CR -    x - HC  
     2      7     17      1 ;    1.1065e+02    3.6618e+02 ;     C2 - C7   - H10      CR -   CT - HC  
     2      7     18      1 ;    1.1065e+02    3.6618e+02 ;     C2 - C7   - H11      CR -   CT - HC  
     2      7     19      1 ;    1.1065e+02    3.6618e+02 ;     C2 - C7   - H12      CR -   CT - HC  
     3      1      8      1 ;    1.1657e+02    3.5606e+02 ;     C3 - C1   - H1        x -   CR - HA  
     3      5      6      1 ;    1.1106e+02    5.0359e+02 ;     C3 - C5   - C6        x -    x - x   
     3      5     13      1 ;    1.0945e+02    3.6175e+02 ;     C3 - C5   - H6        x -    x - HC  
     3      5     14      1 ;    1.0945e+02    3.6175e+02 ;     C3 - C5   - H7        x -    x - HC  
     4      2      7      1 ;    1.1671e+02    5.0016e+02 ;     C4 - C2   - C7        x -   CR - CT  
     4      6      5      1 ;    1.1106e+02    5.0359e+02 ;     C4 - C6   - C5        x -    x - x   
     4      6     15      1 ;    1.0945e+02    3.6175e+02 ;     C4 - C6   - H8        x -    x - HC  
     4      6     16      1 ;    1.0945e+02    3.6175e+02 ;     C4 - C6   - H9        x -    x - HC  
     5      3      9      1 ;    1.0945e+02    3.6175e+02 ;     C5 - C3   - H2        x -    x - HC  
     5      3     10      1 ;    1.0945e+02    3.6175e+02 ;     C5 - C3   - H3        x -    x - HC  
     5      6     15      1 ;    1.0945e+02    3.6175e+02 ;     C5 - C6   - H8        x -    x - HC  
     5      6     16      1 ;    1.0945e+02    3.6175e+02 ;     C5 - C6   - H9        x -    x - HC  
     6      4     11      1 ;    1.0945e+02    3.6175e+02 ;     C6 - C4   - H4        x -    x - HC  
     6      4     12      1 ;    1.0945e+02    3.6175e+02 ;     C6 - C4   - H5        x -    x - HC  
     6      5     13      1 ;    1.0945e+02    3.6175e+02 ;     C6 - C5   - H6        x -    x - HC  
     6      5     14      1 ;    1.0945e+02    3.6175e+02 ;     C6 - C5   - H7        x -    x - HC  
     9      3     10      1 ;    1.0662e+02    3.0066e+02 ;     H2 - C3   - H3       HC -    x - HC  
    11      4     12      1 ;    1.0662e+02    3.0066e+02 ;     H4 - C4   - H5       HC -    x - HC  
    13      5     14      1 ;    1.0662e+02    3.0066e+02 ;     H6 - C5   - H7       HC -    x - HC  
    15      6     16      1 ;    1.0662e+02    3.0066e+02 ;     H8 - C6   - H9       HC -    x - HC  
    17      7     18      1 ;    1.0773e+02    2.9957e+02 ;    H10 - C7   - H11      HC -   CT - HC  
    17      7     19      1 ;    1.0773e+02    2.9957e+02 ;    H10 - C7   - H12      HC -   CT - HC  
    18      7     19      1 ;    1.0773e+02    2.9957e+02 ;    H11 - C7   - H12      HC -   CT - HC  

[ dihedrals ] ; propers
; for gromacs 4.5 or higher, using funct 9
;    i      j      k      l   func   phase     kd      pn
     1      2      4      6      9 ;     0.00   0.00000   0 ;     C1-    C2-    C4-    C6
     1      2      4     11      9 ;   180.00   1.08784   3 ;     C1-    C2-    C4-    H4
     1      2      4     12      9 ;   180.00   1.08784   3 ;     C1-    C2-    C4-    H5
     1      2      7     17      9 ;   180.00   1.08784   3 ;     C1-    C2-    C7-   H10
     1      2      7     18      9 ;   180.00   1.08784   3 ;     C1-    C2-    C7-   H11
     1      2      7     19      9 ;   180.00   1.08784   3 ;     C1-    C2-    C7-   H12
     1      3      5      6      9 ;     0.00   0.65084   3 ;     C1-    C3-    C5-    C6
     1      3      5     13      9 ;     0.00   0.65084   3 ;     C1-    C3-    C5-    H6
     1      3      5     14      9 ;     0.00   0.65084   3 ;     C1-    C3-    C5-    H7
     2      1      3      5      9 ;     0.00   0.00000   0 ;     C2-    C1-    C3-    C5
     2      1      3      9      9 ;   180.00   1.08784   3 ;     C2-    C1-    C3-    H2
     2      1      3     10      9 ;   180.00   1.08784   3 ;     C2-    C1-    C3-    H3
     2      4      6      5      9 ;     0.00   0.65084   3 ;     C2-    C4-    C6-    C5
     2      4      6     15      9 ;     0.00   0.65084   3 ;     C2-    C4-    C6-    H8
     2      4      6     16      9 ;     0.00   0.65084   3 ;     C2-    C4-    C6-    H9
     3      1      2      4      9 ;     0.00   0.62760   1 ;     C3-    C1-    C2-    C4
     3      1      2      4      9 ;   180.00   5.56472   3 ;     C3-    C1-    C2-    C4
     3      1      2      4      9 ;   180.00  24.18352   2 ;     C3-    C1-    C2-    C4
     3      1      2      7      9 ;     0.00   0.62760   1 ;     C3-    C1-    C2-    C7
     3      1      2      7      9 ;   180.00   5.56472   3 ;     C3-    C1-    C2-    C7
     3      1      2      7      9 ;   180.00  24.18352   2 ;     C3-    C1-    C2-    C7
     3      5      6      4      9 ;     0.00   2.17568   3 ;     C3-    C5-    C6-    C4
     3      5      6     15      9 ;     0.00   0.54392   3 ;     C3-    C5-    C6-    H8
     3      5      6     16      9 ;     0.00   0.54392   3 ;     C3-    C5-    C6-    H9
     4      2      7     17      9 ;     0.00   0.62760   3 ;     C4-    C2-    C7-   H10
     4      2      7     18      9 ;     0.00   0.62760   3 ;     C4-    C2-    C7-   H11
     4      2      7     19      9 ;     0.00   0.62760   3 ;     C4-    C2-    C7-   H12
     4      6      5     13      9 ;     0.00   0.54392   3 ;     C4-    C6-    C5-    H6
     4      6      5     14      9 ;     0.00   0.54392   3 ;     C4-    C6-    C5-    H7
     5      6      4     11      9 ;     0.00   0.54392   3 ;     C5-    C6-    C4-    H4
     5      6      4     12      9 ;     0.00   0.54392   3 ;     C5-    C6-    C4-    H5
     6      4      2      7      9 ;     0.00   0.00000   0 ;     C6-    C4-    C2-    C7
     6      5      3      9      9 ;     0.00   0.54392   3 ;     C6-    C5-    C3-    H2
     6      5      3     10      9 ;     0.00   0.54392   3 ;     C6-    C5-    C3-    H3
     7      2      4     11      9 ;     0.00   0.62760   3 ;     C7-    C2-    C4-    H4
     7      2      4     12      9 ;     0.00   0.62760   3 ;     C7-    C2-    C4-    H5
     8      1      2      4      9 ;   180.00  27.82360   2 ;     H1-    C1-    C2-    C4
     8      1      2      7      9 ;   180.00  27.82360   2 ;     H1-    C1-    C2-    C7
     8      1      3      5      9 ;     0.00   0.00000   0 ;     H1-    C1-    C3-    C5
     8      1      3      9      9 ;     0.00   0.00000   0 ;     H1-    C1-    C3-    H2
     8      1      3     10      9 ;     0.00   0.00000   0 ;     H1-    C1-    C3-    H3
     9      3      5     13      9 ;     0.00   0.50208   3 ;     H2-    C3-    C5-    H6
     9      3      5     14      9 ;     0.00   0.50208   3 ;     H2-    C3-    C5-    H7
    10      3      5     13      9 ;     0.00   0.50208   3 ;     H3-    C3-    C5-    H6
    10      3      5     14      9 ;     0.00   0.50208   3 ;     H3-    C3-    C5-    H7
    11      4      6     15      9 ;     0.00   0.50208   3 ;     H4-    C4-    C6-    H8
    11      4      6     16      9 ;     0.00   0.50208   3 ;     H4-    C4-    C6-    H9
    12      4      6     15      9 ;     0.00   0.50208   3 ;     H5-    C4-    C6-    H8
    12      4      6     16      9 ;     0.00   0.50208   3 ;     H5-    C4-    C6-    H9
    13      5      6     15      9 ;     0.00   0.50208   3 ;     H6-    C5-    C6-    H8
    13      5      6     16      9 ;     0.00   0.50208   3 ;     H6-    C5-    C6-    H9
    14      5      6     15      9 ;     0.00   0.50208   3 ;     H7-    C5-    C6-    H8
    14      5      6     16      9 ;     0.00   0.50208   3 ;     H7-    C5-    C6-    H9

[ dihedrals ] ; impropers
; treated as propers in GROMACS to use correct AMBER analytical function
;    i      j      k      l   func   phase     kd      pn
     1      7      2      4      4 ;   180.00   4.60240   2 ;     C1-    C7-    C2-    C4
     8      1      3      2      4 ;   180.00   4.60240   2 ;     H1-    C1-    C3-    C2
