mobley_6571751_GMX.gro created by acpype (v: 2023.10.27) on Wed May 20 23:55:04 2026
 19
    1  MOL   C1    1   0.178   0.046  -0.108
    1  MOL   C2    2   0.223   0.129  -0.204
    1  MOL   C3    3   0.037  -0.007  -0.103
    1  MOL   C4    4   0.134   0.175  -0.317
    1  MOL   C5    5  -0.059   0.069  -0.195
    1  MOL   C6    6   0.005   0.094  -0.331
    1  MOL   C7    7   0.363   0.182  -0.204
    1  MOL   H1    8   0.245   0.013  -0.030
    1  MOL   H2    9   0.039  -0.113  -0.130
    1  MOL   H3   10  -0.000   0.000   0.000
    1  MOL   H4   11   0.110   0.281  -0.301
    1  MOL   H5   12   0.189   0.169  -0.412
    1  MOL   H6   13  -0.151   0.011  -0.207
    1  MOL   H7   14  -0.087   0.164  -0.149
    1  MOL   H8   15  -0.065   0.148  -0.396
    1  MOL   H9   16   0.027  -0.002  -0.380
    1  MOL  H10   17   0.417   0.140  -0.119
    1  MOL  H11   18   0.361   0.290  -0.196
    1  MOL  H12   19   0.413   0.153  -0.296
   11.36600     8.06000     8.24200
