mobley_1417007_GMX.gro created by acpype (v: 2023.10.27) on Wed May 20 23:56:18 2026
   24
    1MOL     C1    1   2.415   2.676   2.264
    1MOL     C2    2   2.334   2.714   2.364
    1MOL     C3    3   2.616   2.413   2.463
    1MOL     C4    4   2.503   2.504   2.642
    1MOL     C5    5   2.525   2.573   2.279
    1MOL     C6    6   2.346   2.662   2.506
    1MOL     C7    7   2.504   2.496   2.408
    1MOL     C8    8   2.480   2.593   2.523
    1MOL     C9    9   2.580   2.156   2.707
    1MOL     N1   10   2.593   2.408   2.599
    1MOL     O1   11   2.703   2.359   2.398
    1MOL     O2   12   2.456   2.522   2.753
    1MOL     S1   13   2.680   2.309   2.706
    1MOL    CL1   14   2.654   2.039   2.821
    1MOL    CL2   15   2.412   2.187   2.761
    1MOL    CL3   16   2.574   2.080   2.545
    1MOL     H1   17   2.402   2.721   2.165
    1MOL     H2   18   2.255   2.787   2.346
    1MOL     H3   19   2.521   2.503   2.194
    1MOL     H4   20   2.622   2.622   2.276
    1MOL     H5   21   2.338   2.745   2.577
    1MOL     H6   22   2.263   2.594   2.528
    1MOL     H7   23   2.418   2.428   2.396
    1MOL     H8   24   2.560   2.669   2.526
   4.97927   4.97927   4.97927
