mobley_1417007_GMX.gro created by acpype (v: 2023.10.27) on Wed May 20 23:56:18 2026
12099
    1MOL     C1    1   2.415   2.676   2.264
    1MOL     C2    2   2.334   2.714   2.364
    1MOL     C3    3   2.616   2.413   2.463
    1MOL     C4    4   2.503   2.504   2.642
    1MOL     C5    5   2.525   2.573   2.279
    1MOL     C6    6   2.346   2.662   2.506
    1MOL     C7    7   2.504   2.496   2.408
    1MOL     C8    8   2.480   2.593   2.523
    1MOL     C9    9   2.580   2.156   2.707
    1MOL     N1   10   2.593   2.408   2.599
    1MOL     O1   11   2.703   2.359   2.398
    1MOL     O2   12   2.456   2.522   2.753
    1MOL     S1   13   2.680   2.309   2.706
    1MOL    CL1   14   2.654   2.039   2.821
    1MOL    CL2   15   2.412   2.187   2.761
    1MOL    CL3   16   2.574   2.080   2.545
    1MOL     H1   17   2.402   2.721   2.165
    1MOL     H2   18   2.255   2.787   2.346
    1MOL     H3   19   2.521   2.503   2.194
    1MOL     H4   20   2.622   2.622   2.276
    1MOL     H5   21   2.338   2.745   2.577
    1MOL     H6   22   2.263   2.594   2.528
    1MOL     H7   23   2.418   2.428   2.396
    1MOL     H8   24   2.560   2.669   2.526
    2SOL     OW   25   0.230   0.628   0.113
    2SOL    HW1   26   0.137   0.626   0.150
    2SOL    HW2   27   0.231   0.589   0.021
    3SOL     OW   28   0.225   0.275   0.996
    3SOL    HW1   29   0.260   0.258   1.088
    3SOL    HW2   30   0.137   0.230   0.984
    4SOL     OW   31   0.019   0.368   0.647
    4SOL    HW1   32  -0.063   0.411   0.686
    4SOL    HW2   33  -0.009   0.295   0.584
    5SOL     OW   34   0.569   1.275   1.165
    5SOL    HW1   35   0.476   1.268   1.128
    5SOL    HW2   36   0.580   1.364   1.209
    6SOL     OW   37   1.555   1.511   0.703
    6SOL    HW1   38   1.498   1.495   0.784
    6SOL    HW2   39   1.496   1.521   0.623
    7SOL     OW   40   1.135   0.703   0.717
    7SOL    HW1   41   1.192   0.781   0.692
    7SOL    HW2   42   1.075   0.729   0.793
    8SOL     OW   43   1.755   0.607   0.231
    8SOL    HW1   44   1.743   0.594   0.132
    8SOL    HW2   45   1.725   0.526   0.280
    9SOL     OW   46   0.768   1.144   1.023
    9SOL    HW1   47   0.690   1.161   1.083
    9SOL    HW2   48   0.802   1.231   0.987
   10SOL     OW   49   0.850   0.798   1.823
   10SOL    HW1   50   0.846   0.874   1.888
   10SOL    HW2   51   0.872   0.834   1.732
   11SOL     OW   52   0.685   1.012   0.665
   11SOL    HW1   53   0.754   0.996   0.735
   11SOL    HW2   54   0.612   1.069   0.703
   12SOL     OW   55   0.686   1.161   1.803
   12SOL    HW1   56   0.746   1.240   1.817
   12SOL    HW2   57   0.600   1.192   1.762
   13SOL     OW   58   0.335   1.435   1.061
   13SOL    HW1   59   0.257   1.404   1.008
   13SOL    HW2   60   0.393   1.493   1.004
   14SOL     OW   61   1.460   1.505   1.339
   14SOL    HW1   62   1.484   1.599   1.365
   14SOL    HW2   63   1.444   1.451   1.421
   15SOL     OW   64   0.438   0.392   1.499
   15SOL    HW1   65   0.520   0.336   1.508
   15SOL    HW2   66   0.357   0.334   1.503
   16SOL     OW   67   1.603   0.447   0.737
   16SOL    HW1   68   1.529   0.493   0.687
   16SOL    HW2   69   1.654   0.515   0.790
   17SOL     OW   70   0.231   1.713   0.483
   17SOL    HW1   71   0.265   1.790   0.537
   17SOL    HW2   72   0.275   1.713   0.393
   18SOL     OW   73   1.127   1.341   1.690
   18SOL    HW1   74   1.174   1.341   1.778
   18SOL    HW2   75   1.079   1.254   1.679
   19SOL     OW   76   0.230   1.434   0.538
   19SOL    HW1   77   0.204   1.530   0.538
   19SOL    HW2   78   0.159   1.380   0.583
   20SOL     OW   79   0.240   1.091   0.886
   20SOL    HW1   80   0.254   1.007   0.938
   20SOL    HW2   81   0.185   1.155   0.941
   21SOL     OW   82   0.620   1.786   1.439
   21SOL    HW1   83   0.528   1.769   1.474
   21SOL    HW2   84   0.648   1.878   1.465
   22SOL     OW   85   0.606   0.964   0.123
   22SOL    HW1   86   0.613   1.048   0.069
   22SOL    HW2   87   0.652   0.977   0.211
   23SOL     OW   88   1.594   0.114   1.480
   23SOL    HW1   89   1.576   0.181   1.408
   23SOL    HW2   90   1.591   0.160   1.569
   24SOL     OW   91   0.122   0.643   0.563
   24SOL    HW1   92   0.077   0.555   0.580
   24SOL    HW2   93   0.121   0.697   0.647
   25SOL     OW   94   1.842   1.767   0.359
   25SOL    HW1   95   1.896   1.738   0.439
   25SOL    HW2   96   1.872   1.857   0.330
   26SOL     OW   97   0.027   1.596   0.117
   26SOL    HW1   98   0.008   1.500   0.138
   26SOL    HW2   99  -0.006   1.654   0.192
   27SOL     OW  100   1.689   0.922   0.612
   27SOL    HW1  101   1.784   0.893   0.620
   27SOL    HW2  102   1.681   0.987   0.537
   28SOL     OW  103   1.641   1.108   0.432
   28SOL    HW1  104   1.727   1.110   0.380
   28SOL    HW2  105   1.655   1.155   0.520
   29SOL     OW  106   0.113   0.737   1.597
   29SOL    HW1  107   0.201   0.724   1.642
   29SOL    HW2  108   0.100   0.834   1.575
   30SOL     OW  109   0.613   1.365   0.726
   30SOL    HW1  110   0.564   1.278   0.735
   30SOL    HW2  111   0.590   1.408   0.639
   31SOL     OW  112   1.293   1.228   1.423
   31SOL    HW1  113   1.330   1.155   1.365
   31SOL    HW2  114   1.345   1.233   1.508
   32SOL     OW  115   0.809   0.004   0.502
   32SOL    HW1  116   0.849   0.095   0.493
   32SOL    HW2  117   0.709   0.012   0.508
   33SOL     OW  118   0.197   0.976   1.264
   33SOL    HW1  119   0.286   0.931   1.250
   33SOL    HW2  120   0.124   0.911   1.245
   34SOL     OW  121   1.525   0.999   0.190
   34SOL    HW1  122   1.462   0.923   0.203
   34SOL    HW2  123   1.573   1.017   0.276
   35SOL     OW  124   1.187   1.792   1.616
   35SOL    HW1  125   1.211   1.852   1.540
   35SOL    HW2  126   1.194   1.697   1.586
   36SOL     OW  127   0.317   0.251   1.801
   36SOL    HW1  128   0.388   0.322   1.807
   36SOL    HW2  129   0.229   0.290   1.829
   37SOL     OW  130   1.466   1.417   0.953
   37SOL    HW1  131   1.407   1.423   1.033
   37SOL    HW2  132   1.451   1.329   0.907
   38SOL     OW  133   1.667   1.714   0.572
   38SOL    HW1  134   1.626   1.691   0.484
   38SOL    HW2  135   1.649   1.640   0.637
   39SOL     OW  136   0.598   0.729   0.270
   39SOL    HW1  137   0.622   0.798   0.202
   39SOL    HW2  138   0.520   0.762   0.324
   40SOL     OW  139   1.281   0.345   0.944
   40SOL    HW1  140   1.195   0.295   0.931
   40SOL    HW2  141   1.343   0.291   1.000
   41SOL     OW  142   1.576   1.662   0.307
   41SOL    HW1  143   1.665   1.708   0.310
   41SOL    HW2  144   1.555   1.638   0.212
   42SOL     OW  145   0.807   0.605   1.465
   42SOL    HW1  146   0.760   0.602   1.554
   42SOL    HW2  147   0.756   0.550   1.399
   43SOL     OW  148   1.394   0.469   1.674
   43SOL    HW1  149   1.374   0.512   1.762
   43SOL    HW2  150   1.472   0.407   1.683
   44SOL     OW  151   0.973   0.890   1.572
   44SOL    HW1  152   1.019   0.806   1.543
   44SOL    HW2  153   0.917   0.924   1.497
   45SOL     OW  154   0.991   0.410   1.242
   45SOL    HW1  155   0.914   0.444   1.296
   45SOL    HW2  156   0.957   0.359   1.163
   46SOL     OW  157   1.041   0.701   0.429
   46SOL    HW1  158   1.067   0.697   0.525
   46SOL    HW2  159   0.956   0.650   0.415
   47SOL     OW  160   0.076   0.811   0.789
   47SOL    HW1  161   0.175   0.799   0.798
   47SOL    HW2  162   0.052   0.906   0.810
   48SOL     OW  163   0.130   1.821   1.571
   48SOL    HW1  164   0.120   1.806   1.670
   48SOL    HW2  165   0.044   1.857   1.535
   49SOL     OW  166   0.865   0.348   0.195
   49SOL    HW1  167   0.924   0.411   0.146
   49SOL    HW2  168   0.884   0.254   0.166
   50SOL     OW  169   1.719   0.585   1.831
   50SOL    HW1  170   1.693   0.674   1.795
   50SOL    HW2  171   1.717   0.517   1.758
   51SOL     OW  172   1.362   1.144   0.545
   51SOL    HW1  173   1.445   1.115   0.497
   51SOL    HW2  174   1.313   1.211   0.489
   52SOL     OW  175   0.550   0.196   0.885
   52SOL    HW1  176   0.545   0.191   0.985
   52SOL    HW2  177   0.552   0.292   0.856
   53SOL     OW  178   1.008   1.456   0.477
   53SOL    HW1  179   0.962   1.528   0.425
   53SOL    HW2  180   1.004   1.476   0.575
   54SOL     OW  181   0.351   1.801   0.853
   54SOL    HW1  182   0.401   1.715   0.859
   54SOL    HW2  183   0.416   1.878   0.850
   55SOL     OW  184   1.795   1.066   0.873
   55SOL    HW1  185   1.733   1.051   0.797
   55SOL    HW2  186   1.743   1.077   0.958
   56SOL     OW  187   1.227   1.550   1.506
   56SOL    HW1  188   1.233   1.473   1.570
   56SOL    HW2  189   1.175   1.524   1.426
   57SOL     OW  190   0.321   0.943   0.242
   57SOL    HW1  191   0.403   0.982   0.200
   57SOL    HW2  192   0.294   0.861   0.193
   58SOL     OW  193   1.458   0.735   0.728
   58SOL    HW1  194   1.453   0.670   0.803
   58SOL    HW2  195   1.538   0.794   0.741
   59SOL     OW  196   0.461   1.266   1.727
   59SOL    HW1  197   0.411   1.267   1.641
   59SOL    HW2  198   0.398   1.248   1.803
   60SOL     OW  199   1.111   1.776   0.237
   60SOL    HW1  200   1.051   1.714   0.287
   60SOL    HW2  201   1.142   1.732   0.152
   61SOL     OW  202   0.202   0.285   1.498
   61SOL    HW1  203   0.122   0.345   1.485
   61SOL    HW2  204   0.192   0.236   1.584
   62SOL     OW  205   1.632   1.377   0.081
   62SOL    HW1  206   1.600   1.471   0.071
   62SOL    HW2  207   1.556   1.314   0.069
   63SOL     OW  208   0.464   1.743   0.323
   63SOL    HW1  209   0.497   1.782   0.409
   63SOL    HW2  210   0.540   1.736   0.258
   64SOL     OW  211   1.400   0.107   0.426
   64SOL    HW1  212   1.376   0.070   0.336
   64SOL    HW2  213   1.499   0.123   0.430
   65SOL     OW  214   0.249   1.785   1.241
   65SOL    HW1  215   0.306   1.720   1.291
   65SOL    HW2  216   0.233   1.752   1.148
   66SOL     OW  217   0.940   1.698   0.904
   66SOL    HW1  218   1.020   1.641   0.925
   66SOL    HW2  219   0.891   1.658   0.827
   67SOL     OW  220   0.382   0.700   0.480
   67SOL    HW1  221   0.427   0.610   0.477
   67SOL    HW2  222   0.288   0.689   0.513
   68SOL     OW  223   1.547   0.222   1.729
   68SOL    HW1  224   1.542   0.259   1.821
   68SOL    HW2  225   1.475   0.153   1.717
   69SOL     OW  226   0.614   0.122   0.117
   69SOL    HW1  227   0.712   0.100   0.124
   69SOL    HW2  228   0.583   0.105   0.024
   70SOL     OW  229   0.781   0.264   1.749
   70SOL    HW1  230   0.848   0.203   1.792
   70SOL    HW2  231   0.708   0.283   1.814
   71SOL     OW  232   0.888   1.514   1.195
   71SOL    HW1  233   0.865   1.489   1.101
   71SOL    HW2  234   0.949   1.445   1.234
   72SOL     OW  235   1.351   0.590   1.433
   72SOL    HW1  236   1.379   0.547   1.518
   72SOL    HW2  237   1.376   0.686   1.434
   73SOL     OW  238   0.803   1.402   0.924
   73SOL    HW1  239   0.893   1.416   0.882
   73SOL    HW2  240   0.732   1.404   0.853
   74SOL     OW  241   0.922   0.503   0.899
   74SOL    HW1  242   0.897   0.494   0.803
   74SOL    HW2  243   0.970   0.421   0.930
   75SOL     OW  244   0.539   0.064   0.512
   75SOL    HW1  245   0.458   0.065   0.570
   75SOL    HW2  246   0.542   0.147   0.457
   76SOL     OW  247   1.434   1.188   0.041
   76SOL    HW1  248   1.466   1.112   0.098
   76SOL    HW2  249   1.342   1.215   0.071
   77SOL     OW  250   0.297   0.035   0.171
   77SOL    HW1  251   0.346   0.119   0.150
   77SOL    HW2  252   0.359  -0.030   0.216
   78SOL     OW  253   0.935   0.236   0.480
   78SOL    HW1  254   0.887   0.277   0.402
   78SOL    HW2  255   1.034   0.234   0.461
   79SOL     OW  256   1.076   0.683   1.464
   79SOL    HW1  257   0.996   0.622   1.467
   79SOL    HW2  258   1.157   0.630   1.440
   80SOL     OW  259   1.227   1.570   0.793
   80SOL    HW1  260   1.248   1.644   0.728
   80SOL    HW2  261   1.295   1.570   0.866
   81SOL     OW  262   0.459   1.152   0.741
   81SOL    HW1  263   0.388   1.125   0.806
   81SOL    HW2  264   0.433   1.124   0.648
   82SOL     OW  265   1.271   1.797   0.591
   82SOL    HW1  266   1.315   1.861   0.527
   82SOL    HW2  267   1.221   1.849   0.661
   83SOL     OW  268   1.032   0.549   0.016
   83SOL    HW1  269   0.991   0.631  -0.023
   83SOL    HW2  270   1.096   0.575   0.089
   84SOL     OW  271   0.078   0.556   1.386
   84SOL    HW1  272   0.170   0.555   1.345
   84SOL    HW2  273   0.072   0.630   1.453
   85SOL     OW  274   0.561   0.222   1.147
   85SOL    HW1  275   0.599   0.138   1.184
   85SOL    HW2  276   0.473   0.241   1.191
   86SOL     OW  277   0.866   0.454   0.642
   86SOL    HW1  278   0.834   0.526   0.580
   86SOL    HW2  279   0.890   0.373   0.589
   87SOL     OW  280   1.017   0.039   0.753
   87SOL    HW1  281   0.945   0.044   0.684
   87SOL    HW2  282   0.993  -0.030   0.822
   88SOL     OW  283   1.429   1.173   0.867
   88SOL    HW1  284   1.374   1.089   0.860
   88SOL    HW2  285   1.455   1.202   0.775
   89SOL     OW  286   1.466   0.590   0.992
   89SOL    HW1  287   1.436   0.495   0.999
   89SOL    HW2  288   1.539   0.606   1.058
   90SOL     OW  289   1.857   0.833   0.377
   90SOL    HW1  290   1.899   0.769   0.441
   90SOL    HW2  291   1.819   0.782   0.299
   91SOL     OW  292   0.488   1.385   0.174
   91SOL    HW1  293   0.401   1.370   0.221
   91SOL    HW2  294   0.471   1.411   0.079
   92SOL     OW  295   1.664   1.280   0.657
   92SOL    HW1  296   1.763   1.288   0.671
   92SOL    HW2  297   1.619   1.364   0.688
   93SOL     OW  298   1.390   0.575   0.078
   93SOL    HW1  299   1.336   0.554   0.159
   93SOL    HW2  300   1.481   0.534   0.087
   94SOL     OW  301   0.527   0.256   0.328
   94SOL    HW1  302   0.554   0.197   0.253
   94SOL    HW2  303   0.527   0.351   0.297
   95SOL     OW  304   1.754   1.223   1.588
   95SOL    HW1  305   1.845   1.184   1.575
   95SOL    HW2  306   1.762   1.319   1.612
   96SOL     OW  307   1.064   1.347   1.340
   96SOL    HW1  308   0.984   1.324   1.395
   96SOL    HW2  309   1.147   1.321   1.389
   97SOL     OW  310   1.592   1.629   1.625
   97SOL    HW1  311   1.619   1.663   1.535
   97SOL    HW2  312   1.671   1.591   1.671
   98SOL     OW  313   1.111   1.195   1.100
   98SOL    HW1  314   1.071   1.239   1.181
   98SOL    HW2  315   1.070   1.232   1.017
   99SOL     OW  316   1.638   1.099   1.079
   99SOL    HW1  317   1.643   1.180   1.138
   99SOL    HW2  318   1.552   1.101   1.028
  100SOL     OW  319   0.915   0.089   1.402
  100SOL    HW1  320   0.940   0.069   1.307
  100SOL    HW2  321   0.987   0.145   1.444
  101SOL     OW  322   0.980   1.116   1.719
  101SOL    HW1  323   0.881   1.122   1.729
  101SOL    HW2  324   1.003   1.036   1.663
  102SOL     OW  325   0.705   1.050   0.368
  102SOL    HW1  326   0.691   1.057   0.467
  102SOL    HW2  327   0.789   0.999   0.350
  103SOL     OW  328   0.410   0.813   1.251
  103SOL    HW1  329   0.496   0.825   1.301
  103SOL    HW2  330   0.368   0.726   1.278
  104SOL     OW  331   1.274   0.386   1.262
  104SOL    HW1  332   1.295   0.460   1.326
  104SOL    HW2  333   1.185   0.403   1.219
  105SOL     OW  334   0.064   1.564   1.331
  105SOL    HW1  335   0.018   1.646   1.297
  105SOL    HW2  336   0.162   1.583   1.340
  106SOL     OW  337   0.367   1.100   0.501
  106SOL    HW1  338   0.360   1.183   0.445
  106SOL    HW2  339   0.371   1.020   0.441
  107SOL     OW  340   0.566   0.537   0.865
  107SOL    HW1  341   0.578   0.603   0.791
  107SOL    HW2  342   0.612   0.571   0.948
  108SOL     OW  343   1.252   1.348   0.388
  108SOL    HW1  344   1.302   1.425   0.428
  108SOL    HW2  345   1.157   1.350   0.420
  109SOL     OW  346   1.272   1.445   1.142
  109SOL    HW1  347   1.319   1.458   1.229
  109SOL    HW2  348   1.206   1.371   1.151
  110SOL     OW  349   1.582   0.639   0.472
  110SOL    HW1  350   1.551   0.700   0.545
  110SOL    HW2  351   1.632   0.691   0.403
  111SOL     OW  352   0.354   1.510   1.329
  111SOL    HW1  353   0.333   1.466   1.242
  111SOL    HW2  354   0.451   1.536   1.332
  112SOL     OW  355   0.402   0.751   1.598
  112SOL    HW1  356   0.470   0.806   1.551
  112SOL    HW2  357   0.442   0.663   1.625
  113SOL     OW  358   1.587   0.779   1.670
  113SOL    HW1  359   1.495   0.817   1.665
  113SOL    HW2  360   1.647   0.826   1.605
  114SOL     OW  361   1.013   0.105   1.770
  114SOL    HW1  362   1.019   0.190   1.718
  114SOL    HW2  363   1.045   0.029   1.713
  115SOL     OW  364   0.504   0.050   1.740
  115SOL    HW1  365   0.462  -0.007   1.670
  115SOL    HW2  366   0.438   0.119   1.772
  116SOL     OW  367   0.573   0.870   1.029
  116SOL    HW1  368   0.617   0.959   1.020
  116SOL    HW2  369   0.510   0.870   1.106
  117SOL     OW  370   1.360   0.862   1.045
  117SOL    HW1  371   1.285   0.862   0.979
  117SOL    HW2  372   1.397   0.770   1.054
  118SOL     OW  373   1.209   0.525   0.275
  118SOL    HW1  374   1.222   0.441   0.329
  118SOL    HW2  375   1.180   0.599   0.335
  119SOL     OW  376   0.307   0.213   1.231
  119SOL    HW1  377   0.284   0.250   1.321
  119SOL    HW2  378   0.277   0.118   1.225
  120SOL     OW  379   0.037   1.310   1.282
  120SOL    HW1  380   0.090   1.261   1.350
  120SOL    HW2  381   0.059   1.408   1.287
  121SOL     OW  382   0.732   0.634   1.064
  121SOL    HW1  383   0.791   0.608   0.988
  121SOL    HW2  384   0.704   0.730   1.053
  122SOL     OW  385   1.728   0.935   1.854
  122SOL    HW1  386   1.682   0.928   1.765
  122SOL    HW2  387   1.666   0.979   1.920
  123SOL     OW  388   0.307   0.063   0.618
  123SOL    HW1  389   0.296   0.157   0.651
  123SOL    HW2  390   0.302   0.000   0.695
  124SOL     OW  391   1.622   0.367   0.374
  124SOL    HW1  392   1.624   0.291   0.438
  124SOL    HW2  393   1.574   0.444   0.414
  125SOL     OW  394   1.023   0.766   0.966
  125SOL    HW1  395   1.038   0.787   1.062
  125SOL    HW2  396   0.993   0.671   0.957
  126SOL     OW  397   0.980   1.573   1.700
  126SOL    HW1  398   0.960   1.617   1.612
  126SOL    HW2  399   1.019   1.482   1.684
  127SOL     OW  400   1.859   1.518   1.605
  127SOL    HW1  401   1.873   1.545   1.510
  127SOL    HW2  402   1.942   1.540   1.658
  128SOL     OW  403   0.350   0.898   1.804
  128SOL    HW1  404   0.426   0.942   1.852
  128SOL    HW2  405   0.385   0.851   1.722
  129SOL     OW  406   1.540   0.274   0.125
  129SOL    HW1  407   1.479   0.199   0.148
  129SOL    HW2  408   1.562   0.326   0.208
  130SOL     OW  409   1.303   0.838   0.042
  130SOL    HW1  410   1.337   0.745   0.057
  130SOL    HW2  411   1.321   0.865  -0.053
  131SOL     OW  412   1.068   1.333   0.849
  131SOL    HW1  413   1.075   1.249   0.794
  131SOL    HW2  414   1.130   1.402   0.813
  132SOL     OW  415   0.319   0.810   0.949
  132SOL    HW1  416   0.412   0.846   0.954
  132SOL    HW2  417   0.313   0.725   1.001
  133SOL     OW  418   0.339   0.509   1.006
  133SOL    HW1  419   0.287   0.426   0.989
  133SOL    HW2  420   0.416   0.514   0.942
  134SOL     OW  421   1.138   0.380   1.678
  134SOL    HW1  422   1.093   0.443   1.742
  134SOL    HW2  423   1.231   0.411   1.661
  135SOL     OW  424   1.160   0.207   1.477
  135SOL    HW1  425   1.160   0.271   1.554
  135SOL    HW2  426   1.188   0.255   1.394
  136SOL     OW  427   0.008   1.326   0.200
  136SOL    HW1  428  -0.085   1.347   0.169
  136SOL    HW2  429   0.018   1.227   0.213
  137SOL     OW  430   0.088   1.801   0.927
  137SOL    HW1  431   0.046   1.715   0.900
  137SOL    HW2  432   0.182   1.804   0.893
  138SOL     OW  433   0.504   1.568   0.910
  138SOL    HW1  434   0.570   1.642   0.919
  138SOL    HW2  435   0.548   1.489   0.868
  139SOL     OW  436   1.002   0.796   1.238
  139SOL    HW1  437   1.043   0.764   1.324
  139SOL    HW2  438   0.906   0.769   1.235
  140SOL     OW  439   0.040   0.544   1.114
  140SOL    HW1  440   0.125   0.511   1.073
  140SOL    HW2  441   0.053   0.559   1.212
  141SOL     OW  442   0.189   0.520   1.722
  141SOL    HW1  443   0.248   0.480   1.652
  141SOL    HW2  444   0.131   0.591   1.681
  142SOL     OW  445   1.369   0.950   1.660
  142SOL    HW1  446   1.408   1.039   1.680
  142SOL    HW2  447   1.379   0.930   1.563
  143SOL     OW  448   0.815   0.572   0.325
  143SOL    HW1  449   0.822   0.483   0.279
  143SOL    HW2  450   0.721   0.606   0.317
  144SOL     OW  451   1.657   0.604   1.206
  144SOL    HW1  452   1.619   0.535   1.268
  144SOL    HW2  453   1.739   0.568   1.162
  145SOL     OW  454   0.252   1.564   1.744
  145SOL    HW1  455   0.222   1.621   1.820
  145SOL    HW2  456   0.245   1.467   1.770
  146SOL     OW  457   0.671   0.464   1.269
  146SOL    HW1  458   0.637   0.375   1.239
  146SOL    HW2  459   0.697   0.518   1.189
  147SOL     OW  460   0.930   1.678   1.465
  147SOL    HW1  461   0.906   1.660   1.370
  147SOL    HW2  462   0.960   1.772   1.475
  148SOL     OW  463   0.473   0.500   0.191
  148SOL    HW1  464   0.534   0.580   0.195
  148SOL    HW2  465   0.378   0.531   0.198
  149SOL     OW  466   0.159   1.137   1.466
  149SOL    HW1  467   0.181   1.076   1.542
  149SOL    HW2  468   0.169   1.088   1.380
  150SOL     OW  469   1.347   1.059   1.234
  150SOL    HW1  470   1.371   0.996   1.160
  150SOL    HW2  471   1.257   1.099   1.216
  151SOL     OW  472   1.302   0.855   0.309
  151SOL    HW1  473   1.216   0.824   0.351
  151SOL    HW2  474   1.298   0.841   0.210
  152SOL     OW  475   1.759   1.747   1.154
  152SOL    HW1  476   1.820   1.777   1.081
  152SOL    HW2  477   1.721   1.658   1.132
  153SOL     OW  478   1.252   1.731   1.128
  153SOL    HW1  479   1.336   1.736   1.074
  153SOL    HW2  480   1.229   1.635   1.146
  154SOL     OW  481   0.083   1.258   1.022
  154SOL    HW1  482   0.078   1.257   1.122
  154SOL    HW2  483   0.000   1.217   0.984
  155SOL     OW  484   0.688   1.662   1.716
  155SOL    HW1  485   0.632   1.743   1.725
  155SOL    HW2  486   0.740   1.666   1.630
  156SOL     OW  487   0.903   0.086   0.133
  156SOL    HW1  488   0.954   0.087   0.047
  156SOL    HW2  489   0.959   0.044   0.204
  157SOL     OW  490   1.726   0.135   0.523
  157SOL    HW1  491   1.799   0.118   0.456
  157SOL    HW2  492   1.695   0.048   0.561
  158SOL     OW  493   1.388   1.573   0.477
  158SOL    HW1  494   1.455   1.585   0.403
  158SOL    HW2  495   1.348   1.662   0.500
  159SOL     OW  496   0.130   1.794   1.851
  159SOL    HW1  497   0.089   1.720   1.904
  159SOL    HW2  498   0.194   1.845   1.909
  160SOL     OW  499   1.280   0.927   0.672
  160SOL    HW1  500   1.340   0.846   0.674
  160SOL    HW2  501   1.320   0.996   0.612
  161SOL     OW  502   0.830   1.273   1.422
  161SOL    HW1  503   0.825   1.306   1.517
  161SOL    HW2  504   0.744   1.292   1.376
  162SOL     OW  505   0.672   1.616   0.154
  162SOL    HW1  506   0.681   1.626   0.055
  162SOL    HW2  507   0.632   1.527   0.175
  163SOL     OW  508   1.650   1.720   1.394
  163SOL    HW1  509   1.703   1.730   1.310
  163SOL    HW2  510   1.623   1.810   1.428
  164SOL     OW  511   1.841   0.175   0.963
  164SOL    HW1  512   1.880   0.090   0.927
  164SOL    HW2  513   1.743   0.177   0.944
  165SOL     OW  514   0.263   0.326   0.720
  165SOL    HW1  515   0.184   0.377   0.686
  165SOL    HW2  516   0.254   0.311   0.818
  166SOL     OW  517   1.194   1.612   0.031
  166SOL    HW1  518   1.200   1.519   0.068
  166SOL    HW2  519   1.135   1.612  -0.049
  167SOL     OW  520   0.822   1.002   1.372
  167SOL    HW1  521   0.862   1.001   1.280
  167SOL    HW2  522   0.832   1.094   1.412
  168SOL     OW  523   0.916   0.910   0.291
  168SOL    HW1  524   0.979   0.948   0.223
  168SOL    HW2  525   0.956   0.827   0.330
  169SOL     OW  526   1.504   1.607   0.044
  169SOL    HW1  527   1.412   1.644   0.051
  169SOL    HW2  528   1.542   1.627  -0.046
  170SOL     OW  529   0.372   1.288   1.490
  170SOL    HW1  530   0.359   1.381   1.456
  170SOL    HW2  531   0.288   1.236   1.477
  171SOL     OW  532   1.614   1.292   1.289
  171SOL    HW1  533   1.674   1.295   1.369
  171SOL    HW2  534   1.539   1.356   1.302
  172SOL     OW  535   1.039   1.098   0.696
  172SOL    HW1  536   0.969   1.051   0.750
  172SOL    HW2  537   1.098   1.030   0.653
  173SOL     OW  538   1.014   0.236   0.971
  173SOL    HW1  539   1.006   0.200   0.878
  173SOL    HW2  540   1.012   0.160   1.036
  174SOL     OW  541   0.590   1.487   0.491
  174SOL    HW1  542   0.632   1.429   0.421
  174SOL    HW2  543   0.546   1.566   0.447
  175SOL     OW  544   1.709   0.385   1.381
  175SOL    HW1  545   1.782   0.454   1.385
  175SOL    HW2  546   1.737   0.310   1.322
  176SOL     OW  547   0.255   1.348   0.290
  176SOL    HW1  548   0.159   1.349   0.263
  176SOL    HW2  549   0.267   1.401   0.374
  177SOL     OW  550   0.105   1.013   1.726
  177SOL    HW1  551   0.028   0.980   1.780
  177SOL    HW2  552   0.190   0.983   1.768
  178SOL     OW  553   0.672   0.203   1.489
  178SOL    HW1  554   0.762   0.187   1.449
  178SOL    HW2  555   0.680   0.208   1.588
  179SOL     OW  556   0.075   0.345   0.033
  179SOL    HW1  557  -0.017   0.317   0.004
  179SOL    HW2  558   0.106   0.422  -0.023
  180SOL     OW  559   1.440   0.856   1.398
  180SOL    HW1  560   1.383   0.908   1.335
  180SOL    HW2  561   1.536   0.868   1.374
  181SOL     OW  562   0.072   0.166   0.318
  181SOL    HW1  563   0.055   0.249   0.264
  181SOL    HW2  564   0.162   0.129   0.296
  182SOL     OW  565   1.183   1.335   0.119
  182SOL    HW1  566   1.084   1.324   0.121
  182SOL    HW2  567   1.217   1.350   0.212
  183SOL     OW  568   0.613   0.842   1.431
  183SOL    HW1  569   0.669   0.923   1.414
  183SOL    HW2  570   0.672   0.762   1.434
  184SOL     OW  571   1.493   1.767   0.959
  184SOL    HW1  572   1.526   1.831   0.890
  184SOL    HW2  573   1.559   1.761   1.034
  185SOL     OW  574   0.716   0.565   1.708
  185SOL    HW1  575   0.735   0.630   1.782
  185SOL    HW2  576   0.776   0.485   1.717
  186SOL     OW  577   1.450   1.220   1.633
  186SOL    HW1  578   1.441   1.210   1.732
  186SOL    HW2  579   1.546   1.213   1.607
  187SOL     OW  580   0.390   1.741   1.560
  187SOL    HW1  581   0.299   1.782   1.558
  187SOL    HW2  582   0.383   1.647   1.592
  188SOL     OW  583   1.674   0.883   1.254
  188SOL    HW1  584   1.647   0.794   1.217
  188SOL    HW2  585   1.675   0.951   1.181
  189SOL     OW  586   1.225   0.325   0.449
  189SOL    HW1  587   1.290   0.251   0.438
  189SOL    HW2  588   1.245   0.375   0.533
  190SOL     OW  589   0.594   0.745   0.652
  190SOL    HW1  590   0.644   0.830   0.633
  190SOL    HW2  591   0.506   0.747   0.604
  191SOL     OW  592   1.777   0.342   1.642
  191SOL    HW1  593   1.760   0.373   1.548
  191SOL    HW2  594   1.693   0.305   1.680
  192SOL     OW  595   1.730   0.934   1.517
  192SOL    HW1  596   1.768   1.025   1.532
  192SOL    HW2  597   1.722   0.917   1.418
  193SOL     OW  598   0.859   1.374   0.016
  193SOL    HW1  599   0.813   1.389   0.104
  193SOL    HW2  600   0.903   1.459  -0.014
  194SOL     OW  601   0.661   1.790   0.953
  194SOL    HW1  602   0.615   1.878   0.940
  194SOL    HW2  603   0.760   1.802   0.946
  195SOL     OW  604   0.859   0.956   0.861
  195SOL    HW1  605   0.913   0.887   0.909
  195SOL    HW2  606   0.827   1.025   0.927
  196SOL     OW  607   1.083   0.984   0.087
  196SOL    HW1  608   1.060   1.037   0.005
  196SOL    HW2  609   1.164   0.928   0.068
  197SOL     OW  610   1.861   1.569   0.851
  197SOL    HW1  611   1.790   1.557   0.781
  197SOL    HW2  612   1.862   1.490   0.911
  198SOL     OW  613   0.221   1.314   1.844
  198SOL    HW1  614   0.156   1.241   1.823
  198SOL    HW2  615   0.225   1.328   1.942
  199SOL     OW  616   0.079   1.240   0.653
  199SOL    HW1  617   0.078   1.193   0.741
  199SOL    HW2  618   0.161   1.212   0.602
  200SOL     OW  619   0.672   1.391   1.624
  200SOL    HW1  620   0.594   1.341   1.662
  200SOL    HW2  621   0.669   1.486   1.655
  201SOL     OW  622   1.824   0.192   1.227
  201SOL    HW1  623   1.820   0.102   1.271
  201SOL    HW2  624   1.827   0.181   1.128
  202SOL     OW  625   0.428   0.424   0.520
  202SOL    HW1  626   0.458   0.352   0.458
  202SOL    HW2  627   0.389   0.384   0.603
  203SOL     OW  628   1.705   1.487   1.104
  203SOL    HW1  629   1.612   1.462   1.077
  203SOL    HW2  630   1.731   1.437   1.186
  204SOL     OW  631   0.317   0.547   1.280
  204SOL    HW1  632   0.355   0.488   1.352
  204SOL    HW2  633   0.357   0.521   1.192
  205SOL     OW  634   0.812   1.586   0.687
  205SOL    HW1  635   0.844   1.596   0.593
  205SOL    HW2  636   0.733   1.524   0.689
  206SOL     OW  637   1.424   0.214   1.112
  206SOL    HW1  638   1.476   0.149   1.167
  206SOL    HW2  639   1.375   0.277   1.173
  207SOL     OW  640   1.001   0.034   1.154
  207SOL    HW1  641   0.938  -0.038   1.123
  207SOL    HW2  642   1.094  -0.002   1.154
  208SOL     OW  643   0.770   1.330   0.301
  208SOL    HW1  644   0.724   1.243   0.318
  208SOL    HW2  645   0.861   1.327   0.342
  209SOL     OW  646   0.618   1.567   1.284
  209SOL    HW1  647   0.613   1.649   1.341
  209SOL    HW2  648   0.707   1.564   1.239
  210SOL     OW  649   1.352   0.052   0.168
  210SOL    HW1  650   1.387   0.011   0.084
  210SOL    HW2  651   1.262   0.014   0.188
  211SOL     OW  652   1.300   0.453   0.691
  211SOL    HW1  653   1.241   0.533   0.695
  211SOL    HW2  654   1.315   0.418   0.784
  212SOL     OW  655   1.593   0.221   0.882
  212SOL    HW1  656   1.509   0.220   0.936
  212SOL    HW2  657   1.595   0.304   0.826
  213SOL     OW  658   0.039   1.077   0.300
  213SOL    HW1  659   0.138   1.066   0.291
  213SOL    HW2  660  -0.001   0.991   0.332
  214SOL     OW  661   0.875   1.646   0.337
  214SOL    HW1  662   0.798   1.611   0.283
  214SOL    HW2  663   0.843   1.717   0.399
  215SOL     OW  664   0.230   0.628   1.975
  215SOL    HW1  665   0.137   0.626   2.012
  215SOL    HW2  666   0.231   0.589   1.883
  216SOL     OW  667   0.225   0.275   2.858
  216SOL    HW1  668   0.260   0.258   2.950
  216SOL    HW2  669   0.137   0.230   2.846
  217SOL     OW  670   0.019   0.368   2.509
  217SOL    HW1  671  -0.063   0.411   2.548
  217SOL    HW2  672  -0.009   0.295   2.446
  218SOL     OW  673   0.569   1.275   3.027
  218SOL    HW1  674   0.476   1.268   2.990
  218SOL    HW2  675   0.580   1.364   3.071
  219SOL     OW  676   1.555   1.511   2.565
  219SOL    HW1  677   1.498   1.495   2.646
  219SOL    HW2  678   1.496   1.521   2.485
  220SOL     OW  679   1.135   0.703   2.579
  220SOL    HW1  680   1.192   0.781   2.554
  220SOL    HW2  681   1.075   0.729   2.655
  221SOL     OW  682   1.755   0.607   2.093
  221SOL    HW1  683   1.743   0.594   1.994
  221SOL    HW2  684   1.725   0.526   2.142
  222SOL     OW  685   0.768   1.144   2.885
  222SOL    HW1  686   0.690   1.161   2.945
  222SOL    HW2  687   0.802   1.231   2.849
  223SOL     OW  688   0.850   0.798   3.685
  223SOL    HW1  689   0.846   0.874   3.750
  223SOL    HW2  690   0.872   0.834   3.594
  224SOL     OW  691   0.685   1.012   2.527
  224SOL    HW1  692   0.754   0.996   2.597
  224SOL    HW2  693   0.612   1.069   2.565
  225SOL     OW  694   0.686   1.161   3.665
  225SOL    HW1  695   0.746   1.240   3.679
  225SOL    HW2  696   0.600   1.192   3.624
  226SOL     OW  697   0.335   1.435   2.923
  226SOL    HW1  698   0.257   1.404   2.870
  226SOL    HW2  699   0.393   1.493   2.866
  227SOL     OW  700   1.460   1.505   3.201
  227SOL    HW1  701   1.484   1.599   3.227
  227SOL    HW2  702   1.444   1.451   3.283
  228SOL     OW  703   0.438   0.392   3.361
  228SOL    HW1  704   0.520   0.336   3.370
  228SOL    HW2  705   0.357   0.334   3.365
  229SOL     OW  706   1.603   0.447   2.599
  229SOL    HW1  707   1.529   0.493   2.549
  229SOL    HW2  708   1.654   0.515   2.652
  230SOL     OW  709   0.231   1.713   2.345
  230SOL    HW1  710   0.265   1.790   2.399
  230SOL    HW2  711   0.275   1.713   2.255
  231SOL     OW  712   1.127   1.341   3.552
  231SOL    HW1  713   1.174   1.341   3.640
  231SOL    HW2  714   1.079   1.254   3.541
  232SOL     OW  715   0.230   1.434   2.400
  232SOL    HW1  716   0.204   1.530   2.400
  232SOL    HW2  717   0.159   1.380   2.445
  233SOL     OW  718   0.240   1.091   2.748
  233SOL    HW1  719   0.254   1.007   2.800
  233SOL    HW2  720   0.185   1.155   2.803
  234SOL     OW  721   0.620   1.786   3.301
  234SOL    HW1  722   0.528   1.769   3.336
  234SOL    HW2  723   0.648   1.878   3.327
  235SOL     OW  724   0.606   0.964   1.985
  235SOL    HW1  725   0.613   1.048   1.931
  235SOL    HW2  726   0.652   0.977   2.073
  236SOL     OW  727   1.594   0.114   3.342
  236SOL    HW1  728   1.576   0.181   3.270
  236SOL    HW2  729   1.591   0.160   3.431
  237SOL     OW  730   0.122   0.643   2.425
  237SOL    HW1  731   0.077   0.555   2.442
  237SOL    HW2  732   0.121   0.697   2.509
  238SOL     OW  733   1.842   1.767   2.221
  238SOL    HW1  734   1.896   1.738   2.301
  238SOL    HW2  735   1.872   1.857   2.192
  239SOL     OW  736   0.027   1.596   1.979
  239SOL    HW1  737   0.008   1.500   2.000
  239SOL    HW2  738  -0.006   1.654   2.054
  240SOL     OW  739   1.689   0.922   2.474
  240SOL    HW1  740   1.784   0.893   2.482
  240SOL    HW2  741   1.681   0.987   2.399
  241SOL     OW  742   1.641   1.108   2.294
  241SOL    HW1  743   1.727   1.110   2.242
  241SOL    HW2  744   1.655   1.155   2.382
  242SOL     OW  745   0.113   0.737   3.459
  242SOL    HW1  746   0.201   0.724   3.504
  242SOL    HW2  747   0.100   0.834   3.437
  243SOL     OW  748   0.613   1.365   2.588
  243SOL    HW1  749   0.564   1.278   2.597
  243SOL    HW2  750   0.590   1.408   2.501
  244SOL     OW  751   1.293   1.228   3.285
  244SOL    HW1  752   1.330   1.155   3.227
  244SOL    HW2  753   1.345   1.233   3.370
  245SOL     OW  754   0.809   0.004   2.364
  245SOL    HW1  755   0.849   0.095   2.355
  245SOL    HW2  756   0.709   0.012   2.370
  246SOL     OW  757   0.197   0.976   3.126
  246SOL    HW1  758   0.286   0.931   3.112
  246SOL    HW2  759   0.124   0.911   3.107
  247SOL     OW  760   1.525   0.999   2.052
  247SOL    HW1  761   1.462   0.923   2.065
  247SOL    HW2  762   1.573   1.017   2.138
  248SOL     OW  763   1.187   1.792   3.478
  248SOL    HW1  764   1.211   1.852   3.402
  248SOL    HW2  765   1.194   1.697   3.448
  249SOL     OW  766   0.317   0.251   3.663
  249SOL    HW1  767   0.388   0.322   3.669
  249SOL    HW2  768   0.229   0.290   3.691
  250SOL     OW  769   1.466   1.417   2.815
  250SOL    HW1  770   1.407   1.423   2.895
  250SOL    HW2  771   1.451   1.329   2.769
  251SOL     OW  772   1.667   1.714   2.434
  251SOL    HW1  773   1.626   1.691   2.346
  251SOL    HW2  774   1.649   1.640   2.499
  252SOL     OW  775   0.598   0.729   2.132
  252SOL    HW1  776   0.622   0.798   2.064
  252SOL    HW2  777   0.520   0.762   2.186
  253SOL     OW  778   1.281   0.345   2.806
  253SOL    HW1  779   1.195   0.295   2.793
  253SOL    HW2  780   1.343   0.291   2.862
  254SOL     OW  781   1.576   1.662   2.169
  254SOL    HW1  782   1.665   1.708   2.172
  254SOL    HW2  783   1.555   1.638   2.074
  255SOL     OW  784   0.807   0.605   3.327
  255SOL    HW1  785   0.760   0.602   3.416
  255SOL    HW2  786   0.756   0.550   3.261
  256SOL     OW  787   1.394   0.469   3.536
  256SOL    HW1  788   1.374   0.512   3.624
  256SOL    HW2  789   1.472   0.407   3.545
  257SOL     OW  790   0.973   0.890   3.434
  257SOL    HW1  791   1.019   0.806   3.405
  257SOL    HW2  792   0.917   0.924   3.359
  258SOL     OW  793   0.991   0.410   3.104
  258SOL    HW1  794   0.914   0.444   3.158
  258SOL    HW2  795   0.957   0.359   3.025
  259SOL     OW  796   1.041   0.701   2.291
  259SOL    HW1  797   1.067   0.697   2.387
  259SOL    HW2  798   0.956   0.650   2.277
  260SOL     OW  799   0.076   0.811   2.651
  260SOL    HW1  800   0.175   0.799   2.660
  260SOL    HW2  801   0.052   0.906   2.672
  261SOL     OW  802   0.130   1.821   3.433
  261SOL    HW1  803   0.120   1.806   3.532
  261SOL    HW2  804   0.044   1.857   3.397
  262SOL     OW  805   0.865   0.348   2.057
  262SOL    HW1  806   0.924   0.411   2.008
  262SOL    HW2  807   0.884   0.254   2.028
  263SOL     OW  808   1.719   0.585   3.693
  263SOL    HW1  809   1.693   0.674   3.657
  263SOL    HW2  810   1.717   0.517   3.620
  264SOL     OW  811   1.362   1.144   2.407
  264SOL    HW1  812   1.445   1.115   2.359
  264SOL    HW2  813   1.313   1.211   2.351
  265SOL     OW  814   0.550   0.196   2.747
  265SOL    HW1  815   0.545   0.191   2.847
  265SOL    HW2  816   0.552   0.292   2.718
  266SOL     OW  817   1.008   1.456   2.339
  266SOL    HW1  818   0.962   1.528   2.287
  266SOL    HW2  819   1.004   1.476   2.437
  267SOL     OW  820   0.351   1.801   2.715
  267SOL    HW1  821   0.401   1.715   2.721
  267SOL    HW2  822   0.416   1.878   2.712
  268SOL     OW  823   1.795   1.066   2.735
  268SOL    HW1  824   1.733   1.051   2.659
  268SOL    HW2  825   1.743   1.077   2.820
  269SOL     OW  826   1.227   1.550   3.368
  269SOL    HW1  827   1.233   1.473   3.432
  269SOL    HW2  828   1.175   1.524   3.288
  270SOL     OW  829   0.321   0.943   2.104
  270SOL    HW1  830   0.403   0.982   2.062
  270SOL    HW2  831   0.294   0.861   2.055
  271SOL     OW  832   1.458   0.735   2.590
  271SOL    HW1  833   1.453   0.670   2.665
  271SOL    HW2  834   1.538   0.794   2.603
  272SOL     OW  835   0.461   1.266   3.589
  272SOL    HW1  836   0.411   1.267   3.503
  272SOL    HW2  837   0.398   1.248   3.665
  273SOL     OW  838   1.111   1.776   2.099
  273SOL    HW1  839   1.051   1.714   2.149
  273SOL    HW2  840   1.142   1.732   2.014
  274SOL     OW  841   0.202   0.285   3.360
  274SOL    HW1  842   0.122   0.345   3.347
  274SOL    HW2  843   0.192   0.236   3.446
  275SOL     OW  844   1.632   1.377   1.943
  275SOL    HW1  845   1.600   1.471   1.933
  275SOL    HW2  846   1.556   1.314   1.931
  276SOL     OW  847   0.464   1.743   2.185
  276SOL    HW1  848   0.497   1.782   2.271
  276SOL    HW2  849   0.540   1.736   2.120
  277SOL     OW  850   1.400   0.107   2.288
  277SOL    HW1  851   1.376   0.070   2.198
  277SOL    HW2  852   1.499   0.123   2.292
  278SOL     OW  853   0.249   1.785   3.103
  278SOL    HW1  854   0.306   1.720   3.153
  278SOL    HW2  855   0.233   1.752   3.010
  279SOL     OW  856   0.940   1.698   2.766
  279SOL    HW1  857   1.020   1.641   2.787
  279SOL    HW2  858   0.891   1.658   2.689
  280SOL     OW  859   0.382   0.700   2.342
  280SOL    HW1  860   0.427   0.610   2.339
  280SOL    HW2  861   0.288   0.689   2.375
  281SOL     OW  862   1.547   0.222   3.591
  281SOL    HW1  863   1.542   0.259   3.683
  281SOL    HW2  864   1.475   0.153   3.579
  282SOL     OW  865   0.614   0.122   1.979
  282SOL    HW1  866   0.712   0.100   1.986
  282SOL    HW2  867   0.583   0.105   1.886
  283SOL     OW  868   0.781   0.264   3.611
  283SOL    HW1  869   0.848   0.203   3.654
  283SOL    HW2  870   0.708   0.283   3.676
  284SOL     OW  871   0.888   1.514   3.057
  284SOL    HW1  872   0.865   1.489   2.963
  284SOL    HW2  873   0.949   1.445   3.096
  285SOL     OW  874   1.351   0.590   3.295
  285SOL    HW1  875   1.379   0.547   3.380
  285SOL    HW2  876   1.376   0.686   3.296
  286SOL     OW  877   0.803   1.402   2.786
  286SOL    HW1  878   0.893   1.416   2.744
  286SOL    HW2  879   0.732   1.404   2.715
  287SOL     OW  880   0.922   0.503   2.761
  287SOL    HW1  881   0.897   0.494   2.665
  287SOL    HW2  882   0.970   0.421   2.792
  288SOL     OW  883   0.539   0.064   2.374
  288SOL    HW1  884   0.458   0.065   2.432
  288SOL    HW2  885   0.542   0.147   2.319
  289SOL     OW  886   1.434   1.188   1.903
  289SOL    HW1  887   1.466   1.112   1.960
  289SOL    HW2  888   1.342   1.215   1.933
  290SOL     OW  889   0.297   0.035   2.033
  290SOL    HW1  890   0.346   0.119   2.012
  290SOL    HW2  891   0.359  -0.030   2.078
  291SOL     OW  892   0.935   0.236   2.342
  291SOL    HW1  893   0.887   0.277   2.264
  291SOL    HW2  894   1.034   0.234   2.323
  292SOL     OW  895   1.076   0.683   3.326
  292SOL    HW1  896   0.996   0.622   3.329
  292SOL    HW2  897   1.157   0.630   3.302
  293SOL     OW  898   1.227   1.570   2.655
  293SOL    HW1  899   1.248   1.644   2.590
  293SOL    HW2  900   1.295   1.570   2.728
  294SOL     OW  901   0.459   1.152   2.603
  294SOL    HW1  902   0.388   1.125   2.668
  294SOL    HW2  903   0.433   1.124   2.510
  295SOL     OW  904   1.271   1.797   2.453
  295SOL    HW1  905   1.315   1.861   2.389
  295SOL    HW2  906   1.221   1.849   2.523
  296SOL     OW  907   1.032   0.549   1.878
  296SOL    HW1  908   0.991   0.631   1.839
  296SOL    HW2  909   1.096   0.575   1.951
  297SOL     OW  910   0.078   0.556   3.248
  297SOL    HW1  911   0.170   0.555   3.207
  297SOL    HW2  912   0.072   0.630   3.315
  298SOL     OW  913   0.561   0.222   3.009
  298SOL    HW1  914   0.599   0.138   3.046
  298SOL    HW2  915   0.473   0.241   3.053
  299SOL     OW  916   0.866   0.454   2.504
  299SOL    HW1  917   0.834   0.526   2.442
  299SOL    HW2  918   0.890   0.373   2.451
  300SOL     OW  919   1.017   0.039   2.615
  300SOL    HW1  920   0.945   0.044   2.546
  300SOL    HW2  921   0.993  -0.030   2.684
  301SOL     OW  922   1.429   1.173   2.729
  301SOL    HW1  923   1.374   1.089   2.722
  301SOL    HW2  924   1.455   1.202   2.637
  302SOL     OW  925   1.466   0.590   2.854
  302SOL    HW1  926   1.436   0.495   2.861
  302SOL    HW2  927   1.539   0.606   2.920
  303SOL     OW  928   1.857   0.833   2.239
  303SOL    HW1  929   1.899   0.769   2.303
  303SOL    HW2  930   1.819   0.782   2.161
  304SOL     OW  931   0.488   1.385   2.036
  304SOL    HW1  932   0.401   1.370   2.083
  304SOL    HW2  933   0.471   1.411   1.941
  305SOL     OW  934   1.664   1.280   2.519
  305SOL    HW1  935   1.763   1.288   2.533
  305SOL    HW2  936   1.619   1.364   2.550
  306SOL     OW  937   1.390   0.575   1.940
  306SOL    HW1  938   1.336   0.554   2.021
  306SOL    HW2  939   1.481   0.534   1.949
  307SOL     OW  940   0.527   0.256   2.190
  307SOL    HW1  941   0.554   0.197   2.115
  307SOL    HW2  942   0.527   0.351   2.159
  308SOL     OW  943   1.754   1.223   3.450
  308SOL    HW1  944   1.845   1.184   3.437
  308SOL    HW2  945   1.762   1.319   3.474
  309SOL     OW  946   1.064   1.347   3.202
  309SOL    HW1  947   0.984   1.324   3.257
  309SOL    HW2  948   1.147   1.321   3.251
  310SOL     OW  949   1.592   1.629   3.487
  310SOL    HW1  950   1.619   1.663   3.397
  310SOL    HW2  951   1.671   1.591   3.533
  311SOL     OW  952   1.111   1.195   2.962
  311SOL    HW1  953   1.071   1.239   3.043
  311SOL    HW2  954   1.070   1.232   2.879
  312SOL     OW  955   1.638   1.099   2.941
  312SOL    HW1  956   1.643   1.180   3.000
  312SOL    HW2  957   1.552   1.101   2.890
  313SOL     OW  958   0.915   0.089   3.264
  313SOL    HW1  959   0.940   0.069   3.169
  313SOL    HW2  960   0.987   0.145   3.306
  314SOL     OW  961   0.980   1.116   3.581
  314SOL    HW1  962   0.881   1.122   3.591
  314SOL    HW2  963   1.003   1.036   3.525
  315SOL     OW  964   0.705   1.050   2.230
  315SOL    HW1  965   0.691   1.057   2.329
  315SOL    HW2  966   0.789   0.999   2.212
  316SOL     OW  967   0.410   0.813   3.113
  316SOL    HW1  968   0.496   0.825   3.163
  316SOL    HW2  969   0.368   0.726   3.140
  317SOL     OW  970   1.274   0.386   3.124
  317SOL    HW1  971   1.295   0.460   3.188
  317SOL    HW2  972   1.185   0.403   3.081
  318SOL     OW  973   0.064   1.564   3.193
  318SOL    HW1  974   0.018   1.646   3.159
  318SOL    HW2  975   0.162   1.583   3.202
  319SOL     OW  976   0.367   1.100   2.363
  319SOL    HW1  977   0.360   1.183   2.307
  319SOL    HW2  978   0.371   1.020   2.303
  320SOL     OW  979   0.566   0.537   2.727
  320SOL    HW1  980   0.578   0.603   2.653
  320SOL    HW2  981   0.612   0.571   2.810
  321SOL     OW  982   1.252   1.348   2.250
  321SOL    HW1  983   1.302   1.425   2.290
  321SOL    HW2  984   1.157   1.350   2.282
  322SOL     OW  985   1.272   1.445   3.004
  322SOL    HW1  986   1.319   1.458   3.091
  322SOL    HW2  987   1.206   1.371   3.013
  323SOL     OW  988   1.582   0.639   2.334
  323SOL    HW1  989   1.551   0.700   2.407
  323SOL    HW2  990   1.632   0.691   2.265
  324SOL     OW  991   0.354   1.510   3.191
  324SOL    HW1  992   0.333   1.466   3.104
  324SOL    HW2  993   0.451   1.536   3.194
  325SOL     OW  994   0.402   0.751   3.460
  325SOL    HW1  995   0.470   0.806   3.413
  325SOL    HW2  996   0.442   0.663   3.487
  326SOL     OW  997   1.587   0.779   3.532
  326SOL    HW1  998   1.495   0.817   3.527
  326SOL    HW2  999   1.647   0.826   3.467
  327SOL     OW 1000   1.013   0.105   3.632
  327SOL    HW1 1001   1.019   0.190   3.580
  327SOL    HW2 1002   1.045   0.029   3.575
  328SOL     OW 1003   0.504   0.050   3.602
  328SOL    HW1 1004   0.462  -0.007   3.532
  328SOL    HW2 1005   0.438   0.119   3.634
  329SOL     OW 1006   0.573   0.870   2.891
  329SOL    HW1 1007   0.617   0.959   2.882
  329SOL    HW2 1008   0.510   0.870   2.968
  330SOL     OW 1009   1.360   0.862   2.907
  330SOL    HW1 1010   1.285   0.862   2.841
  330SOL    HW2 1011   1.397   0.770   2.916
  331SOL     OW 1012   1.209   0.525   2.137
  331SOL    HW1 1013   1.222   0.441   2.191
  331SOL    HW2 1014   1.180   0.599   2.197
  332SOL     OW 1015   0.307   0.213   3.093
  332SOL    HW1 1016   0.284   0.250   3.183
  332SOL    HW2 1017   0.277   0.118   3.087
  333SOL     OW 1018   0.037   1.310   3.144
  333SOL    HW1 1019   0.090   1.261   3.212
  333SOL    HW2 1020   0.059   1.408   3.149
  334SOL     OW 1021   0.732   0.634   2.926
  334SOL    HW1 1022   0.791   0.608   2.850
  334SOL    HW2 1023   0.704   0.730   2.915
  335SOL     OW 1024   1.728   0.935   3.716
  335SOL    HW1 1025   1.682   0.928   3.627
  335SOL    HW2 1026   1.666   0.979   3.782
  336SOL     OW 1027   0.307   0.063   2.480
  336SOL    HW1 1028   0.296   0.157   2.513
  336SOL    HW2 1029   0.302   0.000   2.557
  337SOL     OW 1030   1.622   0.367   2.236
  337SOL    HW1 1031   1.624   0.291   2.300
  337SOL    HW2 1032   1.574   0.444   2.276
  338SOL     OW 1033   1.023   0.766   2.828
  338SOL    HW1 1034   1.038   0.787   2.924
  338SOL    HW2 1035   0.993   0.671   2.819
  339SOL     OW 1036   0.980   1.573   3.562
  339SOL    HW1 1037   0.960   1.617   3.474
  339SOL    HW2 1038   1.019   1.482   3.546
  340SOL     OW 1039   1.859   1.518   3.467
  340SOL    HW1 1040   1.873   1.545   3.372
  340SOL    HW2 1041   1.942   1.540   3.520
  341SOL     OW 1042   0.350   0.898   3.666
  341SOL    HW1 1043   0.426   0.942   3.714
  341SOL    HW2 1044   0.385   0.851   3.584
  342SOL     OW 1045   1.540   0.274   1.987
  342SOL    HW1 1046   1.479   0.199   2.010
  342SOL    HW2 1047   1.562   0.326   2.070
  343SOL     OW 1048   1.303   0.838   1.904
  343SOL    HW1 1049   1.337   0.745   1.919
  343SOL    HW2 1050   1.321   0.865   1.809
  344SOL     OW 1051   1.068   1.333   2.711
  344SOL    HW1 1052   1.075   1.249   2.656
  344SOL    HW2 1053   1.130   1.402   2.675
  345SOL     OW 1054   0.319   0.810   2.811
  345SOL    HW1 1055   0.412   0.846   2.816
  345SOL    HW2 1056   0.313   0.725   2.863
  346SOL     OW 1057   0.339   0.509   2.868
  346SOL    HW1 1058   0.287   0.426   2.851
  346SOL    HW2 1059   0.416   0.514   2.804
  347SOL     OW 1060   1.138   0.380   3.540
  347SOL    HW1 1061   1.093   0.443   3.604
  347SOL    HW2 1062   1.231   0.411   3.523
  348SOL     OW 1063   1.160   0.207   3.339
  348SOL    HW1 1064   1.160   0.271   3.416
  348SOL    HW2 1065   1.188   0.255   3.256
  349SOL     OW 1066   0.008   1.326   2.062
  349SOL    HW1 1067  -0.085   1.347   2.031
  349SOL    HW2 1068   0.018   1.227   2.075
  350SOL     OW 1069   0.088   1.801   2.789
  350SOL    HW1 1070   0.046   1.715   2.762
  350SOL    HW2 1071   0.182   1.804   2.755
  351SOL     OW 1072   0.504   1.568   2.772
  351SOL    HW1 1073   0.570   1.642   2.781
  351SOL    HW2 1074   0.548   1.489   2.730
  352SOL     OW 1075   1.002   0.796   3.100
  352SOL    HW1 1076   1.043   0.764   3.186
  352SOL    HW2 1077   0.906   0.769   3.097
  353SOL     OW 1078   0.040   0.544   2.976
  353SOL    HW1 1079   0.125   0.511   2.935
  353SOL    HW2 1080   0.053   0.559   3.074
  354SOL     OW 1081   0.189   0.520   3.584
  354SOL    HW1 1082   0.248   0.480   3.514
  354SOL    HW2 1083   0.131   0.591   3.543
  355SOL     OW 1084   1.369   0.950   3.522
  355SOL    HW1 1085   1.408   1.039   3.542
  355SOL    HW2 1086   1.379   0.930   3.425
  356SOL     OW 1087   0.815   0.572   2.187
  356SOL    HW1 1088   0.822   0.483   2.141
  356SOL    HW2 1089   0.721   0.606   2.179
  357SOL     OW 1090   1.657   0.604   3.068
  357SOL    HW1 1091   1.619   0.535   3.130
  357SOL    HW2 1092   1.739   0.568   3.024
  358SOL     OW 1093   0.252   1.564   3.606
  358SOL    HW1 1094   0.222   1.621   3.682
  358SOL    HW2 1095   0.245   1.467   3.632
  359SOL     OW 1096   0.671   0.464   3.131
  359SOL    HW1 1097   0.637   0.375   3.101
  359SOL    HW2 1098   0.697   0.518   3.051
  360SOL     OW 1099   0.930   1.678   3.327
  360SOL    HW1 1100   0.906   1.660   3.232
  360SOL    HW2 1101   0.960   1.772   3.337
  361SOL     OW 1102   0.473   0.500   2.053
  361SOL    HW1 1103   0.534   0.580   2.057
  361SOL    HW2 1104   0.378   0.531   2.060
  362SOL     OW 1105   0.159   1.137   3.328
  362SOL    HW1 1106   0.181   1.076   3.404
  362SOL    HW2 1107   0.169   1.088   3.242
  363SOL     OW 1108   1.347   1.059   3.096
  363SOL    HW1 1109   1.371   0.996   3.022
  363SOL    HW2 1110   1.257   1.099   3.078
  364SOL     OW 1111   1.302   0.855   2.171
  364SOL    HW1 1112   1.216   0.824   2.213
  364SOL    HW2 1113   1.298   0.841   2.072
  365SOL     OW 1114   1.759   1.747   3.016
  365SOL    HW1 1115   1.820   1.777   2.943
  365SOL    HW2 1116   1.721   1.658   2.994
  366SOL     OW 1117   1.252   1.731   2.990
  366SOL    HW1 1118   1.336   1.736   2.936
  366SOL    HW2 1119   1.229   1.635   3.008
  367SOL     OW 1120   0.083   1.258   2.884
  367SOL    HW1 1121   0.078   1.257   2.984
  367SOL    HW2 1122   0.000   1.217   2.846
  368SOL     OW 1123   0.688   1.662   3.578
  368SOL    HW1 1124   0.632   1.743   3.587
  368SOL    HW2 1125   0.740   1.666   3.492
  369SOL     OW 1126   1.726   0.135   2.385
  369SOL    HW1 1127   1.799   0.118   2.318
  369SOL    HW2 1128   1.695   0.048   2.423
  370SOL     OW 1129   1.388   1.573   2.339
  370SOL    HW1 1130   1.455   1.585   2.265
  370SOL    HW2 1131   1.348   1.662   2.362
  371SOL     OW 1132   0.130   1.794   3.713
  371SOL    HW1 1133   0.089   1.720   3.766
  371SOL    HW2 1134   0.194   1.845   3.771
  372SOL     OW 1135   1.280   0.927   2.534
  372SOL    HW1 1136   1.340   0.846   2.536
  372SOL    HW2 1137   1.320   0.996   2.474
  373SOL     OW 1138   0.830   1.273   3.284
  373SOL    HW1 1139   0.825   1.306   3.379
  373SOL    HW2 1140   0.744   1.292   3.238
  374SOL     OW 1141   0.672   1.616   2.016
  374SOL    HW1 1142   0.681   1.626   1.917
  374SOL    HW2 1143   0.632   1.527   2.037
  375SOL     OW 1144   1.650   1.720   3.256
  375SOL    HW1 1145   1.703   1.730   3.172
  375SOL    HW2 1146   1.623   1.810   3.290
  376SOL     OW 1147   1.841   0.175   2.825
  376SOL    HW1 1148   1.880   0.090   2.789
  376SOL    HW2 1149   1.743   0.177   2.806
  377SOL     OW 1150   0.263   0.326   2.582
  377SOL    HW1 1151   0.184   0.377   2.548
  377SOL    HW2 1152   0.254   0.311   2.680
  378SOL     OW 1153   1.194   1.612   1.893
  378SOL    HW1 1154   1.200   1.519   1.930
  378SOL    HW2 1155   1.135   1.612   1.813
  379SOL     OW 1156   0.822   1.002   3.234
  379SOL    HW1 1157   0.862   1.001   3.142
  379SOL    HW2 1158   0.832   1.094   3.274
  380SOL     OW 1159   0.916   0.910   2.153
  380SOL    HW1 1160   0.979   0.948   2.085
  380SOL    HW2 1161   0.956   0.827   2.192
  381SOL     OW 1162   1.504   1.607   1.906
  381SOL    HW1 1163   1.412   1.644   1.913
  381SOL    HW2 1164   1.542   1.627   1.816
  382SOL     OW 1165   0.372   1.288   3.352
  382SOL    HW1 1166   0.359   1.381   3.318
  382SOL    HW2 1167   0.288   1.236   3.339
  383SOL     OW 1168   1.614   1.292   3.151
  383SOL    HW1 1169   1.674   1.295   3.231
  383SOL    HW2 1170   1.539   1.356   3.164
  384SOL     OW 1171   1.039   1.098   2.558
  384SOL    HW1 1172   0.969   1.051   2.612
  384SOL    HW2 1173   1.098   1.030   2.515
  385SOL     OW 1174   1.014   0.236   2.833
  385SOL    HW1 1175   1.006   0.200   2.740
  385SOL    HW2 1176   1.012   0.160   2.898
  386SOL     OW 1177   0.590   1.487   2.353
  386SOL    HW1 1178   0.632   1.429   2.283
  386SOL    HW2 1179   0.546   1.566   2.309
  387SOL     OW 1180   1.709   0.385   3.243
  387SOL    HW1 1181   1.782   0.454   3.247
  387SOL    HW2 1182   1.737   0.310   3.184
  388SOL     OW 1183   0.255   1.348   2.152
  388SOL    HW1 1184   0.159   1.349   2.125
  388SOL    HW2 1185   0.267   1.401   2.236
  389SOL     OW 1186   0.105   1.013   3.588
  389SOL    HW1 1187   0.028   0.980   3.642
  389SOL    HW2 1188   0.190   0.983   3.630
  390SOL     OW 1189   0.672   0.203   3.351
  390SOL    HW1 1190   0.762   0.187   3.311
  390SOL    HW2 1191   0.680   0.208   3.450
  391SOL     OW 1192   0.075   0.345   1.895
  391SOL    HW1 1193  -0.017   0.317   1.866
  391SOL    HW2 1194   0.106   0.422   1.839
  392SOL     OW 1195   1.440   0.856   3.260
  392SOL    HW1 1196   1.383   0.908   3.197
  392SOL    HW2 1197   1.536   0.868   3.236
  393SOL     OW 1198   0.072   0.166   2.180
  393SOL    HW1 1199   0.055   0.249   2.126
  393SOL    HW2 1200   0.162   0.129   2.158
  394SOL     OW 1201   1.183   1.335   1.981
  394SOL    HW1 1202   1.084   1.324   1.983
  394SOL    HW2 1203   1.217   1.350   2.074
  395SOL     OW 1204   0.613   0.842   3.293
  395SOL    HW1 1205   0.669   0.923   3.276
  395SOL    HW2 1206   0.672   0.762   3.296
  396SOL     OW 1207   1.493   1.767   2.821
  396SOL    HW1 1208   1.526   1.831   2.752
  396SOL    HW2 1209   1.559   1.761   2.896
  397SOL     OW 1210   0.716   0.565   3.570
  397SOL    HW1 1211   0.735   0.630   3.644
  397SOL    HW2 1212   0.776   0.485   3.579
  398SOL     OW 1213   1.450   1.220   3.495
  398SOL    HW1 1214   1.441   1.210   3.594
  398SOL    HW2 1215   1.546   1.213   3.469
  399SOL     OW 1216   0.390   1.741   3.422
  399SOL    HW1 1217   0.299   1.782   3.420
  399SOL    HW2 1218   0.383   1.647   3.454
  400SOL     OW 1219   1.674   0.883   3.116
  400SOL    HW1 1220   1.647   0.794   3.079
  400SOL    HW2 1221   1.675   0.951   3.043
  401SOL     OW 1222   1.225   0.325   2.311
  401SOL    HW1 1223   1.290   0.251   2.300
  401SOL    HW2 1224   1.245   0.375   2.395
  402SOL     OW 1225   0.594   0.745   2.514
  402SOL    HW1 1226   0.644   0.830   2.495
  402SOL    HW2 1227   0.506   0.747   2.466
  403SOL     OW 1228   1.777   0.342   3.504
  403SOL    HW1 1229   1.760   0.373   3.410
  403SOL    HW2 1230   1.693   0.305   3.542
  404SOL     OW 1231   1.730   0.934   3.379
  404SOL    HW1 1232   1.768   1.025   3.394
  404SOL    HW2 1233   1.722   0.917   3.280
  405SOL     OW 1234   0.859   1.374   1.878
  405SOL    HW1 1235   0.813   1.389   1.966
  405SOL    HW2 1236   0.903   1.459   1.848
  406SOL     OW 1237   0.661   1.790   2.815
  406SOL    HW1 1238   0.615   1.878   2.802
  406SOL    HW2 1239   0.760   1.802   2.808
  407SOL     OW 1240   0.859   0.956   2.723
  407SOL    HW1 1241   0.913   0.887   2.771
  407SOL    HW2 1242   0.827   1.025   2.789
  408SOL     OW 1243   1.083   0.984   1.949
  408SOL    HW1 1244   1.060   1.037   1.867
  408SOL    HW2 1245   1.164   0.928   1.930
  409SOL     OW 1246   1.861   1.569   2.713
  409SOL    HW1 1247   1.790   1.557   2.643
  409SOL    HW2 1248   1.862   1.490   2.773
  410SOL     OW 1249   0.221   1.314   3.706
  410SOL    HW1 1250   0.156   1.241   3.685
  410SOL    HW2 1251   0.225   1.328   3.804
  411SOL     OW 1252   0.079   1.240   2.515
  411SOL    HW1 1253   0.078   1.193   2.603
  411SOL    HW2 1254   0.161   1.212   2.464
  412SOL     OW 1255   0.672   1.391   3.486
  412SOL    HW1 1256   0.594   1.341   3.524
  412SOL    HW2 1257   0.669   1.486   3.517
  413SOL     OW 1258   1.824   0.192   3.089
  413SOL    HW1 1259   1.820   0.102   3.133
  413SOL    HW2 1260   1.827   0.181   2.990
  414SOL     OW 1261   0.428   0.424   2.382
  414SOL    HW1 1262   0.458   0.352   2.320
  414SOL    HW2 1263   0.389   0.384   2.465
  415SOL     OW 1264   1.705   1.487   2.966
  415SOL    HW1 1265   1.612   1.462   2.939
  415SOL    HW2 1266   1.731   1.437   3.048
  416SOL     OW 1267   0.317   0.547   3.142
  416SOL    HW1 1268   0.355   0.488   3.214
  416SOL    HW2 1269   0.357   0.521   3.054
  417SOL     OW 1270   0.812   1.586   2.549
  417SOL    HW1 1271   0.844   1.596   2.455
  417SOL    HW2 1272   0.733   1.524   2.551
  418SOL     OW 1273   1.424   0.214   2.974
  418SOL    HW1 1274   1.476   0.149   3.029
  418SOL    HW2 1275   1.375   0.277   3.035
  419SOL     OW 1276   1.001   0.034   3.016
  419SOL    HW1 1277   0.938  -0.038   2.985
  419SOL    HW2 1278   1.094  -0.002   3.016
  420SOL     OW 1279   0.770   1.330   2.163
  420SOL    HW1 1280   0.724   1.243   2.180
  420SOL    HW2 1281   0.861   1.327   2.204
  421SOL     OW 1282   0.618   1.567   3.146
  421SOL    HW1 1283   0.613   1.649   3.203
  421SOL    HW2 1284   0.707   1.564   3.101
  422SOL     OW 1285   1.352   0.052   2.030
  422SOL    HW1 1286   1.387   0.011   1.946
  422SOL    HW2 1287   1.262   0.014   2.050
  423SOL     OW 1288   1.300   0.453   2.553
  423SOL    HW1 1289   1.241   0.533   2.557
  423SOL    HW2 1290   1.315   0.418   2.646
  424SOL     OW 1291   1.593   0.221   2.744
  424SOL    HW1 1292   1.509   0.220   2.798
  424SOL    HW2 1293   1.595   0.304   2.688
  425SOL     OW 1294   0.039   1.077   2.162
  425SOL    HW1 1295   0.138   1.066   2.153
  425SOL    HW2 1296  -0.001   0.991   2.194
  426SOL     OW 1297   0.875   1.646   2.199
  426SOL    HW1 1298   0.798   1.611   2.145
  426SOL    HW2 1299   0.843   1.717   2.261
  427SOL     OW 1300   0.230   0.628   3.837
  427SOL    HW1 1301   0.137   0.626   3.874
  427SOL    HW2 1302   0.231   0.589   3.745
  428SOL     OW 1303   0.225   0.275   4.720
  428SOL    HW1 1304   0.260   0.258   4.812
  428SOL    HW2 1305   0.137   0.230   4.708
  429SOL     OW 1306   0.019   0.368   4.371
  429SOL    HW1 1307  -0.063   0.411   4.410
  429SOL    HW2 1308  -0.009   0.295   4.308
  430SOL     OW 1309   0.569   1.275   4.889
  430SOL    HW1 1310   0.476   1.268   4.852
  430SOL    HW2 1311   0.580   1.364   4.933
  431SOL     OW 1312   1.555   1.511   4.427
  431SOL    HW1 1313   1.498   1.495   4.508
  431SOL    HW2 1314   1.496   1.521   4.347
  432SOL     OW 1315   1.135   0.703   4.441
  432SOL    HW1 1316   1.192   0.781   4.416
  432SOL    HW2 1317   1.075   0.729   4.517
  433SOL     OW 1318   1.755   0.607   3.955
  433SOL    HW1 1319   1.743   0.594   3.856
  433SOL    HW2 1320   1.725   0.526   4.004
  434SOL     OW 1321   0.768   1.144   4.747
  434SOL    HW1 1322   0.690   1.161   4.807
  434SOL    HW2 1323   0.802   1.231   4.711
  435SOL     OW 1324   0.685   1.012   4.389
  435SOL    HW1 1325   0.754   0.996   4.459
  435SOL    HW2 1326   0.612   1.069   4.427
  436SOL     OW 1327   0.335   1.435   4.785
  436SOL    HW1 1328   0.257   1.404   4.732
  436SOL    HW2 1329   0.393   1.493   4.728
  437SOL     OW 1330   1.603   0.447   4.461
  437SOL    HW1 1331   1.529   0.493   4.411
  437SOL    HW2 1332   1.654   0.515   4.514
  438SOL     OW 1333   0.231   1.713   4.207
  438SOL    HW1 1334   0.265   1.790   4.261
  438SOL    HW2 1335   0.275   1.713   4.117
  439SOL     OW 1336   0.230   1.434   4.262
  439SOL    HW1 1337   0.204   1.530   4.262
  439SOL    HW2 1338   0.159   1.380   4.307
  440SOL     OW 1339   0.240   1.091   4.610
  440SOL    HW1 1340   0.254   1.007   4.662
  440SOL    HW2 1341   0.185   1.155   4.665
  441SOL     OW 1342   0.606   0.964   3.847
  441SOL    HW1 1343   0.613   1.048   3.793
  441SOL    HW2 1344   0.652   0.977   3.935
  442SOL     OW 1345   0.122   0.643   4.287
  442SOL    HW1 1346   0.077   0.555   4.304
  442SOL    HW2 1347   0.121   0.697   4.371
  443SOL     OW 1348   1.842   1.767   4.083
  443SOL    HW1 1349   1.896   1.738   4.163
  443SOL    HW2 1350   1.872   1.857   4.054
  444SOL     OW 1351   0.027   1.596   3.841
  444SOL    HW1 1352   0.008   1.500   3.862
  444SOL    HW2 1353  -0.006   1.654   3.916
  445SOL     OW 1354   1.689   0.922   4.336
  445SOL    HW1 1355   1.784   0.893   4.344
  445SOL    HW2 1356   1.681   0.987   4.261
  446SOL     OW 1357   1.641   1.108   4.156
  446SOL    HW1 1358   1.727   1.110   4.104
  446SOL    HW2 1359   1.655   1.155   4.244
  447SOL     OW 1360   0.613   1.365   4.450
  447SOL    HW1 1361   0.564   1.278   4.459
  447SOL    HW2 1362   0.590   1.408   4.363
  448SOL     OW 1363   0.809   0.004   4.226
  448SOL    HW1 1364   0.849   0.095   4.217
  448SOL    HW2 1365   0.709   0.012   4.232
  449SOL     OW 1366   0.197   0.976   4.988
  449SOL    HW1 1367   0.286   0.931   4.974
  449SOL    HW2 1368   0.124   0.911   4.969
  450SOL     OW 1369   1.525   0.999   3.914
  450SOL    HW1 1370   1.462   0.923   3.927
  450SOL    HW2 1371   1.573   1.017   4.000
  451SOL     OW 1372   1.466   1.417   4.677
  451SOL    HW1 1373   1.407   1.423   4.757
  451SOL    HW2 1374   1.451   1.329   4.631
  452SOL     OW 1375   1.667   1.714   4.296
  452SOL    HW1 1376   1.626   1.691   4.208
  452SOL    HW2 1377   1.649   1.640   4.361
  453SOL     OW 1378   0.598   0.729   3.994
  453SOL    HW1 1379   0.622   0.798   3.926
  453SOL    HW2 1380   0.520   0.762   4.048
  454SOL     OW 1381   1.281   0.345   4.668
  454SOL    HW1 1382   1.195   0.295   4.655
  454SOL    HW2 1383   1.343   0.291   4.724
  455SOL     OW 1384   1.576   1.662   4.031
  455SOL    HW1 1385   1.665   1.708   4.034
  455SOL    HW2 1386   1.555   1.638   3.936
  456SOL     OW 1387   1.041   0.701   4.153
  456SOL    HW1 1388   1.067   0.697   4.249
  456SOL    HW2 1389   0.956   0.650   4.139
  457SOL     OW 1390   0.076   0.811   4.513
  457SOL    HW1 1391   0.175   0.799   4.522
  457SOL    HW2 1392   0.052   0.906   4.534
  458SOL     OW 1393   0.865   0.348   3.919
  458SOL    HW1 1394   0.924   0.411   3.870
  458SOL    HW2 1395   0.884   0.254   3.890
  459SOL     OW 1396   1.362   1.144   4.269
  459SOL    HW1 1397   1.445   1.115   4.221
  459SOL    HW2 1398   1.313   1.211   4.213
  460SOL     OW 1399   0.550   0.196   4.609
  460SOL    HW1 1400   0.545   0.191   4.709
  460SOL    HW2 1401   0.552   0.292   4.580
  461SOL     OW 1402   1.008   1.456   4.201
  461SOL    HW1 1403   0.962   1.528   4.149
  461SOL    HW2 1404   1.004   1.476   4.299
  462SOL     OW 1405   0.351   1.801   4.577
  462SOL    HW1 1406   0.401   1.715   4.583
  462SOL    HW2 1407   0.416   1.878   4.574
  463SOL     OW 1408   1.795   1.066   4.597
  463SOL    HW1 1409   1.733   1.051   4.521
  463SOL    HW2 1410   1.743   1.077   4.682
  464SOL     OW 1411   0.321   0.943   3.966
  464SOL    HW1 1412   0.403   0.982   3.924
  464SOL    HW2 1413   0.294   0.861   3.917
  465SOL     OW 1414   1.458   0.735   4.452
  465SOL    HW1 1415   1.453   0.670   4.527
  465SOL    HW2 1416   1.538   0.794   4.465
  466SOL     OW 1417   1.111   1.776   3.961
  466SOL    HW1 1418   1.051   1.714   4.011
  466SOL    HW2 1419   1.142   1.732   3.876
  467SOL     OW 1420   1.632   1.377   3.805
  467SOL    HW1 1421   1.600   1.471   3.795
  467SOL    HW2 1422   1.556   1.314   3.793
  468SOL     OW 1423   0.464   1.743   4.047
  468SOL    HW1 1424   0.497   1.782   4.133
  468SOL    HW2 1425   0.540   1.736   3.982
  469SOL     OW 1426   1.400   0.107   4.150
  469SOL    HW1 1427   1.376   0.070   4.060
  469SOL    HW2 1428   1.499   0.123   4.154
  470SOL     OW 1429   0.249   1.785   4.965
  470SOL    HW1 1430   0.306   1.720   5.015
  470SOL    HW2 1431   0.233   1.752   4.872
  471SOL     OW 1432   0.940   1.698   4.628
  471SOL    HW1 1433   1.020   1.641   4.649
  471SOL    HW2 1434   0.891   1.658   4.551
  472SOL     OW 1435   0.382   0.700   4.204
  472SOL    HW1 1436   0.427   0.610   4.201
  472SOL    HW2 1437   0.288   0.689   4.237
  473SOL     OW 1438   0.614   0.122   3.841
  473SOL    HW1 1439   0.712   0.100   3.848
  473SOL    HW2 1440   0.583   0.105   3.748
  474SOL     OW 1441   0.803   1.402   4.648
  474SOL    HW1 1442   0.893   1.416   4.606
  474SOL    HW2 1443   0.732   1.404   4.577
  475SOL     OW 1444   0.922   0.503   4.623
  475SOL    HW1 1445   0.897   0.494   4.527
  475SOL    HW2 1446   0.970   0.421   4.654
  476SOL     OW 1447   0.539   0.064   4.236
  476SOL    HW1 1448   0.458   0.065   4.294
  476SOL    HW2 1449   0.542   0.147   4.181
  477SOL     OW 1450   1.434   1.188   3.765
  477SOL    HW1 1451   1.466   1.112   3.822
  477SOL    HW2 1452   1.342   1.215   3.795
  478SOL     OW 1453   0.297   0.035   3.895
  478SOL    HW1 1454   0.346   0.119   3.874
  478SOL    HW2 1455   0.359  -0.030   3.940
  479SOL     OW 1456   0.935   0.236   4.204
  479SOL    HW1 1457   0.887   0.277   4.126
  479SOL    HW2 1458   1.034   0.234   4.185
  480SOL     OW 1459   1.227   1.570   4.517
  480SOL    HW1 1460   1.248   1.644   4.452
  480SOL    HW2 1461   1.295   1.570   4.590
  481SOL     OW 1462   0.459   1.152   4.465
  481SOL    HW1 1463   0.388   1.125   4.530
  481SOL    HW2 1464   0.433   1.124   4.372
  482SOL     OW 1465   1.271   1.797   4.315
  482SOL    HW1 1466   1.315   1.861   4.251
  482SOL    HW2 1467   1.221   1.849   4.385
  483SOL     OW 1468   1.032   0.549   3.740
  483SOL    HW1 1469   0.991   0.631   3.701
  483SOL    HW2 1470   1.096   0.575   3.813
  484SOL     OW 1471   0.866   0.454   4.366
  484SOL    HW1 1472   0.834   0.526   4.304
  484SOL    HW2 1473   0.890   0.373   4.313
  485SOL     OW 1474   1.017   0.039   4.477
  485SOL    HW1 1475   0.945   0.044   4.408
  485SOL    HW2 1476   0.993  -0.030   4.546
  486SOL     OW 1477   1.429   1.173   4.591
  486SOL    HW1 1478   1.374   1.089   4.584
  486SOL    HW2 1479   1.455   1.202   4.499
  487SOL     OW 1480   1.466   0.590   4.716
  487SOL    HW1 1481   1.436   0.495   4.723
  487SOL    HW2 1482   1.539   0.606   4.782
  488SOL     OW 1483   1.857   0.833   4.101
  488SOL    HW1 1484   1.899   0.769   4.165
  488SOL    HW2 1485   1.819   0.782   4.023
  489SOL     OW 1486   0.488   1.385   3.898
  489SOL    HW1 1487   0.401   1.370   3.945
  489SOL    HW2 1488   0.471   1.411   3.803
  490SOL     OW 1489   1.664   1.280   4.381
  490SOL    HW1 1490   1.763   1.288   4.395
  490SOL    HW2 1491   1.619   1.364   4.412
  491SOL     OW 1492   1.390   0.575   3.802
  491SOL    HW1 1493   1.336   0.554   3.883
  491SOL    HW2 1494   1.481   0.534   3.811
  492SOL     OW 1495   0.527   0.256   4.052
  492SOL    HW1 1496   0.554   0.197   3.977
  492SOL    HW2 1497   0.527   0.351   4.021
  493SOL     OW 1498   1.111   1.195   4.824
  493SOL    HW1 1499   1.071   1.239   4.905
  493SOL    HW2 1500   1.070   1.232   4.741
  494SOL     OW 1501   1.638   1.099   4.803
  494SOL    HW1 1502   1.643   1.180   4.862
  494SOL    HW2 1503   1.552   1.101   4.752
  495SOL     OW 1504   0.705   1.050   4.092
  495SOL    HW1 1505   0.691   1.057   4.191
  495SOL    HW2 1506   0.789   0.999   4.074
  496SOL     OW 1507   0.410   0.813   4.975
  496SOL    HW1 1508   0.496   0.825   5.025
  496SOL    HW2 1509   0.368   0.726   5.002
  497SOL     OW 1510   0.367   1.100   4.225
  497SOL    HW1 1511   0.360   1.183   4.169
  497SOL    HW2 1512   0.371   1.020   4.165
  498SOL     OW 1513   0.566   0.537   4.589
  498SOL    HW1 1514   0.578   0.603   4.515
  498SOL    HW2 1515   0.612   0.571   4.672
  499SOL     OW 1516   1.252   1.348   4.112
  499SOL    HW1 1517   1.302   1.425   4.152
  499SOL    HW2 1518   1.157   1.350   4.144
  500SOL     OW 1519   1.272   1.445   4.866
  500SOL    HW1 1520   1.319   1.458   4.953
  500SOL    HW2 1521   1.206   1.371   4.875
  501SOL     OW 1522   1.582   0.639   4.196
  501SOL    HW1 1523   1.551   0.700   4.269
  501SOL    HW2 1524   1.632   0.691   4.127
  502SOL     OW 1525   0.573   0.870   4.753
  502SOL    HW1 1526   0.617   0.959   4.744
  502SOL    HW2 1527   0.510   0.870   4.830
  503SOL     OW 1528   1.360   0.862   4.769
  503SOL    HW1 1529   1.285   0.862   4.703
  503SOL    HW2 1530   1.397   0.770   4.778
  504SOL     OW 1531   1.209   0.525   3.999
  504SOL    HW1 1532   1.222   0.441   4.053
  504SOL    HW2 1533   1.180   0.599   4.059
  505SOL     OW 1534   0.307   0.213   4.955
  505SOL    HW1 1535   0.284   0.250   5.045
  505SOL    HW2 1536   0.277   0.118   4.949
  506SOL     OW 1537   0.732   0.634   4.788
  506SOL    HW1 1538   0.791   0.608   4.712
  506SOL    HW2 1539   0.704   0.730   4.777
  507SOL     OW 1540   0.307   0.063   4.342
  507SOL    HW1 1541   0.296   0.157   4.375
  507SOL    HW2 1542   0.302   0.000   4.419
  508SOL     OW 1543   1.622   0.367   4.098
  508SOL    HW1 1544   1.624   0.291   4.162
  508SOL    HW2 1545   1.574   0.444   4.138
  509SOL     OW 1546   1.023   0.766   4.690
  509SOL    HW1 1547   1.038   0.787   4.786
  509SOL    HW2 1548   0.993   0.671   4.681
  510SOL     OW 1549   1.540   0.274   3.849
  510SOL    HW1 1550   1.479   0.199   3.872
  510SOL    HW2 1551   1.562   0.326   3.932
  511SOL     OW 1552   1.303   0.838   3.766
  511SOL    HW1 1553   1.337   0.745   3.781
  511SOL    HW2 1554   1.321   0.865   3.671
  512SOL     OW 1555   1.068   1.333   4.573
  512SOL    HW1 1556   1.075   1.249   4.518
  512SOL    HW2 1557   1.130   1.402   4.537
  513SOL     OW 1558   0.319   0.810   4.673
  513SOL    HW1 1559   0.412   0.846   4.678
  513SOL    HW2 1560   0.313   0.725   4.725
  514SOL     OW 1561   0.339   0.509   4.730
  514SOL    HW1 1562   0.287   0.426   4.713
  514SOL    HW2 1563   0.416   0.514   4.666
  515SOL     OW 1564   1.160   0.207   5.201
  515SOL    HW1 1565   1.160   0.271   5.278
  515SOL    HW2 1566   1.188   0.255   5.118
  516SOL     OW 1567   0.008   1.326   3.924
  516SOL    HW1 1568  -0.085   1.347   3.893
  516SOL    HW2 1569   0.018   1.227   3.937
  517SOL     OW 1570   0.088   1.801   4.651
  517SOL    HW1 1571   0.046   1.715   4.624
  517SOL    HW2 1572   0.182   1.804   4.617
  518SOL     OW 1573   0.504   1.568   4.634
  518SOL    HW1 1574   0.570   1.642   4.643
  518SOL    HW2 1575   0.548   1.489   4.592
  519SOL     OW 1576   1.002   0.796   4.962
  519SOL    HW1 1577   1.043   0.764   5.048
  519SOL    HW2 1578   0.906   0.769   4.959
  520SOL     OW 1579   0.040   0.544   4.838
  520SOL    HW1 1580   0.125   0.511   4.797
  520SOL    HW2 1581   0.053   0.559   4.936
  521SOL     OW 1582   0.815   0.572   4.049
  521SOL    HW1 1583   0.822   0.483   4.003
  521SOL    HW2 1584   0.721   0.606   4.041
  522SOL     OW 1585   1.657   0.604   4.930
  522SOL    HW1 1586   1.619   0.535   4.992
  522SOL    HW2 1587   1.739   0.568   4.886
  523SOL     OW 1588   0.671   0.464   4.993
  523SOL    HW1 1589   0.637   0.375   4.963
  523SOL    HW2 1590   0.697   0.518   4.913
  524SOL     OW 1591   0.473   0.500   3.915
  524SOL    HW1 1592   0.534   0.580   3.919
  524SOL    HW2 1593   0.378   0.531   3.922
  525SOL     OW 1594   1.302   0.855   4.033
  525SOL    HW1 1595   1.216   0.824   4.075
  525SOL    HW2 1596   1.298   0.841   3.934
  526SOL     OW 1597   1.759   1.747   4.878
  526SOL    HW1 1598   1.820   1.777   4.805
  526SOL    HW2 1599   1.721   1.658   4.856
  527SOL     OW 1600   0.083   1.258   4.746
  527SOL    HW1 1601   0.078   1.257   4.846
  527SOL    HW2 1602   0.000   1.217   4.708
  528SOL     OW 1603   1.726   0.135   4.247
  528SOL    HW1 1604   1.799   0.118   4.180
  528SOL    HW2 1605   1.695   0.048   4.285
  529SOL     OW 1606   1.388   1.573   4.201
  529SOL    HW1 1607   1.455   1.585   4.127
  529SOL    HW2 1608   1.348   1.662   4.224
  530SOL     OW 1609   1.280   0.927   4.396
  530SOL    HW1 1610   1.340   0.846   4.398
  530SOL    HW2 1611   1.320   0.996   4.336
  531SOL     OW 1612   0.672   1.616   3.878
  531SOL    HW1 1613   0.681   1.626   3.779
  531SOL    HW2 1614   0.632   1.527   3.899
  532SOL     OW 1615   1.841   0.175   4.687
  532SOL    HW1 1616   1.880   0.090   4.651
  532SOL    HW2 1617   1.743   0.177   4.668
  533SOL     OW 1618   0.263   0.326   4.444
  533SOL    HW1 1619   0.184   0.377   4.410
  533SOL    HW2 1620   0.254   0.311   4.542
  534SOL     OW 1621   1.194   1.612   3.755
  534SOL    HW1 1622   1.200   1.519   3.792
  534SOL    HW2 1623   1.135   1.612   3.675
  535SOL     OW 1624   0.822   1.002   5.096
  535SOL    HW1 1625   0.862   1.001   5.004
  535SOL    HW2 1626   0.832   1.094   5.136
  536SOL     OW 1627   0.916   0.910   4.015
  536SOL    HW1 1628   0.979   0.948   3.947
  536SOL    HW2 1629   0.956   0.827   4.054
  537SOL     OW 1630   1.504   1.607   3.768
  537SOL    HW1 1631   1.412   1.644   3.775
  537SOL    HW2 1632   1.542   1.627   3.678
  538SOL     OW 1633   1.039   1.098   4.420
  538SOL    HW1 1634   0.969   1.051   4.474
  538SOL    HW2 1635   1.098   1.030   4.377
  539SOL     OW 1636   1.014   0.236   4.695
  539SOL    HW1 1637   1.006   0.200   4.602
  539SOL    HW2 1638   1.012   0.160   4.760
  540SOL     OW 1639   0.590   1.487   4.215
  540SOL    HW1 1640   0.632   1.429   4.145
  540SOL    HW2 1641   0.546   1.566   4.171
  541SOL     OW 1642   1.709   0.385   5.105
  541SOL    HW1 1643   1.782   0.454   5.109
  541SOL    HW2 1644   1.737   0.310   5.046
  542SOL     OW 1645   0.255   1.348   4.014
  542SOL    HW1 1646   0.159   1.349   3.987
  542SOL    HW2 1647   0.267   1.401   4.098
  543SOL     OW 1648   0.075   0.345   3.757
  543SOL    HW1 1649  -0.017   0.317   3.728
  543SOL    HW2 1650   0.106   0.422   3.701
  544SOL     OW 1651   0.072   0.166   4.042
  544SOL    HW1 1652   0.055   0.249   3.988
  544SOL    HW2 1653   0.162   0.129   4.020
  545SOL     OW 1654   1.183   1.335   3.843
  545SOL    HW1 1655   1.084   1.324   3.845
  545SOL    HW2 1656   1.217   1.350   3.936
  546SOL     OW 1657   1.493   1.767   4.683
  546SOL    HW1 1658   1.526   1.831   4.614
  546SOL    HW2 1659   1.559   1.761   4.758
  547SOL     OW 1660   1.674   0.883   4.978
  547SOL    HW1 1661   1.647   0.794   4.941
  547SOL    HW2 1662   1.675   0.951   4.905
  548SOL     OW 1663   1.225   0.325   4.173
  548SOL    HW1 1664   1.290   0.251   4.162
  548SOL    HW2 1665   1.245   0.375   4.257
  549SOL     OW 1666   0.594   0.745   4.376
  549SOL    HW1 1667   0.644   0.830   4.357
  549SOL    HW2 1668   0.506   0.747   4.328
  550SOL     OW 1669   1.730   0.934   5.241
  550SOL    HW1 1670   1.768   1.025   5.256
  550SOL    HW2 1671   1.722   0.917   5.142
  551SOL     OW 1672   0.859   1.374   3.740
  551SOL    HW1 1673   0.813   1.389   3.828
  551SOL    HW2 1674   0.903   1.459   3.710
  552SOL     OW 1675   0.661   1.790   4.677
  552SOL    HW1 1676   0.615   1.878   4.664
  552SOL    HW2 1677   0.760   1.802   4.670
  553SOL     OW 1678   0.859   0.956   4.585
  553SOL    HW1 1679   0.913   0.887   4.633
  553SOL    HW2 1680   0.827   1.025   4.651
  554SOL     OW 1681   1.083   0.984   3.811
  554SOL    HW1 1682   1.060   1.037   3.729
  554SOL    HW2 1683   1.164   0.928   3.792
  555SOL     OW 1684   1.861   1.569   4.575
  555SOL    HW1 1685   1.790   1.557   4.505
  555SOL    HW2 1686   1.862   1.490   4.635
  556SOL     OW 1687   0.079   1.240   4.377
  556SOL    HW1 1688   0.078   1.193   4.465
  556SOL    HW2 1689   0.161   1.212   4.326
  557SOL     OW 1690   1.824   0.192   4.951
  557SOL    HW1 1691   1.820   0.102   4.995
  557SOL    HW2 1692   1.827   0.181   4.852
  558SOL     OW 1693   0.428   0.424   4.244
  558SOL    HW1 1694   0.458   0.352   4.182
  558SOL    HW2 1695   0.389   0.384   4.327
  559SOL     OW 1696   1.705   1.487   4.828
  559SOL    HW1 1697   1.612   1.462   4.801
  559SOL    HW2 1698   1.731   1.437   4.910
  560SOL     OW 1699   0.812   1.586   4.411
  560SOL    HW1 1700   0.844   1.596   4.317
  560SOL    HW2 1701   0.733   1.524   4.413
  561SOL     OW 1702   1.424   0.214   4.836
  561SOL    HW1 1703   1.476   0.149   4.891
  561SOL    HW2 1704   1.375   0.277   4.897
  562SOL     OW 1705   1.001   0.034   4.878
  562SOL    HW1 1706   0.938  -0.038   4.847
  562SOL    HW2 1707   1.094  -0.002   4.878
  563SOL     OW 1708   0.770   1.330   4.025
  563SOL    HW1 1709   0.724   1.243   4.042
  563SOL    HW2 1710   0.861   1.327   4.066
  564SOL     OW 1711   1.352   0.052   3.892
  564SOL    HW1 1712   1.387   0.011   3.808
  564SOL    HW2 1713   1.262   0.014   3.912
  565SOL     OW 1714   1.300   0.453   4.415
  565SOL    HW1 1715   1.241   0.533   4.419
  565SOL    HW2 1716   1.315   0.418   4.508
  566SOL     OW 1717   1.593   0.221   4.606
  566SOL    HW1 1718   1.509   0.220   4.660
  566SOL    HW2 1719   1.595   0.304   4.550
  567SOL     OW 1720   0.039   1.077   4.024
  567SOL    HW1 1721   0.138   1.066   4.015
  567SOL    HW2 1722  -0.001   0.991   4.056
  568SOL     OW 1723   0.875   1.646   4.061
  568SOL    HW1 1724   0.798   1.611   4.007
  568SOL    HW2 1725   0.843   1.717   4.123
  569SOL     OW 1726   0.230   2.490   0.113
  569SOL    HW1 1727   0.137   2.488   0.150
  569SOL    HW2 1728   0.231   2.451   0.021
  570SOL     OW 1729   0.225   2.137   0.996
  570SOL    HW1 1730   0.260   2.120   1.088
  570SOL    HW2 1731   0.137   2.092   0.984
  571SOL     OW 1732   0.019   2.230   0.647
  571SOL    HW1 1733  -0.063   2.273   0.686
  571SOL    HW2 1734  -0.009   2.157   0.584
  572SOL     OW 1735   0.569   3.137   1.165
  572SOL    HW1 1736   0.476   3.130   1.128
  572SOL    HW2 1737   0.580   3.226   1.209
  573SOL     OW 1738   1.555   3.373   0.703
  573SOL    HW1 1739   1.498   3.357   0.784
  573SOL    HW2 1740   1.496   3.383   0.623
  574SOL     OW 1741   1.135   2.565   0.717
  574SOL    HW1 1742   1.192   2.643   0.692
  574SOL    HW2 1743   1.075   2.591   0.793
  575SOL     OW 1744   1.755   2.469   0.231
  575SOL    HW1 1745   1.743   2.456   0.132
  575SOL    HW2 1746   1.725   2.388   0.280
  576SOL     OW 1747   0.768   3.006   1.023
  576SOL    HW1 1748   0.690   3.023   1.083
  576SOL    HW2 1749   0.802   3.093   0.987
  577SOL     OW 1750   0.850   2.660   1.823
  577SOL    HW1 1751   0.846   2.736   1.888
  577SOL    HW2 1752   0.872   2.696   1.732
  578SOL     OW 1753   0.685   2.874   0.665
  578SOL    HW1 1754   0.754   2.858   0.735
  578SOL    HW2 1755   0.612   2.931   0.703
  579SOL     OW 1756   0.686   3.023   1.803
  579SOL    HW1 1757   0.746   3.102   1.817
  579SOL    HW2 1758   0.600   3.054   1.762
  580SOL     OW 1759   0.335   3.297   1.061
  580SOL    HW1 1760   0.257   3.266   1.008
  580SOL    HW2 1761   0.393   3.355   1.004
  581SOL     OW 1762   1.460   3.367   1.339
  581SOL    HW1 1763   1.484   3.461   1.365
  581SOL    HW2 1764   1.444   3.313   1.421
  582SOL     OW 1765   0.438   2.254   1.499
  582SOL    HW1 1766   0.520   2.198   1.508
  582SOL    HW2 1767   0.357   2.196   1.503
  583SOL     OW 1768   1.603   2.309   0.737
  583SOL    HW1 1769   1.529   2.355   0.687
  583SOL    HW2 1770   1.654   2.377   0.790
  584SOL     OW 1771   0.231   3.575   0.483
  584SOL    HW1 1772   0.265   3.652   0.537
  584SOL    HW2 1773   0.275   3.575   0.393
  585SOL     OW 1774   1.127   3.203   1.690
  585SOL    HW1 1775   1.174   3.203   1.778
  585SOL    HW2 1776   1.079   3.116   1.679
  586SOL     OW 1777   0.230   3.296   0.538
  586SOL    HW1 1778   0.204   3.392   0.538
  586SOL    HW2 1779   0.159   3.242   0.583
  587SOL     OW 1780   0.240   2.953   0.886
  587SOL    HW1 1781   0.254   2.869   0.938
  587SOL    HW2 1782   0.185   3.017   0.941
  588SOL     OW 1783   0.620   3.648   1.439
  588SOL    HW1 1784   0.528   3.631   1.474
  588SOL    HW2 1785   0.648   3.740   1.465
  589SOL     OW 1786   0.606   2.826   0.123
  589SOL    HW1 1787   0.613   2.910   0.069
  589SOL    HW2 1788   0.652   2.839   0.211
  590SOL     OW 1789   1.594   1.976   1.480
  590SOL    HW1 1790   1.576   2.043   1.408
  590SOL    HW2 1791   1.591   2.022   1.569
  591SOL     OW 1792   0.122   2.505   0.563
  591SOL    HW1 1793   0.077   2.417   0.580
  591SOL    HW2 1794   0.121   2.559   0.647
  592SOL     OW 1795   1.842   3.629   0.359
  592SOL    HW1 1796   1.896   3.600   0.439
  592SOL    HW2 1797   1.872   3.719   0.330
  593SOL     OW 1798   0.027   3.458   0.117
  593SOL    HW1 1799   0.008   3.362   0.138
  593SOL    HW2 1800  -0.006   3.516   0.192
  594SOL     OW 1801   1.689   2.784   0.612
  594SOL    HW1 1802   1.784   2.755   0.620
  594SOL    HW2 1803   1.681   2.849   0.537
  595SOL     OW 1804   1.641   2.970   0.432
  595SOL    HW1 1805   1.727   2.972   0.380
  595SOL    HW2 1806   1.655   3.017   0.520
  596SOL     OW 1807   0.113   2.599   1.597
  596SOL    HW1 1808   0.201   2.586   1.642
  596SOL    HW2 1809   0.100   2.696   1.575
  597SOL     OW 1810   0.613   3.227   0.726
  597SOL    HW1 1811   0.564   3.140   0.735
  597SOL    HW2 1812   0.590   3.270   0.639
  598SOL     OW 1813   1.293   3.090   1.423
  598SOL    HW1 1814   1.330   3.017   1.365
  598SOL    HW2 1815   1.345   3.095   1.508
  599SOL     OW 1816   0.809   1.866   0.502
  599SOL    HW1 1817   0.849   1.957   0.493
  599SOL    HW2 1818   0.709   1.874   0.508
  600SOL     OW 1819   0.197   2.838   1.264
  600SOL    HW1 1820   0.286   2.793   1.250
  600SOL    HW2 1821   0.124   2.773   1.245
  601SOL     OW 1822   1.525   2.861   0.190
  601SOL    HW1 1823   1.462   2.785   0.203
  601SOL    HW2 1824   1.573   2.879   0.276
  602SOL     OW 1825   1.187   3.654   1.616
  602SOL    HW1 1826   1.211   3.714   1.540
  602SOL    HW2 1827   1.194   3.559   1.586
  603SOL     OW 1828   0.317   2.113   1.801
  603SOL    HW1 1829   0.388   2.184   1.807
  603SOL    HW2 1830   0.229   2.152   1.829
  604SOL     OW 1831   1.466   3.279   0.953
  604SOL    HW1 1832   1.407   3.285   1.033
  604SOL    HW2 1833   1.451   3.191   0.907
  605SOL     OW 1834   1.667   3.576   0.572
  605SOL    HW1 1835   1.626   3.553   0.484
  605SOL    HW2 1836   1.649   3.502   0.637
  606SOL     OW 1837   0.598   2.591   0.270
  606SOL    HW1 1838   0.622   2.660   0.202
  606SOL    HW2 1839   0.520   2.624   0.324
  607SOL     OW 1840   1.281   2.207   0.944
  607SOL    HW1 1841   1.195   2.157   0.931
  607SOL    HW2 1842   1.343   2.153   1.000
  608SOL     OW 1843   1.576   3.524   0.307
  608SOL    HW1 1844   1.665   3.570   0.310
  608SOL    HW2 1845   1.555   3.500   0.212
  609SOL     OW 1846   0.807   2.467   1.465
  609SOL    HW1 1847   0.760   2.464   1.554
  609SOL    HW2 1848   0.756   2.412   1.399
  610SOL     OW 1849   1.394   2.331   1.674
  610SOL    HW1 1850   1.374   2.374   1.762
  610SOL    HW2 1851   1.472   2.269   1.683
  611SOL     OW 1852   0.973   2.752   1.572
  611SOL    HW1 1853   1.019   2.668   1.543
  611SOL    HW2 1854   0.917   2.786   1.497
  612SOL     OW 1855   0.991   2.272   1.242
  612SOL    HW1 1856   0.914   2.306   1.296
  612SOL    HW2 1857   0.957   2.221   1.163
  613SOL     OW 1858   1.041   2.563   0.429
  613SOL    HW1 1859   1.067   2.559   0.525
  613SOL    HW2 1860   0.956   2.512   0.415
  614SOL     OW 1861   0.076   2.673   0.789
  614SOL    HW1 1862   0.175   2.661   0.798
  614SOL    HW2 1863   0.052   2.768   0.810
  615SOL     OW 1864   0.130   3.683   1.571
  615SOL    HW1 1865   0.120   3.668   1.670
  615SOL    HW2 1866   0.044   3.719   1.535
  616SOL     OW 1867   0.865   2.210   0.195
  616SOL    HW1 1868   0.924   2.273   0.146
  616SOL    HW2 1869   0.884   2.116   0.166
  617SOL     OW 1870   1.719   2.447   1.831
  617SOL    HW1 1871   1.693   2.536   1.795
  617SOL    HW2 1872   1.717   2.379   1.758
  618SOL     OW 1873   1.362   3.006   0.545
  618SOL    HW1 1874   1.445   2.977   0.497
  618SOL    HW2 1875   1.313   3.073   0.489
  619SOL     OW 1876   0.550   2.058   0.885
  619SOL    HW1 1877   0.545   2.053   0.985
  619SOL    HW2 1878   0.552   2.154   0.856
  620SOL     OW 1879   1.008   3.318   0.477
  620SOL    HW1 1880   0.962   3.390   0.425
  620SOL    HW2 1881   1.004   3.338   0.575
  621SOL     OW 1882   0.351   3.663   0.853
  621SOL    HW1 1883   0.401   3.577   0.859
  621SOL    HW2 1884   0.416   3.740   0.850
  622SOL     OW 1885   1.795   2.928   0.873
  622SOL    HW1 1886   1.733   2.913   0.797
  622SOL    HW2 1887   1.743   2.939   0.958
  623SOL     OW 1888   1.227   3.412   1.506
  623SOL    HW1 1889   1.233   3.335   1.570
  623SOL    HW2 1890   1.175   3.386   1.426
  624SOL     OW 1891   0.321   2.805   0.242
  624SOL    HW1 1892   0.403   2.844   0.200
  624SOL    HW2 1893   0.294   2.723   0.193
  625SOL     OW 1894   1.458   2.597   0.728
  625SOL    HW1 1895   1.453   2.532   0.803
  625SOL    HW2 1896   1.538   2.656   0.741
  626SOL     OW 1897   0.461   3.128   1.727
  626SOL    HW1 1898   0.411   3.129   1.641
  626SOL    HW2 1899   0.398   3.110   1.803
  627SOL     OW 1900   1.111   3.638   0.237
  627SOL    HW1 1901   1.051   3.576   0.287
  627SOL    HW2 1902   1.142   3.594   0.152
  628SOL     OW 1903   0.202   2.147   1.498
  628SOL    HW1 1904   0.122   2.207   1.485
  628SOL    HW2 1905   0.192   2.098   1.584
  629SOL     OW 1906   1.632   3.239   0.081
  629SOL    HW1 1907   1.600   3.333   0.071
  629SOL    HW2 1908   1.556   3.176   0.069
  630SOL     OW 1909   0.464   3.605   0.323
  630SOL    HW1 1910   0.497   3.644   0.409
  630SOL    HW2 1911   0.540   3.598   0.258
  631SOL     OW 1912   1.400   1.969   0.426
  631SOL    HW1 1913   1.376   1.932   0.336
  631SOL    HW2 1914   1.499   1.985   0.430
  632SOL     OW 1915   0.249   3.647   1.241
  632SOL    HW1 1916   0.306   3.582   1.291
  632SOL    HW2 1917   0.233   3.614   1.148
  633SOL     OW 1918   0.940   3.560   0.904
  633SOL    HW1 1919   1.020   3.503   0.925
  633SOL    HW2 1920   0.891   3.520   0.827
  634SOL     OW 1921   0.382   2.562   0.480
  634SOL    HW1 1922   0.427   2.472   0.477
  634SOL    HW2 1923   0.288   2.551   0.513
  635SOL     OW 1924   1.547   2.084   1.729
  635SOL    HW1 1925   1.542   2.121   1.821
  635SOL    HW2 1926   1.475   2.015   1.717
  636SOL     OW 1927   0.614   1.984   0.117
  636SOL    HW1 1928   0.712   1.962   0.124
  636SOL    HW2 1929   0.583   1.967   0.024
  637SOL     OW 1930   0.781   2.126   1.749
  637SOL    HW1 1931   0.848   2.065   1.792
  637SOL    HW2 1932   0.708   2.145   1.814
  638SOL     OW 1933   0.888   3.376   1.195
  638SOL    HW1 1934   0.865   3.351   1.101
  638SOL    HW2 1935   0.949   3.307   1.234
  639SOL     OW 1936   1.351   2.452   1.433
  639SOL    HW1 1937   1.379   2.409   1.518
  639SOL    HW2 1938   1.376   2.548   1.434
  640SOL     OW 1939   0.803   3.264   0.924
  640SOL    HW1 1940   0.893   3.278   0.882
  640SOL    HW2 1941   0.732   3.266   0.853
  641SOL     OW 1942   0.922   2.365   0.899
  641SOL    HW1 1943   0.897   2.356   0.803
  641SOL    HW2 1944   0.970   2.283   0.930
  642SOL     OW 1945   0.539   1.926   0.512
  642SOL    HW1 1946   0.458   1.927   0.570
  642SOL    HW2 1947   0.542   2.009   0.457
  643SOL     OW 1948   1.434   3.050   0.041
  643SOL    HW1 1949   1.466   2.974   0.098
  643SOL    HW2 1950   1.342   3.077   0.071
  644SOL     OW 1951   0.297   1.897   0.171
  644SOL    HW1 1952   0.346   1.981   0.150
  644SOL    HW2 1953   0.359   1.832   0.216
  645SOL     OW 1954   0.935   2.098   0.480
  645SOL    HW1 1955   0.887   2.139   0.402
  645SOL    HW2 1956   1.034   2.096   0.461
  646SOL     OW 1957   1.076   2.545   1.464
  646SOL    HW1 1958   0.996   2.484   1.467
  646SOL    HW2 1959   1.157   2.492   1.440
  647SOL     OW 1960   1.227   3.432   0.793
  647SOL    HW1 1961   1.248   3.506   0.728
  647SOL    HW2 1962   1.295   3.432   0.866
  648SOL     OW 1963   0.459   3.014   0.741
  648SOL    HW1 1964   0.388   2.987   0.806
  648SOL    HW2 1965   0.433   2.986   0.648
  649SOL     OW 1966   1.271   3.659   0.591
  649SOL    HW1 1967   1.315   3.723   0.527
  649SOL    HW2 1968   1.221   3.711   0.661
  650SOL     OW 1969   1.032   2.411   0.016
  650SOL    HW1 1970   0.991   2.493  -0.023
  650SOL    HW2 1971   1.096   2.437   0.089
  651SOL     OW 1972   0.078   2.418   1.386
  651SOL    HW1 1973   0.170   2.417   1.345
  651SOL    HW2 1974   0.072   2.492   1.453
  652SOL     OW 1975   0.561   2.084   1.147
  652SOL    HW1 1976   0.599   2.000   1.184
  652SOL    HW2 1977   0.473   2.103   1.191
  653SOL     OW 1978   0.866   2.316   0.642
  653SOL    HW1 1979   0.834   2.388   0.580
  653SOL    HW2 1980   0.890   2.235   0.589
  654SOL     OW 1981   1.017   1.901   0.753
  654SOL    HW1 1982   0.945   1.906   0.684
  654SOL    HW2 1983   0.993   1.832   0.822
  655SOL     OW 1984   1.429   3.035   0.867
  655SOL    HW1 1985   1.374   2.951   0.860
  655SOL    HW2 1986   1.455   3.064   0.775
  656SOL     OW 1987   1.466   2.452   0.992
  656SOL    HW1 1988   1.436   2.357   0.999
  656SOL    HW2 1989   1.539   2.468   1.058
  657SOL     OW 1990   1.857   2.695   0.377
  657SOL    HW1 1991   1.899   2.631   0.441
  657SOL    HW2 1992   1.819   2.644   0.299
  658SOL     OW 1993   0.488   3.247   0.174
  658SOL    HW1 1994   0.401   3.232   0.221
  658SOL    HW2 1995   0.471   3.273   0.079
  659SOL     OW 1996   1.664   3.142   0.657
  659SOL    HW1 1997   1.763   3.150   0.671
  659SOL    HW2 1998   1.619   3.226   0.688
  660SOL     OW 1999   1.390   2.437   0.078
  660SOL    HW1 2000   1.336   2.416   0.159
  660SOL    HW2 2001   1.481   2.396   0.087
  661SOL     OW 2002   0.527   2.118   0.328
  661SOL    HW1 2003   0.554   2.059   0.253
  661SOL    HW2 2004   0.527   2.213   0.297
  662SOL     OW 2005   1.754   3.085   1.588
  662SOL    HW1 2006   1.845   3.046   1.575
  662SOL    HW2 2007   1.762   3.181   1.612
  663SOL     OW 2008   1.064   3.209   1.340
  663SOL    HW1 2009   0.984   3.186   1.395
  663SOL    HW2 2010   1.147   3.183   1.389
  664SOL     OW 2011   1.592   3.491   1.625
  664SOL    HW1 2012   1.619   3.525   1.535
  664SOL    HW2 2013   1.671   3.453   1.671
  665SOL     OW 2014   1.111   3.057   1.100
  665SOL    HW1 2015   1.071   3.101   1.181
  665SOL    HW2 2016   1.070   3.094   1.017
  666SOL     OW 2017   1.638   2.961   1.079
  666SOL    HW1 2018   1.643   3.042   1.138
  666SOL    HW2 2019   1.552   2.963   1.028
  667SOL     OW 2020   0.915   1.951   1.402
  667SOL    HW1 2021   0.940   1.931   1.307
  667SOL    HW2 2022   0.987   2.007   1.444
  668SOL     OW 2023   0.980   2.978   1.719
  668SOL    HW1 2024   0.881   2.984   1.729
  668SOL    HW2 2025   1.003   2.898   1.663
  669SOL     OW 2026   0.705   2.912   0.368
  669SOL    HW1 2027   0.691   2.919   0.467
  669SOL    HW2 2028   0.789   2.861   0.350
  670SOL     OW 2029   0.410   2.675   1.251
  670SOL    HW1 2030   0.496   2.687   1.301
  670SOL    HW2 2031   0.368   2.588   1.278
  671SOL     OW 2032   1.274   2.248   1.262
  671SOL    HW1 2033   1.295   2.322   1.326
  671SOL    HW2 2034   1.185   2.265   1.219
  672SOL     OW 2035   0.064   3.426   1.331
  672SOL    HW1 2036   0.018   3.508   1.297
  672SOL    HW2 2037   0.162   3.445   1.340
  673SOL     OW 2038   0.367   2.962   0.501
  673SOL    HW1 2039   0.360   3.045   0.445
  673SOL    HW2 2040   0.371   2.882   0.441
  674SOL     OW 2041   0.566   2.399   0.865
  674SOL    HW1 2042   0.578   2.465   0.791
  674SOL    HW2 2043   0.612   2.433   0.948
  675SOL     OW 2044   1.252   3.210   0.388
  675SOL    HW1 2045   1.302   3.287   0.428
  675SOL    HW2 2046   1.157   3.212   0.420
  676SOL     OW 2047   1.272   3.307   1.142
  676SOL    HW1 2048   1.319   3.320   1.229
  676SOL    HW2 2049   1.206   3.233   1.151
  677SOL     OW 2050   1.582   2.501   0.472
  677SOL    HW1 2051   1.551   2.562   0.545
  677SOL    HW2 2052   1.632   2.553   0.403
  678SOL     OW 2053   0.354   3.372   1.329
  678SOL    HW1 2054   0.333   3.328   1.242
  678SOL    HW2 2055   0.451   3.398   1.332
  679SOL     OW 2056   0.402   2.613   1.598
  679SOL    HW1 2057   0.470   2.668   1.551
  679SOL    HW2 2058   0.442   2.525   1.625
  680SOL     OW 2059   1.587   2.641   1.670
  680SOL    HW1 2060   1.495   2.679   1.665
  680SOL    HW2 2061   1.647   2.688   1.605
  681SOL     OW 2062   1.013   1.967   1.770
  681SOL    HW1 2063   1.019   2.052   1.718
  681SOL    HW2 2064   1.045   1.891   1.713
  682SOL     OW 2065   0.504   1.912   1.740
  682SOL    HW1 2066   0.462   1.855   1.670
  682SOL    HW2 2067   0.438   1.981   1.772
  683SOL     OW 2068   0.573   2.732   1.029
  683SOL    HW1 2069   0.617   2.821   1.020
  683SOL    HW2 2070   0.510   2.732   1.106
  684SOL     OW 2071   1.360   2.724   1.045
  684SOL    HW1 2072   1.285   2.724   0.979
  684SOL    HW2 2073   1.397   2.632   1.054
  685SOL     OW 2074   1.209   2.387   0.275
  685SOL    HW1 2075   1.222   2.303   0.329
  685SOL    HW2 2076   1.180   2.461   0.335
  686SOL     OW 2077   0.307   2.075   1.231
  686SOL    HW1 2078   0.284   2.112   1.321
  686SOL    HW2 2079   0.277   1.980   1.225
  687SOL     OW 2080   0.037   3.172   1.282
  687SOL    HW1 2081   0.090   3.123   1.350
  687SOL    HW2 2082   0.059   3.270   1.287
  688SOL     OW 2083   0.732   2.496   1.064
  688SOL    HW1 2084   0.791   2.470   0.988
  688SOL    HW2 2085   0.704   2.592   1.053
  689SOL     OW 2086   1.728   2.797   1.854
  689SOL    HW1 2087   1.682   2.790   1.765
  689SOL    HW2 2088   1.666   2.841   1.920
  690SOL     OW 2089   0.307   1.925   0.618
  690SOL    HW1 2090   0.296   2.019   0.651
  690SOL    HW2 2091   0.302   1.862   0.695
  691SOL     OW 2092   1.622   2.229   0.374
  691SOL    HW1 2093   1.624   2.153   0.438
  691SOL    HW2 2094   1.574   2.306   0.414
  692SOL     OW 2095   1.023   2.628   0.966
  692SOL    HW1 2096   1.038   2.649   1.062
  692SOL    HW2 2097   0.993   2.533   0.957
  693SOL     OW 2098   0.980   3.435   1.700
  693SOL    HW1 2099   0.960   3.479   1.612
  693SOL    HW2 2100   1.019   3.344   1.684
  694SOL     OW 2101   1.859   3.380   1.605
  694SOL    HW1 2102   1.873   3.407   1.510
  694SOL    HW2 2103   1.942   3.402   1.658
  695SOL     OW 2104   0.350   2.760   1.804
  695SOL    HW1 2105   0.426   2.804   1.852
  695SOL    HW2 2106   0.385   2.713   1.722
  696SOL     OW 2107   1.540   2.136   0.125
  696SOL    HW1 2108   1.479   2.061   0.148
  696SOL    HW2 2109   1.562   2.188   0.208
  697SOL     OW 2110   1.303   2.700   0.042
  697SOL    HW1 2111   1.337   2.607   0.057
  697SOL    HW2 2112   1.321   2.727  -0.053
  698SOL     OW 2113   1.068   3.195   0.849
  698SOL    HW1 2114   1.075   3.111   0.794
  698SOL    HW2 2115   1.130   3.264   0.813
  699SOL     OW 2116   0.319   2.672   0.949
  699SOL    HW1 2117   0.412   2.708   0.954
  699SOL    HW2 2118   0.313   2.587   1.001
  700SOL     OW 2119   0.339   2.371   1.006
  700SOL    HW1 2120   0.287   2.288   0.989
  700SOL    HW2 2121   0.416   2.376   0.942
  701SOL     OW 2122   1.138   2.242   1.678
  701SOL    HW1 2123   1.093   2.305   1.742
  701SOL    HW2 2124   1.231   2.273   1.661
  702SOL     OW 2125   1.160   2.069   1.477
  702SOL    HW1 2126   1.160   2.133   1.554
  702SOL    HW2 2127   1.188   2.117   1.394
  703SOL     OW 2128   0.008   3.188   0.200
  703SOL    HW1 2129  -0.085   3.209   0.169
  703SOL    HW2 2130   0.018   3.089   0.213
  704SOL     OW 2131   0.088   3.663   0.927
  704SOL    HW1 2132   0.046   3.577   0.900
  704SOL    HW2 2133   0.182   3.666   0.893
  705SOL     OW 2134   0.504   3.430   0.910
  705SOL    HW1 2135   0.570   3.504   0.919
  705SOL    HW2 2136   0.548   3.351   0.868
  706SOL     OW 2137   1.002   2.658   1.238
  706SOL    HW1 2138   1.043   2.626   1.324
  706SOL    HW2 2139   0.906   2.631   1.235
  707SOL     OW 2140   0.040   2.406   1.114
  707SOL    HW1 2141   0.125   2.373   1.073
  707SOL    HW2 2142   0.053   2.421   1.212
  708SOL     OW 2143   0.189   2.382   1.722
  708SOL    HW1 2144   0.248   2.342   1.652
  708SOL    HW2 2145   0.131   2.453   1.681
  709SOL     OW 2146   1.369   2.812   1.660
  709SOL    HW1 2147   1.408   2.901   1.680
  709SOL    HW2 2148   1.379   2.792   1.563
  710SOL     OW 2149   0.815   2.434   0.325
  710SOL    HW1 2150   0.822   2.345   0.279
  710SOL    HW2 2151   0.721   2.468   0.317
  711SOL     OW 2152   1.657   2.466   1.206
  711SOL    HW1 2153   1.619   2.397   1.268
  711SOL    HW2 2154   1.739   2.430   1.162
  712SOL     OW 2155   0.252   3.426   1.744
  712SOL    HW1 2156   0.222   3.483   1.820
  712SOL    HW2 2157   0.245   3.329   1.770
  713SOL     OW 2158   0.671   2.326   1.269
  713SOL    HW1 2159   0.637   2.237   1.239
  713SOL    HW2 2160   0.697   2.380   1.189
  714SOL     OW 2161   0.930   3.540   1.465
  714SOL    HW1 2162   0.906   3.522   1.370
  714SOL    HW2 2163   0.960   3.634   1.475
  715SOL     OW 2164   0.473   2.362   0.191
  715SOL    HW1 2165   0.534   2.442   0.195
  715SOL    HW2 2166   0.378   2.393   0.198
  716SOL     OW 2167   0.159   2.999   1.466
  716SOL    HW1 2168   0.181   2.938   1.542
  716SOL    HW2 2169   0.169   2.950   1.380
  717SOL     OW 2170   1.347   2.921   1.234
  717SOL    HW1 2171   1.371   2.858   1.160
  717SOL    HW2 2172   1.257   2.961   1.216
  718SOL     OW 2173   1.302   2.717   0.309
  718SOL    HW1 2174   1.216   2.686   0.351
  718SOL    HW2 2175   1.298   2.703   0.210
  719SOL     OW 2176   1.759   3.609   1.154
  719SOL    HW1 2177   1.820   3.639   1.081
  719SOL    HW2 2178   1.721   3.520   1.132
  720SOL     OW 2179   1.252   3.593   1.128
  720SOL    HW1 2180   1.336   3.598   1.074
  720SOL    HW2 2181   1.229   3.497   1.146
  721SOL     OW 2182   0.083   3.120   1.022
  721SOL    HW1 2183   0.078   3.119   1.122
  721SOL    HW2 2184   0.000   3.079   0.984
  722SOL     OW 2185   0.688   3.524   1.716
  722SOL    HW1 2186   0.632   3.605   1.725
  722SOL    HW2 2187   0.740   3.528   1.630
  723SOL     OW 2188   0.903   1.948   0.133
  723SOL    HW1 2189   0.954   1.949   0.047
  723SOL    HW2 2190   0.959   1.906   0.204
  724SOL     OW 2191   1.726   1.997   0.523
  724SOL    HW1 2192   1.799   1.980   0.456
  724SOL    HW2 2193   1.695   1.910   0.561
  725SOL     OW 2194   1.388   3.435   0.477
  725SOL    HW1 2195   1.455   3.447   0.403
  725SOL    HW2 2196   1.348   3.524   0.500
  726SOL     OW 2197   0.130   3.656   1.851
  726SOL    HW1 2198   0.089   3.582   1.904
  726SOL    HW2 2199   0.194   3.707   1.909
  727SOL     OW 2200   1.280   2.789   0.672
  727SOL    HW1 2201   1.340   2.708   0.674
  727SOL    HW2 2202   1.320   2.858   0.612
  728SOL     OW 2203   0.830   3.135   1.422
  728SOL    HW1 2204   0.825   3.168   1.517
  728SOL    HW2 2205   0.744   3.154   1.376
  729SOL     OW 2206   0.672   3.478   0.154
  729SOL    HW1 2207   0.681   3.488   0.055
  729SOL    HW2 2208   0.632   3.389   0.175
  730SOL     OW 2209   1.650   3.582   1.394
  730SOL    HW1 2210   1.703   3.592   1.310
  730SOL    HW2 2211   1.623   3.672   1.428
  731SOL     OW 2212   1.841   2.037   0.963
  731SOL    HW1 2213   1.880   1.952   0.927
  731SOL    HW2 2214   1.743   2.039   0.944
  732SOL     OW 2215   0.263   2.188   0.720
  732SOL    HW1 2216   0.184   2.239   0.686
  732SOL    HW2 2217   0.254   2.173   0.818
  733SOL     OW 2218   1.194   3.474   0.031
  733SOL    HW1 2219   1.200   3.381   0.068
  733SOL    HW2 2220   1.135   3.474  -0.049
  734SOL     OW 2221   0.822   2.864   1.372
  734SOL    HW1 2222   0.862   2.863   1.280
  734SOL    HW2 2223   0.832   2.956   1.412
  735SOL     OW 2224   0.916   2.772   0.291
  735SOL    HW1 2225   0.979   2.810   0.223
  735SOL    HW2 2226   0.956   2.689   0.330
  736SOL     OW 2227   1.504   3.469   0.044
  736SOL    HW1 2228   1.412   3.506   0.051
  736SOL    HW2 2229   1.542   3.489  -0.046
  737SOL     OW 2230   0.372   3.150   1.490
  737SOL    HW1 2231   0.359   3.243   1.456
  737SOL    HW2 2232   0.288   3.098   1.477
  738SOL     OW 2233   1.614   3.154   1.289
  738SOL    HW1 2234   1.674   3.157   1.369
  738SOL    HW2 2235   1.539   3.218   1.302
  739SOL     OW 2236   1.039   2.960   0.696
  739SOL    HW1 2237   0.969   2.913   0.750
  739SOL    HW2 2238   1.098   2.892   0.653
  740SOL     OW 2239   1.014   2.098   0.971
  740SOL    HW1 2240   1.006   2.062   0.878
  740SOL    HW2 2241   1.012   2.022   1.036
  741SOL     OW 2242   0.590   3.349   0.491
  741SOL    HW1 2243   0.632   3.291   0.421
  741SOL    HW2 2244   0.546   3.428   0.447
  742SOL     OW 2245   1.709   2.247   1.381
  742SOL    HW1 2246   1.782   2.316   1.385
  742SOL    HW2 2247   1.737   2.172   1.322
  743SOL     OW 2248   0.255   3.210   0.290
  743SOL    HW1 2249   0.159   3.211   0.263
  743SOL    HW2 2250   0.267   3.263   0.374
  744SOL     OW 2251   0.105   2.875   1.726
  744SOL    HW1 2252   0.028   2.842   1.780
  744SOL    HW2 2253   0.190   2.845   1.768
  745SOL     OW 2254   0.672   2.065   1.489
  745SOL    HW1 2255   0.762   2.049   1.449
  745SOL    HW2 2256   0.680   2.070   1.588
  746SOL     OW 2257   0.075   2.207   0.033
  746SOL    HW1 2258  -0.017   2.179   0.004
  746SOL    HW2 2259   0.106   2.284  -0.023
  747SOL     OW 2260   1.440   2.718   1.398
  747SOL    HW1 2261   1.383   2.770   1.335
  747SOL    HW2 2262   1.536   2.730   1.374
  748SOL     OW 2263   0.072   2.028   0.318
  748SOL    HW1 2264   0.055   2.111   0.264
  748SOL    HW2 2265   0.162   1.991   0.296
  749SOL     OW 2266   1.183   3.197   0.119
  749SOL    HW1 2267   1.084   3.186   0.121
  749SOL    HW2 2268   1.217   3.212   0.212
  750SOL     OW 2269   0.613   2.704   1.431
  750SOL    HW1 2270   0.669   2.785   1.414
  750SOL    HW2 2271   0.672   2.624   1.434
  751SOL     OW 2272   1.493   3.629   0.959
  751SOL    HW1 2273   1.526   3.693   0.890
  751SOL    HW2 2274   1.559   3.623   1.034
  752SOL     OW 2275   0.716   2.427   1.708
  752SOL    HW1 2276   0.735   2.492   1.782
  752SOL    HW2 2277   0.776   2.347   1.717
  753SOL     OW 2278   1.450   3.082   1.633
  753SOL    HW1 2279   1.441   3.072   1.732
  753SOL    HW2 2280   1.546   3.075   1.607
  754SOL     OW 2281   0.390   3.603   1.560
  754SOL    HW1 2282   0.299   3.644   1.558
  754SOL    HW2 2283   0.383   3.509   1.592
  755SOL     OW 2284   1.674   2.745   1.254
  755SOL    HW1 2285   1.647   2.656   1.217
  755SOL    HW2 2286   1.675   2.813   1.181
  756SOL     OW 2287   1.225   2.187   0.449
  756SOL    HW1 2288   1.290   2.113   0.438
  756SOL    HW2 2289   1.245   2.237   0.533
  757SOL     OW 2290   0.594   2.607   0.652
  757SOL    HW1 2291   0.644   2.692   0.633
  757SOL    HW2 2292   0.506   2.609   0.604
  758SOL     OW 2293   1.777   2.204   1.642
  758SOL    HW1 2294   1.760   2.235   1.548
  758SOL    HW2 2295   1.693   2.167   1.680
  759SOL     OW 2296   1.730   2.796   1.517
  759SOL    HW1 2297   1.768   2.887   1.532
  759SOL    HW2 2298   1.722   2.779   1.418
  760SOL     OW 2299   0.859   3.236   0.016
  760SOL    HW1 2300   0.813   3.251   0.104
  760SOL    HW2 2301   0.903   3.321  -0.014
  761SOL     OW 2302   0.661   3.652   0.953
  761SOL    HW1 2303   0.615   3.740   0.940
  761SOL    HW2 2304   0.760   3.664   0.946
  762SOL     OW 2305   0.859   2.818   0.861
  762SOL    HW1 2306   0.913   2.749   0.909
  762SOL    HW2 2307   0.827   2.887   0.927
  763SOL     OW 2308   1.083   2.846   0.087
  763SOL    HW1 2309   1.060   2.899   0.005
  763SOL    HW2 2310   1.164   2.790   0.068
  764SOL     OW 2311   1.861   3.431   0.851
  764SOL    HW1 2312   1.790   3.419   0.781
  764SOL    HW2 2313   1.862   3.352   0.911
  765SOL     OW 2314   0.221   3.176   1.844
  765SOL    HW1 2315   0.156   3.103   1.823
  765SOL    HW2 2316   0.225   3.190   1.942
  766SOL     OW 2317   0.079   3.102   0.653
  766SOL    HW1 2318   0.078   3.055   0.741
  766SOL    HW2 2319   0.161   3.074   0.602
  767SOL     OW 2320   0.672   3.253   1.624
  767SOL    HW1 2321   0.594   3.203   1.662
  767SOL    HW2 2322   0.669   3.348   1.655
  768SOL     OW 2323   1.824   2.054   1.227
  768SOL    HW1 2324   1.820   1.964   1.271
  768SOL    HW2 2325   1.827   2.043   1.128
  769SOL     OW 2326   0.428   2.286   0.520
  769SOL    HW1 2327   0.458   2.214   0.458
  769SOL    HW2 2328   0.389   2.246   0.603
  770SOL     OW 2329   1.705   3.349   1.104
  770SOL    HW1 2330   1.612   3.324   1.077
  770SOL    HW2 2331   1.731   3.299   1.186
  771SOL     OW 2332   0.317   2.409   1.280
  771SOL    HW1 2333   0.355   2.350   1.352
  771SOL    HW2 2334   0.357   2.383   1.192
  772SOL     OW 2335   0.812   3.448   0.687
  772SOL    HW1 2336   0.844   3.458   0.593
  772SOL    HW2 2337   0.733   3.386   0.689
  773SOL     OW 2338   1.424   2.076   1.112
  773SOL    HW1 2339   1.476   2.011   1.167
  773SOL    HW2 2340   1.375   2.139   1.173
  774SOL     OW 2341   1.001   1.896   1.154
  774SOL    HW1 2342   0.938   1.824   1.123
  774SOL    HW2 2343   1.094   1.860   1.154
  775SOL     OW 2344   0.770   3.192   0.301
  775SOL    HW1 2345   0.724   3.105   0.318
  775SOL    HW2 2346   0.861   3.189   0.342
  776SOL     OW 2347   0.618   3.429   1.284
  776SOL    HW1 2348   0.613   3.511   1.341
  776SOL    HW2 2349   0.707   3.426   1.239
  777SOL     OW 2350   1.352   1.914   0.168
  777SOL    HW1 2351   1.387   1.873   0.084
  777SOL    HW2 2352   1.262   1.876   0.188
  778SOL     OW 2353   1.300   2.315   0.691
  778SOL    HW1 2354   1.241   2.395   0.695
  778SOL    HW2 2355   1.315   2.280   0.784
  779SOL     OW 2356   1.593   2.083   0.882
  779SOL    HW1 2357   1.509   2.082   0.936
  779SOL    HW2 2358   1.595   2.166   0.826
  780SOL     OW 2359   0.039   2.939   0.300
  780SOL    HW1 2360   0.138   2.928   0.291
  780SOL    HW2 2361  -0.001   2.853   0.332
  781SOL     OW 2362   0.875   3.508   0.337
  781SOL    HW1 2363   0.798   3.473   0.283
  781SOL    HW2 2364   0.843   3.579   0.399
  782SOL     OW 2365   0.230   2.490   1.975
  782SOL    HW1 2366   0.137   2.488   2.012
  782SOL    HW2 2367   0.231   2.451   1.883
  783SOL     OW 2368   0.225   2.137   2.858
  783SOL    HW1 2369   0.260   2.120   2.950
  783SOL    HW2 2370   0.137   2.092   2.846
  784SOL     OW 2371   0.019   2.230   2.509
  784SOL    HW1 2372  -0.063   2.273   2.548
  784SOL    HW2 2373  -0.009   2.157   2.446
  785SOL     OW 2374   0.569   3.137   3.027
  785SOL    HW1 2375   0.476   3.130   2.990
  785SOL    HW2 2376   0.580   3.226   3.071
  786SOL     OW 2377   1.555   3.373   2.565
  786SOL    HW1 2378   1.498   3.357   2.646
  786SOL    HW2 2379   1.496   3.383   2.485
  787SOL     OW 2380   1.135   2.565   2.579
  787SOL    HW1 2381   1.192   2.643   2.554
  787SOL    HW2 2382   1.075   2.591   2.655
  788SOL     OW 2383   1.755   2.469   2.093
  788SOL    HW1 2384   1.743   2.456   1.994
  788SOL    HW2 2385   1.725   2.388   2.142
  789SOL     OW 2386   0.768   3.006   2.885
  789SOL    HW1 2387   0.690   3.023   2.945
  789SOL    HW2 2388   0.802   3.093   2.849
  790SOL     OW 2389   0.850   2.660   3.685
  790SOL    HW1 2390   0.846   2.736   3.750
  790SOL    HW2 2391   0.872   2.696   3.594
  791SOL     OW 2392   0.685   2.874   2.527
  791SOL    HW1 2393   0.754   2.858   2.597
  791SOL    HW2 2394   0.612   2.931   2.565
  792SOL     OW 2395   0.686   3.023   3.665
  792SOL    HW1 2396   0.746   3.102   3.679
  792SOL    HW2 2397   0.600   3.054   3.624
  793SOL     OW 2398   0.335   3.297   2.923
  793SOL    HW1 2399   0.257   3.266   2.870
  793SOL    HW2 2400   0.393   3.355   2.866
  794SOL     OW 2401   1.460   3.367   3.201
  794SOL    HW1 2402   1.484   3.461   3.227
  794SOL    HW2 2403   1.444   3.313   3.283
  795SOL     OW 2404   0.438   2.254   3.361
  795SOL    HW1 2405   0.520   2.198   3.370
  795SOL    HW2 2406   0.357   2.196   3.365
  796SOL     OW 2407   1.603   2.309   2.599
  796SOL    HW1 2408   1.529   2.355   2.549
  796SOL    HW2 2409   1.654   2.377   2.652
  797SOL     OW 2410   0.231   3.575   2.345
  797SOL    HW1 2411   0.265   3.652   2.399
  797SOL    HW2 2412   0.275   3.575   2.255
  798SOL     OW 2413   1.127   3.203   3.552
  798SOL    HW1 2414   1.174   3.203   3.640
  798SOL    HW2 2415   1.079   3.116   3.541
  799SOL     OW 2416   0.230   3.296   2.400
  799SOL    HW1 2417   0.204   3.392   2.400
  799SOL    HW2 2418   0.159   3.242   2.445
  800SOL     OW 2419   0.240   2.953   2.748
  800SOL    HW1 2420   0.254   2.869   2.800
  800SOL    HW2 2421   0.185   3.017   2.803
  801SOL     OW 2422   0.620   3.648   3.301
  801SOL    HW1 2423   0.528   3.631   3.336
  801SOL    HW2 2424   0.648   3.740   3.327
  802SOL     OW 2425   0.606   2.826   1.985
  802SOL    HW1 2426   0.613   2.910   1.931
  802SOL    HW2 2427   0.652   2.839   2.073
  803SOL     OW 2428   1.594   1.976   3.342
  803SOL    HW1 2429   1.576   2.043   3.270
  803SOL    HW2 2430   1.591   2.022   3.431
  804SOL     OW 2431   0.122   2.505   2.425
  804SOL    HW1 2432   0.077   2.417   2.442
  804SOL    HW2 2433   0.121   2.559   2.509
  805SOL     OW 2434   1.842   3.629   2.221
  805SOL    HW1 2435   1.896   3.600   2.301
  805SOL    HW2 2436   1.872   3.719   2.192
  806SOL     OW 2437   0.027   3.458   1.979
  806SOL    HW1 2438   0.008   3.362   2.000
  806SOL    HW2 2439  -0.006   3.516   2.054
  807SOL     OW 2440   1.689   2.784   2.474
  807SOL    HW1 2441   1.784   2.755   2.482
  807SOL    HW2 2442   1.681   2.849   2.399
  808SOL     OW 2443   1.641   2.970   2.294
  808SOL    HW1 2444   1.727   2.972   2.242
  808SOL    HW2 2445   1.655   3.017   2.382
  809SOL     OW 2446   0.113   2.599   3.459
  809SOL    HW1 2447   0.201   2.586   3.504
  809SOL    HW2 2448   0.100   2.696   3.437
  810SOL     OW 2449   0.613   3.227   2.588
  810SOL    HW1 2450   0.564   3.140   2.597
  810SOL    HW2 2451   0.590   3.270   2.501
  811SOL     OW 2452   1.293   3.090   3.285
  811SOL    HW1 2453   1.330   3.017   3.227
  811SOL    HW2 2454   1.345   3.095   3.370
  812SOL     OW 2455   0.809   1.866   2.364
  812SOL    HW1 2456   0.849   1.957   2.355
  812SOL    HW2 2457   0.709   1.874   2.370
  813SOL     OW 2458   0.197   2.838   3.126
  813SOL    HW1 2459   0.286   2.793   3.112
  813SOL    HW2 2460   0.124   2.773   3.107
  814SOL     OW 2461   1.525   2.861   2.052
  814SOL    HW1 2462   1.462   2.785   2.065
  814SOL    HW2 2463   1.573   2.879   2.138
  815SOL     OW 2464   1.187   3.654   3.478
  815SOL    HW1 2465   1.211   3.714   3.402
  815SOL    HW2 2466   1.194   3.559   3.448
  816SOL     OW 2467   0.317   2.113   3.663
  816SOL    HW1 2468   0.388   2.184   3.669
  816SOL    HW2 2469   0.229   2.152   3.691
  817SOL     OW 2470   1.466   3.279   2.815
  817SOL    HW1 2471   1.407   3.285   2.895
  817SOL    HW2 2472   1.451   3.191   2.769
  818SOL     OW 2473   1.667   3.576   2.434
  818SOL    HW1 2474   1.626   3.553   2.346
  818SOL    HW2 2475   1.649   3.502   2.499
  819SOL     OW 2476   0.598   2.591   2.132
  819SOL    HW1 2477   0.622   2.660   2.064
  819SOL    HW2 2478   0.520   2.624   2.186
  820SOL     OW 2479   1.281   2.207   2.806
  820SOL    HW1 2480   1.195   2.157   2.793
  820SOL    HW2 2481   1.343   2.153   2.862
  821SOL     OW 2482   1.576   3.524   2.169
  821SOL    HW1 2483   1.665   3.570   2.172
  821SOL    HW2 2484   1.555   3.500   2.074
  822SOL     OW 2485   0.807   2.467   3.327
  822SOL    HW1 2486   0.760   2.464   3.416
  822SOL    HW2 2487   0.756   2.412   3.261
  823SOL     OW 2488   1.394   2.331   3.536
  823SOL    HW1 2489   1.374   2.374   3.624
  823SOL    HW2 2490   1.472   2.269   3.545
  824SOL     OW 2491   0.973   2.752   3.434
  824SOL    HW1 2492   1.019   2.668   3.405
  824SOL    HW2 2493   0.917   2.786   3.359
  825SOL     OW 2494   0.991   2.272   3.104
  825SOL    HW1 2495   0.914   2.306   3.158
  825SOL    HW2 2496   0.957   2.221   3.025
  826SOL     OW 2497   1.041   2.563   2.291
  826SOL    HW1 2498   1.067   2.559   2.387
  826SOL    HW2 2499   0.956   2.512   2.277
  827SOL     OW 2500   0.076   2.673   2.651
  827SOL    HW1 2501   0.175   2.661   2.660
  827SOL    HW2 2502   0.052   2.768   2.672
  828SOL     OW 2503   0.130   3.683   3.433
  828SOL    HW1 2504   0.120   3.668   3.532
  828SOL    HW2 2505   0.044   3.719   3.397
  829SOL     OW 2506   0.865   2.210   2.057
  829SOL    HW1 2507   0.924   2.273   2.008
  829SOL    HW2 2508   0.884   2.116   2.028
  830SOL     OW 2509   1.719   2.447   3.693
  830SOL    HW1 2510   1.693   2.536   3.657
  830SOL    HW2 2511   1.717   2.379   3.620
  831SOL     OW 2512   1.362   3.006   2.407
  831SOL    HW1 2513   1.445   2.977   2.359
  831SOL    HW2 2514   1.313   3.073   2.351
  832SOL     OW 2515   0.550   2.058   2.747
  832SOL    HW1 2516   0.545   2.053   2.847
  832SOL    HW2 2517   0.552   2.154   2.718
  833SOL     OW 2518   1.008   3.318   2.339
  833SOL    HW1 2519   0.962   3.390   2.287
  833SOL    HW2 2520   1.004   3.338   2.437
  834SOL     OW 2521   0.351   3.663   2.715
  834SOL    HW1 2522   0.401   3.577   2.721
  834SOL    HW2 2523   0.416   3.740   2.712
  835SOL     OW 2524   1.795   2.928   2.735
  835SOL    HW1 2525   1.733   2.913   2.659
  835SOL    HW2 2526   1.743   2.939   2.820
  836SOL     OW 2527   1.227   3.412   3.368
  836SOL    HW1 2528   1.233   3.335   3.432
  836SOL    HW2 2529   1.175   3.386   3.288
  837SOL     OW 2530   0.321   2.805   2.104
  837SOL    HW1 2531   0.403   2.844   2.062
  837SOL    HW2 2532   0.294   2.723   2.055
  838SOL     OW 2533   1.458   2.597   2.590
  838SOL    HW1 2534   1.453   2.532   2.665
  838SOL    HW2 2535   1.538   2.656   2.603
  839SOL     OW 2536   0.461   3.128   3.589
  839SOL    HW1 2537   0.411   3.129   3.503
  839SOL    HW2 2538   0.398   3.110   3.665
  840SOL     OW 2539   1.111   3.638   2.099
  840SOL    HW1 2540   1.051   3.576   2.149
  840SOL    HW2 2541   1.142   3.594   2.014
  841SOL     OW 2542   0.202   2.147   3.360
  841SOL    HW1 2543   0.122   2.207   3.347
  841SOL    HW2 2544   0.192   2.098   3.446
  842SOL     OW 2545   1.632   3.239   1.943
  842SOL    HW1 2546   1.600   3.333   1.933
  842SOL    HW2 2547   1.556   3.176   1.931
  843SOL     OW 2548   0.464   3.605   2.185
  843SOL    HW1 2549   0.497   3.644   2.271
  843SOL    HW2 2550   0.540   3.598   2.120
  844SOL     OW 2551   1.400   1.969   2.288
  844SOL    HW1 2552   1.376   1.932   2.198
  844SOL    HW2 2553   1.499   1.985   2.292
  845SOL     OW 2554   0.249   3.647   3.103
  845SOL    HW1 2555   0.306   3.582   3.153
  845SOL    HW2 2556   0.233   3.614   3.010
  846SOL     OW 2557   0.940   3.560   2.766
  846SOL    HW1 2558   1.020   3.503   2.787
  846SOL    HW2 2559   0.891   3.520   2.689
  847SOL     OW 2560   0.382   2.562   2.342
  847SOL    HW1 2561   0.427   2.472   2.339
  847SOL    HW2 2562   0.288   2.551   2.375
  848SOL     OW 2563   1.547   2.084   3.591
  848SOL    HW1 2564   1.542   2.121   3.683
  848SOL    HW2 2565   1.475   2.015   3.579
  849SOL     OW 2566   0.614   1.984   1.979
  849SOL    HW1 2567   0.712   1.962   1.986
  849SOL    HW2 2568   0.583   1.967   1.886
  850SOL     OW 2569   0.781   2.126   3.611
  850SOL    HW1 2570   0.848   2.065   3.654
  850SOL    HW2 2571   0.708   2.145   3.676
  851SOL     OW 2572   0.888   3.376   3.057
  851SOL    HW1 2573   0.865   3.351   2.963
  851SOL    HW2 2574   0.949   3.307   3.096
  852SOL     OW 2575   1.351   2.452   3.295
  852SOL    HW1 2576   1.379   2.409   3.380
  852SOL    HW2 2577   1.376   2.548   3.296
  853SOL     OW 2578   0.803   3.264   2.786
  853SOL    HW1 2579   0.893   3.278   2.744
  853SOL    HW2 2580   0.732   3.266   2.715
  854SOL     OW 2581   0.922   2.365   2.761
  854SOL    HW1 2582   0.897   2.356   2.665
  854SOL    HW2 2583   0.970   2.283   2.792
  855SOL     OW 2584   0.539   1.926   2.374
  855SOL    HW1 2585   0.458   1.927   2.432
  855SOL    HW2 2586   0.542   2.009   2.319
  856SOL     OW 2587   1.434   3.050   1.903
  856SOL    HW1 2588   1.466   2.974   1.960
  856SOL    HW2 2589   1.342   3.077   1.933
  857SOL     OW 2590   0.297   1.897   2.033
  857SOL    HW1 2591   0.346   1.981   2.012
  857SOL    HW2 2592   0.359   1.832   2.078
  858SOL     OW 2593   0.935   2.098   2.342
  858SOL    HW1 2594   0.887   2.139   2.264
  858SOL    HW2 2595   1.034   2.096   2.323
  859SOL     OW 2596   1.076   2.545   3.326
  859SOL    HW1 2597   0.996   2.484   3.329
  859SOL    HW2 2598   1.157   2.492   3.302
  860SOL     OW 2599   1.227   3.432   2.655
  860SOL    HW1 2600   1.248   3.506   2.590
  860SOL    HW2 2601   1.295   3.432   2.728
  861SOL     OW 2602   0.459   3.014   2.603
  861SOL    HW1 2603   0.388   2.987   2.668
  861SOL    HW2 2604   0.433   2.986   2.510
  862SOL     OW 2605   1.271   3.659   2.453
  862SOL    HW1 2606   1.315   3.723   2.389
  862SOL    HW2 2607   1.221   3.711   2.523
  863SOL     OW 2608   1.032   2.411   1.878
  863SOL    HW1 2609   0.991   2.493   1.839
  863SOL    HW2 2610   1.096   2.437   1.951
  864SOL     OW 2611   0.078   2.418   3.248
  864SOL    HW1 2612   0.170   2.417   3.207
  864SOL    HW2 2613   0.072   2.492   3.315
  865SOL     OW 2614   0.561   2.084   3.009
  865SOL    HW1 2615   0.599   2.000   3.046
  865SOL    HW2 2616   0.473   2.103   3.053
  866SOL     OW 2617   0.866   2.316   2.504
  866SOL    HW1 2618   0.834   2.388   2.442
  866SOL    HW2 2619   0.890   2.235   2.451
  867SOL     OW 2620   1.017   1.901   2.615
  867SOL    HW1 2621   0.945   1.906   2.546
  867SOL    HW2 2622   0.993   1.832   2.684
  868SOL     OW 2623   1.429   3.035   2.729
  868SOL    HW1 2624   1.374   2.951   2.722
  868SOL    HW2 2625   1.455   3.064   2.637
  869SOL     OW 2626   1.466   2.452   2.854
  869SOL    HW1 2627   1.436   2.357   2.861
  869SOL    HW2 2628   1.539   2.468   2.920
  870SOL     OW 2629   1.857   2.695   2.239
  870SOL    HW1 2630   1.899   2.631   2.303
  870SOL    HW2 2631   1.819   2.644   2.161
  871SOL     OW 2632   0.488   3.247   2.036
  871SOL    HW1 2633   0.401   3.232   2.083
  871SOL    HW2 2634   0.471   3.273   1.941
  872SOL     OW 2635   1.664   3.142   2.519
  872SOL    HW1 2636   1.763   3.150   2.533
  872SOL    HW2 2637   1.619   3.226   2.550
  873SOL     OW 2638   1.390   2.437   1.940
  873SOL    HW1 2639   1.336   2.416   2.021
  873SOL    HW2 2640   1.481   2.396   1.949
  874SOL     OW 2641   0.527   2.118   2.190
  874SOL    HW1 2642   0.554   2.059   2.115
  874SOL    HW2 2643   0.527   2.213   2.159
  875SOL     OW 2644   1.754   3.085   3.450
  875SOL    HW1 2645   1.845   3.046   3.437
  875SOL    HW2 2646   1.762   3.181   3.474
  876SOL     OW 2647   1.064   3.209   3.202
  876SOL    HW1 2648   0.984   3.186   3.257
  876SOL    HW2 2649   1.147   3.183   3.251
  877SOL     OW 2650   1.592   3.491   3.487
  877SOL    HW1 2651   1.619   3.525   3.397
  877SOL    HW2 2652   1.671   3.453   3.533
  878SOL     OW 2653   1.111   3.057   2.962
  878SOL    HW1 2654   1.071   3.101   3.043
  878SOL    HW2 2655   1.070   3.094   2.879
  879SOL     OW 2656   1.638   2.961   2.941
  879SOL    HW1 2657   1.643   3.042   3.000
  879SOL    HW2 2658   1.552   2.963   2.890
  880SOL     OW 2659   0.915   1.951   3.264
  880SOL    HW1 2660   0.940   1.931   3.169
  880SOL    HW2 2661   0.987   2.007   3.306
  881SOL     OW 2662   0.980   2.978   3.581
  881SOL    HW1 2663   0.881   2.984   3.591
  881SOL    HW2 2664   1.003   2.898   3.525
  882SOL     OW 2665   0.705   2.912   2.230
  882SOL    HW1 2666   0.691   2.919   2.329
  882SOL    HW2 2667   0.789   2.861   2.212
  883SOL     OW 2668   0.410   2.675   3.113
  883SOL    HW1 2669   0.496   2.687   3.163
  883SOL    HW2 2670   0.368   2.588   3.140
  884SOL     OW 2671   1.274   2.248   3.124
  884SOL    HW1 2672   1.295   2.322   3.188
  884SOL    HW2 2673   1.185   2.265   3.081
  885SOL     OW 2674   0.064   3.426   3.193
  885SOL    HW1 2675   0.018   3.508   3.159
  885SOL    HW2 2676   0.162   3.445   3.202
  886SOL     OW 2677   0.367   2.962   2.363
  886SOL    HW1 2678   0.360   3.045   2.307
  886SOL    HW2 2679   0.371   2.882   2.303
  887SOL     OW 2680   0.566   2.399   2.727
  887SOL    HW1 2681   0.578   2.465   2.653
  887SOL    HW2 2682   0.612   2.433   2.810
  888SOL     OW 2683   1.252   3.210   2.250
  888SOL    HW1 2684   1.302   3.287   2.290
  888SOL    HW2 2685   1.157   3.212   2.282
  889SOL     OW 2686   1.272   3.307   3.004
  889SOL    HW1 2687   1.319   3.320   3.091
  889SOL    HW2 2688   1.206   3.233   3.013
  890SOL     OW 2689   1.582   2.501   2.334
  890SOL    HW1 2690   1.551   2.562   2.407
  890SOL    HW2 2691   1.632   2.553   2.265
  891SOL     OW 2692   0.354   3.372   3.191
  891SOL    HW1 2693   0.333   3.328   3.104
  891SOL    HW2 2694   0.451   3.398   3.194
  892SOL     OW 2695   0.402   2.613   3.460
  892SOL    HW1 2696   0.470   2.668   3.413
  892SOL    HW2 2697   0.442   2.525   3.487
  893SOL     OW 2698   1.587   2.641   3.532
  893SOL    HW1 2699   1.495   2.679   3.527
  893SOL    HW2 2700   1.647   2.688   3.467
  894SOL     OW 2701   1.013   1.967   3.632
  894SOL    HW1 2702   1.019   2.052   3.580
  894SOL    HW2 2703   1.045   1.891   3.575
  895SOL     OW 2704   0.504   1.912   3.602
  895SOL    HW1 2705   0.462   1.855   3.532
  895SOL    HW2 2706   0.438   1.981   3.634
  896SOL     OW 2707   0.573   2.732   2.891
  896SOL    HW1 2708   0.617   2.821   2.882
  896SOL    HW2 2709   0.510   2.732   2.968
  897SOL     OW 2710   1.360   2.724   2.907
  897SOL    HW1 2711   1.285   2.724   2.841
  897SOL    HW2 2712   1.397   2.632   2.916
  898SOL     OW 2713   1.209   2.387   2.137
  898SOL    HW1 2714   1.222   2.303   2.191
  898SOL    HW2 2715   1.180   2.461   2.197
  899SOL     OW 2716   0.307   2.075   3.093
  899SOL    HW1 2717   0.284   2.112   3.183
  899SOL    HW2 2718   0.277   1.980   3.087
  900SOL     OW 2719   0.037   3.172   3.144
  900SOL    HW1 2720   0.090   3.123   3.212
  900SOL    HW2 2721   0.059   3.270   3.149
  901SOL     OW 2722   0.732   2.496   2.926
  901SOL    HW1 2723   0.791   2.470   2.850
  901SOL    HW2 2724   0.704   2.592   2.915
  902SOL     OW 2725   1.728   2.797   3.716
  902SOL    HW1 2726   1.682   2.790   3.627
  902SOL    HW2 2727   1.666   2.841   3.782
  903SOL     OW 2728   0.307   1.925   2.480
  903SOL    HW1 2729   0.296   2.019   2.513
  903SOL    HW2 2730   0.302   1.862   2.557
  904SOL     OW 2731   1.622   2.229   2.236
  904SOL    HW1 2732   1.624   2.153   2.300
  904SOL    HW2 2733   1.574   2.306   2.276
  905SOL     OW 2734   1.023   2.628   2.828
  905SOL    HW1 2735   1.038   2.649   2.924
  905SOL    HW2 2736   0.993   2.533   2.819
  906SOL     OW 2737   0.980   3.435   3.562
  906SOL    HW1 2738   0.960   3.479   3.474
  906SOL    HW2 2739   1.019   3.344   3.546
  907SOL     OW 2740   1.859   3.380   3.467
  907SOL    HW1 2741   1.873   3.407   3.372
  907SOL    HW2 2742   1.942   3.402   3.520
  908SOL     OW 2743   0.350   2.760   3.666
  908SOL    HW1 2744   0.426   2.804   3.714
  908SOL    HW2 2745   0.385   2.713   3.584
  909SOL     OW 2746   1.540   2.136   1.987
  909SOL    HW1 2747   1.479   2.061   2.010
  909SOL    HW2 2748   1.562   2.188   2.070
  910SOL     OW 2749   1.303   2.700   1.904
  910SOL    HW1 2750   1.337   2.607   1.919
  910SOL    HW2 2751   1.321   2.727   1.809
  911SOL     OW 2752   1.068   3.195   2.711
  911SOL    HW1 2753   1.075   3.111   2.656
  911SOL    HW2 2754   1.130   3.264   2.675
  912SOL     OW 2755   0.319   2.672   2.811
  912SOL    HW1 2756   0.412   2.708   2.816
  912SOL    HW2 2757   0.313   2.587   2.863
  913SOL     OW 2758   0.339   2.371   2.868
  913SOL    HW1 2759   0.287   2.288   2.851
  913SOL    HW2 2760   0.416   2.376   2.804
  914SOL     OW 2761   1.138   2.242   3.540
  914SOL    HW1 2762   1.093   2.305   3.604
  914SOL    HW2 2763   1.231   2.273   3.523
  915SOL     OW 2764   1.160   2.069   3.339
  915SOL    HW1 2765   1.160   2.133   3.416
  915SOL    HW2 2766   1.188   2.117   3.256
  916SOL     OW 2767   0.008   3.188   2.062
  916SOL    HW1 2768  -0.085   3.209   2.031
  916SOL    HW2 2769   0.018   3.089   2.075
  917SOL     OW 2770   0.088   3.663   2.789
  917SOL    HW1 2771   0.046   3.577   2.762
  917SOL    HW2 2772   0.182   3.666   2.755
  918SOL     OW 2773   0.504   3.430   2.772
  918SOL    HW1 2774   0.570   3.504   2.781
  918SOL    HW2 2775   0.548   3.351   2.730
  919SOL     OW 2776   1.002   2.658   3.100
  919SOL    HW1 2777   1.043   2.626   3.186
  919SOL    HW2 2778   0.906   2.631   3.097
  920SOL     OW 2779   0.040   2.406   2.976
  920SOL    HW1 2780   0.125   2.373   2.935
  920SOL    HW2 2781   0.053   2.421   3.074
  921SOL     OW 2782   0.189   2.382   3.584
  921SOL    HW1 2783   0.248   2.342   3.514
  921SOL    HW2 2784   0.131   2.453   3.543
  922SOL     OW 2785   1.369   2.812   3.522
  922SOL    HW1 2786   1.408   2.901   3.542
  922SOL    HW2 2787   1.379   2.792   3.425
  923SOL     OW 2788   0.815   2.434   2.187
  923SOL    HW1 2789   0.822   2.345   2.141
  923SOL    HW2 2790   0.721   2.468   2.179
  924SOL     OW 2791   1.657   2.466   3.068
  924SOL    HW1 2792   1.619   2.397   3.130
  924SOL    HW2 2793   1.739   2.430   3.024
  925SOL     OW 2794   0.252   3.426   3.606
  925SOL    HW1 2795   0.222   3.483   3.682
  925SOL    HW2 2796   0.245   3.329   3.632
  926SOL     OW 2797   0.671   2.326   3.131
  926SOL    HW1 2798   0.637   2.237   3.101
  926SOL    HW2 2799   0.697   2.380   3.051
  927SOL     OW 2800   0.930   3.540   3.327
  927SOL    HW1 2801   0.906   3.522   3.232
  927SOL    HW2 2802   0.960   3.634   3.337
  928SOL     OW 2803   0.473   2.362   2.053
  928SOL    HW1 2804   0.534   2.442   2.057
  928SOL    HW2 2805   0.378   2.393   2.060
  929SOL     OW 2806   0.159   2.999   3.328
  929SOL    HW1 2807   0.181   2.938   3.404
  929SOL    HW2 2808   0.169   2.950   3.242
  930SOL     OW 2809   1.347   2.921   3.096
  930SOL    HW1 2810   1.371   2.858   3.022
  930SOL    HW2 2811   1.257   2.961   3.078
  931SOL     OW 2812   1.302   2.717   2.171
  931SOL    HW1 2813   1.216   2.686   2.213
  931SOL    HW2 2814   1.298   2.703   2.072
  932SOL     OW 2815   1.759   3.609   3.016
  932SOL    HW1 2816   1.820   3.639   2.943
  932SOL    HW2 2817   1.721   3.520   2.994
  933SOL     OW 2818   1.252   3.593   2.990
  933SOL    HW1 2819   1.336   3.598   2.936
  933SOL    HW2 2820   1.229   3.497   3.008
  934SOL     OW 2821   0.083   3.120   2.884
  934SOL    HW1 2822   0.078   3.119   2.984
  934SOL    HW2 2823   0.000   3.079   2.846
  935SOL     OW 2824   0.688   3.524   3.578
  935SOL    HW1 2825   0.632   3.605   3.587
  935SOL    HW2 2826   0.740   3.528   3.492
  936SOL     OW 2827   1.726   1.997   2.385
  936SOL    HW1 2828   1.799   1.980   2.318
  936SOL    HW2 2829   1.695   1.910   2.423
  937SOL     OW 2830   1.388   3.435   2.339
  937SOL    HW1 2831   1.455   3.447   2.265
  937SOL    HW2 2832   1.348   3.524   2.362
  938SOL     OW 2833   0.130   3.656   3.713
  938SOL    HW1 2834   0.089   3.582   3.766
  938SOL    HW2 2835   0.194   3.707   3.771
  939SOL     OW 2836   1.280   2.789   2.534
  939SOL    HW1 2837   1.340   2.708   2.536
  939SOL    HW2 2838   1.320   2.858   2.474
  940SOL     OW 2839   0.830   3.135   3.284
  940SOL    HW1 2840   0.825   3.168   3.379
  940SOL    HW2 2841   0.744   3.154   3.238
  941SOL     OW 2842   0.672   3.478   2.016
  941SOL    HW1 2843   0.681   3.488   1.917
  941SOL    HW2 2844   0.632   3.389   2.037
  942SOL     OW 2845   1.650   3.582   3.256
  942SOL    HW1 2846   1.703   3.592   3.172
  942SOL    HW2 2847   1.623   3.672   3.290
  943SOL     OW 2848   1.841   2.037   2.825
  943SOL    HW1 2849   1.880   1.952   2.789
  943SOL    HW2 2850   1.743   2.039   2.806
  944SOL     OW 2851   0.263   2.188   2.582
  944SOL    HW1 2852   0.184   2.239   2.548
  944SOL    HW2 2853   0.254   2.173   2.680
  945SOL     OW 2854   1.194   3.474   1.893
  945SOL    HW1 2855   1.200   3.381   1.930
  945SOL    HW2 2856   1.135   3.474   1.813
  946SOL     OW 2857   0.822   2.864   3.234
  946SOL    HW1 2858   0.862   2.863   3.142
  946SOL    HW2 2859   0.832   2.956   3.274
  947SOL     OW 2860   0.916   2.772   2.153
  947SOL    HW1 2861   0.979   2.810   2.085
  947SOL    HW2 2862   0.956   2.689   2.192
  948SOL     OW 2863   1.504   3.469   1.906
  948SOL    HW1 2864   1.412   3.506   1.913
  948SOL    HW2 2865   1.542   3.489   1.816
  949SOL     OW 2866   0.372   3.150   3.352
  949SOL    HW1 2867   0.359   3.243   3.318
  949SOL    HW2 2868   0.288   3.098   3.339
  950SOL     OW 2869   1.614   3.154   3.151
  950SOL    HW1 2870   1.674   3.157   3.231
  950SOL    HW2 2871   1.539   3.218   3.164
  951SOL     OW 2872   1.039   2.960   2.558
  951SOL    HW1 2873   0.969   2.913   2.612
  951SOL    HW2 2874   1.098   2.892   2.515
  952SOL     OW 2875   1.014   2.098   2.833
  952SOL    HW1 2876   1.006   2.062   2.740
  952SOL    HW2 2877   1.012   2.022   2.898
  953SOL     OW 2878   0.590   3.349   2.353
  953SOL    HW1 2879   0.632   3.291   2.283
  953SOL    HW2 2880   0.546   3.428   2.309
  954SOL     OW 2881   1.709   2.247   3.243
  954SOL    HW1 2882   1.782   2.316   3.247
  954SOL    HW2 2883   1.737   2.172   3.184
  955SOL     OW 2884   0.255   3.210   2.152
  955SOL    HW1 2885   0.159   3.211   2.125
  955SOL    HW2 2886   0.267   3.263   2.236
  956SOL     OW 2887   0.105   2.875   3.588
  956SOL    HW1 2888   0.028   2.842   3.642
  956SOL    HW2 2889   0.190   2.845   3.630
  957SOL     OW 2890   0.672   2.065   3.351
  957SOL    HW1 2891   0.762   2.049   3.311
  957SOL    HW2 2892   0.680   2.070   3.450
  958SOL     OW 2893   0.075   2.207   1.895
  958SOL    HW1 2894  -0.017   2.179   1.866
  958SOL    HW2 2895   0.106   2.284   1.839
  959SOL     OW 2896   1.440   2.718   3.260
  959SOL    HW1 2897   1.383   2.770   3.197
  959SOL    HW2 2898   1.536   2.730   3.236
  960SOL     OW 2899   0.072   2.028   2.180
  960SOL    HW1 2900   0.055   2.111   2.126
  960SOL    HW2 2901   0.162   1.991   2.158
  961SOL     OW 2902   1.183   3.197   1.981
  961SOL    HW1 2903   1.084   3.186   1.983
  961SOL    HW2 2904   1.217   3.212   2.074
  962SOL     OW 2905   0.613   2.704   3.293
  962SOL    HW1 2906   0.669   2.785   3.276
  962SOL    HW2 2907   0.672   2.624   3.296
  963SOL     OW 2908   1.493   3.629   2.821
  963SOL    HW1 2909   1.526   3.693   2.752
  963SOL    HW2 2910   1.559   3.623   2.896
  964SOL     OW 2911   0.716   2.427   3.570
  964SOL    HW1 2912   0.735   2.492   3.644
  964SOL    HW2 2913   0.776   2.347   3.579
  965SOL     OW 2914   1.450   3.082   3.495
  965SOL    HW1 2915   1.441   3.072   3.594
  965SOL    HW2 2916   1.546   3.075   3.469
  966SOL     OW 2917   0.390   3.603   3.422
  966SOL    HW1 2918   0.299   3.644   3.420
  966SOL    HW2 2919   0.383   3.509   3.454
  967SOL     OW 2920   1.674   2.745   3.116
  967SOL    HW1 2921   1.647   2.656   3.079
  967SOL    HW2 2922   1.675   2.813   3.043
  968SOL     OW 2923   1.225   2.187   2.311
  968SOL    HW1 2924   1.290   2.113   2.300
  968SOL    HW2 2925   1.245   2.237   2.395
  969SOL     OW 2926   0.594   2.607   2.514
  969SOL    HW1 2927   0.644   2.692   2.495
  969SOL    HW2 2928   0.506   2.609   2.466
  970SOL     OW 2929   1.777   2.204   3.504
  970SOL    HW1 2930   1.760   2.235   3.410
  970SOL    HW2 2931   1.693   2.167   3.542
  971SOL     OW 2932   1.730   2.796   3.379
  971SOL    HW1 2933   1.768   2.887   3.394
  971SOL    HW2 2934   1.722   2.779   3.280
  972SOL     OW 2935   0.859   3.236   1.878
  972SOL    HW1 2936   0.813   3.251   1.966
  972SOL    HW2 2937   0.903   3.321   1.848
  973SOL     OW 2938   0.661   3.652   2.815
  973SOL    HW1 2939   0.615   3.740   2.802
  973SOL    HW2 2940   0.760   3.664   2.808
  974SOL     OW 2941   0.859   2.818   2.723
  974SOL    HW1 2942   0.913   2.749   2.771
  974SOL    HW2 2943   0.827   2.887   2.789
  975SOL     OW 2944   1.083   2.846   1.949
  975SOL    HW1 2945   1.060   2.899   1.867
  975SOL    HW2 2946   1.164   2.790   1.930
  976SOL     OW 2947   1.861   3.431   2.713
  976SOL    HW1 2948   1.790   3.419   2.643
  976SOL    HW2 2949   1.862   3.352   2.773
  977SOL     OW 2950   0.221   3.176   3.706
  977SOL    HW1 2951   0.156   3.103   3.685
  977SOL    HW2 2952   0.225   3.190   3.804
  978SOL     OW 2953   0.079   3.102   2.515
  978SOL    HW1 2954   0.078   3.055   2.603
  978SOL    HW2 2955   0.161   3.074   2.464
  979SOL     OW 2956   0.672   3.253   3.486
  979SOL    HW1 2957   0.594   3.203   3.524
  979SOL    HW2 2958   0.669   3.348   3.517
  980SOL     OW 2959   1.824   2.054   3.089
  980SOL    HW1 2960   1.820   1.964   3.133
  980SOL    HW2 2961   1.827   2.043   2.990
  981SOL     OW 2962   0.428   2.286   2.382
  981SOL    HW1 2963   0.458   2.214   2.320
  981SOL    HW2 2964   0.389   2.246   2.465
  982SOL     OW 2965   1.705   3.349   2.966
  982SOL    HW1 2966   1.612   3.324   2.939
  982SOL    HW2 2967   1.731   3.299   3.048
  983SOL     OW 2968   0.317   2.409   3.142
  983SOL    HW1 2969   0.355   2.350   3.214
  983SOL    HW2 2970   0.357   2.383   3.054
  984SOL     OW 2971   0.812   3.448   2.549
  984SOL    HW1 2972   0.844   3.458   2.455
  984SOL    HW2 2973   0.733   3.386   2.551
  985SOL     OW 2974   1.424   2.076   2.974
  985SOL    HW1 2975   1.476   2.011   3.029
  985SOL    HW2 2976   1.375   2.139   3.035
  986SOL     OW 2977   1.001   1.896   3.016
  986SOL    HW1 2978   0.938   1.824   2.985
  986SOL    HW2 2979   1.094   1.860   3.016
  987SOL     OW 2980   0.770   3.192   2.163
  987SOL    HW1 2981   0.724   3.105   2.180
  987SOL    HW2 2982   0.861   3.189   2.204
  988SOL     OW 2983   0.618   3.429   3.146
  988SOL    HW1 2984   0.613   3.511   3.203
  988SOL    HW2 2985   0.707   3.426   3.101
  989SOL     OW 2986   1.352   1.914   2.030
  989SOL    HW1 2987   1.387   1.873   1.946
  989SOL    HW2 2988   1.262   1.876   2.050
  990SOL     OW 2989   1.300   2.315   2.553
  990SOL    HW1 2990   1.241   2.395   2.557
  990SOL    HW2 2991   1.315   2.280   2.646
  991SOL     OW 2992   1.593   2.083   2.744
  991SOL    HW1 2993   1.509   2.082   2.798
  991SOL    HW2 2994   1.595   2.166   2.688
  992SOL     OW 2995   0.039   2.939   2.162
  992SOL    HW1 2996   0.138   2.928   2.153
  992SOL    HW2 2997  -0.001   2.853   2.194
  993SOL     OW 2998   0.875   3.508   2.199
  993SOL    HW1 2999   0.798   3.473   2.145
  993SOL    HW2 3000   0.843   3.579   2.261
  994SOL     OW 3001   0.230   2.490   3.837
  994SOL    HW1 3002   0.137   2.488   3.874
  994SOL    HW2 3003   0.231   2.451   3.745
  995SOL     OW 3004   0.225   2.137   4.720
  995SOL    HW1 3005   0.260   2.120   4.812
  995SOL    HW2 3006   0.137   2.092   4.708
  996SOL     OW 3007   0.019   2.230   4.371
  996SOL    HW1 3008  -0.063   2.273   4.410
  996SOL    HW2 3009  -0.009   2.157   4.308
  997SOL     OW 3010   0.569   3.137   4.889
  997SOL    HW1 3011   0.476   3.130   4.852
  997SOL    HW2 3012   0.580   3.226   4.933
  998SOL     OW 3013   1.555   3.373   4.427
  998SOL    HW1 3014   1.498   3.357   4.508
  998SOL    HW2 3015   1.496   3.383   4.347
  999SOL     OW 3016   1.135   2.565   4.441
  999SOL    HW1 3017   1.192   2.643   4.416
  999SOL    HW2 3018   1.075   2.591   4.517
 1000SOL     OW 3019   1.755   2.469   3.955
 1000SOL    HW1 3020   1.743   2.456   3.856
 1000SOL    HW2 3021   1.725   2.388   4.004
 1001SOL     OW 3022   0.768   3.006   4.747
 1001SOL    HW1 3023   0.690   3.023   4.807
 1001SOL    HW2 3024   0.802   3.093   4.711
 1002SOL     OW 3025   0.685   2.874   4.389
 1002SOL    HW1 3026   0.754   2.858   4.459
 1002SOL    HW2 3027   0.612   2.931   4.427
 1003SOL     OW 3028   0.335   3.297   4.785
 1003SOL    HW1 3029   0.257   3.266   4.732
 1003SOL    HW2 3030   0.393   3.355   4.728
 1004SOL     OW 3031   1.603   2.309   4.461
 1004SOL    HW1 3032   1.529   2.355   4.411
 1004SOL    HW2 3033   1.654   2.377   4.514
 1005SOL     OW 3034   0.231   3.575   4.207
 1005SOL    HW1 3035   0.265   3.652   4.261
 1005SOL    HW2 3036   0.275   3.575   4.117
 1006SOL     OW 3037   0.230   3.296   4.262
 1006SOL    HW1 3038   0.204   3.392   4.262
 1006SOL    HW2 3039   0.159   3.242   4.307
 1007SOL     OW 3040   0.240   2.953   4.610
 1007SOL    HW1 3041   0.254   2.869   4.662
 1007SOL    HW2 3042   0.185   3.017   4.665
 1008SOL     OW 3043   0.606   2.826   3.847
 1008SOL    HW1 3044   0.613   2.910   3.793
 1008SOL    HW2 3045   0.652   2.839   3.935
 1009SOL     OW 3046   0.122   2.505   4.287
 1009SOL    HW1 3047   0.077   2.417   4.304
 1009SOL    HW2 3048   0.121   2.559   4.371
 1010SOL     OW 3049   1.842   3.629   4.083
 1010SOL    HW1 3050   1.896   3.600   4.163
 1010SOL    HW2 3051   1.872   3.719   4.054
 1011SOL     OW 3052   0.027   3.458   3.841
 1011SOL    HW1 3053   0.008   3.362   3.862
 1011SOL    HW2 3054  -0.006   3.516   3.916
 1012SOL     OW 3055   1.689   2.784   4.336
 1012SOL    HW1 3056   1.784   2.755   4.344
 1012SOL    HW2 3057   1.681   2.849   4.261
 1013SOL     OW 3058   1.641   2.970   4.156
 1013SOL    HW1 3059   1.727   2.972   4.104
 1013SOL    HW2 3060   1.655   3.017   4.244
 1014SOL     OW 3061   0.613   3.227   4.450
 1014SOL    HW1 3062   0.564   3.140   4.459
 1014SOL    HW2 3063   0.590   3.270   4.363
 1015SOL     OW 3064   0.809   1.866   4.226
 1015SOL    HW1 3065   0.849   1.957   4.217
 1015SOL    HW2 3066   0.709   1.874   4.232
 1016SOL     OW 3067   0.197   2.838   4.988
 1016SOL    HW1 3068   0.286   2.793   4.974
 1016SOL    HW2 3069   0.124   2.773   4.969
 1017SOL     OW 3070   1.525   2.861   3.914
 1017SOL    HW1 3071   1.462   2.785   3.927
 1017SOL    HW2 3072   1.573   2.879   4.000
 1018SOL     OW 3073   1.466   3.279   4.677
 1018SOL    HW1 3074   1.407   3.285   4.757
 1018SOL    HW2 3075   1.451   3.191   4.631
 1019SOL     OW 3076   1.667   3.576   4.296
 1019SOL    HW1 3077   1.626   3.553   4.208
 1019SOL    HW2 3078   1.649   3.502   4.361
 1020SOL     OW 3079   0.598   2.591   3.994
 1020SOL    HW1 3080   0.622   2.660   3.926
 1020SOL    HW2 3081   0.520   2.624   4.048
 1021SOL     OW 3082   1.281   2.207   4.668
 1021SOL    HW1 3083   1.195   2.157   4.655
 1021SOL    HW2 3084   1.343   2.153   4.724
 1022SOL     OW 3085   1.576   3.524   4.031
 1022SOL    HW1 3086   1.665   3.570   4.034
 1022SOL    HW2 3087   1.555   3.500   3.936
 1023SOL     OW 3088   1.041   2.563   4.153
 1023SOL    HW1 3089   1.067   2.559   4.249
 1023SOL    HW2 3090   0.956   2.512   4.139
 1024SOL     OW 3091   0.076   2.673   4.513
 1024SOL    HW1 3092   0.175   2.661   4.522
 1024SOL    HW2 3093   0.052   2.768   4.534
 1025SOL     OW 3094   0.865   2.210   3.919
 1025SOL    HW1 3095   0.924   2.273   3.870
 1025SOL    HW2 3096   0.884   2.116   3.890
 1026SOL     OW 3097   1.362   3.006   4.269
 1026SOL    HW1 3098   1.445   2.977   4.221
 1026SOL    HW2 3099   1.313   3.073   4.213
 1027SOL     OW 3100   0.550   2.058   4.609
 1027SOL    HW1 3101   0.545   2.053   4.709
 1027SOL    HW2 3102   0.552   2.154   4.580
 1028SOL     OW 3103   1.008   3.318   4.201
 1028SOL    HW1 3104   0.962   3.390   4.149
 1028SOL    HW2 3105   1.004   3.338   4.299
 1029SOL     OW 3106   0.351   3.663   4.577
 1029SOL    HW1 3107   0.401   3.577   4.583
 1029SOL    HW2 3108   0.416   3.740   4.574
 1030SOL     OW 3109   1.795   2.928   4.597
 1030SOL    HW1 3110   1.733   2.913   4.521
 1030SOL    HW2 3111   1.743   2.939   4.682
 1031SOL     OW 3112   0.321   2.805   3.966
 1031SOL    HW1 3113   0.403   2.844   3.924
 1031SOL    HW2 3114   0.294   2.723   3.917
 1032SOL     OW 3115   1.458   2.597   4.452
 1032SOL    HW1 3116   1.453   2.532   4.527
 1032SOL    HW2 3117   1.538   2.656   4.465
 1033SOL     OW 3118   1.111   3.638   3.961
 1033SOL    HW1 3119   1.051   3.576   4.011
 1033SOL    HW2 3120   1.142   3.594   3.876
 1034SOL     OW 3121   1.632   3.239   3.805
 1034SOL    HW1 3122   1.600   3.333   3.795
 1034SOL    HW2 3123   1.556   3.176   3.793
 1035SOL     OW 3124   0.464   3.605   4.047
 1035SOL    HW1 3125   0.497   3.644   4.133
 1035SOL    HW2 3126   0.540   3.598   3.982
 1036SOL     OW 3127   1.400   1.969   4.150
 1036SOL    HW1 3128   1.376   1.932   4.060
 1036SOL    HW2 3129   1.499   1.985   4.154
 1037SOL     OW 3130   0.249   3.647   4.965
 1037SOL    HW1 3131   0.306   3.582   5.015
 1037SOL    HW2 3132   0.233   3.614   4.872
 1038SOL     OW 3133   0.940   3.560   4.628
 1038SOL    HW1 3134   1.020   3.503   4.649
 1038SOL    HW2 3135   0.891   3.520   4.551
 1039SOL     OW 3136   0.382   2.562   4.204
 1039SOL    HW1 3137   0.427   2.472   4.201
 1039SOL    HW2 3138   0.288   2.551   4.237
 1040SOL     OW 3139   0.614   1.984   3.841
 1040SOL    HW1 3140   0.712   1.962   3.848
 1040SOL    HW2 3141   0.583   1.967   3.748
 1041SOL     OW 3142   0.803   3.264   4.648
 1041SOL    HW1 3143   0.893   3.278   4.606
 1041SOL    HW2 3144   0.732   3.266   4.577
 1042SOL     OW 3145   0.922   2.365   4.623
 1042SOL    HW1 3146   0.897   2.356   4.527
 1042SOL    HW2 3147   0.970   2.283   4.654
 1043SOL     OW 3148   0.539   1.926   4.236
 1043SOL    HW1 3149   0.458   1.927   4.294
 1043SOL    HW2 3150   0.542   2.009   4.181
 1044SOL     OW 3151   1.434   3.050   3.765
 1044SOL    HW1 3152   1.466   2.974   3.822
 1044SOL    HW2 3153   1.342   3.077   3.795
 1045SOL     OW 3154   0.297   1.897   3.895
 1045SOL    HW1 3155   0.346   1.981   3.874
 1045SOL    HW2 3156   0.359   1.832   3.940
 1046SOL     OW 3157   0.935   2.098   4.204
 1046SOL    HW1 3158   0.887   2.139   4.126
 1046SOL    HW2 3159   1.034   2.096   4.185
 1047SOL     OW 3160   1.227   3.432   4.517
 1047SOL    HW1 3161   1.248   3.506   4.452
 1047SOL    HW2 3162   1.295   3.432   4.590
 1048SOL     OW 3163   0.459   3.014   4.465
 1048SOL    HW1 3164   0.388   2.987   4.530
 1048SOL    HW2 3165   0.433   2.986   4.372
 1049SOL     OW 3166   1.271   3.659   4.315
 1049SOL    HW1 3167   1.315   3.723   4.251
 1049SOL    HW2 3168   1.221   3.711   4.385
 1050SOL     OW 3169   1.032   2.411   3.740
 1050SOL    HW1 3170   0.991   2.493   3.701
 1050SOL    HW2 3171   1.096   2.437   3.813
 1051SOL     OW 3172   0.866   2.316   4.366
 1051SOL    HW1 3173   0.834   2.388   4.304
 1051SOL    HW2 3174   0.890   2.235   4.313
 1052SOL     OW 3175   1.017   1.901   4.477
 1052SOL    HW1 3176   0.945   1.906   4.408
 1052SOL    HW2 3177   0.993   1.832   4.546
 1053SOL     OW 3178   1.429   3.035   4.591
 1053SOL    HW1 3179   1.374   2.951   4.584
 1053SOL    HW2 3180   1.455   3.064   4.499
 1054SOL     OW 3181   1.466   2.452   4.716
 1054SOL    HW1 3182   1.436   2.357   4.723
 1054SOL    HW2 3183   1.539   2.468   4.782
 1055SOL     OW 3184   1.857   2.695   4.101
 1055SOL    HW1 3185   1.899   2.631   4.165
 1055SOL    HW2 3186   1.819   2.644   4.023
 1056SOL     OW 3187   0.488   3.247   3.898
 1056SOL    HW1 3188   0.401   3.232   3.945
 1056SOL    HW2 3189   0.471   3.273   3.803
 1057SOL     OW 3190   1.664   3.142   4.381
 1057SOL    HW1 3191   1.763   3.150   4.395
 1057SOL    HW2 3192   1.619   3.226   4.412
 1058SOL     OW 3193   1.390   2.437   3.802
 1058SOL    HW1 3194   1.336   2.416   3.883
 1058SOL    HW2 3195   1.481   2.396   3.811
 1059SOL     OW 3196   0.527   2.118   4.052
 1059SOL    HW1 3197   0.554   2.059   3.977
 1059SOL    HW2 3198   0.527   2.213   4.021
 1060SOL     OW 3199   1.111   3.057   4.824
 1060SOL    HW1 3200   1.071   3.101   4.905
 1060SOL    HW2 3201   1.070   3.094   4.741
 1061SOL     OW 3202   1.638   2.961   4.803
 1061SOL    HW1 3203   1.643   3.042   4.862
 1061SOL    HW2 3204   1.552   2.963   4.752
 1062SOL     OW 3205   0.705   2.912   4.092
 1062SOL    HW1 3206   0.691   2.919   4.191
 1062SOL    HW2 3207   0.789   2.861   4.074
 1063SOL     OW 3208   0.410   2.675   4.975
 1063SOL    HW1 3209   0.496   2.687   5.025
 1063SOL    HW2 3210   0.368   2.588   5.002
 1064SOL     OW 3211   0.367   2.962   4.225
 1064SOL    HW1 3212   0.360   3.045   4.169
 1064SOL    HW2 3213   0.371   2.882   4.165
 1065SOL     OW 3214   0.566   2.399   4.589
 1065SOL    HW1 3215   0.578   2.465   4.515
 1065SOL    HW2 3216   0.612   2.433   4.672
 1066SOL     OW 3217   1.252   3.210   4.112
 1066SOL    HW1 3218   1.302   3.287   4.152
 1066SOL    HW2 3219   1.157   3.212   4.144
 1067SOL     OW 3220   1.272   3.307   4.866
 1067SOL    HW1 3221   1.319   3.320   4.953
 1067SOL    HW2 3222   1.206   3.233   4.875
 1068SOL     OW 3223   1.582   2.501   4.196
 1068SOL    HW1 3224   1.551   2.562   4.269
 1068SOL    HW2 3225   1.632   2.553   4.127
 1069SOL     OW 3226   0.573   2.732   4.753
 1069SOL    HW1 3227   0.617   2.821   4.744
 1069SOL    HW2 3228   0.510   2.732   4.830
 1070SOL     OW 3229   1.360   2.724   4.769
 1070SOL    HW1 3230   1.285   2.724   4.703
 1070SOL    HW2 3231   1.397   2.632   4.778
 1071SOL     OW 3232   1.209   2.387   3.999
 1071SOL    HW1 3233   1.222   2.303   4.053
 1071SOL    HW2 3234   1.180   2.461   4.059
 1072SOL     OW 3235   0.307   2.075   4.955
 1072SOL    HW1 3236   0.284   2.112   5.045
 1072SOL    HW2 3237   0.277   1.980   4.949
 1073SOL     OW 3238   0.732   2.496   4.788
 1073SOL    HW1 3239   0.791   2.470   4.712
 1073SOL    HW2 3240   0.704   2.592   4.777
 1074SOL     OW 3241   0.307   1.925   4.342
 1074SOL    HW1 3242   0.296   2.019   4.375
 1074SOL    HW2 3243   0.302   1.862   4.419
 1075SOL     OW 3244   1.622   2.229   4.098
 1075SOL    HW1 3245   1.624   2.153   4.162
 1075SOL    HW2 3246   1.574   2.306   4.138
 1076SOL     OW 3247   1.023   2.628   4.690
 1076SOL    HW1 3248   1.038   2.649   4.786
 1076SOL    HW2 3249   0.993   2.533   4.681
 1077SOL     OW 3250   1.540   2.136   3.849
 1077SOL    HW1 3251   1.479   2.061   3.872
 1077SOL    HW2 3252   1.562   2.188   3.932
 1078SOL     OW 3253   1.303   2.700   3.766
 1078SOL    HW1 3254   1.337   2.607   3.781
 1078SOL    HW2 3255   1.321   2.727   3.671
 1079SOL     OW 3256   1.068   3.195   4.573
 1079SOL    HW1 3257   1.075   3.111   4.518
 1079SOL    HW2 3258   1.130   3.264   4.537
 1080SOL     OW 3259   0.319   2.672   4.673
 1080SOL    HW1 3260   0.412   2.708   4.678
 1080SOL    HW2 3261   0.313   2.587   4.725
 1081SOL     OW 3262   0.339   2.371   4.730
 1081SOL    HW1 3263   0.287   2.288   4.713
 1081SOL    HW2 3264   0.416   2.376   4.666
 1082SOL     OW 3265   1.160   2.069   5.201
 1082SOL    HW1 3266   1.160   2.133   5.278
 1082SOL    HW2 3267   1.188   2.117   5.118
 1083SOL     OW 3268   0.008   3.188   3.924
 1083SOL    HW1 3269  -0.085   3.209   3.893
 1083SOL    HW2 3270   0.018   3.089   3.937
 1084SOL     OW 3271   0.088   3.663   4.651
 1084SOL    HW1 3272   0.046   3.577   4.624
 1084SOL    HW2 3273   0.182   3.666   4.617
 1085SOL     OW 3274   0.504   3.430   4.634
 1085SOL    HW1 3275   0.570   3.504   4.643
 1085SOL    HW2 3276   0.548   3.351   4.592
 1086SOL     OW 3277   1.002   2.658   4.962
 1086SOL    HW1 3278   1.043   2.626   5.048
 1086SOL    HW2 3279   0.906   2.631   4.959
 1087SOL     OW 3280   0.040   2.406   4.838
 1087SOL    HW1 3281   0.125   2.373   4.797
 1087SOL    HW2 3282   0.053   2.421   4.936
 1088SOL     OW 3283   0.815   2.434   4.049
 1088SOL    HW1 3284   0.822   2.345   4.003
 1088SOL    HW2 3285   0.721   2.468   4.041
 1089SOL     OW 3286   1.657   2.466   4.930
 1089SOL    HW1 3287   1.619   2.397   4.992
 1089SOL    HW2 3288   1.739   2.430   4.886
 1090SOL     OW 3289   0.671   2.326   4.993
 1090SOL    HW1 3290   0.637   2.237   4.963
 1090SOL    HW2 3291   0.697   2.380   4.913
 1091SOL     OW 3292   0.473   2.362   3.915
 1091SOL    HW1 3293   0.534   2.442   3.919
 1091SOL    HW2 3294   0.378   2.393   3.922
 1092SOL     OW 3295   1.302   2.717   4.033
 1092SOL    HW1 3296   1.216   2.686   4.075
 1092SOL    HW2 3297   1.298   2.703   3.934
 1093SOL     OW 3298   1.759   3.609   4.878
 1093SOL    HW1 3299   1.820   3.639   4.805
 1093SOL    HW2 3300   1.721   3.520   4.856
 1094SOL     OW 3301   0.083   3.120   4.746
 1094SOL    HW1 3302   0.078   3.119   4.846
 1094SOL    HW2 3303   0.000   3.079   4.708
 1095SOL     OW 3304   1.726   1.997   4.247
 1095SOL    HW1 3305   1.799   1.980   4.180
 1095SOL    HW2 3306   1.695   1.910   4.285
 1096SOL     OW 3307   1.388   3.435   4.201
 1096SOL    HW1 3308   1.455   3.447   4.127
 1096SOL    HW2 3309   1.348   3.524   4.224
 1097SOL     OW 3310   1.280   2.789   4.396
 1097SOL    HW1 3311   1.340   2.708   4.398
 1097SOL    HW2 3312   1.320   2.858   4.336
 1098SOL     OW 3313   0.672   3.478   3.878
 1098SOL    HW1 3314   0.681   3.488   3.779
 1098SOL    HW2 3315   0.632   3.389   3.899
 1099SOL     OW 3316   1.841   2.037   4.687
 1099SOL    HW1 3317   1.880   1.952   4.651
 1099SOL    HW2 3318   1.743   2.039   4.668
 1100SOL     OW 3319   0.263   2.188   4.444
 1100SOL    HW1 3320   0.184   2.239   4.410
 1100SOL    HW2 3321   0.254   2.173   4.542
 1101SOL     OW 3322   1.194   3.474   3.755
 1101SOL    HW1 3323   1.200   3.381   3.792
 1101SOL    HW2 3324   1.135   3.474   3.675
 1102SOL     OW 3325   0.822   2.864   5.096
 1102SOL    HW1 3326   0.862   2.863   5.004
 1102SOL    HW2 3327   0.832   2.956   5.136
 1103SOL     OW 3328   0.916   2.772   4.015
 1103SOL    HW1 3329   0.979   2.810   3.947
 1103SOL    HW2 3330   0.956   2.689   4.054
 1104SOL     OW 3331   1.504   3.469   3.768
 1104SOL    HW1 3332   1.412   3.506   3.775
 1104SOL    HW2 3333   1.542   3.489   3.678
 1105SOL     OW 3334   1.039   2.960   4.420
 1105SOL    HW1 3335   0.969   2.913   4.474
 1105SOL    HW2 3336   1.098   2.892   4.377
 1106SOL     OW 3337   1.014   2.098   4.695
 1106SOL    HW1 3338   1.006   2.062   4.602
 1106SOL    HW2 3339   1.012   2.022   4.760
 1107SOL     OW 3340   0.590   3.349   4.215
 1107SOL    HW1 3341   0.632   3.291   4.145
 1107SOL    HW2 3342   0.546   3.428   4.171
 1108SOL     OW 3343   1.709   2.247   5.105
 1108SOL    HW1 3344   1.782   2.316   5.109
 1108SOL    HW2 3345   1.737   2.172   5.046
 1109SOL     OW 3346   0.255   3.210   4.014
 1109SOL    HW1 3347   0.159   3.211   3.987
 1109SOL    HW2 3348   0.267   3.263   4.098
 1110SOL     OW 3349   0.075   2.207   3.757
 1110SOL    HW1 3350  -0.017   2.179   3.728
 1110SOL    HW2 3351   0.106   2.284   3.701
 1111SOL     OW 3352   0.072   2.028   4.042
 1111SOL    HW1 3353   0.055   2.111   3.988
 1111SOL    HW2 3354   0.162   1.991   4.020
 1112SOL     OW 3355   1.183   3.197   3.843
 1112SOL    HW1 3356   1.084   3.186   3.845
 1112SOL    HW2 3357   1.217   3.212   3.936
 1113SOL     OW 3358   1.493   3.629   4.683
 1113SOL    HW1 3359   1.526   3.693   4.614
 1113SOL    HW2 3360   1.559   3.623   4.758
 1114SOL     OW 3361   1.674   2.745   4.978
 1114SOL    HW1 3362   1.647   2.656   4.941
 1114SOL    HW2 3363   1.675   2.813   4.905
 1115SOL     OW 3364   1.225   2.187   4.173
 1115SOL    HW1 3365   1.290   2.113   4.162
 1115SOL    HW2 3366   1.245   2.237   4.257
 1116SOL     OW 3367   0.594   2.607   4.376
 1116SOL    HW1 3368   0.644   2.692   4.357
 1116SOL    HW2 3369   0.506   2.609   4.328
 1117SOL     OW 3370   1.730   2.796   5.241
 1117SOL    HW1 3371   1.768   2.887   5.256
 1117SOL    HW2 3372   1.722   2.779   5.142
 1118SOL     OW 3373   0.859   3.236   3.740
 1118SOL    HW1 3374   0.813   3.251   3.828
 1118SOL    HW2 3375   0.903   3.321   3.710
 1119SOL     OW 3376   0.661   3.652   4.677
 1119SOL    HW1 3377   0.615   3.740   4.664
 1119SOL    HW2 3378   0.760   3.664   4.670
 1120SOL     OW 3379   0.859   2.818   4.585
 1120SOL    HW1 3380   0.913   2.749   4.633
 1120SOL    HW2 3381   0.827   2.887   4.651
 1121SOL     OW 3382   1.083   2.846   3.811
 1121SOL    HW1 3383   1.060   2.899   3.729
 1121SOL    HW2 3384   1.164   2.790   3.792
 1122SOL     OW 3385   1.861   3.431   4.575
 1122SOL    HW1 3386   1.790   3.419   4.505
 1122SOL    HW2 3387   1.862   3.352   4.635
 1123SOL     OW 3388   0.079   3.102   4.377
 1123SOL    HW1 3389   0.078   3.055   4.465
 1123SOL    HW2 3390   0.161   3.074   4.326
 1124SOL     OW 3391   1.824   2.054   4.951
 1124SOL    HW1 3392   1.820   1.964   4.995
 1124SOL    HW2 3393   1.827   2.043   4.852
 1125SOL     OW 3394   0.428   2.286   4.244
 1125SOL    HW1 3395   0.458   2.214   4.182
 1125SOL    HW2 3396   0.389   2.246   4.327
 1126SOL     OW 3397   1.705   3.349   4.828
 1126SOL    HW1 3398   1.612   3.324   4.801
 1126SOL    HW2 3399   1.731   3.299   4.910
 1127SOL     OW 3400   0.812   3.448   4.411
 1127SOL    HW1 3401   0.844   3.458   4.317
 1127SOL    HW2 3402   0.733   3.386   4.413
 1128SOL     OW 3403   1.424   2.076   4.836
 1128SOL    HW1 3404   1.476   2.011   4.891
 1128SOL    HW2 3405   1.375   2.139   4.897
 1129SOL     OW 3406   1.001   1.896   4.878
 1129SOL    HW1 3407   0.938   1.824   4.847
 1129SOL    HW2 3408   1.094   1.860   4.878
 1130SOL     OW 3409   0.770   3.192   4.025
 1130SOL    HW1 3410   0.724   3.105   4.042
 1130SOL    HW2 3411   0.861   3.189   4.066
 1131SOL     OW 3412   1.352   1.914   3.892
 1131SOL    HW1 3413   1.387   1.873   3.808
 1131SOL    HW2 3414   1.262   1.876   3.912
 1132SOL     OW 3415   1.300   2.315   4.415
 1132SOL    HW1 3416   1.241   2.395   4.419
 1132SOL    HW2 3417   1.315   2.280   4.508
 1133SOL     OW 3418   1.593   2.083   4.606
 1133SOL    HW1 3419   1.509   2.082   4.660
 1133SOL    HW2 3420   1.595   2.166   4.550
 1134SOL     OW 3421   0.039   2.939   4.024
 1134SOL    HW1 3422   0.138   2.928   4.015
 1134SOL    HW2 3423  -0.001   2.853   4.056
 1135SOL     OW 3424   0.875   3.508   4.061
 1135SOL    HW1 3425   0.798   3.473   4.007
 1135SOL    HW2 3426   0.843   3.579   4.123
 1136SOL     OW 3427   0.230   4.352   0.113
 1136SOL    HW1 3428   0.137   4.350   0.150
 1136SOL    HW2 3429   0.231   4.313   0.021
 1137SOL     OW 3430   0.225   3.999   0.996
 1137SOL    HW1 3431   0.260   3.982   1.088
 1137SOL    HW2 3432   0.137   3.954   0.984
 1138SOL     OW 3433   0.019   4.092   0.647
 1138SOL    HW1 3434  -0.063   4.135   0.686
 1138SOL    HW2 3435  -0.009   4.019   0.584
 1139SOL     OW 3436   1.135   4.427   0.717
 1139SOL    HW1 3437   1.192   4.505   0.692
 1139SOL    HW2 3438   1.075   4.453   0.793
 1140SOL     OW 3439   1.755   4.331   0.231
 1140SOL    HW1 3440   1.743   4.318   0.132
 1140SOL    HW2 3441   1.725   4.250   0.280
 1141SOL     OW 3442   0.768   4.868   1.023
 1141SOL    HW1 3443   0.690   4.885   1.083
 1141SOL    HW2 3444   0.802   4.955   0.987
 1142SOL     OW 3445   0.850   4.522   1.823
 1142SOL    HW1 3446   0.846   4.598   1.888
 1142SOL    HW2 3447   0.872   4.558   1.732
 1143SOL     OW 3448   0.685   4.736   0.665
 1143SOL    HW1 3449   0.754   4.720   0.735
 1143SOL    HW2 3450   0.612   4.793   0.703
 1144SOL     OW 3451   0.438   4.116   1.499
 1144SOL    HW1 3452   0.520   4.060   1.508
 1144SOL    HW2 3453   0.357   4.058   1.503
 1145SOL     OW 3454   1.603   4.171   0.737
 1145SOL    HW1 3455   1.529   4.217   0.687
 1145SOL    HW2 3456   1.654   4.239   0.790
 1146SOL     OW 3457   0.240   4.815   0.886
 1146SOL    HW1 3458   0.254   4.731   0.938
 1146SOL    HW2 3459   0.185   4.879   0.941
 1147SOL     OW 3460   0.606   4.688   0.123
 1147SOL    HW1 3461   0.613   4.772   0.069
 1147SOL    HW2 3462   0.652   4.701   0.211
 1148SOL     OW 3463   1.594   3.838   1.480
 1148SOL    HW1 3464   1.576   3.905   1.408
 1148SOL    HW2 3465   1.591   3.884   1.569
 1149SOL     OW 3466   0.122   4.367   0.563
 1149SOL    HW1 3467   0.077   4.279   0.580
 1149SOL    HW2 3468   0.121   4.421   0.647
 1150SOL     OW 3469   1.689   4.646   0.612
 1150SOL    HW1 3470   1.784   4.617   0.620
 1150SOL    HW2 3471   1.681   4.711   0.537
 1151SOL     OW 3472   1.641   4.832   0.432
 1151SOL    HW1 3473   1.727   4.834   0.380
 1151SOL    HW2 3474   1.655   4.879   0.520
 1152SOL     OW 3475   0.113   4.461   1.597
 1152SOL    HW1 3476   0.201   4.448   1.642
 1152SOL    HW2 3477   0.100   4.558   1.575
 1153SOL     OW 3478   0.613   5.089   0.726
 1153SOL    HW1 3479   0.564   5.002   0.735
 1153SOL    HW2 3480   0.590   5.132   0.639
 1154SOL     OW 3481   1.293   4.952   1.423
 1154SOL    HW1 3482   1.330   4.879   1.365
 1154SOL    HW2 3483   1.345   4.957   1.508
 1155SOL     OW 3484   0.809   3.728   0.502
 1155SOL    HW1 3485   0.849   3.819   0.493
 1155SOL    HW2 3486   0.709   3.736   0.508
 1156SOL     OW 3487   0.197   4.700   1.264
 1156SOL    HW1 3488   0.286   4.655   1.250
 1156SOL    HW2 3489   0.124   4.635   1.245
 1157SOL     OW 3490   1.525   4.723   0.190
 1157SOL    HW1 3491   1.462   4.647   0.203
 1157SOL    HW2 3492   1.573   4.741   0.276
 1158SOL     OW 3493   0.317   3.975   1.801
 1158SOL    HW1 3494   0.388   4.046   1.807
 1158SOL    HW2 3495   0.229   4.014   1.829
 1159SOL     OW 3496   0.598   4.453   0.270
 1159SOL    HW1 3497   0.622   4.522   0.202
 1159SOL    HW2 3498   0.520   4.486   0.324
 1160SOL     OW 3499   1.281   4.069   0.944
 1160SOL    HW1 3500   1.195   4.019   0.931
 1160SOL    HW2 3501   1.343   4.015   1.000
 1161SOL     OW 3502   0.807   4.329   1.465
 1161SOL    HW1 3503   0.760   4.326   1.554
 1161SOL    HW2 3504   0.756   4.274   1.399
 1162SOL     OW 3505   1.394   4.193   1.674
 1162SOL    HW1 3506   1.374   4.236   1.762
 1162SOL    HW2 3507   1.472   4.131   1.683
 1163SOL     OW 3508   0.973   4.614   1.572
 1163SOL    HW1 3509   1.019   4.530   1.543
 1163SOL    HW2 3510   0.917   4.648   1.497
 1164SOL     OW 3511   0.991   4.134   1.242
 1164SOL    HW1 3512   0.914   4.168   1.296
 1164SOL    HW2 3513   0.957   4.083   1.163
 1165SOL     OW 3514   1.041   4.425   0.429
 1165SOL    HW1 3515   1.067   4.421   0.525
 1165SOL    HW2 3516   0.956   4.374   0.415
 1166SOL     OW 3517   0.076   4.535   0.789
 1166SOL    HW1 3518   0.175   4.523   0.798
 1166SOL    HW2 3519   0.052   4.630   0.810
 1167SOL     OW 3520   0.865   4.072   0.195
 1167SOL    HW1 3521   0.924   4.135   0.146
 1167SOL    HW2 3522   0.884   3.978   0.166
 1168SOL     OW 3523   1.719   4.309   1.831
 1168SOL    HW1 3524   1.693   4.398   1.795
 1168SOL    HW2 3525   1.717   4.241   1.758
 1169SOL     OW 3526   1.362   4.868   0.545
 1169SOL    HW1 3527   1.445   4.839   0.497
 1169SOL    HW2 3528   1.313   4.935   0.489
 1170SOL     OW 3529   0.550   3.920   0.885
 1170SOL    HW1 3530   0.545   3.915   0.985
 1170SOL    HW2 3531   0.552   4.016   0.856
 1171SOL     OW 3532   1.795   4.790   0.873
 1171SOL    HW1 3533   1.733   4.775   0.797
 1171SOL    HW2 3534   1.743   4.801   0.958
 1172SOL     OW 3535   0.321   4.667   0.242
 1172SOL    HW1 3536   0.403   4.706   0.200
 1172SOL    HW2 3537   0.294   4.585   0.193
 1173SOL     OW 3538   1.458   4.459   0.728
 1173SOL    HW1 3539   1.453   4.394   0.803
 1173SOL    HW2 3540   1.538   4.518   0.741
 1174SOL     OW 3541   0.202   4.009   1.498
 1174SOL    HW1 3542   0.122   4.069   1.485
 1174SOL    HW2 3543   0.192   3.960   1.584
 1175SOL     OW 3544   1.400   3.831   0.426
 1175SOL    HW1 3545   1.376   3.794   0.336
 1175SOL    HW2 3546   1.499   3.847   0.430
 1176SOL     OW 3547   0.382   4.424   0.480
 1176SOL    HW1 3548   0.427   4.334   0.477
 1176SOL    HW2 3549   0.288   4.413   0.513
 1177SOL     OW 3550   1.547   3.946   1.729
 1177SOL    HW1 3551   1.542   3.983   1.821
 1177SOL    HW2 3552   1.475   3.877   1.717
 1178SOL     OW 3553   0.614   3.846   0.117
 1178SOL    HW1 3554   0.712   3.824   0.124
 1178SOL    HW2 3555   0.583   3.829   0.024
 1179SOL     OW 3556   0.781   3.988   1.749
 1179SOL    HW1 3557   0.848   3.927   1.792
 1179SOL    HW2 3558   0.708   4.007   1.814
 1180SOL     OW 3559   1.351   4.314   1.433
 1180SOL    HW1 3560   1.379   4.271   1.518
 1180SOL    HW2 3561   1.376   4.410   1.434
 1181SOL     OW 3562   0.922   4.227   0.899
 1181SOL    HW1 3563   0.897   4.218   0.803
 1181SOL    HW2 3564   0.970   4.145   0.930
 1182SOL     OW 3565   0.539   3.788   0.512
 1182SOL    HW1 3566   0.458   3.789   0.570
 1182SOL    HW2 3567   0.542   3.871   0.457
 1183SOL     OW 3568   0.297   3.759   0.171
 1183SOL    HW1 3569   0.346   3.843   0.150
 1183SOL    HW2 3570   0.359   3.694   0.216
 1184SOL     OW 3571   0.935   3.960   0.480
 1184SOL    HW1 3572   0.887   4.001   0.402
 1184SOL    HW2 3573   1.034   3.958   0.461
 1185SOL     OW 3574   1.076   4.407   1.464
 1185SOL    HW1 3575   0.996   4.346   1.467
 1185SOL    HW2 3576   1.157   4.354   1.440
 1186SOL     OW 3577   0.459   4.876   0.741
 1186SOL    HW1 3578   0.388   4.849   0.806
 1186SOL    HW2 3579   0.433   4.848   0.648
 1187SOL     OW 3580   1.032   4.273   0.016
 1187SOL    HW1 3581   0.991   4.355  -0.023
 1187SOL    HW2 3582   1.096   4.299   0.089
 1188SOL     OW 3583   0.078   4.280   1.386
 1188SOL    HW1 3584   0.170   4.279   1.345
 1188SOL    HW2 3585   0.072   4.354   1.453
 1189SOL     OW 3586   0.561   3.946   1.147
 1189SOL    HW1 3587   0.599   3.862   1.184
 1189SOL    HW2 3588   0.473   3.965   1.191
 1190SOL     OW 3589   0.866   4.178   0.642
 1190SOL    HW1 3590   0.834   4.250   0.580
 1190SOL    HW2 3591   0.890   4.097   0.589
 1191SOL     OW 3592   1.017   3.763   0.753
 1191SOL    HW1 3593   0.945   3.768   0.684
 1191SOL    HW2 3594   0.993   3.694   0.822
 1192SOL     OW 3595   1.429   4.897   0.867
 1192SOL    HW1 3596   1.374   4.813   0.860
 1192SOL    HW2 3597   1.455   4.926   0.775
 1193SOL     OW 3598   1.466   4.314   0.992
 1193SOL    HW1 3599   1.436   4.219   0.999
 1193SOL    HW2 3600   1.539   4.330   1.058
 1194SOL     OW 3601   1.857   4.557   0.377
 1194SOL    HW1 3602   1.899   4.493   0.441
 1194SOL    HW2 3603   1.819   4.506   0.299
 1195SOL     OW 3604   1.390   4.299   0.078
 1195SOL    HW1 3605   1.336   4.278   0.159
 1195SOL    HW2 3606   1.481   4.258   0.087
 1196SOL     OW 3607   0.527   3.980   0.328
 1196SOL    HW1 3608   0.554   3.921   0.253
 1196SOL    HW2 3609   0.527   4.075   0.297
 1197SOL     OW 3610   1.754   4.947   1.588
 1197SOL    HW1 3611   1.845   4.908   1.575
 1197SOL    HW2 3612   1.762   5.043   1.612
 1198SOL     OW 3613   1.638   4.823   1.079
 1198SOL    HW1 3614   1.643   4.904   1.138
 1198SOL    HW2 3615   1.552   4.825   1.028
 1199SOL     OW 3616   0.915   3.813   1.402
 1199SOL    HW1 3617   0.940   3.793   1.307
 1199SOL    HW2 3618   0.987   3.869   1.444
 1200SOL     OW 3619   0.980   4.840   1.719
 1200SOL    HW1 3620   0.881   4.846   1.729
 1200SOL    HW2 3621   1.003   4.760   1.663
 1201SOL     OW 3622   0.705   4.774   0.368
 1201SOL    HW1 3623   0.691   4.781   0.467
 1201SOL    HW2 3624   0.789   4.723   0.350
 1202SOL     OW 3625   0.410   4.537   1.251
 1202SOL    HW1 3626   0.496   4.549   1.301
 1202SOL    HW2 3627   0.368   4.450   1.278
 1203SOL     OW 3628   1.274   4.110   1.262
 1203SOL    HW1 3629   1.295   4.184   1.326
 1203SOL    HW2 3630   1.185   4.127   1.219
 1204SOL     OW 3631   0.367   4.824   0.501
 1204SOL    HW1 3632   0.360   4.907   0.445
 1204SOL    HW2 3633   0.371   4.744   0.441
 1205SOL     OW 3634   0.566   4.261   0.865
 1205SOL    HW1 3635   0.578   4.327   0.791
 1205SOL    HW2 3636   0.612   4.295   0.948
 1206SOL     OW 3637   1.582   4.363   0.472
 1206SOL    HW1 3638   1.551   4.424   0.545
 1206SOL    HW2 3639   1.632   4.415   0.403
 1207SOL     OW 3640   0.402   4.475   1.598
 1207SOL    HW1 3641   0.470   4.530   1.551
 1207SOL    HW2 3642   0.442   4.387   1.625
 1208SOL     OW 3643   1.587   4.503   1.670
 1208SOL    HW1 3644   1.495   4.541   1.665
 1208SOL    HW2 3645   1.647   4.550   1.605
 1209SOL     OW 3646   1.013   3.829   1.770
 1209SOL    HW1 3647   1.019   3.914   1.718
 1209SOL    HW2 3648   1.045   3.753   1.713
 1210SOL     OW 3649   0.504   3.774   1.740
 1210SOL    HW1 3650   0.462   3.717   1.670
 1210SOL    HW2 3651   0.438   3.843   1.772
 1211SOL     OW 3652   0.573   4.594   1.029
 1211SOL    HW1 3653   0.617   4.683   1.020
 1211SOL    HW2 3654   0.510   4.594   1.106
 1212SOL     OW 3655   1.360   4.586   1.045
 1212SOL    HW1 3656   1.285   4.586   0.979
 1212SOL    HW2 3657   1.397   4.494   1.054
 1213SOL     OW 3658   1.209   4.249   0.275
 1213SOL    HW1 3659   1.222   4.165   0.329
 1213SOL    HW2 3660   1.180   4.323   0.335
 1214SOL     OW 3661   0.307   3.937   1.231
 1214SOL    HW1 3662   0.284   3.974   1.321
 1214SOL    HW2 3663   0.277   3.842   1.225
 1215SOL     OW 3664   0.037   5.034   1.282
 1215SOL    HW1 3665   0.090   4.985   1.350
 1215SOL    HW2 3666   0.059   5.132   1.287
 1216SOL     OW 3667   0.732   4.358   1.064
 1216SOL    HW1 3668   0.791   4.332   0.988
 1216SOL    HW2 3669   0.704   4.454   1.053
 1217SOL     OW 3670   1.728   4.659   1.854
 1217SOL    HW1 3671   1.682   4.652   1.765
 1217SOL    HW2 3672   1.666   4.703   1.920
 1218SOL     OW 3673   0.307   3.787   0.618
 1218SOL    HW1 3674   0.296   3.881   0.651
 1218SOL    HW2 3675   0.302   3.724   0.695
 1219SOL     OW 3676   1.622   4.091   0.374
 1219SOL    HW1 3677   1.624   4.015   0.438
 1219SOL    HW2 3678   1.574   4.168   0.414
 1220SOL     OW 3679   1.023   4.490   0.966
 1220SOL    HW1 3680   1.038   4.511   1.062
 1220SOL    HW2 3681   0.993   4.395   0.957
 1221SOL     OW 3682   0.350   4.622   1.804
 1221SOL    HW1 3683   0.426   4.666   1.852
 1221SOL    HW2 3684   0.385   4.575   1.722
 1222SOL     OW 3685   1.540   3.998   0.125
 1222SOL    HW1 3686   1.479   3.923   0.148
 1222SOL    HW2 3687   1.562   4.050   0.208
 1223SOL     OW 3688   1.303   4.562   0.042
 1223SOL    HW1 3689   1.337   4.469   0.057
 1223SOL    HW2 3690   1.321   4.589  -0.053
 1224SOL     OW 3691   0.319   4.534   0.949
 1224SOL    HW1 3692   0.412   4.570   0.954
 1224SOL    HW2 3693   0.313   4.449   1.001
 1225SOL     OW 3694   0.339   4.233   1.006
 1225SOL    HW1 3695   0.287   4.150   0.989
 1225SOL    HW2 3696   0.416   4.238   0.942
 1226SOL     OW 3697   1.138   4.104   1.678
 1226SOL    HW1 3698   1.093   4.167   1.742
 1226SOL    HW2 3699   1.231   4.135   1.661
 1227SOL     OW 3700   1.160   3.931   1.477
 1227SOL    HW1 3701   1.160   3.995   1.554
 1227SOL    HW2 3702   1.188   3.979   1.394
 1228SOL     OW 3703   1.002   4.520   1.238
 1228SOL    HW1 3704   1.043   4.488   1.324
 1228SOL    HW2 3705   0.906   4.493   1.235
 1229SOL     OW 3706   0.040   4.268   1.114
 1229SOL    HW1 3707   0.125   4.235   1.073
 1229SOL    HW2 3708   0.053   4.283   1.212
 1230SOL     OW 3709   0.189   4.244   1.722
 1230SOL    HW1 3710   0.248   4.204   1.652
 1230SOL    HW2 3711   0.131   4.315   1.681
 1231SOL     OW 3712   1.369   4.674   1.660
 1231SOL    HW1 3713   1.408   4.763   1.680
 1231SOL    HW2 3714   1.379   4.654   1.563
 1232SOL     OW 3715   0.815   4.296   0.325
 1232SOL    HW1 3716   0.822   4.207   0.279
 1232SOL    HW2 3717   0.721   4.330   0.317
 1233SOL     OW 3718   1.657   4.328   1.206
 1233SOL    HW1 3719   1.619   4.259   1.268
 1233SOL    HW2 3720   1.739   4.292   1.162
 1234SOL     OW 3721   0.671   4.188   1.269
 1234SOL    HW1 3722   0.637   4.099   1.239
 1234SOL    HW2 3723   0.697   4.242   1.189
 1235SOL     OW 3724   0.473   4.224   0.191
 1235SOL    HW1 3725   0.534   4.304   0.195
 1235SOL    HW2 3726   0.378   4.255   0.198
 1236SOL     OW 3727   0.159   4.861   1.466
 1236SOL    HW1 3728   0.181   4.800   1.542
 1236SOL    HW2 3729   0.169   4.812   1.380
 1237SOL     OW 3730   1.347   4.783   1.234
 1237SOL    HW1 3731   1.371   4.720   1.160
 1237SOL    HW2 3732   1.257   4.823   1.216
 1238SOL     OW 3733   1.302   4.579   0.309
 1238SOL    HW1 3734   1.216   4.548   0.351
 1238SOL    HW2 3735   1.298   4.565   0.210
 1239SOL     OW 3736   0.083   4.982   1.022
 1239SOL    HW1 3737   0.078   4.981   1.122
 1239SOL    HW2 3738   0.000   4.941   0.984
 1240SOL     OW 3739   0.903   3.810   0.133
 1240SOL    HW1 3740   0.954   3.811   0.047
 1240SOL    HW2 3741   0.959   3.768   0.204
 1241SOL     OW 3742   1.726   3.859   0.523
 1241SOL    HW1 3743   1.799   3.842   0.456
 1241SOL    HW2 3744   1.695   3.772   0.561
 1242SOL     OW 3745   1.280   4.651   0.672
 1242SOL    HW1 3746   1.340   4.570   0.674
 1242SOL    HW2 3747   1.320   4.720   0.612
 1243SOL     OW 3748   1.841   3.899   0.963
 1243SOL    HW1 3749   1.880   3.814   0.927
 1243SOL    HW2 3750   1.743   3.901   0.944
 1244SOL     OW 3751   0.263   4.050   0.720
 1244SOL    HW1 3752   0.184   4.101   0.686
 1244SOL    HW2 3753   0.254   4.035   0.818
 1245SOL     OW 3754   0.822   4.726   1.372
 1245SOL    HW1 3755   0.862   4.725   1.280
 1245SOL    HW2 3756   0.832   4.818   1.412
 1246SOL     OW 3757   0.916   4.634   0.291
 1246SOL    HW1 3758   0.979   4.672   0.223
 1246SOL    HW2 3759   0.956   4.551   0.330
 1247SOL     OW 3760   0.372   5.012   1.490
 1247SOL    HW1 3761   0.359   5.105   1.456
 1247SOL    HW2 3762   0.288   4.960   1.477
 1248SOL     OW 3763   1.614   5.016   1.289
 1248SOL    HW1 3764   1.674   5.019   1.369
 1248SOL    HW2 3765   1.539   5.080   1.302
 1249SOL     OW 3766   1.039   4.822   0.696
 1249SOL    HW1 3767   0.969   4.775   0.750
 1249SOL    HW2 3768   1.098   4.754   0.653
 1250SOL     OW 3769   1.014   3.960   0.971
 1250SOL    HW1 3770   1.006   3.924   0.878
 1250SOL    HW2 3771   1.012   3.884   1.036
 1251SOL     OW 3772   1.709   4.109   1.381
 1251SOL    HW1 3773   1.782   4.178   1.385
 1251SOL    HW2 3774   1.737   4.034   1.322
 1252SOL     OW 3775   0.105   4.737   1.726
 1252SOL    HW1 3776   0.028   4.704   1.780
 1252SOL    HW2 3777   0.190   4.707   1.768
 1253SOL     OW 3778   0.672   3.927   1.489
 1253SOL    HW1 3779   0.762   3.911   1.449
 1253SOL    HW2 3780   0.680   3.932   1.588
 1254SOL     OW 3781   0.075   4.069   0.033
 1254SOL    HW1 3782  -0.017   4.041   0.004
 1254SOL    HW2 3783   0.106   4.146  -0.023
 1255SOL     OW 3784   1.440   4.580   1.398
 1255SOL    HW1 3785   1.383   4.632   1.335
 1255SOL    HW2 3786   1.536   4.592   1.374
 1256SOL     OW 3787   0.072   3.890   0.318
 1256SOL    HW1 3788   0.055   3.973   0.264
 1256SOL    HW2 3789   0.162   3.853   0.296
 1257SOL     OW 3790   0.613   4.566   1.431
 1257SOL    HW1 3791   0.669   4.647   1.414
 1257SOL    HW2 3792   0.672   4.486   1.434
 1258SOL     OW 3793   0.716   4.289   1.708
 1258SOL    HW1 3794   0.735   4.354   1.782
 1258SOL    HW2 3795   0.776   4.209   1.717
 1259SOL     OW 3796   1.450   4.944   1.633
 1259SOL    HW1 3797   1.441   4.934   1.732
 1259SOL    HW2 3798   1.546   4.937   1.607
 1260SOL     OW 3799   1.674   4.607   1.254
 1260SOL    HW1 3800   1.647   4.518   1.217
 1260SOL    HW2 3801   1.675   4.675   1.181
 1261SOL     OW 3802   1.225   4.049   0.449
 1261SOL    HW1 3803   1.290   3.975   0.438
 1261SOL    HW2 3804   1.245   4.099   0.533
 1262SOL     OW 3805   0.594   4.469   0.652
 1262SOL    HW1 3806   0.644   4.554   0.633
 1262SOL    HW2 3807   0.506   4.471   0.604
 1263SOL     OW 3808   1.777   4.066   1.642
 1263SOL    HW1 3809   1.760   4.097   1.548
 1263SOL    HW2 3810   1.693   4.029   1.680
 1264SOL     OW 3811   1.730   4.658   1.517
 1264SOL    HW1 3812   1.768   4.749   1.532
 1264SOL    HW2 3813   1.722   4.641   1.418
 1265SOL     OW 3814   0.859   4.680   0.861
 1265SOL    HW1 3815   0.913   4.611   0.909
 1265SOL    HW2 3816   0.827   4.749   0.927
 1266SOL     OW 3817   1.083   4.708   0.087
 1266SOL    HW1 3818   1.060   4.761   0.005
 1266SOL    HW2 3819   1.164   4.652   0.068
 1267SOL     OW 3820   0.079   4.964   0.653
 1267SOL    HW1 3821   0.078   4.917   0.741
 1267SOL    HW2 3822   0.161   4.936   0.602
 1268SOL     OW 3823   1.824   3.916   1.227
 1268SOL    HW1 3824   1.820   3.826   1.271
 1268SOL    HW2 3825   1.827   3.905   1.128
 1269SOL     OW 3826   0.428   4.148   0.520
 1269SOL    HW1 3827   0.458   4.076   0.458
 1269SOL    HW2 3828   0.389   4.108   0.603
 1270SOL     OW 3829   0.317   4.271   1.280
 1270SOL    HW1 3830   0.355   4.212   1.352
 1270SOL    HW2 3831   0.357   4.245   1.192
 1271SOL     OW 3832   1.424   3.938   1.112
 1271SOL    HW1 3833   1.476   3.873   1.167
 1271SOL    HW2 3834   1.375   4.001   1.173
 1272SOL     OW 3835   1.001   3.758   1.154
 1272SOL    HW1 3836   0.938   3.686   1.123
 1272SOL    HW2 3837   1.094   3.722   1.154
 1273SOL     OW 3838   0.770   5.054   0.301
 1273SOL    HW1 3839   0.724   4.967   0.318
 1273SOL    HW2 3840   0.861   5.051   0.342
 1274SOL     OW 3841   1.352   3.776   0.168
 1274SOL    HW1 3842   1.387   3.735   0.084
 1274SOL    HW2 3843   1.262   3.738   0.188
 1275SOL     OW 3844   1.300   4.177   0.691
 1275SOL    HW1 3845   1.241   4.257   0.695
 1275SOL    HW2 3846   1.315   4.142   0.784
 1276SOL     OW 3847   1.593   3.945   0.882
 1276SOL    HW1 3848   1.509   3.944   0.936
 1276SOL    HW2 3849   1.595   4.028   0.826
 1277SOL     OW 3850   0.039   4.801   0.300
 1277SOL    HW1 3851   0.138   4.790   0.291
 1277SOL    HW2 3852  -0.001   4.715   0.332
 1278SOL     OW 3853   0.230   4.352   1.975
 1278SOL    HW1 3854   0.137   4.350   2.012
 1278SOL    HW2 3855   0.231   4.313   1.883
 1279SOL     OW 3856   0.225   3.999   2.858
 1279SOL    HW1 3857   0.260   3.982   2.950
 1279SOL    HW2 3858   0.137   3.954   2.846
 1280SOL     OW 3859   0.019   4.092   2.509
 1280SOL    HW1 3860  -0.063   4.135   2.548
 1280SOL    HW2 3861  -0.009   4.019   2.446
 1281SOL     OW 3862   1.135   4.427   2.579
 1281SOL    HW1 3863   1.192   4.505   2.554
 1281SOL    HW2 3864   1.075   4.453   2.655
 1282SOL     OW 3865   1.755   4.331   2.093
 1282SOL    HW1 3866   1.743   4.318   1.994
 1282SOL    HW2 3867   1.725   4.250   2.142
 1283SOL     OW 3868   0.768   4.868   2.885
 1283SOL    HW1 3869   0.690   4.885   2.945
 1283SOL    HW2 3870   0.802   4.955   2.849
 1284SOL     OW 3871   0.850   4.522   3.685
 1284SOL    HW1 3872   0.846   4.598   3.750
 1284SOL    HW2 3873   0.872   4.558   3.594
 1285SOL     OW 3874   0.685   4.736   2.527
 1285SOL    HW1 3875   0.754   4.720   2.597
 1285SOL    HW2 3876   0.612   4.793   2.565
 1286SOL     OW 3877   0.438   4.116   3.361
 1286SOL    HW1 3878   0.520   4.060   3.370
 1286SOL    HW2 3879   0.357   4.058   3.365
 1287SOL     OW 3880   1.603   4.171   2.599
 1287SOL    HW1 3881   1.529   4.217   2.549
 1287SOL    HW2 3882   1.654   4.239   2.652
 1288SOL     OW 3883   0.240   4.815   2.748
 1288SOL    HW1 3884   0.254   4.731   2.800
 1288SOL    HW2 3885   0.185   4.879   2.803
 1289SOL     OW 3886   0.606   4.688   1.985
 1289SOL    HW1 3887   0.613   4.772   1.931
 1289SOL    HW2 3888   0.652   4.701   2.073
 1290SOL     OW 3889   1.594   3.838   3.342
 1290SOL    HW1 3890   1.576   3.905   3.270
 1290SOL    HW2 3891   1.591   3.884   3.431
 1291SOL     OW 3892   0.122   4.367   2.425
 1291SOL    HW1 3893   0.077   4.279   2.442
 1291SOL    HW2 3894   0.121   4.421   2.509
 1292SOL     OW 3895   1.689   4.646   2.474
 1292SOL    HW1 3896   1.784   4.617   2.482
 1292SOL    HW2 3897   1.681   4.711   2.399
 1293SOL     OW 3898   1.641   4.832   2.294
 1293SOL    HW1 3899   1.727   4.834   2.242
 1293SOL    HW2 3900   1.655   4.879   2.382
 1294SOL     OW 3901   0.113   4.461   3.459
 1294SOL    HW1 3902   0.201   4.448   3.504
 1294SOL    HW2 3903   0.100   4.558   3.437
 1295SOL     OW 3904   0.613   5.089   2.588
 1295SOL    HW1 3905   0.564   5.002   2.597
 1295SOL    HW2 3906   0.590   5.132   2.501
 1296SOL     OW 3907   1.293   4.952   3.285
 1296SOL    HW1 3908   1.330   4.879   3.227
 1296SOL    HW2 3909   1.345   4.957   3.370
 1297SOL     OW 3910   0.809   3.728   2.364
 1297SOL    HW1 3911   0.849   3.819   2.355
 1297SOL    HW2 3912   0.709   3.736   2.370
 1298SOL     OW 3913   0.197   4.700   3.126
 1298SOL    HW1 3914   0.286   4.655   3.112
 1298SOL    HW2 3915   0.124   4.635   3.107
 1299SOL     OW 3916   1.525   4.723   2.052
 1299SOL    HW1 3917   1.462   4.647   2.065
 1299SOL    HW2 3918   1.573   4.741   2.138
 1300SOL     OW 3919   0.317   3.975   3.663
 1300SOL    HW1 3920   0.388   4.046   3.669
 1300SOL    HW2 3921   0.229   4.014   3.691
 1301SOL     OW 3922   0.598   4.453   2.132
 1301SOL    HW1 3923   0.622   4.522   2.064
 1301SOL    HW2 3924   0.520   4.486   2.186
 1302SOL     OW 3925   1.281   4.069   2.806
 1302SOL    HW1 3926   1.195   4.019   2.793
 1302SOL    HW2 3927   1.343   4.015   2.862
 1303SOL     OW 3928   0.807   4.329   3.327
 1303SOL    HW1 3929   0.760   4.326   3.416
 1303SOL    HW2 3930   0.756   4.274   3.261
 1304SOL     OW 3931   1.394   4.193   3.536
 1304SOL    HW1 3932   1.374   4.236   3.624
 1304SOL    HW2 3933   1.472   4.131   3.545
 1305SOL     OW 3934   0.973   4.614   3.434
 1305SOL    HW1 3935   1.019   4.530   3.405
 1305SOL    HW2 3936   0.917   4.648   3.359
 1306SOL     OW 3937   0.991   4.134   3.104
 1306SOL    HW1 3938   0.914   4.168   3.158
 1306SOL    HW2 3939   0.957   4.083   3.025
 1307SOL     OW 3940   1.041   4.425   2.291
 1307SOL    HW1 3941   1.067   4.421   2.387
 1307SOL    HW2 3942   0.956   4.374   2.277
 1308SOL     OW 3943   0.076   4.535   2.651
 1308SOL    HW1 3944   0.175   4.523   2.660
 1308SOL    HW2 3945   0.052   4.630   2.672
 1309SOL     OW 3946   0.865   4.072   2.057
 1309SOL    HW1 3947   0.924   4.135   2.008
 1309SOL    HW2 3948   0.884   3.978   2.028
 1310SOL     OW 3949   1.719   4.309   3.693
 1310SOL    HW1 3950   1.693   4.398   3.657
 1310SOL    HW2 3951   1.717   4.241   3.620
 1311SOL     OW 3952   1.362   4.868   2.407
 1311SOL    HW1 3953   1.445   4.839   2.359
 1311SOL    HW2 3954   1.313   4.935   2.351
 1312SOL     OW 3955   0.550   3.920   2.747
 1312SOL    HW1 3956   0.545   3.915   2.847
 1312SOL    HW2 3957   0.552   4.016   2.718
 1313SOL     OW 3958   1.795   4.790   2.735
 1313SOL    HW1 3959   1.733   4.775   2.659
 1313SOL    HW2 3960   1.743   4.801   2.820
 1314SOL     OW 3961   0.321   4.667   2.104
 1314SOL    HW1 3962   0.403   4.706   2.062
 1314SOL    HW2 3963   0.294   4.585   2.055
 1315SOL     OW 3964   1.458   4.459   2.590
 1315SOL    HW1 3965   1.453   4.394   2.665
 1315SOL    HW2 3966   1.538   4.518   2.603
 1316SOL     OW 3967   0.202   4.009   3.360
 1316SOL    HW1 3968   0.122   4.069   3.347
 1316SOL    HW2 3969   0.192   3.960   3.446
 1317SOL     OW 3970   1.400   3.831   2.288
 1317SOL    HW1 3971   1.376   3.794   2.198
 1317SOL    HW2 3972   1.499   3.847   2.292
 1318SOL     OW 3973   0.382   4.424   2.342
 1318SOL    HW1 3974   0.427   4.334   2.339
 1318SOL    HW2 3975   0.288   4.413   2.375
 1319SOL     OW 3976   1.547   3.946   3.591
 1319SOL    HW1 3977   1.542   3.983   3.683
 1319SOL    HW2 3978   1.475   3.877   3.579
 1320SOL     OW 3979   0.614   3.846   1.979
 1320SOL    HW1 3980   0.712   3.824   1.986
 1320SOL    HW2 3981   0.583   3.829   1.886
 1321SOL     OW 3982   0.781   3.988   3.611
 1321SOL    HW1 3983   0.848   3.927   3.654
 1321SOL    HW2 3984   0.708   4.007   3.676
 1322SOL     OW 3985   1.351   4.314   3.295
 1322SOL    HW1 3986   1.379   4.271   3.380
 1322SOL    HW2 3987   1.376   4.410   3.296
 1323SOL     OW 3988   0.922   4.227   2.761
 1323SOL    HW1 3989   0.897   4.218   2.665
 1323SOL    HW2 3990   0.970   4.145   2.792
 1324SOL     OW 3991   0.539   3.788   2.374
 1324SOL    HW1 3992   0.458   3.789   2.432
 1324SOL    HW2 3993   0.542   3.871   2.319
 1325SOL     OW 3994   0.297   3.759   2.033
 1325SOL    HW1 3995   0.346   3.843   2.012
 1325SOL    HW2 3996   0.359   3.694   2.078
 1326SOL     OW 3997   0.935   3.960   2.342
 1326SOL    HW1 3998   0.887   4.001   2.264
 1326SOL    HW2 3999   1.034   3.958   2.323
 1327SOL     OW 4000   1.076   4.407   3.326
 1327SOL    HW1 4001   0.996   4.346   3.329
 1327SOL    HW2 4002   1.157   4.354   3.302
 1328SOL     OW 4003   0.459   4.876   2.603
 1328SOL    HW1 4004   0.388   4.849   2.668
 1328SOL    HW2 4005   0.433   4.848   2.510
 1329SOL     OW 4006   1.032   4.273   1.878
 1329SOL    HW1 4007   0.991   4.355   1.839
 1329SOL    HW2 4008   1.096   4.299   1.951
 1330SOL     OW 4009   0.078   4.280   3.248
 1330SOL    HW1 4010   0.170   4.279   3.207
 1330SOL    HW2 4011   0.072   4.354   3.315
 1331SOL     OW 4012   0.561   3.946   3.009
 1331SOL    HW1 4013   0.599   3.862   3.046
 1331SOL    HW2 4014   0.473   3.965   3.053
 1332SOL     OW 4015   0.866   4.178   2.504
 1332SOL    HW1 4016   0.834   4.250   2.442
 1332SOL    HW2 4017   0.890   4.097   2.451
 1333SOL     OW 4018   1.017   3.763   2.615
 1333SOL    HW1 4019   0.945   3.768   2.546
 1333SOL    HW2 4020   0.993   3.694   2.684
 1334SOL     OW 4021   1.429   4.897   2.729
 1334SOL    HW1 4022   1.374   4.813   2.722
 1334SOL    HW2 4023   1.455   4.926   2.637
 1335SOL     OW 4024   1.466   4.314   2.854
 1335SOL    HW1 4025   1.436   4.219   2.861
 1335SOL    HW2 4026   1.539   4.330   2.920
 1336SOL     OW 4027   1.857   4.557   2.239
 1336SOL    HW1 4028   1.899   4.493   2.303
 1336SOL    HW2 4029   1.819   4.506   2.161
 1337SOL     OW 4030   1.390   4.299   1.940
 1337SOL    HW1 4031   1.336   4.278   2.021
 1337SOL    HW2 4032   1.481   4.258   1.949
 1338SOL     OW 4033   0.527   3.980   2.190
 1338SOL    HW1 4034   0.554   3.921   2.115
 1338SOL    HW2 4035   0.527   4.075   2.159
 1339SOL     OW 4036   1.754   4.947   3.450
 1339SOL    HW1 4037   1.845   4.908   3.437
 1339SOL    HW2 4038   1.762   5.043   3.474
 1340SOL     OW 4039   1.638   4.823   2.941
 1340SOL    HW1 4040   1.643   4.904   3.000
 1340SOL    HW2 4041   1.552   4.825   2.890
 1341SOL     OW 4042   0.915   3.813   3.264
 1341SOL    HW1 4043   0.940   3.793   3.169
 1341SOL    HW2 4044   0.987   3.869   3.306
 1342SOL     OW 4045   0.980   4.840   3.581
 1342SOL    HW1 4046   0.881   4.846   3.591
 1342SOL    HW2 4047   1.003   4.760   3.525
 1343SOL     OW 4048   0.705   4.774   2.230
 1343SOL    HW1 4049   0.691   4.781   2.329
 1343SOL    HW2 4050   0.789   4.723   2.212
 1344SOL     OW 4051   0.410   4.537   3.113
 1344SOL    HW1 4052   0.496   4.549   3.163
 1344SOL    HW2 4053   0.368   4.450   3.140
 1345SOL     OW 4054   1.274   4.110   3.124
 1345SOL    HW1 4055   1.295   4.184   3.188
 1345SOL    HW2 4056   1.185   4.127   3.081
 1346SOL     OW 4057   0.367   4.824   2.363
 1346SOL    HW1 4058   0.360   4.907   2.307
 1346SOL    HW2 4059   0.371   4.744   2.303
 1347SOL     OW 4060   0.566   4.261   2.727
 1347SOL    HW1 4061   0.578   4.327   2.653
 1347SOL    HW2 4062   0.612   4.295   2.810
 1348SOL     OW 4063   1.582   4.363   2.334
 1348SOL    HW1 4064   1.551   4.424   2.407
 1348SOL    HW2 4065   1.632   4.415   2.265
 1349SOL     OW 4066   0.402   4.475   3.460
 1349SOL    HW1 4067   0.470   4.530   3.413
 1349SOL    HW2 4068   0.442   4.387   3.487
 1350SOL     OW 4069   1.587   4.503   3.532
 1350SOL    HW1 4070   1.495   4.541   3.527
 1350SOL    HW2 4071   1.647   4.550   3.467
 1351SOL     OW 4072   1.013   3.829   3.632
 1351SOL    HW1 4073   1.019   3.914   3.580
 1351SOL    HW2 4074   1.045   3.753   3.575
 1352SOL     OW 4075   0.504   3.774   3.602
 1352SOL    HW1 4076   0.462   3.717   3.532
 1352SOL    HW2 4077   0.438   3.843   3.634
 1353SOL     OW 4078   0.573   4.594   2.891
 1353SOL    HW1 4079   0.617   4.683   2.882
 1353SOL    HW2 4080   0.510   4.594   2.968
 1354SOL     OW 4081   1.360   4.586   2.907
 1354SOL    HW1 4082   1.285   4.586   2.841
 1354SOL    HW2 4083   1.397   4.494   2.916
 1355SOL     OW 4084   1.209   4.249   2.137
 1355SOL    HW1 4085   1.222   4.165   2.191
 1355SOL    HW2 4086   1.180   4.323   2.197
 1356SOL     OW 4087   0.307   3.937   3.093
 1356SOL    HW1 4088   0.284   3.974   3.183
 1356SOL    HW2 4089   0.277   3.842   3.087
 1357SOL     OW 4090   0.037   5.034   3.144
 1357SOL    HW1 4091   0.090   4.985   3.212
 1357SOL    HW2 4092   0.059   5.132   3.149
 1358SOL     OW 4093   0.732   4.358   2.926
 1358SOL    HW1 4094   0.791   4.332   2.850
 1358SOL    HW2 4095   0.704   4.454   2.915
 1359SOL     OW 4096   1.728   4.659   3.716
 1359SOL    HW1 4097   1.682   4.652   3.627
 1359SOL    HW2 4098   1.666   4.703   3.782
 1360SOL     OW 4099   0.307   3.787   2.480
 1360SOL    HW1 4100   0.296   3.881   2.513
 1360SOL    HW2 4101   0.302   3.724   2.557
 1361SOL     OW 4102   1.622   4.091   2.236
 1361SOL    HW1 4103   1.624   4.015   2.300
 1361SOL    HW2 4104   1.574   4.168   2.276
 1362SOL     OW 4105   1.023   4.490   2.828
 1362SOL    HW1 4106   1.038   4.511   2.924
 1362SOL    HW2 4107   0.993   4.395   2.819
 1363SOL     OW 4108   0.350   4.622   3.666
 1363SOL    HW1 4109   0.426   4.666   3.714
 1363SOL    HW2 4110   0.385   4.575   3.584
 1364SOL     OW 4111   1.540   3.998   1.987
 1364SOL    HW1 4112   1.479   3.923   2.010
 1364SOL    HW2 4113   1.562   4.050   2.070
 1365SOL     OW 4114   1.303   4.562   1.904
 1365SOL    HW1 4115   1.337   4.469   1.919
 1365SOL    HW2 4116   1.321   4.589   1.809
 1366SOL     OW 4117   0.319   4.534   2.811
 1366SOL    HW1 4118   0.412   4.570   2.816
 1366SOL    HW2 4119   0.313   4.449   2.863
 1367SOL     OW 4120   0.339   4.233   2.868
 1367SOL    HW1 4121   0.287   4.150   2.851
 1367SOL    HW2 4122   0.416   4.238   2.804
 1368SOL     OW 4123   1.138   4.104   3.540
 1368SOL    HW1 4124   1.093   4.167   3.604
 1368SOL    HW2 4125   1.231   4.135   3.523
 1369SOL     OW 4126   1.160   3.931   3.339
 1369SOL    HW1 4127   1.160   3.995   3.416
 1369SOL    HW2 4128   1.188   3.979   3.256
 1370SOL     OW 4129   1.002   4.520   3.100
 1370SOL    HW1 4130   1.043   4.488   3.186
 1370SOL    HW2 4131   0.906   4.493   3.097
 1371SOL     OW 4132   0.040   4.268   2.976
 1371SOL    HW1 4133   0.125   4.235   2.935
 1371SOL    HW2 4134   0.053   4.283   3.074
 1372SOL     OW 4135   0.189   4.244   3.584
 1372SOL    HW1 4136   0.248   4.204   3.514
 1372SOL    HW2 4137   0.131   4.315   3.543
 1373SOL     OW 4138   1.369   4.674   3.522
 1373SOL    HW1 4139   1.408   4.763   3.542
 1373SOL    HW2 4140   1.379   4.654   3.425
 1374SOL     OW 4141   0.815   4.296   2.187
 1374SOL    HW1 4142   0.822   4.207   2.141
 1374SOL    HW2 4143   0.721   4.330   2.179
 1375SOL     OW 4144   1.657   4.328   3.068
 1375SOL    HW1 4145   1.619   4.259   3.130
 1375SOL    HW2 4146   1.739   4.292   3.024
 1376SOL     OW 4147   0.671   4.188   3.131
 1376SOL    HW1 4148   0.637   4.099   3.101
 1376SOL    HW2 4149   0.697   4.242   3.051
 1377SOL     OW 4150   0.473   4.224   2.053
 1377SOL    HW1 4151   0.534   4.304   2.057
 1377SOL    HW2 4152   0.378   4.255   2.060
 1378SOL     OW 4153   0.159   4.861   3.328
 1378SOL    HW1 4154   0.181   4.800   3.404
 1378SOL    HW2 4155   0.169   4.812   3.242
 1379SOL     OW 4156   1.347   4.783   3.096
 1379SOL    HW1 4157   1.371   4.720   3.022
 1379SOL    HW2 4158   1.257   4.823   3.078
 1380SOL     OW 4159   1.302   4.579   2.171
 1380SOL    HW1 4160   1.216   4.548   2.213
 1380SOL    HW2 4161   1.298   4.565   2.072
 1381SOL     OW 4162   0.083   4.982   2.884
 1381SOL    HW1 4163   0.078   4.981   2.984
 1381SOL    HW2 4164   0.000   4.941   2.846
 1382SOL     OW 4165   1.726   3.859   2.385
 1382SOL    HW1 4166   1.799   3.842   2.318
 1382SOL    HW2 4167   1.695   3.772   2.423
 1383SOL     OW 4168   1.280   4.651   2.534
 1383SOL    HW1 4169   1.340   4.570   2.536
 1383SOL    HW2 4170   1.320   4.720   2.474
 1384SOL     OW 4171   1.841   3.899   2.825
 1384SOL    HW1 4172   1.880   3.814   2.789
 1384SOL    HW2 4173   1.743   3.901   2.806
 1385SOL     OW 4174   0.263   4.050   2.582
 1385SOL    HW1 4175   0.184   4.101   2.548
 1385SOL    HW2 4176   0.254   4.035   2.680
 1386SOL     OW 4177   0.822   4.726   3.234
 1386SOL    HW1 4178   0.862   4.725   3.142
 1386SOL    HW2 4179   0.832   4.818   3.274
 1387SOL     OW 4180   0.916   4.634   2.153
 1387SOL    HW1 4181   0.979   4.672   2.085
 1387SOL    HW2 4182   0.956   4.551   2.192
 1388SOL     OW 4183   0.372   5.012   3.352
 1388SOL    HW1 4184   0.359   5.105   3.318
 1388SOL    HW2 4185   0.288   4.960   3.339
 1389SOL     OW 4186   1.614   5.016   3.151
 1389SOL    HW1 4187   1.674   5.019   3.231
 1389SOL    HW2 4188   1.539   5.080   3.164
 1390SOL     OW 4189   1.039   4.822   2.558
 1390SOL    HW1 4190   0.969   4.775   2.612
 1390SOL    HW2 4191   1.098   4.754   2.515
 1391SOL     OW 4192   1.014   3.960   2.833
 1391SOL    HW1 4193   1.006   3.924   2.740
 1391SOL    HW2 4194   1.012   3.884   2.898
 1392SOL     OW 4195   1.709   4.109   3.243
 1392SOL    HW1 4196   1.782   4.178   3.247
 1392SOL    HW2 4197   1.737   4.034   3.184
 1393SOL     OW 4198   0.105   4.737   3.588
 1393SOL    HW1 4199   0.028   4.704   3.642
 1393SOL    HW2 4200   0.190   4.707   3.630
 1394SOL     OW 4201   0.672   3.927   3.351
 1394SOL    HW1 4202   0.762   3.911   3.311
 1394SOL    HW2 4203   0.680   3.932   3.450
 1395SOL     OW 4204   0.075   4.069   1.895
 1395SOL    HW1 4205  -0.017   4.041   1.866
 1395SOL    HW2 4206   0.106   4.146   1.839
 1396SOL     OW 4207   1.440   4.580   3.260
 1396SOL    HW1 4208   1.383   4.632   3.197
 1396SOL    HW2 4209   1.536   4.592   3.236
 1397SOL     OW 4210   0.072   3.890   2.180
 1397SOL    HW1 4211   0.055   3.973   2.126
 1397SOL    HW2 4212   0.162   3.853   2.158
 1398SOL     OW 4213   0.613   4.566   3.293
 1398SOL    HW1 4214   0.669   4.647   3.276
 1398SOL    HW2 4215   0.672   4.486   3.296
 1399SOL     OW 4216   0.716   4.289   3.570
 1399SOL    HW1 4217   0.735   4.354   3.644
 1399SOL    HW2 4218   0.776   4.209   3.579
 1400SOL     OW 4219   1.450   4.944   3.495
 1400SOL    HW1 4220   1.441   4.934   3.594
 1400SOL    HW2 4221   1.546   4.937   3.469
 1401SOL     OW 4222   1.674   4.607   3.116
 1401SOL    HW1 4223   1.647   4.518   3.079
 1401SOL    HW2 4224   1.675   4.675   3.043
 1402SOL     OW 4225   1.225   4.049   2.311
 1402SOL    HW1 4226   1.290   3.975   2.300
 1402SOL    HW2 4227   1.245   4.099   2.395
 1403SOL     OW 4228   0.594   4.469   2.514
 1403SOL    HW1 4229   0.644   4.554   2.495
 1403SOL    HW2 4230   0.506   4.471   2.466
 1404SOL     OW 4231   1.777   4.066   3.504
 1404SOL    HW1 4232   1.760   4.097   3.410
 1404SOL    HW2 4233   1.693   4.029   3.542
 1405SOL     OW 4234   1.730   4.658   3.379
 1405SOL    HW1 4235   1.768   4.749   3.394
 1405SOL    HW2 4236   1.722   4.641   3.280
 1406SOL     OW 4237   0.859   4.680   2.723
 1406SOL    HW1 4238   0.913   4.611   2.771
 1406SOL    HW2 4239   0.827   4.749   2.789
 1407SOL     OW 4240   1.083   4.708   1.949
 1407SOL    HW1 4241   1.060   4.761   1.867
 1407SOL    HW2 4242   1.164   4.652   1.930
 1408SOL     OW 4243   0.079   4.964   2.515
 1408SOL    HW1 4244   0.078   4.917   2.603
 1408SOL    HW2 4245   0.161   4.936   2.464
 1409SOL     OW 4246   1.824   3.916   3.089
 1409SOL    HW1 4247   1.820   3.826   3.133
 1409SOL    HW2 4248   1.827   3.905   2.990
 1410SOL     OW 4249   0.428   4.148   2.382
 1410SOL    HW1 4250   0.458   4.076   2.320
 1410SOL    HW2 4251   0.389   4.108   2.465
 1411SOL     OW 4252   0.317   4.271   3.142
 1411SOL    HW1 4253   0.355   4.212   3.214
 1411SOL    HW2 4254   0.357   4.245   3.054
 1412SOL     OW 4255   1.424   3.938   2.974
 1412SOL    HW1 4256   1.476   3.873   3.029
 1412SOL    HW2 4257   1.375   4.001   3.035
 1413SOL     OW 4258   1.001   3.758   3.016
 1413SOL    HW1 4259   0.938   3.686   2.985
 1413SOL    HW2 4260   1.094   3.722   3.016
 1414SOL     OW 4261   0.770   5.054   2.163
 1414SOL    HW1 4262   0.724   4.967   2.180
 1414SOL    HW2 4263   0.861   5.051   2.204
 1415SOL     OW 4264   1.352   3.776   2.030
 1415SOL    HW1 4265   1.387   3.735   1.946
 1415SOL    HW2 4266   1.262   3.738   2.050
 1416SOL     OW 4267   1.300   4.177   2.553
 1416SOL    HW1 4268   1.241   4.257   2.557
 1416SOL    HW2 4269   1.315   4.142   2.646
 1417SOL     OW 4270   1.593   3.945   2.744
 1417SOL    HW1 4271   1.509   3.944   2.798
 1417SOL    HW2 4272   1.595   4.028   2.688
 1418SOL     OW 4273   0.039   4.801   2.162
 1418SOL    HW1 4274   0.138   4.790   2.153
 1418SOL    HW2 4275  -0.001   4.715   2.194
 1419SOL     OW 4276   0.230   4.352   3.837
 1419SOL    HW1 4277   0.137   4.350   3.874
 1419SOL    HW2 4278   0.231   4.313   3.745
 1420SOL     OW 4279   0.225   3.999   4.720
 1420SOL    HW1 4280   0.260   3.982   4.812
 1420SOL    HW2 4281   0.137   3.954   4.708
 1421SOL     OW 4282   0.019   4.092   4.371
 1421SOL    HW1 4283  -0.063   4.135   4.410
 1421SOL    HW2 4284  -0.009   4.019   4.308
 1422SOL     OW 4285   1.135   4.427   4.441
 1422SOL    HW1 4286   1.192   4.505   4.416
 1422SOL    HW2 4287   1.075   4.453   4.517
 1423SOL     OW 4288   1.755   4.331   3.955
 1423SOL    HW1 4289   1.743   4.318   3.856
 1423SOL    HW2 4290   1.725   4.250   4.004
 1424SOL     OW 4291   0.768   4.868   4.747
 1424SOL    HW1 4292   0.690   4.885   4.807
 1424SOL    HW2 4293   0.802   4.955   4.711
 1425SOL     OW 4294   0.685   4.736   4.389
 1425SOL    HW1 4295   0.754   4.720   4.459
 1425SOL    HW2 4296   0.612   4.793   4.427
 1426SOL     OW 4297   1.603   4.171   4.461
 1426SOL    HW1 4298   1.529   4.217   4.411
 1426SOL    HW2 4299   1.654   4.239   4.514
 1427SOL     OW 4300   0.240   4.815   4.610
 1427SOL    HW1 4301   0.254   4.731   4.662
 1427SOL    HW2 4302   0.185   4.879   4.665
 1428SOL     OW 4303   0.606   4.688   3.847
 1428SOL    HW1 4304   0.613   4.772   3.793
 1428SOL    HW2 4305   0.652   4.701   3.935
 1429SOL     OW 4306   0.122   4.367   4.287
 1429SOL    HW1 4307   0.077   4.279   4.304
 1429SOL    HW2 4308   0.121   4.421   4.371
 1430SOL     OW 4309   1.689   4.646   4.336
 1430SOL    HW1 4310   1.784   4.617   4.344
 1430SOL    HW2 4311   1.681   4.711   4.261
 1431SOL     OW 4312   1.641   4.832   4.156
 1431SOL    HW1 4313   1.727   4.834   4.104
 1431SOL    HW2 4314   1.655   4.879   4.244
 1432SOL     OW 4315   0.613   5.089   4.450
 1432SOL    HW1 4316   0.564   5.002   4.459
 1432SOL    HW2 4317   0.590   5.132   4.363
 1433SOL     OW 4318   0.809   3.728   4.226
 1433SOL    HW1 4319   0.849   3.819   4.217
 1433SOL    HW2 4320   0.709   3.736   4.232
 1434SOL     OW 4321   0.197   4.700   4.988
 1434SOL    HW1 4322   0.286   4.655   4.974
 1434SOL    HW2 4323   0.124   4.635   4.969
 1435SOL     OW 4324   1.525   4.723   3.914
 1435SOL    HW1 4325   1.462   4.647   3.927
 1435SOL    HW2 4326   1.573   4.741   4.000
 1436SOL     OW 4327   0.598   4.453   3.994
 1436SOL    HW1 4328   0.622   4.522   3.926
 1436SOL    HW2 4329   0.520   4.486   4.048
 1437SOL     OW 4330   1.281   4.069   4.668
 1437SOL    HW1 4331   1.195   4.019   4.655
 1437SOL    HW2 4332   1.343   4.015   4.724
 1438SOL     OW 4333   1.041   4.425   4.153
 1438SOL    HW1 4334   1.067   4.421   4.249
 1438SOL    HW2 4335   0.956   4.374   4.139
 1439SOL     OW 4336   0.076   4.535   4.513
 1439SOL    HW1 4337   0.175   4.523   4.522
 1439SOL    HW2 4338   0.052   4.630   4.534
 1440SOL     OW 4339   0.865   4.072   3.919
 1440SOL    HW1 4340   0.924   4.135   3.870
 1440SOL    HW2 4341   0.884   3.978   3.890
 1441SOL     OW 4342   1.362   4.868   4.269
 1441SOL    HW1 4343   1.445   4.839   4.221
 1441SOL    HW2 4344   1.313   4.935   4.213
 1442SOL     OW 4345   0.550   3.920   4.609
 1442SOL    HW1 4346   0.545   3.915   4.709
 1442SOL    HW2 4347   0.552   4.016   4.580
 1443SOL     OW 4348   1.795   4.790   4.597
 1443SOL    HW1 4349   1.733   4.775   4.521
 1443SOL    HW2 4350   1.743   4.801   4.682
 1444SOL     OW 4351   0.321   4.667   3.966
 1444SOL    HW1 4352   0.403   4.706   3.924
 1444SOL    HW2 4353   0.294   4.585   3.917
 1445SOL     OW 4354   1.458   4.459   4.452
 1445SOL    HW1 4355   1.453   4.394   4.527
 1445SOL    HW2 4356   1.538   4.518   4.465
 1446SOL     OW 4357   1.400   3.831   4.150
 1446SOL    HW1 4358   1.376   3.794   4.060
 1446SOL    HW2 4359   1.499   3.847   4.154
 1447SOL     OW 4360   0.382   4.424   4.204
 1447SOL    HW1 4361   0.427   4.334   4.201
 1447SOL    HW2 4362   0.288   4.413   4.237
 1448SOL     OW 4363   0.614   3.846   3.841
 1448SOL    HW1 4364   0.712   3.824   3.848
 1448SOL    HW2 4365   0.583   3.829   3.748
 1449SOL     OW 4366   0.922   4.227   4.623
 1449SOL    HW1 4367   0.897   4.218   4.527
 1449SOL    HW2 4368   0.970   4.145   4.654
 1450SOL     OW 4369   0.539   3.788   4.236
 1450SOL    HW1 4370   0.458   3.789   4.294
 1450SOL    HW2 4371   0.542   3.871   4.181
 1451SOL     OW 4372   0.297   3.759   3.895
 1451SOL    HW1 4373   0.346   3.843   3.874
 1451SOL    HW2 4374   0.359   3.694   3.940
 1452SOL     OW 4375   0.935   3.960   4.204
 1452SOL    HW1 4376   0.887   4.001   4.126
 1452SOL    HW2 4377   1.034   3.958   4.185
 1453SOL     OW 4378   0.459   4.876   4.465
 1453SOL    HW1 4379   0.388   4.849   4.530
 1453SOL    HW2 4380   0.433   4.848   4.372
 1454SOL     OW 4381   1.032   4.273   3.740
 1454SOL    HW1 4382   0.991   4.355   3.701
 1454SOL    HW2 4383   1.096   4.299   3.813
 1455SOL     OW 4384   0.866   4.178   4.366
 1455SOL    HW1 4385   0.834   4.250   4.304
 1455SOL    HW2 4386   0.890   4.097   4.313
 1456SOL     OW 4387   1.017   3.763   4.477
 1456SOL    HW1 4388   0.945   3.768   4.408
 1456SOL    HW2 4389   0.993   3.694   4.546
 1457SOL     OW 4390   1.429   4.897   4.591
 1457SOL    HW1 4391   1.374   4.813   4.584
 1457SOL    HW2 4392   1.455   4.926   4.499
 1458SOL     OW 4393   1.466   4.314   4.716
 1458SOL    HW1 4394   1.436   4.219   4.723
 1458SOL    HW2 4395   1.539   4.330   4.782
 1459SOL     OW 4396   1.857   4.557   4.101
 1459SOL    HW1 4397   1.899   4.493   4.165
 1459SOL    HW2 4398   1.819   4.506   4.023
 1460SOL     OW 4399   1.390   4.299   3.802
 1460SOL    HW1 4400   1.336   4.278   3.883
 1460SOL    HW2 4401   1.481   4.258   3.811
 1461SOL     OW 4402   0.527   3.980   4.052
 1461SOL    HW1 4403   0.554   3.921   3.977
 1461SOL    HW2 4404   0.527   4.075   4.021
 1462SOL     OW 4405   1.638   4.823   4.803
 1462SOL    HW1 4406   1.643   4.904   4.862
 1462SOL    HW2 4407   1.552   4.825   4.752
 1463SOL     OW 4408   0.705   4.774   4.092
 1463SOL    HW1 4409   0.691   4.781   4.191
 1463SOL    HW2 4410   0.789   4.723   4.074
 1464SOL     OW 4411   0.410   4.537   4.975
 1464SOL    HW1 4412   0.496   4.549   5.025
 1464SOL    HW2 4413   0.368   4.450   5.002
 1465SOL     OW 4414   0.367   4.824   4.225
 1465SOL    HW1 4415   0.360   4.907   4.169
 1465SOL    HW2 4416   0.371   4.744   4.165
 1466SOL     OW 4417   0.566   4.261   4.589
 1466SOL    HW1 4418   0.578   4.327   4.515
 1466SOL    HW2 4419   0.612   4.295   4.672
 1467SOL     OW 4420   1.582   4.363   4.196
 1467SOL    HW1 4421   1.551   4.424   4.269
 1467SOL    HW2 4422   1.632   4.415   4.127
 1468SOL     OW 4423   0.573   4.594   4.753
 1468SOL    HW1 4424   0.617   4.683   4.744
 1468SOL    HW2 4425   0.510   4.594   4.830
 1469SOL     OW 4426   1.360   4.586   4.769
 1469SOL    HW1 4427   1.285   4.586   4.703
 1469SOL    HW2 4428   1.397   4.494   4.778
 1470SOL     OW 4429   1.209   4.249   3.999
 1470SOL    HW1 4430   1.222   4.165   4.053
 1470SOL    HW2 4431   1.180   4.323   4.059
 1471SOL     OW 4432   0.307   3.937   4.955
 1471SOL    HW1 4433   0.284   3.974   5.045
 1471SOL    HW2 4434   0.277   3.842   4.949
 1472SOL     OW 4435   0.037   5.034   5.006
 1472SOL    HW1 4436   0.090   4.985   5.074
 1472SOL    HW2 4437   0.059   5.132   5.011
 1473SOL     OW 4438   0.732   4.358   4.788
 1473SOL    HW1 4439   0.791   4.332   4.712
 1473SOL    HW2 4440   0.704   4.454   4.777
 1474SOL     OW 4441   0.307   3.787   4.342
 1474SOL    HW1 4442   0.296   3.881   4.375
 1474SOL    HW2 4443   0.302   3.724   4.419
 1475SOL     OW 4444   1.622   4.091   4.098
 1475SOL    HW1 4445   1.624   4.015   4.162
 1475SOL    HW2 4446   1.574   4.168   4.138
 1476SOL     OW 4447   1.023   4.490   4.690
 1476SOL    HW1 4448   1.038   4.511   4.786
 1476SOL    HW2 4449   0.993   4.395   4.681
 1477SOL     OW 4450   1.540   3.998   3.849
 1477SOL    HW1 4451   1.479   3.923   3.872
 1477SOL    HW2 4452   1.562   4.050   3.932
 1478SOL     OW 4453   1.303   4.562   3.766
 1478SOL    HW1 4454   1.337   4.469   3.781
 1478SOL    HW2 4455   1.321   4.589   3.671
 1479SOL     OW 4456   0.319   4.534   4.673
 1479SOL    HW1 4457   0.412   4.570   4.678
 1479SOL    HW2 4458   0.313   4.449   4.725
 1480SOL     OW 4459   0.339   4.233   4.730
 1480SOL    HW1 4460   0.287   4.150   4.713
 1480SOL    HW2 4461   0.416   4.238   4.666
 1481SOL     OW 4462   1.160   3.931   5.201
 1481SOL    HW1 4463   1.160   3.995   5.278
 1481SOL    HW2 4464   1.188   3.979   5.118
 1482SOL     OW 4465   1.002   4.520   4.962
 1482SOL    HW1 4466   1.043   4.488   5.048
 1482SOL    HW2 4467   0.906   4.493   4.959
 1483SOL     OW 4468   0.040   4.268   4.838
 1483SOL    HW1 4469   0.125   4.235   4.797
 1483SOL    HW2 4470   0.053   4.283   4.936
 1484SOL     OW 4471   0.815   4.296   4.049
 1484SOL    HW1 4472   0.822   4.207   4.003
 1484SOL    HW2 4473   0.721   4.330   4.041
 1485SOL     OW 4474   1.657   4.328   4.930
 1485SOL    HW1 4475   1.619   4.259   4.992
 1485SOL    HW2 4476   1.739   4.292   4.886
 1486SOL     OW 4477   0.671   4.188   4.993
 1486SOL    HW1 4478   0.637   4.099   4.963
 1486SOL    HW2 4479   0.697   4.242   4.913
 1487SOL     OW 4480   0.473   4.224   3.915
 1487SOL    HW1 4481   0.534   4.304   3.919
 1487SOL    HW2 4482   0.378   4.255   3.922
 1488SOL     OW 4483   1.347   4.783   4.958
 1488SOL    HW1 4484   1.371   4.720   4.884
 1488SOL    HW2 4485   1.257   4.823   4.940
 1489SOL     OW 4486   1.302   4.579   4.033
 1489SOL    HW1 4487   1.216   4.548   4.075
 1489SOL    HW2 4488   1.298   4.565   3.934
 1490SOL     OW 4489   0.083   4.982   4.746
 1490SOL    HW1 4490   0.078   4.981   4.846
 1490SOL    HW2 4491   0.000   4.941   4.708
 1491SOL     OW 4492   1.726   3.859   4.247
 1491SOL    HW1 4493   1.799   3.842   4.180
 1491SOL    HW2 4494   1.695   3.772   4.285
 1492SOL     OW 4495   1.280   4.651   4.396
 1492SOL    HW1 4496   1.340   4.570   4.398
 1492SOL    HW2 4497   1.320   4.720   4.336
 1493SOL     OW 4498   1.841   3.899   4.687
 1493SOL    HW1 4499   1.880   3.814   4.651
 1493SOL    HW2 4500   1.743   3.901   4.668
 1494SOL     OW 4501   0.263   4.050   4.444
 1494SOL    HW1 4502   0.184   4.101   4.410
 1494SOL    HW2 4503   0.254   4.035   4.542
 1495SOL     OW 4504   0.822   4.726   5.096
 1495SOL    HW1 4505   0.862   4.725   5.004
 1495SOL    HW2 4506   0.832   4.818   5.136
 1496SOL     OW 4507   0.916   4.634   4.015
 1496SOL    HW1 4508   0.979   4.672   3.947
 1496SOL    HW2 4509   0.956   4.551   4.054
 1497SOL     OW 4510   1.614   5.016   5.013
 1497SOL    HW1 4511   1.674   5.019   5.093
 1497SOL    HW2 4512   1.539   5.080   5.026
 1498SOL     OW 4513   1.039   4.822   4.420
 1498SOL    HW1 4514   0.969   4.775   4.474
 1498SOL    HW2 4515   1.098   4.754   4.377
 1499SOL     OW 4516   1.014   3.960   4.695
 1499SOL    HW1 4517   1.006   3.924   4.602
 1499SOL    HW2 4518   1.012   3.884   4.760
 1500SOL     OW 4519   1.709   4.109   5.105
 1500SOL    HW1 4520   1.782   4.178   5.109
 1500SOL    HW2 4521   1.737   4.034   5.046
 1501SOL     OW 4522   0.075   4.069   3.757
 1501SOL    HW1 4523  -0.017   4.041   3.728
 1501SOL    HW2 4524   0.106   4.146   3.701
 1502SOL     OW 4525   0.072   3.890   4.042
 1502SOL    HW1 4526   0.055   3.973   3.988
 1502SOL    HW2 4527   0.162   3.853   4.020
 1503SOL     OW 4528   1.674   4.607   4.978
 1503SOL    HW1 4529   1.647   4.518   4.941
 1503SOL    HW2 4530   1.675   4.675   4.905
 1504SOL     OW 4531   1.225   4.049   4.173
 1504SOL    HW1 4532   1.290   3.975   4.162
 1504SOL    HW2 4533   1.245   4.099   4.257
 1505SOL     OW 4534   0.594   4.469   4.376
 1505SOL    HW1 4535   0.644   4.554   4.357
 1505SOL    HW2 4536   0.506   4.471   4.328
 1506SOL     OW 4537   1.730   4.658   5.241
 1506SOL    HW1 4538   1.768   4.749   5.256
 1506SOL    HW2 4539   1.722   4.641   5.142
 1507SOL     OW 4540   0.859   4.680   4.585
 1507SOL    HW1 4541   0.913   4.611   4.633
 1507SOL    HW2 4542   0.827   4.749   4.651
 1508SOL     OW 4543   1.083   4.708   3.811
 1508SOL    HW1 4544   1.060   4.761   3.729
 1508SOL    HW2 4545   1.164   4.652   3.792
 1509SOL     OW 4546   0.079   4.964   4.377
 1509SOL    HW1 4547   0.078   4.917   4.465
 1509SOL    HW2 4548   0.161   4.936   4.326
 1510SOL     OW 4549   1.824   3.916   4.951
 1510SOL    HW1 4550   1.820   3.826   4.995
 1510SOL    HW2 4551   1.827   3.905   4.852
 1511SOL     OW 4552   0.428   4.148   4.244
 1511SOL    HW1 4553   0.458   4.076   4.182
 1511SOL    HW2 4554   0.389   4.108   4.327
 1512SOL     OW 4555   1.424   3.938   4.836
 1512SOL    HW1 4556   1.476   3.873   4.891
 1512SOL    HW2 4557   1.375   4.001   4.897
 1513SOL     OW 4558   1.001   3.758   4.878
 1513SOL    HW1 4559   0.938   3.686   4.847
 1513SOL    HW2 4560   1.094   3.722   4.878
 1514SOL     OW 4561   0.770   5.054   4.025
 1514SOL    HW1 4562   0.724   4.967   4.042
 1514SOL    HW2 4563   0.861   5.051   4.066
 1515SOL     OW 4564   1.352   3.776   3.892
 1515SOL    HW1 4565   1.387   3.735   3.808
 1515SOL    HW2 4566   1.262   3.738   3.912
 1516SOL     OW 4567   1.300   4.177   4.415
 1516SOL    HW1 4568   1.241   4.257   4.419
 1516SOL    HW2 4569   1.315   4.142   4.508
 1517SOL     OW 4570   1.593   3.945   4.606
 1517SOL    HW1 4571   1.509   3.944   4.660
 1517SOL    HW2 4572   1.595   4.028   4.550
 1518SOL     OW 4573   0.039   4.801   4.024
 1518SOL    HW1 4574   0.138   4.790   4.015
 1518SOL    HW2 4575  -0.001   4.715   4.056
 1519SOL     OW 4576   2.092   0.628   0.113
 1519SOL    HW1 4577   1.999   0.626   0.150
 1519SOL    HW2 4578   2.093   0.589   0.021
 1520SOL     OW 4579   2.087   0.275   0.996
 1520SOL    HW1 4580   2.122   0.258   1.088
 1520SOL    HW2 4581   1.999   0.230   0.984
 1521SOL     OW 4582   1.881   0.368   0.647
 1521SOL    HW1 4583   1.799   0.411   0.686
 1521SOL    HW2 4584   1.853   0.295   0.584
 1522SOL     OW 4585   2.431   1.275   1.165
 1522SOL    HW1 4586   2.338   1.268   1.128
 1522SOL    HW2 4587   2.442   1.364   1.209
 1523SOL     OW 4588   3.417   1.511   0.703
 1523SOL    HW1 4589   3.360   1.495   0.784
 1523SOL    HW2 4590   3.358   1.521   0.623
 1524SOL     OW 4591   2.997   0.703   0.717
 1524SOL    HW1 4592   3.054   0.781   0.692
 1524SOL    HW2 4593   2.937   0.729   0.793
 1525SOL     OW 4594   3.617   0.607   0.231
 1525SOL    HW1 4595   3.605   0.594   0.132
 1525SOL    HW2 4596   3.587   0.526   0.280
 1526SOL     OW 4597   2.630   1.144   1.023
 1526SOL    HW1 4598   2.552   1.161   1.083
 1526SOL    HW2 4599   2.664   1.231   0.987
 1527SOL     OW 4600   2.712   0.798   1.823
 1527SOL    HW1 4601   2.708   0.874   1.888
 1527SOL    HW2 4602   2.734   0.834   1.732
 1528SOL     OW 4603   2.547   1.012   0.665
 1528SOL    HW1 4604   2.616   0.996   0.735
 1528SOL    HW2 4605   2.474   1.069   0.703
 1529SOL     OW 4606   2.548   1.161   1.803
 1529SOL    HW1 4607   2.608   1.240   1.817
 1529SOL    HW2 4608   2.462   1.192   1.762
 1530SOL     OW 4609   2.197   1.435   1.061
 1530SOL    HW1 4610   2.119   1.404   1.008
 1530SOL    HW2 4611   2.255   1.493   1.004
 1531SOL     OW 4612   3.322   1.505   1.339
 1531SOL    HW1 4613   3.346   1.599   1.365
 1531SOL    HW2 4614   3.306   1.451   1.421
 1532SOL     OW 4615   2.300   0.392   1.499
 1532SOL    HW1 4616   2.382   0.336   1.508
 1532SOL    HW2 4617   2.219   0.334   1.503
 1533SOL     OW 4618   3.465   0.447   0.737
 1533SOL    HW1 4619   3.391   0.493   0.687
 1533SOL    HW2 4620   3.516   0.515   0.790
 1534SOL     OW 4621   2.093   1.713   0.483
 1534SOL    HW1 4622   2.127   1.790   0.537
 1534SOL    HW2 4623   2.137   1.713   0.393
 1535SOL     OW 4624   2.989   1.341   1.690
 1535SOL    HW1 4625   3.036   1.341   1.778
 1535SOL    HW2 4626   2.941   1.254   1.679
 1536SOL     OW 4627   2.092   1.434   0.538
 1536SOL    HW1 4628   2.066   1.530   0.538
 1536SOL    HW2 4629   2.021   1.380   0.583
 1537SOL     OW 4630   2.102   1.091   0.886
 1537SOL    HW1 4631   2.116   1.007   0.938
 1537SOL    HW2 4632   2.047   1.155   0.941
 1538SOL     OW 4633   2.482   1.786   1.439
 1538SOL    HW1 4634   2.390   1.769   1.474
 1538SOL    HW2 4635   2.510   1.878   1.465
 1539SOL     OW 4636   2.468   0.964   0.123
 1539SOL    HW1 4637   2.475   1.048   0.069
 1539SOL    HW2 4638   2.514   0.977   0.211
 1540SOL     OW 4639   3.456   0.114   1.480
 1540SOL    HW1 4640   3.438   0.181   1.408
 1540SOL    HW2 4641   3.453   0.160   1.569
 1541SOL     OW 4642   1.984   0.643   0.563
 1541SOL    HW1 4643   1.939   0.555   0.580
 1541SOL    HW2 4644   1.983   0.697   0.647
 1542SOL     OW 4645   3.704   1.767   0.359
 1542SOL    HW1 4646   3.758   1.738   0.439
 1542SOL    HW2 4647   3.734   1.857   0.330
 1543SOL     OW 4648   1.889   1.596   0.117
 1543SOL    HW1 4649   1.870   1.500   0.138
 1543SOL    HW2 4650   1.856   1.654   0.192
 1544SOL     OW 4651   3.551   0.922   0.612
 1544SOL    HW1 4652   3.646   0.893   0.620
 1544SOL    HW2 4653   3.543   0.987   0.537
 1545SOL     OW 4654   3.503   1.108   0.432
 1545SOL    HW1 4655   3.589   1.110   0.380
 1545SOL    HW2 4656   3.517   1.155   0.520
 1546SOL     OW 4657   1.975   0.737   1.597
 1546SOL    HW1 4658   2.063   0.724   1.642
 1546SOL    HW2 4659   1.962   0.834   1.575
 1547SOL     OW 4660   2.475   1.365   0.726
 1547SOL    HW1 4661   2.426   1.278   0.735
 1547SOL    HW2 4662   2.452   1.408   0.639
 1548SOL     OW 4663   3.155   1.228   1.423
 1548SOL    HW1 4664   3.192   1.155   1.365
 1548SOL    HW2 4665   3.207   1.233   1.508
 1549SOL     OW 4666   2.671   0.004   0.502
 1549SOL    HW1 4667   2.711   0.095   0.493
 1549SOL    HW2 4668   2.571   0.012   0.508
 1550SOL     OW 4669   2.059   0.976   1.264
 1550SOL    HW1 4670   2.148   0.931   1.250
 1550SOL    HW2 4671   1.986   0.911   1.245
 1551SOL     OW 4672   3.387   0.999   0.190
 1551SOL    HW1 4673   3.324   0.923   0.203
 1551SOL    HW2 4674   3.435   1.017   0.276
 1552SOL     OW 4675   3.049   1.792   1.616
 1552SOL    HW1 4676   3.073   1.852   1.540
 1552SOL    HW2 4677   3.056   1.697   1.586
 1553SOL     OW 4678   2.179   0.251   1.801
 1553SOL    HW1 4679   2.250   0.322   1.807
 1553SOL    HW2 4680   2.091   0.290   1.829
 1554SOL     OW 4681   3.328   1.417   0.953
 1554SOL    HW1 4682   3.269   1.423   1.033
 1554SOL    HW2 4683   3.313   1.329   0.907
 1555SOL     OW 4684   3.529   1.714   0.572
 1555SOL    HW1 4685   3.488   1.691   0.484
 1555SOL    HW2 4686   3.511   1.640   0.637
 1556SOL     OW 4687   2.460   0.729   0.270
 1556SOL    HW1 4688   2.484   0.798   0.202
 1556SOL    HW2 4689   2.382   0.762   0.324
 1557SOL     OW 4690   3.143   0.345   0.944
 1557SOL    HW1 4691   3.057   0.295   0.931
 1557SOL    HW2 4692   3.205   0.291   1.000
 1558SOL     OW 4693   3.438   1.662   0.307
 1558SOL    HW1 4694   3.527   1.708   0.310
 1558SOL    HW2 4695   3.417   1.638   0.212
 1559SOL     OW 4696   2.669   0.605   1.465
 1559SOL    HW1 4697   2.622   0.602   1.554
 1559SOL    HW2 4698   2.618   0.550   1.399
 1560SOL     OW 4699   3.256   0.469   1.674
 1560SOL    HW1 4700   3.236   0.512   1.762
 1560SOL    HW2 4701   3.334   0.407   1.683
 1561SOL     OW 4702   2.835   0.890   1.572
 1561SOL    HW1 4703   2.881   0.806   1.543
 1561SOL    HW2 4704   2.779   0.924   1.497
 1562SOL     OW 4705   2.853   0.410   1.242
 1562SOL    HW1 4706   2.776   0.444   1.296
 1562SOL    HW2 4707   2.819   0.359   1.163
 1563SOL     OW 4708   2.903   0.701   0.429
 1563SOL    HW1 4709   2.929   0.697   0.525
 1563SOL    HW2 4710   2.818   0.650   0.415
 1564SOL     OW 4711   1.938   0.811   0.789
 1564SOL    HW1 4712   2.037   0.799   0.798
 1564SOL    HW2 4713   1.914   0.906   0.810
 1565SOL     OW 4714   1.992   1.821   1.571
 1565SOL    HW1 4715   1.982   1.806   1.670
 1565SOL    HW2 4716   1.906   1.857   1.535
 1566SOL     OW 4717   2.727   0.348   0.195
 1566SOL    HW1 4718   2.786   0.411   0.146
 1566SOL    HW2 4719   2.746   0.254   0.166
 1567SOL     OW 4720   3.581   0.585   1.831
 1567SOL    HW1 4721   3.555   0.674   1.795
 1567SOL    HW2 4722   3.579   0.517   1.758
 1568SOL     OW 4723   3.224   1.144   0.545
 1568SOL    HW1 4724   3.307   1.115   0.497
 1568SOL    HW2 4725   3.175   1.211   0.489
 1569SOL     OW 4726   2.412   0.196   0.885
 1569SOL    HW1 4727   2.407   0.191   0.985
 1569SOL    HW2 4728   2.414   0.292   0.856
 1570SOL     OW 4729   2.870   1.456   0.477
 1570SOL    HW1 4730   2.824   1.528   0.425
 1570SOL    HW2 4731   2.866   1.476   0.575
 1571SOL     OW 4732   2.213   1.801   0.853
 1571SOL    HW1 4733   2.263   1.715   0.859
 1571SOL    HW2 4734   2.278   1.878   0.850
 1572SOL     OW 4735   3.657   1.066   0.873
 1572SOL    HW1 4736   3.595   1.051   0.797
 1572SOL    HW2 4737   3.605   1.077   0.958
 1573SOL     OW 4738   3.089   1.550   1.506
 1573SOL    HW1 4739   3.095   1.473   1.570
 1573SOL    HW2 4740   3.037   1.524   1.426
 1574SOL     OW 4741   2.183   0.943   0.242
 1574SOL    HW1 4742   2.265   0.982   0.200
 1574SOL    HW2 4743   2.156   0.861   0.193
 1575SOL     OW 4744   3.320   0.735   0.728
 1575SOL    HW1 4745   3.315   0.670   0.803
 1575SOL    HW2 4746   3.400   0.794   0.741
 1576SOL     OW 4747   2.323   1.266   1.727
 1576SOL    HW1 4748   2.273   1.267   1.641
 1576SOL    HW2 4749   2.260   1.248   1.803
 1577SOL     OW 4750   2.973   1.776   0.237
 1577SOL    HW1 4751   2.913   1.714   0.287
 1577SOL    HW2 4752   3.004   1.732   0.152
 1578SOL     OW 4753   2.064   0.285   1.498
 1578SOL    HW1 4754   1.984   0.345   1.485
 1578SOL    HW2 4755   2.054   0.236   1.584
 1579SOL     OW 4756   3.494   1.377   0.081
 1579SOL    HW1 4757   3.462   1.471   0.071
 1579SOL    HW2 4758   3.418   1.314   0.069
 1580SOL     OW 4759   2.326   1.743   0.323
 1580SOL    HW1 4760   2.359   1.782   0.409
 1580SOL    HW2 4761   2.402   1.736   0.258
 1581SOL     OW 4762   3.262   0.107   0.426
 1581SOL    HW1 4763   3.238   0.070   0.336
 1581SOL    HW2 4764   3.361   0.123   0.430
 1582SOL     OW 4765   2.111   1.785   1.241
 1582SOL    HW1 4766   2.168   1.720   1.291
 1582SOL    HW2 4767   2.095   1.752   1.148
 1583SOL     OW 4768   2.802   1.698   0.904
 1583SOL    HW1 4769   2.882   1.641   0.925
 1583SOL    HW2 4770   2.753   1.658   0.827
 1584SOL     OW 4771   2.244   0.700   0.480
 1584SOL    HW1 4772   2.289   0.610   0.477
 1584SOL    HW2 4773   2.150   0.689   0.513
 1585SOL     OW 4774   3.409   0.222   1.729
 1585SOL    HW1 4775   3.404   0.259   1.821
 1585SOL    HW2 4776   3.337   0.153   1.717
 1586SOL     OW 4777   2.476   0.122   0.117
 1586SOL    HW1 4778   2.574   0.100   0.124
 1586SOL    HW2 4779   2.445   0.105   0.024
 1587SOL     OW 4780   2.643   0.264   1.749
 1587SOL    HW1 4781   2.710   0.203   1.792
 1587SOL    HW2 4782   2.570   0.283   1.814
 1588SOL     OW 4783   2.750   1.514   1.195
 1588SOL    HW1 4784   2.727   1.489   1.101
 1588SOL    HW2 4785   2.811   1.445   1.234
 1589SOL     OW 4786   3.213   0.590   1.433
 1589SOL    HW1 4787   3.241   0.547   1.518
 1589SOL    HW2 4788   3.238   0.686   1.434
 1590SOL     OW 4789   2.665   1.402   0.924
 1590SOL    HW1 4790   2.755   1.416   0.882
 1590SOL    HW2 4791   2.594   1.404   0.853
 1591SOL     OW 4792   2.784   0.503   0.899
 1591SOL    HW1 4793   2.759   0.494   0.803
 1591SOL    HW2 4794   2.832   0.421   0.930
 1592SOL     OW 4795   2.401   0.064   0.512
 1592SOL    HW1 4796   2.320   0.065   0.570
 1592SOL    HW2 4797   2.404   0.147   0.457
 1593SOL     OW 4798   3.296   1.188   0.041
 1593SOL    HW1 4799   3.328   1.112   0.098
 1593SOL    HW2 4800   3.204   1.215   0.071
 1594SOL     OW 4801   2.159   0.035   0.171
 1594SOL    HW1 4802   2.208   0.119   0.150
 1594SOL    HW2 4803   2.221  -0.030   0.216
 1595SOL     OW 4804   2.797   0.236   0.480
 1595SOL    HW1 4805   2.749   0.277   0.402
 1595SOL    HW2 4806   2.896   0.234   0.461
 1596SOL     OW 4807   2.938   0.683   1.464
 1596SOL    HW1 4808   2.858   0.622   1.467
 1596SOL    HW2 4809   3.019   0.630   1.440
 1597SOL     OW 4810   3.089   1.570   0.793
 1597SOL    HW1 4811   3.110   1.644   0.728
 1597SOL    HW2 4812   3.157   1.570   0.866
 1598SOL     OW 4813   2.321   1.152   0.741
 1598SOL    HW1 4814   2.250   1.125   0.806
 1598SOL    HW2 4815   2.295   1.124   0.648
 1599SOL     OW 4816   3.133   1.797   0.591
 1599SOL    HW1 4817   3.177   1.861   0.527
 1599SOL    HW2 4818   3.083   1.849   0.661
 1600SOL     OW 4819   2.894   0.549   0.016
 1600SOL    HW1 4820   2.853   0.631  -0.023
 1600SOL    HW2 4821   2.958   0.575   0.089
 1601SOL     OW 4822   1.940   0.556   1.386
 1601SOL    HW1 4823   2.032   0.555   1.345
 1601SOL    HW2 4824   1.934   0.630   1.453
 1602SOL     OW 4825   2.423   0.222   1.147
 1602SOL    HW1 4826   2.461   0.138   1.184
 1602SOL    HW2 4827   2.335   0.241   1.191
 1603SOL     OW 4828   2.728   0.454   0.642
 1603SOL    HW1 4829   2.696   0.526   0.580
 1603SOL    HW2 4830   2.752   0.373   0.589
 1604SOL     OW 4831   2.879   0.039   0.753
 1604SOL    HW1 4832   2.807   0.044   0.684
 1604SOL    HW2 4833   2.855  -0.030   0.822
 1605SOL     OW 4834   3.291   1.173   0.867
 1605SOL    HW1 4835   3.236   1.089   0.860
 1605SOL    HW2 4836   3.317   1.202   0.775
 1606SOL     OW 4837   3.328   0.590   0.992
 1606SOL    HW1 4838   3.298   0.495   0.999
 1606SOL    HW2 4839   3.401   0.606   1.058
 1607SOL     OW 4840   3.719   0.833   0.377
 1607SOL    HW1 4841   3.761   0.769   0.441
 1607SOL    HW2 4842   3.681   0.782   0.299
 1608SOL     OW 4843   2.350   1.385   0.174
 1608SOL    HW1 4844   2.263   1.370   0.221
 1608SOL    HW2 4845   2.333   1.411   0.079
 1609SOL     OW 4846   3.526   1.280   0.657
 1609SOL    HW1 4847   3.625   1.288   0.671
 1609SOL    HW2 4848   3.481   1.364   0.688
 1610SOL     OW 4849   3.252   0.575   0.078
 1610SOL    HW1 4850   3.198   0.554   0.159
 1610SOL    HW2 4851   3.343   0.534   0.087
 1611SOL     OW 4852   2.389   0.256   0.328
 1611SOL    HW1 4853   2.416   0.197   0.253
 1611SOL    HW2 4854   2.389   0.351   0.297
 1612SOL     OW 4855   3.616   1.223   1.588
 1612SOL    HW1 4856   3.707   1.184   1.575
 1612SOL    HW2 4857   3.624   1.319   1.612
 1613SOL     OW 4858   2.926   1.347   1.340
 1613SOL    HW1 4859   2.846   1.324   1.395
 1613SOL    HW2 4860   3.009   1.321   1.389
 1614SOL     OW 4861   3.454   1.629   1.625
 1614SOL    HW1 4862   3.481   1.663   1.535
 1614SOL    HW2 4863   3.533   1.591   1.671
 1615SOL     OW 4864   2.973   1.195   1.100
 1615SOL    HW1 4865   2.933   1.239   1.181
 1615SOL    HW2 4866   2.932   1.232   1.017
 1616SOL     OW 4867   3.500   1.099   1.079
 1616SOL    HW1 4868   3.505   1.180   1.138
 1616SOL    HW2 4869   3.414   1.101   1.028
 1617SOL     OW 4870   2.777   0.089   1.402
 1617SOL    HW1 4871   2.802   0.069   1.307
 1617SOL    HW2 4872   2.849   0.145   1.444
 1618SOL     OW 4873   2.842   1.116   1.719
 1618SOL    HW1 4874   2.743   1.122   1.729
 1618SOL    HW2 4875   2.865   1.036   1.663
 1619SOL     OW 4876   2.567   1.050   0.368
 1619SOL    HW1 4877   2.553   1.057   0.467
 1619SOL    HW2 4878   2.651   0.999   0.350
 1620SOL     OW 4879   2.272   0.813   1.251
 1620SOL    HW1 4880   2.358   0.825   1.301
 1620SOL    HW2 4881   2.230   0.726   1.278
 1621SOL     OW 4882   3.136   0.386   1.262
 1621SOL    HW1 4883   3.157   0.460   1.326
 1621SOL    HW2 4884   3.047   0.403   1.219
 1622SOL     OW 4885   1.926   1.564   1.331
 1622SOL    HW1 4886   1.880   1.646   1.297
 1622SOL    HW2 4887   2.024   1.583   1.340
 1623SOL     OW 4888   2.229   1.100   0.501
 1623SOL    HW1 4889   2.222   1.183   0.445
 1623SOL    HW2 4890   2.233   1.020   0.441
 1624SOL     OW 4891   2.428   0.537   0.865
 1624SOL    HW1 4892   2.440   0.603   0.791
 1624SOL    HW2 4893   2.474   0.571   0.948
 1625SOL     OW 4894   3.114   1.348   0.388
 1625SOL    HW1 4895   3.164   1.425   0.428
 1625SOL    HW2 4896   3.019   1.350   0.420
 1626SOL     OW 4897   3.134   1.445   1.142
 1626SOL    HW1 4898   3.181   1.458   1.229
 1626SOL    HW2 4899   3.068   1.371   1.151
 1627SOL     OW 4900   3.444   0.639   0.472
 1627SOL    HW1 4901   3.413   0.700   0.545
 1627SOL    HW2 4902   3.494   0.691   0.403
 1628SOL     OW 4903   2.216   1.510   1.329
 1628SOL    HW1 4904   2.195   1.466   1.242
 1628SOL    HW2 4905   2.313   1.536   1.332
 1629SOL     OW 4906   2.264   0.751   1.598
 1629SOL    HW1 4907   2.332   0.806   1.551
 1629SOL    HW2 4908   2.304   0.663   1.625
 1630SOL     OW 4909   3.449   0.779   1.670
 1630SOL    HW1 4910   3.357   0.817   1.665
 1630SOL    HW2 4911   3.509   0.826   1.605
 1631SOL     OW 4912   2.875   0.105   1.770
 1631SOL    HW1 4913   2.881   0.190   1.718
 1631SOL    HW2 4914   2.907   0.029   1.713
 1632SOL     OW 4915   2.366   0.050   1.740
 1632SOL    HW1 4916   2.324  -0.007   1.670
 1632SOL    HW2 4917   2.300   0.119   1.772
 1633SOL     OW 4918   2.435   0.870   1.029
 1633SOL    HW1 4919   2.479   0.959   1.020
 1633SOL    HW2 4920   2.372   0.870   1.106
 1634SOL     OW 4921   3.222   0.862   1.045
 1634SOL    HW1 4922   3.147   0.862   0.979
 1634SOL    HW2 4923   3.259   0.770   1.054
 1635SOL     OW 4924   3.071   0.525   0.275
 1635SOL    HW1 4925   3.084   0.441   0.329
 1635SOL    HW2 4926   3.042   0.599   0.335
 1636SOL     OW 4927   2.169   0.213   1.231
 1636SOL    HW1 4928   2.146   0.250   1.321
 1636SOL    HW2 4929   2.139   0.118   1.225
 1637SOL     OW 4930   1.899   1.310   1.282
 1637SOL    HW1 4931   1.952   1.261   1.350
 1637SOL    HW2 4932   1.921   1.408   1.287
 1638SOL     OW 4933   2.594   0.634   1.064
 1638SOL    HW1 4934   2.653   0.608   0.988
 1638SOL    HW2 4935   2.566   0.730   1.053
 1639SOL     OW 4936   3.590   0.935   1.854
 1639SOL    HW1 4937   3.544   0.928   1.765
 1639SOL    HW2 4938   3.528   0.979   1.920
 1640SOL     OW 4939   2.169   0.063   0.618
 1640SOL    HW1 4940   2.158   0.157   0.651
 1640SOL    HW2 4941   2.164   0.000   0.695
 1641SOL     OW 4942   3.484   0.367   0.374
 1641SOL    HW1 4943   3.486   0.291   0.438
 1641SOL    HW2 4944   3.436   0.444   0.414
 1642SOL     OW 4945   2.885   0.766   0.966
 1642SOL    HW1 4946   2.900   0.787   1.062
 1642SOL    HW2 4947   2.855   0.671   0.957
 1643SOL     OW 4948   2.842   1.573   1.700
 1643SOL    HW1 4949   2.822   1.617   1.612
 1643SOL    HW2 4950   2.881   1.482   1.684
 1644SOL     OW 4951   3.721   1.518   1.605
 1644SOL    HW1 4952   3.735   1.545   1.510
 1644SOL    HW2 4953   3.804   1.540   1.658
 1645SOL     OW 4954   2.212   0.898   1.804
 1645SOL    HW1 4955   2.288   0.942   1.852
 1645SOL    HW2 4956   2.247   0.851   1.722
 1646SOL     OW 4957   3.402   0.274   0.125
 1646SOL    HW1 4958   3.341   0.199   0.148
 1646SOL    HW2 4959   3.424   0.326   0.208
 1647SOL     OW 4960   3.165   0.838   0.042
 1647SOL    HW1 4961   3.199   0.745   0.057
 1647SOL    HW2 4962   3.183   0.865  -0.053
 1648SOL     OW 4963   2.930   1.333   0.849
 1648SOL    HW1 4964   2.937   1.249   0.794
 1648SOL    HW2 4965   2.992   1.402   0.813
 1649SOL     OW 4966   2.181   0.810   0.949
 1649SOL    HW1 4967   2.274   0.846   0.954
 1649SOL    HW2 4968   2.175   0.725   1.001
 1650SOL     OW 4969   2.201   0.509   1.006
 1650SOL    HW1 4970   2.149   0.426   0.989
 1650SOL    HW2 4971   2.278   0.514   0.942
 1651SOL     OW 4972   3.000   0.380   1.678
 1651SOL    HW1 4973   2.955   0.443   1.742
 1651SOL    HW2 4974   3.093   0.411   1.661
 1652SOL     OW 4975   3.022   0.207   1.477
 1652SOL    HW1 4976   3.022   0.271   1.554
 1652SOL    HW2 4977   3.050   0.255   1.394
 1653SOL     OW 4978   1.870   1.326   0.200
 1653SOL    HW1 4979   1.777   1.347   0.169
 1653SOL    HW2 4980   1.880   1.227   0.213
 1654SOL     OW 4981   1.950   1.801   0.927
 1654SOL    HW1 4982   1.908   1.715   0.900
 1654SOL    HW2 4983   2.044   1.804   0.893
 1655SOL     OW 4984   2.366   1.568   0.910
 1655SOL    HW1 4985   2.432   1.642   0.919
 1655SOL    HW2 4986   2.410   1.489   0.868
 1656SOL     OW 4987   2.864   0.796   1.238
 1656SOL    HW1 4988   2.905   0.764   1.324
 1656SOL    HW2 4989   2.768   0.769   1.235
 1657SOL     OW 4990   1.902   0.544   1.114
 1657SOL    HW1 4991   1.987   0.511   1.073
 1657SOL    HW2 4992   1.915   0.559   1.212
 1658SOL     OW 4993   2.051   0.520   1.722
 1658SOL    HW1 4994   2.110   0.480   1.652
 1658SOL    HW2 4995   1.993   0.591   1.681
 1659SOL     OW 4996   3.231   0.950   1.660
 1659SOL    HW1 4997   3.270   1.039   1.680
 1659SOL    HW2 4998   3.241   0.930   1.563
 1660SOL     OW 4999   2.677   0.572   0.325
 1660SOL    HW1 5000   2.684   0.483   0.279
 1660SOL    HW2 5001   2.583   0.606   0.317
 1661SOL     OW 5002   3.519   0.604   1.206
 1661SOL    HW1 5003   3.481   0.535   1.268
 1661SOL    HW2 5004   3.601   0.568   1.162
 1662SOL     OW 5005   2.114   1.564   1.744
 1662SOL    HW1 5006   2.084   1.621   1.820
 1662SOL    HW2 5007   2.107   1.467   1.770
 1663SOL     OW 5008   2.533   0.464   1.269
 1663SOL    HW1 5009   2.499   0.375   1.239
 1663SOL    HW2 5010   2.559   0.518   1.189
 1664SOL     OW 5011   2.792   1.678   1.465
 1664SOL    HW1 5012   2.768   1.660   1.370
 1664SOL    HW2 5013   2.822   1.772   1.475
 1665SOL     OW 5014   2.335   0.500   0.191
 1665SOL    HW1 5015   2.396   0.580   0.195
 1665SOL    HW2 5016   2.240   0.531   0.198
 1666SOL     OW 5017   2.021   1.137   1.466
 1666SOL    HW1 5018   2.043   1.076   1.542
 1666SOL    HW2 5019   2.031   1.088   1.380
 1667SOL     OW 5020   3.209   1.059   1.234
 1667SOL    HW1 5021   3.233   0.996   1.160
 1667SOL    HW2 5022   3.119   1.099   1.216
 1668SOL     OW 5023   3.164   0.855   0.309
 1668SOL    HW1 5024   3.078   0.824   0.351
 1668SOL    HW2 5025   3.160   0.841   0.210
 1669SOL     OW 5026   3.621   1.747   1.154
 1669SOL    HW1 5027   3.682   1.777   1.081
 1669SOL    HW2 5028   3.583   1.658   1.132
 1670SOL     OW 5029   3.114   1.731   1.128
 1670SOL    HW1 5030   3.198   1.736   1.074
 1670SOL    HW2 5031   3.091   1.635   1.146
 1671SOL     OW 5032   1.945   1.258   1.022
 1671SOL    HW1 5033   1.940   1.257   1.122
 1671SOL    HW2 5034   1.862   1.217   0.984
 1672SOL     OW 5035   2.550   1.662   1.716
 1672SOL    HW1 5036   2.494   1.743   1.725
 1672SOL    HW2 5037   2.602   1.666   1.630
 1673SOL     OW 5038   2.765   0.086   0.133
 1673SOL    HW1 5039   2.816   0.087   0.047
 1673SOL    HW2 5040   2.821   0.044   0.204
 1674SOL     OW 5041   3.588   0.135   0.523
 1674SOL    HW1 5042   3.661   0.118   0.456
 1674SOL    HW2 5043   3.557   0.048   0.561
 1675SOL     OW 5044   3.250   1.573   0.477
 1675SOL    HW1 5045   3.317   1.585   0.403
 1675SOL    HW2 5046   3.210   1.662   0.500
 1676SOL     OW 5047   1.992   1.794   1.851
 1676SOL    HW1 5048   1.951   1.720   1.904
 1676SOL    HW2 5049   2.056   1.845   1.909
 1677SOL     OW 5050   3.142   0.927   0.672
 1677SOL    HW1 5051   3.202   0.846   0.674
 1677SOL    HW2 5052   3.182   0.996   0.612
 1678SOL     OW 5053   2.692   1.273   1.422
 1678SOL    HW1 5054   2.687   1.306   1.517
 1678SOL    HW2 5055   2.606   1.292   1.376
 1679SOL     OW 5056   2.534   1.616   0.154
 1679SOL    HW1 5057   2.543   1.626   0.055
 1679SOL    HW2 5058   2.494   1.527   0.175
 1680SOL     OW 5059   3.512   1.720   1.394
 1680SOL    HW1 5060   3.565   1.730   1.310
 1680SOL    HW2 5061   3.485   1.810   1.428
 1681SOL     OW 5062   3.703   0.175   0.963
 1681SOL    HW1 5063   3.742   0.090   0.927
 1681SOL    HW2 5064   3.605   0.177   0.944
 1682SOL     OW 5065   2.125   0.326   0.720
 1682SOL    HW1 5066   2.046   0.377   0.686
 1682SOL    HW2 5067   2.116   0.311   0.818
 1683SOL     OW 5068   3.056   1.612   0.031
 1683SOL    HW1 5069   3.062   1.519   0.068
 1683SOL    HW2 5070   2.997   1.612  -0.049
 1684SOL     OW 5071   2.684   1.002   1.372
 1684SOL    HW1 5072   2.724   1.001   1.280
 1684SOL    HW2 5073   2.694   1.094   1.412
 1685SOL     OW 5074   2.778   0.910   0.291
 1685SOL    HW1 5075   2.841   0.948   0.223
 1685SOL    HW2 5076   2.818   0.827   0.330
 1686SOL     OW 5077   3.366   1.607   0.044
 1686SOL    HW1 5078   3.274   1.644   0.051
 1686SOL    HW2 5079   3.404   1.627  -0.046
 1687SOL     OW 5080   2.234   1.288   1.490
 1687SOL    HW1 5081   2.221   1.381   1.456
 1687SOL    HW2 5082   2.150   1.236   1.477
 1688SOL     OW 5083   3.476   1.292   1.289
 1688SOL    HW1 5084   3.536   1.295   1.369
 1688SOL    HW2 5085   3.401   1.356   1.302
 1689SOL     OW 5086   2.901   1.098   0.696
 1689SOL    HW1 5087   2.831   1.051   0.750
 1689SOL    HW2 5088   2.960   1.030   0.653
 1690SOL     OW 5089   2.876   0.236   0.971
 1690SOL    HW1 5090   2.868   0.200   0.878
 1690SOL    HW2 5091   2.874   0.160   1.036
 1691SOL     OW 5092   2.452   1.487   0.491
 1691SOL    HW1 5093   2.494   1.429   0.421
 1691SOL    HW2 5094   2.408   1.566   0.447
 1692SOL     OW 5095   3.571   0.385   1.381
 1692SOL    HW1 5096   3.644   0.454   1.385
 1692SOL    HW2 5097   3.599   0.310   1.322
 1693SOL     OW 5098   2.117   1.348   0.290
 1693SOL    HW1 5099   2.021   1.349   0.263
 1693SOL    HW2 5100   2.129   1.401   0.374
 1694SOL     OW 5101   1.967   1.013   1.726
 1694SOL    HW1 5102   1.890   0.980   1.780
 1694SOL    HW2 5103   2.052   0.983   1.768
 1695SOL     OW 5104   2.534   0.203   1.489
 1695SOL    HW1 5105   2.624   0.187   1.449
 1695SOL    HW2 5106   2.542   0.208   1.588
 1696SOL     OW 5107   3.302   0.856   1.398
 1696SOL    HW1 5108   3.245   0.908   1.335
 1696SOL    HW2 5109   3.398   0.868   1.374
 1697SOL     OW 5110   1.934   0.166   0.318
 1697SOL    HW1 5111   1.917   0.249   0.264
 1697SOL    HW2 5112   2.024   0.129   0.296
 1698SOL     OW 5113   3.045   1.335   0.119
 1698SOL    HW1 5114   2.946   1.324   0.121
 1698SOL    HW2 5115   3.079   1.350   0.212
 1699SOL     OW 5116   2.475   0.842   1.431
 1699SOL    HW1 5117   2.531   0.923   1.414
 1699SOL    HW2 5118   2.534   0.762   1.434
 1700SOL     OW 5119   3.355   1.767   0.959
 1700SOL    HW1 5120   3.388   1.831   0.890
 1700SOL    HW2 5121   3.421   1.761   1.034
 1701SOL     OW 5122   2.578   0.565   1.708
 1701SOL    HW1 5123   2.597   0.630   1.782
 1701SOL    HW2 5124   2.638   0.485   1.717
 1702SOL     OW 5125   3.312   1.220   1.633
 1702SOL    HW1 5126   3.303   1.210   1.732
 1702SOL    HW2 5127   3.408   1.213   1.607
 1703SOL     OW 5128   2.252   1.741   1.560
 1703SOL    HW1 5129   2.161   1.782   1.558
 1703SOL    HW2 5130   2.245   1.647   1.592
 1704SOL     OW 5131   3.536   0.883   1.254
 1704SOL    HW1 5132   3.509   0.794   1.217
 1704SOL    HW2 5133   3.537   0.951   1.181
 1705SOL     OW 5134   3.087   0.325   0.449
 1705SOL    HW1 5135   3.152   0.251   0.438
 1705SOL    HW2 5136   3.107   0.375   0.533
 1706SOL     OW 5137   2.456   0.745   0.652
 1706SOL    HW1 5138   2.506   0.830   0.633
 1706SOL    HW2 5139   2.368   0.747   0.604
 1707SOL     OW 5140   3.639   0.342   1.642
 1707SOL    HW1 5141   3.622   0.373   1.548
 1707SOL    HW2 5142   3.555   0.305   1.680
 1708SOL     OW 5143   3.592   0.934   1.517
 1708SOL    HW1 5144   3.630   1.025   1.532
 1708SOL    HW2 5145   3.584   0.917   1.418
 1709SOL     OW 5146   2.721   1.374   0.016
 1709SOL    HW1 5147   2.675   1.389   0.104
 1709SOL    HW2 5148   2.765   1.459  -0.014
 1710SOL     OW 5149   2.523   1.790   0.953
 1710SOL    HW1 5150   2.477   1.878   0.940
 1710SOL    HW2 5151   2.622   1.802   0.946
 1711SOL     OW 5152   2.721   0.956   0.861
 1711SOL    HW1 5153   2.775   0.887   0.909
 1711SOL    HW2 5154   2.689   1.025   0.927
 1712SOL     OW 5155   2.945   0.984   0.087
 1712SOL    HW1 5156   2.922   1.037   0.005
 1712SOL    HW2 5157   3.026   0.928   0.068
 1713SOL     OW 5158   3.723   1.569   0.851
 1713SOL    HW1 5159   3.652   1.557   0.781
 1713SOL    HW2 5160   3.724   1.490   0.911
 1714SOL     OW 5161   2.083   1.314   1.844
 1714SOL    HW1 5162   2.018   1.241   1.823
 1714SOL    HW2 5163   2.087   1.328   1.942
 1715SOL     OW 5164   1.941   1.240   0.653
 1715SOL    HW1 5165   1.940   1.193   0.741
 1715SOL    HW2 5166   2.023   1.212   0.602
 1716SOL     OW 5167   2.534   1.391   1.624
 1716SOL    HW1 5168   2.456   1.341   1.662
 1716SOL    HW2 5169   2.531   1.486   1.655
 1717SOL     OW 5170   3.686   0.192   1.227
 1717SOL    HW1 5171   3.682   0.102   1.271
 1717SOL    HW2 5172   3.689   0.181   1.128
 1718SOL     OW 5173   2.290   0.424   0.520
 1718SOL    HW1 5174   2.320   0.352   0.458
 1718SOL    HW2 5175   2.251   0.384   0.603
 1719SOL     OW 5176   3.567   1.487   1.104
 1719SOL    HW1 5177   3.474   1.462   1.077
 1719SOL    HW2 5178   3.593   1.437   1.186
 1720SOL     OW 5179   2.179   0.547   1.280
 1720SOL    HW1 5180   2.217   0.488   1.352
 1720SOL    HW2 5181   2.219   0.521   1.192
 1721SOL     OW 5182   2.674   1.586   0.687
 1721SOL    HW1 5183   2.706   1.596   0.593
 1721SOL    HW2 5184   2.595   1.524   0.689
 1722SOL     OW 5185   3.286   0.214   1.112
 1722SOL    HW1 5186   3.338   0.149   1.167
 1722SOL    HW2 5187   3.237   0.277   1.173
 1723SOL     OW 5188   2.863   0.034   1.154
 1723SOL    HW1 5189   2.800  -0.038   1.123
 1723SOL    HW2 5190   2.956  -0.002   1.154
 1724SOL     OW 5191   2.632   1.330   0.301
 1724SOL    HW1 5192   2.586   1.243   0.318
 1724SOL    HW2 5193   2.723   1.327   0.342
 1725SOL     OW 5194   2.480   1.567   1.284
 1725SOL    HW1 5195   2.475   1.649   1.341
 1725SOL    HW2 5196   2.569   1.564   1.239
 1726SOL     OW 5197   3.214   0.052   0.168
 1726SOL    HW1 5198   3.249   0.011   0.084
 1726SOL    HW2 5199   3.124   0.014   0.188
 1727SOL     OW 5200   3.162   0.453   0.691
 1727SOL    HW1 5201   3.103   0.533   0.695
 1727SOL    HW2 5202   3.177   0.418   0.784
 1728SOL     OW 5203   3.455   0.221   0.882
 1728SOL    HW1 5204   3.371   0.220   0.936
 1728SOL    HW2 5205   3.457   0.304   0.826
 1729SOL     OW 5206   2.737   1.646   0.337
 1729SOL    HW1 5207   2.660   1.611   0.283
 1729SOL    HW2 5208   2.705   1.717   0.399
 1730SOL     OW 5209   2.092   0.628   1.975
 1730SOL    HW1 5210   1.999   0.626   2.012
 1730SOL    HW2 5211   2.093   0.589   1.883
 1731SOL     OW 5212   2.087   0.275   2.858
 1731SOL    HW1 5213   2.122   0.258   2.950
 1731SOL    HW2 5214   1.999   0.230   2.846
 1732SOL     OW 5215   1.881   0.368   2.509
 1732SOL    HW1 5216   1.799   0.411   2.548
 1732SOL    HW2 5217   1.853   0.295   2.446
 1733SOL     OW 5218   2.431   1.275   3.027
 1733SOL    HW1 5219   2.338   1.268   2.990
 1733SOL    HW2 5220   2.442   1.364   3.071
 1734SOL     OW 5221   3.417   1.511   2.565
 1734SOL    HW1 5222   3.360   1.495   2.646
 1734SOL    HW2 5223   3.358   1.521   2.485
 1735SOL     OW 5224   2.997   0.703   2.579
 1735SOL    HW1 5225   3.054   0.781   2.554
 1735SOL    HW2 5226   2.937   0.729   2.655
 1736SOL     OW 5227   3.617   0.607   2.093
 1736SOL    HW1 5228   3.605   0.594   1.994
 1736SOL    HW2 5229   3.587   0.526   2.142
 1737SOL     OW 5230   2.630   1.144   2.885
 1737SOL    HW1 5231   2.552   1.161   2.945
 1737SOL    HW2 5232   2.664   1.231   2.849
 1738SOL     OW 5233   2.712   0.798   3.685
 1738SOL    HW1 5234   2.708   0.874   3.750
 1738SOL    HW2 5235   2.734   0.834   3.594
 1739SOL     OW 5236   2.547   1.012   2.527
 1739SOL    HW1 5237   2.616   0.996   2.597
 1739SOL    HW2 5238   2.474   1.069   2.565
 1740SOL     OW 5239   2.548   1.161   3.665
 1740SOL    HW1 5240   2.608   1.240   3.679
 1740SOL    HW2 5241   2.462   1.192   3.624
 1741SOL     OW 5242   2.197   1.435   2.923
 1741SOL    HW1 5243   2.119   1.404   2.870
 1741SOL    HW2 5244   2.255   1.493   2.866
 1742SOL     OW 5245   3.322   1.505   3.201
 1742SOL    HW1 5246   3.346   1.599   3.227
 1742SOL    HW2 5247   3.306   1.451   3.283
 1743SOL     OW 5248   2.300   0.392   3.361
 1743SOL    HW1 5249   2.382   0.336   3.370
 1743SOL    HW2 5250   2.219   0.334   3.365
 1744SOL     OW 5251   3.465   0.447   2.599
 1744SOL    HW1 5252   3.391   0.493   2.549
 1744SOL    HW2 5253   3.516   0.515   2.652
 1745SOL     OW 5254   2.093   1.713   2.345
 1745SOL    HW1 5255   2.127   1.790   2.399
 1745SOL    HW2 5256   2.137   1.713   2.255
 1746SOL     OW 5257   2.989   1.341   3.552
 1746SOL    HW1 5258   3.036   1.341   3.640
 1746SOL    HW2 5259   2.941   1.254   3.541
 1747SOL     OW 5260   2.092   1.434   2.400
 1747SOL    HW1 5261   2.066   1.530   2.400
 1747SOL    HW2 5262   2.021   1.380   2.445
 1748SOL     OW 5263   2.102   1.091   2.748
 1748SOL    HW1 5264   2.116   1.007   2.800
 1748SOL    HW2 5265   2.047   1.155   2.803
 1749SOL     OW 5266   2.482   1.786   3.301
 1749SOL    HW1 5267   2.390   1.769   3.336
 1749SOL    HW2 5268   2.510   1.878   3.327
 1750SOL     OW 5269   2.468   0.964   1.985
 1750SOL    HW1 5270   2.475   1.048   1.931
 1750SOL    HW2 5271   2.514   0.977   2.073
 1751SOL     OW 5272   3.456   0.114   3.342
 1751SOL    HW1 5273   3.438   0.181   3.270
 1751SOL    HW2 5274   3.453   0.160   3.431
 1752SOL     OW 5275   1.984   0.643   2.425
 1752SOL    HW1 5276   1.939   0.555   2.442
 1752SOL    HW2 5277   1.983   0.697   2.509
 1753SOL     OW 5278   3.704   1.767   2.221
 1753SOL    HW1 5279   3.758   1.738   2.301
 1753SOL    HW2 5280   3.734   1.857   2.192
 1754SOL     OW 5281   1.889   1.596   1.979
 1754SOL    HW1 5282   1.870   1.500   2.000
 1754SOL    HW2 5283   1.856   1.654   2.054
 1755SOL     OW 5284   3.551   0.922   2.474
 1755SOL    HW1 5285   3.646   0.893   2.482
 1755SOL    HW2 5286   3.543   0.987   2.399
 1756SOL     OW 5287   3.503   1.108   2.294
 1756SOL    HW1 5288   3.589   1.110   2.242
 1756SOL    HW2 5289   3.517   1.155   2.382
 1757SOL     OW 5290   1.975   0.737   3.459
 1757SOL    HW1 5291   2.063   0.724   3.504
 1757SOL    HW2 5292   1.962   0.834   3.437
 1758SOL     OW 5293   2.475   1.365   2.588
 1758SOL    HW1 5294   2.426   1.278   2.597
 1758SOL    HW2 5295   2.452   1.408   2.501
 1759SOL     OW 5296   3.155   1.228   3.285
 1759SOL    HW1 5297   3.192   1.155   3.227
 1759SOL    HW2 5298   3.207   1.233   3.370
 1760SOL     OW 5299   2.671   0.004   2.364
 1760SOL    HW1 5300   2.711   0.095   2.355
 1760SOL    HW2 5301   2.571   0.012   2.370
 1761SOL     OW 5302   2.059   0.976   3.126
 1761SOL    HW1 5303   2.148   0.931   3.112
 1761SOL    HW2 5304   1.986   0.911   3.107
 1762SOL     OW 5305   3.387   0.999   2.052
 1762SOL    HW1 5306   3.324   0.923   2.065
 1762SOL    HW2 5307   3.435   1.017   2.138
 1763SOL     OW 5308   3.049   1.792   3.478
 1763SOL    HW1 5309   3.073   1.852   3.402
 1763SOL    HW2 5310   3.056   1.697   3.448
 1764SOL     OW 5311   2.179   0.251   3.663
 1764SOL    HW1 5312   2.250   0.322   3.669
 1764SOL    HW2 5313   2.091   0.290   3.691
 1765SOL     OW 5314   3.328   1.417   2.815
 1765SOL    HW1 5315   3.269   1.423   2.895
 1765SOL    HW2 5316   3.313   1.329   2.769
 1766SOL     OW 5317   3.529   1.714   2.434
 1766SOL    HW1 5318   3.488   1.691   2.346
 1766SOL    HW2 5319   3.511   1.640   2.499
 1767SOL     OW 5320   2.460   0.729   2.132
 1767SOL    HW1 5321   2.484   0.798   2.064
 1767SOL    HW2 5322   2.382   0.762   2.186
 1768SOL     OW 5323   3.143   0.345   2.806
 1768SOL    HW1 5324   3.057   0.295   2.793
 1768SOL    HW2 5325   3.205   0.291   2.862
 1769SOL     OW 5326   3.438   1.662   2.169
 1769SOL    HW1 5327   3.527   1.708   2.172
 1769SOL    HW2 5328   3.417   1.638   2.074
 1770SOL     OW 5329   2.669   0.605   3.327
 1770SOL    HW1 5330   2.622   0.602   3.416
 1770SOL    HW2 5331   2.618   0.550   3.261
 1771SOL     OW 5332   3.256   0.469   3.536
 1771SOL    HW1 5333   3.236   0.512   3.624
 1771SOL    HW2 5334   3.334   0.407   3.545
 1772SOL     OW 5335   2.835   0.890   3.434
 1772SOL    HW1 5336   2.881   0.806   3.405
 1772SOL    HW2 5337   2.779   0.924   3.359
 1773SOL     OW 5338   2.853   0.410   3.104
 1773SOL    HW1 5339   2.776   0.444   3.158
 1773SOL    HW2 5340   2.819   0.359   3.025
 1774SOL     OW 5341   2.903   0.701   2.291
 1774SOL    HW1 5342   2.929   0.697   2.387
 1774SOL    HW2 5343   2.818   0.650   2.277
 1775SOL     OW 5344   1.938   0.811   2.651
 1775SOL    HW1 5345   2.037   0.799   2.660
 1775SOL    HW2 5346   1.914   0.906   2.672
 1776SOL     OW 5347   1.992   1.821   3.433
 1776SOL    HW1 5348   1.982   1.806   3.532
 1776SOL    HW2 5349   1.906   1.857   3.397
 1777SOL     OW 5350   2.727   0.348   2.057
 1777SOL    HW1 5351   2.786   0.411   2.008
 1777SOL    HW2 5352   2.746   0.254   2.028
 1778SOL     OW 5353   3.581   0.585   3.693
 1778SOL    HW1 5354   3.555   0.674   3.657
 1778SOL    HW2 5355   3.579   0.517   3.620
 1779SOL     OW 5356   3.224   1.144   2.407
 1779SOL    HW1 5357   3.307   1.115   2.359
 1779SOL    HW2 5358   3.175   1.211   2.351
 1780SOL     OW 5359   2.412   0.196   2.747
 1780SOL    HW1 5360   2.407   0.191   2.847
 1780SOL    HW2 5361   2.414   0.292   2.718
 1781SOL     OW 5362   2.870   1.456   2.339
 1781SOL    HW1 5363   2.824   1.528   2.287
 1781SOL    HW2 5364   2.866   1.476   2.437
 1782SOL     OW 5365   2.213   1.801   2.715
 1782SOL    HW1 5366   2.263   1.715   2.721
 1782SOL    HW2 5367   2.278   1.878   2.712
 1783SOL     OW 5368   3.657   1.066   2.735
 1783SOL    HW1 5369   3.595   1.051   2.659
 1783SOL    HW2 5370   3.605   1.077   2.820
 1784SOL     OW 5371   3.089   1.550   3.368
 1784SOL    HW1 5372   3.095   1.473   3.432
 1784SOL    HW2 5373   3.037   1.524   3.288
 1785SOL     OW 5374   2.183   0.943   2.104
 1785SOL    HW1 5375   2.265   0.982   2.062
 1785SOL    HW2 5376   2.156   0.861   2.055
 1786SOL     OW 5377   3.320   0.735   2.590
 1786SOL    HW1 5378   3.315   0.670   2.665
 1786SOL    HW2 5379   3.400   0.794   2.603
 1787SOL     OW 5380   2.323   1.266   3.589
 1787SOL    HW1 5381   2.273   1.267   3.503
 1787SOL    HW2 5382   2.260   1.248   3.665
 1788SOL     OW 5383   2.973   1.776   2.099
 1788SOL    HW1 5384   2.913   1.714   2.149
 1788SOL    HW2 5385   3.004   1.732   2.014
 1789SOL     OW 5386   2.064   0.285   3.360
 1789SOL    HW1 5387   1.984   0.345   3.347
 1789SOL    HW2 5388   2.054   0.236   3.446
 1790SOL     OW 5389   3.494   1.377   1.943
 1790SOL    HW1 5390   3.462   1.471   1.933
 1790SOL    HW2 5391   3.418   1.314   1.931
 1791SOL     OW 5392   2.326   1.743   2.185
 1791SOL    HW1 5393   2.359   1.782   2.271
 1791SOL    HW2 5394   2.402   1.736   2.120
 1792SOL     OW 5395   3.262   0.107   2.288
 1792SOL    HW1 5396   3.238   0.070   2.198
 1792SOL    HW2 5397   3.361   0.123   2.292
 1793SOL     OW 5398   2.111   1.785   3.103
 1793SOL    HW1 5399   2.168   1.720   3.153
 1793SOL    HW2 5400   2.095   1.752   3.010
 1794SOL     OW 5401   2.802   1.698   2.766
 1794SOL    HW1 5402   2.882   1.641   2.787
 1794SOL    HW2 5403   2.753   1.658   2.689
 1795SOL     OW 5404   2.244   0.700   2.342
 1795SOL    HW1 5405   2.289   0.610   2.339
 1795SOL    HW2 5406   2.150   0.689   2.375
 1796SOL     OW 5407   3.409   0.222   3.591
 1796SOL    HW1 5408   3.404   0.259   3.683
 1796SOL    HW2 5409   3.337   0.153   3.579
 1797SOL     OW 5410   2.476   0.122   1.979
 1797SOL    HW1 5411   2.574   0.100   1.986
 1797SOL    HW2 5412   2.445   0.105   1.886
 1798SOL     OW 5413   2.643   0.264   3.611
 1798SOL    HW1 5414   2.710   0.203   3.654
 1798SOL    HW2 5415   2.570   0.283   3.676
 1799SOL     OW 5416   2.750   1.514   3.057
 1799SOL    HW1 5417   2.727   1.489   2.963
 1799SOL    HW2 5418   2.811   1.445   3.096
 1800SOL     OW 5419   3.213   0.590   3.295
 1800SOL    HW1 5420   3.241   0.547   3.380
 1800SOL    HW2 5421   3.238   0.686   3.296
 1801SOL     OW 5422   2.665   1.402   2.786
 1801SOL    HW1 5423   2.755   1.416   2.744
 1801SOL    HW2 5424   2.594   1.404   2.715
 1802SOL     OW 5425   2.784   0.503   2.761
 1802SOL    HW1 5426   2.759   0.494   2.665
 1802SOL    HW2 5427   2.832   0.421   2.792
 1803SOL     OW 5428   2.401   0.064   2.374
 1803SOL    HW1 5429   2.320   0.065   2.432
 1803SOL    HW2 5430   2.404   0.147   2.319
 1804SOL     OW 5431   3.296   1.188   1.903
 1804SOL    HW1 5432   3.328   1.112   1.960
 1804SOL    HW2 5433   3.204   1.215   1.933
 1805SOL     OW 5434   2.159   0.035   2.033
 1805SOL    HW1 5435   2.208   0.119   2.012
 1805SOL    HW2 5436   2.221  -0.030   2.078
 1806SOL     OW 5437   2.797   0.236   2.342
 1806SOL    HW1 5438   2.749   0.277   2.264
 1806SOL    HW2 5439   2.896   0.234   2.323
 1807SOL     OW 5440   2.938   0.683   3.326
 1807SOL    HW1 5441   2.858   0.622   3.329
 1807SOL    HW2 5442   3.019   0.630   3.302
 1808SOL     OW 5443   3.089   1.570   2.655
 1808SOL    HW1 5444   3.110   1.644   2.590
 1808SOL    HW2 5445   3.157   1.570   2.728
 1809SOL     OW 5446   2.321   1.152   2.603
 1809SOL    HW1 5447   2.250   1.125   2.668
 1809SOL    HW2 5448   2.295   1.124   2.510
 1810SOL     OW 5449   3.133   1.797   2.453
 1810SOL    HW1 5450   3.177   1.861   2.389
 1810SOL    HW2 5451   3.083   1.849   2.523
 1811SOL     OW 5452   2.894   0.549   1.878
 1811SOL    HW1 5453   2.853   0.631   1.839
 1811SOL    HW2 5454   2.958   0.575   1.951
 1812SOL     OW 5455   1.940   0.556   3.248
 1812SOL    HW1 5456   2.032   0.555   3.207
 1812SOL    HW2 5457   1.934   0.630   3.315
 1813SOL     OW 5458   2.423   0.222   3.009
 1813SOL    HW1 5459   2.461   0.138   3.046
 1813SOL    HW2 5460   2.335   0.241   3.053
 1814SOL     OW 5461   2.728   0.454   2.504
 1814SOL    HW1 5462   2.696   0.526   2.442
 1814SOL    HW2 5463   2.752   0.373   2.451
 1815SOL     OW 5464   2.879   0.039   2.615
 1815SOL    HW1 5465   2.807   0.044   2.546
 1815SOL    HW2 5466   2.855  -0.030   2.684
 1816SOL     OW 5467   3.291   1.173   2.729
 1816SOL    HW1 5468   3.236   1.089   2.722
 1816SOL    HW2 5469   3.317   1.202   2.637
 1817SOL     OW 5470   3.328   0.590   2.854
 1817SOL    HW1 5471   3.298   0.495   2.861
 1817SOL    HW2 5472   3.401   0.606   2.920
 1818SOL     OW 5473   3.719   0.833   2.239
 1818SOL    HW1 5474   3.761   0.769   2.303
 1818SOL    HW2 5475   3.681   0.782   2.161
 1819SOL     OW 5476   2.350   1.385   2.036
 1819SOL    HW1 5477   2.263   1.370   2.083
 1819SOL    HW2 5478   2.333   1.411   1.941
 1820SOL     OW 5479   3.526   1.280   2.519
 1820SOL    HW1 5480   3.625   1.288   2.533
 1820SOL    HW2 5481   3.481   1.364   2.550
 1821SOL     OW 5482   3.252   0.575   1.940
 1821SOL    HW1 5483   3.198   0.554   2.021
 1821SOL    HW2 5484   3.343   0.534   1.949
 1822SOL     OW 5485   2.389   0.256   2.190
 1822SOL    HW1 5486   2.416   0.197   2.115
 1822SOL    HW2 5487   2.389   0.351   2.159
 1823SOL     OW 5488   3.616   1.223   3.450
 1823SOL    HW1 5489   3.707   1.184   3.437
 1823SOL    HW2 5490   3.624   1.319   3.474
 1824SOL     OW 5491   2.926   1.347   3.202
 1824SOL    HW1 5492   2.846   1.324   3.257
 1824SOL    HW2 5493   3.009   1.321   3.251
 1825SOL     OW 5494   3.454   1.629   3.487
 1825SOL    HW1 5495   3.481   1.663   3.397
 1825SOL    HW2 5496   3.533   1.591   3.533
 1826SOL     OW 5497   2.973   1.195   2.962
 1826SOL    HW1 5498   2.933   1.239   3.043
 1826SOL    HW2 5499   2.932   1.232   2.879
 1827SOL     OW 5500   3.500   1.099   2.941
 1827SOL    HW1 5501   3.505   1.180   3.000
 1827SOL    HW2 5502   3.414   1.101   2.890
 1828SOL     OW 5503   2.777   0.089   3.264
 1828SOL    HW1 5504   2.802   0.069   3.169
 1828SOL    HW2 5505   2.849   0.145   3.306
 1829SOL     OW 5506   2.842   1.116   3.581
 1829SOL    HW1 5507   2.743   1.122   3.591
 1829SOL    HW2 5508   2.865   1.036   3.525
 1830SOL     OW 5509   2.567   1.050   2.230
 1830SOL    HW1 5510   2.553   1.057   2.329
 1830SOL    HW2 5511   2.651   0.999   2.212
 1831SOL     OW 5512   2.272   0.813   3.113
 1831SOL    HW1 5513   2.358   0.825   3.163
 1831SOL    HW2 5514   2.230   0.726   3.140
 1832SOL     OW 5515   3.136   0.386   3.124
 1832SOL    HW1 5516   3.157   0.460   3.188
 1832SOL    HW2 5517   3.047   0.403   3.081
 1833SOL     OW 5518   1.926   1.564   3.193
 1833SOL    HW1 5519   1.880   1.646   3.159
 1833SOL    HW2 5520   2.024   1.583   3.202
 1834SOL     OW 5521   2.229   1.100   2.363
 1834SOL    HW1 5522   2.222   1.183   2.307
 1834SOL    HW2 5523   2.233   1.020   2.303
 1835SOL     OW 5524   2.428   0.537   2.727
 1835SOL    HW1 5525   2.440   0.603   2.653
 1835SOL    HW2 5526   2.474   0.571   2.810
 1836SOL     OW 5527   3.114   1.348   2.250
 1836SOL    HW1 5528   3.164   1.425   2.290
 1836SOL    HW2 5529   3.019   1.350   2.282
 1837SOL     OW 5530   3.134   1.445   3.004
 1837SOL    HW1 5531   3.181   1.458   3.091
 1837SOL    HW2 5532   3.068   1.371   3.013
 1838SOL     OW 5533   3.444   0.639   2.334
 1838SOL    HW1 5534   3.413   0.700   2.407
 1838SOL    HW2 5535   3.494   0.691   2.265
 1839SOL     OW 5536   2.216   1.510   3.191
 1839SOL    HW1 5537   2.195   1.466   3.104
 1839SOL    HW2 5538   2.313   1.536   3.194
 1840SOL     OW 5539   2.264   0.751   3.460
 1840SOL    HW1 5540   2.332   0.806   3.413
 1840SOL    HW2 5541   2.304   0.663   3.487
 1841SOL     OW 5542   3.449   0.779   3.532
 1841SOL    HW1 5543   3.357   0.817   3.527
 1841SOL    HW2 5544   3.509   0.826   3.467
 1842SOL     OW 5545   2.875   0.105   3.632
 1842SOL    HW1 5546   2.881   0.190   3.580
 1842SOL    HW2 5547   2.907   0.029   3.575
 1843SOL     OW 5548   2.366   0.050   3.602
 1843SOL    HW1 5549   2.324  -0.007   3.532
 1843SOL    HW2 5550   2.300   0.119   3.634
 1844SOL     OW 5551   2.435   0.870   2.891
 1844SOL    HW1 5552   2.479   0.959   2.882
 1844SOL    HW2 5553   2.372   0.870   2.968
 1845SOL     OW 5554   3.222   0.862   2.907
 1845SOL    HW1 5555   3.147   0.862   2.841
 1845SOL    HW2 5556   3.259   0.770   2.916
 1846SOL     OW 5557   3.071   0.525   2.137
 1846SOL    HW1 5558   3.084   0.441   2.191
 1846SOL    HW2 5559   3.042   0.599   2.197
 1847SOL     OW 5560   2.169   0.213   3.093
 1847SOL    HW1 5561   2.146   0.250   3.183
 1847SOL    HW2 5562   2.139   0.118   3.087
 1848SOL     OW 5563   1.899   1.310   3.144
 1848SOL    HW1 5564   1.952   1.261   3.212
 1848SOL    HW2 5565   1.921   1.408   3.149
 1849SOL     OW 5566   2.594   0.634   2.926
 1849SOL    HW1 5567   2.653   0.608   2.850
 1849SOL    HW2 5568   2.566   0.730   2.915
 1850SOL     OW 5569   3.590   0.935   3.716
 1850SOL    HW1 5570   3.544   0.928   3.627
 1850SOL    HW2 5571   3.528   0.979   3.782
 1851SOL     OW 5572   2.169   0.063   2.480
 1851SOL    HW1 5573   2.158   0.157   2.513
 1851SOL    HW2 5574   2.164   0.000   2.557
 1852SOL     OW 5575   3.484   0.367   2.236
 1852SOL    HW1 5576   3.486   0.291   2.300
 1852SOL    HW2 5577   3.436   0.444   2.276
 1853SOL     OW 5578   2.885   0.766   2.828
 1853SOL    HW1 5579   2.900   0.787   2.924
 1853SOL    HW2 5580   2.855   0.671   2.819
 1854SOL     OW 5581   2.842   1.573   3.562
 1854SOL    HW1 5582   2.822   1.617   3.474
 1854SOL    HW2 5583   2.881   1.482   3.546
 1855SOL     OW 5584   3.721   1.518   3.467
 1855SOL    HW1 5585   3.735   1.545   3.372
 1855SOL    HW2 5586   3.804   1.540   3.520
 1856SOL     OW 5587   2.212   0.898   3.666
 1856SOL    HW1 5588   2.288   0.942   3.714
 1856SOL    HW2 5589   2.247   0.851   3.584
 1857SOL     OW 5590   3.402   0.274   1.987
 1857SOL    HW1 5591   3.341   0.199   2.010
 1857SOL    HW2 5592   3.424   0.326   2.070
 1858SOL     OW 5593   3.165   0.838   1.904
 1858SOL    HW1 5594   3.199   0.745   1.919
 1858SOL    HW2 5595   3.183   0.865   1.809
 1859SOL     OW 5596   2.930   1.333   2.711
 1859SOL    HW1 5597   2.937   1.249   2.656
 1859SOL    HW2 5598   2.992   1.402   2.675
 1860SOL     OW 5599   2.181   0.810   2.811
 1860SOL    HW1 5600   2.274   0.846   2.816
 1860SOL    HW2 5601   2.175   0.725   2.863
 1861SOL     OW 5602   2.201   0.509   2.868
 1861SOL    HW1 5603   2.149   0.426   2.851
 1861SOL    HW2 5604   2.278   0.514   2.804
 1862SOL     OW 5605   3.000   0.380   3.540
 1862SOL    HW1 5606   2.955   0.443   3.604
 1862SOL    HW2 5607   3.093   0.411   3.523
 1863SOL     OW 5608   3.022   0.207   3.339
 1863SOL    HW1 5609   3.022   0.271   3.416
 1863SOL    HW2 5610   3.050   0.255   3.256
 1864SOL     OW 5611   1.870   1.326   2.062
 1864SOL    HW1 5612   1.777   1.347   2.031
 1864SOL    HW2 5613   1.880   1.227   2.075
 1865SOL     OW 5614   1.950   1.801   2.789
 1865SOL    HW1 5615   1.908   1.715   2.762
 1865SOL    HW2 5616   2.044   1.804   2.755
 1866SOL     OW 5617   2.366   1.568   2.772
 1866SOL    HW1 5618   2.432   1.642   2.781
 1866SOL    HW2 5619   2.410   1.489   2.730
 1867SOL     OW 5620   2.864   0.796   3.100
 1867SOL    HW1 5621   2.905   0.764   3.186
 1867SOL    HW2 5622   2.768   0.769   3.097
 1868SOL     OW 5623   1.902   0.544   2.976
 1868SOL    HW1 5624   1.987   0.511   2.935
 1868SOL    HW2 5625   1.915   0.559   3.074
 1869SOL     OW 5626   2.051   0.520   3.584
 1869SOL    HW1 5627   2.110   0.480   3.514
 1869SOL    HW2 5628   1.993   0.591   3.543
 1870SOL     OW 5629   3.231   0.950   3.522
 1870SOL    HW1 5630   3.270   1.039   3.542
 1870SOL    HW2 5631   3.241   0.930   3.425
 1871SOL     OW 5632   2.677   0.572   2.187
 1871SOL    HW1 5633   2.684   0.483   2.141
 1871SOL    HW2 5634   2.583   0.606   2.179
 1872SOL     OW 5635   3.519   0.604   3.068
 1872SOL    HW1 5636   3.481   0.535   3.130
 1872SOL    HW2 5637   3.601   0.568   3.024
 1873SOL     OW 5638   2.114   1.564   3.606
 1873SOL    HW1 5639   2.084   1.621   3.682
 1873SOL    HW2 5640   2.107   1.467   3.632
 1874SOL     OW 5641   2.533   0.464   3.131
 1874SOL    HW1 5642   2.499   0.375   3.101
 1874SOL    HW2 5643   2.559   0.518   3.051
 1875SOL     OW 5644   2.792   1.678   3.327
 1875SOL    HW1 5645   2.768   1.660   3.232
 1875SOL    HW2 5646   2.822   1.772   3.337
 1876SOL     OW 5647   2.335   0.500   2.053
 1876SOL    HW1 5648   2.396   0.580   2.057
 1876SOL    HW2 5649   2.240   0.531   2.060
 1877SOL     OW 5650   2.021   1.137   3.328
 1877SOL    HW1 5651   2.043   1.076   3.404
 1877SOL    HW2 5652   2.031   1.088   3.242
 1878SOL     OW 5653   3.209   1.059   3.096
 1878SOL    HW1 5654   3.233   0.996   3.022
 1878SOL    HW2 5655   3.119   1.099   3.078
 1879SOL     OW 5656   3.164   0.855   2.171
 1879SOL    HW1 5657   3.078   0.824   2.213
 1879SOL    HW2 5658   3.160   0.841   2.072
 1880SOL     OW 5659   3.621   1.747   3.016
 1880SOL    HW1 5660   3.682   1.777   2.943
 1880SOL    HW2 5661   3.583   1.658   2.994
 1881SOL     OW 5662   3.114   1.731   2.990
 1881SOL    HW1 5663   3.198   1.736   2.936
 1881SOL    HW2 5664   3.091   1.635   3.008
 1882SOL     OW 5665   1.945   1.258   2.884
 1882SOL    HW1 5666   1.940   1.257   2.984
 1882SOL    HW2 5667   1.862   1.217   2.846
 1883SOL     OW 5668   2.550   1.662   3.578
 1883SOL    HW1 5669   2.494   1.743   3.587
 1883SOL    HW2 5670   2.602   1.666   3.492
 1884SOL     OW 5671   3.588   0.135   2.385
 1884SOL    HW1 5672   3.661   0.118   2.318
 1884SOL    HW2 5673   3.557   0.048   2.423
 1885SOL     OW 5674   3.250   1.573   2.339
 1885SOL    HW1 5675   3.317   1.585   2.265
 1885SOL    HW2 5676   3.210   1.662   2.362
 1886SOL     OW 5677   1.992   1.794   3.713
 1886SOL    HW1 5678   1.951   1.720   3.766
 1886SOL    HW2 5679   2.056   1.845   3.771
 1887SOL     OW 5680   3.142   0.927   2.534
 1887SOL    HW1 5681   3.202   0.846   2.536
 1887SOL    HW2 5682   3.182   0.996   2.474
 1888SOL     OW 5683   2.692   1.273   3.284
 1888SOL    HW1 5684   2.687   1.306   3.379
 1888SOL    HW2 5685   2.606   1.292   3.238
 1889SOL     OW 5686   2.534   1.616   2.016
 1889SOL    HW1 5687   2.543   1.626   1.917
 1889SOL    HW2 5688   2.494   1.527   2.037
 1890SOL     OW 5689   3.512   1.720   3.256
 1890SOL    HW1 5690   3.565   1.730   3.172
 1890SOL    HW2 5691   3.485   1.810   3.290
 1891SOL     OW 5692   3.703   0.175   2.825
 1891SOL    HW1 5693   3.742   0.090   2.789
 1891SOL    HW2 5694   3.605   0.177   2.806
 1892SOL     OW 5695   2.125   0.326   2.582
 1892SOL    HW1 5696   2.046   0.377   2.548
 1892SOL    HW2 5697   2.116   0.311   2.680
 1893SOL     OW 5698   3.056   1.612   1.893
 1893SOL    HW1 5699   3.062   1.519   1.930
 1893SOL    HW2 5700   2.997   1.612   1.813
 1894SOL     OW 5701   2.684   1.002   3.234
 1894SOL    HW1 5702   2.724   1.001   3.142
 1894SOL    HW2 5703   2.694   1.094   3.274
 1895SOL     OW 5704   2.778   0.910   2.153
 1895SOL    HW1 5705   2.841   0.948   2.085
 1895SOL    HW2 5706   2.818   0.827   2.192
 1896SOL     OW 5707   3.366   1.607   1.906
 1896SOL    HW1 5708   3.274   1.644   1.913
 1896SOL    HW2 5709   3.404   1.627   1.816
 1897SOL     OW 5710   2.234   1.288   3.352
 1897SOL    HW1 5711   2.221   1.381   3.318
 1897SOL    HW2 5712   2.150   1.236   3.339
 1898SOL     OW 5713   3.476   1.292   3.151
 1898SOL    HW1 5714   3.536   1.295   3.231
 1898SOL    HW2 5715   3.401   1.356   3.164
 1899SOL     OW 5716   2.901   1.098   2.558
 1899SOL    HW1 5717   2.831   1.051   2.612
 1899SOL    HW2 5718   2.960   1.030   2.515
 1900SOL     OW 5719   2.876   0.236   2.833
 1900SOL    HW1 5720   2.868   0.200   2.740
 1900SOL    HW2 5721   2.874   0.160   2.898
 1901SOL     OW 5722   2.452   1.487   2.353
 1901SOL    HW1 5723   2.494   1.429   2.283
 1901SOL    HW2 5724   2.408   1.566   2.309
 1902SOL     OW 5725   3.571   0.385   3.243
 1902SOL    HW1 5726   3.644   0.454   3.247
 1902SOL    HW2 5727   3.599   0.310   3.184
 1903SOL     OW 5728   2.117   1.348   2.152
 1903SOL    HW1 5729   2.021   1.349   2.125
 1903SOL    HW2 5730   2.129   1.401   2.236
 1904SOL     OW 5731   1.967   1.013   3.588
 1904SOL    HW1 5732   1.890   0.980   3.642
 1904SOL    HW2 5733   2.052   0.983   3.630
 1905SOL     OW 5734   2.534   0.203   3.351
 1905SOL    HW1 5735   2.624   0.187   3.311
 1905SOL    HW2 5736   2.542   0.208   3.450
 1906SOL     OW 5737   1.937   0.345   1.895
 1906SOL    HW1 5738   1.845   0.317   1.866
 1906SOL    HW2 5739   1.968   0.422   1.839
 1907SOL     OW 5740   3.302   0.856   3.260
 1907SOL    HW1 5741   3.245   0.908   3.197
 1907SOL    HW2 5742   3.398   0.868   3.236
 1908SOL     OW 5743   1.934   0.166   2.180
 1908SOL    HW1 5744   1.917   0.249   2.126
 1908SOL    HW2 5745   2.024   0.129   2.158
 1909SOL     OW 5746   3.045   1.335   1.981
 1909SOL    HW1 5747   2.946   1.324   1.983
 1909SOL    HW2 5748   3.079   1.350   2.074
 1910SOL     OW 5749   2.475   0.842   3.293
 1910SOL    HW1 5750   2.531   0.923   3.276
 1910SOL    HW2 5751   2.534   0.762   3.296
 1911SOL     OW 5752   3.355   1.767   2.821
 1911SOL    HW1 5753   3.388   1.831   2.752
 1911SOL    HW2 5754   3.421   1.761   2.896
 1912SOL     OW 5755   2.578   0.565   3.570
 1912SOL    HW1 5756   2.597   0.630   3.644
 1912SOL    HW2 5757   2.638   0.485   3.579
 1913SOL     OW 5758   3.312   1.220   3.495
 1913SOL    HW1 5759   3.303   1.210   3.594
 1913SOL    HW2 5760   3.408   1.213   3.469
 1914SOL     OW 5761   2.252   1.741   3.422
 1914SOL    HW1 5762   2.161   1.782   3.420
 1914SOL    HW2 5763   2.245   1.647   3.454
 1915SOL     OW 5764   3.536   0.883   3.116
 1915SOL    HW1 5765   3.509   0.794   3.079
 1915SOL    HW2 5766   3.537   0.951   3.043
 1916SOL     OW 5767   3.087   0.325   2.311
 1916SOL    HW1 5768   3.152   0.251   2.300
 1916SOL    HW2 5769   3.107   0.375   2.395
 1917SOL     OW 5770   2.456   0.745   2.514
 1917SOL    HW1 5771   2.506   0.830   2.495
 1917SOL    HW2 5772   2.368   0.747   2.466
 1918SOL     OW 5773   3.639   0.342   3.504
 1918SOL    HW1 5774   3.622   0.373   3.410
 1918SOL    HW2 5775   3.555   0.305   3.542
 1919SOL     OW 5776   3.592   0.934   3.379
 1919SOL    HW1 5777   3.630   1.025   3.394
 1919SOL    HW2 5778   3.584   0.917   3.280
 1920SOL     OW 5779   2.721   1.374   1.878
 1920SOL    HW1 5780   2.675   1.389   1.966
 1920SOL    HW2 5781   2.765   1.459   1.848
 1921SOL     OW 5782   2.523   1.790   2.815
 1921SOL    HW1 5783   2.477   1.878   2.802
 1921SOL    HW2 5784   2.622   1.802   2.808
 1922SOL     OW 5785   2.721   0.956   2.723
 1922SOL    HW1 5786   2.775   0.887   2.771
 1922SOL    HW2 5787   2.689   1.025   2.789
 1923SOL     OW 5788   2.945   0.984   1.949
 1923SOL    HW1 5789   2.922   1.037   1.867
 1923SOL    HW2 5790   3.026   0.928   1.930
 1924SOL     OW 5791   3.723   1.569   2.713
 1924SOL    HW1 5792   3.652   1.557   2.643
 1924SOL    HW2 5793   3.724   1.490   2.773
 1925SOL     OW 5794   2.083   1.314   3.706
 1925SOL    HW1 5795   2.018   1.241   3.685
 1925SOL    HW2 5796   2.087   1.328   3.804
 1926SOL     OW 5797   1.941   1.240   2.515
 1926SOL    HW1 5798   1.940   1.193   2.603
 1926SOL    HW2 5799   2.023   1.212   2.464
 1927SOL     OW 5800   2.534   1.391   3.486
 1927SOL    HW1 5801   2.456   1.341   3.524
 1927SOL    HW2 5802   2.531   1.486   3.517
 1928SOL     OW 5803   3.686   0.192   3.089
 1928SOL    HW1 5804   3.682   0.102   3.133
 1928SOL    HW2 5805   3.689   0.181   2.990
 1929SOL     OW 5806   2.290   0.424   2.382
 1929SOL    HW1 5807   2.320   0.352   2.320
 1929SOL    HW2 5808   2.251   0.384   2.465
 1930SOL     OW 5809   3.567   1.487   2.966
 1930SOL    HW1 5810   3.474   1.462   2.939
 1930SOL    HW2 5811   3.593   1.437   3.048
 1931SOL     OW 5812   2.179   0.547   3.142
 1931SOL    HW1 5813   2.217   0.488   3.214
 1931SOL    HW2 5814   2.219   0.521   3.054
 1932SOL     OW 5815   2.674   1.586   2.549
 1932SOL    HW1 5816   2.706   1.596   2.455
 1932SOL    HW2 5817   2.595   1.524   2.551
 1933SOL     OW 5818   3.286   0.214   2.974
 1933SOL    HW1 5819   3.338   0.149   3.029
 1933SOL    HW2 5820   3.237   0.277   3.035
 1934SOL     OW 5821   2.863   0.034   3.016
 1934SOL    HW1 5822   2.800  -0.038   2.985
 1934SOL    HW2 5823   2.956  -0.002   3.016
 1935SOL     OW 5824   2.632   1.330   2.163
 1935SOL    HW1 5825   2.586   1.243   2.180
 1935SOL    HW2 5826   2.723   1.327   2.204
 1936SOL     OW 5827   2.480   1.567   3.146
 1936SOL    HW1 5828   2.475   1.649   3.203
 1936SOL    HW2 5829   2.569   1.564   3.101
 1937SOL     OW 5830   3.214   0.052   2.030
 1937SOL    HW1 5831   3.249   0.011   1.946
 1937SOL    HW2 5832   3.124   0.014   2.050
 1938SOL     OW 5833   3.162   0.453   2.553
 1938SOL    HW1 5834   3.103   0.533   2.557
 1938SOL    HW2 5835   3.177   0.418   2.646
 1939SOL     OW 5836   3.455   0.221   2.744
 1939SOL    HW1 5837   3.371   0.220   2.798
 1939SOL    HW2 5838   3.457   0.304   2.688
 1940SOL     OW 5839   1.901   1.077   2.162
 1940SOL    HW1 5840   2.000   1.066   2.153
 1940SOL    HW2 5841   1.861   0.991   2.194
 1941SOL     OW 5842   2.737   1.646   2.199
 1941SOL    HW1 5843   2.660   1.611   2.145
 1941SOL    HW2 5844   2.705   1.717   2.261
 1942SOL     OW 5845   2.092   0.628   3.837
 1942SOL    HW1 5846   1.999   0.626   3.874
 1942SOL    HW2 5847   2.093   0.589   3.745
 1943SOL     OW 5848   2.087   0.275   4.720
 1943SOL    HW1 5849   2.122   0.258   4.812
 1943SOL    HW2 5850   1.999   0.230   4.708
 1944SOL     OW 5851   1.881   0.368   4.371
 1944SOL    HW1 5852   1.799   0.411   4.410
 1944SOL    HW2 5853   1.853   0.295   4.308
 1945SOL     OW 5854   2.431   1.275   4.889
 1945SOL    HW1 5855   2.338   1.268   4.852
 1945SOL    HW2 5856   2.442   1.364   4.933
 1946SOL     OW 5857   3.417   1.511   4.427
 1946SOL    HW1 5858   3.360   1.495   4.508
 1946SOL    HW2 5859   3.358   1.521   4.347
 1947SOL     OW 5860   2.997   0.703   4.441
 1947SOL    HW1 5861   3.054   0.781   4.416
 1947SOL    HW2 5862   2.937   0.729   4.517
 1948SOL     OW 5863   3.617   0.607   3.955
 1948SOL    HW1 5864   3.605   0.594   3.856
 1948SOL    HW2 5865   3.587   0.526   4.004
 1949SOL     OW 5866   2.630   1.144   4.747
 1949SOL    HW1 5867   2.552   1.161   4.807
 1949SOL    HW2 5868   2.664   1.231   4.711
 1950SOL     OW 5869   2.547   1.012   4.389
 1950SOL    HW1 5870   2.616   0.996   4.459
 1950SOL    HW2 5871   2.474   1.069   4.427
 1951SOL     OW 5872   2.197   1.435   4.785
 1951SOL    HW1 5873   2.119   1.404   4.732
 1951SOL    HW2 5874   2.255   1.493   4.728
 1952SOL     OW 5875   3.465   0.447   4.461
 1952SOL    HW1 5876   3.391   0.493   4.411
 1952SOL    HW2 5877   3.516   0.515   4.514
 1953SOL     OW 5878   2.093   1.713   4.207
 1953SOL    HW1 5879   2.127   1.790   4.261
 1953SOL    HW2 5880   2.137   1.713   4.117
 1954SOL     OW 5881   2.092   1.434   4.262
 1954SOL    HW1 5882   2.066   1.530   4.262
 1954SOL    HW2 5883   2.021   1.380   4.307
 1955SOL     OW 5884   2.102   1.091   4.610
 1955SOL    HW1 5885   2.116   1.007   4.662
 1955SOL    HW2 5886   2.047   1.155   4.665
 1956SOL     OW 5887   2.468   0.964   3.847
 1956SOL    HW1 5888   2.475   1.048   3.793
 1956SOL    HW2 5889   2.514   0.977   3.935
 1957SOL     OW 5890   1.984   0.643   4.287
 1957SOL    HW1 5891   1.939   0.555   4.304
 1957SOL    HW2 5892   1.983   0.697   4.371
 1958SOL     OW 5893   3.704   1.767   4.083
 1958SOL    HW1 5894   3.758   1.738   4.163
 1958SOL    HW2 5895   3.734   1.857   4.054
 1959SOL     OW 5896   1.889   1.596   3.841
 1959SOL    HW1 5897   1.870   1.500   3.862
 1959SOL    HW2 5898   1.856   1.654   3.916
 1960SOL     OW 5899   3.551   0.922   4.336
 1960SOL    HW1 5900   3.646   0.893   4.344
 1960SOL    HW2 5901   3.543   0.987   4.261
 1961SOL     OW 5902   3.503   1.108   4.156
 1961SOL    HW1 5903   3.589   1.110   4.104
 1961SOL    HW2 5904   3.517   1.155   4.244
 1962SOL     OW 5905   2.475   1.365   4.450
 1962SOL    HW1 5906   2.426   1.278   4.459
 1962SOL    HW2 5907   2.452   1.408   4.363
 1963SOL     OW 5908   2.671   0.004   4.226
 1963SOL    HW1 5909   2.711   0.095   4.217
 1963SOL    HW2 5910   2.571   0.012   4.232
 1964SOL     OW 5911   2.059   0.976   4.988
 1964SOL    HW1 5912   2.148   0.931   4.974
 1964SOL    HW2 5913   1.986   0.911   4.969
 1965SOL     OW 5914   3.387   0.999   3.914
 1965SOL    HW1 5915   3.324   0.923   3.927
 1965SOL    HW2 5916   3.435   1.017   4.000
 1966SOL     OW 5917   3.328   1.417   4.677
 1966SOL    HW1 5918   3.269   1.423   4.757
 1966SOL    HW2 5919   3.313   1.329   4.631
 1967SOL     OW 5920   3.529   1.714   4.296
 1967SOL    HW1 5921   3.488   1.691   4.208
 1967SOL    HW2 5922   3.511   1.640   4.361
 1968SOL     OW 5923   2.460   0.729   3.994
 1968SOL    HW1 5924   2.484   0.798   3.926
 1968SOL    HW2 5925   2.382   0.762   4.048
 1969SOL     OW 5926   3.143   0.345   4.668
 1969SOL    HW1 5927   3.057   0.295   4.655
 1969SOL    HW2 5928   3.205   0.291   4.724
 1970SOL     OW 5929   3.438   1.662   4.031
 1970SOL    HW1 5930   3.527   1.708   4.034
 1970SOL    HW2 5931   3.417   1.638   3.936
 1971SOL     OW 5932   2.903   0.701   4.153
 1971SOL    HW1 5933   2.929   0.697   4.249
 1971SOL    HW2 5934   2.818   0.650   4.139
 1972SOL     OW 5935   1.938   0.811   4.513
 1972SOL    HW1 5936   2.037   0.799   4.522
 1972SOL    HW2 5937   1.914   0.906   4.534
 1973SOL     OW 5938   2.727   0.348   3.919
 1973SOL    HW1 5939   2.786   0.411   3.870
 1973SOL    HW2 5940   2.746   0.254   3.890
 1974SOL     OW 5941   3.224   1.144   4.269
 1974SOL    HW1 5942   3.307   1.115   4.221
 1974SOL    HW2 5943   3.175   1.211   4.213
 1975SOL     OW 5944   2.412   0.196   4.609
 1975SOL    HW1 5945   2.407   0.191   4.709
 1975SOL    HW2 5946   2.414   0.292   4.580
 1976SOL     OW 5947   2.870   1.456   4.201
 1976SOL    HW1 5948   2.824   1.528   4.149
 1976SOL    HW2 5949   2.866   1.476   4.299
 1977SOL     OW 5950   2.213   1.801   4.577
 1977SOL    HW1 5951   2.263   1.715   4.583
 1977SOL    HW2 5952   2.278   1.878   4.574
 1978SOL     OW 5953   3.657   1.066   4.597
 1978SOL    HW1 5954   3.595   1.051   4.521
 1978SOL    HW2 5955   3.605   1.077   4.682
 1979SOL     OW 5956   2.183   0.943   3.966
 1979SOL    HW1 5957   2.265   0.982   3.924
 1979SOL    HW2 5958   2.156   0.861   3.917
 1980SOL     OW 5959   3.320   0.735   4.452
 1980SOL    HW1 5960   3.315   0.670   4.527
 1980SOL    HW2 5961   3.400   0.794   4.465
 1981SOL     OW 5962   2.973   1.776   3.961
 1981SOL    HW1 5963   2.913   1.714   4.011
 1981SOL    HW2 5964   3.004   1.732   3.876
 1982SOL     OW 5965   3.494   1.377   3.805
 1982SOL    HW1 5966   3.462   1.471   3.795
 1982SOL    HW2 5967   3.418   1.314   3.793
 1983SOL     OW 5968   2.326   1.743   4.047
 1983SOL    HW1 5969   2.359   1.782   4.133
 1983SOL    HW2 5970   2.402   1.736   3.982
 1984SOL     OW 5971   3.262   0.107   4.150
 1984SOL    HW1 5972   3.238   0.070   4.060
 1984SOL    HW2 5973   3.361   0.123   4.154
 1985SOL     OW 5974   2.111   1.785   4.965
 1985SOL    HW1 5975   2.168   1.720   5.015
 1985SOL    HW2 5976   2.095   1.752   4.872
 1986SOL     OW 5977   2.802   1.698   4.628
 1986SOL    HW1 5978   2.882   1.641   4.649
 1986SOL    HW2 5979   2.753   1.658   4.551
 1987SOL     OW 5980   2.244   0.700   4.204
 1987SOL    HW1 5981   2.289   0.610   4.201
 1987SOL    HW2 5982   2.150   0.689   4.237
 1988SOL     OW 5983   2.476   0.122   3.841
 1988SOL    HW1 5984   2.574   0.100   3.848
 1988SOL    HW2 5985   2.445   0.105   3.748
 1989SOL     OW 5986   2.665   1.402   4.648
 1989SOL    HW1 5987   2.755   1.416   4.606
 1989SOL    HW2 5988   2.594   1.404   4.577
 1990SOL     OW 5989   2.784   0.503   4.623
 1990SOL    HW1 5990   2.759   0.494   4.527
 1990SOL    HW2 5991   2.832   0.421   4.654
 1991SOL     OW 5992   2.401   0.064   4.236
 1991SOL    HW1 5993   2.320   0.065   4.294
 1991SOL    HW2 5994   2.404   0.147   4.181
 1992SOL     OW 5995   3.296   1.188   3.765
 1992SOL    HW1 5996   3.328   1.112   3.822
 1992SOL    HW2 5997   3.204   1.215   3.795
 1993SOL     OW 5998   2.159   0.035   3.895
 1993SOL    HW1 5999   2.208   0.119   3.874
 1993SOL    HW2 6000   2.221  -0.030   3.940
 1994SOL     OW 6001   2.797   0.236   4.204
 1994SOL    HW1 6002   2.749   0.277   4.126
 1994SOL    HW2 6003   2.896   0.234   4.185
 1995SOL     OW 6004   3.089   1.570   4.517
 1995SOL    HW1 6005   3.110   1.644   4.452
 1995SOL    HW2 6006   3.157   1.570   4.590
 1996SOL     OW 6007   2.321   1.152   4.465
 1996SOL    HW1 6008   2.250   1.125   4.530
 1996SOL    HW2 6009   2.295   1.124   4.372
 1997SOL     OW 6010   3.133   1.797   4.315
 1997SOL    HW1 6011   3.177   1.861   4.251
 1997SOL    HW2 6012   3.083   1.849   4.385
 1998SOL     OW 6013   2.894   0.549   3.740
 1998SOL    HW1 6014   2.853   0.631   3.701
 1998SOL    HW2 6015   2.958   0.575   3.813
 1999SOL     OW 6016   2.728   0.454   4.366
 1999SOL    HW1 6017   2.696   0.526   4.304
 1999SOL    HW2 6018   2.752   0.373   4.313
 2000SOL     OW 6019   2.879   0.039   4.477
 2000SOL    HW1 6020   2.807   0.044   4.408
 2000SOL    HW2 6021   2.855  -0.030   4.546
 2001SOL     OW 6022   3.291   1.173   4.591
 2001SOL    HW1 6023   3.236   1.089   4.584
 2001SOL    HW2 6024   3.317   1.202   4.499
 2002SOL     OW 6025   3.328   0.590   4.716
 2002SOL    HW1 6026   3.298   0.495   4.723
 2002SOL    HW2 6027   3.401   0.606   4.782
 2003SOL     OW 6028   3.719   0.833   4.101
 2003SOL    HW1 6029   3.761   0.769   4.165
 2003SOL    HW2 6030   3.681   0.782   4.023
 2004SOL     OW 6031   2.350   1.385   3.898
 2004SOL    HW1 6032   2.263   1.370   3.945
 2004SOL    HW2 6033   2.333   1.411   3.803
 2005SOL     OW 6034   3.526   1.280   4.381
 2005SOL    HW1 6035   3.625   1.288   4.395
 2005SOL    HW2 6036   3.481   1.364   4.412
 2006SOL     OW 6037   3.252   0.575   3.802
 2006SOL    HW1 6038   3.198   0.554   3.883
 2006SOL    HW2 6039   3.343   0.534   3.811
 2007SOL     OW 6040   2.389   0.256   4.052
 2007SOL    HW1 6041   2.416   0.197   3.977
 2007SOL    HW2 6042   2.389   0.351   4.021
 2008SOL     OW 6043   2.973   1.195   4.824
 2008SOL    HW1 6044   2.933   1.239   4.905
 2008SOL    HW2 6045   2.932   1.232   4.741
 2009SOL     OW 6046   3.500   1.099   4.803
 2009SOL    HW1 6047   3.505   1.180   4.862
 2009SOL    HW2 6048   3.414   1.101   4.752
 2010SOL     OW 6049   2.567   1.050   4.092
 2010SOL    HW1 6050   2.553   1.057   4.191
 2010SOL    HW2 6051   2.651   0.999   4.074
 2011SOL     OW 6052   2.272   0.813   4.975
 2011SOL    HW1 6053   2.358   0.825   5.025
 2011SOL    HW2 6054   2.230   0.726   5.002
 2012SOL     OW 6055   2.229   1.100   4.225
 2012SOL    HW1 6056   2.222   1.183   4.169
 2012SOL    HW2 6057   2.233   1.020   4.165
 2013SOL     OW 6058   2.428   0.537   4.589
 2013SOL    HW1 6059   2.440   0.603   4.515
 2013SOL    HW2 6060   2.474   0.571   4.672
 2014SOL     OW 6061   3.114   1.348   4.112
 2014SOL    HW1 6062   3.164   1.425   4.152
 2014SOL    HW2 6063   3.019   1.350   4.144
 2015SOL     OW 6064   3.134   1.445   4.866
 2015SOL    HW1 6065   3.181   1.458   4.953
 2015SOL    HW2 6066   3.068   1.371   4.875
 2016SOL     OW 6067   3.444   0.639   4.196
 2016SOL    HW1 6068   3.413   0.700   4.269
 2016SOL    HW2 6069   3.494   0.691   4.127
 2017SOL     OW 6070   2.435   0.870   4.753
 2017SOL    HW1 6071   2.479   0.959   4.744
 2017SOL    HW2 6072   2.372   0.870   4.830
 2018SOL     OW 6073   3.222   0.862   4.769
 2018SOL    HW1 6074   3.147   0.862   4.703
 2018SOL    HW2 6075   3.259   0.770   4.778
 2019SOL     OW 6076   3.071   0.525   3.999
 2019SOL    HW1 6077   3.084   0.441   4.053
 2019SOL    HW2 6078   3.042   0.599   4.059
 2020SOL     OW 6079   2.169   0.213   4.955
 2020SOL    HW1 6080   2.146   0.250   5.045
 2020SOL    HW2 6081   2.139   0.118   4.949
 2021SOL     OW 6082   2.594   0.634   4.788
 2021SOL    HW1 6083   2.653   0.608   4.712
 2021SOL    HW2 6084   2.566   0.730   4.777
 2022SOL     OW 6085   2.169   0.063   4.342
 2022SOL    HW1 6086   2.158   0.157   4.375
 2022SOL    HW2 6087   2.164   0.000   4.419
 2023SOL     OW 6088   3.484   0.367   4.098
 2023SOL    HW1 6089   3.486   0.291   4.162
 2023SOL    HW2 6090   3.436   0.444   4.138
 2024SOL     OW 6091   2.885   0.766   4.690
 2024SOL    HW1 6092   2.900   0.787   4.786
 2024SOL    HW2 6093   2.855   0.671   4.681
 2025SOL     OW 6094   3.402   0.274   3.849
 2025SOL    HW1 6095   3.341   0.199   3.872
 2025SOL    HW2 6096   3.424   0.326   3.932
 2026SOL     OW 6097   3.165   0.838   3.766
 2026SOL    HW1 6098   3.199   0.745   3.781
 2026SOL    HW2 6099   3.183   0.865   3.671
 2027SOL     OW 6100   2.930   1.333   4.573
 2027SOL    HW1 6101   2.937   1.249   4.518
 2027SOL    HW2 6102   2.992   1.402   4.537
 2028SOL     OW 6103   2.181   0.810   4.673
 2028SOL    HW1 6104   2.274   0.846   4.678
 2028SOL    HW2 6105   2.175   0.725   4.725
 2029SOL     OW 6106   2.201   0.509   4.730
 2029SOL    HW1 6107   2.149   0.426   4.713
 2029SOL    HW2 6108   2.278   0.514   4.666
 2030SOL     OW 6109   3.022   0.207   5.201
 2030SOL    HW1 6110   3.022   0.271   5.278
 2030SOL    HW2 6111   3.050   0.255   5.118
 2031SOL     OW 6112   1.870   1.326   3.924
 2031SOL    HW1 6113   1.777   1.347   3.893
 2031SOL    HW2 6114   1.880   1.227   3.937
 2032SOL     OW 6115   1.950   1.801   4.651
 2032SOL    HW1 6116   1.908   1.715   4.624
 2032SOL    HW2 6117   2.044   1.804   4.617
 2033SOL     OW 6118   2.366   1.568   4.634
 2033SOL    HW1 6119   2.432   1.642   4.643
 2033SOL    HW2 6120   2.410   1.489   4.592
 2034SOL     OW 6121   2.864   0.796   4.962
 2034SOL    HW1 6122   2.905   0.764   5.048
 2034SOL    HW2 6123   2.768   0.769   4.959
 2035SOL     OW 6124   1.902   0.544   4.838
 2035SOL    HW1 6125   1.987   0.511   4.797
 2035SOL    HW2 6126   1.915   0.559   4.936
 2036SOL     OW 6127   2.677   0.572   4.049
 2036SOL    HW1 6128   2.684   0.483   4.003
 2036SOL    HW2 6129   2.583   0.606   4.041
 2037SOL     OW 6130   3.519   0.604   4.930
 2037SOL    HW1 6131   3.481   0.535   4.992
 2037SOL    HW2 6132   3.601   0.568   4.886
 2038SOL     OW 6133   2.533   0.464   4.993
 2038SOL    HW1 6134   2.499   0.375   4.963
 2038SOL    HW2 6135   2.559   0.518   4.913
 2039SOL     OW 6136   2.335   0.500   3.915
 2039SOL    HW1 6137   2.396   0.580   3.919
 2039SOL    HW2 6138   2.240   0.531   3.922
 2040SOL     OW 6139   2.021   1.137   5.190
 2040SOL    HW1 6140   2.043   1.076   5.266
 2040SOL    HW2 6141   2.031   1.088   5.104
 2041SOL     OW 6142   3.164   0.855   4.033
 2041SOL    HW1 6143   3.078   0.824   4.075
 2041SOL    HW2 6144   3.160   0.841   3.934
 2042SOL     OW 6145   3.621   1.747   4.878
 2042SOL    HW1 6146   3.682   1.777   4.805
 2042SOL    HW2 6147   3.583   1.658   4.856
 2043SOL     OW 6148   1.945   1.258   4.746
 2043SOL    HW1 6149   1.940   1.257   4.846
 2043SOL    HW2 6150   1.862   1.217   4.708
 2044SOL     OW 6151   3.588   0.135   4.247
 2044SOL    HW1 6152   3.661   0.118   4.180
 2044SOL    HW2 6153   3.557   0.048   4.285
 2045SOL     OW 6154   3.250   1.573   4.201
 2045SOL    HW1 6155   3.317   1.585   4.127
 2045SOL    HW2 6156   3.210   1.662   4.224
 2046SOL     OW 6157   3.142   0.927   4.396
 2046SOL    HW1 6158   3.202   0.846   4.398
 2046SOL    HW2 6159   3.182   0.996   4.336
 2047SOL     OW 6160   2.534   1.616   3.878
 2047SOL    HW1 6161   2.543   1.626   3.779
 2047SOL    HW2 6162   2.494   1.527   3.899
 2048SOL     OW 6163   3.703   0.175   4.687
 2048SOL    HW1 6164   3.742   0.090   4.651
 2048SOL    HW2 6165   3.605   0.177   4.668
 2049SOL     OW 6166   2.125   0.326   4.444
 2049SOL    HW1 6167   2.046   0.377   4.410
 2049SOL    HW2 6168   2.116   0.311   4.542
 2050SOL     OW 6169   3.056   1.612   3.755
 2050SOL    HW1 6170   3.062   1.519   3.792
 2050SOL    HW2 6171   2.997   1.612   3.675
 2051SOL     OW 6172   2.684   1.002   5.096
 2051SOL    HW1 6173   2.724   1.001   5.004
 2051SOL    HW2 6174   2.694   1.094   5.136
 2052SOL     OW 6175   2.778   0.910   4.015
 2052SOL    HW1 6176   2.841   0.948   3.947
 2052SOL    HW2 6177   2.818   0.827   4.054
 2053SOL     OW 6178   3.366   1.607   3.768
 2053SOL    HW1 6179   3.274   1.644   3.775
 2053SOL    HW2 6180   3.404   1.627   3.678
 2054SOL     OW 6181   2.901   1.098   4.420
 2054SOL    HW1 6182   2.831   1.051   4.474
 2054SOL    HW2 6183   2.960   1.030   4.377
 2055SOL     OW 6184   2.876   0.236   4.695
 2055SOL    HW1 6185   2.868   0.200   4.602
 2055SOL    HW2 6186   2.874   0.160   4.760
 2056SOL     OW 6187   2.452   1.487   4.215
 2056SOL    HW1 6188   2.494   1.429   4.145
 2056SOL    HW2 6189   2.408   1.566   4.171
 2057SOL     OW 6190   3.571   0.385   5.105
 2057SOL    HW1 6191   3.644   0.454   5.109
 2057SOL    HW2 6192   3.599   0.310   5.046
 2058SOL     OW 6193   2.117   1.348   4.014
 2058SOL    HW1 6194   2.021   1.349   3.987
 2058SOL    HW2 6195   2.129   1.401   4.098
 2059SOL     OW 6196   1.937   0.345   3.757
 2059SOL    HW1 6197   1.845   0.317   3.728
 2059SOL    HW2 6198   1.968   0.422   3.701
 2060SOL     OW 6199   1.934   0.166   4.042
 2060SOL    HW1 6200   1.917   0.249   3.988
 2060SOL    HW2 6201   2.024   0.129   4.020
 2061SOL     OW 6202   3.045   1.335   3.843
 2061SOL    HW1 6203   2.946   1.324   3.845
 2061SOL    HW2 6204   3.079   1.350   3.936
 2062SOL     OW 6205   3.355   1.767   4.683
 2062SOL    HW1 6206   3.388   1.831   4.614
 2062SOL    HW2 6207   3.421   1.761   4.758
 2063SOL     OW 6208   3.536   0.883   4.978
 2063SOL    HW1 6209   3.509   0.794   4.941
 2063SOL    HW2 6210   3.537   0.951   4.905
 2064SOL     OW 6211   3.087   0.325   4.173
 2064SOL    HW1 6212   3.152   0.251   4.162
 2064SOL    HW2 6213   3.107   0.375   4.257
 2065SOL     OW 6214   2.456   0.745   4.376
 2065SOL    HW1 6215   2.506   0.830   4.357
 2065SOL    HW2 6216   2.368   0.747   4.328
 2066SOL     OW 6217   3.592   0.934   5.241
 2066SOL    HW1 6218   3.630   1.025   5.256
 2066SOL    HW2 6219   3.584   0.917   5.142
 2067SOL     OW 6220   2.721   1.374   3.740
 2067SOL    HW1 6221   2.675   1.389   3.828
 2067SOL    HW2 6222   2.765   1.459   3.710
 2068SOL     OW 6223   2.523   1.790   4.677
 2068SOL    HW1 6224   2.477   1.878   4.664
 2068SOL    HW2 6225   2.622   1.802   4.670
 2069SOL     OW 6226   2.721   0.956   4.585
 2069SOL    HW1 6227   2.775   0.887   4.633
 2069SOL    HW2 6228   2.689   1.025   4.651
 2070SOL     OW 6229   2.945   0.984   3.811
 2070SOL    HW1 6230   2.922   1.037   3.729
 2070SOL    HW2 6231   3.026   0.928   3.792
 2071SOL     OW 6232   3.723   1.569   4.575
 2071SOL    HW1 6233   3.652   1.557   4.505
 2071SOL    HW2 6234   3.724   1.490   4.635
 2072SOL     OW 6235   1.941   1.240   4.377
 2072SOL    HW1 6236   1.940   1.193   4.465
 2072SOL    HW2 6237   2.023   1.212   4.326
 2073SOL     OW 6238   3.686   0.192   4.951
 2073SOL    HW1 6239   3.682   0.102   4.995
 2073SOL    HW2 6240   3.689   0.181   4.852
 2074SOL     OW 6241   2.290   0.424   4.244
 2074SOL    HW1 6242   2.320   0.352   4.182
 2074SOL    HW2 6243   2.251   0.384   4.327
 2075SOL     OW 6244   3.567   1.487   4.828
 2075SOL    HW1 6245   3.474   1.462   4.801
 2075SOL    HW2 6246   3.593   1.437   4.910
 2076SOL     OW 6247   2.674   1.586   4.411
 2076SOL    HW1 6248   2.706   1.596   4.317
 2076SOL    HW2 6249   2.595   1.524   4.413
 2077SOL     OW 6250   3.286   0.214   4.836
 2077SOL    HW1 6251   3.338   0.149   4.891
 2077SOL    HW2 6252   3.237   0.277   4.897
 2078SOL     OW 6253   2.863   0.034   4.878
 2078SOL    HW1 6254   2.800  -0.038   4.847
 2078SOL    HW2 6255   2.956  -0.002   4.878
 2079SOL     OW 6256   2.632   1.330   4.025
 2079SOL    HW1 6257   2.586   1.243   4.042
 2079SOL    HW2 6258   2.723   1.327   4.066
 2080SOL     OW 6259   3.214   0.052   3.892
 2080SOL    HW1 6260   3.249   0.011   3.808
 2080SOL    HW2 6261   3.124   0.014   3.912
 2081SOL     OW 6262   3.162   0.453   4.415
 2081SOL    HW1 6263   3.103   0.533   4.419
 2081SOL    HW2 6264   3.177   0.418   4.508
 2082SOL     OW 6265   3.455   0.221   4.606
 2082SOL    HW1 6266   3.371   0.220   4.660
 2082SOL    HW2 6267   3.457   0.304   4.550
 2083SOL     OW 6268   1.901   1.077   4.024
 2083SOL    HW1 6269   2.000   1.066   4.015
 2083SOL    HW2 6270   1.861   0.991   4.056
 2084SOL     OW 6271   2.737   1.646   4.061
 2084SOL    HW1 6272   2.660   1.611   4.007
 2084SOL    HW2 6273   2.705   1.717   4.123
 2085SOL     OW 6274   2.092   2.490   0.113
 2085SOL    HW1 6275   1.999   2.488   0.150
 2085SOL    HW2 6276   2.093   2.451   0.021
 2086SOL     OW 6277   2.087   2.137   0.996
 2086SOL    HW1 6278   2.122   2.120   1.088
 2086SOL    HW2 6279   1.999   2.092   0.984
 2087SOL     OW 6280   1.881   2.230   0.647
 2087SOL    HW1 6281   1.799   2.273   0.686
 2087SOL    HW2 6282   1.853   2.157   0.584
 2088SOL     OW 6283   2.431   3.137   1.165
 2088SOL    HW1 6284   2.338   3.130   1.128
 2088SOL    HW2 6285   2.442   3.226   1.209
 2089SOL     OW 6286   3.417   3.373   0.703
 2089SOL    HW1 6287   3.360   3.357   0.784
 2089SOL    HW2 6288   3.358   3.383   0.623
 2090SOL     OW 6289   2.997   2.565   0.717
 2090SOL    HW1 6290   3.054   2.643   0.692
 2090SOL    HW2 6291   2.937   2.591   0.793
 2091SOL     OW 6292   3.617   2.469   0.231
 2091SOL    HW1 6293   3.605   2.456   0.132
 2091SOL    HW2 6294   3.587   2.388   0.280
 2092SOL     OW 6295   2.630   3.006   1.023
 2092SOL    HW1 6296   2.552   3.023   1.083
 2092SOL    HW2 6297   2.664   3.093   0.987
 2093SOL     OW 6298   2.712   2.660   1.823
 2093SOL    HW1 6299   2.708   2.736   1.888
 2093SOL    HW2 6300   2.734   2.696   1.732
 2094SOL     OW 6301   2.547   2.874   0.665
 2094SOL    HW1 6302   2.616   2.858   0.735
 2094SOL    HW2 6303   2.474   2.931   0.703
 2095SOL     OW 6304   2.548   3.023   1.803
 2095SOL    HW1 6305   2.608   3.102   1.817
 2095SOL    HW2 6306   2.462   3.054   1.762
 2096SOL     OW 6307   2.197   3.297   1.061
 2096SOL    HW1 6308   2.119   3.266   1.008
 2096SOL    HW2 6309   2.255   3.355   1.004
 2097SOL     OW 6310   3.322   3.367   1.339
 2097SOL    HW1 6311   3.346   3.461   1.365
 2097SOL    HW2 6312   3.306   3.313   1.421
 2098SOL     OW 6313   2.300   2.254   1.499
 2098SOL    HW1 6314   2.382   2.198   1.508
 2098SOL    HW2 6315   2.219   2.196   1.503
 2099SOL     OW 6316   3.465   2.309   0.737
 2099SOL    HW1 6317   3.391   2.355   0.687
 2099SOL    HW2 6318   3.516   2.377   0.790
 2100SOL     OW 6319   2.093   3.575   0.483
 2100SOL    HW1 6320   2.127   3.652   0.537
 2100SOL    HW2 6321   2.137   3.575   0.393
 2101SOL     OW 6322   2.989   3.203   1.690
 2101SOL    HW1 6323   3.036   3.203   1.778
 2101SOL    HW2 6324   2.941   3.116   1.679
 2102SOL     OW 6325   2.092   3.296   0.538
 2102SOL    HW1 6326   2.066   3.392   0.538
 2102SOL    HW2 6327   2.021   3.242   0.583
 2103SOL     OW 6328   2.102   2.953   0.886
 2103SOL    HW1 6329   2.116   2.869   0.938
 2103SOL    HW2 6330   2.047   3.017   0.941
 2104SOL     OW 6331   2.482   3.648   1.439
 2104SOL    HW1 6332   2.390   3.631   1.474
 2104SOL    HW2 6333   2.510   3.740   1.465
 2105SOL     OW 6334   2.468   2.826   0.123
 2105SOL    HW1 6335   2.475   2.910   0.069
 2105SOL    HW2 6336   2.514   2.839   0.211
 2106SOL     OW 6337   3.456   1.976   1.480
 2106SOL    HW1 6338   3.438   2.043   1.408
 2106SOL    HW2 6339   3.453   2.022   1.569
 2107SOL     OW 6340   1.984   2.505   0.563
 2107SOL    HW1 6341   1.939   2.417   0.580
 2107SOL    HW2 6342   1.983   2.559   0.647
 2108SOL     OW 6343   3.704   3.629   0.359
 2108SOL    HW1 6344   3.758   3.600   0.439
 2108SOL    HW2 6345   3.734   3.719   0.330
 2109SOL     OW 6346   1.889   3.458   0.117
 2109SOL    HW1 6347   1.870   3.362   0.138
 2109SOL    HW2 6348   1.856   3.516   0.192
 2110SOL     OW 6349   3.551   2.784   0.612
 2110SOL    HW1 6350   3.646   2.755   0.620
 2110SOL    HW2 6351   3.543   2.849   0.537
 2111SOL     OW 6352   3.503   2.970   0.432
 2111SOL    HW1 6353   3.589   2.972   0.380
 2111SOL    HW2 6354   3.517   3.017   0.520
 2112SOL     OW 6355   1.975   2.599   1.597
 2112SOL    HW1 6356   2.063   2.586   1.642
 2112SOL    HW2 6357   1.962   2.696   1.575
 2113SOL     OW 6358   2.475   3.227   0.726
 2113SOL    HW1 6359   2.426   3.140   0.735
 2113SOL    HW2 6360   2.452   3.270   0.639
 2114SOL     OW 6361   3.155   3.090   1.423
 2114SOL    HW1 6362   3.192   3.017   1.365
 2114SOL    HW2 6363   3.207   3.095   1.508
 2115SOL     OW 6364   2.671   1.866   0.502
 2115SOL    HW1 6365   2.711   1.957   0.493
 2115SOL    HW2 6366   2.571   1.874   0.508
 2116SOL     OW 6367   2.059   2.838   1.264
 2116SOL    HW1 6368   2.148   2.793   1.250
 2116SOL    HW2 6369   1.986   2.773   1.245
 2117SOL     OW 6370   3.387   2.861   0.190
 2117SOL    HW1 6371   3.324   2.785   0.203
 2117SOL    HW2 6372   3.435   2.879   0.276
 2118SOL     OW 6373   3.049   3.654   1.616
 2118SOL    HW1 6374   3.073   3.714   1.540
 2118SOL    HW2 6375   3.056   3.559   1.586
 2119SOL     OW 6376   2.179   2.113   1.801
 2119SOL    HW1 6377   2.250   2.184   1.807
 2119SOL    HW2 6378   2.091   2.152   1.829
 2120SOL     OW 6379   3.328   3.279   0.953
 2120SOL    HW1 6380   3.269   3.285   1.033
 2120SOL    HW2 6381   3.313   3.191   0.907
 2121SOL     OW 6382   3.529   3.576   0.572
 2121SOL    HW1 6383   3.488   3.553   0.484
 2121SOL    HW2 6384   3.511   3.502   0.637
 2122SOL     OW 6385   2.460   2.591   0.270
 2122SOL    HW1 6386   2.484   2.660   0.202
 2122SOL    HW2 6387   2.382   2.624   0.324
 2123SOL     OW 6388   3.143   2.207   0.944
 2123SOL    HW1 6389   3.057   2.157   0.931
 2123SOL    HW2 6390   3.205   2.153   1.000
 2124SOL     OW 6391   3.438   3.524   0.307
 2124SOL    HW1 6392   3.527   3.570   0.310
 2124SOL    HW2 6393   3.417   3.500   0.212
 2125SOL     OW 6394   2.669   2.467   1.465
 2125SOL    HW1 6395   2.622   2.464   1.554
 2125SOL    HW2 6396   2.618   2.412   1.399
 2126SOL     OW 6397   3.256   2.331   1.674
 2126SOL    HW1 6398   3.236   2.374   1.762
 2126SOL    HW2 6399   3.334   2.269   1.683
 2127SOL     OW 6400   2.835   2.752   1.572
 2127SOL    HW1 6401   2.881   2.668   1.543
 2127SOL    HW2 6402   2.779   2.786   1.497
 2128SOL     OW 6403   2.853   2.272   1.242
 2128SOL    HW1 6404   2.776   2.306   1.296
 2128SOL    HW2 6405   2.819   2.221   1.163
 2129SOL     OW 6406   2.903   2.563   0.429
 2129SOL    HW1 6407   2.929   2.559   0.525
 2129SOL    HW2 6408   2.818   2.512   0.415
 2130SOL     OW 6409   1.938   2.673   0.789
 2130SOL    HW1 6410   2.037   2.661   0.798
 2130SOL    HW2 6411   1.914   2.768   0.810
 2131SOL     OW 6412   1.992   3.683   1.571
 2131SOL    HW1 6413   1.982   3.668   1.670
 2131SOL    HW2 6414   1.906   3.719   1.535
 2132SOL     OW 6415   2.727   2.210   0.195
 2132SOL    HW1 6416   2.786   2.273   0.146
 2132SOL    HW2 6417   2.746   2.116   0.166
 2133SOL     OW 6418   3.581   2.447   1.831
 2133SOL    HW1 6419   3.555   2.536   1.795
 2133SOL    HW2 6420   3.579   2.379   1.758
 2134SOL     OW 6421   3.224   3.006   0.545
 2134SOL    HW1 6422   3.307   2.977   0.497
 2134SOL    HW2 6423   3.175   3.073   0.489
 2135SOL     OW 6424   2.412   2.058   0.885
 2135SOL    HW1 6425   2.407   2.053   0.985
 2135SOL    HW2 6426   2.414   2.154   0.856
 2136SOL     OW 6427   2.870   3.318   0.477
 2136SOL    HW1 6428   2.824   3.390   0.425
 2136SOL    HW2 6429   2.866   3.338   0.575
 2137SOL     OW 6430   2.213   3.663   0.853
 2137SOL    HW1 6431   2.263   3.577   0.859
 2137SOL    HW2 6432   2.278   3.740   0.850
 2138SOL     OW 6433   3.657   2.928   0.873
 2138SOL    HW1 6434   3.595   2.913   0.797
 2138SOL    HW2 6435   3.605   2.939   0.958
 2139SOL     OW 6436   3.089   3.412   1.506
 2139SOL    HW1 6437   3.095   3.335   1.570
 2139SOL    HW2 6438   3.037   3.386   1.426
 2140SOL     OW 6439   2.183   2.805   0.242
 2140SOL    HW1 6440   2.265   2.844   0.200
 2140SOL    HW2 6441   2.156   2.723   0.193
 2141SOL     OW 6442   3.320   2.597   0.728
 2141SOL    HW1 6443   3.315   2.532   0.803
 2141SOL    HW2 6444   3.400   2.656   0.741
 2142SOL     OW 6445   2.323   3.128   1.727
 2142SOL    HW1 6446   2.273   3.129   1.641
 2142SOL    HW2 6447   2.260   3.110   1.803
 2143SOL     OW 6448   2.973   3.638   0.237
 2143SOL    HW1 6449   2.913   3.576   0.287
 2143SOL    HW2 6450   3.004   3.594   0.152
 2144SOL     OW 6451   2.064   2.147   1.498
 2144SOL    HW1 6452   1.984   2.207   1.485
 2144SOL    HW2 6453   2.054   2.098   1.584
 2145SOL     OW 6454   3.494   3.239   0.081
 2145SOL    HW1 6455   3.462   3.333   0.071
 2145SOL    HW2 6456   3.418   3.176   0.069
 2146SOL     OW 6457   2.326   3.605   0.323
 2146SOL    HW1 6458   2.359   3.644   0.409
 2146SOL    HW2 6459   2.402   3.598   0.258
 2147SOL     OW 6460   3.262   1.969   0.426
 2147SOL    HW1 6461   3.238   1.932   0.336
 2147SOL    HW2 6462   3.361   1.985   0.430
 2148SOL     OW 6463   2.111   3.647   1.241
 2148SOL    HW1 6464   2.168   3.582   1.291
 2148SOL    HW2 6465   2.095   3.614   1.148
 2149SOL     OW 6466   2.802   3.560   0.904
 2149SOL    HW1 6467   2.882   3.503   0.925
 2149SOL    HW2 6468   2.753   3.520   0.827
 2150SOL     OW 6469   2.244   2.562   0.480
 2150SOL    HW1 6470   2.289   2.472   0.477
 2150SOL    HW2 6471   2.150   2.551   0.513
 2151SOL     OW 6472   3.409   2.084   1.729
 2151SOL    HW1 6473   3.404   2.121   1.821
 2151SOL    HW2 6474   3.337   2.015   1.717
 2152SOL     OW 6475   2.476   1.984   0.117
 2152SOL    HW1 6476   2.574   1.962   0.124
 2152SOL    HW2 6477   2.445   1.967   0.024
 2153SOL     OW 6478   2.643   2.126   1.749
 2153SOL    HW1 6479   2.710   2.065   1.792
 2153SOL    HW2 6480   2.570   2.145   1.814
 2154SOL     OW 6481   2.750   3.376   1.195
 2154SOL    HW1 6482   2.727   3.351   1.101
 2154SOL    HW2 6483   2.811   3.307   1.234
 2155SOL     OW 6484   3.213   2.452   1.433
 2155SOL    HW1 6485   3.241   2.409   1.518
 2155SOL    HW2 6486   3.238   2.548   1.434
 2156SOL     OW 6487   2.665   3.264   0.924
 2156SOL    HW1 6488   2.755   3.278   0.882
 2156SOL    HW2 6489   2.594   3.266   0.853
 2157SOL     OW 6490   2.784   2.365   0.899
 2157SOL    HW1 6491   2.759   2.356   0.803
 2157SOL    HW2 6492   2.832   2.283   0.930
 2158SOL     OW 6493   2.401   1.926   0.512
 2158SOL    HW1 6494   2.320   1.927   0.570
 2158SOL    HW2 6495   2.404   2.009   0.457
 2159SOL     OW 6496   3.296   3.050   0.041
 2159SOL    HW1 6497   3.328   2.974   0.098
 2159SOL    HW2 6498   3.204   3.077   0.071
 2160SOL     OW 6499   2.159   1.897   0.171
 2160SOL    HW1 6500   2.208   1.981   0.150
 2160SOL    HW2 6501   2.221   1.832   0.216
 2161SOL     OW 6502   2.797   2.098   0.480
 2161SOL    HW1 6503   2.749   2.139   0.402
 2161SOL    HW2 6504   2.896   2.096   0.461
 2162SOL     OW 6505   2.938   2.545   1.464
 2162SOL    HW1 6506   2.858   2.484   1.467
 2162SOL    HW2 6507   3.019   2.492   1.440
 2163SOL     OW 6508   3.089   3.432   0.793
 2163SOL    HW1 6509   3.110   3.506   0.728
 2163SOL    HW2 6510   3.157   3.432   0.866
 2164SOL     OW 6511   2.321   3.014   0.741
 2164SOL    HW1 6512   2.250   2.987   0.806
 2164SOL    HW2 6513   2.295   2.986   0.648
 2165SOL     OW 6514   3.133   3.659   0.591
 2165SOL    HW1 6515   3.177   3.723   0.527
 2165SOL    HW2 6516   3.083   3.711   0.661
 2166SOL     OW 6517   2.894   2.411   0.016
 2166SOL    HW1 6518   2.853   2.493  -0.023
 2166SOL    HW2 6519   2.958   2.437   0.089
 2167SOL     OW 6520   1.940   2.418   1.386
 2167SOL    HW1 6521   2.032   2.417   1.345
 2167SOL    HW2 6522   1.934   2.492   1.453
 2168SOL     OW 6523   2.423   2.084   1.147
 2168SOL    HW1 6524   2.461   2.000   1.184
 2168SOL    HW2 6525   2.335   2.103   1.191
 2169SOL     OW 6526   2.728   2.316   0.642
 2169SOL    HW1 6527   2.696   2.388   0.580
 2169SOL    HW2 6528   2.752   2.235   0.589
 2170SOL     OW 6529   2.879   1.901   0.753
 2170SOL    HW1 6530   2.807   1.906   0.684
 2170SOL    HW2 6531   2.855   1.832   0.822
 2171SOL     OW 6532   3.291   3.035   0.867
 2171SOL    HW1 6533   3.236   2.951   0.860
 2171SOL    HW2 6534   3.317   3.064   0.775
 2172SOL     OW 6535   3.328   2.452   0.992
 2172SOL    HW1 6536   3.298   2.357   0.999
 2172SOL    HW2 6537   3.401   2.468   1.058
 2173SOL     OW 6538   3.719   2.695   0.377
 2173SOL    HW1 6539   3.761   2.631   0.441
 2173SOL    HW2 6540   3.681   2.644   0.299
 2174SOL     OW 6541   2.350   3.247   0.174
 2174SOL    HW1 6542   2.263   3.232   0.221
 2174SOL    HW2 6543   2.333   3.273   0.079
 2175SOL     OW 6544   3.526   3.142   0.657
 2175SOL    HW1 6545   3.625   3.150   0.671
 2175SOL    HW2 6546   3.481   3.226   0.688
 2176SOL     OW 6547   3.252   2.437   0.078
 2176SOL    HW1 6548   3.198   2.416   0.159
 2176SOL    HW2 6549   3.343   2.396   0.087
 2177SOL     OW 6550   2.389   2.118   0.328
 2177SOL    HW1 6551   2.416   2.059   0.253
 2177SOL    HW2 6552   2.389   2.213   0.297
 2178SOL     OW 6553   3.616   3.085   1.588
 2178SOL    HW1 6554   3.707   3.046   1.575
 2178SOL    HW2 6555   3.624   3.181   1.612
 2179SOL     OW 6556   2.926   3.209   1.340
 2179SOL    HW1 6557   2.846   3.186   1.395
 2179SOL    HW2 6558   3.009   3.183   1.389
 2180SOL     OW 6559   3.454   3.491   1.625
 2180SOL    HW1 6560   3.481   3.525   1.535
 2180SOL    HW2 6561   3.533   3.453   1.671
 2181SOL     OW 6562   2.973   3.057   1.100
 2181SOL    HW1 6563   2.933   3.101   1.181
 2181SOL    HW2 6564   2.932   3.094   1.017
 2182SOL     OW 6565   3.500   2.961   1.079
 2182SOL    HW1 6566   3.505   3.042   1.138
 2182SOL    HW2 6567   3.414   2.963   1.028
 2183SOL     OW 6568   2.777   1.951   1.402
 2183SOL    HW1 6569   2.802   1.931   1.307
 2183SOL    HW2 6570   2.849   2.007   1.444
 2184SOL     OW 6571   2.842   2.978   1.719
 2184SOL    HW1 6572   2.743   2.984   1.729
 2184SOL    HW2 6573   2.865   2.898   1.663
 2185SOL     OW 6574   2.567   2.912   0.368
 2185SOL    HW1 6575   2.553   2.919   0.467
 2185SOL    HW2 6576   2.651   2.861   0.350
 2186SOL     OW 6577   2.272   2.675   1.251
 2186SOL    HW1 6578   2.358   2.687   1.301
 2186SOL    HW2 6579   2.230   2.588   1.278
 2187SOL     OW 6580   3.136   2.248   1.262
 2187SOL    HW1 6581   3.157   2.322   1.326
 2187SOL    HW2 6582   3.047   2.265   1.219
 2188SOL     OW 6583   1.926   3.426   1.331
 2188SOL    HW1 6584   1.880   3.508   1.297
 2188SOL    HW2 6585   2.024   3.445   1.340
 2189SOL     OW 6586   2.229   2.962   0.501
 2189SOL    HW1 6587   2.222   3.045   0.445
 2189SOL    HW2 6588   2.233   2.882   0.441
 2190SOL     OW 6589   2.428   2.399   0.865
 2190SOL    HW1 6590   2.440   2.465   0.791
 2190SOL    HW2 6591   2.474   2.433   0.948
 2191SOL     OW 6592   3.114   3.210   0.388
 2191SOL    HW1 6593   3.164   3.287   0.428
 2191SOL    HW2 6594   3.019   3.212   0.420
 2192SOL     OW 6595   3.134   3.307   1.142
 2192SOL    HW1 6596   3.181   3.320   1.229
 2192SOL    HW2 6597   3.068   3.233   1.151
 2193SOL     OW 6598   3.444   2.501   0.472
 2193SOL    HW1 6599   3.413   2.562   0.545
 2193SOL    HW2 6600   3.494   2.553   0.403
 2194SOL     OW 6601   2.216   3.372   1.329
 2194SOL    HW1 6602   2.195   3.328   1.242
 2194SOL    HW2 6603   2.313   3.398   1.332
 2195SOL     OW 6604   2.264   2.613   1.598
 2195SOL    HW1 6605   2.332   2.668   1.551
 2195SOL    HW2 6606   2.304   2.525   1.625
 2196SOL     OW 6607   3.449   2.641   1.670
 2196SOL    HW1 6608   3.357   2.679   1.665
 2196SOL    HW2 6609   3.509   2.688   1.605
 2197SOL     OW 6610   2.875   1.967   1.770
 2197SOL    HW1 6611   2.881   2.052   1.718
 2197SOL    HW2 6612   2.907   1.891   1.713
 2198SOL     OW 6613   2.366   1.912   1.740
 2198SOL    HW1 6614   2.324   1.855   1.670
 2198SOL    HW2 6615   2.300   1.981   1.772
 2199SOL     OW 6616   2.435   2.732   1.029
 2199SOL    HW1 6617   2.479   2.821   1.020
 2199SOL    HW2 6618   2.372   2.732   1.106
 2200SOL     OW 6619   3.222   2.724   1.045
 2200SOL    HW1 6620   3.147   2.724   0.979
 2200SOL    HW2 6621   3.259   2.632   1.054
 2201SOL     OW 6622   3.071   2.387   0.275
 2201SOL    HW1 6623   3.084   2.303   0.329
 2201SOL    HW2 6624   3.042   2.461   0.335
 2202SOL     OW 6625   2.169   2.075   1.231
 2202SOL    HW1 6626   2.146   2.112   1.321
 2202SOL    HW2 6627   2.139   1.980   1.225
 2203SOL     OW 6628   1.899   3.172   1.282
 2203SOL    HW1 6629   1.952   3.123   1.350
 2203SOL    HW2 6630   1.921   3.270   1.287
 2204SOL     OW 6631   2.594   2.496   1.064
 2204SOL    HW1 6632   2.653   2.470   0.988
 2204SOL    HW2 6633   2.566   2.592   1.053
 2205SOL     OW 6634   3.590   2.797   1.854
 2205SOL    HW1 6635   3.544   2.790   1.765
 2205SOL    HW2 6636   3.528   2.841   1.920
 2206SOL     OW 6637   2.169   1.925   0.618
 2206SOL    HW1 6638   2.158   2.019   0.651
 2206SOL    HW2 6639   2.164   1.862   0.695
 2207SOL     OW 6640   3.484   2.229   0.374
 2207SOL    HW1 6641   3.486   2.153   0.438
 2207SOL    HW2 6642   3.436   2.306   0.414
 2208SOL     OW 6643   2.885   2.628   0.966
 2208SOL    HW1 6644   2.900   2.649   1.062
 2208SOL    HW2 6645   2.855   2.533   0.957
 2209SOL     OW 6646   2.842   3.435   1.700
 2209SOL    HW1 6647   2.822   3.479   1.612
 2209SOL    HW2 6648   2.881   3.344   1.684
 2210SOL     OW 6649   3.721   3.380   1.605
 2210SOL    HW1 6650   3.735   3.407   1.510
 2210SOL    HW2 6651   3.804   3.402   1.658
 2211SOL     OW 6652   2.212   2.760   1.804
 2211SOL    HW1 6653   2.288   2.804   1.852
 2211SOL    HW2 6654   2.247   2.713   1.722
 2212SOL     OW 6655   3.402   2.136   0.125
 2212SOL    HW1 6656   3.341   2.061   0.148
 2212SOL    HW2 6657   3.424   2.188   0.208
 2213SOL     OW 6658   3.165   2.700   0.042
 2213SOL    HW1 6659   3.199   2.607   0.057
 2213SOL    HW2 6660   3.183   2.727  -0.053
 2214SOL     OW 6661   2.930   3.195   0.849
 2214SOL    HW1 6662   2.937   3.111   0.794
 2214SOL    HW2 6663   2.992   3.264   0.813
 2215SOL     OW 6664   2.181   2.672   0.949
 2215SOL    HW1 6665   2.274   2.708   0.954
 2215SOL    HW2 6666   2.175   2.587   1.001
 2216SOL     OW 6667   2.201   2.371   1.006
 2216SOL    HW1 6668   2.149   2.288   0.989
 2216SOL    HW2 6669   2.278   2.376   0.942
 2217SOL     OW 6670   3.000   2.242   1.678
 2217SOL    HW1 6671   2.955   2.305   1.742
 2217SOL    HW2 6672   3.093   2.273   1.661
 2218SOL     OW 6673   3.022   2.069   1.477
 2218SOL    HW1 6674   3.022   2.133   1.554
 2218SOL    HW2 6675   3.050   2.117   1.394
 2219SOL     OW 6676   1.870   3.188   0.200
 2219SOL    HW1 6677   1.777   3.209   0.169
 2219SOL    HW2 6678   1.880   3.089   0.213
 2220SOL     OW 6679   1.950   3.663   0.927
 2220SOL    HW1 6680   1.908   3.577   0.900
 2220SOL    HW2 6681   2.044   3.666   0.893
 2221SOL     OW 6682   2.366   3.430   0.910
 2221SOL    HW1 6683   2.432   3.504   0.919
 2221SOL    HW2 6684   2.410   3.351   0.868
 2222SOL     OW 6685   2.864   2.658   1.238
 2222SOL    HW1 6686   2.905   2.626   1.324
 2222SOL    HW2 6687   2.768   2.631   1.235
 2223SOL     OW 6688   1.902   2.406   1.114
 2223SOL    HW1 6689   1.987   2.373   1.073
 2223SOL    HW2 6690   1.915   2.421   1.212
 2224SOL     OW 6691   2.051   2.382   1.722
 2224SOL    HW1 6692   2.110   2.342   1.652
 2224SOL    HW2 6693   1.993   2.453   1.681
 2225SOL     OW 6694   3.231   2.812   1.660
 2225SOL    HW1 6695   3.270   2.901   1.680
 2225SOL    HW2 6696   3.241   2.792   1.563
 2226SOL     OW 6697   2.677   2.434   0.325
 2226SOL    HW1 6698   2.684   2.345   0.279
 2226SOL    HW2 6699   2.583   2.468   0.317
 2227SOL     OW 6700   3.519   2.466   1.206
 2227SOL    HW1 6701   3.481   2.397   1.268
 2227SOL    HW2 6702   3.601   2.430   1.162
 2228SOL     OW 6703   2.114   3.426   1.744
 2228SOL    HW1 6704   2.084   3.483   1.820
 2228SOL    HW2 6705   2.107   3.329   1.770
 2229SOL     OW 6706   2.533   2.326   1.269
 2229SOL    HW1 6707   2.499   2.237   1.239
 2229SOL    HW2 6708   2.559   2.380   1.189
 2230SOL     OW 6709   2.792   3.540   1.465
 2230SOL    HW1 6710   2.768   3.522   1.370
 2230SOL    HW2 6711   2.822   3.634   1.475
 2231SOL     OW 6712   2.335   2.362   0.191
 2231SOL    HW1 6713   2.396   2.442   0.195
 2231SOL    HW2 6714   2.240   2.393   0.198
 2232SOL     OW 6715   2.021   2.999   1.466
 2232SOL    HW1 6716   2.043   2.938   1.542
 2232SOL    HW2 6717   2.031   2.950   1.380
 2233SOL     OW 6718   3.209   2.921   1.234
 2233SOL    HW1 6719   3.233   2.858   1.160
 2233SOL    HW2 6720   3.119   2.961   1.216
 2234SOL     OW 6721   3.164   2.717   0.309
 2234SOL    HW1 6722   3.078   2.686   0.351
 2234SOL    HW2 6723   3.160   2.703   0.210
 2235SOL     OW 6724   3.621   3.609   1.154
 2235SOL    HW1 6725   3.682   3.639   1.081
 2235SOL    HW2 6726   3.583   3.520   1.132
 2236SOL     OW 6727   3.114   3.593   1.128
 2236SOL    HW1 6728   3.198   3.598   1.074
 2236SOL    HW2 6729   3.091   3.497   1.146
 2237SOL     OW 6730   1.945   3.120   1.022
 2237SOL    HW1 6731   1.940   3.119   1.122
 2237SOL    HW2 6732   1.862   3.079   0.984
 2238SOL     OW 6733   2.550   3.524   1.716
 2238SOL    HW1 6734   2.494   3.605   1.725
 2238SOL    HW2 6735   2.602   3.528   1.630
 2239SOL     OW 6736   2.765   1.948   0.133
 2239SOL    HW1 6737   2.816   1.949   0.047
 2239SOL    HW2 6738   2.821   1.906   0.204
 2240SOL     OW 6739   3.588   1.997   0.523
 2240SOL    HW1 6740   3.661   1.980   0.456
 2240SOL    HW2 6741   3.557   1.910   0.561
 2241SOL     OW 6742   3.250   3.435   0.477
 2241SOL    HW1 6743   3.317   3.447   0.403
 2241SOL    HW2 6744   3.210   3.524   0.500
 2242SOL     OW 6745   1.992   3.656   1.851
 2242SOL    HW1 6746   1.951   3.582   1.904
 2242SOL    HW2 6747   2.056   3.707   1.909
 2243SOL     OW 6748   3.142   2.789   0.672
 2243SOL    HW1 6749   3.202   2.708   0.674
 2243SOL    HW2 6750   3.182   2.858   0.612
 2244SOL     OW 6751   2.692   3.135   1.422
 2244SOL    HW1 6752   2.687   3.168   1.517
 2244SOL    HW2 6753   2.606   3.154   1.376
 2245SOL     OW 6754   2.534   3.478   0.154
 2245SOL    HW1 6755   2.543   3.488   0.055
 2245SOL    HW2 6756   2.494   3.389   0.175
 2246SOL     OW 6757   3.512   3.582   1.394
 2246SOL    HW1 6758   3.565   3.592   1.310
 2246SOL    HW2 6759   3.485   3.672   1.428
 2247SOL     OW 6760   3.703   2.037   0.963
 2247SOL    HW1 6761   3.742   1.952   0.927
 2247SOL    HW2 6762   3.605   2.039   0.944
 2248SOL     OW 6763   2.125   2.188   0.720
 2248SOL    HW1 6764   2.046   2.239   0.686
 2248SOL    HW2 6765   2.116   2.173   0.818
 2249SOL     OW 6766   3.056   3.474   0.031
 2249SOL    HW1 6767   3.062   3.381   0.068
 2249SOL    HW2 6768   2.997   3.474  -0.049
 2250SOL     OW 6769   2.684   2.864   1.372
 2250SOL    HW1 6770   2.724   2.863   1.280
 2250SOL    HW2 6771   2.694   2.956   1.412
 2251SOL     OW 6772   2.778   2.772   0.291
 2251SOL    HW1 6773   2.841   2.810   0.223
 2251SOL    HW2 6774   2.818   2.689   0.330
 2252SOL     OW 6775   3.366   3.469   0.044
 2252SOL    HW1 6776   3.274   3.506   0.051
 2252SOL    HW2 6777   3.404   3.489  -0.046
 2253SOL     OW 6778   2.234   3.150   1.490
 2253SOL    HW1 6779   2.221   3.243   1.456
 2253SOL    HW2 6780   2.150   3.098   1.477
 2254SOL     OW 6781   3.476   3.154   1.289
 2254SOL    HW1 6782   3.536   3.157   1.369
 2254SOL    HW2 6783   3.401   3.218   1.302
 2255SOL     OW 6784   2.901   2.960   0.696
 2255SOL    HW1 6785   2.831   2.913   0.750
 2255SOL    HW2 6786   2.960   2.892   0.653
 2256SOL     OW 6787   2.876   2.098   0.971
 2256SOL    HW1 6788   2.868   2.062   0.878
 2256SOL    HW2 6789   2.874   2.022   1.036
 2257SOL     OW 6790   2.452   3.349   0.491
 2257SOL    HW1 6791   2.494   3.291   0.421
 2257SOL    HW2 6792   2.408   3.428   0.447
 2258SOL     OW 6793   3.571   2.247   1.381
 2258SOL    HW1 6794   3.644   2.316   1.385
 2258SOL    HW2 6795   3.599   2.172   1.322
 2259SOL     OW 6796   2.117   3.210   0.290
 2259SOL    HW1 6797   2.021   3.211   0.263
 2259SOL    HW2 6798   2.129   3.263   0.374
 2260SOL     OW 6799   1.967   2.875   1.726
 2260SOL    HW1 6800   1.890   2.842   1.780
 2260SOL    HW2 6801   2.052   2.845   1.768
 2261SOL     OW 6802   2.534   2.065   1.489
 2261SOL    HW1 6803   2.624   2.049   1.449
 2261SOL    HW2 6804   2.542   2.070   1.588
 2262SOL     OW 6805   3.302   2.718   1.398
 2262SOL    HW1 6806   3.245   2.770   1.335
 2262SOL    HW2 6807   3.398   2.730   1.374
 2263SOL     OW 6808   1.934   2.028   0.318
 2263SOL    HW1 6809   1.917   2.111   0.264
 2263SOL    HW2 6810   2.024   1.991   0.296
 2264SOL     OW 6811   3.045   3.197   0.119
 2264SOL    HW1 6812   2.946   3.186   0.121
 2264SOL    HW2 6813   3.079   3.212   0.212
 2265SOL     OW 6814   2.475   2.704   1.431
 2265SOL    HW1 6815   2.531   2.785   1.414
 2265SOL    HW2 6816   2.534   2.624   1.434
 2266SOL     OW 6817   3.355   3.629   0.959
 2266SOL    HW1 6818   3.388   3.693   0.890
 2266SOL    HW2 6819   3.421   3.623   1.034
 2267SOL     OW 6820   2.578   2.427   1.708
 2267SOL    HW1 6821   2.597   2.492   1.782
 2267SOL    HW2 6822   2.638   2.347   1.717
 2268SOL     OW 6823   3.312   3.082   1.633
 2268SOL    HW1 6824   3.303   3.072   1.732
 2268SOL    HW2 6825   3.408   3.075   1.607
 2269SOL     OW 6826   2.252   3.603   1.560
 2269SOL    HW1 6827   2.161   3.644   1.558
 2269SOL    HW2 6828   2.245   3.509   1.592
 2270SOL     OW 6829   3.536   2.745   1.254
 2270SOL    HW1 6830   3.509   2.656   1.217
 2270SOL    HW2 6831   3.537   2.813   1.181
 2271SOL     OW 6832   3.087   2.187   0.449
 2271SOL    HW1 6833   3.152   2.113   0.438
 2271SOL    HW2 6834   3.107   2.237   0.533
 2272SOL     OW 6835   2.456   2.607   0.652
 2272SOL    HW1 6836   2.506   2.692   0.633
 2272SOL    HW2 6837   2.368   2.609   0.604
 2273SOL     OW 6838   3.639   2.204   1.642
 2273SOL    HW1 6839   3.622   2.235   1.548
 2273SOL    HW2 6840   3.555   2.167   1.680
 2274SOL     OW 6841   3.592   2.796   1.517
 2274SOL    HW1 6842   3.630   2.887   1.532
 2274SOL    HW2 6843   3.584   2.779   1.418
 2275SOL     OW 6844   2.721   3.236   0.016
 2275SOL    HW1 6845   2.675   3.251   0.104
 2275SOL    HW2 6846   2.765   3.321  -0.014
 2276SOL     OW 6847   2.523   3.652   0.953
 2276SOL    HW1 6848   2.477   3.740   0.940
 2276SOL    HW2 6849   2.622   3.664   0.946
 2277SOL     OW 6850   2.721   2.818   0.861
 2277SOL    HW1 6851   2.775   2.749   0.909
 2277SOL    HW2 6852   2.689   2.887   0.927
 2278SOL     OW 6853   2.945   2.846   0.087
 2278SOL    HW1 6854   2.922   2.899   0.005
 2278SOL    HW2 6855   3.026   2.790   0.068
 2279SOL     OW 6856   3.723   3.431   0.851
 2279SOL    HW1 6857   3.652   3.419   0.781
 2279SOL    HW2 6858   3.724   3.352   0.911
 2280SOL     OW 6859   2.083   3.176   1.844
 2280SOL    HW1 6860   2.018   3.103   1.823
 2280SOL    HW2 6861   2.087   3.190   1.942
 2281SOL     OW 6862   1.941   3.102   0.653
 2281SOL    HW1 6863   1.940   3.055   0.741
 2281SOL    HW2 6864   2.023   3.074   0.602
 2282SOL     OW 6865   2.534   3.253   1.624
 2282SOL    HW1 6866   2.456   3.203   1.662
 2282SOL    HW2 6867   2.531   3.348   1.655
 2283SOL     OW 6868   3.686   2.054   1.227
 2283SOL    HW1 6869   3.682   1.964   1.271
 2283SOL    HW2 6870   3.689   2.043   1.128
 2284SOL     OW 6871   2.290   2.286   0.520
 2284SOL    HW1 6872   2.320   2.214   0.458
 2284SOL    HW2 6873   2.251   2.246   0.603
 2285SOL     OW 6874   3.567   3.349   1.104
 2285SOL    HW1 6875   3.474   3.324   1.077
 2285SOL    HW2 6876   3.593   3.299   1.186
 2286SOL     OW 6877   2.179   2.409   1.280
 2286SOL    HW1 6878   2.217   2.350   1.352
 2286SOL    HW2 6879   2.219   2.383   1.192
 2287SOL     OW 6880   2.674   3.448   0.687
 2287SOL    HW1 6881   2.706   3.458   0.593
 2287SOL    HW2 6882   2.595   3.386   0.689
 2288SOL     OW 6883   3.286   2.076   1.112
 2288SOL    HW1 6884   3.338   2.011   1.167
 2288SOL    HW2 6885   3.237   2.139   1.173
 2289SOL     OW 6886   2.863   1.896   1.154
 2289SOL    HW1 6887   2.800   1.824   1.123
 2289SOL    HW2 6888   2.956   1.860   1.154
 2290SOL     OW 6889   2.632   3.192   0.301
 2290SOL    HW1 6890   2.586   3.105   0.318
 2290SOL    HW2 6891   2.723   3.189   0.342
 2291SOL     OW 6892   2.480   3.429   1.284
 2291SOL    HW1 6893   2.475   3.511   1.341
 2291SOL    HW2 6894   2.569   3.426   1.239
 2292SOL     OW 6895   3.214   1.914   0.168
 2292SOL    HW1 6896   3.249   1.873   0.084
 2292SOL    HW2 6897   3.124   1.876   0.188
 2293SOL     OW 6898   3.162   2.315   0.691
 2293SOL    HW1 6899   3.103   2.395   0.695
 2293SOL    HW2 6900   3.177   2.280   0.784
 2294SOL     OW 6901   3.455   2.083   0.882
 2294SOL    HW1 6902   3.371   2.082   0.936
 2294SOL    HW2 6903   3.457   2.166   0.826
 2295SOL     OW 6904   2.737   3.508   0.337
 2295SOL    HW1 6905   2.660   3.473   0.283
 2295SOL    HW2 6906   2.705   3.579   0.399
 2296SOL     OW 6907   2.092   2.490   1.975
 2296SOL    HW1 6908   1.999   2.488   2.012
 2296SOL    HW2 6909   2.093   2.451   1.883
 2297SOL     OW 6910   2.087   2.137   2.858
 2297SOL    HW1 6911   2.122   2.120   2.950
 2297SOL    HW2 6912   1.999   2.092   2.846
 2298SOL     OW 6913   1.881   2.230   2.509
 2298SOL    HW1 6914   1.799   2.273   2.548
 2298SOL    HW2 6915   1.853   2.157   2.446
 2299SOL     OW 6916   2.431   3.137   3.027
 2299SOL    HW1 6917   2.338   3.130   2.990
 2299SOL    HW2 6918   2.442   3.226   3.071
 2300SOL     OW 6919   3.417   3.373   2.565
 2300SOL    HW1 6920   3.360   3.357   2.646
 2300SOL    HW2 6921   3.358   3.383   2.485
 2301SOL     OW 6922   2.997   2.565   2.579
 2301SOL    HW1 6923   3.054   2.643   2.554
 2301SOL    HW2 6924   2.937   2.591   2.655
 2302SOL     OW 6925   3.617   2.469   2.093
 2302SOL    HW1 6926   3.605   2.456   1.994
 2302SOL    HW2 6927   3.587   2.388   2.142
 2303SOL     OW 6928   2.630   3.006   2.885
 2303SOL    HW1 6929   2.552   3.023   2.945
 2303SOL    HW2 6930   2.664   3.093   2.849
 2304SOL     OW 6931   2.712   2.660   3.685
 2304SOL    HW1 6932   2.708   2.736   3.750
 2304SOL    HW2 6933   2.734   2.696   3.594
 2305SOL     OW 6934   2.547   2.874   2.527
 2305SOL    HW1 6935   2.616   2.858   2.597
 2305SOL    HW2 6936   2.474   2.931   2.565
 2306SOL     OW 6937   2.548   3.023   3.665
 2306SOL    HW1 6938   2.608   3.102   3.679
 2306SOL    HW2 6939   2.462   3.054   3.624
 2307SOL     OW 6940   2.197   3.297   2.923
 2307SOL    HW1 6941   2.119   3.266   2.870
 2307SOL    HW2 6942   2.255   3.355   2.866
 2308SOL     OW 6943   3.322   3.367   3.201
 2308SOL    HW1 6944   3.346   3.461   3.227
 2308SOL    HW2 6945   3.306   3.313   3.283
 2309SOL     OW 6946   2.300   2.254   3.361
 2309SOL    HW1 6947   2.382   2.198   3.370
 2309SOL    HW2 6948   2.219   2.196   3.365
 2310SOL     OW 6949   3.465   2.309   2.599
 2310SOL    HW1 6950   3.391   2.355   2.549
 2310SOL    HW2 6951   3.516   2.377   2.652
 2311SOL     OW 6952   2.093   3.575   2.345
 2311SOL    HW1 6953   2.127   3.652   2.399
 2311SOL    HW2 6954   2.137   3.575   2.255
 2312SOL     OW 6955   2.989   3.203   3.552
 2312SOL    HW1 6956   3.036   3.203   3.640
 2312SOL    HW2 6957   2.941   3.116   3.541
 2313SOL     OW 6958   2.092   3.296   2.400
 2313SOL    HW1 6959   2.066   3.392   2.400
 2313SOL    HW2 6960   2.021   3.242   2.445
 2314SOL     OW 6961   2.102   2.953   2.748
 2314SOL    HW1 6962   2.116   2.869   2.800
 2314SOL    HW2 6963   2.047   3.017   2.803
 2315SOL     OW 6964   2.482   3.648   3.301
 2315SOL    HW1 6965   2.390   3.631   3.336
 2315SOL    HW2 6966   2.510   3.740   3.327
 2316SOL     OW 6967   2.468   2.826   1.985
 2316SOL    HW1 6968   2.475   2.910   1.931
 2316SOL    HW2 6969   2.514   2.839   2.073
 2317SOL     OW 6970   3.456   1.976   3.342
 2317SOL    HW1 6971   3.438   2.043   3.270
 2317SOL    HW2 6972   3.453   2.022   3.431
 2318SOL     OW 6973   1.984   2.505   2.425
 2318SOL    HW1 6974   1.939   2.417   2.442
 2318SOL    HW2 6975   1.983   2.559   2.509
 2319SOL     OW 6976   3.704   3.629   2.221
 2319SOL    HW1 6977   3.758   3.600   2.301
 2319SOL    HW2 6978   3.734   3.719   2.192
 2320SOL     OW 6979   1.889   3.458   1.979
 2320SOL    HW1 6980   1.870   3.362   2.000
 2320SOL    HW2 6981   1.856   3.516   2.054
 2321SOL     OW 6982   3.551   2.784   2.474
 2321SOL    HW1 6983   3.646   2.755   2.482
 2321SOL    HW2 6984   3.543   2.849   2.399
 2322SOL     OW 6985   3.503   2.970   2.294
 2322SOL    HW1 6986   3.589   2.972   2.242
 2322SOL    HW2 6987   3.517   3.017   2.382
 2323SOL     OW 6988   1.975   2.599   3.459
 2323SOL    HW1 6989   2.063   2.586   3.504
 2323SOL    HW2 6990   1.962   2.696   3.437
 2324SOL     OW 6991   2.475   3.227   2.588
 2324SOL    HW1 6992   2.426   3.140   2.597
 2324SOL    HW2 6993   2.452   3.270   2.501
 2325SOL     OW 6994   3.155   3.090   3.285
 2325SOL    HW1 6995   3.192   3.017   3.227
 2325SOL    HW2 6996   3.207   3.095   3.370
 2326SOL     OW 6997   2.671   1.866   2.364
 2326SOL    HW1 6998   2.711   1.957   2.355
 2326SOL    HW2 6999   2.571   1.874   2.370
 2327SOL     OW 7000   2.059   2.838   3.126
 2327SOL    HW1 7001   2.148   2.793   3.112
 2327SOL    HW2 7002   1.986   2.773   3.107
 2328SOL     OW 7003   3.387   2.861   2.052
 2328SOL    HW1 7004   3.324   2.785   2.065
 2328SOL    HW2 7005   3.435   2.879   2.138
 2329SOL     OW 7006   3.049   3.654   3.478
 2329SOL    HW1 7007   3.073   3.714   3.402
 2329SOL    HW2 7008   3.056   3.559   3.448
 2330SOL     OW 7009   2.179   2.113   3.663
 2330SOL    HW1 7010   2.250   2.184   3.669
 2330SOL    HW2 7011   2.091   2.152   3.691
 2331SOL     OW 7012   3.328   3.279   2.815
 2331SOL    HW1 7013   3.269   3.285   2.895
 2331SOL    HW2 7014   3.313   3.191   2.769
 2332SOL     OW 7015   3.529   3.576   2.434
 2332SOL    HW1 7016   3.488   3.553   2.346
 2332SOL    HW2 7017   3.511   3.502   2.499
 2333SOL     OW 7018   3.143   2.207   2.806
 2333SOL    HW1 7019   3.057   2.157   2.793
 2333SOL    HW2 7020   3.205   2.153   2.862
 2334SOL     OW 7021   3.438   3.524   2.169
 2334SOL    HW1 7022   3.527   3.570   2.172
 2334SOL    HW2 7023   3.417   3.500   2.074
 2335SOL     OW 7024   2.669   2.467   3.327
 2335SOL    HW1 7025   2.622   2.464   3.416
 2335SOL    HW2 7026   2.618   2.412   3.261
 2336SOL     OW 7027   3.256   2.331   3.536
 2336SOL    HW1 7028   3.236   2.374   3.624
 2336SOL    HW2 7029   3.334   2.269   3.545
 2337SOL     OW 7030   2.835   2.752   3.434
 2337SOL    HW1 7031   2.881   2.668   3.405
 2337SOL    HW2 7032   2.779   2.786   3.359
 2338SOL     OW 7033   2.853   2.272   3.104
 2338SOL    HW1 7034   2.776   2.306   3.158
 2338SOL    HW2 7035   2.819   2.221   3.025
 2339SOL     OW 7036   2.903   2.563   2.291
 2339SOL    HW1 7037   2.929   2.559   2.387
 2339SOL    HW2 7038   2.818   2.512   2.277
 2340SOL     OW 7039   1.938   2.673   2.651
 2340SOL    HW1 7040   2.037   2.661   2.660
 2340SOL    HW2 7041   1.914   2.768   2.672
 2341SOL     OW 7042   1.992   3.683   3.433
 2341SOL    HW1 7043   1.982   3.668   3.532
 2341SOL    HW2 7044   1.906   3.719   3.397
 2342SOL     OW 7045   2.727   2.210   2.057
 2342SOL    HW1 7046   2.786   2.273   2.008
 2342SOL    HW2 7047   2.746   2.116   2.028
 2343SOL     OW 7048   3.581   2.447   3.693
 2343SOL    HW1 7049   3.555   2.536   3.657
 2343SOL    HW2 7050   3.579   2.379   3.620
 2344SOL     OW 7051   3.224   3.006   2.407
 2344SOL    HW1 7052   3.307   2.977   2.359
 2344SOL    HW2 7053   3.175   3.073   2.351
 2345SOL     OW 7054   2.870   3.318   2.339
 2345SOL    HW1 7055   2.824   3.390   2.287
 2345SOL    HW2 7056   2.866   3.338   2.437
 2346SOL     OW 7057   2.213   3.663   2.715
 2346SOL    HW1 7058   2.263   3.577   2.721
 2346SOL    HW2 7059   2.278   3.740   2.712
 2347SOL     OW 7060   3.657   2.928   2.735
 2347SOL    HW1 7061   3.595   2.913   2.659
 2347SOL    HW2 7062   3.605   2.939   2.820
 2348SOL     OW 7063   3.089   3.412   3.368
 2348SOL    HW1 7064   3.095   3.335   3.432
 2348SOL    HW2 7065   3.037   3.386   3.288
 2349SOL     OW 7066   2.183   2.805   2.104
 2349SOL    HW1 7067   2.265   2.844   2.062
 2349SOL    HW2 7068   2.156   2.723   2.055
 2350SOL     OW 7069   3.320   2.597   2.590
 2350SOL    HW1 7070   3.315   2.532   2.665
 2350SOL    HW2 7071   3.400   2.656   2.603
 2351SOL     OW 7072   2.323   3.128   3.589
 2351SOL    HW1 7073   2.273   3.129   3.503
 2351SOL    HW2 7074   2.260   3.110   3.665
 2352SOL     OW 7075   2.973   3.638   2.099
 2352SOL    HW1 7076   2.913   3.576   2.149
 2352SOL    HW2 7077   3.004   3.594   2.014
 2353SOL     OW 7078   2.064   2.147   3.360
 2353SOL    HW1 7079   1.984   2.207   3.347
 2353SOL    HW2 7080   2.054   2.098   3.446
 2354SOL     OW 7081   3.494   3.239   1.943
 2354SOL    HW1 7082   3.462   3.333   1.933
 2354SOL    HW2 7083   3.418   3.176   1.931
 2355SOL     OW 7084   2.326   3.605   2.185
 2355SOL    HW1 7085   2.359   3.644   2.271
 2355SOL    HW2 7086   2.402   3.598   2.120
 2356SOL     OW 7087   3.262   1.969   2.288
 2356SOL    HW1 7088   3.238   1.932   2.198
 2356SOL    HW2 7089   3.361   1.985   2.292
 2357SOL     OW 7090   2.111   3.647   3.103
 2357SOL    HW1 7091   2.168   3.582   3.153
 2357SOL    HW2 7092   2.095   3.614   3.010
 2358SOL     OW 7093   2.802   3.560   2.766
 2358SOL    HW1 7094   2.882   3.503   2.787
 2358SOL    HW2 7095   2.753   3.520   2.689
 2359SOL     OW 7096   3.409   2.084   3.591
 2359SOL    HW1 7097   3.404   2.121   3.683
 2359SOL    HW2 7098   3.337   2.015   3.579
 2360SOL     OW 7099   2.476   1.984   1.979
 2360SOL    HW1 7100   2.574   1.962   1.986
 2360SOL    HW2 7101   2.445   1.967   1.886
 2361SOL     OW 7102   2.643   2.126   3.611
 2361SOL    HW1 7103   2.710   2.065   3.654
 2361SOL    HW2 7104   2.570   2.145   3.676
 2362SOL     OW 7105   2.750   3.376   3.057
 2362SOL    HW1 7106   2.727   3.351   2.963
 2362SOL    HW2 7107   2.811   3.307   3.096
 2363SOL     OW 7108   3.213   2.452   3.295
 2363SOL    HW1 7109   3.241   2.409   3.380
 2363SOL    HW2 7110   3.238   2.548   3.296
 2364SOL     OW 7111   2.665   3.264   2.786
 2364SOL    HW1 7112   2.755   3.278   2.744
 2364SOL    HW2 7113   2.594   3.266   2.715
 2365SOL     OW 7114   2.401   1.926   2.374
 2365SOL    HW1 7115   2.320   1.927   2.432
 2365SOL    HW2 7116   2.404   2.009   2.319
 2366SOL     OW 7117   3.296   3.050   1.903
 2366SOL    HW1 7118   3.328   2.974   1.960
 2366SOL    HW2 7119   3.204   3.077   1.933
 2367SOL     OW 7120   2.159   1.897   2.033
 2367SOL    HW1 7121   2.208   1.981   2.012
 2367SOL    HW2 7122   2.221   1.832   2.078
 2368SOL     OW 7123   2.797   2.098   2.342
 2368SOL    HW1 7124   2.749   2.139   2.264
 2368SOL    HW2 7125   2.896   2.096   2.323
 2369SOL     OW 7126   2.938   2.545   3.326
 2369SOL    HW1 7127   2.858   2.484   3.329
 2369SOL    HW2 7128   3.019   2.492   3.302
 2370SOL     OW 7129   3.089   3.432   2.655
 2370SOL    HW1 7130   3.110   3.506   2.590
 2370SOL    HW2 7131   3.157   3.432   2.728
 2371SOL     OW 7132   2.321   3.014   2.603
 2371SOL    HW1 7133   2.250   2.987   2.668
 2371SOL    HW2 7134   2.295   2.986   2.510
 2372SOL     OW 7135   3.133   3.659   2.453
 2372SOL    HW1 7136   3.177   3.723   2.389
 2372SOL    HW2 7137   3.083   3.711   2.523
 2373SOL     OW 7138   2.894   2.411   1.878
 2373SOL    HW1 7139   2.853   2.493   1.839
 2373SOL    HW2 7140   2.958   2.437   1.951
 2374SOL     OW 7141   1.940   2.418   3.248
 2374SOL    HW1 7142   2.032   2.417   3.207
 2374SOL    HW2 7143   1.934   2.492   3.315
 2375SOL     OW 7144   2.423   2.084   3.009
 2375SOL    HW1 7145   2.461   2.000   3.046
 2375SOL    HW2 7146   2.335   2.103   3.053
 2376SOL     OW 7147   2.879   1.901   2.615
 2376SOL    HW1 7148   2.807   1.906   2.546
 2376SOL    HW2 7149   2.855   1.832   2.684
 2377SOL     OW 7150   3.291   3.035   2.729
 2377SOL    HW1 7151   3.236   2.951   2.722
 2377SOL    HW2 7152   3.317   3.064   2.637
 2378SOL     OW 7153   3.328   2.452   2.854
 2378SOL    HW1 7154   3.298   2.357   2.861
 2378SOL    HW2 7155   3.401   2.468   2.920
 2379SOL     OW 7156   3.719   2.695   2.239
 2379SOL    HW1 7157   3.761   2.631   2.303
 2379SOL    HW2 7158   3.681   2.644   2.161
 2380SOL     OW 7159   2.350   3.247   2.036
 2380SOL    HW1 7160   2.263   3.232   2.083
 2380SOL    HW2 7161   2.333   3.273   1.941
 2381SOL     OW 7162   3.526   3.142   2.519
 2381SOL    HW1 7163   3.625   3.150   2.533
 2381SOL    HW2 7164   3.481   3.226   2.550
 2382SOL     OW 7165   3.252   2.437   1.940
 2382SOL    HW1 7166   3.198   2.416   2.021
 2382SOL    HW2 7167   3.343   2.396   1.949
 2383SOL     OW 7168   2.389   2.118   2.190
 2383SOL    HW1 7169   2.416   2.059   2.115
 2383SOL    HW2 7170   2.389   2.213   2.159
 2384SOL     OW 7171   3.616   3.085   3.450
 2384SOL    HW1 7172   3.707   3.046   3.437
 2384SOL    HW2 7173   3.624   3.181   3.474
 2385SOL     OW 7174   2.926   3.209   3.202
 2385SOL    HW1 7175   2.846   3.186   3.257
 2385SOL    HW2 7176   3.009   3.183   3.251
 2386SOL     OW 7177   3.454   3.491   3.487
 2386SOL    HW1 7178   3.481   3.525   3.397
 2386SOL    HW2 7179   3.533   3.453   3.533
 2387SOL     OW 7180   2.973   3.057   2.962
 2387SOL    HW1 7181   2.933   3.101   3.043
 2387SOL    HW2 7182   2.932   3.094   2.879
 2388SOL     OW 7183   3.500   2.961   2.941
 2388SOL    HW1 7184   3.505   3.042   3.000
 2388SOL    HW2 7185   3.414   2.963   2.890
 2389SOL     OW 7186   2.777   1.951   3.264
 2389SOL    HW1 7187   2.802   1.931   3.169
 2389SOL    HW2 7188   2.849   2.007   3.306
 2390SOL     OW 7189   2.842   2.978   3.581
 2390SOL    HW1 7190   2.743   2.984   3.591
 2390SOL    HW2 7191   2.865   2.898   3.525
 2391SOL     OW 7192   2.567   2.912   2.230
 2391SOL    HW1 7193   2.553   2.919   2.329
 2391SOL    HW2 7194   2.651   2.861   2.212
 2392SOL     OW 7195   2.272   2.675   3.113
 2392SOL    HW1 7196   2.358   2.687   3.163
 2392SOL    HW2 7197   2.230   2.588   3.140
 2393SOL     OW 7198   3.136   2.248   3.124
 2393SOL    HW1 7199   3.157   2.322   3.188
 2393SOL    HW2 7200   3.047   2.265   3.081
 2394SOL     OW 7201   1.926   3.426   3.193
 2394SOL    HW1 7202   1.880   3.508   3.159
 2394SOL    HW2 7203   2.024   3.445   3.202
 2395SOL     OW 7204   3.114   3.210   2.250
 2395SOL    HW1 7205   3.164   3.287   2.290
 2395SOL    HW2 7206   3.019   3.212   2.282
 2396SOL     OW 7207   3.134   3.307   3.004
 2396SOL    HW1 7208   3.181   3.320   3.091
 2396SOL    HW2 7209   3.068   3.233   3.013
 2397SOL     OW 7210   3.444   2.501   2.334
 2397SOL    HW1 7211   3.413   2.562   2.407
 2397SOL    HW2 7212   3.494   2.553   2.265
 2398SOL     OW 7213   2.216   3.372   3.191
 2398SOL    HW1 7214   2.195   3.328   3.104
 2398SOL    HW2 7215   2.313   3.398   3.194
 2399SOL     OW 7216   2.264   2.613   3.460
 2399SOL    HW1 7217   2.332   2.668   3.413
 2399SOL    HW2 7218   2.304   2.525   3.487
 2400SOL     OW 7219   3.449   2.641   3.532
 2400SOL    HW1 7220   3.357   2.679   3.527
 2400SOL    HW2 7221   3.509   2.688   3.467
 2401SOL     OW 7222   2.875   1.967   3.632
 2401SOL    HW1 7223   2.881   2.052   3.580
 2401SOL    HW2 7224   2.907   1.891   3.575
 2402SOL     OW 7225   2.366   1.912   3.602
 2402SOL    HW1 7226   2.324   1.855   3.532
 2402SOL    HW2 7227   2.300   1.981   3.634
 2403SOL     OW 7228   2.435   2.732   2.891
 2403SOL    HW1 7229   2.479   2.821   2.882
 2403SOL    HW2 7230   2.372   2.732   2.968
 2404SOL     OW 7231   3.222   2.724   2.907
 2404SOL    HW1 7232   3.147   2.724   2.841
 2404SOL    HW2 7233   3.259   2.632   2.916
 2405SOL     OW 7234   3.071   2.387   2.137
 2405SOL    HW1 7235   3.084   2.303   2.191
 2405SOL    HW2 7236   3.042   2.461   2.197
 2406SOL     OW 7237   2.169   2.075   3.093
 2406SOL    HW1 7238   2.146   2.112   3.183
 2406SOL    HW2 7239   2.139   1.980   3.087
 2407SOL     OW 7240   1.899   3.172   3.144
 2407SOL    HW1 7241   1.952   3.123   3.212
 2407SOL    HW2 7242   1.921   3.270   3.149
 2408SOL     OW 7243   2.594   2.496   2.926
 2408SOL    HW1 7244   2.653   2.470   2.850
 2408SOL    HW2 7245   2.566   2.592   2.915
 2409SOL     OW 7246   3.590   2.797   3.716
 2409SOL    HW1 7247   3.544   2.790   3.627
 2409SOL    HW2 7248   3.528   2.841   3.782
 2410SOL     OW 7249   2.169   1.925   2.480
 2410SOL    HW1 7250   2.158   2.019   2.513
 2410SOL    HW2 7251   2.164   1.862   2.557
 2411SOL     OW 7252   3.484   2.229   2.236
 2411SOL    HW1 7253   3.486   2.153   2.300
 2411SOL    HW2 7254   3.436   2.306   2.276
 2412SOL     OW 7255   2.885   2.628   2.828
 2412SOL    HW1 7256   2.900   2.649   2.924
 2412SOL    HW2 7257   2.855   2.533   2.819
 2413SOL     OW 7258   2.842   3.435   3.562
 2413SOL    HW1 7259   2.822   3.479   3.474
 2413SOL    HW2 7260   2.881   3.344   3.546
 2414SOL     OW 7261   3.721   3.380   3.467
 2414SOL    HW1 7262   3.735   3.407   3.372
 2414SOL    HW2 7263   3.804   3.402   3.520
 2415SOL     OW 7264   2.212   2.760   3.666
 2415SOL    HW1 7265   2.288   2.804   3.714
 2415SOL    HW2 7266   2.247   2.713   3.584
 2416SOL     OW 7267   3.402   2.136   1.987
 2416SOL    HW1 7268   3.341   2.061   2.010
 2416SOL    HW2 7269   3.424   2.188   2.070
 2417SOL     OW 7270   3.165   2.700   1.904
 2417SOL    HW1 7271   3.199   2.607   1.919
 2417SOL    HW2 7272   3.183   2.727   1.809
 2418SOL     OW 7273   2.930   3.195   2.711
 2418SOL    HW1 7274   2.937   3.111   2.656
 2418SOL    HW2 7275   2.992   3.264   2.675
 2419SOL     OW 7276   2.181   2.672   2.811
 2419SOL    HW1 7277   2.274   2.708   2.816
 2419SOL    HW2 7278   2.175   2.587   2.863
 2420SOL     OW 7279   2.201   2.371   2.868
 2420SOL    HW1 7280   2.149   2.288   2.851
 2420SOL    HW2 7281   2.278   2.376   2.804
 2421SOL     OW 7282   3.000   2.242   3.540
 2421SOL    HW1 7283   2.955   2.305   3.604
 2421SOL    HW2 7284   3.093   2.273   3.523
 2422SOL     OW 7285   3.022   2.069   3.339
 2422SOL    HW1 7286   3.022   2.133   3.416
 2422SOL    HW2 7287   3.050   2.117   3.256
 2423SOL     OW 7288   1.870   3.188   2.062
 2423SOL    HW1 7289   1.777   3.209   2.031
 2423SOL    HW2 7290   1.880   3.089   2.075
 2424SOL     OW 7291   1.950   3.663   2.789
 2424SOL    HW1 7292   1.908   3.577   2.762
 2424SOL    HW2 7293   2.044   3.666   2.755
 2425SOL     OW 7294   2.366   3.430   2.772
 2425SOL    HW1 7295   2.432   3.504   2.781
 2425SOL    HW2 7296   2.410   3.351   2.730
 2426SOL     OW 7297   2.864   2.658   3.100
 2426SOL    HW1 7298   2.905   2.626   3.186
 2426SOL    HW2 7299   2.768   2.631   3.097
 2427SOL     OW 7300   1.902   2.406   2.976
 2427SOL    HW1 7301   1.987   2.373   2.935
 2427SOL    HW2 7302   1.915   2.421   3.074
 2428SOL     OW 7303   2.051   2.382   3.584
 2428SOL    HW1 7304   2.110   2.342   3.514
 2428SOL    HW2 7305   1.993   2.453   3.543
 2429SOL     OW 7306   3.231   2.812   3.522
 2429SOL    HW1 7307   3.270   2.901   3.542
 2429SOL    HW2 7308   3.241   2.792   3.425
 2430SOL     OW 7309   3.519   2.466   3.068
 2430SOL    HW1 7310   3.481   2.397   3.130
 2430SOL    HW2 7311   3.601   2.430   3.024
 2431SOL     OW 7312   2.114   3.426   3.606
 2431SOL    HW1 7313   2.084   3.483   3.682
 2431SOL    HW2 7314   2.107   3.329   3.632
 2432SOL     OW 7315   2.533   2.326   3.131
 2432SOL    HW1 7316   2.499   2.237   3.101
 2432SOL    HW2 7317   2.559   2.380   3.051
 2433SOL     OW 7318   2.792   3.540   3.327
 2433SOL    HW1 7319   2.768   3.522   3.232
 2433SOL    HW2 7320   2.822   3.634   3.337
 2434SOL     OW 7321   2.335   2.362   2.053
 2434SOL    HW1 7322   2.396   2.442   2.057
 2434SOL    HW2 7323   2.240   2.393   2.060
 2435SOL     OW 7324   2.021   2.999   3.328
 2435SOL    HW1 7325   2.043   2.938   3.404
 2435SOL    HW2 7326   2.031   2.950   3.242
 2436SOL     OW 7327   3.209   2.921   3.096
 2436SOL    HW1 7328   3.233   2.858   3.022
 2436SOL    HW2 7329   3.119   2.961   3.078
 2437SOL     OW 7330   3.164   2.717   2.171
 2437SOL    HW1 7331   3.078   2.686   2.213
 2437SOL    HW2 7332   3.160   2.703   2.072
 2438SOL     OW 7333   3.621   3.609   3.016
 2438SOL    HW1 7334   3.682   3.639   2.943
 2438SOL    HW2 7335   3.583   3.520   2.994
 2439SOL     OW 7336   3.114   3.593   2.990
 2439SOL    HW1 7337   3.198   3.598   2.936
 2439SOL    HW2 7338   3.091   3.497   3.008
 2440SOL     OW 7339   1.945   3.120   2.884
 2440SOL    HW1 7340   1.940   3.119   2.984
 2440SOL    HW2 7341   1.862   3.079   2.846
 2441SOL     OW 7342   2.550   3.524   3.578
 2441SOL    HW1 7343   2.494   3.605   3.587
 2441SOL    HW2 7344   2.602   3.528   3.492
 2442SOL     OW 7345   3.588   1.997   2.385
 2442SOL    HW1 7346   3.661   1.980   2.318
 2442SOL    HW2 7347   3.557   1.910   2.423
 2443SOL     OW 7348   3.250   3.435   2.339
 2443SOL    HW1 7349   3.317   3.447   2.265
 2443SOL    HW2 7350   3.210   3.524   2.362
 2444SOL     OW 7351   1.992   3.656   3.713
 2444SOL    HW1 7352   1.951   3.582   3.766
 2444SOL    HW2 7353   2.056   3.707   3.771
 2445SOL     OW 7354   3.142   2.789   2.534
 2445SOL    HW1 7355   3.202   2.708   2.536
 2445SOL    HW2 7356   3.182   2.858   2.474
 2446SOL     OW 7357   2.692   3.135   3.284
 2446SOL    HW1 7358   2.687   3.168   3.379
 2446SOL    HW2 7359   2.606   3.154   3.238
 2447SOL     OW 7360   2.534   3.478   2.016
 2447SOL    HW1 7361   2.543   3.488   1.917
 2447SOL    HW2 7362   2.494   3.389   2.037
 2448SOL     OW 7363   3.512   3.582   3.256
 2448SOL    HW1 7364   3.565   3.592   3.172
 2448SOL    HW2 7365   3.485   3.672   3.290
 2449SOL     OW 7366   3.703   2.037   2.825
 2449SOL    HW1 7367   3.742   1.952   2.789
 2449SOL    HW2 7368   3.605   2.039   2.806
 2450SOL     OW 7369   2.125   2.188   2.582
 2450SOL    HW1 7370   2.046   2.239   2.548
 2450SOL    HW2 7371   2.116   2.173   2.680
 2451SOL     OW 7372   3.056   3.474   1.893
 2451SOL    HW1 7373   3.062   3.381   1.930
 2451SOL    HW2 7374   2.997   3.474   1.813
 2452SOL     OW 7375   2.684   2.864   3.234
 2452SOL    HW1 7376   2.724   2.863   3.142
 2452SOL    HW2 7377   2.694   2.956   3.274
 2453SOL     OW 7378   2.778   2.772   2.153
 2453SOL    HW1 7379   2.841   2.810   2.085
 2453SOL    HW2 7380   2.818   2.689   2.192
 2454SOL     OW 7381   3.366   3.469   1.906
 2454SOL    HW1 7382   3.274   3.506   1.913
 2454SOL    HW2 7383   3.404   3.489   1.816
 2455SOL     OW 7384   2.234   3.150   3.352
 2455SOL    HW1 7385   2.221   3.243   3.318
 2455SOL    HW2 7386   2.150   3.098   3.339
 2456SOL     OW 7387   3.476   3.154   3.151
 2456SOL    HW1 7388   3.536   3.157   3.231
 2456SOL    HW2 7389   3.401   3.218   3.164
 2457SOL     OW 7390   2.901   2.960   2.558
 2457SOL    HW1 7391   2.831   2.913   2.612
 2457SOL    HW2 7392   2.960   2.892   2.515
 2458SOL     OW 7393   2.876   2.098   2.833
 2458SOL    HW1 7394   2.868   2.062   2.740
 2458SOL    HW2 7395   2.874   2.022   2.898
 2459SOL     OW 7396   2.452   3.349   2.353
 2459SOL    HW1 7397   2.494   3.291   2.283
 2459SOL    HW2 7398   2.408   3.428   2.309
 2460SOL     OW 7399   3.571   2.247   3.243
 2460SOL    HW1 7400   3.644   2.316   3.247
 2460SOL    HW2 7401   3.599   2.172   3.184
 2461SOL     OW 7402   2.117   3.210   2.152
 2461SOL    HW1 7403   2.021   3.211   2.125
 2461SOL    HW2 7404   2.129   3.263   2.236
 2462SOL     OW 7405   1.967   2.875   3.588
 2462SOL    HW1 7406   1.890   2.842   3.642
 2462SOL    HW2 7407   2.052   2.845   3.630
 2463SOL     OW 7408   2.534   2.065   3.351
 2463SOL    HW1 7409   2.624   2.049   3.311
 2463SOL    HW2 7410   2.542   2.070   3.450
 2464SOL     OW 7411   1.937   2.207   1.895
 2464SOL    HW1 7412   1.845   2.179   1.866
 2464SOL    HW2 7413   1.968   2.284   1.839
 2465SOL     OW 7414   3.302   2.718   3.260
 2465SOL    HW1 7415   3.245   2.770   3.197
 2465SOL    HW2 7416   3.398   2.730   3.236
 2466SOL     OW 7417   1.934   2.028   2.180
 2466SOL    HW1 7418   1.917   2.111   2.126
 2466SOL    HW2 7419   2.024   1.991   2.158
 2467SOL     OW 7420   3.045   3.197   1.981
 2467SOL    HW1 7421   2.946   3.186   1.983
 2467SOL    HW2 7422   3.079   3.212   2.074
 2468SOL     OW 7423   2.475   2.704   3.293
 2468SOL    HW1 7424   2.531   2.785   3.276
 2468SOL    HW2 7425   2.534   2.624   3.296
 2469SOL     OW 7426   3.355   3.629   2.821
 2469SOL    HW1 7427   3.388   3.693   2.752
 2469SOL    HW2 7428   3.421   3.623   2.896
 2470SOL     OW 7429   2.578   2.427   3.570
 2470SOL    HW1 7430   2.597   2.492   3.644
 2470SOL    HW2 7431   2.638   2.347   3.579
 2471SOL     OW 7432   3.312   3.082   3.495
 2471SOL    HW1 7433   3.303   3.072   3.594
 2471SOL    HW2 7434   3.408   3.075   3.469
 2472SOL     OW 7435   2.252   3.603   3.422
 2472SOL    HW1 7436   2.161   3.644   3.420
 2472SOL    HW2 7437   2.245   3.509   3.454
 2473SOL     OW 7438   3.536   2.745   3.116
 2473SOL    HW1 7439   3.509   2.656   3.079
 2473SOL    HW2 7440   3.537   2.813   3.043
 2474SOL     OW 7441   3.087   2.187   2.311
 2474SOL    HW1 7442   3.152   2.113   2.300
 2474SOL    HW2 7443   3.107   2.237   2.395
 2475SOL     OW 7444   3.639   2.204   3.504
 2475SOL    HW1 7445   3.622   2.235   3.410
 2475SOL    HW2 7446   3.555   2.167   3.542
 2476SOL     OW 7447   3.592   2.796   3.379
 2476SOL    HW1 7448   3.630   2.887   3.394
 2476SOL    HW2 7449   3.584   2.779   3.280
 2477SOL     OW 7450   2.721   3.236   1.878
 2477SOL    HW1 7451   2.675   3.251   1.966
 2477SOL    HW2 7452   2.765   3.321   1.848
 2478SOL     OW 7453   2.523   3.652   2.815
 2478SOL    HW1 7454   2.477   3.740   2.802
 2478SOL    HW2 7455   2.622   3.664   2.808
 2479SOL     OW 7456   2.721   2.818   2.723
 2479SOL    HW1 7457   2.775   2.749   2.771
 2479SOL    HW2 7458   2.689   2.887   2.789
 2480SOL     OW 7459   2.945   2.846   1.949
 2480SOL    HW1 7460   2.922   2.899   1.867
 2480SOL    HW2 7461   3.026   2.790   1.930
 2481SOL     OW 7462   3.723   3.431   2.713
 2481SOL    HW1 7463   3.652   3.419   2.643
 2481SOL    HW2 7464   3.724   3.352   2.773
 2482SOL     OW 7465   2.083   3.176   3.706
 2482SOL    HW1 7466   2.018   3.103   3.685
 2482SOL    HW2 7467   2.087   3.190   3.804
 2483SOL     OW 7468   1.941   3.102   2.515
 2483SOL    HW1 7469   1.940   3.055   2.603
 2483SOL    HW2 7470   2.023   3.074   2.464
 2484SOL     OW 7471   2.534   3.253   3.486
 2484SOL    HW1 7472   2.456   3.203   3.524
 2484SOL    HW2 7473   2.531   3.348   3.517
 2485SOL     OW 7474   3.686   2.054   3.089
 2485SOL    HW1 7475   3.682   1.964   3.133
 2485SOL    HW2 7476   3.689   2.043   2.990
 2486SOL     OW 7477   2.290   2.286   2.382
 2486SOL    HW1 7478   2.320   2.214   2.320
 2486SOL    HW2 7479   2.251   2.246   2.465
 2487SOL     OW 7480   3.567   3.349   2.966
 2487SOL    HW1 7481   3.474   3.324   2.939
 2487SOL    HW2 7482   3.593   3.299   3.048
 2488SOL     OW 7483   2.179   2.409   3.142
 2488SOL    HW1 7484   2.217   2.350   3.214
 2488SOL    HW2 7485   2.219   2.383   3.054
 2489SOL     OW 7486   2.674   3.448   2.549
 2489SOL    HW1 7487   2.706   3.458   2.455
 2489SOL    HW2 7488   2.595   3.386   2.551
 2490SOL     OW 7489   3.286   2.076   2.974
 2490SOL    HW1 7490   3.338   2.011   3.029
 2490SOL    HW2 7491   3.237   2.139   3.035
 2491SOL     OW 7492   2.863   1.896   3.016
 2491SOL    HW1 7493   2.800   1.824   2.985
 2491SOL    HW2 7494   2.956   1.860   3.016
 2492SOL     OW 7495   2.632   3.192   2.163
 2492SOL    HW1 7496   2.586   3.105   2.180
 2492SOL    HW2 7497   2.723   3.189   2.204
 2493SOL     OW 7498   2.480   3.429   3.146
 2493SOL    HW1 7499   2.475   3.511   3.203
 2493SOL    HW2 7500   2.569   3.426   3.101
 2494SOL     OW 7501   3.214   1.914   2.030
 2494SOL    HW1 7502   3.249   1.873   1.946
 2494SOL    HW2 7503   3.124   1.876   2.050
 2495SOL     OW 7504   3.162   2.315   2.553
 2495SOL    HW1 7505   3.103   2.395   2.557
 2495SOL    HW2 7506   3.177   2.280   2.646
 2496SOL     OW 7507   3.455   2.083   2.744
 2496SOL    HW1 7508   3.371   2.082   2.798
 2496SOL    HW2 7509   3.457   2.166   2.688
 2497SOL     OW 7510   1.901   2.939   2.162
 2497SOL    HW1 7511   2.000   2.928   2.153
 2497SOL    HW2 7512   1.861   2.853   2.194
 2498SOL     OW 7513   2.737   3.508   2.199
 2498SOL    HW1 7514   2.660   3.473   2.145
 2498SOL    HW2 7515   2.705   3.579   2.261
 2499SOL     OW 7516   2.092   2.490   3.837
 2499SOL    HW1 7517   1.999   2.488   3.874
 2499SOL    HW2 7518   2.093   2.451   3.745
 2500SOL     OW 7519   2.087   2.137   4.720
 2500SOL    HW1 7520   2.122   2.120   4.812
 2500SOL    HW2 7521   1.999   2.092   4.708
 2501SOL     OW 7522   1.881   2.230   4.371
 2501SOL    HW1 7523   1.799   2.273   4.410
 2501SOL    HW2 7524   1.853   2.157   4.308
 2502SOL     OW 7525   2.431   3.137   4.889
 2502SOL    HW1 7526   2.338   3.130   4.852
 2502SOL    HW2 7527   2.442   3.226   4.933
 2503SOL     OW 7528   3.417   3.373   4.427
 2503SOL    HW1 7529   3.360   3.357   4.508
 2503SOL    HW2 7530   3.358   3.383   4.347
 2504SOL     OW 7531   2.997   2.565   4.441
 2504SOL    HW1 7532   3.054   2.643   4.416
 2504SOL    HW2 7533   2.937   2.591   4.517
 2505SOL     OW 7534   3.617   2.469   3.955
 2505SOL    HW1 7535   3.605   2.456   3.856
 2505SOL    HW2 7536   3.587   2.388   4.004
 2506SOL     OW 7537   2.630   3.006   4.747
 2506SOL    HW1 7538   2.552   3.023   4.807
 2506SOL    HW2 7539   2.664   3.093   4.711
 2507SOL     OW 7540   2.547   2.874   4.389
 2507SOL    HW1 7541   2.616   2.858   4.459
 2507SOL    HW2 7542   2.474   2.931   4.427
 2508SOL     OW 7543   2.197   3.297   4.785
 2508SOL    HW1 7544   2.119   3.266   4.732
 2508SOL    HW2 7545   2.255   3.355   4.728
 2509SOL     OW 7546   3.465   2.309   4.461
 2509SOL    HW1 7547   3.391   2.355   4.411
 2509SOL    HW2 7548   3.516   2.377   4.514
 2510SOL     OW 7549   2.093   3.575   4.207
 2510SOL    HW1 7550   2.127   3.652   4.261
 2510SOL    HW2 7551   2.137   3.575   4.117
 2511SOL     OW 7552   2.092   3.296   4.262
 2511SOL    HW1 7553   2.066   3.392   4.262
 2511SOL    HW2 7554   2.021   3.242   4.307
 2512SOL     OW 7555   2.102   2.953   4.610
 2512SOL    HW1 7556   2.116   2.869   4.662
 2512SOL    HW2 7557   2.047   3.017   4.665
 2513SOL     OW 7558   2.468   2.826   3.847
 2513SOL    HW1 7559   2.475   2.910   3.793
 2513SOL    HW2 7560   2.514   2.839   3.935
 2514SOL     OW 7561   1.984   2.505   4.287
 2514SOL    HW1 7562   1.939   2.417   4.304
 2514SOL    HW2 7563   1.983   2.559   4.371
 2515SOL     OW 7564   3.704   3.629   4.083
 2515SOL    HW1 7565   3.758   3.600   4.163
 2515SOL    HW2 7566   3.734   3.719   4.054
 2516SOL     OW 7567   1.889   3.458   3.841
 2516SOL    HW1 7568   1.870   3.362   3.862
 2516SOL    HW2 7569   1.856   3.516   3.916
 2517SOL     OW 7570   3.551   2.784   4.336
 2517SOL    HW1 7571   3.646   2.755   4.344
 2517SOL    HW2 7572   3.543   2.849   4.261
 2518SOL     OW 7573   3.503   2.970   4.156
 2518SOL    HW1 7574   3.589   2.972   4.104
 2518SOL    HW2 7575   3.517   3.017   4.244
 2519SOL     OW 7576   2.475   3.227   4.450
 2519SOL    HW1 7577   2.426   3.140   4.459
 2519SOL    HW2 7578   2.452   3.270   4.363
 2520SOL     OW 7579   2.671   1.866   4.226
 2520SOL    HW1 7580   2.711   1.957   4.217
 2520SOL    HW2 7581   2.571   1.874   4.232
 2521SOL     OW 7582   2.059   2.838   4.988
 2521SOL    HW1 7583   2.148   2.793   4.974
 2521SOL    HW2 7584   1.986   2.773   4.969
 2522SOL     OW 7585   3.387   2.861   3.914
 2522SOL    HW1 7586   3.324   2.785   3.927
 2522SOL    HW2 7587   3.435   2.879   4.000
 2523SOL     OW 7588   3.328   3.279   4.677
 2523SOL    HW1 7589   3.269   3.285   4.757
 2523SOL    HW2 7590   3.313   3.191   4.631
 2524SOL     OW 7591   3.529   3.576   4.296
 2524SOL    HW1 7592   3.488   3.553   4.208
 2524SOL    HW2 7593   3.511   3.502   4.361
 2525SOL     OW 7594   2.460   2.591   3.994
 2525SOL    HW1 7595   2.484   2.660   3.926
 2525SOL    HW2 7596   2.382   2.624   4.048
 2526SOL     OW 7597   3.143   2.207   4.668
 2526SOL    HW1 7598   3.057   2.157   4.655
 2526SOL    HW2 7599   3.205   2.153   4.724
 2527SOL     OW 7600   3.438   3.524   4.031
 2527SOL    HW1 7601   3.527   3.570   4.034
 2527SOL    HW2 7602   3.417   3.500   3.936
 2528SOL     OW 7603   2.903   2.563   4.153
 2528SOL    HW1 7604   2.929   2.559   4.249
 2528SOL    HW2 7605   2.818   2.512   4.139
 2529SOL     OW 7606   1.938   2.673   4.513
 2529SOL    HW1 7607   2.037   2.661   4.522
 2529SOL    HW2 7608   1.914   2.768   4.534
 2530SOL     OW 7609   2.727   2.210   3.919
 2530SOL    HW1 7610   2.786   2.273   3.870
 2530SOL    HW2 7611   2.746   2.116   3.890
 2531SOL     OW 7612   3.224   3.006   4.269
 2531SOL    HW1 7613   3.307   2.977   4.221
 2531SOL    HW2 7614   3.175   3.073   4.213
 2532SOL     OW 7615   2.412   2.058   4.609
 2532SOL    HW1 7616   2.407   2.053   4.709
 2532SOL    HW2 7617   2.414   2.154   4.580
 2533SOL     OW 7618   2.870   3.318   4.201
 2533SOL    HW1 7619   2.824   3.390   4.149
 2533SOL    HW2 7620   2.866   3.338   4.299
 2534SOL     OW 7621   2.213   3.663   4.577
 2534SOL    HW1 7622   2.263   3.577   4.583
 2534SOL    HW2 7623   2.278   3.740   4.574
 2535SOL     OW 7624   3.657   2.928   4.597
 2535SOL    HW1 7625   3.595   2.913   4.521
 2535SOL    HW2 7626   3.605   2.939   4.682
 2536SOL     OW 7627   2.183   2.805   3.966
 2536SOL    HW1 7628   2.265   2.844   3.924
 2536SOL    HW2 7629   2.156   2.723   3.917
 2537SOL     OW 7630   3.320   2.597   4.452
 2537SOL    HW1 7631   3.315   2.532   4.527
 2537SOL    HW2 7632   3.400   2.656   4.465
 2538SOL     OW 7633   2.973   3.638   3.961
 2538SOL    HW1 7634   2.913   3.576   4.011
 2538SOL    HW2 7635   3.004   3.594   3.876
 2539SOL     OW 7636   3.494   3.239   3.805
 2539SOL    HW1 7637   3.462   3.333   3.795
 2539SOL    HW2 7638   3.418   3.176   3.793
 2540SOL     OW 7639   2.326   3.605   4.047
 2540SOL    HW1 7640   2.359   3.644   4.133
 2540SOL    HW2 7641   2.402   3.598   3.982
 2541SOL     OW 7642   3.262   1.969   4.150
 2541SOL    HW1 7643   3.238   1.932   4.060
 2541SOL    HW2 7644   3.361   1.985   4.154
 2542SOL     OW 7645   2.111   3.647   4.965
 2542SOL    HW1 7646   2.168   3.582   5.015
 2542SOL    HW2 7647   2.095   3.614   4.872
 2543SOL     OW 7648   2.802   3.560   4.628
 2543SOL    HW1 7649   2.882   3.503   4.649
 2543SOL    HW2 7650   2.753   3.520   4.551
 2544SOL     OW 7651   2.244   2.562   4.204
 2544SOL    HW1 7652   2.289   2.472   4.201
 2544SOL    HW2 7653   2.150   2.551   4.237
 2545SOL     OW 7654   2.476   1.984   3.841
 2545SOL    HW1 7655   2.574   1.962   3.848
 2545SOL    HW2 7656   2.445   1.967   3.748
 2546SOL     OW 7657   2.665   3.264   4.648
 2546SOL    HW1 7658   2.755   3.278   4.606
 2546SOL    HW2 7659   2.594   3.266   4.577
 2547SOL     OW 7660   2.784   2.365   4.623
 2547SOL    HW1 7661   2.759   2.356   4.527
 2547SOL    HW2 7662   2.832   2.283   4.654
 2548SOL     OW 7663   2.401   1.926   4.236
 2548SOL    HW1 7664   2.320   1.927   4.294
 2548SOL    HW2 7665   2.404   2.009   4.181
 2549SOL     OW 7666   3.296   3.050   3.765
 2549SOL    HW1 7667   3.328   2.974   3.822
 2549SOL    HW2 7668   3.204   3.077   3.795
 2550SOL     OW 7669   2.159   1.897   3.895
 2550SOL    HW1 7670   2.208   1.981   3.874
 2550SOL    HW2 7671   2.221   1.832   3.940
 2551SOL     OW 7672   2.797   2.098   4.204
 2551SOL    HW1 7673   2.749   2.139   4.126
 2551SOL    HW2 7674   2.896   2.096   4.185
 2552SOL     OW 7675   3.089   3.432   4.517
 2552SOL    HW1 7676   3.110   3.506   4.452
 2552SOL    HW2 7677   3.157   3.432   4.590
 2553SOL     OW 7678   2.321   3.014   4.465
 2553SOL    HW1 7679   2.250   2.987   4.530
 2553SOL    HW2 7680   2.295   2.986   4.372
 2554SOL     OW 7681   3.133   3.659   4.315
 2554SOL    HW1 7682   3.177   3.723   4.251
 2554SOL    HW2 7683   3.083   3.711   4.385
 2555SOL     OW 7684   2.894   2.411   3.740
 2555SOL    HW1 7685   2.853   2.493   3.701
 2555SOL    HW2 7686   2.958   2.437   3.813
 2556SOL     OW 7687   2.728   2.316   4.366
 2556SOL    HW1 7688   2.696   2.388   4.304
 2556SOL    HW2 7689   2.752   2.235   4.313
 2557SOL     OW 7690   2.879   1.901   4.477
 2557SOL    HW1 7691   2.807   1.906   4.408
 2557SOL    HW2 7692   2.855   1.832   4.546
 2558SOL     OW 7693   3.291   3.035   4.591
 2558SOL    HW1 7694   3.236   2.951   4.584
 2558SOL    HW2 7695   3.317   3.064   4.499
 2559SOL     OW 7696   3.328   2.452   4.716
 2559SOL    HW1 7697   3.298   2.357   4.723
 2559SOL    HW2 7698   3.401   2.468   4.782
 2560SOL     OW 7699   3.719   2.695   4.101
 2560SOL    HW1 7700   3.761   2.631   4.165
 2560SOL    HW2 7701   3.681   2.644   4.023
 2561SOL     OW 7702   2.350   3.247   3.898
 2561SOL    HW1 7703   2.263   3.232   3.945
 2561SOL    HW2 7704   2.333   3.273   3.803
 2562SOL     OW 7705   3.526   3.142   4.381
 2562SOL    HW1 7706   3.625   3.150   4.395
 2562SOL    HW2 7707   3.481   3.226   4.412
 2563SOL     OW 7708   3.252   2.437   3.802
 2563SOL    HW1 7709   3.198   2.416   3.883
 2563SOL    HW2 7710   3.343   2.396   3.811
 2564SOL     OW 7711   2.389   2.118   4.052
 2564SOL    HW1 7712   2.416   2.059   3.977
 2564SOL    HW2 7713   2.389   2.213   4.021
 2565SOL     OW 7714   2.973   3.057   4.824
 2565SOL    HW1 7715   2.933   3.101   4.905
 2565SOL    HW2 7716   2.932   3.094   4.741
 2566SOL     OW 7717   3.500   2.961   4.803
 2566SOL    HW1 7718   3.505   3.042   4.862
 2566SOL    HW2 7719   3.414   2.963   4.752
 2567SOL     OW 7720   2.567   2.912   4.092
 2567SOL    HW1 7721   2.553   2.919   4.191
 2567SOL    HW2 7722   2.651   2.861   4.074
 2568SOL     OW 7723   2.272   2.675   4.975
 2568SOL    HW1 7724   2.358   2.687   5.025
 2568SOL    HW2 7725   2.230   2.588   5.002
 2569SOL     OW 7726   2.229   2.962   4.225
 2569SOL    HW1 7727   2.222   3.045   4.169
 2569SOL    HW2 7728   2.233   2.882   4.165
 2570SOL     OW 7729   2.428   2.399   4.589
 2570SOL    HW1 7730   2.440   2.465   4.515
 2570SOL    HW2 7731   2.474   2.433   4.672
 2571SOL     OW 7732   3.114   3.210   4.112
 2571SOL    HW1 7733   3.164   3.287   4.152
 2571SOL    HW2 7734   3.019   3.212   4.144
 2572SOL     OW 7735   3.134   3.307   4.866
 2572SOL    HW1 7736   3.181   3.320   4.953
 2572SOL    HW2 7737   3.068   3.233   4.875
 2573SOL     OW 7738   3.444   2.501   4.196
 2573SOL    HW1 7739   3.413   2.562   4.269
 2573SOL    HW2 7740   3.494   2.553   4.127
 2574SOL     OW 7741   2.435   2.732   4.753
 2574SOL    HW1 7742   2.479   2.821   4.744
 2574SOL    HW2 7743   2.372   2.732   4.830
 2575SOL     OW 7744   3.222   2.724   4.769
 2575SOL    HW1 7745   3.147   2.724   4.703
 2575SOL    HW2 7746   3.259   2.632   4.778
 2576SOL     OW 7747   3.071   2.387   3.999
 2576SOL    HW1 7748   3.084   2.303   4.053
 2576SOL    HW2 7749   3.042   2.461   4.059
 2577SOL     OW 7750   2.169   2.075   4.955
 2577SOL    HW1 7751   2.146   2.112   5.045
 2577SOL    HW2 7752   2.139   1.980   4.949
 2578SOL     OW 7753   2.594   2.496   4.788
 2578SOL    HW1 7754   2.653   2.470   4.712
 2578SOL    HW2 7755   2.566   2.592   4.777
 2579SOL     OW 7756   2.169   1.925   4.342
 2579SOL    HW1 7757   2.158   2.019   4.375
 2579SOL    HW2 7758   2.164   1.862   4.419
 2580SOL     OW 7759   3.484   2.229   4.098
 2580SOL    HW1 7760   3.486   2.153   4.162
 2580SOL    HW2 7761   3.436   2.306   4.138
 2581SOL     OW 7762   2.885   2.628   4.690
 2581SOL    HW1 7763   2.900   2.649   4.786
 2581SOL    HW2 7764   2.855   2.533   4.681
 2582SOL     OW 7765   3.402   2.136   3.849
 2582SOL    HW1 7766   3.341   2.061   3.872
 2582SOL    HW2 7767   3.424   2.188   3.932
 2583SOL     OW 7768   3.165   2.700   3.766
 2583SOL    HW1 7769   3.199   2.607   3.781
 2583SOL    HW2 7770   3.183   2.727   3.671
 2584SOL     OW 7771   2.930   3.195   4.573
 2584SOL    HW1 7772   2.937   3.111   4.518
 2584SOL    HW2 7773   2.992   3.264   4.537
 2585SOL     OW 7774   2.181   2.672   4.673
 2585SOL    HW1 7775   2.274   2.708   4.678
 2585SOL    HW2 7776   2.175   2.587   4.725
 2586SOL     OW 7777   2.201   2.371   4.730
 2586SOL    HW1 7778   2.149   2.288   4.713
 2586SOL    HW2 7779   2.278   2.376   4.666
 2587SOL     OW 7780   3.022   2.069   5.201
 2587SOL    HW1 7781   3.022   2.133   5.278
 2587SOL    HW2 7782   3.050   2.117   5.118
 2588SOL     OW 7783   1.870   3.188   3.924
 2588SOL    HW1 7784   1.777   3.209   3.893
 2588SOL    HW2 7785   1.880   3.089   3.937
 2589SOL     OW 7786   1.950   3.663   4.651
 2589SOL    HW1 7787   1.908   3.577   4.624
 2589SOL    HW2 7788   2.044   3.666   4.617
 2590SOL     OW 7789   2.366   3.430   4.634
 2590SOL    HW1 7790   2.432   3.504   4.643
 2590SOL    HW2 7791   2.410   3.351   4.592
 2591SOL     OW 7792   2.864   2.658   4.962
 2591SOL    HW1 7793   2.905   2.626   5.048
 2591SOL    HW2 7794   2.768   2.631   4.959
 2592SOL     OW 7795   1.902   2.406   4.838
 2592SOL    HW1 7796   1.987   2.373   4.797
 2592SOL    HW2 7797   1.915   2.421   4.936
 2593SOL     OW 7798   2.677   2.434   4.049
 2593SOL    HW1 7799   2.684   2.345   4.003
 2593SOL    HW2 7800   2.583   2.468   4.041
 2594SOL     OW 7801   3.519   2.466   4.930
 2594SOL    HW1 7802   3.481   2.397   4.992
 2594SOL    HW2 7803   3.601   2.430   4.886
 2595SOL     OW 7804   2.533   2.326   4.993
 2595SOL    HW1 7805   2.499   2.237   4.963
 2595SOL    HW2 7806   2.559   2.380   4.913
 2596SOL     OW 7807   2.335   2.362   3.915
 2596SOL    HW1 7808   2.396   2.442   3.919
 2596SOL    HW2 7809   2.240   2.393   3.922
 2597SOL     OW 7810   2.021   2.999   5.190
 2597SOL    HW1 7811   2.043   2.938   5.266
 2597SOL    HW2 7812   2.031   2.950   5.104
 2598SOL     OW 7813   3.164   2.717   4.033
 2598SOL    HW1 7814   3.078   2.686   4.075
 2598SOL    HW2 7815   3.160   2.703   3.934
 2599SOL     OW 7816   3.621   3.609   4.878
 2599SOL    HW1 7817   3.682   3.639   4.805
 2599SOL    HW2 7818   3.583   3.520   4.856
 2600SOL     OW 7819   1.945   3.120   4.746
 2600SOL    HW1 7820   1.940   3.119   4.846
 2600SOL    HW2 7821   1.862   3.079   4.708
 2601SOL     OW 7822   3.588   1.997   4.247
 2601SOL    HW1 7823   3.661   1.980   4.180
 2601SOL    HW2 7824   3.557   1.910   4.285
 2602SOL     OW 7825   3.250   3.435   4.201
 2602SOL    HW1 7826   3.317   3.447   4.127
 2602SOL    HW2 7827   3.210   3.524   4.224
 2603SOL     OW 7828   3.142   2.789   4.396
 2603SOL    HW1 7829   3.202   2.708   4.398
 2603SOL    HW2 7830   3.182   2.858   4.336
 2604SOL     OW 7831   2.534   3.478   3.878
 2604SOL    HW1 7832   2.543   3.488   3.779
 2604SOL    HW2 7833   2.494   3.389   3.899
 2605SOL     OW 7834   3.703   2.037   4.687
 2605SOL    HW1 7835   3.742   1.952   4.651
 2605SOL    HW2 7836   3.605   2.039   4.668
 2606SOL     OW 7837   2.125   2.188   4.444
 2606SOL    HW1 7838   2.046   2.239   4.410
 2606SOL    HW2 7839   2.116   2.173   4.542
 2607SOL     OW 7840   3.056   3.474   3.755
 2607SOL    HW1 7841   3.062   3.381   3.792
 2607SOL    HW2 7842   2.997   3.474   3.675
 2608SOL     OW 7843   2.684   2.864   5.096
 2608SOL    HW1 7844   2.724   2.863   5.004
 2608SOL    HW2 7845   2.694   2.956   5.136
 2609SOL     OW 7846   2.778   2.772   4.015
 2609SOL    HW1 7847   2.841   2.810   3.947
 2609SOL    HW2 7848   2.818   2.689   4.054
 2610SOL     OW 7849   3.366   3.469   3.768
 2610SOL    HW1 7850   3.274   3.506   3.775
 2610SOL    HW2 7851   3.404   3.489   3.678
 2611SOL     OW 7852   2.901   2.960   4.420
 2611SOL    HW1 7853   2.831   2.913   4.474
 2611SOL    HW2 7854   2.960   2.892   4.377
 2612SOL     OW 7855   2.876   2.098   4.695
 2612SOL    HW1 7856   2.868   2.062   4.602
 2612SOL    HW2 7857   2.874   2.022   4.760
 2613SOL     OW 7858   2.452   3.349   4.215
 2613SOL    HW1 7859   2.494   3.291   4.145
 2613SOL    HW2 7860   2.408   3.428   4.171
 2614SOL     OW 7861   3.571   2.247   5.105
 2614SOL    HW1 7862   3.644   2.316   5.109
 2614SOL    HW2 7863   3.599   2.172   5.046
 2615SOL     OW 7864   2.117   3.210   4.014
 2615SOL    HW1 7865   2.021   3.211   3.987
 2615SOL    HW2 7866   2.129   3.263   4.098
 2616SOL     OW 7867   1.937   2.207   3.757
 2616SOL    HW1 7868   1.845   2.179   3.728
 2616SOL    HW2 7869   1.968   2.284   3.701
 2617SOL     OW 7870   1.934   2.028   4.042
 2617SOL    HW1 7871   1.917   2.111   3.988
 2617SOL    HW2 7872   2.024   1.991   4.020
 2618SOL     OW 7873   3.045   3.197   3.843
 2618SOL    HW1 7874   2.946   3.186   3.845
 2618SOL    HW2 7875   3.079   3.212   3.936
 2619SOL     OW 7876   3.355   3.629   4.683
 2619SOL    HW1 7877   3.388   3.693   4.614
 2619SOL    HW2 7878   3.421   3.623   4.758
 2620SOL     OW 7879   3.536   2.745   4.978
 2620SOL    HW1 7880   3.509   2.656   4.941
 2620SOL    HW2 7881   3.537   2.813   4.905
 2621SOL     OW 7882   3.087   2.187   4.173
 2621SOL    HW1 7883   3.152   2.113   4.162
 2621SOL    HW2 7884   3.107   2.237   4.257
 2622SOL     OW 7885   2.456   2.607   4.376
 2622SOL    HW1 7886   2.506   2.692   4.357
 2622SOL    HW2 7887   2.368   2.609   4.328
 2623SOL     OW 7888   3.592   2.796   5.241
 2623SOL    HW1 7889   3.630   2.887   5.256
 2623SOL    HW2 7890   3.584   2.779   5.142
 2624SOL     OW 7891   2.721   3.236   3.740
 2624SOL    HW1 7892   2.675   3.251   3.828
 2624SOL    HW2 7893   2.765   3.321   3.710
 2625SOL     OW 7894   2.523   3.652   4.677
 2625SOL    HW1 7895   2.477   3.740   4.664
 2625SOL    HW2 7896   2.622   3.664   4.670
 2626SOL     OW 7897   2.721   2.818   4.585
 2626SOL    HW1 7898   2.775   2.749   4.633
 2626SOL    HW2 7899   2.689   2.887   4.651
 2627SOL     OW 7900   2.945   2.846   3.811
 2627SOL    HW1 7901   2.922   2.899   3.729
 2627SOL    HW2 7902   3.026   2.790   3.792
 2628SOL     OW 7903   3.723   3.431   4.575
 2628SOL    HW1 7904   3.652   3.419   4.505
 2628SOL    HW2 7905   3.724   3.352   4.635
 2629SOL     OW 7906   1.941   3.102   4.377
 2629SOL    HW1 7907   1.940   3.055   4.465
 2629SOL    HW2 7908   2.023   3.074   4.326
 2630SOL     OW 7909   3.686   2.054   4.951
 2630SOL    HW1 7910   3.682   1.964   4.995
 2630SOL    HW2 7911   3.689   2.043   4.852
 2631SOL     OW 7912   2.290   2.286   4.244
 2631SOL    HW1 7913   2.320   2.214   4.182
 2631SOL    HW2 7914   2.251   2.246   4.327
 2632SOL     OW 7915   3.567   3.349   4.828
 2632SOL    HW1 7916   3.474   3.324   4.801
 2632SOL    HW2 7917   3.593   3.299   4.910
 2633SOL     OW 7918   2.674   3.448   4.411
 2633SOL    HW1 7919   2.706   3.458   4.317
 2633SOL    HW2 7920   2.595   3.386   4.413
 2634SOL     OW 7921   3.286   2.076   4.836
 2634SOL    HW1 7922   3.338   2.011   4.891
 2634SOL    HW2 7923   3.237   2.139   4.897
 2635SOL     OW 7924   2.863   1.896   4.878
 2635SOL    HW1 7925   2.800   1.824   4.847
 2635SOL    HW2 7926   2.956   1.860   4.878
 2636SOL     OW 7927   2.632   3.192   4.025
 2636SOL    HW1 7928   2.586   3.105   4.042
 2636SOL    HW2 7929   2.723   3.189   4.066
 2637SOL     OW 7930   3.214   1.914   3.892
 2637SOL    HW1 7931   3.249   1.873   3.808
 2637SOL    HW2 7932   3.124   1.876   3.912
 2638SOL     OW 7933   3.162   2.315   4.415
 2638SOL    HW1 7934   3.103   2.395   4.419
 2638SOL    HW2 7935   3.177   2.280   4.508
 2639SOL     OW 7936   3.455   2.083   4.606
 2639SOL    HW1 7937   3.371   2.082   4.660
 2639SOL    HW2 7938   3.457   2.166   4.550
 2640SOL     OW 7939   1.901   2.939   4.024
 2640SOL    HW1 7940   2.000   2.928   4.015
 2640SOL    HW2 7941   1.861   2.853   4.056
 2641SOL     OW 7942   2.737   3.508   4.061
 2641SOL    HW1 7943   2.660   3.473   4.007
 2641SOL    HW2 7944   2.705   3.579   4.123
 2642SOL     OW 7945   2.092   4.352   0.113
 2642SOL    HW1 7946   1.999   4.350   0.150
 2642SOL    HW2 7947   2.093   4.313   0.021
 2643SOL     OW 7948   2.087   3.999   0.996
 2643SOL    HW1 7949   2.122   3.982   1.088
 2643SOL    HW2 7950   1.999   3.954   0.984
 2644SOL     OW 7951   1.881   4.092   0.647
 2644SOL    HW1 7952   1.799   4.135   0.686
 2644SOL    HW2 7953   1.853   4.019   0.584
 2645SOL     OW 7954   2.997   4.427   0.717
 2645SOL    HW1 7955   3.054   4.505   0.692
 2645SOL    HW2 7956   2.937   4.453   0.793
 2646SOL     OW 7957   3.617   4.331   0.231
 2646SOL    HW1 7958   3.605   4.318   0.132
 2646SOL    HW2 7959   3.587   4.250   0.280
 2647SOL     OW 7960   2.630   4.868   1.023
 2647SOL    HW1 7961   2.552   4.885   1.083
 2647SOL    HW2 7962   2.664   4.955   0.987
 2648SOL     OW 7963   2.712   4.522   1.823
 2648SOL    HW1 7964   2.708   4.598   1.888
 2648SOL    HW2 7965   2.734   4.558   1.732
 2649SOL     OW 7966   2.547   4.736   0.665
 2649SOL    HW1 7967   2.616   4.720   0.735
 2649SOL    HW2 7968   2.474   4.793   0.703
 2650SOL     OW 7969   2.300   4.116   1.499
 2650SOL    HW1 7970   2.382   4.060   1.508
 2650SOL    HW2 7971   2.219   4.058   1.503
 2651SOL     OW 7972   3.465   4.171   0.737
 2651SOL    HW1 7973   3.391   4.217   0.687
 2651SOL    HW2 7974   3.516   4.239   0.790
 2652SOL     OW 7975   2.102   4.815   0.886
 2652SOL    HW1 7976   2.116   4.731   0.938
 2652SOL    HW2 7977   2.047   4.879   0.941
 2653SOL     OW 7978   2.468   4.688   0.123
 2653SOL    HW1 7979   2.475   4.772   0.069
 2653SOL    HW2 7980   2.514   4.701   0.211
 2654SOL     OW 7981   3.456   3.838   1.480
 2654SOL    HW1 7982   3.438   3.905   1.408
 2654SOL    HW2 7983   3.453   3.884   1.569
 2655SOL     OW 7984   1.984   4.367   0.563
 2655SOL    HW1 7985   1.939   4.279   0.580
 2655SOL    HW2 7986   1.983   4.421   0.647
 2656SOL     OW 7987   3.551   4.646   0.612
 2656SOL    HW1 7988   3.646   4.617   0.620
 2656SOL    HW2 7989   3.543   4.711   0.537
 2657SOL     OW 7990   3.503   4.832   0.432
 2657SOL    HW1 7991   3.589   4.834   0.380
 2657SOL    HW2 7992   3.517   4.879   0.520
 2658SOL     OW 7993   1.975   4.461   1.597
 2658SOL    HW1 7994   2.063   4.448   1.642
 2658SOL    HW2 7995   1.962   4.558   1.575
 2659SOL     OW 7996   2.475   5.089   0.726
 2659SOL    HW1 7997   2.426   5.002   0.735
 2659SOL    HW2 7998   2.452   5.132   0.639
 2660SOL     OW 7999   3.155   4.952   1.423
 2660SOL    HW1 8000   3.192   4.879   1.365
 2660SOL    HW2 8001   3.207   4.957   1.508
 2661SOL     OW 8002   2.671   3.728   0.502
 2661SOL    HW1 8003   2.711   3.819   0.493
 2661SOL    HW2 8004   2.571   3.736   0.508
 2662SOL     OW 8005   2.059   4.700   1.264
 2662SOL    HW1 8006   2.148   4.655   1.250
 2662SOL    HW2 8007   1.986   4.635   1.245
 2663SOL     OW 8008   3.387   4.723   0.190
 2663SOL    HW1 8009   3.324   4.647   0.203
 2663SOL    HW2 8010   3.435   4.741   0.276
 2664SOL     OW 8011   2.179   3.975   1.801
 2664SOL    HW1 8012   2.250   4.046   1.807
 2664SOL    HW2 8013   2.091   4.014   1.829
 2665SOL     OW 8014   2.460   4.453   0.270
 2665SOL    HW1 8015   2.484   4.522   0.202
 2665SOL    HW2 8016   2.382   4.486   0.324
 2666SOL     OW 8017   3.143   4.069   0.944
 2666SOL    HW1 8018   3.057   4.019   0.931
 2666SOL    HW2 8019   3.205   4.015   1.000
 2667SOL     OW 8020   2.669   4.329   1.465
 2667SOL    HW1 8021   2.622   4.326   1.554
 2667SOL    HW2 8022   2.618   4.274   1.399
 2668SOL     OW 8023   3.256   4.193   1.674
 2668SOL    HW1 8024   3.236   4.236   1.762
 2668SOL    HW2 8025   3.334   4.131   1.683
 2669SOL     OW 8026   2.835   4.614   1.572
 2669SOL    HW1 8027   2.881   4.530   1.543
 2669SOL    HW2 8028   2.779   4.648   1.497
 2670SOL     OW 8029   2.853   4.134   1.242
 2670SOL    HW1 8030   2.776   4.168   1.296
 2670SOL    HW2 8031   2.819   4.083   1.163
 2671SOL     OW 8032   2.903   4.425   0.429
 2671SOL    HW1 8033   2.929   4.421   0.525
 2671SOL    HW2 8034   2.818   4.374   0.415
 2672SOL     OW 8035   1.938   4.535   0.789
 2672SOL    HW1 8036   2.037   4.523   0.798
 2672SOL    HW2 8037   1.914   4.630   0.810
 2673SOL     OW 8038   2.727   4.072   0.195
 2673SOL    HW1 8039   2.786   4.135   0.146
 2673SOL    HW2 8040   2.746   3.978   0.166
 2674SOL     OW 8041   3.581   4.309   1.831
 2674SOL    HW1 8042   3.555   4.398   1.795
 2674SOL    HW2 8043   3.579   4.241   1.758
 2675SOL     OW 8044   3.224   4.868   0.545
 2675SOL    HW1 8045   3.307   4.839   0.497
 2675SOL    HW2 8046   3.175   4.935   0.489
 2676SOL     OW 8047   2.412   3.920   0.885
 2676SOL    HW1 8048   2.407   3.915   0.985
 2676SOL    HW2 8049   2.414   4.016   0.856
 2677SOL     OW 8050   3.657   4.790   0.873
 2677SOL    HW1 8051   3.595   4.775   0.797
 2677SOL    HW2 8052   3.605   4.801   0.958
 2678SOL     OW 8053   2.183   4.667   0.242
 2678SOL    HW1 8054   2.265   4.706   0.200
 2678SOL    HW2 8055   2.156   4.585   0.193
 2679SOL     OW 8056   3.320   4.459   0.728
 2679SOL    HW1 8057   3.315   4.394   0.803
 2679SOL    HW2 8058   3.400   4.518   0.741
 2680SOL     OW 8059   2.064   4.009   1.498
 2680SOL    HW1 8060   1.984   4.069   1.485
 2680SOL    HW2 8061   2.054   3.960   1.584
 2681SOL     OW 8062   3.262   3.831   0.426
 2681SOL    HW1 8063   3.238   3.794   0.336
 2681SOL    HW2 8064   3.361   3.847   0.430
 2682SOL     OW 8065   2.244   4.424   0.480
 2682SOL    HW1 8066   2.289   4.334   0.477
 2682SOL    HW2 8067   2.150   4.413   0.513
 2683SOL     OW 8068   3.409   3.946   1.729
 2683SOL    HW1 8069   3.404   3.983   1.821
 2683SOL    HW2 8070   3.337   3.877   1.717
 2684SOL     OW 8071   2.476   3.846   0.117
 2684SOL    HW1 8072   2.574   3.824   0.124
 2684SOL    HW2 8073   2.445   3.829   0.024
 2685SOL     OW 8074   2.643   3.988   1.749
 2685SOL    HW1 8075   2.710   3.927   1.792
 2685SOL    HW2 8076   2.570   4.007   1.814
 2686SOL     OW 8077   3.213   4.314   1.433
 2686SOL    HW1 8078   3.241   4.271   1.518
 2686SOL    HW2 8079   3.238   4.410   1.434
 2687SOL     OW 8080   2.784   4.227   0.899
 2687SOL    HW1 8081   2.759   4.218   0.803
 2687SOL    HW2 8082   2.832   4.145   0.930
 2688SOL     OW 8083   2.401   3.788   0.512
 2688SOL    HW1 8084   2.320   3.789   0.570
 2688SOL    HW2 8085   2.404   3.871   0.457
 2689SOL     OW 8086   2.159   3.759   0.171
 2689SOL    HW1 8087   2.208   3.843   0.150
 2689SOL    HW2 8088   2.221   3.694   0.216
 2690SOL     OW 8089   2.797   3.960   0.480
 2690SOL    HW1 8090   2.749   4.001   0.402
 2690SOL    HW2 8091   2.896   3.958   0.461
 2691SOL     OW 8092   2.938   4.407   1.464
 2691SOL    HW1 8093   2.858   4.346   1.467
 2691SOL    HW2 8094   3.019   4.354   1.440
 2692SOL     OW 8095   2.321   4.876   0.741
 2692SOL    HW1 8096   2.250   4.849   0.806
 2692SOL    HW2 8097   2.295   4.848   0.648
 2693SOL     OW 8098   2.894   4.273   0.016
 2693SOL    HW1 8099   2.853   4.355  -0.023
 2693SOL    HW2 8100   2.958   4.299   0.089
 2694SOL     OW 8101   1.940   4.280   1.386
 2694SOL    HW1 8102   2.032   4.279   1.345
 2694SOL    HW2 8103   1.934   4.354   1.453
 2695SOL     OW 8104   2.423   3.946   1.147
 2695SOL    HW1 8105   2.461   3.862   1.184
 2695SOL    HW2 8106   2.335   3.965   1.191
 2696SOL     OW 8107   2.728   4.178   0.642
 2696SOL    HW1 8108   2.696   4.250   0.580
 2696SOL    HW2 8109   2.752   4.097   0.589
 2697SOL     OW 8110   2.879   3.763   0.753
 2697SOL    HW1 8111   2.807   3.768   0.684
 2697SOL    HW2 8112   2.855   3.694   0.822
 2698SOL     OW 8113   3.291   4.897   0.867
 2698SOL    HW1 8114   3.236   4.813   0.860
 2698SOL    HW2 8115   3.317   4.926   0.775
 2699SOL     OW 8116   3.328   4.314   0.992
 2699SOL    HW1 8117   3.298   4.219   0.999
 2699SOL    HW2 8118   3.401   4.330   1.058
 2700SOL     OW 8119   3.719   4.557   0.377
 2700SOL    HW1 8120   3.761   4.493   0.441
 2700SOL    HW2 8121   3.681   4.506   0.299
 2701SOL     OW 8122   3.252   4.299   0.078
 2701SOL    HW1 8123   3.198   4.278   0.159
 2701SOL    HW2 8124   3.343   4.258   0.087
 2702SOL     OW 8125   2.389   3.980   0.328
 2702SOL    HW1 8126   2.416   3.921   0.253
 2702SOL    HW2 8127   2.389   4.075   0.297
 2703SOL     OW 8128   3.616   4.947   1.588
 2703SOL    HW1 8129   3.707   4.908   1.575
 2703SOL    HW2 8130   3.624   5.043   1.612
 2704SOL     OW 8131   3.500   4.823   1.079
 2704SOL    HW1 8132   3.505   4.904   1.138
 2704SOL    HW2 8133   3.414   4.825   1.028
 2705SOL     OW 8134   2.777   3.813   1.402
 2705SOL    HW1 8135   2.802   3.793   1.307
 2705SOL    HW2 8136   2.849   3.869   1.444
 2706SOL     OW 8137   2.842   4.840   1.719
 2706SOL    HW1 8138   2.743   4.846   1.729
 2706SOL    HW2 8139   2.865   4.760   1.663
 2707SOL     OW 8140   2.567   4.774   0.368
 2707SOL    HW1 8141   2.553   4.781   0.467
 2707SOL    HW2 8142   2.651   4.723   0.350
 2708SOL     OW 8143   2.272   4.537   1.251
 2708SOL    HW1 8144   2.358   4.549   1.301
 2708SOL    HW2 8145   2.230   4.450   1.278
 2709SOL     OW 8146   3.136   4.110   1.262
 2709SOL    HW1 8147   3.157   4.184   1.326
 2709SOL    HW2 8148   3.047   4.127   1.219
 2710SOL     OW 8149   2.229   4.824   0.501
 2710SOL    HW1 8150   2.222   4.907   0.445
 2710SOL    HW2 8151   2.233   4.744   0.441
 2711SOL     OW 8152   2.428   4.261   0.865
 2711SOL    HW1 8153   2.440   4.327   0.791
 2711SOL    HW2 8154   2.474   4.295   0.948
 2712SOL     OW 8155   3.444   4.363   0.472
 2712SOL    HW1 8156   3.413   4.424   0.545
 2712SOL    HW2 8157   3.494   4.415   0.403
 2713SOL     OW 8158   2.264   4.475   1.598
 2713SOL    HW1 8159   2.332   4.530   1.551
 2713SOL    HW2 8160   2.304   4.387   1.625
 2714SOL     OW 8161   3.449   4.503   1.670
 2714SOL    HW1 8162   3.357   4.541   1.665
 2714SOL    HW2 8163   3.509   4.550   1.605
 2715SOL     OW 8164   2.875   3.829   1.770
 2715SOL    HW1 8165   2.881   3.914   1.718
 2715SOL    HW2 8166   2.907   3.753   1.713
 2716SOL     OW 8167   2.366   3.774   1.740
 2716SOL    HW1 8168   2.324   3.717   1.670
 2716SOL    HW2 8169   2.300   3.843   1.772
 2717SOL     OW 8170   2.435   4.594   1.029
 2717SOL    HW1 8171   2.479   4.683   1.020
 2717SOL    HW2 8172   2.372   4.594   1.106
 2718SOL     OW 8173   3.222   4.586   1.045
 2718SOL    HW1 8174   3.147   4.586   0.979
 2718SOL    HW2 8175   3.259   4.494   1.054
 2719SOL     OW 8176   3.071   4.249   0.275
 2719SOL    HW1 8177   3.084   4.165   0.329
 2719SOL    HW2 8178   3.042   4.323   0.335
 2720SOL     OW 8179   2.169   3.937   1.231
 2720SOL    HW1 8180   2.146   3.974   1.321
 2720SOL    HW2 8181   2.139   3.842   1.225
 2721SOL     OW 8182   2.594   4.358   1.064
 2721SOL    HW1 8183   2.653   4.332   0.988
 2721SOL    HW2 8184   2.566   4.454   1.053
 2722SOL     OW 8185   3.590   4.659   1.854
 2722SOL    HW1 8186   3.544   4.652   1.765
 2722SOL    HW2 8187   3.528   4.703   1.920
 2723SOL     OW 8188   2.169   3.787   0.618
 2723SOL    HW1 8189   2.158   3.881   0.651
 2723SOL    HW2 8190   2.164   3.724   0.695
 2724SOL     OW 8191   3.484   4.091   0.374
 2724SOL    HW1 8192   3.486   4.015   0.438
 2724SOL    HW2 8193   3.436   4.168   0.414
 2725SOL     OW 8194   2.885   4.490   0.966
 2725SOL    HW1 8195   2.900   4.511   1.062
 2725SOL    HW2 8196   2.855   4.395   0.957
 2726SOL     OW 8197   2.212   4.622   1.804
 2726SOL    HW1 8198   2.288   4.666   1.852
 2726SOL    HW2 8199   2.247   4.575   1.722
 2727SOL     OW 8200   3.402   3.998   0.125
 2727SOL    HW1 8201   3.341   3.923   0.148
 2727SOL    HW2 8202   3.424   4.050   0.208
 2728SOL     OW 8203   3.165   4.562   0.042
 2728SOL    HW1 8204   3.199   4.469   0.057
 2728SOL    HW2 8205   3.183   4.589  -0.053
 2729SOL     OW 8206   2.181   4.534   0.949
 2729SOL    HW1 8207   2.274   4.570   0.954
 2729SOL    HW2 8208   2.175   4.449   1.001
 2730SOL     OW 8209   2.201   4.233   1.006
 2730SOL    HW1 8210   2.149   4.150   0.989
 2730SOL    HW2 8211   2.278   4.238   0.942
 2731SOL     OW 8212   3.000   4.104   1.678
 2731SOL    HW1 8213   2.955   4.167   1.742
 2731SOL    HW2 8214   3.093   4.135   1.661
 2732SOL     OW 8215   3.022   3.931   1.477
 2732SOL    HW1 8216   3.022   3.995   1.554
 2732SOL    HW2 8217   3.050   3.979   1.394
 2733SOL     OW 8218   2.864   4.520   1.238
 2733SOL    HW1 8219   2.905   4.488   1.324
 2733SOL    HW2 8220   2.768   4.493   1.235
 2734SOL     OW 8221   1.902   4.268   1.114
 2734SOL    HW1 8222   1.987   4.235   1.073
 2734SOL    HW2 8223   1.915   4.283   1.212
 2735SOL     OW 8224   2.051   4.244   1.722
 2735SOL    HW1 8225   2.110   4.204   1.652
 2735SOL    HW2 8226   1.993   4.315   1.681
 2736SOL     OW 8227   3.231   4.674   1.660
 2736SOL    HW1 8228   3.270   4.763   1.680
 2736SOL    HW2 8229   3.241   4.654   1.563
 2737SOL     OW 8230   2.677   4.296   0.325
 2737SOL    HW1 8231   2.684   4.207   0.279
 2737SOL    HW2 8232   2.583   4.330   0.317
 2738SOL     OW 8233   3.519   4.328   1.206
 2738SOL    HW1 8234   3.481   4.259   1.268
 2738SOL    HW2 8235   3.601   4.292   1.162
 2739SOL     OW 8236   2.533   4.188   1.269
 2739SOL    HW1 8237   2.499   4.099   1.239
 2739SOL    HW2 8238   2.559   4.242   1.189
 2740SOL     OW 8239   2.335   4.224   0.191
 2740SOL    HW1 8240   2.396   4.304   0.195
 2740SOL    HW2 8241   2.240   4.255   0.198
 2741SOL     OW 8242   2.021   4.861   1.466
 2741SOL    HW1 8243   2.043   4.800   1.542
 2741SOL    HW2 8244   2.031   4.812   1.380
 2742SOL     OW 8245   3.209   4.783   1.234
 2742SOL    HW1 8246   3.233   4.720   1.160
 2742SOL    HW2 8247   3.119   4.823   1.216
 2743SOL     OW 8248   3.164   4.579   0.309
 2743SOL    HW1 8249   3.078   4.548   0.351
 2743SOL    HW2 8250   3.160   4.565   0.210
 2744SOL     OW 8251   2.765   3.810   0.133
 2744SOL    HW1 8252   2.816   3.811   0.047
 2744SOL    HW2 8253   2.821   3.768   0.204
 2745SOL     OW 8254   3.588   3.859   0.523
 2745SOL    HW1 8255   3.661   3.842   0.456
 2745SOL    HW2 8256   3.557   3.772   0.561
 2746SOL     OW 8257   3.142   4.651   0.672
 2746SOL    HW1 8258   3.202   4.570   0.674
 2746SOL    HW2 8259   3.182   4.720   0.612
 2747SOL     OW 8260   3.703   3.899   0.963
 2747SOL    HW1 8261   3.742   3.814   0.927
 2747SOL    HW2 8262   3.605   3.901   0.944
 2748SOL     OW 8263   2.125   4.050   0.720
 2748SOL    HW1 8264   2.046   4.101   0.686
 2748SOL    HW2 8265   2.116   4.035   0.818
 2749SOL     OW 8266   2.684   4.726   1.372
 2749SOL    HW1 8267   2.724   4.725   1.280
 2749SOL    HW2 8268   2.694   4.818   1.412
 2750SOL     OW 8269   2.778   4.634   0.291
 2750SOL    HW1 8270   2.841   4.672   0.223
 2750SOL    HW2 8271   2.818   4.551   0.330
 2751SOL     OW 8272   2.234   5.012   1.490
 2751SOL    HW1 8273   2.221   5.105   1.456
 2751SOL    HW2 8274   2.150   4.960   1.477
 2752SOL     OW 8275   3.476   5.016   1.289
 2752SOL    HW1 8276   3.536   5.019   1.369
 2752SOL    HW2 8277   3.401   5.080   1.302
 2753SOL     OW 8278   2.901   4.822   0.696
 2753SOL    HW1 8279   2.831   4.775   0.750
 2753SOL    HW2 8280   2.960   4.754   0.653
 2754SOL     OW 8281   2.876   3.960   0.971
 2754SOL    HW1 8282   2.868   3.924   0.878
 2754SOL    HW2 8283   2.874   3.884   1.036
 2755SOL     OW 8284   3.571   4.109   1.381
 2755SOL    HW1 8285   3.644   4.178   1.385
 2755SOL    HW2 8286   3.599   4.034   1.322
 2756SOL     OW 8287   1.967   4.737   1.726
 2756SOL    HW1 8288   1.890   4.704   1.780
 2756SOL    HW2 8289   2.052   4.707   1.768
 2757SOL     OW 8290   2.534   3.927   1.489
 2757SOL    HW1 8291   2.624   3.911   1.449
 2757SOL    HW2 8292   2.542   3.932   1.588
 2758SOL     OW 8293   3.302   4.580   1.398
 2758SOL    HW1 8294   3.245   4.632   1.335
 2758SOL    HW2 8295   3.398   4.592   1.374
 2759SOL     OW 8296   1.934   3.890   0.318
 2759SOL    HW1 8297   1.917   3.973   0.264
 2759SOL    HW2 8298   2.024   3.853   0.296
 2760SOL     OW 8299   2.475   4.566   1.431
 2760SOL    HW1 8300   2.531   4.647   1.414
 2760SOL    HW2 8301   2.534   4.486   1.434
 2761SOL     OW 8302   2.578   4.289   1.708
 2761SOL    HW1 8303   2.597   4.354   1.782
 2761SOL    HW2 8304   2.638   4.209   1.717
 2762SOL     OW 8305   3.312   4.944   1.633
 2762SOL    HW1 8306   3.303   4.934   1.732
 2762SOL    HW2 8307   3.408   4.937   1.607
 2763SOL     OW 8308   3.536   4.607   1.254
 2763SOL    HW1 8309   3.509   4.518   1.217
 2763SOL    HW2 8310   3.537   4.675   1.181
 2764SOL     OW 8311   3.087   4.049   0.449
 2764SOL    HW1 8312   3.152   3.975   0.438
 2764SOL    HW2 8313   3.107   4.099   0.533
 2765SOL     OW 8314   2.456   4.469   0.652
 2765SOL    HW1 8315   2.506   4.554   0.633
 2765SOL    HW2 8316   2.368   4.471   0.604
 2766SOL     OW 8317   3.639   4.066   1.642
 2766SOL    HW1 8318   3.622   4.097   1.548
 2766SOL    HW2 8319   3.555   4.029   1.680
 2767SOL     OW 8320   3.592   4.658   1.517
 2767SOL    HW1 8321   3.630   4.749   1.532
 2767SOL    HW2 8322   3.584   4.641   1.418
 2768SOL     OW 8323   2.721   4.680   0.861
 2768SOL    HW1 8324   2.775   4.611   0.909
 2768SOL    HW2 8325   2.689   4.749   0.927
 2769SOL     OW 8326   2.945   4.708   0.087
 2769SOL    HW1 8327   2.922   4.761   0.005
 2769SOL    HW2 8328   3.026   4.652   0.068
 2770SOL     OW 8329   1.941   4.964   0.653
 2770SOL    HW1 8330   1.940   4.917   0.741
 2770SOL    HW2 8331   2.023   4.936   0.602
 2771SOL     OW 8332   3.686   3.916   1.227
 2771SOL    HW1 8333   3.682   3.826   1.271
 2771SOL    HW2 8334   3.689   3.905   1.128
 2772SOL     OW 8335   2.290   4.148   0.520
 2772SOL    HW1 8336   2.320   4.076   0.458
 2772SOL    HW2 8337   2.251   4.108   0.603
 2773SOL     OW 8338   2.179   4.271   1.280
 2773SOL    HW1 8339   2.217   4.212   1.352
 2773SOL    HW2 8340   2.219   4.245   1.192
 2774SOL     OW 8341   3.286   3.938   1.112
 2774SOL    HW1 8342   3.338   3.873   1.167
 2774SOL    HW2 8343   3.237   4.001   1.173
 2775SOL     OW 8344   2.863   3.758   1.154
 2775SOL    HW1 8345   2.800   3.686   1.123
 2775SOL    HW2 8346   2.956   3.722   1.154
 2776SOL     OW 8347   2.632   5.054   0.301
 2776SOL    HW1 8348   2.586   4.967   0.318
 2776SOL    HW2 8349   2.723   5.051   0.342
 2777SOL     OW 8350   3.214   3.776   0.168
 2777SOL    HW1 8351   3.249   3.735   0.084
 2777SOL    HW2 8352   3.124   3.738   0.188
 2778SOL     OW 8353   3.162   4.177   0.691
 2778SOL    HW1 8354   3.103   4.257   0.695
 2778SOL    HW2 8355   3.177   4.142   0.784
 2779SOL     OW 8356   3.455   3.945   0.882
 2779SOL    HW1 8357   3.371   3.944   0.936
 2779SOL    HW2 8358   3.457   4.028   0.826
 2780SOL     OW 8359   2.092   4.352   1.975
 2780SOL    HW1 8360   1.999   4.350   2.012
 2780SOL    HW2 8361   2.093   4.313   1.883
 2781SOL     OW 8362   2.087   3.999   2.858
 2781SOL    HW1 8363   2.122   3.982   2.950
 2781SOL    HW2 8364   1.999   3.954   2.846
 2782SOL     OW 8365   1.881   4.092   2.509
 2782SOL    HW1 8366   1.799   4.135   2.548
 2782SOL    HW2 8367   1.853   4.019   2.446
 2783SOL     OW 8368   2.997   4.427   2.579
 2783SOL    HW1 8369   3.054   4.505   2.554
 2783SOL    HW2 8370   2.937   4.453   2.655
 2784SOL     OW 8371   3.617   4.331   2.093
 2784SOL    HW1 8372   3.605   4.318   1.994
 2784SOL    HW2 8373   3.587   4.250   2.142
 2785SOL     OW 8374   2.630   4.868   2.885
 2785SOL    HW1 8375   2.552   4.885   2.945
 2785SOL    HW2 8376   2.664   4.955   2.849
 2786SOL     OW 8377   2.712   4.522   3.685
 2786SOL    HW1 8378   2.708   4.598   3.750
 2786SOL    HW2 8379   2.734   4.558   3.594
 2787SOL     OW 8380   2.547   4.736   2.527
 2787SOL    HW1 8381   2.616   4.720   2.597
 2787SOL    HW2 8382   2.474   4.793   2.565
 2788SOL     OW 8383   2.300   4.116   3.361
 2788SOL    HW1 8384   2.382   4.060   3.370
 2788SOL    HW2 8385   2.219   4.058   3.365
 2789SOL     OW 8386   3.465   4.171   2.599
 2789SOL    HW1 8387   3.391   4.217   2.549
 2789SOL    HW2 8388   3.516   4.239   2.652
 2790SOL     OW 8389   2.102   4.815   2.748
 2790SOL    HW1 8390   2.116   4.731   2.800
 2790SOL    HW2 8391   2.047   4.879   2.803
 2791SOL     OW 8392   2.468   4.688   1.985
 2791SOL    HW1 8393   2.475   4.772   1.931
 2791SOL    HW2 8394   2.514   4.701   2.073
 2792SOL     OW 8395   3.456   3.838   3.342
 2792SOL    HW1 8396   3.438   3.905   3.270
 2792SOL    HW2 8397   3.453   3.884   3.431
 2793SOL     OW 8398   1.984   4.367   2.425
 2793SOL    HW1 8399   1.939   4.279   2.442
 2793SOL    HW2 8400   1.983   4.421   2.509
 2794SOL     OW 8401   3.551   4.646   2.474
 2794SOL    HW1 8402   3.646   4.617   2.482
 2794SOL    HW2 8403   3.543   4.711   2.399
 2795SOL     OW 8404   3.503   4.832   2.294
 2795SOL    HW1 8405   3.589   4.834   2.242
 2795SOL    HW2 8406   3.517   4.879   2.382
 2796SOL     OW 8407   1.975   4.461   3.459
 2796SOL    HW1 8408   2.063   4.448   3.504
 2796SOL    HW2 8409   1.962   4.558   3.437
 2797SOL     OW 8410   2.475   5.089   2.588
 2797SOL    HW1 8411   2.426   5.002   2.597
 2797SOL    HW2 8412   2.452   5.132   2.501
 2798SOL     OW 8413   3.155   4.952   3.285
 2798SOL    HW1 8414   3.192   4.879   3.227
 2798SOL    HW2 8415   3.207   4.957   3.370
 2799SOL     OW 8416   2.671   3.728   2.364
 2799SOL    HW1 8417   2.711   3.819   2.355
 2799SOL    HW2 8418   2.571   3.736   2.370
 2800SOL     OW 8419   2.059   4.700   3.126
 2800SOL    HW1 8420   2.148   4.655   3.112
 2800SOL    HW2 8421   1.986   4.635   3.107
 2801SOL     OW 8422   3.387   4.723   2.052
 2801SOL    HW1 8423   3.324   4.647   2.065
 2801SOL    HW2 8424   3.435   4.741   2.138
 2802SOL     OW 8425   2.179   3.975   3.663
 2802SOL    HW1 8426   2.250   4.046   3.669
 2802SOL    HW2 8427   2.091   4.014   3.691
 2803SOL     OW 8428   2.460   4.453   2.132
 2803SOL    HW1 8429   2.484   4.522   2.064
 2803SOL    HW2 8430   2.382   4.486   2.186
 2804SOL     OW 8431   3.143   4.069   2.806
 2804SOL    HW1 8432   3.057   4.019   2.793
 2804SOL    HW2 8433   3.205   4.015   2.862
 2805SOL     OW 8434   2.669   4.329   3.327
 2805SOL    HW1 8435   2.622   4.326   3.416
 2805SOL    HW2 8436   2.618   4.274   3.261
 2806SOL     OW 8437   3.256   4.193   3.536
 2806SOL    HW1 8438   3.236   4.236   3.624
 2806SOL    HW2 8439   3.334   4.131   3.545
 2807SOL     OW 8440   2.835   4.614   3.434
 2807SOL    HW1 8441   2.881   4.530   3.405
 2807SOL    HW2 8442   2.779   4.648   3.359
 2808SOL     OW 8443   2.853   4.134   3.104
 2808SOL    HW1 8444   2.776   4.168   3.158
 2808SOL    HW2 8445   2.819   4.083   3.025
 2809SOL     OW 8446   2.903   4.425   2.291
 2809SOL    HW1 8447   2.929   4.421   2.387
 2809SOL    HW2 8448   2.818   4.374   2.277
 2810SOL     OW 8449   1.938   4.535   2.651
 2810SOL    HW1 8450   2.037   4.523   2.660
 2810SOL    HW2 8451   1.914   4.630   2.672
 2811SOL     OW 8452   2.727   4.072   2.057
 2811SOL    HW1 8453   2.786   4.135   2.008
 2811SOL    HW2 8454   2.746   3.978   2.028
 2812SOL     OW 8455   3.581   4.309   3.693
 2812SOL    HW1 8456   3.555   4.398   3.657
 2812SOL    HW2 8457   3.579   4.241   3.620
 2813SOL     OW 8458   3.224   4.868   2.407
 2813SOL    HW1 8459   3.307   4.839   2.359
 2813SOL    HW2 8460   3.175   4.935   2.351
 2814SOL     OW 8461   2.412   3.920   2.747
 2814SOL    HW1 8462   2.407   3.915   2.847
 2814SOL    HW2 8463   2.414   4.016   2.718
 2815SOL     OW 8464   3.657   4.790   2.735
 2815SOL    HW1 8465   3.595   4.775   2.659
 2815SOL    HW2 8466   3.605   4.801   2.820
 2816SOL     OW 8467   2.183   4.667   2.104
 2816SOL    HW1 8468   2.265   4.706   2.062
 2816SOL    HW2 8469   2.156   4.585   2.055
 2817SOL     OW 8470   3.320   4.459   2.590
 2817SOL    HW1 8471   3.315   4.394   2.665
 2817SOL    HW2 8472   3.400   4.518   2.603
 2818SOL     OW 8473   2.064   4.009   3.360
 2818SOL    HW1 8474   1.984   4.069   3.347
 2818SOL    HW2 8475   2.054   3.960   3.446
 2819SOL     OW 8476   3.262   3.831   2.288
 2819SOL    HW1 8477   3.238   3.794   2.198
 2819SOL    HW2 8478   3.361   3.847   2.292
 2820SOL     OW 8479   2.244   4.424   2.342
 2820SOL    HW1 8480   2.289   4.334   2.339
 2820SOL    HW2 8481   2.150   4.413   2.375
 2821SOL     OW 8482   3.409   3.946   3.591
 2821SOL    HW1 8483   3.404   3.983   3.683
 2821SOL    HW2 8484   3.337   3.877   3.579
 2822SOL     OW 8485   2.476   3.846   1.979
 2822SOL    HW1 8486   2.574   3.824   1.986
 2822SOL    HW2 8487   2.445   3.829   1.886
 2823SOL     OW 8488   2.643   3.988   3.611
 2823SOL    HW1 8489   2.710   3.927   3.654
 2823SOL    HW2 8490   2.570   4.007   3.676
 2824SOL     OW 8491   3.213   4.314   3.295
 2824SOL    HW1 8492   3.241   4.271   3.380
 2824SOL    HW2 8493   3.238   4.410   3.296
 2825SOL     OW 8494   2.784   4.227   2.761
 2825SOL    HW1 8495   2.759   4.218   2.665
 2825SOL    HW2 8496   2.832   4.145   2.792
 2826SOL     OW 8497   2.401   3.788   2.374
 2826SOL    HW1 8498   2.320   3.789   2.432
 2826SOL    HW2 8499   2.404   3.871   2.319
 2827SOL     OW 8500   2.159   3.759   2.033
 2827SOL    HW1 8501   2.208   3.843   2.012
 2827SOL    HW2 8502   2.221   3.694   2.078
 2828SOL     OW 8503   2.797   3.960   2.342
 2828SOL    HW1 8504   2.749   4.001   2.264
 2828SOL    HW2 8505   2.896   3.958   2.323
 2829SOL     OW 8506   2.938   4.407   3.326
 2829SOL    HW1 8507   2.858   4.346   3.329
 2829SOL    HW2 8508   3.019   4.354   3.302
 2830SOL     OW 8509   2.321   4.876   2.603
 2830SOL    HW1 8510   2.250   4.849   2.668
 2830SOL    HW2 8511   2.295   4.848   2.510
 2831SOL     OW 8512   2.894   4.273   1.878
 2831SOL    HW1 8513   2.853   4.355   1.839
 2831SOL    HW2 8514   2.958   4.299   1.951
 2832SOL     OW 8515   1.940   4.280   3.248
 2832SOL    HW1 8516   2.032   4.279   3.207
 2832SOL    HW2 8517   1.934   4.354   3.315
 2833SOL     OW 8518   2.423   3.946   3.009
 2833SOL    HW1 8519   2.461   3.862   3.046
 2833SOL    HW2 8520   2.335   3.965   3.053
 2834SOL     OW 8521   2.728   4.178   2.504
 2834SOL    HW1 8522   2.696   4.250   2.442
 2834SOL    HW2 8523   2.752   4.097   2.451
 2835SOL     OW 8524   2.879   3.763   2.615
 2835SOL    HW1 8525   2.807   3.768   2.546
 2835SOL    HW2 8526   2.855   3.694   2.684
 2836SOL     OW 8527   3.291   4.897   2.729
 2836SOL    HW1 8528   3.236   4.813   2.722
 2836SOL    HW2 8529   3.317   4.926   2.637
 2837SOL     OW 8530   3.328   4.314   2.854
 2837SOL    HW1 8531   3.298   4.219   2.861
 2837SOL    HW2 8532   3.401   4.330   2.920
 2838SOL     OW 8533   3.719   4.557   2.239
 2838SOL    HW1 8534   3.761   4.493   2.303
 2838SOL    HW2 8535   3.681   4.506   2.161
 2839SOL     OW 8536   3.252   4.299   1.940
 2839SOL    HW1 8537   3.198   4.278   2.021
 2839SOL    HW2 8538   3.343   4.258   1.949
 2840SOL     OW 8539   2.389   3.980   2.190
 2840SOL    HW1 8540   2.416   3.921   2.115
 2840SOL    HW2 8541   2.389   4.075   2.159
 2841SOL     OW 8542   3.616   4.947   3.450
 2841SOL    HW1 8543   3.707   4.908   3.437
 2841SOL    HW2 8544   3.624   5.043   3.474
 2842SOL     OW 8545   3.500   4.823   2.941
 2842SOL    HW1 8546   3.505   4.904   3.000
 2842SOL    HW2 8547   3.414   4.825   2.890
 2843SOL     OW 8548   2.777   3.813   3.264
 2843SOL    HW1 8549   2.802   3.793   3.169
 2843SOL    HW2 8550   2.849   3.869   3.306
 2844SOL     OW 8551   2.842   4.840   3.581
 2844SOL    HW1 8552   2.743   4.846   3.591
 2844SOL    HW2 8553   2.865   4.760   3.525
 2845SOL     OW 8554   2.567   4.774   2.230
 2845SOL    HW1 8555   2.553   4.781   2.329
 2845SOL    HW2 8556   2.651   4.723   2.212
 2846SOL     OW 8557   2.272   4.537   3.113
 2846SOL    HW1 8558   2.358   4.549   3.163
 2846SOL    HW2 8559   2.230   4.450   3.140
 2847SOL     OW 8560   3.136   4.110   3.124
 2847SOL    HW1 8561   3.157   4.184   3.188
 2847SOL    HW2 8562   3.047   4.127   3.081
 2848SOL     OW 8563   2.229   4.824   2.363
 2848SOL    HW1 8564   2.222   4.907   2.307
 2848SOL    HW2 8565   2.233   4.744   2.303
 2849SOL     OW 8566   2.428   4.261   2.727
 2849SOL    HW1 8567   2.440   4.327   2.653
 2849SOL    HW2 8568   2.474   4.295   2.810
 2850SOL     OW 8569   3.444   4.363   2.334
 2850SOL    HW1 8570   3.413   4.424   2.407
 2850SOL    HW2 8571   3.494   4.415   2.265
 2851SOL     OW 8572   2.264   4.475   3.460
 2851SOL    HW1 8573   2.332   4.530   3.413
 2851SOL    HW2 8574   2.304   4.387   3.487
 2852SOL     OW 8575   3.449   4.503   3.532
 2852SOL    HW1 8576   3.357   4.541   3.527
 2852SOL    HW2 8577   3.509   4.550   3.467
 2853SOL     OW 8578   2.875   3.829   3.632
 2853SOL    HW1 8579   2.881   3.914   3.580
 2853SOL    HW2 8580   2.907   3.753   3.575
 2854SOL     OW 8581   2.366   3.774   3.602
 2854SOL    HW1 8582   2.324   3.717   3.532
 2854SOL    HW2 8583   2.300   3.843   3.634
 2855SOL     OW 8584   2.435   4.594   2.891
 2855SOL    HW1 8585   2.479   4.683   2.882
 2855SOL    HW2 8586   2.372   4.594   2.968
 2856SOL     OW 8587   3.222   4.586   2.907
 2856SOL    HW1 8588   3.147   4.586   2.841
 2856SOL    HW2 8589   3.259   4.494   2.916
 2857SOL     OW 8590   3.071   4.249   2.137
 2857SOL    HW1 8591   3.084   4.165   2.191
 2857SOL    HW2 8592   3.042   4.323   2.197
 2858SOL     OW 8593   2.169   3.937   3.093
 2858SOL    HW1 8594   2.146   3.974   3.183
 2858SOL    HW2 8595   2.139   3.842   3.087
 2859SOL     OW 8596   2.594   4.358   2.926
 2859SOL    HW1 8597   2.653   4.332   2.850
 2859SOL    HW2 8598   2.566   4.454   2.915
 2860SOL     OW 8599   3.590   4.659   3.716
 2860SOL    HW1 8600   3.544   4.652   3.627
 2860SOL    HW2 8601   3.528   4.703   3.782
 2861SOL     OW 8602   2.169   3.787   2.480
 2861SOL    HW1 8603   2.158   3.881   2.513
 2861SOL    HW2 8604   2.164   3.724   2.557
 2862SOL     OW 8605   3.484   4.091   2.236
 2862SOL    HW1 8606   3.486   4.015   2.300
 2862SOL    HW2 8607   3.436   4.168   2.276
 2863SOL     OW 8608   2.885   4.490   2.828
 2863SOL    HW1 8609   2.900   4.511   2.924
 2863SOL    HW2 8610   2.855   4.395   2.819
 2864SOL     OW 8611   2.212   4.622   3.666
 2864SOL    HW1 8612   2.288   4.666   3.714
 2864SOL    HW2 8613   2.247   4.575   3.584
 2865SOL     OW 8614   3.402   3.998   1.987
 2865SOL    HW1 8615   3.341   3.923   2.010
 2865SOL    HW2 8616   3.424   4.050   2.070
 2866SOL     OW 8617   3.165   4.562   1.904
 2866SOL    HW1 8618   3.199   4.469   1.919
 2866SOL    HW2 8619   3.183   4.589   1.809
 2867SOL     OW 8620   2.181   4.534   2.811
 2867SOL    HW1 8621   2.274   4.570   2.816
 2867SOL    HW2 8622   2.175   4.449   2.863
 2868SOL     OW 8623   2.201   4.233   2.868
 2868SOL    HW1 8624   2.149   4.150   2.851
 2868SOL    HW2 8625   2.278   4.238   2.804
 2869SOL     OW 8626   3.000   4.104   3.540
 2869SOL    HW1 8627   2.955   4.167   3.604
 2869SOL    HW2 8628   3.093   4.135   3.523
 2870SOL     OW 8629   3.022   3.931   3.339
 2870SOL    HW1 8630   3.022   3.995   3.416
 2870SOL    HW2 8631   3.050   3.979   3.256
 2871SOL     OW 8632   2.864   4.520   3.100
 2871SOL    HW1 8633   2.905   4.488   3.186
 2871SOL    HW2 8634   2.768   4.493   3.097
 2872SOL     OW 8635   1.902   4.268   2.976
 2872SOL    HW1 8636   1.987   4.235   2.935
 2872SOL    HW2 8637   1.915   4.283   3.074
 2873SOL     OW 8638   2.051   4.244   3.584
 2873SOL    HW1 8639   2.110   4.204   3.514
 2873SOL    HW2 8640   1.993   4.315   3.543
 2874SOL     OW 8641   3.231   4.674   3.522
 2874SOL    HW1 8642   3.270   4.763   3.542
 2874SOL    HW2 8643   3.241   4.654   3.425
 2875SOL     OW 8644   2.677   4.296   2.187
 2875SOL    HW1 8645   2.684   4.207   2.141
 2875SOL    HW2 8646   2.583   4.330   2.179
 2876SOL     OW 8647   3.519   4.328   3.068
 2876SOL    HW1 8648   3.481   4.259   3.130
 2876SOL    HW2 8649   3.601   4.292   3.024
 2877SOL     OW 8650   2.533   4.188   3.131
 2877SOL    HW1 8651   2.499   4.099   3.101
 2877SOL    HW2 8652   2.559   4.242   3.051
 2878SOL     OW 8653   2.335   4.224   2.053
 2878SOL    HW1 8654   2.396   4.304   2.057
 2878SOL    HW2 8655   2.240   4.255   2.060
 2879SOL     OW 8656   2.021   4.861   3.328
 2879SOL    HW1 8657   2.043   4.800   3.404
 2879SOL    HW2 8658   2.031   4.812   3.242
 2880SOL     OW 8659   3.209   4.783   3.096
 2880SOL    HW1 8660   3.233   4.720   3.022
 2880SOL    HW2 8661   3.119   4.823   3.078
 2881SOL     OW 8662   3.164   4.579   2.171
 2881SOL    HW1 8663   3.078   4.548   2.213
 2881SOL    HW2 8664   3.160   4.565   2.072
 2882SOL     OW 8665   3.588   3.859   2.385
 2882SOL    HW1 8666   3.661   3.842   2.318
 2882SOL    HW2 8667   3.557   3.772   2.423
 2883SOL     OW 8668   3.142   4.651   2.534
 2883SOL    HW1 8669   3.202   4.570   2.536
 2883SOL    HW2 8670   3.182   4.720   2.474
 2884SOL     OW 8671   3.703   3.899   2.825
 2884SOL    HW1 8672   3.742   3.814   2.789
 2884SOL    HW2 8673   3.605   3.901   2.806
 2885SOL     OW 8674   2.125   4.050   2.582
 2885SOL    HW1 8675   2.046   4.101   2.548
 2885SOL    HW2 8676   2.116   4.035   2.680
 2886SOL     OW 8677   2.684   4.726   3.234
 2886SOL    HW1 8678   2.724   4.725   3.142
 2886SOL    HW2 8679   2.694   4.818   3.274
 2887SOL     OW 8680   2.778   4.634   2.153
 2887SOL    HW1 8681   2.841   4.672   2.085
 2887SOL    HW2 8682   2.818   4.551   2.192
 2888SOL     OW 8683   2.234   5.012   3.352
 2888SOL    HW1 8684   2.221   5.105   3.318
 2888SOL    HW2 8685   2.150   4.960   3.339
 2889SOL     OW 8686   3.476   5.016   3.151
 2889SOL    HW1 8687   3.536   5.019   3.231
 2889SOL    HW2 8688   3.401   5.080   3.164
 2890SOL     OW 8689   2.901   4.822   2.558
 2890SOL    HW1 8690   2.831   4.775   2.612
 2890SOL    HW2 8691   2.960   4.754   2.515
 2891SOL     OW 8692   2.876   3.960   2.833
 2891SOL    HW1 8693   2.868   3.924   2.740
 2891SOL    HW2 8694   2.874   3.884   2.898
 2892SOL     OW 8695   3.571   4.109   3.243
 2892SOL    HW1 8696   3.644   4.178   3.247
 2892SOL    HW2 8697   3.599   4.034   3.184
 2893SOL     OW 8698   1.967   4.737   3.588
 2893SOL    HW1 8699   1.890   4.704   3.642
 2893SOL    HW2 8700   2.052   4.707   3.630
 2894SOL     OW 8701   2.534   3.927   3.351
 2894SOL    HW1 8702   2.624   3.911   3.311
 2894SOL    HW2 8703   2.542   3.932   3.450
 2895SOL     OW 8704   1.937   4.069   1.895
 2895SOL    HW1 8705   1.845   4.041   1.866
 2895SOL    HW2 8706   1.968   4.146   1.839
 2896SOL     OW 8707   3.302   4.580   3.260
 2896SOL    HW1 8708   3.245   4.632   3.197
 2896SOL    HW2 8709   3.398   4.592   3.236
 2897SOL     OW 8710   1.934   3.890   2.180
 2897SOL    HW1 8711   1.917   3.973   2.126
 2897SOL    HW2 8712   2.024   3.853   2.158
 2898SOL     OW 8713   2.475   4.566   3.293
 2898SOL    HW1 8714   2.531   4.647   3.276
 2898SOL    HW2 8715   2.534   4.486   3.296
 2899SOL     OW 8716   2.578   4.289   3.570
 2899SOL    HW1 8717   2.597   4.354   3.644
 2899SOL    HW2 8718   2.638   4.209   3.579
 2900SOL     OW 8719   3.312   4.944   3.495
 2900SOL    HW1 8720   3.303   4.934   3.594
 2900SOL    HW2 8721   3.408   4.937   3.469
 2901SOL     OW 8722   3.536   4.607   3.116
 2901SOL    HW1 8723   3.509   4.518   3.079
 2901SOL    HW2 8724   3.537   4.675   3.043
 2902SOL     OW 8725   3.087   4.049   2.311
 2902SOL    HW1 8726   3.152   3.975   2.300
 2902SOL    HW2 8727   3.107   4.099   2.395
 2903SOL     OW 8728   2.456   4.469   2.514
 2903SOL    HW1 8729   2.506   4.554   2.495
 2903SOL    HW2 8730   2.368   4.471   2.466
 2904SOL     OW 8731   3.639   4.066   3.504
 2904SOL    HW1 8732   3.622   4.097   3.410
 2904SOL    HW2 8733   3.555   4.029   3.542
 2905SOL     OW 8734   3.592   4.658   3.379
 2905SOL    HW1 8735   3.630   4.749   3.394
 2905SOL    HW2 8736   3.584   4.641   3.280
 2906SOL     OW 8737   2.721   4.680   2.723
 2906SOL    HW1 8738   2.775   4.611   2.771
 2906SOL    HW2 8739   2.689   4.749   2.789
 2907SOL     OW 8740   2.945   4.708   1.949
 2907SOL    HW1 8741   2.922   4.761   1.867
 2907SOL    HW2 8742   3.026   4.652   1.930
 2908SOL     OW 8743   1.941   4.964   2.515
 2908SOL    HW1 8744   1.940   4.917   2.603
 2908SOL    HW2 8745   2.023   4.936   2.464
 2909SOL     OW 8746   3.686   3.916   3.089
 2909SOL    HW1 8747   3.682   3.826   3.133
 2909SOL    HW2 8748   3.689   3.905   2.990
 2910SOL     OW 8749   2.290   4.148   2.382
 2910SOL    HW1 8750   2.320   4.076   2.320
 2910SOL    HW2 8751   2.251   4.108   2.465
 2911SOL     OW 8752   2.179   4.271   3.142
 2911SOL    HW1 8753   2.217   4.212   3.214
 2911SOL    HW2 8754   2.219   4.245   3.054
 2912SOL     OW 8755   3.286   3.938   2.974
 2912SOL    HW1 8756   3.338   3.873   3.029
 2912SOL    HW2 8757   3.237   4.001   3.035
 2913SOL     OW 8758   2.863   3.758   3.016
 2913SOL    HW1 8759   2.800   3.686   2.985
 2913SOL    HW2 8760   2.956   3.722   3.016
 2914SOL     OW 8761   2.632   5.054   2.163
 2914SOL    HW1 8762   2.586   4.967   2.180
 2914SOL    HW2 8763   2.723   5.051   2.204
 2915SOL     OW 8764   3.214   3.776   2.030
 2915SOL    HW1 8765   3.249   3.735   1.946
 2915SOL    HW2 8766   3.124   3.738   2.050
 2916SOL     OW 8767   3.162   4.177   2.553
 2916SOL    HW1 8768   3.103   4.257   2.557
 2916SOL    HW2 8769   3.177   4.142   2.646
 2917SOL     OW 8770   3.455   3.945   2.744
 2917SOL    HW1 8771   3.371   3.944   2.798
 2917SOL    HW2 8772   3.457   4.028   2.688
 2918SOL     OW 8773   1.901   4.801   2.162
 2918SOL    HW1 8774   2.000   4.790   2.153
 2918SOL    HW2 8775   1.861   4.715   2.194
 2919SOL     OW 8776   2.092   4.352   3.837
 2919SOL    HW1 8777   1.999   4.350   3.874
 2919SOL    HW2 8778   2.093   4.313   3.745
 2920SOL     OW 8779   2.087   3.999   4.720
 2920SOL    HW1 8780   2.122   3.982   4.812
 2920SOL    HW2 8781   1.999   3.954   4.708
 2921SOL     OW 8782   1.881   4.092   4.371
 2921SOL    HW1 8783   1.799   4.135   4.410
 2921SOL    HW2 8784   1.853   4.019   4.308
 2922SOL     OW 8785   2.997   4.427   4.441
 2922SOL    HW1 8786   3.054   4.505   4.416
 2922SOL    HW2 8787   2.937   4.453   4.517
 2923SOL     OW 8788   3.617   4.331   3.955
 2923SOL    HW1 8789   3.605   4.318   3.856
 2923SOL    HW2 8790   3.587   4.250   4.004
 2924SOL     OW 8791   2.630   4.868   4.747
 2924SOL    HW1 8792   2.552   4.885   4.807
 2924SOL    HW2 8793   2.664   4.955   4.711
 2925SOL     OW 8794   2.547   4.736   4.389
 2925SOL    HW1 8795   2.616   4.720   4.459
 2925SOL    HW2 8796   2.474   4.793   4.427
 2926SOL     OW 8797   3.465   4.171   4.461
 2926SOL    HW1 8798   3.391   4.217   4.411
 2926SOL    HW2 8799   3.516   4.239   4.514
 2927SOL     OW 8800   2.102   4.815   4.610
 2927SOL    HW1 8801   2.116   4.731   4.662
 2927SOL    HW2 8802   2.047   4.879   4.665
 2928SOL     OW 8803   2.468   4.688   3.847
 2928SOL    HW1 8804   2.475   4.772   3.793
 2928SOL    HW2 8805   2.514   4.701   3.935
 2929SOL     OW 8806   1.984   4.367   4.287
 2929SOL    HW1 8807   1.939   4.279   4.304
 2929SOL    HW2 8808   1.983   4.421   4.371
 2930SOL     OW 8809   3.551   4.646   4.336
 2930SOL    HW1 8810   3.646   4.617   4.344
 2930SOL    HW2 8811   3.543   4.711   4.261
 2931SOL     OW 8812   3.503   4.832   4.156
 2931SOL    HW1 8813   3.589   4.834   4.104
 2931SOL    HW2 8814   3.517   4.879   4.244
 2932SOL     OW 8815   2.475   5.089   4.450
 2932SOL    HW1 8816   2.426   5.002   4.459
 2932SOL    HW2 8817   2.452   5.132   4.363
 2933SOL     OW 8818   2.671   3.728   4.226
 2933SOL    HW1 8819   2.711   3.819   4.217
 2933SOL    HW2 8820   2.571   3.736   4.232
 2934SOL     OW 8821   2.059   4.700   4.988
 2934SOL    HW1 8822   2.148   4.655   4.974
 2934SOL    HW2 8823   1.986   4.635   4.969
 2935SOL     OW 8824   3.387   4.723   3.914
 2935SOL    HW1 8825   3.324   4.647   3.927
 2935SOL    HW2 8826   3.435   4.741   4.000
 2936SOL     OW 8827   2.460   4.453   3.994
 2936SOL    HW1 8828   2.484   4.522   3.926
 2936SOL    HW2 8829   2.382   4.486   4.048
 2937SOL     OW 8830   3.143   4.069   4.668
 2937SOL    HW1 8831   3.057   4.019   4.655
 2937SOL    HW2 8832   3.205   4.015   4.724
 2938SOL     OW 8833   2.903   4.425   4.153
 2938SOL    HW1 8834   2.929   4.421   4.249
 2938SOL    HW2 8835   2.818   4.374   4.139
 2939SOL     OW 8836   1.938   4.535   4.513
 2939SOL    HW1 8837   2.037   4.523   4.522
 2939SOL    HW2 8838   1.914   4.630   4.534
 2940SOL     OW 8839   2.727   4.072   3.919
 2940SOL    HW1 8840   2.786   4.135   3.870
 2940SOL    HW2 8841   2.746   3.978   3.890
 2941SOL     OW 8842   3.224   4.868   4.269
 2941SOL    HW1 8843   3.307   4.839   4.221
 2941SOL    HW2 8844   3.175   4.935   4.213
 2942SOL     OW 8845   2.412   3.920   4.609
 2942SOL    HW1 8846   2.407   3.915   4.709
 2942SOL    HW2 8847   2.414   4.016   4.580
 2943SOL     OW 8848   3.657   4.790   4.597
 2943SOL    HW1 8849   3.595   4.775   4.521
 2943SOL    HW2 8850   3.605   4.801   4.682
 2944SOL     OW 8851   2.183   4.667   3.966
 2944SOL    HW1 8852   2.265   4.706   3.924
 2944SOL    HW2 8853   2.156   4.585   3.917
 2945SOL     OW 8854   3.320   4.459   4.452
 2945SOL    HW1 8855   3.315   4.394   4.527
 2945SOL    HW2 8856   3.400   4.518   4.465
 2946SOL     OW 8857   3.262   3.831   4.150
 2946SOL    HW1 8858   3.238   3.794   4.060
 2946SOL    HW2 8859   3.361   3.847   4.154
 2947SOL     OW 8860   2.244   4.424   4.204
 2947SOL    HW1 8861   2.289   4.334   4.201
 2947SOL    HW2 8862   2.150   4.413   4.237
 2948SOL     OW 8863   2.476   3.846   3.841
 2948SOL    HW1 8864   2.574   3.824   3.848
 2948SOL    HW2 8865   2.445   3.829   3.748
 2949SOL     OW 8866   2.784   4.227   4.623
 2949SOL    HW1 8867   2.759   4.218   4.527
 2949SOL    HW2 8868   2.832   4.145   4.654
 2950SOL     OW 8869   2.401   3.788   4.236
 2950SOL    HW1 8870   2.320   3.789   4.294
 2950SOL    HW2 8871   2.404   3.871   4.181
 2951SOL     OW 8872   2.159   3.759   3.895
 2951SOL    HW1 8873   2.208   3.843   3.874
 2951SOL    HW2 8874   2.221   3.694   3.940
 2952SOL     OW 8875   2.797   3.960   4.204
 2952SOL    HW1 8876   2.749   4.001   4.126
 2952SOL    HW2 8877   2.896   3.958   4.185
 2953SOL     OW 8878   2.321   4.876   4.465
 2953SOL    HW1 8879   2.250   4.849   4.530
 2953SOL    HW2 8880   2.295   4.848   4.372
 2954SOL     OW 8881   2.894   4.273   3.740
 2954SOL    HW1 8882   2.853   4.355   3.701
 2954SOL    HW2 8883   2.958   4.299   3.813
 2955SOL     OW 8884   2.728   4.178   4.366
 2955SOL    HW1 8885   2.696   4.250   4.304
 2955SOL    HW2 8886   2.752   4.097   4.313
 2956SOL     OW 8887   2.879   3.763   4.477
 2956SOL    HW1 8888   2.807   3.768   4.408
 2956SOL    HW2 8889   2.855   3.694   4.546
 2957SOL     OW 8890   3.291   4.897   4.591
 2957SOL    HW1 8891   3.236   4.813   4.584
 2957SOL    HW2 8892   3.317   4.926   4.499
 2958SOL     OW 8893   3.328   4.314   4.716
 2958SOL    HW1 8894   3.298   4.219   4.723
 2958SOL    HW2 8895   3.401   4.330   4.782
 2959SOL     OW 8896   3.719   4.557   4.101
 2959SOL    HW1 8897   3.761   4.493   4.165
 2959SOL    HW2 8898   3.681   4.506   4.023
 2960SOL     OW 8899   3.252   4.299   3.802
 2960SOL    HW1 8900   3.198   4.278   3.883
 2960SOL    HW2 8901   3.343   4.258   3.811
 2961SOL     OW 8902   2.389   3.980   4.052
 2961SOL    HW1 8903   2.416   3.921   3.977
 2961SOL    HW2 8904   2.389   4.075   4.021
 2962SOL     OW 8905   3.500   4.823   4.803
 2962SOL    HW1 8906   3.505   4.904   4.862
 2962SOL    HW2 8907   3.414   4.825   4.752
 2963SOL     OW 8908   2.567   4.774   4.092
 2963SOL    HW1 8909   2.553   4.781   4.191
 2963SOL    HW2 8910   2.651   4.723   4.074
 2964SOL     OW 8911   2.272   4.537   4.975
 2964SOL    HW1 8912   2.358   4.549   5.025
 2964SOL    HW2 8913   2.230   4.450   5.002
 2965SOL     OW 8914   2.229   4.824   4.225
 2965SOL    HW1 8915   2.222   4.907   4.169
 2965SOL    HW2 8916   2.233   4.744   4.165
 2966SOL     OW 8917   2.428   4.261   4.589
 2966SOL    HW1 8918   2.440   4.327   4.515
 2966SOL    HW2 8919   2.474   4.295   4.672
 2967SOL     OW 8920   3.444   4.363   4.196
 2967SOL    HW1 8921   3.413   4.424   4.269
 2967SOL    HW2 8922   3.494   4.415   4.127
 2968SOL     OW 8923   2.435   4.594   4.753
 2968SOL    HW1 8924   2.479   4.683   4.744
 2968SOL    HW2 8925   2.372   4.594   4.830
 2969SOL     OW 8926   3.222   4.586   4.769
 2969SOL    HW1 8927   3.147   4.586   4.703
 2969SOL    HW2 8928   3.259   4.494   4.778
 2970SOL     OW 8929   3.071   4.249   3.999
 2970SOL    HW1 8930   3.084   4.165   4.053
 2970SOL    HW2 8931   3.042   4.323   4.059
 2971SOL     OW 8932   2.169   3.937   4.955
 2971SOL    HW1 8933   2.146   3.974   5.045
 2971SOL    HW2 8934   2.139   3.842   4.949
 2972SOL     OW 8935   2.594   4.358   4.788
 2972SOL    HW1 8936   2.653   4.332   4.712
 2972SOL    HW2 8937   2.566   4.454   4.777
 2973SOL     OW 8938   2.169   3.787   4.342
 2973SOL    HW1 8939   2.158   3.881   4.375
 2973SOL    HW2 8940   2.164   3.724   4.419
 2974SOL     OW 8941   3.484   4.091   4.098
 2974SOL    HW1 8942   3.486   4.015   4.162
 2974SOL    HW2 8943   3.436   4.168   4.138
 2975SOL     OW 8944   2.885   4.490   4.690
 2975SOL    HW1 8945   2.900   4.511   4.786
 2975SOL    HW2 8946   2.855   4.395   4.681
 2976SOL     OW 8947   3.402   3.998   3.849
 2976SOL    HW1 8948   3.341   3.923   3.872
 2976SOL    HW2 8949   3.424   4.050   3.932
 2977SOL     OW 8950   3.165   4.562   3.766
 2977SOL    HW1 8951   3.199   4.469   3.781
 2977SOL    HW2 8952   3.183   4.589   3.671
 2978SOL     OW 8953   2.181   4.534   4.673
 2978SOL    HW1 8954   2.274   4.570   4.678
 2978SOL    HW2 8955   2.175   4.449   4.725
 2979SOL     OW 8956   2.201   4.233   4.730
 2979SOL    HW1 8957   2.149   4.150   4.713
 2979SOL    HW2 8958   2.278   4.238   4.666
 2980SOL     OW 8959   3.022   3.931   5.201
 2980SOL    HW1 8960   3.022   3.995   5.278
 2980SOL    HW2 8961   3.050   3.979   5.118
 2981SOL     OW 8962   2.864   4.520   4.962
 2981SOL    HW1 8963   2.905   4.488   5.048
 2981SOL    HW2 8964   2.768   4.493   4.959
 2982SOL     OW 8965   1.902   4.268   4.838
 2982SOL    HW1 8966   1.987   4.235   4.797
 2982SOL    HW2 8967   1.915   4.283   4.936
 2983SOL     OW 8968   2.677   4.296   4.049
 2983SOL    HW1 8969   2.684   4.207   4.003
 2983SOL    HW2 8970   2.583   4.330   4.041
 2984SOL     OW 8971   3.519   4.328   4.930
 2984SOL    HW1 8972   3.481   4.259   4.992
 2984SOL    HW2 8973   3.601   4.292   4.886
 2985SOL     OW 8974   2.533   4.188   4.993
 2985SOL    HW1 8975   2.499   4.099   4.963
 2985SOL    HW2 8976   2.559   4.242   4.913
 2986SOL     OW 8977   2.335   4.224   3.915
 2986SOL    HW1 8978   2.396   4.304   3.919
 2986SOL    HW2 8979   2.240   4.255   3.922
 2987SOL     OW 8980   2.021   4.861   5.190
 2987SOL    HW1 8981   2.043   4.800   5.266
 2987SOL    HW2 8982   2.031   4.812   5.104
 2988SOL     OW 8983   3.209   4.783   4.958
 2988SOL    HW1 8984   3.233   4.720   4.884
 2988SOL    HW2 8985   3.119   4.823   4.940
 2989SOL     OW 8986   3.164   4.579   4.033
 2989SOL    HW1 8987   3.078   4.548   4.075
 2989SOL    HW2 8988   3.160   4.565   3.934
 2990SOL     OW 8989   3.588   3.859   4.247
 2990SOL    HW1 8990   3.661   3.842   4.180
 2990SOL    HW2 8991   3.557   3.772   4.285
 2991SOL     OW 8992   3.142   4.651   4.396
 2991SOL    HW1 8993   3.202   4.570   4.398
 2991SOL    HW2 8994   3.182   4.720   4.336
 2992SOL     OW 8995   3.703   3.899   4.687
 2992SOL    HW1 8996   3.742   3.814   4.651
 2992SOL    HW2 8997   3.605   3.901   4.668
 2993SOL     OW 8998   2.125   4.050   4.444
 2993SOL    HW1 8999   2.046   4.101   4.410
 2993SOL    HW2 9000   2.116   4.035   4.542
 2994SOL     OW 9001   2.684   4.726   5.096
 2994SOL    HW1 9002   2.724   4.725   5.004
 2994SOL    HW2 9003   2.694   4.818   5.136
 2995SOL     OW 9004   2.778   4.634   4.015
 2995SOL    HW1 9005   2.841   4.672   3.947
 2995SOL    HW2 9006   2.818   4.551   4.054
 2996SOL     OW 9007   3.476   5.016   5.013
 2996SOL    HW1 9008   3.536   5.019   5.093
 2996SOL    HW2 9009   3.401   5.080   5.026
 2997SOL     OW 9010   2.901   4.822   4.420
 2997SOL    HW1 9011   2.831   4.775   4.474
 2997SOL    HW2 9012   2.960   4.754   4.377
 2998SOL     OW 9013   2.876   3.960   4.695
 2998SOL    HW1 9014   2.868   3.924   4.602
 2998SOL    HW2 9015   2.874   3.884   4.760
 2999SOL     OW 9016   3.571   4.109   5.105
 2999SOL    HW1 9017   3.644   4.178   5.109
 2999SOL    HW2 9018   3.599   4.034   5.046
 3000SOL     OW 9019   1.937   4.069   3.757
 3000SOL    HW1 9020   1.845   4.041   3.728
 3000SOL    HW2 9021   1.968   4.146   3.701
 3001SOL     OW 9022   1.934   3.890   4.042
 3001SOL    HW1 9023   1.917   3.973   3.988
 3001SOL    HW2 9024   2.024   3.853   4.020
 3002SOL     OW 9025   3.536   4.607   4.978
 3002SOL    HW1 9026   3.509   4.518   4.941
 3002SOL    HW2 9027   3.537   4.675   4.905
 3003SOL     OW 9028   3.087   4.049   4.173
 3003SOL    HW1 9029   3.152   3.975   4.162
 3003SOL    HW2 9030   3.107   4.099   4.257
 3004SOL     OW 9031   2.456   4.469   4.376
 3004SOL    HW1 9032   2.506   4.554   4.357
 3004SOL    HW2 9033   2.368   4.471   4.328
 3005SOL     OW 9034   3.592   4.658   5.241
 3005SOL    HW1 9035   3.630   4.749   5.256
 3005SOL    HW2 9036   3.584   4.641   5.142
 3006SOL     OW 9037   2.721   4.680   4.585
 3006SOL    HW1 9038   2.775   4.611   4.633
 3006SOL    HW2 9039   2.689   4.749   4.651
 3007SOL     OW 9040   2.945   4.708   3.811
 3007SOL    HW1 9041   2.922   4.761   3.729
 3007SOL    HW2 9042   3.026   4.652   3.792
 3008SOL     OW 9043   1.941   4.964   4.377
 3008SOL    HW1 9044   1.940   4.917   4.465
 3008SOL    HW2 9045   2.023   4.936   4.326
 3009SOL     OW 9046   3.686   3.916   4.951
 3009SOL    HW1 9047   3.682   3.826   4.995
 3009SOL    HW2 9048   3.689   3.905   4.852
 3010SOL     OW 9049   2.290   4.148   4.244
 3010SOL    HW1 9050   2.320   4.076   4.182
 3010SOL    HW2 9051   2.251   4.108   4.327
 3011SOL     OW 9052   3.286   3.938   4.836
 3011SOL    HW1 9053   3.338   3.873   4.891
 3011SOL    HW2 9054   3.237   4.001   4.897
 3012SOL     OW 9055   2.863   3.758   4.878
 3012SOL    HW1 9056   2.800   3.686   4.847
 3012SOL    HW2 9057   2.956   3.722   4.878
 3013SOL     OW 9058   2.632   5.054   4.025
 3013SOL    HW1 9059   2.586   4.967   4.042
 3013SOL    HW2 9060   2.723   5.051   4.066
 3014SOL     OW 9061   3.214   3.776   3.892
 3014SOL    HW1 9062   3.249   3.735   3.808
 3014SOL    HW2 9063   3.124   3.738   3.912
 3015SOL     OW 9064   3.162   4.177   4.415
 3015SOL    HW1 9065   3.103   4.257   4.419
 3015SOL    HW2 9066   3.177   4.142   4.508
 3016SOL     OW 9067   3.455   3.945   4.606
 3016SOL    HW1 9068   3.371   3.944   4.660
 3016SOL    HW2 9069   3.457   4.028   4.550
 3017SOL     OW 9070   1.901   4.801   4.024
 3017SOL    HW1 9071   2.000   4.790   4.015
 3017SOL    HW2 9072   1.861   4.715   4.056
 3018SOL     OW 9073   3.954   0.628   0.113
 3018SOL    HW1 9074   3.861   0.626   0.150
 3018SOL    HW2 9075   3.955   0.589   0.021
 3019SOL     OW 9076   3.949   0.275   0.996
 3019SOL    HW1 9077   3.984   0.258   1.088
 3019SOL    HW2 9078   3.861   0.230   0.984
 3020SOL     OW 9079   3.743   0.368   0.647
 3020SOL    HW1 9080   3.661   0.411   0.686
 3020SOL    HW2 9081   3.715   0.295   0.584
 3021SOL     OW 9082   4.293   1.275   1.165
 3021SOL    HW1 9083   4.200   1.268   1.128
 3021SOL    HW2 9084   4.304   1.364   1.209
 3022SOL     OW 9085   4.859   0.703   0.717
 3022SOL    HW1 9086   4.916   0.781   0.692
 3022SOL    HW2 9087   4.799   0.729   0.793
 3023SOL     OW 9088   4.492   1.144   1.023
 3023SOL    HW1 9089   4.414   1.161   1.083
 3023SOL    HW2 9090   4.526   1.231   0.987
 3024SOL     OW 9091   4.574   0.798   1.823
 3024SOL    HW1 9092   4.570   0.874   1.888
 3024SOL    HW2 9093   4.596   0.834   1.732
 3025SOL     OW 9094   4.409   1.012   0.665
 3025SOL    HW1 9095   4.478   0.996   0.735
 3025SOL    HW2 9096   4.336   1.069   0.703
 3026SOL     OW 9097   4.410   1.161   1.803
 3026SOL    HW1 9098   4.470   1.240   1.817
 3026SOL    HW2 9099   4.324   1.192   1.762
 3027SOL     OW 9100   4.059   1.435   1.061
 3027SOL    HW1 9101   3.981   1.404   1.008
 3027SOL    HW2 9102   4.117   1.493   1.004
 3028SOL     OW 9103   4.162   0.392   1.499
 3028SOL    HW1 9104   4.244   0.336   1.508
 3028SOL    HW2 9105   4.081   0.334   1.503
 3029SOL     OW 9106   3.955   1.713   0.483
 3029SOL    HW1 9107   3.989   1.790   0.537
 3029SOL    HW2 9108   3.999   1.713   0.393
 3030SOL     OW 9109   4.851   1.341   1.690
 3030SOL    HW1 9110   4.898   1.341   1.778
 3030SOL    HW2 9111   4.803   1.254   1.679
 3031SOL     OW 9112   3.954   1.434   0.538
 3031SOL    HW1 9113   3.928   1.530   0.538
 3031SOL    HW2 9114   3.883   1.380   0.583
 3032SOL     OW 9115   3.964   1.091   0.886
 3032SOL    HW1 9116   3.978   1.007   0.938
 3032SOL    HW2 9117   3.909   1.155   0.941
 3033SOL     OW 9118   4.344   1.786   1.439
 3033SOL    HW1 9119   4.252   1.769   1.474
 3033SOL    HW2 9120   4.372   1.878   1.465
 3034SOL     OW 9121   4.330   0.964   0.123
 3034SOL    HW1 9122   4.337   1.048   0.069
 3034SOL    HW2 9123   4.376   0.977   0.211
 3035SOL     OW 9124   3.846   0.643   0.563
 3035SOL    HW1 9125   3.801   0.555   0.580
 3035SOL    HW2 9126   3.845   0.697   0.647
 3036SOL     OW 9127   3.751   1.596   0.117
 3036SOL    HW1 9128   3.732   1.500   0.138
 3036SOL    HW2 9129   3.718   1.654   0.192
 3037SOL     OW 9130   3.837   0.737   1.597
 3037SOL    HW1 9131   3.925   0.724   1.642
 3037SOL    HW2 9132   3.824   0.834   1.575
 3038SOL     OW 9133   4.337   1.365   0.726
 3038SOL    HW1 9134   4.288   1.278   0.735
 3038SOL    HW2 9135   4.314   1.408   0.639
 3039SOL     OW 9136   4.533   0.004   0.502
 3039SOL    HW1 9137   4.573   0.095   0.493
 3039SOL    HW2 9138   4.433   0.012   0.508
 3040SOL     OW 9139   3.921   0.976   1.264
 3040SOL    HW1 9140   4.010   0.931   1.250
 3040SOL    HW2 9141   3.848   0.911   1.245
 3041SOL     OW 9142   4.041   0.251   1.801
 3041SOL    HW1 9143   4.112   0.322   1.807
 3041SOL    HW2 9144   3.953   0.290   1.829
 3042SOL     OW 9145   4.322   0.729   0.270
 3042SOL    HW1 9146   4.346   0.798   0.202
 3042SOL    HW2 9147   4.244   0.762   0.324
 3043SOL     OW 9148   4.531   0.605   1.465
 3043SOL    HW1 9149   4.484   0.602   1.554
 3043SOL    HW2 9150   4.480   0.550   1.399
 3044SOL     OW 9151   4.697   0.890   1.572
 3044SOL    HW1 9152   4.743   0.806   1.543
 3044SOL    HW2 9153   4.641   0.924   1.497
 3045SOL     OW 9154   4.715   0.410   1.242
 3045SOL    HW1 9155   4.638   0.444   1.296
 3045SOL    HW2 9156   4.681   0.359   1.163
 3046SOL     OW 9157   4.765   0.701   0.429
 3046SOL    HW1 9158   4.791   0.697   0.525
 3046SOL    HW2 9159   4.680   0.650   0.415
 3047SOL     OW 9160   3.800   0.811   0.789
 3047SOL    HW1 9161   3.899   0.799   0.798
 3047SOL    HW2 9162   3.776   0.906   0.810
 3048SOL     OW 9163   3.854   1.821   1.571
 3048SOL    HW1 9164   3.844   1.806   1.670
 3048SOL    HW2 9165   3.768   1.857   1.535
 3049SOL     OW 9166   4.589   0.348   0.195
 3049SOL    HW1 9167   4.648   0.411   0.146
 3049SOL    HW2 9168   4.608   0.254   0.166
 3050SOL     OW 9169   4.274   0.196   0.885
 3050SOL    HW1 9170   4.269   0.191   0.985
 3050SOL    HW2 9171   4.276   0.292   0.856
 3051SOL     OW 9172   4.732   1.456   0.477
 3051SOL    HW1 9173   4.686   1.528   0.425
 3051SOL    HW2 9174   4.728   1.476   0.575
 3052SOL     OW 9175   4.075   1.801   0.853
 3052SOL    HW1 9176   4.125   1.715   0.859
 3052SOL    HW2 9177   4.140   1.878   0.850
 3053SOL     OW 9178   4.951   1.550   1.506
 3053SOL    HW1 9179   4.957   1.473   1.570
 3053SOL    HW2 9180   4.899   1.524   1.426
 3054SOL     OW 9181   4.045   0.943   0.242
 3054SOL    HW1 9182   4.127   0.982   0.200
 3054SOL    HW2 9183   4.018   0.861   0.193
 3055SOL     OW 9184   4.185   1.266   1.727
 3055SOL    HW1 9185   4.135   1.267   1.641
 3055SOL    HW2 9186   4.122   1.248   1.803
 3056SOL     OW 9187   4.835   1.776   0.237
 3056SOL    HW1 9188   4.775   1.714   0.287
 3056SOL    HW2 9189   4.866   1.732   0.152
 3057SOL     OW 9190   3.926   0.285   1.498
 3057SOL    HW1 9191   3.846   0.345   1.485
 3057SOL    HW2 9192   3.916   0.236   1.584
 3058SOL     OW 9193   4.188   1.743   0.323
 3058SOL    HW1 9194   4.221   1.782   0.409
 3058SOL    HW2 9195   4.264   1.736   0.258
 3059SOL     OW 9196   3.973   1.785   1.241
 3059SOL    HW1 9197   4.030   1.720   1.291
 3059SOL    HW2 9198   3.957   1.752   1.148
 3060SOL     OW 9199   4.664   1.698   0.904
 3060SOL    HW1 9200   4.744   1.641   0.925
 3060SOL    HW2 9201   4.615   1.658   0.827
 3061SOL     OW 9202   4.106   0.700   0.480
 3061SOL    HW1 9203   4.151   0.610   0.477
 3061SOL    HW2 9204   4.012   0.689   0.513
 3062SOL     OW 9205   4.338   0.122   0.117
 3062SOL    HW1 9206   4.436   0.100   0.124
 3062SOL    HW2 9207   4.307   0.105   0.024
 3063SOL     OW 9208   4.505   0.264   1.749
 3063SOL    HW1 9209   4.572   0.203   1.792
 3063SOL    HW2 9210   4.432   0.283   1.814
 3064SOL     OW 9211   4.612   1.514   1.195
 3064SOL    HW1 9212   4.589   1.489   1.101
 3064SOL    HW2 9213   4.673   1.445   1.234
 3065SOL     OW 9214   4.527   1.402   0.924
 3065SOL    HW1 9215   4.617   1.416   0.882
 3065SOL    HW2 9216   4.456   1.404   0.853
 3066SOL     OW 9217   4.646   0.503   0.899
 3066SOL    HW1 9218   4.621   0.494   0.803
 3066SOL    HW2 9219   4.694   0.421   0.930
 3067SOL     OW 9220   4.263   0.064   0.512
 3067SOL    HW1 9221   4.182   0.065   0.570
 3067SOL    HW2 9222   4.266   0.147   0.457
 3068SOL     OW 9223   5.158   1.188   0.041
 3068SOL    HW1 9224   5.190   1.112   0.098
 3068SOL    HW2 9225   5.066   1.215   0.071
 3069SOL     OW 9226   4.021   0.035   0.171
 3069SOL    HW1 9227   4.070   0.119   0.150
 3069SOL    HW2 9228   4.083  -0.030   0.216
 3070SOL     OW 9229   4.659   0.236   0.480
 3070SOL    HW1 9230   4.611   0.277   0.402
 3070SOL    HW2 9231   4.758   0.234   0.461
 3071SOL     OW 9232   4.800   0.683   1.464
 3071SOL    HW1 9233   4.720   0.622   1.467
 3071SOL    HW2 9234   4.881   0.630   1.440
 3072SOL     OW 9235   4.951   1.570   0.793
 3072SOL    HW1 9236   4.972   1.644   0.728
 3072SOL    HW2 9237   5.019   1.570   0.866
 3073SOL     OW 9238   4.183   1.152   0.741
 3073SOL    HW1 9239   4.112   1.125   0.806
 3073SOL    HW2 9240   4.157   1.124   0.648
 3074SOL     OW 9241   4.995   1.797   0.591
 3074SOL    HW1 9242   5.039   1.861   0.527
 3074SOL    HW2 9243   4.945   1.849   0.661
 3075SOL     OW 9244   4.756   0.549   0.016
 3075SOL    HW1 9245   4.715   0.631  -0.023
 3075SOL    HW2 9246   4.820   0.575   0.089
 3076SOL     OW 9247   3.802   0.556   1.386
 3076SOL    HW1 9248   3.894   0.555   1.345
 3076SOL    HW2 9249   3.796   0.630   1.453
 3077SOL     OW 9250   4.285   0.222   1.147
 3077SOL    HW1 9251   4.323   0.138   1.184
 3077SOL    HW2 9252   4.197   0.241   1.191
 3078SOL     OW 9253   4.590   0.454   0.642
 3078SOL    HW1 9254   4.558   0.526   0.580
 3078SOL    HW2 9255   4.614   0.373   0.589
 3079SOL     OW 9256   4.741   0.039   0.753
 3079SOL    HW1 9257   4.669   0.044   0.684
 3079SOL    HW2 9258   4.717  -0.030   0.822
 3080SOL     OW 9259   4.212   1.385   0.174
 3080SOL    HW1 9260   4.125   1.370   0.221
 3080SOL    HW2 9261   4.195   1.411   0.079
 3081SOL     OW 9262   4.251   0.256   0.328
 3081SOL    HW1 9263   4.278   0.197   0.253
 3081SOL    HW2 9264   4.251   0.351   0.297
 3082SOL     OW 9265   4.788   1.347   1.340
 3082SOL    HW1 9266   4.708   1.324   1.395
 3082SOL    HW2 9267   4.871   1.321   1.389
 3083SOL     OW 9268   4.835   1.195   1.100
 3083SOL    HW1 9269   4.795   1.239   1.181
 3083SOL    HW2 9270   4.794   1.232   1.017
 3084SOL     OW 9271   4.639   0.089   1.402
 3084SOL    HW1 9272   4.664   0.069   1.307
 3084SOL    HW2 9273   4.711   0.145   1.444
 3085SOL     OW 9274   4.704   1.116   1.719
 3085SOL    HW1 9275   4.605   1.122   1.729
 3085SOL    HW2 9276   4.727   1.036   1.663
 3086SOL     OW 9277   4.429   1.050   0.368
 3086SOL    HW1 9278   4.415   1.057   0.467
 3086SOL    HW2 9279   4.513   0.999   0.350
 3087SOL     OW 9280   4.134   0.813   1.251
 3087SOL    HW1 9281   4.220   0.825   1.301
 3087SOL    HW2 9282   4.092   0.726   1.278
 3088SOL     OW 9283   3.788   1.564   1.331
 3088SOL    HW1 9284   3.742   1.646   1.297
 3088SOL    HW2 9285   3.886   1.583   1.340
 3089SOL     OW 9286   4.091   1.100   0.501
 3089SOL    HW1 9287   4.084   1.183   0.445
 3089SOL    HW2 9288   4.095   1.020   0.441
 3090SOL     OW 9289   4.290   0.537   0.865
 3090SOL    HW1 9290   4.302   0.603   0.791
 3090SOL    HW2 9291   4.336   0.571   0.948
 3091SOL     OW 9292   4.976   1.348   0.388
 3091SOL    HW1 9293   5.026   1.425   0.428
 3091SOL    HW2 9294   4.881   1.350   0.420
 3092SOL     OW 9295   4.078   1.510   1.329
 3092SOL    HW1 9296   4.057   1.466   1.242
 3092SOL    HW2 9297   4.175   1.536   1.332
 3093SOL     OW 9298   4.126   0.751   1.598
 3093SOL    HW1 9299   4.194   0.806   1.551
 3093SOL    HW2 9300   4.166   0.663   1.625
 3094SOL     OW 9301   4.737   0.105   1.770
 3094SOL    HW1 9302   4.743   0.190   1.718
 3094SOL    HW2 9303   4.769   0.029   1.713
 3095SOL     OW 9304   4.228   0.050   1.740
 3095SOL    HW1 9305   4.186  -0.007   1.670
 3095SOL    HW2 9306   4.162   0.119   1.772
 3096SOL     OW 9307   4.297   0.870   1.029
 3096SOL    HW1 9308   4.341   0.959   1.020
 3096SOL    HW2 9309   4.234   0.870   1.106
 3097SOL     OW 9310   5.084   0.862   1.045
 3097SOL    HW1 9311   5.009   0.862   0.979
 3097SOL    HW2 9312   5.121   0.770   1.054
 3098SOL     OW 9313   4.933   0.525   0.275
 3098SOL    HW1 9314   4.946   0.441   0.329
 3098SOL    HW2 9315   4.904   0.599   0.335
 3099SOL     OW 9316   4.031   0.213   1.231
 3099SOL    HW1 9317   4.008   0.250   1.321
 3099SOL    HW2 9318   4.001   0.118   1.225
 3100SOL     OW 9319   3.761   1.310   1.282
 3100SOL    HW1 9320   3.814   1.261   1.350
 3100SOL    HW2 9321   3.783   1.408   1.287
 3101SOL     OW 9322   4.456   0.634   1.064
 3101SOL    HW1 9323   4.515   0.608   0.988
 3101SOL    HW2 9324   4.428   0.730   1.053
 3102SOL     OW 9325   4.031   0.063   0.618
 3102SOL    HW1 9326   4.020   0.157   0.651
 3102SOL    HW2 9327   4.026   0.000   0.695
 3103SOL     OW 9328   4.747   0.766   0.966
 3103SOL    HW1 9329   4.762   0.787   1.062
 3103SOL    HW2 9330   4.717   0.671   0.957
 3104SOL     OW 9331   4.704   1.573   1.700
 3104SOL    HW1 9332   4.684   1.617   1.612
 3104SOL    HW2 9333   4.743   1.482   1.684
 3105SOL     OW 9334   4.074   0.898   1.804
 3105SOL    HW1 9335   4.150   0.942   1.852
 3105SOL    HW2 9336   4.109   0.851   1.722
 3106SOL     OW 9337   4.792   1.333   0.849
 3106SOL    HW1 9338   4.799   1.249   0.794
 3106SOL    HW2 9339   4.854   1.402   0.813
 3107SOL     OW 9340   4.043   0.810   0.949
 3107SOL    HW1 9341   4.136   0.846   0.954
 3107SOL    HW2 9342   4.037   0.725   1.001
 3108SOL     OW 9343   4.063   0.509   1.006
 3108SOL    HW1 9344   4.011   0.426   0.989
 3108SOL    HW2 9345   4.140   0.514   0.942
 3109SOL     OW 9346   4.862   0.380   1.678
 3109SOL    HW1 9347   4.817   0.443   1.742
 3109SOL    HW2 9348   4.955   0.411   1.661
 3110SOL     OW 9349   4.884   0.207   1.477
 3110SOL    HW1 9350   4.884   0.271   1.554
 3110SOL    HW2 9351   4.912   0.255   1.394
 3111SOL     OW 9352   3.732   1.326   0.200
 3111SOL    HW1 9353   3.639   1.347   0.169
 3111SOL    HW2 9354   3.742   1.227   0.213
 3112SOL     OW 9355   3.812   1.801   0.927
 3112SOL    HW1 9356   3.770   1.715   0.900
 3112SOL    HW2 9357   3.906   1.804   0.893
 3113SOL     OW 9358   4.228   1.568   0.910
 3113SOL    HW1 9359   4.294   1.642   0.919
 3113SOL    HW2 9360   4.272   1.489   0.868
 3114SOL     OW 9361   4.726   0.796   1.238
 3114SOL    HW1 9362   4.767   0.764   1.324
 3114SOL    HW2 9363   4.630   0.769   1.235
 3115SOL     OW 9364   3.764   0.544   1.114
 3115SOL    HW1 9365   3.849   0.511   1.073
 3115SOL    HW2 9366   3.777   0.559   1.212
 3116SOL     OW 9367   3.913   0.520   1.722
 3116SOL    HW1 9368   3.972   0.480   1.652
 3116SOL    HW2 9369   3.855   0.591   1.681
 3117SOL     OW 9370   4.539   0.572   0.325
 3117SOL    HW1 9371   4.546   0.483   0.279
 3117SOL    HW2 9372   4.445   0.606   0.317
 3118SOL     OW 9373   3.976   1.564   1.744
 3118SOL    HW1 9374   3.946   1.621   1.820
 3118SOL    HW2 9375   3.969   1.467   1.770
 3119SOL     OW 9376   4.395   0.464   1.269
 3119SOL    HW1 9377   4.361   0.375   1.239
 3119SOL    HW2 9378   4.421   0.518   1.189
 3120SOL     OW 9379   4.654   1.678   1.465
 3120SOL    HW1 9380   4.630   1.660   1.370
 3120SOL    HW2 9381   4.684   1.772   1.475
 3121SOL     OW 9382   4.197   0.500   0.191
 3121SOL    HW1 9383   4.258   0.580   0.195
 3121SOL    HW2 9384   4.102   0.531   0.198
 3122SOL     OW 9385   3.883   1.137   1.466
 3122SOL    HW1 9386   3.905   1.076   1.542
 3122SOL    HW2 9387   3.893   1.088   1.380
 3123SOL     OW 9388   4.976   1.731   1.128
 3123SOL    HW1 9389   5.060   1.736   1.074
 3123SOL    HW2 9390   4.953   1.635   1.146
 3124SOL     OW 9391   3.807   1.258   1.022
 3124SOL    HW1 9392   3.802   1.257   1.122
 3124SOL    HW2 9393   3.724   1.217   0.984
 3125SOL     OW 9394   4.412   1.662   1.716
 3125SOL    HW1 9395   4.356   1.743   1.725
 3125SOL    HW2 9396   4.464   1.666   1.630
 3126SOL     OW 9397   4.627   0.086   0.133
 3126SOL    HW1 9398   4.678   0.087   0.047
 3126SOL    HW2 9399   4.683   0.044   0.204
 3127SOL     OW 9400   3.854   1.794   1.851
 3127SOL    HW1 9401   3.813   1.720   1.904
 3127SOL    HW2 9402   3.918   1.845   1.909
 3128SOL     OW 9403   4.554   1.273   1.422
 3128SOL    HW1 9404   4.549   1.306   1.517
 3128SOL    HW2 9405   4.468   1.292   1.376
 3129SOL     OW 9406   4.396   1.616   0.154
 3129SOL    HW1 9407   4.405   1.626   0.055
 3129SOL    HW2 9408   4.356   1.527   0.175
 3130SOL     OW 9409   3.987   0.326   0.720
 3130SOL    HW1 9410   3.908   0.377   0.686
 3130SOL    HW2 9411   3.978   0.311   0.818
 3131SOL     OW 9412   4.546   1.002   1.372
 3131SOL    HW1 9413   4.586   1.001   1.280
 3131SOL    HW2 9414   4.556   1.094   1.412
 3132SOL     OW 9415   4.640   0.910   0.291
 3132SOL    HW1 9416   4.703   0.948   0.223
 3132SOL    HW2 9417   4.680   0.827   0.330
 3133SOL     OW 9418   4.096   1.288   1.490
 3133SOL    HW1 9419   4.083   1.381   1.456
 3133SOL    HW2 9420   4.012   1.236   1.477
 3134SOL     OW 9421   4.763   1.098   0.696
 3134SOL    HW1 9422   4.693   1.051   0.750
 3134SOL    HW2 9423   4.822   1.030   0.653
 3135SOL     OW 9424   4.738   0.236   0.971
 3135SOL    HW1 9425   4.730   0.200   0.878
 3135SOL    HW2 9426   4.736   0.160   1.036
 3136SOL     OW 9427   4.314   1.487   0.491
 3136SOL    HW1 9428   4.356   1.429   0.421
 3136SOL    HW2 9429   4.270   1.566   0.447
 3137SOL     OW 9430   3.979   1.348   0.290
 3137SOL    HW1 9431   3.883   1.349   0.263
 3137SOL    HW2 9432   3.991   1.401   0.374
 3138SOL     OW 9433   3.829   1.013   1.726
 3138SOL    HW1 9434   3.752   0.980   1.780
 3138SOL    HW2 9435   3.914   0.983   1.768
 3139SOL     OW 9436   4.396   0.203   1.489
 3139SOL    HW1 9437   4.486   0.187   1.449
 3139SOL    HW2 9438   4.404   0.208   1.588
 3140SOL     OW 9439   3.796   0.166   0.318
 3140SOL    HW1 9440   3.779   0.249   0.264
 3140SOL    HW2 9441   3.886   0.129   0.296
 3141SOL     OW 9442   4.337   0.842   1.431
 3141SOL    HW1 9443   4.393   0.923   1.414
 3141SOL    HW2 9444   4.396   0.762   1.434
 3142SOL     OW 9445   4.440   0.565   1.708
 3142SOL    HW1 9446   4.459   0.630   1.782
 3142SOL    HW2 9447   4.500   0.485   1.717
 3143SOL     OW 9448   4.114   1.741   1.560
 3143SOL    HW1 9449   4.023   1.782   1.558
 3143SOL    HW2 9450   4.107   1.647   1.592
 3144SOL     OW 9451   4.318   0.745   0.652
 3144SOL    HW1 9452   4.368   0.830   0.633
 3144SOL    HW2 9453   4.230   0.747   0.604
 3145SOL     OW 9454   4.583   1.374   0.016
 3145SOL    HW1 9455   4.537   1.389   0.104
 3145SOL    HW2 9456   4.627   1.459  -0.014
 3146SOL     OW 9457   4.385   1.790   0.953
 3146SOL    HW1 9458   4.339   1.878   0.940
 3146SOL    HW2 9459   4.484   1.802   0.946
 3147SOL     OW 9460   4.583   0.956   0.861
 3147SOL    HW1 9461   4.637   0.887   0.909
 3147SOL    HW2 9462   4.551   1.025   0.927
 3148SOL     OW 9463   4.807   0.984   0.087
 3148SOL    HW1 9464   4.784   1.037   0.005
 3148SOL    HW2 9465   4.888   0.928   0.068
 3149SOL     OW 9466   3.945   1.314   1.844
 3149SOL    HW1 9467   3.880   1.241   1.823
 3149SOL    HW2 9468   3.949   1.328   1.942
 3150SOL     OW 9469   3.803   1.240   0.653
 3150SOL    HW1 9470   3.802   1.193   0.741
 3150SOL    HW2 9471   3.885   1.212   0.602
 3151SOL     OW 9472   4.396   1.391   1.624
 3151SOL    HW1 9473   4.318   1.341   1.662
 3151SOL    HW2 9474   4.393   1.486   1.655
 3152SOL     OW 9475   4.152   0.424   0.520
 3152SOL    HW1 9476   4.182   0.352   0.458
 3152SOL    HW2 9477   4.113   0.384   0.603
 3153SOL     OW 9478   4.041   0.547   1.280
 3153SOL    HW1 9479   4.079   0.488   1.352
 3153SOL    HW2 9480   4.081   0.521   1.192
 3154SOL     OW 9481   4.536   1.586   0.687
 3154SOL    HW1 9482   4.568   1.596   0.593
 3154SOL    HW2 9483   4.457   1.524   0.689
 3155SOL     OW 9484   4.725   0.034   1.154
 3155SOL    HW1 9485   4.662  -0.038   1.123
 3155SOL    HW2 9486   4.818  -0.002   1.154
 3156SOL     OW 9487   4.494   1.330   0.301
 3156SOL    HW1 9488   4.448   1.243   0.318
 3156SOL    HW2 9489   4.585   1.327   0.342
 3157SOL     OW 9490   4.342   1.567   1.284
 3157SOL    HW1 9491   4.337   1.649   1.341
 3157SOL    HW2 9492   4.431   1.564   1.239
 3158SOL     OW 9493   4.599   1.646   0.337
 3158SOL    HW1 9494   4.522   1.611   0.283
 3158SOL    HW2 9495   4.567   1.717   0.399
 3159SOL     OW 9496   3.954   0.628   1.975
 3159SOL    HW1 9497   3.861   0.626   2.012
 3159SOL    HW2 9498   3.955   0.589   1.883
 3160SOL     OW 9499   3.949   0.275   2.858
 3160SOL    HW1 9500   3.984   0.258   2.950
 3160SOL    HW2 9501   3.861   0.230   2.846
 3161SOL     OW 9502   3.743   0.368   2.509
 3161SOL    HW1 9503   3.661   0.411   2.548
 3161SOL    HW2 9504   3.715   0.295   2.446
 3162SOL     OW 9505   4.293   1.275   3.027
 3162SOL    HW1 9506   4.200   1.268   2.990
 3162SOL    HW2 9507   4.304   1.364   3.071
 3163SOL     OW 9508   4.859   0.703   2.579
 3163SOL    HW1 9509   4.916   0.781   2.554
 3163SOL    HW2 9510   4.799   0.729   2.655
 3164SOL     OW 9511   4.492   1.144   2.885
 3164SOL    HW1 9512   4.414   1.161   2.945
 3164SOL    HW2 9513   4.526   1.231   2.849
 3165SOL     OW 9514   4.574   0.798   3.685
 3165SOL    HW1 9515   4.570   0.874   3.750
 3165SOL    HW2 9516   4.596   0.834   3.594
 3166SOL     OW 9517   4.409   1.012   2.527
 3166SOL    HW1 9518   4.478   0.996   2.597
 3166SOL    HW2 9519   4.336   1.069   2.565
 3167SOL     OW 9520   4.410   1.161   3.665
 3167SOL    HW1 9521   4.470   1.240   3.679
 3167SOL    HW2 9522   4.324   1.192   3.624
 3168SOL     OW 9523   4.059   1.435   2.923
 3168SOL    HW1 9524   3.981   1.404   2.870
 3168SOL    HW2 9525   4.117   1.493   2.866
 3169SOL     OW 9526   4.162   0.392   3.361
 3169SOL    HW1 9527   4.244   0.336   3.370
 3169SOL    HW2 9528   4.081   0.334   3.365
 3170SOL     OW 9529   3.955   1.713   2.345
 3170SOL    HW1 9530   3.989   1.790   2.399
 3170SOL    HW2 9531   3.999   1.713   2.255
 3171SOL     OW 9532   4.851   1.341   3.552
 3171SOL    HW1 9533   4.898   1.341   3.640
 3171SOL    HW2 9534   4.803   1.254   3.541
 3172SOL     OW 9535   3.954   1.434   2.400
 3172SOL    HW1 9536   3.928   1.530   2.400
 3172SOL    HW2 9537   3.883   1.380   2.445
 3173SOL     OW 9538   3.964   1.091   2.748
 3173SOL    HW1 9539   3.978   1.007   2.800
 3173SOL    HW2 9540   3.909   1.155   2.803
 3174SOL     OW 9541   4.344   1.786   3.301
 3174SOL    HW1 9542   4.252   1.769   3.336
 3174SOL    HW2 9543   4.372   1.878   3.327
 3175SOL     OW 9544   4.330   0.964   1.985
 3175SOL    HW1 9545   4.337   1.048   1.931
 3175SOL    HW2 9546   4.376   0.977   2.073
 3176SOL     OW 9547   3.846   0.643   2.425
 3176SOL    HW1 9548   3.801   0.555   2.442
 3176SOL    HW2 9549   3.845   0.697   2.509
 3177SOL     OW 9550   3.751   1.596   1.979
 3177SOL    HW1 9551   3.732   1.500   2.000
 3177SOL    HW2 9552   3.718   1.654   2.054
 3178SOL     OW 9553   3.837   0.737   3.459
 3178SOL    HW1 9554   3.925   0.724   3.504
 3178SOL    HW2 9555   3.824   0.834   3.437
 3179SOL     OW 9556   4.337   1.365   2.588
 3179SOL    HW1 9557   4.288   1.278   2.597
 3179SOL    HW2 9558   4.314   1.408   2.501
 3180SOL     OW 9559   4.533   0.004   2.364
 3180SOL    HW1 9560   4.573   0.095   2.355
 3180SOL    HW2 9561   4.433   0.012   2.370
 3181SOL     OW 9562   3.921   0.976   3.126
 3181SOL    HW1 9563   4.010   0.931   3.112
 3181SOL    HW2 9564   3.848   0.911   3.107
 3182SOL     OW 9565   4.041   0.251   3.663
 3182SOL    HW1 9566   4.112   0.322   3.669
 3182SOL    HW2 9567   3.953   0.290   3.691
 3183SOL     OW 9568   4.322   0.729   2.132
 3183SOL    HW1 9569   4.346   0.798   2.064
 3183SOL    HW2 9570   4.244   0.762   2.186
 3184SOL     OW 9571   4.531   0.605   3.327
 3184SOL    HW1 9572   4.484   0.602   3.416
 3184SOL    HW2 9573   4.480   0.550   3.261
 3185SOL     OW 9574   4.697   0.890   3.434
 3185SOL    HW1 9575   4.743   0.806   3.405
 3185SOL    HW2 9576   4.641   0.924   3.359
 3186SOL     OW 9577   4.715   0.410   3.104
 3186SOL    HW1 9578   4.638   0.444   3.158
 3186SOL    HW2 9579   4.681   0.359   3.025
 3187SOL     OW 9580   4.765   0.701   2.291
 3187SOL    HW1 9581   4.791   0.697   2.387
 3187SOL    HW2 9582   4.680   0.650   2.277
 3188SOL     OW 9583   3.800   0.811   2.651
 3188SOL    HW1 9584   3.899   0.799   2.660
 3188SOL    HW2 9585   3.776   0.906   2.672
 3189SOL     OW 9586   3.854   1.821   3.433
 3189SOL    HW1 9587   3.844   1.806   3.532
 3189SOL    HW2 9588   3.768   1.857   3.397
 3190SOL     OW 9589   4.589   0.348   2.057
 3190SOL    HW1 9590   4.648   0.411   2.008
 3190SOL    HW2 9591   4.608   0.254   2.028
 3191SOL     OW 9592   4.274   0.196   2.747
 3191SOL    HW1 9593   4.269   0.191   2.847
 3191SOL    HW2 9594   4.276   0.292   2.718
 3192SOL     OW 9595   4.732   1.456   2.339
 3192SOL    HW1 9596   4.686   1.528   2.287
 3192SOL    HW2 9597   4.728   1.476   2.437
 3193SOL     OW 9598   4.075   1.801   2.715
 3193SOL    HW1 9599   4.125   1.715   2.721
 3193SOL    HW2 9600   4.140   1.878   2.712
 3194SOL     OW 9601   4.951   1.550   3.368
 3194SOL    HW1 9602   4.957   1.473   3.432
 3194SOL    HW2 9603   4.899   1.524   3.288
 3195SOL     OW 9604   4.045   0.943   2.104
 3195SOL    HW1 9605   4.127   0.982   2.062
 3195SOL    HW2 9606   4.018   0.861   2.055
 3196SOL     OW 9607   4.185   1.266   3.589
 3196SOL    HW1 9608   4.135   1.267   3.503
 3196SOL    HW2 9609   4.122   1.248   3.665
 3197SOL     OW 9610   4.835   1.776   2.099
 3197SOL    HW1 9611   4.775   1.714   2.149
 3197SOL    HW2 9612   4.866   1.732   2.014
 3198SOL     OW 9613   3.926   0.285   3.360
 3198SOL    HW1 9614   3.846   0.345   3.347
 3198SOL    HW2 9615   3.916   0.236   3.446
 3199SOL     OW 9616   4.188   1.743   2.185
 3199SOL    HW1 9617   4.221   1.782   2.271
 3199SOL    HW2 9618   4.264   1.736   2.120
 3200SOL     OW 9619   3.973   1.785   3.103
 3200SOL    HW1 9620   4.030   1.720   3.153
 3200SOL    HW2 9621   3.957   1.752   3.010
 3201SOL     OW 9622   4.664   1.698   2.766
 3201SOL    HW1 9623   4.744   1.641   2.787
 3201SOL    HW2 9624   4.615   1.658   2.689
 3202SOL     OW 9625   4.106   0.700   2.342
 3202SOL    HW1 9626   4.151   0.610   2.339
 3202SOL    HW2 9627   4.012   0.689   2.375
 3203SOL     OW 9628   4.338   0.122   1.979
 3203SOL    HW1 9629   4.436   0.100   1.986
 3203SOL    HW2 9630   4.307   0.105   1.886
 3204SOL     OW 9631   4.505   0.264   3.611
 3204SOL    HW1 9632   4.572   0.203   3.654
 3204SOL    HW2 9633   4.432   0.283   3.676
 3205SOL     OW 9634   4.612   1.514   3.057
 3205SOL    HW1 9635   4.589   1.489   2.963
 3205SOL    HW2 9636   4.673   1.445   3.096
 3206SOL     OW 9637   4.527   1.402   2.786
 3206SOL    HW1 9638   4.617   1.416   2.744
 3206SOL    HW2 9639   4.456   1.404   2.715
 3207SOL     OW 9640   4.646   0.503   2.761
 3207SOL    HW1 9641   4.621   0.494   2.665
 3207SOL    HW2 9642   4.694   0.421   2.792
 3208SOL     OW 9643   4.263   0.064   2.374
 3208SOL    HW1 9644   4.182   0.065   2.432
 3208SOL    HW2 9645   4.266   0.147   2.319
 3209SOL     OW 9646   4.021   0.035   2.033
 3209SOL    HW1 9647   4.070   0.119   2.012
 3209SOL    HW2 9648   4.083  -0.030   2.078
 3210SOL     OW 9649   4.659   0.236   2.342
 3210SOL    HW1 9650   4.611   0.277   2.264
 3210SOL    HW2 9651   4.758   0.234   2.323
 3211SOL     OW 9652   4.800   0.683   3.326
 3211SOL    HW1 9653   4.720   0.622   3.329
 3211SOL    HW2 9654   4.881   0.630   3.302
 3212SOL     OW 9655   4.951   1.570   2.655
 3212SOL    HW1 9656   4.972   1.644   2.590
 3212SOL    HW2 9657   5.019   1.570   2.728
 3213SOL     OW 9658   4.183   1.152   2.603
 3213SOL    HW1 9659   4.112   1.125   2.668
 3213SOL    HW2 9660   4.157   1.124   2.510
 3214SOL     OW 9661   4.995   1.797   2.453
 3214SOL    HW1 9662   5.039   1.861   2.389
 3214SOL    HW2 9663   4.945   1.849   2.523
 3215SOL     OW 9664   4.756   0.549   1.878
 3215SOL    HW1 9665   4.715   0.631   1.839
 3215SOL    HW2 9666   4.820   0.575   1.951
 3216SOL     OW 9667   3.802   0.556   3.248
 3216SOL    HW1 9668   3.894   0.555   3.207
 3216SOL    HW2 9669   3.796   0.630   3.315
 3217SOL     OW 9670   4.285   0.222   3.009
 3217SOL    HW1 9671   4.323   0.138   3.046
 3217SOL    HW2 9672   4.197   0.241   3.053
 3218SOL     OW 9673   4.590   0.454   2.504
 3218SOL    HW1 9674   4.558   0.526   2.442
 3218SOL    HW2 9675   4.614   0.373   2.451
 3219SOL     OW 9676   4.741   0.039   2.615
 3219SOL    HW1 9677   4.669   0.044   2.546
 3219SOL    HW2 9678   4.717  -0.030   2.684
 3220SOL     OW 9679   4.212   1.385   2.036
 3220SOL    HW1 9680   4.125   1.370   2.083
 3220SOL    HW2 9681   4.195   1.411   1.941
 3221SOL     OW 9682   4.251   0.256   2.190
 3221SOL    HW1 9683   4.278   0.197   2.115
 3221SOL    HW2 9684   4.251   0.351   2.159
 3222SOL     OW 9685   4.788   1.347   3.202
 3222SOL    HW1 9686   4.708   1.324   3.257
 3222SOL    HW2 9687   4.871   1.321   3.251
 3223SOL     OW 9688   4.835   1.195   2.962
 3223SOL    HW1 9689   4.795   1.239   3.043
 3223SOL    HW2 9690   4.794   1.232   2.879
 3224SOL     OW 9691   4.639   0.089   3.264
 3224SOL    HW1 9692   4.664   0.069   3.169
 3224SOL    HW2 9693   4.711   0.145   3.306
 3225SOL     OW 9694   4.704   1.116   3.581
 3225SOL    HW1 9695   4.605   1.122   3.591
 3225SOL    HW2 9696   4.727   1.036   3.525
 3226SOL     OW 9697   4.429   1.050   2.230
 3226SOL    HW1 9698   4.415   1.057   2.329
 3226SOL    HW2 9699   4.513   0.999   2.212
 3227SOL     OW 9700   4.134   0.813   3.113
 3227SOL    HW1 9701   4.220   0.825   3.163
 3227SOL    HW2 9702   4.092   0.726   3.140
 3228SOL     OW 9703   3.788   1.564   3.193
 3228SOL    HW1 9704   3.742   1.646   3.159
 3228SOL    HW2 9705   3.886   1.583   3.202
 3229SOL     OW 9706   4.091   1.100   2.363
 3229SOL    HW1 9707   4.084   1.183   2.307
 3229SOL    HW2 9708   4.095   1.020   2.303
 3230SOL     OW 9709   4.290   0.537   2.727
 3230SOL    HW1 9710   4.302   0.603   2.653
 3230SOL    HW2 9711   4.336   0.571   2.810
 3231SOL     OW 9712   4.976   1.348   2.250
 3231SOL    HW1 9713   5.026   1.425   2.290
 3231SOL    HW2 9714   4.881   1.350   2.282
 3232SOL     OW 9715   4.078   1.510   3.191
 3232SOL    HW1 9716   4.057   1.466   3.104
 3232SOL    HW2 9717   4.175   1.536   3.194
 3233SOL     OW 9718   4.126   0.751   3.460
 3233SOL    HW1 9719   4.194   0.806   3.413
 3233SOL    HW2 9720   4.166   0.663   3.487
 3234SOL     OW 9721   4.737   0.105   3.632
 3234SOL    HW1 9722   4.743   0.190   3.580
 3234SOL    HW2 9723   4.769   0.029   3.575
 3235SOL     OW 9724   4.228   0.050   3.602
 3235SOL    HW1 9725   4.186  -0.007   3.532
 3235SOL    HW2 9726   4.162   0.119   3.634
 3236SOL     OW 9727   4.297   0.870   2.891
 3236SOL    HW1 9728   4.341   0.959   2.882
 3236SOL    HW2 9729   4.234   0.870   2.968
 3237SOL     OW 9730   5.084   0.862   2.907
 3237SOL    HW1 9731   5.009   0.862   2.841
 3237SOL    HW2 9732   5.121   0.770   2.916
 3238SOL     OW 9733   4.933   0.525   2.137
 3238SOL    HW1 9734   4.946   0.441   2.191
 3238SOL    HW2 9735   4.904   0.599   2.197
 3239SOL     OW 9736   4.031   0.213   3.093
 3239SOL    HW1 9737   4.008   0.250   3.183
 3239SOL    HW2 9738   4.001   0.118   3.087
 3240SOL     OW 9739   3.761   1.310   3.144
 3240SOL    HW1 9740   3.814   1.261   3.212
 3240SOL    HW2 9741   3.783   1.408   3.149
 3241SOL     OW 9742   4.456   0.634   2.926
 3241SOL    HW1 9743   4.515   0.608   2.850
 3241SOL    HW2 9744   4.428   0.730   2.915
 3242SOL     OW 9745   4.031   0.063   2.480
 3242SOL    HW1 9746   4.020   0.157   2.513
 3242SOL    HW2 9747   4.026   0.000   2.557
 3243SOL     OW 9748   4.747   0.766   2.828
 3243SOL    HW1 9749   4.762   0.787   2.924
 3243SOL    HW2 9750   4.717   0.671   2.819
 3244SOL     OW 9751   4.704   1.573   3.562
 3244SOL    HW1 9752   4.684   1.617   3.474
 3244SOL    HW2 9753   4.743   1.482   3.546
 3245SOL     OW 9754   4.074   0.898   3.666
 3245SOL    HW1 9755   4.150   0.942   3.714
 3245SOL    HW2 9756   4.109   0.851   3.584
 3246SOL     OW 9757   5.264   0.274   1.987
 3246SOL    HW1 9758   5.203   0.199   2.010
 3246SOL    HW2 9759   5.286   0.326   2.070
 3247SOL     OW 9760   4.792   1.333   2.711
 3247SOL    HW1 9761   4.799   1.249   2.656
 3247SOL    HW2 9762   4.854   1.402   2.675
 3248SOL     OW 9763   4.043   0.810   2.811
 3248SOL    HW1 9764   4.136   0.846   2.816
 3248SOL    HW2 9765   4.037   0.725   2.863
 3249SOL     OW 9766   4.063   0.509   2.868
 3249SOL    HW1 9767   4.011   0.426   2.851
 3249SOL    HW2 9768   4.140   0.514   2.804
 3250SOL     OW 9769   4.862   0.380   3.540
 3250SOL    HW1 9770   4.817   0.443   3.604
 3250SOL    HW2 9771   4.955   0.411   3.523
 3251SOL     OW 9772   4.884   0.207   3.339
 3251SOL    HW1 9773   4.884   0.271   3.416
 3251SOL    HW2 9774   4.912   0.255   3.256
 3252SOL     OW 9775   3.732   1.326   2.062
 3252SOL    HW1 9776   3.639   1.347   2.031
 3252SOL    HW2 9777   3.742   1.227   2.075
 3253SOL     OW 9778   3.812   1.801   2.789
 3253SOL    HW1 9779   3.770   1.715   2.762
 3253SOL    HW2 9780   3.906   1.804   2.755
 3254SOL     OW 9781   4.228   1.568   2.772
 3254SOL    HW1 9782   4.294   1.642   2.781
 3254SOL    HW2 9783   4.272   1.489   2.730
 3255SOL     OW 9784   4.726   0.796   3.100
 3255SOL    HW1 9785   4.767   0.764   3.186
 3255SOL    HW2 9786   4.630   0.769   3.097
 3256SOL     OW 9787   3.764   0.544   2.976
 3256SOL    HW1 9788   3.849   0.511   2.935
 3256SOL    HW2 9789   3.777   0.559   3.074
 3257SOL     OW 9790   3.913   0.520   3.584
 3257SOL    HW1 9791   3.972   0.480   3.514
 3257SOL    HW2 9792   3.855   0.591   3.543
 3258SOL     OW 9793   4.539   0.572   2.187
 3258SOL    HW1 9794   4.546   0.483   2.141
 3258SOL    HW2 9795   4.445   0.606   2.179
 3259SOL     OW 9796   3.976   1.564   3.606
 3259SOL    HW1 9797   3.946   1.621   3.682
 3259SOL    HW2 9798   3.969   1.467   3.632
 3260SOL     OW 9799   4.395   0.464   3.131
 3260SOL    HW1 9800   4.361   0.375   3.101
 3260SOL    HW2 9801   4.421   0.518   3.051
 3261SOL     OW 9802   4.654   1.678   3.327
 3261SOL    HW1 9803   4.630   1.660   3.232
 3261SOL    HW2 9804   4.684   1.772   3.337
 3262SOL     OW 9805   4.197   0.500   2.053
 3262SOL    HW1 9806   4.258   0.580   2.057
 3262SOL    HW2 9807   4.102   0.531   2.060
 3263SOL     OW 9808   3.883   1.137   3.328
 3263SOL    HW1 9809   3.905   1.076   3.404
 3263SOL    HW2 9810   3.893   1.088   3.242
 3264SOL     OW 9811   4.976   1.731   2.990
 3264SOL    HW1 9812   5.060   1.736   2.936
 3264SOL    HW2 9813   4.953   1.635   3.008
 3265SOL     OW 9814   3.807   1.258   2.884
 3265SOL    HW1 9815   3.802   1.257   2.984
 3265SOL    HW2 9816   3.724   1.217   2.846
 3266SOL     OW 9817   4.412   1.662   3.578
 3266SOL    HW1 9818   4.356   1.743   3.587
 3266SOL    HW2 9819   4.464   1.666   3.492
 3267SOL     OW 9820   3.854   1.794   3.713
 3267SOL    HW1 9821   3.813   1.720   3.766
 3267SOL    HW2 9822   3.918   1.845   3.771
 3268SOL     OW 9823   4.554   1.273   3.284
 3268SOL    HW1 9824   4.549   1.306   3.379
 3268SOL    HW2 9825   4.468   1.292   3.238
 3269SOL     OW 9826   4.396   1.616   2.016
 3269SOL    HW1 9827   4.405   1.626   1.917
 3269SOL    HW2 9828   4.356   1.527   2.037
 3270SOL     OW 9829   3.987   0.326   2.582
 3270SOL    HW1 9830   3.908   0.377   2.548
 3270SOL    HW2 9831   3.978   0.311   2.680
 3271SOL     OW 9832   4.546   1.002   3.234
 3271SOL    HW1 9833   4.586   1.001   3.142
 3271SOL    HW2 9834   4.556   1.094   3.274
 3272SOL     OW 9835   4.640   0.910   2.153
 3272SOL    HW1 9836   4.703   0.948   2.085
 3272SOL    HW2 9837   4.680   0.827   2.192
 3273SOL     OW 9838   4.096   1.288   3.352
 3273SOL    HW1 9839   4.083   1.381   3.318
 3273SOL    HW2 9840   4.012   1.236   3.339
 3274SOL     OW 9841   4.763   1.098   2.558
 3274SOL    HW1 9842   4.693   1.051   2.612
 3274SOL    HW2 9843   4.822   1.030   2.515
 3275SOL     OW 9844   4.738   0.236   2.833
 3275SOL    HW1 9845   4.730   0.200   2.740
 3275SOL    HW2 9846   4.736   0.160   2.898
 3276SOL     OW 9847   4.314   1.487   2.353
 3276SOL    HW1 9848   4.356   1.429   2.283
 3276SOL    HW2 9849   4.270   1.566   2.309
 3277SOL     OW 9850   3.979   1.348   2.152
 3277SOL    HW1 9851   3.883   1.349   2.125
 3277SOL    HW2 9852   3.991   1.401   2.236
 3278SOL     OW 9853   3.829   1.013   3.588
 3278SOL    HW1 9854   3.752   0.980   3.642
 3278SOL    HW2 9855   3.914   0.983   3.630
 3279SOL     OW 9856   4.396   0.203   3.351
 3279SOL    HW1 9857   4.486   0.187   3.311
 3279SOL    HW2 9858   4.404   0.208   3.450
 3280SOL     OW 9859   3.799   0.345   1.895
 3280SOL    HW1 9860   3.707   0.317   1.866
 3280SOL    HW2 9861   3.830   0.422   1.839
 3281SOL     OW 9862   3.796   0.166   2.180
 3281SOL    HW1 9863   3.779   0.249   2.126
 3281SOL    HW2 9864   3.886   0.129   2.158
 3282SOL     OW 9865   4.337   0.842   3.293
 3282SOL    HW1 9866   4.393   0.923   3.276
 3282SOL    HW2 9867   4.396   0.762   3.296
 3283SOL     OW 9868   4.440   0.565   3.570
 3283SOL    HW1 9869   4.459   0.630   3.644
 3283SOL    HW2 9870   4.500   0.485   3.579
 3284SOL     OW 9871   4.114   1.741   3.422
 3284SOL    HW1 9872   4.023   1.782   3.420
 3284SOL    HW2 9873   4.107   1.647   3.454
 3285SOL     OW 9874   4.318   0.745   2.514
 3285SOL    HW1 9875   4.368   0.830   2.495
 3285SOL    HW2 9876   4.230   0.747   2.466
 3286SOL     OW 9877   4.583   1.374   1.878
 3286SOL    HW1 9878   4.537   1.389   1.966
 3286SOL    HW2 9879   4.627   1.459   1.848
 3287SOL     OW 9880   4.385   1.790   2.815
 3287SOL    HW1 9881   4.339   1.878   2.802
 3287SOL    HW2 9882   4.484   1.802   2.808
 3288SOL     OW 9883   4.583   0.956   2.723
 3288SOL    HW1 9884   4.637   0.887   2.771
 3288SOL    HW2 9885   4.551   1.025   2.789
 3289SOL     OW 9886   4.807   0.984   1.949
 3289SOL    HW1 9887   4.784   1.037   1.867
 3289SOL    HW2 9888   4.888   0.928   1.930
 3290SOL     OW 9889   3.945   1.314   3.706
 3290SOL    HW1 9890   3.880   1.241   3.685
 3290SOL    HW2 9891   3.949   1.328   3.804
 3291SOL     OW 9892   3.803   1.240   2.515
 3291SOL    HW1 9893   3.802   1.193   2.603
 3291SOL    HW2 9894   3.885   1.212   2.464
 3292SOL     OW 9895   4.396   1.391   3.486
 3292SOL    HW1 9896   4.318   1.341   3.524
 3292SOL    HW2 9897   4.393   1.486   3.517
 3293SOL     OW 9898   4.152   0.424   2.382
 3293SOL    HW1 9899   4.182   0.352   2.320
 3293SOL    HW2 9900   4.113   0.384   2.465
 3294SOL     OW 9901   4.041   0.547   3.142
 3294SOL    HW1 9902   4.079   0.488   3.214
 3294SOL    HW2 9903   4.081   0.521   3.054
 3295SOL     OW 9904   4.536   1.586   2.549
 3295SOL    HW1 9905   4.568   1.596   2.455
 3295SOL    HW2 9906   4.457   1.524   2.551
 3296SOL     OW 9907   4.725   0.034   3.016
 3296SOL    HW1 9908   4.662  -0.038   2.985
 3296SOL    HW2 9909   4.818  -0.002   3.016
 3297SOL     OW 9910   4.494   1.330   2.163
 3297SOL    HW1 9911   4.448   1.243   2.180
 3297SOL    HW2 9912   4.585   1.327   2.204
 3298SOL     OW 9913   4.342   1.567   3.146
 3298SOL    HW1 9914   4.337   1.649   3.203
 3298SOL    HW2 9915   4.431   1.564   3.101
 3299SOL     OW 9916   5.076   0.052   2.030
 3299SOL    HW1 9917   5.111   0.011   1.946
 3299SOL    HW2 9918   4.986   0.014   2.050
 3300SOL     OW 9919   3.763   1.077   2.162
 3300SOL    HW1 9920   3.862   1.066   2.153
 3300SOL    HW2 9921   3.723   0.991   2.194
 3301SOL     OW 9922   4.599   1.646   2.199
 3301SOL    HW1 9923   4.522   1.611   2.145
 3301SOL    HW2 9924   4.567   1.717   2.261
 3302SOL     OW 9925   3.954   0.628   3.837
 3302SOL    HW1 9926   3.861   0.626   3.874
 3302SOL    HW2 9927   3.955   0.589   3.745
 3303SOL     OW 9928   3.949   0.275   4.720
 3303SOL    HW1 9929   3.984   0.258   4.812
 3303SOL    HW2 9930   3.861   0.230   4.708
 3304SOL     OW 9931   3.743   0.368   4.371
 3304SOL    HW1 9932   3.661   0.411   4.410
 3304SOL    HW2 9933   3.715   0.295   4.308
 3305SOL     OW 9934   4.293   1.275   4.889
 3305SOL    HW1 9935   4.200   1.268   4.852
 3305SOL    HW2 9936   4.304   1.364   4.933
 3306SOL     OW 9937   4.859   0.703   4.441
 3306SOL    HW1 9938   4.916   0.781   4.416
 3306SOL    HW2 9939   4.799   0.729   4.517
 3307SOL     OW 9940   4.492   1.144   4.747
 3307SOL    HW1 9941   4.414   1.161   4.807
 3307SOL    HW2 9942   4.526   1.231   4.711
 3308SOL     OW 9943   4.409   1.012   4.389
 3308SOL    HW1 9944   4.478   0.996   4.459
 3308SOL    HW2 9945   4.336   1.069   4.427
 3309SOL     OW 9946   4.059   1.435   4.785
 3309SOL    HW1 9947   3.981   1.404   4.732
 3309SOL    HW2 9948   4.117   1.493   4.728
 3310SOL     OW 9949   5.184   1.505   5.063
 3310SOL    HW1 9950   5.208   1.599   5.089
 3310SOL    HW2 9951   5.168   1.451   5.145
 3311SOL     OW 9952   3.955   1.713   4.207
 3311SOL    HW1 9953   3.989   1.790   4.261
 3311SOL    HW2 9954   3.999   1.713   4.117
 3312SOL     OW 9955   3.954   1.434   4.262
 3312SOL    HW1 9956   3.928   1.530   4.262
 3312SOL    HW2 9957   3.883   1.380   4.307
 3313SOL     OW 9958   3.964   1.091   4.610
 3313SOL    HW1 9959   3.978   1.007   4.662
 3313SOL    HW2 9960   3.909   1.155   4.665
 3314SOL     OW 9961   4.330   0.964   3.847
 3314SOL    HW1 9962   4.337   1.048   3.793
 3314SOL    HW2 9963   4.376   0.977   3.935
 3315SOL     OW 9964   3.846   0.643   4.287
 3315SOL    HW1 9965   3.801   0.555   4.304
 3315SOL    HW2 9966   3.845   0.697   4.371
 3316SOL     OW 9967   3.751   1.596   3.841
 3316SOL    HW1 9968   3.732   1.500   3.862
 3316SOL    HW2 9969   3.718   1.654   3.916
 3317SOL     OW 9970   4.337   1.365   4.450
 3317SOL    HW1 9971   4.288   1.278   4.459
 3317SOL    HW2 9972   4.314   1.408   4.363
 3318SOL     OW 9973   4.533   0.004   4.226
 3318SOL    HW1 9974   4.573   0.095   4.217
 3318SOL    HW2 9975   4.433   0.012   4.232
 3319SOL     OW 9976   3.921   0.976   4.988
 3319SOL    HW1 9977   4.010   0.931   4.974
 3319SOL    HW2 9978   3.848   0.911   4.969
 3320SOL     OW 9979   4.322   0.729   3.994
 3320SOL    HW1 9980   4.346   0.798   3.926
 3320SOL    HW2 9981   4.244   0.762   4.048
 3321SOL     OW 9982   4.765   0.701   4.153
 3321SOL    HW1 9983   4.791   0.697   4.249
 3321SOL    HW2 9984   4.680   0.650   4.139
 3322SOL     OW 9985   3.800   0.811   4.513
 3322SOL    HW1 9986   3.899   0.799   4.522
 3322SOL    HW2 9987   3.776   0.906   4.534
 3323SOL     OW 9988   4.589   0.348   3.919
 3323SOL    HW1 9989   4.648   0.411   3.870
 3323SOL    HW2 9990   4.608   0.254   3.890
 3324SOL     OW 9991   4.274   0.196   4.609
 3324SOL    HW1 9992   4.269   0.191   4.709
 3324SOL    HW2 9993   4.276   0.292   4.580
 3325SOL     OW 9994   4.732   1.456   4.201
 3325SOL    HW1 9995   4.686   1.528   4.149
 3325SOL    HW2 9996   4.728   1.476   4.299
 3326SOL     OW 9997   4.075   1.801   4.577
 3326SOL    HW1 9998   4.125   1.715   4.583
 3326SOL    HW2 9999   4.140   1.878   4.574
 3327SOL     OW10000   4.045   0.943   3.966
 3327SOL    HW110001   4.127   0.982   3.924
 3327SOL    HW210002   4.018   0.861   3.917
 3328SOL     OW10003   4.835   1.776   3.961
 3328SOL    HW110004   4.775   1.714   4.011
 3328SOL    HW210005   4.866   1.732   3.876
 3329SOL     OW10006   4.188   1.743   4.047
 3329SOL    HW110007   4.221   1.782   4.133
 3329SOL    HW210008   4.264   1.736   3.982
 3330SOL     OW10009   3.973   1.785   4.965
 3330SOL    HW110010   4.030   1.720   5.015
 3330SOL    HW210011   3.957   1.752   4.872
 3331SOL     OW10012   4.664   1.698   4.628
 3331SOL    HW110013   4.744   1.641   4.649
 3331SOL    HW210014   4.615   1.658   4.551
 3332SOL     OW10015   4.106   0.700   4.204
 3332SOL    HW110016   4.151   0.610   4.201
 3332SOL    HW210017   4.012   0.689   4.237
 3333SOL     OW10018   4.338   0.122   3.841
 3333SOL    HW110019   4.436   0.100   3.848
 3333SOL    HW210020   4.307   0.105   3.748
 3334SOL     OW10021   4.527   1.402   4.648
 3334SOL    HW110022   4.617   1.416   4.606
 3334SOL    HW210023   4.456   1.404   4.577
 3335SOL     OW10024   4.646   0.503   4.623
 3335SOL    HW110025   4.621   0.494   4.527
 3335SOL    HW210026   4.694   0.421   4.654
 3336SOL     OW10027   4.263   0.064   4.236
 3336SOL    HW110028   4.182   0.065   4.294
 3336SOL    HW210029   4.266   0.147   4.181
 3337SOL     OW10030   4.021   0.035   3.895
 3337SOL    HW110031   4.070   0.119   3.874
 3337SOL    HW210032   4.083  -0.030   3.940
 3338SOL     OW10033   4.659   0.236   4.204
 3338SOL    HW110034   4.611   0.277   4.126
 3338SOL    HW210035   4.758   0.234   4.185
 3339SOL     OW10036   4.951   1.570   4.517
 3339SOL    HW110037   4.972   1.644   4.452
 3339SOL    HW210038   5.019   1.570   4.590
 3340SOL     OW10039   4.183   1.152   4.465
 3340SOL    HW110040   4.112   1.125   4.530
 3340SOL    HW210041   4.157   1.124   4.372
 3341SOL     OW10042   4.995   1.797   4.315
 3341SOL    HW110043   5.039   1.861   4.251
 3341SOL    HW210044   4.945   1.849   4.385
 3342SOL     OW10045   4.756   0.549   3.740
 3342SOL    HW110046   4.715   0.631   3.701
 3342SOL    HW210047   4.820   0.575   3.813
 3343SOL     OW10048   4.590   0.454   4.366
 3343SOL    HW110049   4.558   0.526   4.304
 3343SOL    HW210050   4.614   0.373   4.313
 3344SOL     OW10051   4.741   0.039   4.477
 3344SOL    HW110052   4.669   0.044   4.408
 3344SOL    HW210053   4.717  -0.030   4.546
 3345SOL     OW10054   4.212   1.385   3.898
 3345SOL    HW110055   4.125   1.370   3.945
 3345SOL    HW210056   4.195   1.411   3.803
 3346SOL     OW10057   4.251   0.256   4.052
 3346SOL    HW110058   4.278   0.197   3.977
 3346SOL    HW210059   4.251   0.351   4.021
 3347SOL     OW10060   4.835   1.195   4.824
 3347SOL    HW110061   4.795   1.239   4.905
 3347SOL    HW210062   4.794   1.232   4.741
 3348SOL     OW10063   4.429   1.050   4.092
 3348SOL    HW110064   4.415   1.057   4.191
 3348SOL    HW210065   4.513   0.999   4.074
 3349SOL     OW10066   4.134   0.813   4.975
 3349SOL    HW110067   4.220   0.825   5.025
 3349SOL    HW210068   4.092   0.726   5.002
 3350SOL     OW10069   4.091   1.100   4.225
 3350SOL    HW110070   4.084   1.183   4.169
 3350SOL    HW210071   4.095   1.020   4.165
 3351SOL     OW10072   4.290   0.537   4.589
 3351SOL    HW110073   4.302   0.603   4.515
 3351SOL    HW210074   4.336   0.571   4.672
 3352SOL     OW10075   4.976   1.348   4.112
 3352SOL    HW110076   5.026   1.425   4.152
 3352SOL    HW210077   4.881   1.350   4.144
 3353SOL     OW10078   4.996   1.445   4.866
 3353SOL    HW110079   5.043   1.458   4.953
 3353SOL    HW210080   4.930   1.371   4.875
 3354SOL     OW10081   4.297   0.870   4.753
 3354SOL    HW110082   4.341   0.959   4.744
 3354SOL    HW210083   4.234   0.870   4.830
 3355SOL     OW10084   5.084   0.862   4.769
 3355SOL    HW110085   5.009   0.862   4.703
 3355SOL    HW210086   5.121   0.770   4.778
 3356SOL     OW10087   4.933   0.525   3.999
 3356SOL    HW110088   4.946   0.441   4.053
 3356SOL    HW210089   4.904   0.599   4.059
 3357SOL     OW10090   4.031   0.213   4.955
 3357SOL    HW110091   4.008   0.250   5.045
 3357SOL    HW210092   4.001   0.118   4.949
 3358SOL     OW10093   4.456   0.634   4.788
 3358SOL    HW110094   4.515   0.608   4.712
 3358SOL    HW210095   4.428   0.730   4.777
 3359SOL     OW10096   4.031   0.063   4.342
 3359SOL    HW110097   4.020   0.157   4.375
 3359SOL    HW210098   4.026   0.000   4.419
 3360SOL     OW10099   4.747   0.766   4.690
 3360SOL    HW110100   4.762   0.787   4.786
 3360SOL    HW210101   4.717   0.671   4.681
 3361SOL     OW10102   5.264   0.274   3.849
 3361SOL    HW110103   5.203   0.199   3.872
 3361SOL    HW210104   5.286   0.326   3.932
 3362SOL     OW10105   4.792   1.333   4.573
 3362SOL    HW110106   4.799   1.249   4.518
 3362SOL    HW210107   4.854   1.402   4.537
 3363SOL     OW10108   4.043   0.810   4.673
 3363SOL    HW110109   4.136   0.846   4.678
 3363SOL    HW210110   4.037   0.725   4.725
 3364SOL     OW10111   4.063   0.509   4.730
 3364SOL    HW110112   4.011   0.426   4.713
 3364SOL    HW210113   4.140   0.514   4.666
 3365SOL     OW10114   4.884   0.207   5.201
 3365SOL    HW110115   4.884   0.271   5.278
 3365SOL    HW210116   4.912   0.255   5.118
 3366SOL     OW10117   3.732   1.326   3.924
 3366SOL    HW110118   3.639   1.347   3.893
 3366SOL    HW210119   3.742   1.227   3.937
 3367SOL     OW10120   3.812   1.801   4.651
 3367SOL    HW110121   3.770   1.715   4.624
 3367SOL    HW210122   3.906   1.804   4.617
 3368SOL     OW10123   4.228   1.568   4.634
 3368SOL    HW110124   4.294   1.642   4.643
 3368SOL    HW210125   4.272   1.489   4.592
 3369SOL     OW10126   4.726   0.796   4.962
 3369SOL    HW110127   4.767   0.764   5.048
 3369SOL    HW210128   4.630   0.769   4.959
 3370SOL     OW10129   3.764   0.544   4.838
 3370SOL    HW110130   3.849   0.511   4.797
 3370SOL    HW210131   3.777   0.559   4.936
 3371SOL     OW10132   4.539   0.572   4.049
 3371SOL    HW110133   4.546   0.483   4.003
 3371SOL    HW210134   4.445   0.606   4.041
 3372SOL     OW10135   4.395   0.464   4.993
 3372SOL    HW110136   4.361   0.375   4.963
 3372SOL    HW210137   4.421   0.518   4.913
 3373SOL     OW10138   4.197   0.500   3.915
 3373SOL    HW110139   4.258   0.580   3.919
 3373SOL    HW210140   4.102   0.531   3.922
 3374SOL     OW10141   3.883   1.137   5.190
 3374SOL    HW110142   3.905   1.076   5.266
 3374SOL    HW210143   3.893   1.088   5.104
 3375SOL     OW10144   4.976   1.731   4.852
 3375SOL    HW110145   5.060   1.736   4.798
 3375SOL    HW210146   4.953   1.635   4.870
 3376SOL     OW10147   3.807   1.258   4.746
 3376SOL    HW110148   3.802   1.257   4.846
 3376SOL    HW210149   3.724   1.217   4.708
 3377SOL     OW10150   4.396   1.616   3.878
 3377SOL    HW110151   4.405   1.626   3.779
 3377SOL    HW210152   4.356   1.527   3.899
 3378SOL     OW10153   3.987   0.326   4.444
 3378SOL    HW110154   3.908   0.377   4.410
 3378SOL    HW210155   3.978   0.311   4.542
 3379SOL     OW10156   4.546   1.002   5.096
 3379SOL    HW110157   4.586   1.001   5.004
 3379SOL    HW210158   4.556   1.094   5.136
 3380SOL     OW10159   4.640   0.910   4.015
 3380SOL    HW110160   4.703   0.948   3.947
 3380SOL    HW210161   4.680   0.827   4.054
 3381SOL     OW10162   4.763   1.098   4.420
 3381SOL    HW110163   4.693   1.051   4.474
 3381SOL    HW210164   4.822   1.030   4.377
 3382SOL     OW10165   4.738   0.236   4.695
 3382SOL    HW110166   4.730   0.200   4.602
 3382SOL    HW210167   4.736   0.160   4.760
 3383SOL     OW10168   4.314   1.487   4.215
 3383SOL    HW110169   4.356   1.429   4.145
 3383SOL    HW210170   4.270   1.566   4.171
 3384SOL     OW10171   3.979   1.348   4.014
 3384SOL    HW110172   3.883   1.349   3.987
 3384SOL    HW210173   3.991   1.401   4.098
 3385SOL     OW10174   3.799   0.345   3.757
 3385SOL    HW110175   3.707   0.317   3.728
 3385SOL    HW210176   3.830   0.422   3.701
 3386SOL     OW10177   3.796   0.166   4.042
 3386SOL    HW110178   3.779   0.249   3.988
 3386SOL    HW210179   3.886   0.129   4.020
 3387SOL     OW10180   4.318   0.745   4.376
 3387SOL    HW110181   4.368   0.830   4.357
 3387SOL    HW210182   4.230   0.747   4.328
 3388SOL     OW10183   4.583   1.374   3.740
 3388SOL    HW110184   4.537   1.389   3.828
 3388SOL    HW210185   4.627   1.459   3.710
 3389SOL     OW10186   4.385   1.790   4.677
 3389SOL    HW110187   4.339   1.878   4.664
 3389SOL    HW210188   4.484   1.802   4.670
 3390SOL     OW10189   4.583   0.956   4.585
 3390SOL    HW110190   4.637   0.887   4.633
 3390SOL    HW210191   4.551   1.025   4.651
 3391SOL     OW10192   4.807   0.984   3.811
 3391SOL    HW110193   4.784   1.037   3.729
 3391SOL    HW210194   4.888   0.928   3.792
 3392SOL     OW10195   3.803   1.240   4.377
 3392SOL    HW110196   3.802   1.193   4.465
 3392SOL    HW210197   3.885   1.212   4.326
 3393SOL     OW10198   4.152   0.424   4.244
 3393SOL    HW110199   4.182   0.352   4.182
 3393SOL    HW210200   4.113   0.384   4.327
 3394SOL     OW10201   4.536   1.586   4.411
 3394SOL    HW110202   4.568   1.596   4.317
 3394SOL    HW210203   4.457   1.524   4.413
 3395SOL     OW10204   4.725   0.034   4.878
 3395SOL    HW110205   4.662  -0.038   4.847
 3395SOL    HW210206   4.818  -0.002   4.878
 3396SOL     OW10207   4.494   1.330   4.025
 3396SOL    HW110208   4.448   1.243   4.042
 3396SOL    HW210209   4.585   1.327   4.066
 3397SOL     OW10210   5.076   0.052   3.892
 3397SOL    HW110211   5.111   0.011   3.808
 3397SOL    HW210212   4.986   0.014   3.912
 3398SOL     OW10213   3.763   1.077   4.024
 3398SOL    HW110214   3.862   1.066   4.015
 3398SOL    HW210215   3.723   0.991   4.056
 3399SOL     OW10216   4.599   1.646   4.061
 3399SOL    HW110217   4.522   1.611   4.007
 3399SOL    HW210218   4.567   1.717   4.123
 3400SOL     OW10219   3.954   2.490   0.113
 3400SOL    HW110220   3.861   2.488   0.150
 3400SOL    HW210221   3.955   2.451   0.021
 3401SOL     OW10222   3.949   2.137   0.996
 3401SOL    HW110223   3.984   2.120   1.088
 3401SOL    HW210224   3.861   2.092   0.984
 3402SOL     OW10225   3.743   2.230   0.647
 3402SOL    HW110226   3.661   2.273   0.686
 3402SOL    HW210227   3.715   2.157   0.584
 3403SOL     OW10228   4.293   3.137   1.165
 3403SOL    HW110229   4.200   3.130   1.128
 3403SOL    HW210230   4.304   3.226   1.209
 3404SOL     OW10231   4.859   2.565   0.717
 3404SOL    HW110232   4.916   2.643   0.692
 3404SOL    HW210233   4.799   2.591   0.793
 3405SOL     OW10234   4.492   3.006   1.023
 3405SOL    HW110235   4.414   3.023   1.083
 3405SOL    HW210236   4.526   3.093   0.987
 3406SOL     OW10237   4.574   2.660   1.823
 3406SOL    HW110238   4.570   2.736   1.888
 3406SOL    HW210239   4.596   2.696   1.732
 3407SOL     OW10240   4.409   2.874   0.665
 3407SOL    HW110241   4.478   2.858   0.735
 3407SOL    HW210242   4.336   2.931   0.703
 3408SOL     OW10243   4.410   3.023   1.803
 3408SOL    HW110244   4.470   3.102   1.817
 3408SOL    HW210245   4.324   3.054   1.762
 3409SOL     OW10246   4.059   3.297   1.061
 3409SOL    HW110247   3.981   3.266   1.008
 3409SOL    HW210248   4.117   3.355   1.004
 3410SOL     OW10249   4.162   2.254   1.499
 3410SOL    HW110250   4.244   2.198   1.508
 3410SOL    HW210251   4.081   2.196   1.503
 3411SOL     OW10252   3.955   3.575   0.483
 3411SOL    HW110253   3.989   3.652   0.537
 3411SOL    HW210254   3.999   3.575   0.393
 3412SOL     OW10255   4.851   3.203   1.690
 3412SOL    HW110256   4.898   3.203   1.778
 3412SOL    HW210257   4.803   3.116   1.679
 3413SOL     OW10258   3.954   3.296   0.538
 3413SOL    HW110259   3.928   3.392   0.538
 3413SOL    HW210260   3.883   3.242   0.583
 3414SOL     OW10261   3.964   2.953   0.886
 3414SOL    HW110262   3.978   2.869   0.938
 3414SOL    HW210263   3.909   3.017   0.941
 3415SOL     OW10264   4.344   3.648   1.439
 3415SOL    HW110265   4.252   3.631   1.474
 3415SOL    HW210266   4.372   3.740   1.465
 3416SOL     OW10267   4.330   2.826   0.123
 3416SOL    HW110268   4.337   2.910   0.069
 3416SOL    HW210269   4.376   2.839   0.211
 3417SOL     OW10270   3.846   2.505   0.563
 3417SOL    HW110271   3.801   2.417   0.580
 3417SOL    HW210272   3.845   2.559   0.647
 3418SOL     OW10273   3.751   3.458   0.117
 3418SOL    HW110274   3.732   3.362   0.138
 3418SOL    HW210275   3.718   3.516   0.192
 3419SOL     OW10276   3.837   2.599   1.597
 3419SOL    HW110277   3.925   2.586   1.642
 3419SOL    HW210278   3.824   2.696   1.575
 3420SOL     OW10279   4.337   3.227   0.726
 3420SOL    HW110280   4.288   3.140   0.735
 3420SOL    HW210281   4.314   3.270   0.639
 3421SOL     OW10282   4.533   1.866   0.502
 3421SOL    HW110283   4.573   1.957   0.493
 3421SOL    HW210284   4.433   1.874   0.508
 3422SOL     OW10285   3.921   2.838   1.264
 3422SOL    HW110286   4.010   2.793   1.250
 3422SOL    HW210287   3.848   2.773   1.245
 3423SOL     OW10288   4.041   2.113   1.801
 3423SOL    HW110289   4.112   2.184   1.807
 3423SOL    HW210290   3.953   2.152   1.829
 3424SOL     OW10291   4.322   2.591   0.270
 3424SOL    HW110292   4.346   2.660   0.202
 3424SOL    HW210293   4.244   2.624   0.324
 3425SOL     OW10294   4.531   2.467   1.465
 3425SOL    HW110295   4.484   2.464   1.554
 3425SOL    HW210296   4.480   2.412   1.399
 3426SOL     OW10297   4.697   2.752   1.572
 3426SOL    HW110298   4.743   2.668   1.543
 3426SOL    HW210299   4.641   2.786   1.497
 3427SOL     OW10300   4.715   2.272   1.242
 3427SOL    HW110301   4.638   2.306   1.296
 3427SOL    HW210302   4.681   2.221   1.163
 3428SOL     OW10303   4.765   2.563   0.429
 3428SOL    HW110304   4.791   2.559   0.525
 3428SOL    HW210305   4.680   2.512   0.415
 3429SOL     OW10306   3.800   2.673   0.789
 3429SOL    HW110307   3.899   2.661   0.798
 3429SOL    HW210308   3.776   2.768   0.810
 3430SOL     OW10309   3.854   3.683   1.571
 3430SOL    HW110310   3.844   3.668   1.670
 3430SOL    HW210311   3.768   3.719   1.535
 3431SOL     OW10312   4.589   2.210   0.195
 3431SOL    HW110313   4.648   2.273   0.146
 3431SOL    HW210314   4.608   2.116   0.166
 3432SOL     OW10315   4.274   2.058   0.885
 3432SOL    HW110316   4.269   2.053   0.985
 3432SOL    HW210317   4.276   2.154   0.856
 3433SOL     OW10318   4.732   3.318   0.477
 3433SOL    HW110319   4.686   3.390   0.425
 3433SOL    HW210320   4.728   3.338   0.575
 3434SOL     OW10321   4.075   3.663   0.853
 3434SOL    HW110322   4.125   3.577   0.859
 3434SOL    HW210323   4.140   3.740   0.850
 3435SOL     OW10324   4.951   3.412   1.506
 3435SOL    HW110325   4.957   3.335   1.570
 3435SOL    HW210326   4.899   3.386   1.426
 3436SOL     OW10327   4.045   2.805   0.242
 3436SOL    HW110328   4.127   2.844   0.200
 3436SOL    HW210329   4.018   2.723   0.193
 3437SOL     OW10330   4.185   3.128   1.727
 3437SOL    HW110331   4.135   3.129   1.641
 3437SOL    HW210332   4.122   3.110   1.803
 3438SOL     OW10333   4.835   3.638   0.237
 3438SOL    HW110334   4.775   3.576   0.287
 3438SOL    HW210335   4.866   3.594   0.152
 3439SOL     OW10336   3.926   2.147   1.498
 3439SOL    HW110337   3.846   2.207   1.485
 3439SOL    HW210338   3.916   2.098   1.584
 3440SOL     OW10339   4.188   3.605   0.323
 3440SOL    HW110340   4.221   3.644   0.409
 3440SOL    HW210341   4.264   3.598   0.258
 3441SOL     OW10342   3.973   3.647   1.241
 3441SOL    HW110343   4.030   3.582   1.291
 3441SOL    HW210344   3.957   3.614   1.148
 3442SOL     OW10345   4.664   3.560   0.904
 3442SOL    HW110346   4.744   3.503   0.925
 3442SOL    HW210347   4.615   3.520   0.827
 3443SOL     OW10348   4.106   2.562   0.480
 3443SOL    HW110349   4.151   2.472   0.477
 3443SOL    HW210350   4.012   2.551   0.513
 3444SOL     OW10351   4.338   1.984   0.117
 3444SOL    HW110352   4.436   1.962   0.124
 3444SOL    HW210353   4.307   1.967   0.024
 3445SOL     OW10354   4.505   2.126   1.749
 3445SOL    HW110355   4.572   2.065   1.792
 3445SOL    HW210356   4.432   2.145   1.814
 3446SOL     OW10357   4.612   3.376   1.195
 3446SOL    HW110358   4.589   3.351   1.101
 3446SOL    HW210359   4.673   3.307   1.234
 3447SOL     OW10360   4.527   3.264   0.924
 3447SOL    HW110361   4.617   3.278   0.882
 3447SOL    HW210362   4.456   3.266   0.853
 3448SOL     OW10363   4.646   2.365   0.899
 3448SOL    HW110364   4.621   2.356   0.803
 3448SOL    HW210365   4.694   2.283   0.930
 3449SOL     OW10366   4.263   1.926   0.512
 3449SOL    HW110367   4.182   1.927   0.570
 3449SOL    HW210368   4.266   2.009   0.457
 3450SOL     OW10369   5.158   3.050   0.041
 3450SOL    HW110370   5.190   2.974   0.098
 3450SOL    HW210371   5.066   3.077   0.071
 3451SOL     OW10372   4.021   1.897   0.171
 3451SOL    HW110373   4.070   1.981   0.150
 3451SOL    HW210374   4.083   1.832   0.216
 3452SOL     OW10375   4.659   2.098   0.480
 3452SOL    HW110376   4.611   2.139   0.402
 3452SOL    HW210377   4.758   2.096   0.461
 3453SOL     OW10378   4.800   2.545   1.464
 3453SOL    HW110379   4.720   2.484   1.467
 3453SOL    HW210380   4.881   2.492   1.440
 3454SOL     OW10381   4.951   3.432   0.793
 3454SOL    HW110382   4.972   3.506   0.728
 3454SOL    HW210383   5.019   3.432   0.866
 3455SOL     OW10384   4.183   3.014   0.741
 3455SOL    HW110385   4.112   2.987   0.806
 3455SOL    HW210386   4.157   2.986   0.648
 3456SOL     OW10387   4.995   3.659   0.591
 3456SOL    HW110388   5.039   3.723   0.527
 3456SOL    HW210389   4.945   3.711   0.661
 3457SOL     OW10390   4.756   2.411   0.016
 3457SOL    HW110391   4.715   2.493  -0.023
 3457SOL    HW210392   4.820   2.437   0.089
 3458SOL     OW10393   3.802   2.418   1.386
 3458SOL    HW110394   3.894   2.417   1.345
 3458SOL    HW210395   3.796   2.492   1.453
 3459SOL     OW10396   4.285   2.084   1.147
 3459SOL    HW110397   4.323   2.000   1.184
 3459SOL    HW210398   4.197   2.103   1.191
 3460SOL     OW10399   4.590   2.316   0.642
 3460SOL    HW110400   4.558   2.388   0.580
 3460SOL    HW210401   4.614   2.235   0.589
 3461SOL     OW10402   4.741   1.901   0.753
 3461SOL    HW110403   4.669   1.906   0.684
 3461SOL    HW210404   4.717   1.832   0.822
 3462SOL     OW10405   4.212   3.247   0.174
 3462SOL    HW110406   4.125   3.232   0.221
 3462SOL    HW210407   4.195   3.273   0.079
 3463SOL     OW10408   4.251   2.118   0.328
 3463SOL    HW110409   4.278   2.059   0.253
 3463SOL    HW210410   4.251   2.213   0.297
 3464SOL     OW10411   4.788   3.209   1.340
 3464SOL    HW110412   4.708   3.186   1.395
 3464SOL    HW210413   4.871   3.183   1.389
 3465SOL     OW10414   4.835   3.057   1.100
 3465SOL    HW110415   4.795   3.101   1.181
 3465SOL    HW210416   4.794   3.094   1.017
 3466SOL     OW10417   4.639   1.951   1.402
 3466SOL    HW110418   4.664   1.931   1.307
 3466SOL    HW210419   4.711   2.007   1.444
 3467SOL     OW10420   4.704   2.978   1.719
 3467SOL    HW110421   4.605   2.984   1.729
 3467SOL    HW210422   4.727   2.898   1.663
 3468SOL     OW10423   4.429   2.912   0.368
 3468SOL    HW110424   4.415   2.919   0.467
 3468SOL    HW210425   4.513   2.861   0.350
 3469SOL     OW10426   4.134   2.675   1.251
 3469SOL    HW110427   4.220   2.687   1.301
 3469SOL    HW210428   4.092   2.588   1.278
 3470SOL     OW10429   3.788   3.426   1.331
 3470SOL    HW110430   3.742   3.508   1.297
 3470SOL    HW210431   3.886   3.445   1.340
 3471SOL     OW10432   4.091   2.962   0.501
 3471SOL    HW110433   4.084   3.045   0.445
 3471SOL    HW210434   4.095   2.882   0.441
 3472SOL     OW10435   4.290   2.399   0.865
 3472SOL    HW110436   4.302   2.465   0.791
 3472SOL    HW210437   4.336   2.433   0.948
 3473SOL     OW10438   4.976   3.210   0.388
 3473SOL    HW110439   5.026   3.287   0.428
 3473SOL    HW210440   4.881   3.212   0.420
 3474SOL     OW10441   4.078   3.372   1.329
 3474SOL    HW110442   4.057   3.328   1.242
 3474SOL    HW210443   4.175   3.398   1.332
 3475SOL     OW10444   4.126   2.613   1.598
 3475SOL    HW110445   4.194   2.668   1.551
 3475SOL    HW210446   4.166   2.525   1.625
 3476SOL     OW10447   4.737   1.967   1.770
 3476SOL    HW110448   4.743   2.052   1.718
 3476SOL    HW210449   4.769   1.891   1.713
 3477SOL     OW10450   4.228   1.912   1.740
 3477SOL    HW110451   4.186   1.855   1.670
 3477SOL    HW210452   4.162   1.981   1.772
 3478SOL     OW10453   4.297   2.732   1.029
 3478SOL    HW110454   4.341   2.821   1.020
 3478SOL    HW210455   4.234   2.732   1.106
 3479SOL     OW10456   5.084   2.724   1.045
 3479SOL    HW110457   5.009   2.724   0.979
 3479SOL    HW210458   5.121   2.632   1.054
 3480SOL     OW10459   4.933   2.387   0.275
 3480SOL    HW110460   4.946   2.303   0.329
 3480SOL    HW210461   4.904   2.461   0.335
 3481SOL     OW10462   4.031   2.075   1.231
 3481SOL    HW110463   4.008   2.112   1.321
 3481SOL    HW210464   4.001   1.980   1.225
 3482SOL     OW10465   3.761   3.172   1.282
 3482SOL    HW110466   3.814   3.123   1.350
 3482SOL    HW210467   3.783   3.270   1.287
 3483SOL     OW10468   4.456   2.496   1.064
 3483SOL    HW110469   4.515   2.470   0.988
 3483SOL    HW210470   4.428   2.592   1.053
 3484SOL     OW10471   4.031   1.925   0.618
 3484SOL    HW110472   4.020   2.019   0.651
 3484SOL    HW210473   4.026   1.862   0.695
 3485SOL     OW10474   4.747   2.628   0.966
 3485SOL    HW110475   4.762   2.649   1.062
 3485SOL    HW210476   4.717   2.533   0.957
 3486SOL     OW10477   4.704   3.435   1.700
 3486SOL    HW110478   4.684   3.479   1.612
 3486SOL    HW210479   4.743   3.344   1.684
 3487SOL     OW10480   4.074   2.760   1.804
 3487SOL    HW110481   4.150   2.804   1.852
 3487SOL    HW210482   4.109   2.713   1.722
 3488SOL     OW10483   4.792   3.195   0.849
 3488SOL    HW110484   4.799   3.111   0.794
 3488SOL    HW210485   4.854   3.264   0.813
 3489SOL     OW10486   4.043   2.672   0.949
 3489SOL    HW110487   4.136   2.708   0.954
 3489SOL    HW210488   4.037   2.587   1.001
 3490SOL     OW10489   4.063   2.371   1.006
 3490SOL    HW110490   4.011   2.288   0.989
 3490SOL    HW210491   4.140   2.376   0.942
 3491SOL     OW10492   4.862   2.242   1.678
 3491SOL    HW110493   4.817   2.305   1.742
 3491SOL    HW210494   4.955   2.273   1.661
 3492SOL     OW10495   4.884   2.069   1.477
 3492SOL    HW110496   4.884   2.133   1.554
 3492SOL    HW210497   4.912   2.117   1.394
 3493SOL     OW10498   3.732   3.188   0.200
 3493SOL    HW110499   3.639   3.209   0.169
 3493SOL    HW210500   3.742   3.089   0.213
 3494SOL     OW10501   3.812   3.663   0.927
 3494SOL    HW110502   3.770   3.577   0.900
 3494SOL    HW210503   3.906   3.666   0.893
 3495SOL     OW10504   4.228   3.430   0.910
 3495SOL    HW110505   4.294   3.504   0.919
 3495SOL    HW210506   4.272   3.351   0.868
 3496SOL     OW10507   4.726   2.658   1.238
 3496SOL    HW110508   4.767   2.626   1.324
 3496SOL    HW210509   4.630   2.631   1.235
 3497SOL     OW10510   3.764   2.406   1.114
 3497SOL    HW110511   3.849   2.373   1.073
 3497SOL    HW210512   3.777   2.421   1.212
 3498SOL     OW10513   3.913   2.382   1.722
 3498SOL    HW110514   3.972   2.342   1.652
 3498SOL    HW210515   3.855   2.453   1.681
 3499SOL     OW10516   4.539   2.434   0.325
 3499SOL    HW110517   4.546   2.345   0.279
 3499SOL    HW210518   4.445   2.468   0.317
 3500SOL     OW10519   3.976   3.426   1.744
 3500SOL    HW110520   3.946   3.483   1.820
 3500SOL    HW210521   3.969   3.329   1.770
 3501SOL     OW10522   4.395   2.326   1.269
 3501SOL    HW110523   4.361   2.237   1.239
 3501SOL    HW210524   4.421   2.380   1.189
 3502SOL     OW10525   4.654   3.540   1.465
 3502SOL    HW110526   4.630   3.522   1.370
 3502SOL    HW210527   4.684   3.634   1.475
 3503SOL     OW10528   4.197   2.362   0.191
 3503SOL    HW110529   4.258   2.442   0.195
 3503SOL    HW210530   4.102   2.393   0.198
 3504SOL     OW10531   3.883   2.999   1.466
 3504SOL    HW110532   3.905   2.938   1.542
 3504SOL    HW210533   3.893   2.950   1.380
 3505SOL     OW10534   4.976   3.593   1.128
 3505SOL    HW110535   5.060   3.598   1.074
 3505SOL    HW210536   4.953   3.497   1.146
 3506SOL     OW10537   3.807   3.120   1.022
 3506SOL    HW110538   3.802   3.119   1.122
 3506SOL    HW210539   3.724   3.079   0.984
 3507SOL     OW10540   4.412   3.524   1.716
 3507SOL    HW110541   4.356   3.605   1.725
 3507SOL    HW210542   4.464   3.528   1.630
 3508SOL     OW10543   4.627   1.948   0.133
 3508SOL    HW110544   4.678   1.949   0.047
 3508SOL    HW210545   4.683   1.906   0.204
 3509SOL     OW10546   3.854   3.656   1.851
 3509SOL    HW110547   3.813   3.582   1.904
 3509SOL    HW210548   3.918   3.707   1.909
 3510SOL     OW10549   4.554   3.135   1.422
 3510SOL    HW110550   4.549   3.168   1.517
 3510SOL    HW210551   4.468   3.154   1.376
 3511SOL     OW10552   4.396   3.478   0.154
 3511SOL    HW110553   4.405   3.488   0.055
 3511SOL    HW210554   4.356   3.389   0.175
 3512SOL     OW10555   3.987   2.188   0.720
 3512SOL    HW110556   3.908   2.239   0.686
 3512SOL    HW210557   3.978   2.173   0.818
 3513SOL     OW10558   4.546   2.864   1.372
 3513SOL    HW110559   4.586   2.863   1.280
 3513SOL    HW210560   4.556   2.956   1.412
 3514SOL     OW10561   4.640   2.772   0.291
 3514SOL    HW110562   4.703   2.810   0.223
 3514SOL    HW210563   4.680   2.689   0.330
 3515SOL     OW10564   4.096   3.150   1.490
 3515SOL    HW110565   4.083   3.243   1.456
 3515SOL    HW210566   4.012   3.098   1.477
 3516SOL     OW10567   4.763   2.960   0.696
 3516SOL    HW110568   4.693   2.913   0.750
 3516SOL    HW210569   4.822   2.892   0.653
 3517SOL     OW10570   4.738   2.098   0.971
 3517SOL    HW110571   4.730   2.062   0.878
 3517SOL    HW210572   4.736   2.022   1.036
 3518SOL     OW10573   4.314   3.349   0.491
 3518SOL    HW110574   4.356   3.291   0.421
 3518SOL    HW210575   4.270   3.428   0.447
 3519SOL     OW10576   3.979   3.210   0.290
 3519SOL    HW110577   3.883   3.211   0.263
 3519SOL    HW210578   3.991   3.263   0.374
 3520SOL     OW10579   3.829   2.875   1.726
 3520SOL    HW110580   3.752   2.842   1.780
 3520SOL    HW210581   3.914   2.845   1.768
 3521SOL     OW10582   4.396   2.065   1.489
 3521SOL    HW110583   4.486   2.049   1.449
 3521SOL    HW210584   4.404   2.070   1.588
 3522SOL     OW10585   3.796   2.028   0.318
 3522SOL    HW110586   3.779   2.111   0.264
 3522SOL    HW210587   3.886   1.991   0.296
 3523SOL     OW10588   4.337   2.704   1.431
 3523SOL    HW110589   4.393   2.785   1.414
 3523SOL    HW210590   4.396   2.624   1.434
 3524SOL     OW10591   4.440   2.427   1.708
 3524SOL    HW110592   4.459   2.492   1.782
 3524SOL    HW210593   4.500   2.347   1.717
 3525SOL     OW10594   4.114   3.603   1.560
 3525SOL    HW110595   4.023   3.644   1.558
 3525SOL    HW210596   4.107   3.509   1.592
 3526SOL     OW10597   4.318   2.607   0.652
 3526SOL    HW110598   4.368   2.692   0.633
 3526SOL    HW210599   4.230   2.609   0.604
 3527SOL     OW10600   4.583   3.236   0.016
 3527SOL    HW110601   4.537   3.251   0.104
 3527SOL    HW210602   4.627   3.321  -0.014
 3528SOL     OW10603   4.385   3.652   0.953
 3528SOL    HW110604   4.339   3.740   0.940
 3528SOL    HW210605   4.484   3.664   0.946
 3529SOL     OW10606   4.583   2.818   0.861
 3529SOL    HW110607   4.637   2.749   0.909
 3529SOL    HW210608   4.551   2.887   0.927
 3530SOL     OW10609   4.807   2.846   0.087
 3530SOL    HW110610   4.784   2.899   0.005
 3530SOL    HW210611   4.888   2.790   0.068
 3531SOL     OW10612   3.945   3.176   1.844
 3531SOL    HW110613   3.880   3.103   1.823
 3531SOL    HW210614   3.949   3.190   1.942
 3532SOL     OW10615   3.803   3.102   0.653
 3532SOL    HW110616   3.802   3.055   0.741
 3532SOL    HW210617   3.885   3.074   0.602
 3533SOL     OW10618   4.396   3.253   1.624
 3533SOL    HW110619   4.318   3.203   1.662
 3533SOL    HW210620   4.393   3.348   1.655
 3534SOL     OW10621   4.152   2.286   0.520
 3534SOL    HW110622   4.182   2.214   0.458
 3534SOL    HW210623   4.113   2.246   0.603
 3535SOL     OW10624   4.041   2.409   1.280
 3535SOL    HW110625   4.079   2.350   1.352
 3535SOL    HW210626   4.081   2.383   1.192
 3536SOL     OW10627   4.536   3.448   0.687
 3536SOL    HW110628   4.568   3.458   0.593
 3536SOL    HW210629   4.457   3.386   0.689
 3537SOL     OW10630   4.725   1.896   1.154
 3537SOL    HW110631   4.662   1.824   1.123
 3537SOL    HW210632   4.818   1.860   1.154
 3538SOL     OW10633   4.494   3.192   0.301
 3538SOL    HW110634   4.448   3.105   0.318
 3538SOL    HW210635   4.585   3.189   0.342
 3539SOL     OW10636   4.342   3.429   1.284
 3539SOL    HW110637   4.337   3.511   1.341
 3539SOL    HW210638   4.431   3.426   1.239
 3540SOL     OW10639   5.076   1.914   0.168
 3540SOL    HW110640   5.111   1.873   0.084
 3540SOL    HW210641   4.986   1.876   0.188
 3541SOL     OW10642   4.599   3.508   0.337
 3541SOL    HW110643   4.522   3.473   0.283
 3541SOL    HW210644   4.567   3.579   0.399
 3542SOL     OW10645   3.954   2.490   1.975
 3542SOL    HW110646   3.861   2.488   2.012
 3542SOL    HW210647   3.955   2.451   1.883
 3543SOL     OW10648   3.949   2.137   2.858
 3543SOL    HW110649   3.984   2.120   2.950
 3543SOL    HW210650   3.861   2.092   2.846
 3544SOL     OW10651   3.743   2.230   2.509
 3544SOL    HW110652   3.661   2.273   2.548
 3544SOL    HW210653   3.715   2.157   2.446
 3545SOL     OW10654   4.293   3.137   3.027
 3545SOL    HW110655   4.200   3.130   2.990
 3545SOL    HW210656   4.304   3.226   3.071
 3546SOL     OW10657   4.859   2.565   2.579
 3546SOL    HW110658   4.916   2.643   2.554
 3546SOL    HW210659   4.799   2.591   2.655
 3547SOL     OW10660   4.492   3.006   2.885
 3547SOL    HW110661   4.414   3.023   2.945
 3547SOL    HW210662   4.526   3.093   2.849
 3548SOL     OW10663   4.574   2.660   3.685
 3548SOL    HW110664   4.570   2.736   3.750
 3548SOL    HW210665   4.596   2.696   3.594
 3549SOL     OW10666   4.409   2.874   2.527
 3549SOL    HW110667   4.478   2.858   2.597
 3549SOL    HW210668   4.336   2.931   2.565
 3550SOL     OW10669   4.410   3.023   3.665
 3550SOL    HW110670   4.470   3.102   3.679
 3550SOL    HW210671   4.324   3.054   3.624
 3551SOL     OW10672   4.059   3.297   2.923
 3551SOL    HW110673   3.981   3.266   2.870
 3551SOL    HW210674   4.117   3.355   2.866
 3552SOL     OW10675   4.162   2.254   3.361
 3552SOL    HW110676   4.244   2.198   3.370
 3552SOL    HW210677   4.081   2.196   3.365
 3553SOL     OW10678   3.955   3.575   2.345
 3553SOL    HW110679   3.989   3.652   2.399
 3553SOL    HW210680   3.999   3.575   2.255
 3554SOL     OW10681   4.851   3.203   3.552
 3554SOL    HW110682   4.898   3.203   3.640
 3554SOL    HW210683   4.803   3.116   3.541
 3555SOL     OW10684   3.954   3.296   2.400
 3555SOL    HW110685   3.928   3.392   2.400
 3555SOL    HW210686   3.883   3.242   2.445
 3556SOL     OW10687   3.964   2.953   2.748
 3556SOL    HW110688   3.978   2.869   2.800
 3556SOL    HW210689   3.909   3.017   2.803
 3557SOL     OW10690   4.344   3.648   3.301
 3557SOL    HW110691   4.252   3.631   3.336
 3557SOL    HW210692   4.372   3.740   3.327
 3558SOL     OW10693   4.330   2.826   1.985
 3558SOL    HW110694   4.337   2.910   1.931
 3558SOL    HW210695   4.376   2.839   2.073
 3559SOL     OW10696   3.846   2.505   2.425
 3559SOL    HW110697   3.801   2.417   2.442
 3559SOL    HW210698   3.845   2.559   2.509
 3560SOL     OW10699   3.751   3.458   1.979
 3560SOL    HW110700   3.732   3.362   2.000
 3560SOL    HW210701   3.718   3.516   2.054
 3561SOL     OW10702   3.837   2.599   3.459
 3561SOL    HW110703   3.925   2.586   3.504
 3561SOL    HW210704   3.824   2.696   3.437
 3562SOL     OW10705   4.337   3.227   2.588
 3562SOL    HW110706   4.288   3.140   2.597
 3562SOL    HW210707   4.314   3.270   2.501
 3563SOL     OW10708   4.533   1.866   2.364
 3563SOL    HW110709   4.573   1.957   2.355
 3563SOL    HW210710   4.433   1.874   2.370
 3564SOL     OW10711   3.921   2.838   3.126
 3564SOL    HW110712   4.010   2.793   3.112
 3564SOL    HW210713   3.848   2.773   3.107
 3565SOL     OW10714   4.041   2.113   3.663
 3565SOL    HW110715   4.112   2.184   3.669
 3565SOL    HW210716   3.953   2.152   3.691
 3566SOL     OW10717   4.322   2.591   2.132
 3566SOL    HW110718   4.346   2.660   2.064
 3566SOL    HW210719   4.244   2.624   2.186
 3567SOL     OW10720   4.531   2.467   3.327
 3567SOL    HW110721   4.484   2.464   3.416
 3567SOL    HW210722   4.480   2.412   3.261
 3568SOL     OW10723   4.697   2.752   3.434
 3568SOL    HW110724   4.743   2.668   3.405
 3568SOL    HW210725   4.641   2.786   3.359
 3569SOL     OW10726   4.715   2.272   3.104
 3569SOL    HW110727   4.638   2.306   3.158
 3569SOL    HW210728   4.681   2.221   3.025
 3570SOL     OW10729   4.765   2.563   2.291
 3570SOL    HW110730   4.791   2.559   2.387
 3570SOL    HW210731   4.680   2.512   2.277
 3571SOL     OW10732   3.800   2.673   2.651
 3571SOL    HW110733   3.899   2.661   2.660
 3571SOL    HW210734   3.776   2.768   2.672
 3572SOL     OW10735   3.854   3.683   3.433
 3572SOL    HW110736   3.844   3.668   3.532
 3572SOL    HW210737   3.768   3.719   3.397
 3573SOL     OW10738   4.589   2.210   2.057
 3573SOL    HW110739   4.648   2.273   2.008
 3573SOL    HW210740   4.608   2.116   2.028
 3574SOL     OW10741   4.274   2.058   2.747
 3574SOL    HW110742   4.269   2.053   2.847
 3574SOL    HW210743   4.276   2.154   2.718
 3575SOL     OW10744   4.732   3.318   2.339
 3575SOL    HW110745   4.686   3.390   2.287
 3575SOL    HW210746   4.728   3.338   2.437
 3576SOL     OW10747   4.075   3.663   2.715
 3576SOL    HW110748   4.125   3.577   2.721
 3576SOL    HW210749   4.140   3.740   2.712
 3577SOL     OW10750   4.951   3.412   3.368
 3577SOL    HW110751   4.957   3.335   3.432
 3577SOL    HW210752   4.899   3.386   3.288
 3578SOL     OW10753   4.045   2.805   2.104
 3578SOL    HW110754   4.127   2.844   2.062
 3578SOL    HW210755   4.018   2.723   2.055
 3579SOL     OW10756   4.185   3.128   3.589
 3579SOL    HW110757   4.135   3.129   3.503
 3579SOL    HW210758   4.122   3.110   3.665
 3580SOL     OW10759   4.835   3.638   2.099
 3580SOL    HW110760   4.775   3.576   2.149
 3580SOL    HW210761   4.866   3.594   2.014
 3581SOL     OW10762   3.926   2.147   3.360
 3581SOL    HW110763   3.846   2.207   3.347
 3581SOL    HW210764   3.916   2.098   3.446
 3582SOL     OW10765   4.188   3.605   2.185
 3582SOL    HW110766   4.221   3.644   2.271
 3582SOL    HW210767   4.264   3.598   2.120
 3583SOL     OW10768   3.973   3.647   3.103
 3583SOL    HW110769   4.030   3.582   3.153
 3583SOL    HW210770   3.957   3.614   3.010
 3584SOL     OW10771   4.664   3.560   2.766
 3584SOL    HW110772   4.744   3.503   2.787
 3584SOL    HW210773   4.615   3.520   2.689
 3585SOL     OW10774   4.106   2.562   2.342
 3585SOL    HW110775   4.151   2.472   2.339
 3585SOL    HW210776   4.012   2.551   2.375
 3586SOL     OW10777   4.338   1.984   1.979
 3586SOL    HW110778   4.436   1.962   1.986
 3586SOL    HW210779   4.307   1.967   1.886
 3587SOL     OW10780   4.505   2.126   3.611
 3587SOL    HW110781   4.572   2.065   3.654
 3587SOL    HW210782   4.432   2.145   3.676
 3588SOL     OW10783   4.612   3.376   3.057
 3588SOL    HW110784   4.589   3.351   2.963
 3588SOL    HW210785   4.673   3.307   3.096
 3589SOL     OW10786   4.527   3.264   2.786
 3589SOL    HW110787   4.617   3.278   2.744
 3589SOL    HW210788   4.456   3.266   2.715
 3590SOL     OW10789   4.646   2.365   2.761
 3590SOL    HW110790   4.621   2.356   2.665
 3590SOL    HW210791   4.694   2.283   2.792
 3591SOL     OW10792   4.263   1.926   2.374
 3591SOL    HW110793   4.182   1.927   2.432
 3591SOL    HW210794   4.266   2.009   2.319
 3592SOL     OW10795   4.021   1.897   2.033
 3592SOL    HW110796   4.070   1.981   2.012
 3592SOL    HW210797   4.083   1.832   2.078
 3593SOL     OW10798   4.659   2.098   2.342
 3593SOL    HW110799   4.611   2.139   2.264
 3593SOL    HW210800   4.758   2.096   2.323
 3594SOL     OW10801   4.800   2.545   3.326
 3594SOL    HW110802   4.720   2.484   3.329
 3594SOL    HW210803   4.881   2.492   3.302
 3595SOL     OW10804   4.951   3.432   2.655
 3595SOL    HW110805   4.972   3.506   2.590
 3595SOL    HW210806   5.019   3.432   2.728
 3596SOL     OW10807   4.183   3.014   2.603
 3596SOL    HW110808   4.112   2.987   2.668
 3596SOL    HW210809   4.157   2.986   2.510
 3597SOL     OW10810   4.995   3.659   2.453
 3597SOL    HW110811   5.039   3.723   2.389
 3597SOL    HW210812   4.945   3.711   2.523
 3598SOL     OW10813   4.756   2.411   1.878
 3598SOL    HW110814   4.715   2.493   1.839
 3598SOL    HW210815   4.820   2.437   1.951
 3599SOL     OW10816   3.802   2.418   3.248
 3599SOL    HW110817   3.894   2.417   3.207
 3599SOL    HW210818   3.796   2.492   3.315
 3600SOL     OW10819   4.285   2.084   3.009
 3600SOL    HW110820   4.323   2.000   3.046
 3600SOL    HW210821   4.197   2.103   3.053
 3601SOL     OW10822   4.590   2.316   2.504
 3601SOL    HW110823   4.558   2.388   2.442
 3601SOL    HW210824   4.614   2.235   2.451
 3602SOL     OW10825   4.741   1.901   2.615
 3602SOL    HW110826   4.669   1.906   2.546
 3602SOL    HW210827   4.717   1.832   2.684
 3603SOL     OW10828   4.212   3.247   2.036
 3603SOL    HW110829   4.125   3.232   2.083
 3603SOL    HW210830   4.195   3.273   1.941
 3604SOL     OW10831   4.251   2.118   2.190
 3604SOL    HW110832   4.278   2.059   2.115
 3604SOL    HW210833   4.251   2.213   2.159
 3605SOL     OW10834   4.788   3.209   3.202
 3605SOL    HW110835   4.708   3.186   3.257
 3605SOL    HW210836   4.871   3.183   3.251
 3606SOL     OW10837   4.835   3.057   2.962
 3606SOL    HW110838   4.795   3.101   3.043
 3606SOL    HW210839   4.794   3.094   2.879
 3607SOL     OW10840   4.639   1.951   3.264
 3607SOL    HW110841   4.664   1.931   3.169
 3607SOL    HW210842   4.711   2.007   3.306
 3608SOL     OW10843   4.704   2.978   3.581
 3608SOL    HW110844   4.605   2.984   3.591
 3608SOL    HW210845   4.727   2.898   3.525
 3609SOL     OW10846   4.429   2.912   2.230
 3609SOL    HW110847   4.415   2.919   2.329
 3609SOL    HW210848   4.513   2.861   2.212
 3610SOL     OW10849   4.134   2.675   3.113
 3610SOL    HW110850   4.220   2.687   3.163
 3610SOL    HW210851   4.092   2.588   3.140
 3611SOL     OW10852   3.788   3.426   3.193
 3611SOL    HW110853   3.742   3.508   3.159
 3611SOL    HW210854   3.886   3.445   3.202
 3612SOL     OW10855   4.091   2.962   2.363
 3612SOL    HW110856   4.084   3.045   2.307
 3612SOL    HW210857   4.095   2.882   2.303
 3613SOL     OW10858   4.290   2.399   2.727
 3613SOL    HW110859   4.302   2.465   2.653
 3613SOL    HW210860   4.336   2.433   2.810
 3614SOL     OW10861   4.976   3.210   2.250
 3614SOL    HW110862   5.026   3.287   2.290
 3614SOL    HW210863   4.881   3.212   2.282
 3615SOL     OW10864   4.078   3.372   3.191
 3615SOL    HW110865   4.057   3.328   3.104
 3615SOL    HW210866   4.175   3.398   3.194
 3616SOL     OW10867   4.126   2.613   3.460
 3616SOL    HW110868   4.194   2.668   3.413
 3616SOL    HW210869   4.166   2.525   3.487
 3617SOL     OW10870   4.737   1.967   3.632
 3617SOL    HW110871   4.743   2.052   3.580
 3617SOL    HW210872   4.769   1.891   3.575
 3618SOL     OW10873   4.228   1.912   3.602
 3618SOL    HW110874   4.186   1.855   3.532
 3618SOL    HW210875   4.162   1.981   3.634
 3619SOL     OW10876   4.297   2.732   2.891
 3619SOL    HW110877   4.341   2.821   2.882
 3619SOL    HW210878   4.234   2.732   2.968
 3620SOL     OW10879   5.084   2.724   2.907
 3620SOL    HW110880   5.009   2.724   2.841
 3620SOL    HW210881   5.121   2.632   2.916
 3621SOL     OW10882   4.933   2.387   2.137
 3621SOL    HW110883   4.946   2.303   2.191
 3621SOL    HW210884   4.904   2.461   2.197
 3622SOL     OW10885   4.031   2.075   3.093
 3622SOL    HW110886   4.008   2.112   3.183
 3622SOL    HW210887   4.001   1.980   3.087
 3623SOL     OW10888   3.761   3.172   3.144
 3623SOL    HW110889   3.814   3.123   3.212
 3623SOL    HW210890   3.783   3.270   3.149
 3624SOL     OW10891   4.456   2.496   2.926
 3624SOL    HW110892   4.515   2.470   2.850
 3624SOL    HW210893   4.428   2.592   2.915
 3625SOL     OW10894   4.031   1.925   2.480
 3625SOL    HW110895   4.020   2.019   2.513
 3625SOL    HW210896   4.026   1.862   2.557
 3626SOL     OW10897   4.747   2.628   2.828
 3626SOL    HW110898   4.762   2.649   2.924
 3626SOL    HW210899   4.717   2.533   2.819
 3627SOL     OW10900   4.704   3.435   3.562
 3627SOL    HW110901   4.684   3.479   3.474
 3627SOL    HW210902   4.743   3.344   3.546
 3628SOL     OW10903   4.074   2.760   3.666
 3628SOL    HW110904   4.150   2.804   3.714
 3628SOL    HW210905   4.109   2.713   3.584
 3629SOL     OW10906   5.264   2.136   1.987
 3629SOL    HW110907   5.203   2.061   2.010
 3629SOL    HW210908   5.286   2.188   2.070
 3630SOL     OW10909   4.792   3.195   2.711
 3630SOL    HW110910   4.799   3.111   2.656
 3630SOL    HW210911   4.854   3.264   2.675
 3631SOL     OW10912   4.043   2.672   2.811
 3631SOL    HW110913   4.136   2.708   2.816
 3631SOL    HW210914   4.037   2.587   2.863
 3632SOL     OW10915   4.063   2.371   2.868
 3632SOL    HW110916   4.011   2.288   2.851
 3632SOL    HW210917   4.140   2.376   2.804
 3633SOL     OW10918   4.862   2.242   3.540
 3633SOL    HW110919   4.817   2.305   3.604
 3633SOL    HW210920   4.955   2.273   3.523
 3634SOL     OW10921   4.884   2.069   3.339
 3634SOL    HW110922   4.884   2.133   3.416
 3634SOL    HW210923   4.912   2.117   3.256
 3635SOL     OW10924   3.732   3.188   2.062
 3635SOL    HW110925   3.639   3.209   2.031
 3635SOL    HW210926   3.742   3.089   2.075
 3636SOL     OW10927   3.812   3.663   2.789
 3636SOL    HW110928   3.770   3.577   2.762
 3636SOL    HW210929   3.906   3.666   2.755
 3637SOL     OW10930   4.228   3.430   2.772
 3637SOL    HW110931   4.294   3.504   2.781
 3637SOL    HW210932   4.272   3.351   2.730
 3638SOL     OW10933   4.726   2.658   3.100
 3638SOL    HW110934   4.767   2.626   3.186
 3638SOL    HW210935   4.630   2.631   3.097
 3639SOL     OW10936   3.764   2.406   2.976
 3639SOL    HW110937   3.849   2.373   2.935
 3639SOL    HW210938   3.777   2.421   3.074
 3640SOL     OW10939   3.913   2.382   3.584
 3640SOL    HW110940   3.972   2.342   3.514
 3640SOL    HW210941   3.855   2.453   3.543
 3641SOL     OW10942   4.539   2.434   2.187
 3641SOL    HW110943   4.546   2.345   2.141
 3641SOL    HW210944   4.445   2.468   2.179
 3642SOL     OW10945   3.976   3.426   3.606
 3642SOL    HW110946   3.946   3.483   3.682
 3642SOL    HW210947   3.969   3.329   3.632
 3643SOL     OW10948   4.395   2.326   3.131
 3643SOL    HW110949   4.361   2.237   3.101
 3643SOL    HW210950   4.421   2.380   3.051
 3644SOL     OW10951   4.654   3.540   3.327
 3644SOL    HW110952   4.630   3.522   3.232
 3644SOL    HW210953   4.684   3.634   3.337
 3645SOL     OW10954   4.197   2.362   2.053
 3645SOL    HW110955   4.258   2.442   2.057
 3645SOL    HW210956   4.102   2.393   2.060
 3646SOL     OW10957   3.883   2.999   3.328
 3646SOL    HW110958   3.905   2.938   3.404
 3646SOL    HW210959   3.893   2.950   3.242
 3647SOL     OW10960   4.976   3.593   2.990
 3647SOL    HW110961   5.060   3.598   2.936
 3647SOL    HW210962   4.953   3.497   3.008
 3648SOL     OW10963   3.807   3.120   2.884
 3648SOL    HW110964   3.802   3.119   2.984
 3648SOL    HW210965   3.724   3.079   2.846
 3649SOL     OW10966   4.412   3.524   3.578
 3649SOL    HW110967   4.356   3.605   3.587
 3649SOL    HW210968   4.464   3.528   3.492
 3650SOL     OW10969   3.854   3.656   3.713
 3650SOL    HW110970   3.813   3.582   3.766
 3650SOL    HW210971   3.918   3.707   3.771
 3651SOL     OW10972   4.554   3.135   3.284
 3651SOL    HW110973   4.549   3.168   3.379
 3651SOL    HW210974   4.468   3.154   3.238
 3652SOL     OW10975   4.396   3.478   2.016
 3652SOL    HW110976   4.405   3.488   1.917
 3652SOL    HW210977   4.356   3.389   2.037
 3653SOL     OW10978   3.987   2.188   2.582
 3653SOL    HW110979   3.908   2.239   2.548
 3653SOL    HW210980   3.978   2.173   2.680
 3654SOL     OW10981   4.546   2.864   3.234
 3654SOL    HW110982   4.586   2.863   3.142
 3654SOL    HW210983   4.556   2.956   3.274
 3655SOL     OW10984   4.640   2.772   2.153
 3655SOL    HW110985   4.703   2.810   2.085
 3655SOL    HW210986   4.680   2.689   2.192
 3656SOL     OW10987   4.096   3.150   3.352
 3656SOL    HW110988   4.083   3.243   3.318
 3656SOL    HW210989   4.012   3.098   3.339
 3657SOL     OW10990   4.763   2.960   2.558
 3657SOL    HW110991   4.693   2.913   2.612
 3657SOL    HW210992   4.822   2.892   2.515
 3658SOL     OW10993   4.738   2.098   2.833
 3658SOL    HW110994   4.730   2.062   2.740
 3658SOL    HW210995   4.736   2.022   2.898
 3659SOL     OW10996   4.314   3.349   2.353
 3659SOL    HW110997   4.356   3.291   2.283
 3659SOL    HW210998   4.270   3.428   2.309
 3660SOL     OW10999   3.979   3.210   2.152
 3660SOL    HW111000   3.883   3.211   2.125
 3660SOL    HW211001   3.991   3.263   2.236
 3661SOL     OW11002   3.829   2.875   3.588
 3661SOL    HW111003   3.752   2.842   3.642
 3661SOL    HW211004   3.914   2.845   3.630
 3662SOL     OW11005   4.396   2.065   3.351
 3662SOL    HW111006   4.486   2.049   3.311
 3662SOL    HW211007   4.404   2.070   3.450
 3663SOL     OW11008   3.799   2.207   1.895
 3663SOL    HW111009   3.707   2.179   1.866
 3663SOL    HW211010   3.830   2.284   1.839
 3664SOL     OW11011   3.796   2.028   2.180
 3664SOL    HW111012   3.779   2.111   2.126
 3664SOL    HW211013   3.886   1.991   2.158
 3665SOL     OW11014   4.337   2.704   3.293
 3665SOL    HW111015   4.393   2.785   3.276
 3665SOL    HW211016   4.396   2.624   3.296
 3666SOL     OW11017   4.440   2.427   3.570
 3666SOL    HW111018   4.459   2.492   3.644
 3666SOL    HW211019   4.500   2.347   3.579
 3667SOL     OW11020   4.114   3.603   3.422
 3667SOL    HW111021   4.023   3.644   3.420
 3667SOL    HW211022   4.107   3.509   3.454
 3668SOL     OW11023   4.318   2.607   2.514
 3668SOL    HW111024   4.368   2.692   2.495
 3668SOL    HW211025   4.230   2.609   2.466
 3669SOL     OW11026   4.583   3.236   1.878
 3669SOL    HW111027   4.537   3.251   1.966
 3669SOL    HW211028   4.627   3.321   1.848
 3670SOL     OW11029   4.385   3.652   2.815
 3670SOL    HW111030   4.339   3.740   2.802
 3670SOL    HW211031   4.484   3.664   2.808
 3671SOL     OW11032   4.583   2.818   2.723
 3671SOL    HW111033   4.637   2.749   2.771
 3671SOL    HW211034   4.551   2.887   2.789
 3672SOL     OW11035   4.807   2.846   1.949
 3672SOL    HW111036   4.784   2.899   1.867
 3672SOL    HW211037   4.888   2.790   1.930
 3673SOL     OW11038   3.945   3.176   3.706
 3673SOL    HW111039   3.880   3.103   3.685
 3673SOL    HW211040   3.949   3.190   3.804
 3674SOL     OW11041   3.803   3.102   2.515
 3674SOL    HW111042   3.802   3.055   2.603
 3674SOL    HW211043   3.885   3.074   2.464
 3675SOL     OW11044   4.396   3.253   3.486
 3675SOL    HW111045   4.318   3.203   3.524
 3675SOL    HW211046   4.393   3.348   3.517
 3676SOL     OW11047   4.152   2.286   2.382
 3676SOL    HW111048   4.182   2.214   2.320
 3676SOL    HW211049   4.113   2.246   2.465
 3677SOL     OW11050   4.041   2.409   3.142
 3677SOL    HW111051   4.079   2.350   3.214
 3677SOL    HW211052   4.081   2.383   3.054
 3678SOL     OW11053   4.536   3.448   2.549
 3678SOL    HW111054   4.568   3.458   2.455
 3678SOL    HW211055   4.457   3.386   2.551
 3679SOL     OW11056   4.725   1.896   3.016
 3679SOL    HW111057   4.662   1.824   2.985
 3679SOL    HW211058   4.818   1.860   3.016
 3680SOL     OW11059   4.494   3.192   2.163
 3680SOL    HW111060   4.448   3.105   2.180
 3680SOL    HW211061   4.585   3.189   2.204
 3681SOL     OW11062   4.342   3.429   3.146
 3681SOL    HW111063   4.337   3.511   3.203
 3681SOL    HW211064   4.431   3.426   3.101
 3682SOL     OW11065   3.763   2.939   2.162
 3682SOL    HW111066   3.862   2.928   2.153
 3682SOL    HW211067   3.723   2.853   2.194
 3683SOL     OW11068   4.599   3.508   2.199
 3683SOL    HW111069   4.522   3.473   2.145
 3683SOL    HW211070   4.567   3.579   2.261
 3684SOL     OW11071   3.954   2.490   3.837
 3684SOL    HW111072   3.861   2.488   3.874
 3684SOL    HW211073   3.955   2.451   3.745
 3685SOL     OW11074   3.949   2.137   4.720
 3685SOL    HW111075   3.984   2.120   4.812
 3685SOL    HW211076   3.861   2.092   4.708
 3686SOL     OW11077   3.743   2.230   4.371
 3686SOL    HW111078   3.661   2.273   4.410
 3686SOL    HW211079   3.715   2.157   4.308
 3687SOL     OW11080   4.293   3.137   4.889
 3687SOL    HW111081   4.200   3.130   4.852
 3687SOL    HW211082   4.304   3.226   4.933
 3688SOL     OW11083   4.859   2.565   4.441
 3688SOL    HW111084   4.916   2.643   4.416
 3688SOL    HW211085   4.799   2.591   4.517
 3689SOL     OW11086   4.492   3.006   4.747
 3689SOL    HW111087   4.414   3.023   4.807
 3689SOL    HW211088   4.526   3.093   4.711
 3690SOL     OW11089   4.409   2.874   4.389
 3690SOL    HW111090   4.478   2.858   4.459
 3690SOL    HW211091   4.336   2.931   4.427
 3691SOL     OW11092   4.059   3.297   4.785
 3691SOL    HW111093   3.981   3.266   4.732
 3691SOL    HW211094   4.117   3.355   4.728
 3692SOL     OW11095   5.184   3.367   5.063
 3692SOL    HW111096   5.208   3.461   5.089
 3692SOL    HW211097   5.168   3.313   5.145
 3693SOL     OW11098   3.955   3.575   4.207
 3693SOL    HW111099   3.989   3.652   4.261
 3693SOL    HW211100   3.999   3.575   4.117
 3694SOL     OW11101   3.954   3.296   4.262
 3694SOL    HW111102   3.928   3.392   4.262
 3694SOL    HW211103   3.883   3.242   4.307
 3695SOL     OW11104   3.964   2.953   4.610
 3695SOL    HW111105   3.978   2.869   4.662
 3695SOL    HW211106   3.909   3.017   4.665
 3696SOL     OW11107   4.330   2.826   3.847
 3696SOL    HW111108   4.337   2.910   3.793
 3696SOL    HW211109   4.376   2.839   3.935
 3697SOL     OW11110   3.846   2.505   4.287
 3697SOL    HW111111   3.801   2.417   4.304
 3697SOL    HW211112   3.845   2.559   4.371
 3698SOL     OW11113   3.751   3.458   3.841
 3698SOL    HW111114   3.732   3.362   3.862
 3698SOL    HW211115   3.718   3.516   3.916
 3699SOL     OW11116   4.337   3.227   4.450
 3699SOL    HW111117   4.288   3.140   4.459
 3699SOL    HW211118   4.314   3.270   4.363
 3700SOL     OW11119   4.533   1.866   4.226
 3700SOL    HW111120   4.573   1.957   4.217
 3700SOL    HW211121   4.433   1.874   4.232
 3701SOL     OW11122   3.921   2.838   4.988
 3701SOL    HW111123   4.010   2.793   4.974
 3701SOL    HW211124   3.848   2.773   4.969
 3702SOL     OW11125   4.322   2.591   3.994
 3702SOL    HW111126   4.346   2.660   3.926
 3702SOL    HW211127   4.244   2.624   4.048
 3703SOL     OW11128   4.765   2.563   4.153
 3703SOL    HW111129   4.791   2.559   4.249
 3703SOL    HW211130   4.680   2.512   4.139
 3704SOL     OW11131   3.800   2.673   4.513
 3704SOL    HW111132   3.899   2.661   4.522
 3704SOL    HW211133   3.776   2.768   4.534
 3705SOL     OW11134   4.589   2.210   3.919
 3705SOL    HW111135   4.648   2.273   3.870
 3705SOL    HW211136   4.608   2.116   3.890
 3706SOL     OW11137   4.274   2.058   4.609
 3706SOL    HW111138   4.269   2.053   4.709
 3706SOL    HW211139   4.276   2.154   4.580
 3707SOL     OW11140   4.732   3.318   4.201
 3707SOL    HW111141   4.686   3.390   4.149
 3707SOL    HW211142   4.728   3.338   4.299
 3708SOL     OW11143   4.075   3.663   4.577
 3708SOL    HW111144   4.125   3.577   4.583
 3708SOL    HW211145   4.140   3.740   4.574
 3709SOL     OW11146   4.045   2.805   3.966
 3709SOL    HW111147   4.127   2.844   3.924
 3709SOL    HW211148   4.018   2.723   3.917
 3710SOL     OW11149   4.835   3.638   3.961
 3710SOL    HW111150   4.775   3.576   4.011
 3710SOL    HW211151   4.866   3.594   3.876
 3711SOL     OW11152   4.188   3.605   4.047
 3711SOL    HW111153   4.221   3.644   4.133
 3711SOL    HW211154   4.264   3.598   3.982
 3712SOL     OW11155   3.973   3.647   4.965
 3712SOL    HW111156   4.030   3.582   5.015
 3712SOL    HW211157   3.957   3.614   4.872
 3713SOL     OW11158   4.664   3.560   4.628
 3713SOL    HW111159   4.744   3.503   4.649
 3713SOL    HW211160   4.615   3.520   4.551
 3714SOL     OW11161   4.106   2.562   4.204
 3714SOL    HW111162   4.151   2.472   4.201
 3714SOL    HW211163   4.012   2.551   4.237
 3715SOL     OW11164   4.338   1.984   3.841
 3715SOL    HW111165   4.436   1.962   3.848
 3715SOL    HW211166   4.307   1.967   3.748
 3716SOL     OW11167   4.527   3.264   4.648
 3716SOL    HW111168   4.617   3.278   4.606
 3716SOL    HW211169   4.456   3.266   4.577
 3717SOL     OW11170   4.646   2.365   4.623
 3717SOL    HW111171   4.621   2.356   4.527
 3717SOL    HW211172   4.694   2.283   4.654
 3718SOL     OW11173   4.263   1.926   4.236
 3718SOL    HW111174   4.182   1.927   4.294
 3718SOL    HW211175   4.266   2.009   4.181
 3719SOL     OW11176   4.021   1.897   3.895
 3719SOL    HW111177   4.070   1.981   3.874
 3719SOL    HW211178   4.083   1.832   3.940
 3720SOL     OW11179   4.659   2.098   4.204
 3720SOL    HW111180   4.611   2.139   4.126
 3720SOL    HW211181   4.758   2.096   4.185
 3721SOL     OW11182   4.951   3.432   4.517
 3721SOL    HW111183   4.972   3.506   4.452
 3721SOL    HW211184   5.019   3.432   4.590
 3722SOL     OW11185   4.183   3.014   4.465
 3722SOL    HW111186   4.112   2.987   4.530
 3722SOL    HW211187   4.157   2.986   4.372
 3723SOL     OW11188   4.995   3.659   4.315
 3723SOL    HW111189   5.039   3.723   4.251
 3723SOL    HW211190   4.945   3.711   4.385
 3724SOL     OW11191   4.756   2.411   3.740
 3724SOL    HW111192   4.715   2.493   3.701
 3724SOL    HW211193   4.820   2.437   3.813
 3725SOL     OW11194   4.590   2.316   4.366
 3725SOL    HW111195   4.558   2.388   4.304
 3725SOL    HW211196   4.614   2.235   4.313
 3726SOL     OW11197   4.741   1.901   4.477
 3726SOL    HW111198   4.669   1.906   4.408
 3726SOL    HW211199   4.717   1.832   4.546
 3727SOL     OW11200   4.212   3.247   3.898
 3727SOL    HW111201   4.125   3.232   3.945
 3727SOL    HW211202   4.195   3.273   3.803
 3728SOL     OW11203   4.251   2.118   4.052
 3728SOL    HW111204   4.278   2.059   3.977
 3728SOL    HW211205   4.251   2.213   4.021
 3729SOL     OW11206   4.835   3.057   4.824
 3729SOL    HW111207   4.795   3.101   4.905
 3729SOL    HW211208   4.794   3.094   4.741
 3730SOL     OW11209   4.429   2.912   4.092
 3730SOL    HW111210   4.415   2.919   4.191
 3730SOL    HW211211   4.513   2.861   4.074
 3731SOL     OW11212   4.134   2.675   4.975
 3731SOL    HW111213   4.220   2.687   5.025
 3731SOL    HW211214   4.092   2.588   5.002
 3732SOL     OW11215   4.091   2.962   4.225
 3732SOL    HW111216   4.084   3.045   4.169
 3732SOL    HW211217   4.095   2.882   4.165
 3733SOL     OW11218   4.290   2.399   4.589
 3733SOL    HW111219   4.302   2.465   4.515
 3733SOL    HW211220   4.336   2.433   4.672
 3734SOL     OW11221   4.976   3.210   4.112
 3734SOL    HW111222   5.026   3.287   4.152
 3734SOL    HW211223   4.881   3.212   4.144
 3735SOL     OW11224   4.996   3.307   4.866
 3735SOL    HW111225   5.043   3.320   4.953
 3735SOL    HW211226   4.930   3.233   4.875
 3736SOL     OW11227   4.297   2.732   4.753
 3736SOL    HW111228   4.341   2.821   4.744
 3736SOL    HW211229   4.234   2.732   4.830
 3737SOL     OW11230   5.084   2.724   4.769
 3737SOL    HW111231   5.009   2.724   4.703
 3737SOL    HW211232   5.121   2.632   4.778
 3738SOL     OW11233   4.933   2.387   3.999
 3738SOL    HW111234   4.946   2.303   4.053
 3738SOL    HW211235   4.904   2.461   4.059
 3739SOL     OW11236   4.031   2.075   4.955
 3739SOL    HW111237   4.008   2.112   5.045
 3739SOL    HW211238   4.001   1.980   4.949
 3740SOL     OW11239   4.456   2.496   4.788
 3740SOL    HW111240   4.515   2.470   4.712
 3740SOL    HW211241   4.428   2.592   4.777
 3741SOL     OW11242   4.031   1.925   4.342
 3741SOL    HW111243   4.020   2.019   4.375
 3741SOL    HW211244   4.026   1.862   4.419
 3742SOL     OW11245   4.747   2.628   4.690
 3742SOL    HW111246   4.762   2.649   4.786
 3742SOL    HW211247   4.717   2.533   4.681
 3743SOL     OW11248   5.264   2.136   3.849
 3743SOL    HW111249   5.203   2.061   3.872
 3743SOL    HW211250   5.286   2.188   3.932
 3744SOL     OW11251   4.792   3.195   4.573
 3744SOL    HW111252   4.799   3.111   4.518
 3744SOL    HW211253   4.854   3.264   4.537
 3745SOL     OW11254   4.043   2.672   4.673
 3745SOL    HW111255   4.136   2.708   4.678
 3745SOL    HW211256   4.037   2.587   4.725
 3746SOL     OW11257   4.063   2.371   4.730
 3746SOL    HW111258   4.011   2.288   4.713
 3746SOL    HW211259   4.140   2.376   4.666
 3747SOL     OW11260   4.884   2.069   5.201
 3747SOL    HW111261   4.884   2.133   5.278
 3747SOL    HW211262   4.912   2.117   5.118
 3748SOL     OW11263   3.732   3.188   3.924
 3748SOL    HW111264   3.639   3.209   3.893
 3748SOL    HW211265   3.742   3.089   3.937
 3749SOL     OW11266   3.812   3.663   4.651
 3749SOL    HW111267   3.770   3.577   4.624
 3749SOL    HW211268   3.906   3.666   4.617
 3750SOL     OW11269   4.228   3.430   4.634
 3750SOL    HW111270   4.294   3.504   4.643
 3750SOL    HW211271   4.272   3.351   4.592
 3751SOL     OW11272   4.726   2.658   4.962
 3751SOL    HW111273   4.767   2.626   5.048
 3751SOL    HW211274   4.630   2.631   4.959
 3752SOL     OW11275   3.764   2.406   4.838
 3752SOL    HW111276   3.849   2.373   4.797
 3752SOL    HW211277   3.777   2.421   4.936
 3753SOL     OW11278   4.539   2.434   4.049
 3753SOL    HW111279   4.546   2.345   4.003
 3753SOL    HW211280   4.445   2.468   4.041
 3754SOL     OW11281   4.395   2.326   4.993
 3754SOL    HW111282   4.361   2.237   4.963
 3754SOL    HW211283   4.421   2.380   4.913
 3755SOL     OW11284   4.197   2.362   3.915
 3755SOL    HW111285   4.258   2.442   3.919
 3755SOL    HW211286   4.102   2.393   3.922
 3756SOL     OW11287   3.883   2.999   5.190
 3756SOL    HW111288   3.905   2.938   5.266
 3756SOL    HW211289   3.893   2.950   5.104
 3757SOL     OW11290   4.976   3.593   4.852
 3757SOL    HW111291   5.060   3.598   4.798
 3757SOL    HW211292   4.953   3.497   4.870
 3758SOL     OW11293   3.807   3.120   4.746
 3758SOL    HW111294   3.802   3.119   4.846
 3758SOL    HW211295   3.724   3.079   4.708
 3759SOL     OW11296   4.396   3.478   3.878
 3759SOL    HW111297   4.405   3.488   3.779
 3759SOL    HW211298   4.356   3.389   3.899
 3760SOL     OW11299   3.987   2.188   4.444
 3760SOL    HW111300   3.908   2.239   4.410
 3760SOL    HW211301   3.978   2.173   4.542
 3761SOL     OW11302   4.546   2.864   5.096
 3761SOL    HW111303   4.586   2.863   5.004
 3761SOL    HW211304   4.556   2.956   5.136
 3762SOL     OW11305   4.640   2.772   4.015
 3762SOL    HW111306   4.703   2.810   3.947
 3762SOL    HW211307   4.680   2.689   4.054
 3763SOL     OW11308   4.763   2.960   4.420
 3763SOL    HW111309   4.693   2.913   4.474
 3763SOL    HW211310   4.822   2.892   4.377
 3764SOL     OW11311   4.738   2.098   4.695
 3764SOL    HW111312   4.730   2.062   4.602
 3764SOL    HW211313   4.736   2.022   4.760
 3765SOL     OW11314   4.314   3.349   4.215
 3765SOL    HW111315   4.356   3.291   4.145
 3765SOL    HW211316   4.270   3.428   4.171
 3766SOL     OW11317   3.979   3.210   4.014
 3766SOL    HW111318   3.883   3.211   3.987
 3766SOL    HW211319   3.991   3.263   4.098
 3767SOL     OW11320   3.799   2.207   3.757
 3767SOL    HW111321   3.707   2.179   3.728
 3767SOL    HW211322   3.830   2.284   3.701
 3768SOL     OW11323   3.796   2.028   4.042
 3768SOL    HW111324   3.779   2.111   3.988
 3768SOL    HW211325   3.886   1.991   4.020
 3769SOL     OW11326   4.318   2.607   4.376
 3769SOL    HW111327   4.368   2.692   4.357
 3769SOL    HW211328   4.230   2.609   4.328
 3770SOL     OW11329   4.583   3.236   3.740
 3770SOL    HW111330   4.537   3.251   3.828
 3770SOL    HW211331   4.627   3.321   3.710
 3771SOL     OW11332   4.385   3.652   4.677
 3771SOL    HW111333   4.339   3.740   4.664
 3771SOL    HW211334   4.484   3.664   4.670
 3772SOL     OW11335   4.583   2.818   4.585
 3772SOL    HW111336   4.637   2.749   4.633
 3772SOL    HW211337   4.551   2.887   4.651
 3773SOL     OW11338   4.807   2.846   3.811
 3773SOL    HW111339   4.784   2.899   3.729
 3773SOL    HW211340   4.888   2.790   3.792
 3774SOL     OW11341   3.803   3.102   4.377
 3774SOL    HW111342   3.802   3.055   4.465
 3774SOL    HW211343   3.885   3.074   4.326
 3775SOL     OW11344   4.152   2.286   4.244
 3775SOL    HW111345   4.182   2.214   4.182
 3775SOL    HW211346   4.113   2.246   4.327
 3776SOL     OW11347   4.536   3.448   4.411
 3776SOL    HW111348   4.568   3.458   4.317
 3776SOL    HW211349   4.457   3.386   4.413
 3777SOL     OW11350   4.725   1.896   4.878
 3777SOL    HW111351   4.662   1.824   4.847
 3777SOL    HW211352   4.818   1.860   4.878
 3778SOL     OW11353   4.494   3.192   4.025
 3778SOL    HW111354   4.448   3.105   4.042
 3778SOL    HW211355   4.585   3.189   4.066
 3779SOL     OW11356   3.763   2.939   4.024
 3779SOL    HW111357   3.862   2.928   4.015
 3779SOL    HW211358   3.723   2.853   4.056
 3780SOL     OW11359   4.599   3.508   4.061
 3780SOL    HW111360   4.522   3.473   4.007
 3780SOL    HW211361   4.567   3.579   4.123
 3781SOL     OW11362   3.954   4.352   0.113
 3781SOL    HW111363   3.861   4.350   0.150
 3781SOL    HW211364   3.955   4.313   0.021
 3782SOL     OW11365   3.949   3.999   0.996
 3782SOL    HW111366   3.984   3.982   1.088
 3782SOL    HW211367   3.861   3.954   0.984
 3783SOL     OW11368   3.743   4.092   0.647
 3783SOL    HW111369   3.661   4.135   0.686
 3783SOL    HW211370   3.715   4.019   0.584
 3784SOL     OW11371   4.859   4.427   0.717
 3784SOL    HW111372   4.916   4.505   0.692
 3784SOL    HW211373   4.799   4.453   0.793
 3785SOL     OW11374   4.492   4.868   1.023
 3785SOL    HW111375   4.414   4.885   1.083
 3785SOL    HW211376   4.526   4.955   0.987
 3786SOL     OW11377   4.574   4.522   1.823
 3786SOL    HW111378   4.570   4.598   1.888
 3786SOL    HW211379   4.596   4.558   1.732
 3787SOL     OW11380   4.409   4.736   0.665
 3787SOL    HW111381   4.478   4.720   0.735
 3787SOL    HW211382   4.336   4.793   0.703
 3788SOL     OW11383   4.162   4.116   1.499
 3788SOL    HW111384   4.244   4.060   1.508
 3788SOL    HW211385   4.081   4.058   1.503
 3789SOL     OW11386   3.964   4.815   0.886
 3789SOL    HW111387   3.978   4.731   0.938
 3789SOL    HW211388   3.909   4.879   0.941
 3790SOL     OW11389   4.330   4.688   0.123
 3790SOL    HW111390   4.337   4.772   0.069
 3790SOL    HW211391   4.376   4.701   0.211
 3791SOL     OW11392   3.846   4.367   0.563
 3791SOL    HW111393   3.801   4.279   0.580
 3791SOL    HW211394   3.845   4.421   0.647
 3792SOL     OW11395   3.837   4.461   1.597
 3792SOL    HW111396   3.925   4.448   1.642
 3792SOL    HW211397   3.824   4.558   1.575
 3793SOL     OW11398   4.337   5.089   0.726
 3793SOL    HW111399   4.288   5.002   0.735
 3793SOL    HW211400   4.314   5.132   0.639
 3794SOL     OW11401   4.533   3.728   0.502
 3794SOL    HW111402   4.573   3.819   0.493
 3794SOL    HW211403   4.433   3.736   0.508
 3795SOL     OW11404   3.921   4.700   1.264
 3795SOL    HW111405   4.010   4.655   1.250
 3795SOL    HW211406   3.848   4.635   1.245
 3796SOL     OW11407   4.041   3.975   1.801
 3796SOL    HW111408   4.112   4.046   1.807
 3796SOL    HW211409   3.953   4.014   1.829
 3797SOL     OW11410   4.322   4.453   0.270
 3797SOL    HW111411   4.346   4.522   0.202
 3797SOL    HW211412   4.244   4.486   0.324
 3798SOL     OW11413   4.531   4.329   1.465
 3798SOL    HW111414   4.484   4.326   1.554
 3798SOL    HW211415   4.480   4.274   1.399
 3799SOL     OW11416   4.697   4.614   1.572
 3799SOL    HW111417   4.743   4.530   1.543
 3799SOL    HW211418   4.641   4.648   1.497
 3800SOL     OW11419   4.715   4.134   1.242
 3800SOL    HW111420   4.638   4.168   1.296
 3800SOL    HW211421   4.681   4.083   1.163
 3801SOL     OW11422   4.765   4.425   0.429
 3801SOL    HW111423   4.791   4.421   0.525
 3801SOL    HW211424   4.680   4.374   0.415
 3802SOL     OW11425   3.800   4.535   0.789
 3802SOL    HW111426   3.899   4.523   0.798
 3802SOL    HW211427   3.776   4.630   0.810
 3803SOL     OW11428   4.589   4.072   0.195
 3803SOL    HW111429   4.648   4.135   0.146
 3803SOL    HW211430   4.608   3.978   0.166
 3804SOL     OW11431   4.274   3.920   0.885
 3804SOL    HW111432   4.269   3.915   0.985
 3804SOL    HW211433   4.276   4.016   0.856
 3805SOL     OW11434   4.045   4.667   0.242
 3805SOL    HW111435   4.127   4.706   0.200
 3805SOL    HW211436   4.018   4.585   0.193
 3806SOL     OW11437   3.926   4.009   1.498
 3806SOL    HW111438   3.846   4.069   1.485
 3806SOL    HW211439   3.916   3.960   1.584
 3807SOL     OW11440   4.106   4.424   0.480
 3807SOL    HW111441   4.151   4.334   0.477
 3807SOL    HW211442   4.012   4.413   0.513
 3808SOL     OW11443   4.338   3.846   0.117
 3808SOL    HW111444   4.436   3.824   0.124
 3808SOL    HW211445   4.307   3.829   0.024
 3809SOL     OW11446   4.505   3.988   1.749
 3809SOL    HW111447   4.572   3.927   1.792
 3809SOL    HW211448   4.432   4.007   1.814
 3810SOL     OW11449   4.646   4.227   0.899
 3810SOL    HW111450   4.621   4.218   0.803
 3810SOL    HW211451   4.694   4.145   0.930
 3811SOL     OW11452   4.263   3.788   0.512
 3811SOL    HW111453   4.182   3.789   0.570
 3811SOL    HW211454   4.266   3.871   0.457
 3812SOL     OW11455   4.021   3.759   0.171
 3812SOL    HW111456   4.070   3.843   0.150
 3812SOL    HW211457   4.083   3.694   0.216
 3813SOL     OW11458   4.659   3.960   0.480
 3813SOL    HW111459   4.611   4.001   0.402
 3813SOL    HW211460   4.758   3.958   0.461
 3814SOL     OW11461   4.800   4.407   1.464
 3814SOL    HW111462   4.720   4.346   1.467
 3814SOL    HW211463   4.881   4.354   1.440
 3815SOL     OW11464   4.183   4.876   0.741
 3815SOL    HW111465   4.112   4.849   0.806
 3815SOL    HW211466   4.157   4.848   0.648
 3816SOL     OW11467   4.756   4.273   0.016
 3816SOL    HW111468   4.715   4.355  -0.023
 3816SOL    HW211469   4.820   4.299   0.089
 3817SOL     OW11470   3.802   4.280   1.386
 3817SOL    HW111471   3.894   4.279   1.345
 3817SOL    HW211472   3.796   4.354   1.453
 3818SOL     OW11473   4.285   3.946   1.147
 3818SOL    HW111474   4.323   3.862   1.184
 3818SOL    HW211475   4.197   3.965   1.191
 3819SOL     OW11476   4.590   4.178   0.642
 3819SOL    HW111477   4.558   4.250   0.580
 3819SOL    HW211478   4.614   4.097   0.589
 3820SOL     OW11479   4.741   3.763   0.753
 3820SOL    HW111480   4.669   3.768   0.684
 3820SOL    HW211481   4.717   3.694   0.822
 3821SOL     OW11482   4.251   3.980   0.328
 3821SOL    HW111483   4.278   3.921   0.253
 3821SOL    HW211484   4.251   4.075   0.297
 3822SOL     OW11485   4.639   3.813   1.402
 3822SOL    HW111486   4.664   3.793   1.307
 3822SOL    HW211487   4.711   3.869   1.444
 3823SOL     OW11488   4.704   4.840   1.719
 3823SOL    HW111489   4.605   4.846   1.729
 3823SOL    HW211490   4.727   4.760   1.663
 3824SOL     OW11491   4.429   4.774   0.368
 3824SOL    HW111492   4.415   4.781   0.467
 3824SOL    HW211493   4.513   4.723   0.350
 3825SOL     OW11494   4.134   4.537   1.251
 3825SOL    HW111495   4.220   4.549   1.301
 3825SOL    HW211496   4.092   4.450   1.278
 3826SOL     OW11497   4.091   4.824   0.501
 3826SOL    HW111498   4.084   4.907   0.445
 3826SOL    HW211499   4.095   4.744   0.441
 3827SOL     OW11500   4.290   4.261   0.865
 3827SOL    HW111501   4.302   4.327   0.791
 3827SOL    HW211502   4.336   4.295   0.948
 3828SOL     OW11503   4.126   4.475   1.598
 3828SOL    HW111504   4.194   4.530   1.551
 3828SOL    HW211505   4.166   4.387   1.625
 3829SOL     OW11506   4.737   3.829   1.770
 3829SOL    HW111507   4.743   3.914   1.718
 3829SOL    HW211508   4.769   3.753   1.713
 3830SOL     OW11509   4.228   3.774   1.740
 3830SOL    HW111510   4.186   3.717   1.670
 3830SOL    HW211511   4.162   3.843   1.772
 3831SOL     OW11512   4.297   4.594   1.029
 3831SOL    HW111513   4.341   4.683   1.020
 3831SOL    HW211514   4.234   4.594   1.106
 3832SOL     OW11515   5.084   4.586   1.045
 3832SOL    HW111516   5.009   4.586   0.979
 3832SOL    HW211517   5.121   4.494   1.054
 3833SOL     OW11518   4.933   4.249   0.275
 3833SOL    HW111519   4.946   4.165   0.329
 3833SOL    HW211520   4.904   4.323   0.335
 3834SOL     OW11521   4.031   3.937   1.231
 3834SOL    HW111522   4.008   3.974   1.321
 3834SOL    HW211523   4.001   3.842   1.225
 3835SOL     OW11524   4.456   4.358   1.064
 3835SOL    HW111525   4.515   4.332   0.988
 3835SOL    HW211526   4.428   4.454   1.053
 3836SOL     OW11527   4.031   3.787   0.618
 3836SOL    HW111528   4.020   3.881   0.651
 3836SOL    HW211529   4.026   3.724   0.695
 3837SOL     OW11530   4.747   4.490   0.966
 3837SOL    HW111531   4.762   4.511   1.062
 3837SOL    HW211532   4.717   4.395   0.957
 3838SOL     OW11533   4.074   4.622   1.804
 3838SOL    HW111534   4.150   4.666   1.852
 3838SOL    HW211535   4.109   4.575   1.722
 3839SOL     OW11536   4.043   4.534   0.949
 3839SOL    HW111537   4.136   4.570   0.954
 3839SOL    HW211538   4.037   4.449   1.001
 3840SOL     OW11539   4.063   4.233   1.006
 3840SOL    HW111540   4.011   4.150   0.989
 3840SOL    HW211541   4.140   4.238   0.942
 3841SOL     OW11542   4.862   4.104   1.678
 3841SOL    HW111543   4.817   4.167   1.742
 3841SOL    HW211544   4.955   4.135   1.661
 3842SOL     OW11545   4.884   3.931   1.477
 3842SOL    HW111546   4.884   3.995   1.554
 3842SOL    HW211547   4.912   3.979   1.394
 3843SOL     OW11548   4.726   4.520   1.238
 3843SOL    HW111549   4.767   4.488   1.324
 3843SOL    HW211550   4.630   4.493   1.235
 3844SOL     OW11551   3.764   4.268   1.114
 3844SOL    HW111552   3.849   4.235   1.073
 3844SOL    HW211553   3.777   4.283   1.212
 3845SOL     OW11554   3.913   4.244   1.722
 3845SOL    HW111555   3.972   4.204   1.652
 3845SOL    HW211556   3.855   4.315   1.681
 3846SOL     OW11557   4.539   4.296   0.325
 3846SOL    HW111558   4.546   4.207   0.279
 3846SOL    HW211559   4.445   4.330   0.317
 3847SOL     OW11560   4.395   4.188   1.269
 3847SOL    HW111561   4.361   4.099   1.239
 3847SOL    HW211562   4.421   4.242   1.189
 3848SOL     OW11563   4.197   4.224   0.191
 3848SOL    HW111564   4.258   4.304   0.195
 3848SOL    HW211565   4.102   4.255   0.198
 3849SOL     OW11566   3.883   4.861   1.466
 3849SOL    HW111567   3.905   4.800   1.542
 3849SOL    HW211568   3.893   4.812   1.380
 3850SOL     OW11569   4.627   3.810   0.133
 3850SOL    HW111570   4.678   3.811   0.047
 3850SOL    HW211571   4.683   3.768   0.204
 3851SOL     OW11572   3.987   4.050   0.720
 3851SOL    HW111573   3.908   4.101   0.686
 3851SOL    HW211574   3.978   4.035   0.818
 3852SOL     OW11575   4.546   4.726   1.372
 3852SOL    HW111576   4.586   4.725   1.280
 3852SOL    HW211577   4.556   4.818   1.412
 3853SOL     OW11578   4.640   4.634   0.291
 3853SOL    HW111579   4.703   4.672   0.223
 3853SOL    HW211580   4.680   4.551   0.330
 3854SOL     OW11581   4.096   5.012   1.490
 3854SOL    HW111582   4.083   5.105   1.456
 3854SOL    HW211583   4.012   4.960   1.477
 3855SOL     OW11584   4.763   4.822   0.696
 3855SOL    HW111585   4.693   4.775   0.750
 3855SOL    HW211586   4.822   4.754   0.653
 3856SOL     OW11587   4.738   3.960   0.971
 3856SOL    HW111588   4.730   3.924   0.878
 3856SOL    HW211589   4.736   3.884   1.036
 3857SOL     OW11590   3.829   4.737   1.726
 3857SOL    HW111591   3.752   4.704   1.780
 3857SOL    HW211592   3.914   4.707   1.768
 3858SOL     OW11593   4.396   3.927   1.489
 3858SOL    HW111594   4.486   3.911   1.449
 3858SOL    HW211595   4.404   3.932   1.588
 3859SOL     OW11596   3.796   3.890   0.318
 3859SOL    HW111597   3.779   3.973   0.264
 3859SOL    HW211598   3.886   3.853   0.296
 3860SOL     OW11599   4.337   4.566   1.431
 3860SOL    HW111600   4.393   4.647   1.414
 3860SOL    HW211601   4.396   4.486   1.434
 3861SOL     OW11602   4.440   4.289   1.708
 3861SOL    HW111603   4.459   4.354   1.782
 3861SOL    HW211604   4.500   4.209   1.717
 3862SOL     OW11605   4.318   4.469   0.652
 3862SOL    HW111606   4.368   4.554   0.633
 3862SOL    HW211607   4.230   4.471   0.604
 3863SOL     OW11608   4.583   4.680   0.861
 3863SOL    HW111609   4.637   4.611   0.909
 3863SOL    HW211610   4.551   4.749   0.927
 3864SOL     OW11611   4.807   4.708   0.087
 3864SOL    HW111612   4.784   4.761   0.005
 3864SOL    HW211613   4.888   4.652   0.068
 3865SOL     OW11614   3.803   4.964   0.653
 3865SOL    HW111615   3.802   4.917   0.741
 3865SOL    HW211616   3.885   4.936   0.602
 3866SOL     OW11617   4.152   4.148   0.520
 3866SOL    HW111618   4.182   4.076   0.458
 3866SOL    HW211619   4.113   4.108   0.603
 3867SOL     OW11620   4.041   4.271   1.280
 3867SOL    HW111621   4.079   4.212   1.352
 3867SOL    HW211622   4.081   4.245   1.192
 3868SOL     OW11623   4.725   3.758   1.154
 3868SOL    HW111624   4.662   3.686   1.123
 3868SOL    HW211625   4.818   3.722   1.154
 3869SOL     OW11626   4.494   5.054   0.301
 3869SOL    HW111627   4.448   4.967   0.318
 3869SOL    HW211628   4.585   5.051   0.342
 3870SOL     OW11629   5.076   3.776   0.168
 3870SOL    HW111630   5.111   3.735   0.084
 3870SOL    HW211631   4.986   3.738   0.188
 3871SOL     OW11632   3.954   4.352   1.975
 3871SOL    HW111633   3.861   4.350   2.012
 3871SOL    HW211634   3.955   4.313   1.883
 3872SOL     OW11635   3.949   3.999   2.858
 3872SOL    HW111636   3.984   3.982   2.950
 3872SOL    HW211637   3.861   3.954   2.846
 3873SOL     OW11638   3.743   4.092   2.509
 3873SOL    HW111639   3.661   4.135   2.548
 3873SOL    HW211640   3.715   4.019   2.446
 3874SOL     OW11641   4.859   4.427   2.579
 3874SOL    HW111642   4.916   4.505   2.554
 3874SOL    HW211643   4.799   4.453   2.655
 3875SOL     OW11644   4.492   4.868   2.885
 3875SOL    HW111645   4.414   4.885   2.945
 3875SOL    HW211646   4.526   4.955   2.849
 3876SOL     OW11647   4.574   4.522   3.685
 3876SOL    HW111648   4.570   4.598   3.750
 3876SOL    HW211649   4.596   4.558   3.594
 3877SOL     OW11650   4.409   4.736   2.527
 3877SOL    HW111651   4.478   4.720   2.597
 3877SOL    HW211652   4.336   4.793   2.565
 3878SOL     OW11653   4.162   4.116   3.361
 3878SOL    HW111654   4.244   4.060   3.370
 3878SOL    HW211655   4.081   4.058   3.365
 3879SOL     OW11656   3.964   4.815   2.748
 3879SOL    HW111657   3.978   4.731   2.800
 3879SOL    HW211658   3.909   4.879   2.803
 3880SOL     OW11659   4.330   4.688   1.985
 3880SOL    HW111660   4.337   4.772   1.931
 3880SOL    HW211661   4.376   4.701   2.073
 3881SOL     OW11662   3.846   4.367   2.425
 3881SOL    HW111663   3.801   4.279   2.442
 3881SOL    HW211664   3.845   4.421   2.509
 3882SOL     OW11665   3.837   4.461   3.459
 3882SOL    HW111666   3.925   4.448   3.504
 3882SOL    HW211667   3.824   4.558   3.437
 3883SOL     OW11668   4.337   5.089   2.588
 3883SOL    HW111669   4.288   5.002   2.597
 3883SOL    HW211670   4.314   5.132   2.501
 3884SOL     OW11671   4.533   3.728   2.364
 3884SOL    HW111672   4.573   3.819   2.355
 3884SOL    HW211673   4.433   3.736   2.370
 3885SOL     OW11674   3.921   4.700   3.126
 3885SOL    HW111675   4.010   4.655   3.112
 3885SOL    HW211676   3.848   4.635   3.107
 3886SOL     OW11677   4.041   3.975   3.663
 3886SOL    HW111678   4.112   4.046   3.669
 3886SOL    HW211679   3.953   4.014   3.691
 3887SOL     OW11680   4.322   4.453   2.132
 3887SOL    HW111681   4.346   4.522   2.064
 3887SOL    HW211682   4.244   4.486   2.186
 3888SOL     OW11683   4.531   4.329   3.327
 3888SOL    HW111684   4.484   4.326   3.416
 3888SOL    HW211685   4.480   4.274   3.261
 3889SOL     OW11686   4.697   4.614   3.434
 3889SOL    HW111687   4.743   4.530   3.405
 3889SOL    HW211688   4.641   4.648   3.359
 3890SOL     OW11689   4.715   4.134   3.104
 3890SOL    HW111690   4.638   4.168   3.158
 3890SOL    HW211691   4.681   4.083   3.025
 3891SOL     OW11692   4.765   4.425   2.291
 3891SOL    HW111693   4.791   4.421   2.387
 3891SOL    HW211694   4.680   4.374   2.277
 3892SOL     OW11695   3.800   4.535   2.651
 3892SOL    HW111696   3.899   4.523   2.660
 3892SOL    HW211697   3.776   4.630   2.672
 3893SOL     OW11698   4.589   4.072   2.057
 3893SOL    HW111699   4.648   4.135   2.008
 3893SOL    HW211700   4.608   3.978   2.028
 3894SOL     OW11701   4.274   3.920   2.747
 3894SOL    HW111702   4.269   3.915   2.847
 3894SOL    HW211703   4.276   4.016   2.718
 3895SOL     OW11704   4.045   4.667   2.104
 3895SOL    HW111705   4.127   4.706   2.062
 3895SOL    HW211706   4.018   4.585   2.055
 3896SOL     OW11707   3.926   4.009   3.360
 3896SOL    HW111708   3.846   4.069   3.347
 3896SOL    HW211709   3.916   3.960   3.446
 3897SOL     OW11710   4.106   4.424   2.342
 3897SOL    HW111711   4.151   4.334   2.339
 3897SOL    HW211712   4.012   4.413   2.375
 3898SOL     OW11713   4.338   3.846   1.979
 3898SOL    HW111714   4.436   3.824   1.986
 3898SOL    HW211715   4.307   3.829   1.886
 3899SOL     OW11716   4.505   3.988   3.611
 3899SOL    HW111717   4.572   3.927   3.654
 3899SOL    HW211718   4.432   4.007   3.676
 3900SOL     OW11719   4.646   4.227   2.761
 3900SOL    HW111720   4.621   4.218   2.665
 3900SOL    HW211721   4.694   4.145   2.792
 3901SOL     OW11722   4.263   3.788   2.374
 3901SOL    HW111723   4.182   3.789   2.432
 3901SOL    HW211724   4.266   3.871   2.319
 3902SOL     OW11725   4.021   3.759   2.033
 3902SOL    HW111726   4.070   3.843   2.012
 3902SOL    HW211727   4.083   3.694   2.078
 3903SOL     OW11728   4.659   3.960   2.342
 3903SOL    HW111729   4.611   4.001   2.264
 3903SOL    HW211730   4.758   3.958   2.323
 3904SOL     OW11731   4.800   4.407   3.326
 3904SOL    HW111732   4.720   4.346   3.329
 3904SOL    HW211733   4.881   4.354   3.302
 3905SOL     OW11734   4.183   4.876   2.603
 3905SOL    HW111735   4.112   4.849   2.668
 3905SOL    HW211736   4.157   4.848   2.510
 3906SOL     OW11737   4.756   4.273   1.878
 3906SOL    HW111738   4.715   4.355   1.839
 3906SOL    HW211739   4.820   4.299   1.951
 3907SOL     OW11740   3.802   4.280   3.248
 3907SOL    HW111741   3.894   4.279   3.207
 3907SOL    HW211742   3.796   4.354   3.315
 3908SOL     OW11743   4.285   3.946   3.009
 3908SOL    HW111744   4.323   3.862   3.046
 3908SOL    HW211745   4.197   3.965   3.053
 3909SOL     OW11746   4.590   4.178   2.504
 3909SOL    HW111747   4.558   4.250   2.442
 3909SOL    HW211748   4.614   4.097   2.451
 3910SOL     OW11749   4.741   3.763   2.615
 3910SOL    HW111750   4.669   3.768   2.546
 3910SOL    HW211751   4.717   3.694   2.684
 3911SOL     OW11752   4.251   3.980   2.190
 3911SOL    HW111753   4.278   3.921   2.115
 3911SOL    HW211754   4.251   4.075   2.159
 3912SOL     OW11755   4.639   3.813   3.264
 3912SOL    HW111756   4.664   3.793   3.169
 3912SOL    HW211757   4.711   3.869   3.306
 3913SOL     OW11758   4.704   4.840   3.581
 3913SOL    HW111759   4.605   4.846   3.591
 3913SOL    HW211760   4.727   4.760   3.525
 3914SOL     OW11761   4.429   4.774   2.230
 3914SOL    HW111762   4.415   4.781   2.329
 3914SOL    HW211763   4.513   4.723   2.212
 3915SOL     OW11764   4.134   4.537   3.113
 3915SOL    HW111765   4.220   4.549   3.163
 3915SOL    HW211766   4.092   4.450   3.140
 3916SOL     OW11767   4.091   4.824   2.363
 3916SOL    HW111768   4.084   4.907   2.307
 3916SOL    HW211769   4.095   4.744   2.303
 3917SOL     OW11770   4.290   4.261   2.727
 3917SOL    HW111771   4.302   4.327   2.653
 3917SOL    HW211772   4.336   4.295   2.810
 3918SOL     OW11773   4.126   4.475   3.460
 3918SOL    HW111774   4.194   4.530   3.413
 3918SOL    HW211775   4.166   4.387   3.487
 3919SOL     OW11776   4.737   3.829   3.632
 3919SOL    HW111777   4.743   3.914   3.580
 3919SOL    HW211778   4.769   3.753   3.575
 3920SOL     OW11779   4.228   3.774   3.602
 3920SOL    HW111780   4.186   3.717   3.532
 3920SOL    HW211781   4.162   3.843   3.634
 3921SOL     OW11782   4.297   4.594   2.891
 3921SOL    HW111783   4.341   4.683   2.882
 3921SOL    HW211784   4.234   4.594   2.968
 3922SOL     OW11785   5.084   4.586   2.907
 3922SOL    HW111786   5.009   4.586   2.841
 3922SOL    HW211787   5.121   4.494   2.916
 3923SOL     OW11788   4.933   4.249   2.137
 3923SOL    HW111789   4.946   4.165   2.191
 3923SOL    HW211790   4.904   4.323   2.197
 3924SOL     OW11791   4.031   3.937   3.093
 3924SOL    HW111792   4.008   3.974   3.183
 3924SOL    HW211793   4.001   3.842   3.087
 3925SOL     OW11794   4.456   4.358   2.926
 3925SOL    HW111795   4.515   4.332   2.850
 3925SOL    HW211796   4.428   4.454   2.915
 3926SOL     OW11797   4.031   3.787   2.480
 3926SOL    HW111798   4.020   3.881   2.513
 3926SOL    HW211799   4.026   3.724   2.557
 3927SOL     OW11800   4.747   4.490   2.828
 3927SOL    HW111801   4.762   4.511   2.924
 3927SOL    HW211802   4.717   4.395   2.819
 3928SOL     OW11803   4.074   4.622   3.666
 3928SOL    HW111804   4.150   4.666   3.714
 3928SOL    HW211805   4.109   4.575   3.584
 3929SOL     OW11806   5.264   3.998   1.987
 3929SOL    HW111807   5.203   3.923   2.010
 3929SOL    HW211808   5.286   4.050   2.070
 3930SOL     OW11809   4.043   4.534   2.811
 3930SOL    HW111810   4.136   4.570   2.816
 3930SOL    HW211811   4.037   4.449   2.863
 3931SOL     OW11812   4.063   4.233   2.868
 3931SOL    HW111813   4.011   4.150   2.851
 3931SOL    HW211814   4.140   4.238   2.804
 3932SOL     OW11815   4.862   4.104   3.540
 3932SOL    HW111816   4.817   4.167   3.604
 3932SOL    HW211817   4.955   4.135   3.523
 3933SOL     OW11818   4.884   3.931   3.339
 3933SOL    HW111819   4.884   3.995   3.416
 3933SOL    HW211820   4.912   3.979   3.256
 3934SOL     OW11821   4.726   4.520   3.100
 3934SOL    HW111822   4.767   4.488   3.186
 3934SOL    HW211823   4.630   4.493   3.097
 3935SOL     OW11824   3.764   4.268   2.976
 3935SOL    HW111825   3.849   4.235   2.935
 3935SOL    HW211826   3.777   4.283   3.074
 3936SOL     OW11827   3.913   4.244   3.584
 3936SOL    HW111828   3.972   4.204   3.514
 3936SOL    HW211829   3.855   4.315   3.543
 3937SOL     OW11830   4.539   4.296   2.187
 3937SOL    HW111831   4.546   4.207   2.141
 3937SOL    HW211832   4.445   4.330   2.179
 3938SOL     OW11833   4.395   4.188   3.131
 3938SOL    HW111834   4.361   4.099   3.101
 3938SOL    HW211835   4.421   4.242   3.051
 3939SOL     OW11836   4.197   4.224   2.053
 3939SOL    HW111837   4.258   4.304   2.057
 3939SOL    HW211838   4.102   4.255   2.060
 3940SOL     OW11839   3.883   4.861   3.328
 3940SOL    HW111840   3.905   4.800   3.404
 3940SOL    HW211841   3.893   4.812   3.242
 3941SOL     OW11842   3.987   4.050   2.582
 3941SOL    HW111843   3.908   4.101   2.548
 3941SOL    HW211844   3.978   4.035   2.680
 3942SOL     OW11845   4.546   4.726   3.234
 3942SOL    HW111846   4.586   4.725   3.142
 3942SOL    HW211847   4.556   4.818   3.274
 3943SOL     OW11848   4.640   4.634   2.153
 3943SOL    HW111849   4.703   4.672   2.085
 3943SOL    HW211850   4.680   4.551   2.192
 3944SOL     OW11851   4.096   5.012   3.352
 3944SOL    HW111852   4.083   5.105   3.318
 3944SOL    HW211853   4.012   4.960   3.339
 3945SOL     OW11854   4.763   4.822   2.558
 3945SOL    HW111855   4.693   4.775   2.612
 3945SOL    HW211856   4.822   4.754   2.515
 3946SOL     OW11857   4.738   3.960   2.833
 3946SOL    HW111858   4.730   3.924   2.740
 3946SOL    HW211859   4.736   3.884   2.898
 3947SOL     OW11860   3.829   4.737   3.588
 3947SOL    HW111861   3.752   4.704   3.642
 3947SOL    HW211862   3.914   4.707   3.630
 3948SOL     OW11863   4.396   3.927   3.351
 3948SOL    HW111864   4.486   3.911   3.311
 3948SOL    HW211865   4.404   3.932   3.450
 3949SOL     OW11866   3.799   4.069   1.895
 3949SOL    HW111867   3.707   4.041   1.866
 3949SOL    HW211868   3.830   4.146   1.839
 3950SOL     OW11869   3.796   3.890   2.180
 3950SOL    HW111870   3.779   3.973   2.126
 3950SOL    HW211871   3.886   3.853   2.158
 3951SOL     OW11872   4.337   4.566   3.293
 3951SOL    HW111873   4.393   4.647   3.276
 3951SOL    HW211874   4.396   4.486   3.296
 3952SOL     OW11875   4.440   4.289   3.570
 3952SOL    HW111876   4.459   4.354   3.644
 3952SOL    HW211877   4.500   4.209   3.579
 3953SOL     OW11878   4.318   4.469   2.514
 3953SOL    HW111879   4.368   4.554   2.495
 3953SOL    HW211880   4.230   4.471   2.466
 3954SOL     OW11881   4.583   4.680   2.723
 3954SOL    HW111882   4.637   4.611   2.771
 3954SOL    HW211883   4.551   4.749   2.789
 3955SOL     OW11884   4.807   4.708   1.949
 3955SOL    HW111885   4.784   4.761   1.867
 3955SOL    HW211886   4.888   4.652   1.930
 3956SOL     OW11887   3.803   4.964   2.515
 3956SOL    HW111888   3.802   4.917   2.603
 3956SOL    HW211889   3.885   4.936   2.464
 3957SOL     OW11890   4.152   4.148   2.382
 3957SOL    HW111891   4.182   4.076   2.320
 3957SOL    HW211892   4.113   4.108   2.465
 3958SOL     OW11893   4.041   4.271   3.142
 3958SOL    HW111894   4.079   4.212   3.214
 3958SOL    HW211895   4.081   4.245   3.054
 3959SOL     OW11896   4.725   3.758   3.016
 3959SOL    HW111897   4.662   3.686   2.985
 3959SOL    HW211898   4.818   3.722   3.016
 3960SOL     OW11899   4.494   5.054   2.163
 3960SOL    HW111900   4.448   4.967   2.180
 3960SOL    HW211901   4.585   5.051   2.204
 3961SOL     OW11902   3.763   4.801   2.162
 3961SOL    HW111903   3.862   4.790   2.153
 3961SOL    HW211904   3.723   4.715   2.194
 3962SOL     OW11905   3.954   4.352   3.837
 3962SOL    HW111906   3.861   4.350   3.874
 3962SOL    HW211907   3.955   4.313   3.745
 3963SOL     OW11908   3.949   3.999   4.720
 3963SOL    HW111909   3.984   3.982   4.812
 3963SOL    HW211910   3.861   3.954   4.708
 3964SOL     OW11911   3.743   4.092   4.371
 3964SOL    HW111912   3.661   4.135   4.410
 3964SOL    HW211913   3.715   4.019   4.308
 3965SOL     OW11914   4.859   4.427   4.441
 3965SOL    HW111915   4.916   4.505   4.416
 3965SOL    HW211916   4.799   4.453   4.517
 3966SOL     OW11917   4.492   4.868   4.747
 3966SOL    HW111918   4.414   4.885   4.807
 3966SOL    HW211919   4.526   4.955   4.711
 3967SOL     OW11920   4.409   4.736   4.389
 3967SOL    HW111921   4.478   4.720   4.459
 3967SOL    HW211922   4.336   4.793   4.427
 3968SOL     OW11923   3.964   4.815   4.610
 3968SOL    HW111924   3.978   4.731   4.662
 3968SOL    HW211925   3.909   4.879   4.665
 3969SOL     OW11926   4.330   4.688   3.847
 3969SOL    HW111927   4.337   4.772   3.793
 3969SOL    HW211928   4.376   4.701   3.935
 3970SOL     OW11929   3.846   4.367   4.287
 3970SOL    HW111930   3.801   4.279   4.304
 3970SOL    HW211931   3.845   4.421   4.371
 3971SOL     OW11932   4.337   5.089   4.450
 3971SOL    HW111933   4.288   5.002   4.459
 3971SOL    HW211934   4.314   5.132   4.363
 3972SOL     OW11935   4.533   3.728   4.226
 3972SOL    HW111936   4.573   3.819   4.217
 3972SOL    HW211937   4.433   3.736   4.232
 3973SOL     OW11938   3.921   4.700   4.988
 3973SOL    HW111939   4.010   4.655   4.974
 3973SOL    HW211940   3.848   4.635   4.969
 3974SOL     OW11941   4.322   4.453   3.994
 3974SOL    HW111942   4.346   4.522   3.926
 3974SOL    HW211943   4.244   4.486   4.048
 3975SOL     OW11944   4.765   4.425   4.153
 3975SOL    HW111945   4.791   4.421   4.249
 3975SOL    HW211946   4.680   4.374   4.139
 3976SOL     OW11947   3.800   4.535   4.513
 3976SOL    HW111948   3.899   4.523   4.522
 3976SOL    HW211949   3.776   4.630   4.534
 3977SOL     OW11950   4.589   4.072   3.919
 3977SOL    HW111951   4.648   4.135   3.870
 3977SOL    HW211952   4.608   3.978   3.890
 3978SOL     OW11953   4.274   3.920   4.609
 3978SOL    HW111954   4.269   3.915   4.709
 3978SOL    HW211955   4.276   4.016   4.580
 3979SOL     OW11956   4.045   4.667   3.966
 3979SOL    HW111957   4.127   4.706   3.924
 3979SOL    HW211958   4.018   4.585   3.917
 3980SOL     OW11959   4.106   4.424   4.204
 3980SOL    HW111960   4.151   4.334   4.201
 3980SOL    HW211961   4.012   4.413   4.237
 3981SOL     OW11962   4.338   3.846   3.841
 3981SOL    HW111963   4.436   3.824   3.848
 3981SOL    HW211964   4.307   3.829   3.748
 3982SOL     OW11965   4.646   4.227   4.623
 3982SOL    HW111966   4.621   4.218   4.527
 3982SOL    HW211967   4.694   4.145   4.654
 3983SOL     OW11968   4.263   3.788   4.236
 3983SOL    HW111969   4.182   3.789   4.294
 3983SOL    HW211970   4.266   3.871   4.181
 3984SOL     OW11971   4.021   3.759   3.895
 3984SOL    HW111972   4.070   3.843   3.874
 3984SOL    HW211973   4.083   3.694   3.940
 3985SOL     OW11974   4.659   3.960   4.204
 3985SOL    HW111975   4.611   4.001   4.126
 3985SOL    HW211976   4.758   3.958   4.185
 3986SOL     OW11977   4.183   4.876   4.465
 3986SOL    HW111978   4.112   4.849   4.530
 3986SOL    HW211979   4.157   4.848   4.372
 3987SOL     OW11980   4.756   4.273   3.740
 3987SOL    HW111981   4.715   4.355   3.701
 3987SOL    HW211982   4.820   4.299   3.813
 3988SOL     OW11983   4.590   4.178   4.366
 3988SOL    HW111984   4.558   4.250   4.304
 3988SOL    HW211985   4.614   4.097   4.313
 3989SOL     OW11986   4.741   3.763   4.477
 3989SOL    HW111987   4.669   3.768   4.408
 3989SOL    HW211988   4.717   3.694   4.546
 3990SOL     OW11989   4.251   3.980   4.052
 3990SOL    HW111990   4.278   3.921   3.977
 3990SOL    HW211991   4.251   4.075   4.021
 3991SOL     OW11992   4.429   4.774   4.092
 3991SOL    HW111993   4.415   4.781   4.191
 3991SOL    HW211994   4.513   4.723   4.074
 3992SOL     OW11995   4.134   4.537   4.975
 3992SOL    HW111996   4.220   4.549   5.025
 3992SOL    HW211997   4.092   4.450   5.002
 3993SOL     OW11998   4.091   4.824   4.225
 3993SOL    HW111999   4.084   4.907   4.169
 3993SOL    HW212000   4.095   4.744   4.165
 3994SOL     OW12001   4.290   4.261   4.589
 3994SOL    HW112002   4.302   4.327   4.515
 3994SOL    HW212003   4.336   4.295   4.672
 3995SOL     OW12004   4.297   4.594   4.753
 3995SOL    HW112005   4.341   4.683   4.744
 3995SOL    HW212006   4.234   4.594   4.830
 3996SOL     OW12007   5.084   4.586   4.769
 3996SOL    HW112008   5.009   4.586   4.703
 3996SOL    HW212009   5.121   4.494   4.778
 3997SOL     OW12010   4.933   4.249   3.999
 3997SOL    HW112011   4.946   4.165   4.053
 3997SOL    HW212012   4.904   4.323   4.059
 3998SOL     OW12013   4.031   3.937   4.955
 3998SOL    HW112014   4.008   3.974   5.045
 3998SOL    HW212015   4.001   3.842   4.949
 3999SOL     OW12016   4.456   4.358   4.788
 3999SOL    HW112017   4.515   4.332   4.712
 3999SOL    HW212018   4.428   4.454   4.777
 4000SOL     OW12019   4.031   3.787   4.342
 4000SOL    HW112020   4.020   3.881   4.375
 4000SOL    HW212021   4.026   3.724   4.419
 4001SOL     OW12022   4.747   4.490   4.690
 4001SOL    HW112023   4.762   4.511   4.786
 4001SOL    HW212024   4.717   4.395   4.681
 4002SOL     OW12025   5.264   3.998   3.849
 4002SOL    HW112026   5.203   3.923   3.872
 4002SOL    HW212027   5.286   4.050   3.932
 4003SOL     OW12028   4.043   4.534   4.673
 4003SOL    HW112029   4.136   4.570   4.678
 4003SOL    HW212030   4.037   4.449   4.725
 4004SOL     OW12031   4.063   4.233   4.730
 4004SOL    HW112032   4.011   4.150   4.713
 4004SOL    HW212033   4.140   4.238   4.666
 4005SOL     OW12034   4.884   3.931   5.201
 4005SOL    HW112035   4.884   3.995   5.278
 4005SOL    HW212036   4.912   3.979   5.118
 4006SOL     OW12037   4.726   4.520   4.962
 4006SOL    HW112038   4.767   4.488   5.048
 4006SOL    HW212039   4.630   4.493   4.959
 4007SOL     OW12040   3.764   4.268   4.838
 4007SOL    HW112041   3.849   4.235   4.797
 4007SOL    HW212042   3.777   4.283   4.936
 4008SOL     OW12043   4.539   4.296   4.049
 4008SOL    HW112044   4.546   4.207   4.003
 4008SOL    HW212045   4.445   4.330   4.041
 4009SOL     OW12046   4.395   4.188   4.993
 4009SOL    HW112047   4.361   4.099   4.963
 4009SOL    HW212048   4.421   4.242   4.913
 4010SOL     OW12049   4.197   4.224   3.915
 4010SOL    HW112050   4.258   4.304   3.919
 4010SOL    HW212051   4.102   4.255   3.922
 4011SOL     OW12052   3.883   4.861   5.190
 4011SOL    HW112053   3.905   4.800   5.266
 4011SOL    HW212054   3.893   4.812   5.104
 4012SOL     OW12055   3.987   4.050   4.444
 4012SOL    HW112056   3.908   4.101   4.410
 4012SOL    HW212057   3.978   4.035   4.542
 4013SOL     OW12058   4.546   4.726   5.096
 4013SOL    HW112059   4.586   4.725   5.004
 4013SOL    HW212060   4.556   4.818   5.136
 4014SOL     OW12061   4.640   4.634   4.015
 4014SOL    HW112062   4.703   4.672   3.947
 4014SOL    HW212063   4.680   4.551   4.054
 4015SOL     OW12064   4.763   4.822   4.420
 4015SOL    HW112065   4.693   4.775   4.474
 4015SOL    HW212066   4.822   4.754   4.377
 4016SOL     OW12067   4.738   3.960   4.695
 4016SOL    HW112068   4.730   3.924   4.602
 4016SOL    HW212069   4.736   3.884   4.760
 4017SOL     OW12070   3.799   4.069   3.757
 4017SOL    HW112071   3.707   4.041   3.728
 4017SOL    HW212072   3.830   4.146   3.701
 4018SOL     OW12073   3.796   3.890   4.042
 4018SOL    HW112074   3.779   3.973   3.988
 4018SOL    HW212075   3.886   3.853   4.020
 4019SOL     OW12076   4.318   4.469   4.376
 4019SOL    HW112077   4.368   4.554   4.357
 4019SOL    HW212078   4.230   4.471   4.328
 4020SOL     OW12079   4.583   4.680   4.585
 4020SOL    HW112080   4.637   4.611   4.633
 4020SOL    HW212081   4.551   4.749   4.651
 4021SOL     OW12082   4.807   4.708   3.811
 4021SOL    HW112083   4.784   4.761   3.729
 4021SOL    HW212084   4.888   4.652   3.792
 4022SOL     OW12085   3.803   4.964   4.377
 4022SOL    HW112086   3.802   4.917   4.465
 4022SOL    HW212087   3.885   4.936   4.326
 4023SOL     OW12088   4.152   4.148   4.244
 4023SOL    HW112089   4.182   4.076   4.182
 4023SOL    HW212090   4.113   4.108   4.327
 4024SOL     OW12091   4.725   3.758   4.878
 4024SOL    HW112092   4.662   3.686   4.847
 4024SOL    HW212093   4.818   3.722   4.878
 4025SOL     OW12094   4.494   5.054   4.025
 4025SOL    HW112095   4.448   4.967   4.042
 4025SOL    HW212096   4.585   5.051   4.066
 4026SOL     OW12097   3.763   4.801   4.024
 4026SOL    HW112098   3.862   4.790   4.015
 4026SOL    HW212099   3.723   4.715   4.056
   4.97927   4.97927   4.97927
