mobley_1417007_GMX.gro created by acpype (v: 2023.10.27) on Wed May 20 23:56:18 2026
 2421
    1MOL     C1    1   2.415   2.676   2.264
    1MOL     C2    2   2.334   2.714   2.364
    1MOL     C3    3   2.616   2.413   2.463
    1MOL     C4    4   2.503   2.504   2.642
    1MOL     C5    5   2.525   2.573   2.279
    1MOL     C6    6   2.346   2.662   2.506
    1MOL     C7    7   2.504   2.496   2.408
    1MOL     C8    8   2.480   2.593   2.523
    1MOL     C9    9   2.580   2.156   2.707
    1MOL     N1   10   2.593   2.408   2.599
    1MOL     O1   11   2.703   2.359   2.398
    1MOL     O2   12   2.456   2.522   2.753
    1MOL     S1   13   2.680   2.309   2.706
    1MOL    CL1   14   2.654   2.039   2.821
    1MOL    CL2   15   2.412   2.187   2.761
    1MOL    CL3   16   2.574   2.080   2.545
    1MOL     H1   17   2.402   2.721   2.165
    1MOL     H2   18   2.255   2.787   2.346
    1MOL     H3   19   2.521   2.503   2.194
    1MOL     H4   20   2.622   2.622   2.276
    1MOL     H5   21   2.338   2.745   2.577
    1MOL     H6   22   2.263   2.594   2.528
    1MOL     H7   23   2.418   2.428   2.396
    1MOL     H8   24   2.560   2.669   2.526
   35SOL     OW   25   1.187   1.792   1.616
   35SOL    HW1   26   1.211   1.852   1.540
   35SOL    HW2   27   1.194   1.697   1.586
   95SOL     OW   28   1.754   1.223   1.588
   95SOL    HW1   29   1.845   1.184   1.575
   95SOL    HW2   30   1.762   1.319   1.612
   97SOL     OW   31   1.592   1.629   1.625
   97SOL    HW1   32   1.619   1.663   1.535
   97SOL    HW2   33   1.671   1.591   1.671
  127SOL     OW   34   1.859   1.518   1.605
  127SOL    HW1   35   1.873   1.545   1.510
  127SOL    HW2   36   1.942   1.540   1.658
  152SOL     OW   37   1.759   1.747   1.154
  152SOL    HW1   38   1.820   1.777   1.081
  152SOL    HW2   39   1.721   1.658   1.132
  163SOL     OW   40   1.650   1.720   1.394
  163SOL    HW1   41   1.703   1.730   1.310
  163SOL    HW2   42   1.623   1.810   1.428
  219SOL     OW   43   1.555   1.511   2.565
  219SOL    HW1   44   1.498   1.495   2.646
  219SOL    HW2   45   1.496   1.521   2.485
  227SOL     OW   46   1.460   1.505   3.201
  227SOL    HW1   47   1.484   1.599   3.227
  227SOL    HW2   48   1.444   1.451   3.283
  238SOL     OW   49   1.842   1.767   2.221
  238SOL    HW1   50   1.896   1.738   2.301
  238SOL    HW2   51   1.872   1.857   2.192
  240SOL     OW   52   1.689   0.922   2.474
  240SOL    HW1   53   1.784   0.893   2.482
  240SOL    HW2   54   1.681   0.987   2.399
  241SOL     OW   55   1.641   1.108   2.294
  241SOL    HW1   56   1.727   1.110   2.242
  241SOL    HW2   57   1.655   1.155   2.382
  248SOL     OW   58   1.187   1.792   3.478
  248SOL    HW1   59   1.211   1.852   3.402
  248SOL    HW2   60   1.194   1.697   3.448
  250SOL     OW   61   1.466   1.417   2.815
  250SOL    HW1   62   1.407   1.423   2.895
  250SOL    HW2   63   1.451   1.329   2.769
  251SOL     OW   64   1.667   1.714   2.434
  251SOL    HW1   65   1.626   1.691   2.346
  251SOL    HW2   66   1.649   1.640   2.499
  254SOL     OW   67   1.576   1.662   2.169
  254SOL    HW1   68   1.665   1.708   2.172
  254SOL    HW2   69   1.555   1.638   2.074
  264SOL     OW   70   1.362   1.144   2.407
  264SOL    HW1   71   1.445   1.115   2.359
  264SOL    HW2   72   1.313   1.211   2.351
  268SOL     OW   73   1.795   1.066   2.735
  268SOL    HW1   74   1.733   1.051   2.659
  268SOL    HW2   75   1.743   1.077   2.820
  273SOL     OW   76   1.111   1.776   2.099
  273SOL    HW1   77   1.051   1.714   2.149
  273SOL    HW2   78   1.142   1.732   2.014
  275SOL     OW   79   1.632   1.377   1.943
  275SOL    HW1   80   1.600   1.471   1.933
  275SOL    HW2   81   1.556   1.314   1.931
  279SOL     OW   82   0.940   1.698   2.766
  279SOL    HW1   83   1.020   1.641   2.787
  279SOL    HW2   84   0.891   1.658   2.689
  289SOL     OW   85   1.434   1.188   1.903
  289SOL    HW1   86   1.466   1.112   1.960
  289SOL    HW2   87   1.342   1.215   1.933
  293SOL     OW   88   1.227   1.570   2.655
  293SOL    HW1   89   1.248   1.644   2.590
  293SOL    HW2   90   1.295   1.570   2.728
  295SOL     OW   91   1.271   1.797   2.453
  295SOL    HW1   92   1.315   1.861   2.389
  295SOL    HW2   93   1.221   1.849   2.523
  301SOL     OW   94   1.429   1.173   2.729
  301SOL    HW1   95   1.374   1.089   2.722
  301SOL    HW2   96   1.455   1.202   2.637
  303SOL     OW   97   1.857   0.833   2.239
  303SOL    HW1   98   1.899   0.769   2.303
  303SOL    HW2   99   1.819   0.782   2.161
  305SOL     OW  100   1.664   1.280   2.519
  305SOL    HW1  101   1.763   1.288   2.533
  305SOL    HW2  102   1.619   1.364   2.550
  308SOL     OW  103   1.754   1.223   3.450
  308SOL    HW1  104   1.845   1.184   3.437
  308SOL    HW2  105   1.762   1.319   3.474
  310SOL     OW  106   1.592   1.629   3.487
  310SOL    HW1  107   1.619   1.663   3.397
  310SOL    HW2  108   1.671   1.591   3.533
  312SOL     OW  109   1.638   1.099   2.941
  312SOL    HW1  110   1.643   1.180   3.000
  312SOL    HW2  111   1.552   1.101   2.890
  321SOL     OW  112   1.252   1.348   2.250
  321SOL    HW1  113   1.302   1.425   2.290
  321SOL    HW2  114   1.157   1.350   2.282
  322SOL     OW  115   1.272   1.445   3.004
  322SOL    HW1  116   1.319   1.458   3.091
  322SOL    HW2  117   1.206   1.371   3.013
  340SOL     OW  118   1.859   1.518   3.467
  340SOL    HW1  119   1.873   1.545   3.372
  340SOL    HW2  120   1.942   1.540   3.520
  365SOL     OW  121   1.759   1.747   3.016
  365SOL    HW1  122   1.820   1.777   2.943
  365SOL    HW2  123   1.721   1.658   2.994
  366SOL     OW  124   1.252   1.731   2.990
  366SOL    HW1  125   1.336   1.736   2.936
  366SOL    HW2  126   1.229   1.635   3.008
  370SOL     OW  127   1.388   1.573   2.339
  370SOL    HW1  128   1.455   1.585   2.265
  370SOL    HW2  129   1.348   1.662   2.362
  375SOL     OW  130   1.650   1.720   3.256
  375SOL    HW1  131   1.703   1.730   3.172
  375SOL    HW2  132   1.623   1.810   3.290
  378SOL     OW  133   1.194   1.612   1.893
  378SOL    HW1  134   1.200   1.519   1.930
  378SOL    HW2  135   1.135   1.612   1.813
  381SOL     OW  136   1.504   1.607   1.906
  381SOL    HW1  137   1.412   1.644   1.913
  381SOL    HW2  138   1.542   1.627   1.816
  383SOL     OW  139   1.614   1.292   3.151
  383SOL    HW1  140   1.674   1.295   3.231
  383SOL    HW2  141   1.539   1.356   3.164
  396SOL     OW  142   1.493   1.767   2.821
  396SOL    HW1  143   1.526   1.831   2.752
  396SOL    HW2  144   1.559   1.761   2.896
  409SOL     OW  145   1.861   1.569   2.713
  409SOL    HW1  146   1.790   1.557   2.643
  409SOL    HW2  147   1.862   1.490   2.773
  415SOL     OW  148   1.705   1.487   2.966
  415SOL    HW1  149   1.612   1.462   2.939
  415SOL    HW2  150   1.731   1.437   3.048
  577SOL     OW  151   0.850   2.660   1.823
  577SOL    HW1  152   0.846   2.736   1.888
  577SOL    HW2  153   0.872   2.696   1.732
  581SOL     OW  154   1.460   3.367   1.339
  581SOL    HW1  155   1.484   3.461   1.365
  581SOL    HW2  156   1.444   3.313   1.421
  585SOL     OW  157   1.127   3.203   1.690
  585SOL    HW1  158   1.174   3.203   1.778
  585SOL    HW2  159   1.079   3.116   1.679
  590SOL     OW  160   1.594   1.976   1.480
  590SOL    HW1  161   1.576   2.043   1.408
  590SOL    HW2  162   1.591   2.022   1.569
  598SOL     OW  163   1.293   3.090   1.423
  598SOL    HW1  164   1.330   3.017   1.365
  598SOL    HW2  165   1.345   3.095   1.508
  610SOL     OW  166   1.394   2.331   1.674
  610SOL    HW1  167   1.374   2.374   1.762
  610SOL    HW2  168   1.472   2.269   1.683
  611SOL     OW  169   0.973   2.752   1.572
  611SOL    HW1  170   1.019   2.668   1.543
  611SOL    HW2  171   0.917   2.786   1.497
  617SOL     OW  172   1.719   2.447   1.831
  617SOL    HW1  173   1.693   2.536   1.795
  617SOL    HW2  174   1.717   2.379   1.758
  635SOL     OW  175   1.547   2.084   1.729
  635SOL    HW1  176   1.542   2.121   1.821
  635SOL    HW2  177   1.475   2.015   1.717
  639SOL     OW  178   1.351   2.452   1.433
  639SOL    HW1  179   1.379   2.409   1.518
  639SOL    HW2  180   1.376   2.548   1.434
  646SOL     OW  181   1.076   2.545   1.464
  646SOL    HW1  182   0.996   2.484   1.467
  646SOL    HW2  183   1.157   2.492   1.440
  662SOL     OW  184   1.754   3.085   1.588
  662SOL    HW1  185   1.845   3.046   1.575
  662SOL    HW2  186   1.762   3.181   1.612
  664SOL     OW  187   1.592   3.491   1.625
  664SOL    HW1  188   1.619   3.525   1.535
  664SOL    HW2  189   1.671   3.453   1.671
  666SOL     OW  190   1.638   2.961   1.079
  666SOL    HW1  191   1.643   3.042   1.138
  666SOL    HW2  192   1.552   2.963   1.028
  668SOL     OW  193   0.980   2.978   1.719
  668SOL    HW1  194   0.881   2.984   1.729
  668SOL    HW2  195   1.003   2.898   1.663
  671SOL     OW  196   1.274   2.248   1.262
  671SOL    HW1  197   1.295   2.322   1.326
  671SOL    HW2  198   1.185   2.265   1.219
  680SOL     OW  199   1.587   2.641   1.670
  680SOL    HW1  200   1.495   2.679   1.665
  680SOL    HW2  201   1.647   2.688   1.605
  681SOL     OW  202   1.013   1.967   1.770
  681SOL    HW1  203   1.019   2.052   1.718
  681SOL    HW2  204   1.045   1.891   1.713
  689SOL     OW  205   1.728   2.797   1.854
  689SOL    HW1  206   1.682   2.790   1.765
  689SOL    HW2  207   1.666   2.841   1.920
  694SOL     OW  208   1.859   3.380   1.605
  694SOL    HW1  209   1.873   3.407   1.510
  694SOL    HW2  210   1.942   3.402   1.658
  701SOL     OW  211   1.138   2.242   1.678
  701SOL    HW1  212   1.093   2.305   1.742
  701SOL    HW2  213   1.231   2.273   1.661
  702SOL     OW  214   1.160   2.069   1.477
  702SOL    HW1  215   1.160   2.133   1.554
  702SOL    HW2  216   1.188   2.117   1.394
  709SOL     OW  217   1.369   2.812   1.660
  709SOL    HW1  218   1.408   2.901   1.680
  709SOL    HW2  219   1.379   2.792   1.563
  711SOL     OW  220   1.657   2.466   1.206
  711SOL    HW1  221   1.619   2.397   1.268
  711SOL    HW2  222   1.739   2.430   1.162
  717SOL     OW  223   1.347   2.921   1.234
  717SOL    HW1  224   1.371   2.858   1.160
  717SOL    HW2  225   1.257   2.961   1.216
  730SOL     OW  226   1.650   3.582   1.394
  730SOL    HW1  227   1.703   3.592   1.310
  730SOL    HW2  228   1.623   3.672   1.428
  731SOL     OW  229   1.841   2.037   0.963
  731SOL    HW1  230   1.880   1.952   0.927
  731SOL    HW2  231   1.743   2.039   0.944
  738SOL     OW  232   1.614   3.154   1.289
  738SOL    HW1  233   1.674   3.157   1.369
  738SOL    HW2  234   1.539   3.218   1.302
  742SOL     OW  235   1.709   2.247   1.381
  742SOL    HW1  236   1.782   2.316   1.385
  742SOL    HW2  237   1.737   2.172   1.322
  747SOL     OW  238   1.440   2.718   1.398
  747SOL    HW1  239   1.383   2.770   1.335
  747SOL    HW2  240   1.536   2.730   1.374
  753SOL     OW  241   1.450   3.082   1.633
  753SOL    HW1  242   1.441   3.072   1.732
  753SOL    HW2  243   1.546   3.075   1.607
  755SOL     OW  244   1.674   2.745   1.254
  755SOL    HW1  245   1.647   2.656   1.217
  755SOL    HW2  246   1.675   2.813   1.181
  758SOL     OW  247   1.777   2.204   1.642
  758SOL    HW1  248   1.760   2.235   1.548
  758SOL    HW2  249   1.693   2.167   1.680
  759SOL     OW  250   1.730   2.796   1.517
  759SOL    HW1  251   1.768   2.887   1.532
  759SOL    HW2  252   1.722   2.779   1.418
  768SOL     OW  253   1.824   2.054   1.227
  768SOL    HW1  254   1.820   1.964   1.271
  768SOL    HW2  255   1.827   2.043   1.128
  773SOL     OW  256   1.424   2.076   1.112
  773SOL    HW1  257   1.476   2.011   1.167
  773SOL    HW2  258   1.375   2.139   1.173
  786SOL     OW  259   1.555   3.373   2.565
  786SOL    HW1  260   1.498   3.357   2.646
  786SOL    HW2  261   1.496   3.383   2.485
  787SOL     OW  262   1.135   2.565   2.579
  787SOL    HW1  263   1.192   2.643   2.554
  787SOL    HW2  264   1.075   2.591   2.655
  788SOL     OW  265   1.755   2.469   2.093
  788SOL    HW1  266   1.743   2.456   1.994
  788SOL    HW2  267   1.725   2.388   2.142
  794SOL     OW  268   1.460   3.367   3.201
  794SOL    HW1  269   1.484   3.461   3.227
  794SOL    HW2  270   1.444   3.313   3.283
  796SOL     OW  271   1.603   2.309   2.599
  796SOL    HW1  272   1.529   2.355   2.549
  796SOL    HW2  273   1.654   2.377   2.652
  803SOL     OW  274   1.594   1.976   3.342
  803SOL    HW1  275   1.576   2.043   3.270
  803SOL    HW2  276   1.591   2.022   3.431
  805SOL     OW  277   1.842   3.629   2.221
  805SOL    HW1  278   1.896   3.600   2.301
  805SOL    HW2  279   1.872   3.719   2.192
  807SOL     OW  280   1.689   2.784   2.474
  807SOL    HW1  281   1.784   2.755   2.482
  807SOL    HW2  282   1.681   2.849   2.399
  808SOL     OW  283   1.641   2.970   2.294
  808SOL    HW1  284   1.727   2.972   2.242
  808SOL    HW2  285   1.655   3.017   2.382
  811SOL     OW  286   1.293   3.090   3.285
  811SOL    HW1  287   1.330   3.017   3.227
  811SOL    HW2  288   1.345   3.095   3.370
  812SOL     OW  289   0.809   1.866   2.364
  812SOL    HW1  290   0.849   1.957   2.355
  812SOL    HW2  291   0.709   1.874   2.370
  814SOL     OW  292   1.525   2.861   2.052
  814SOL    HW1  293   1.462   2.785   2.065
  814SOL    HW2  294   1.573   2.879   2.138
  817SOL     OW  295   1.466   3.279   2.815
  817SOL    HW1  296   1.407   3.285   2.895
  817SOL    HW2  297   1.451   3.191   2.769
  818SOL     OW  298   1.667   3.576   2.434
  818SOL    HW1  299   1.626   3.553   2.346
  818SOL    HW2  300   1.649   3.502   2.499
  820SOL     OW  301   1.281   2.207   2.806
  820SOL    HW1  302   1.195   2.157   2.793
  820SOL    HW2  303   1.343   2.153   2.862
  821SOL     OW  304   1.576   3.524   2.169
  821SOL    HW1  305   1.665   3.570   2.172
  821SOL    HW2  306   1.555   3.500   2.074
  823SOL     OW  307   1.394   2.331   3.536
  823SOL    HW1  308   1.374   2.374   3.624
  823SOL    HW2  309   1.472   2.269   3.545
  825SOL     OW  310   0.991   2.272   3.104
  825SOL    HW1  311   0.914   2.306   3.158
  825SOL    HW2  312   0.957   2.221   3.025
  826SOL     OW  313   1.041   2.563   2.291
  826SOL    HW1  314   1.067   2.559   2.387
  826SOL    HW2  315   0.956   2.512   2.277
  829SOL     OW  316   0.865   2.210   2.057
  829SOL    HW1  317   0.924   2.273   2.008
  829SOL    HW2  318   0.884   2.116   2.028
  830SOL     OW  319   1.719   2.447   3.693
  830SOL    HW1  320   1.693   2.536   3.657
  830SOL    HW2  321   1.717   2.379   3.620
  831SOL     OW  322   1.362   3.006   2.407
  831SOL    HW1  323   1.445   2.977   2.359
  831SOL    HW2  324   1.313   3.073   2.351
  833SOL     OW  325   1.008   3.318   2.339
  833SOL    HW1  326   0.962   3.390   2.287
  833SOL    HW2  327   1.004   3.338   2.437
  835SOL     OW  328   1.795   2.928   2.735
  835SOL    HW1  329   1.733   2.913   2.659
  835SOL    HW2  330   1.743   2.939   2.820
  836SOL     OW  331   1.227   3.412   3.368
  836SOL    HW1  332   1.233   3.335   3.432
  836SOL    HW2  333   1.175   3.386   3.288
  838SOL     OW  334   1.458   2.597   2.590
  838SOL    HW1  335   1.453   2.532   2.665
  838SOL    HW2  336   1.538   2.656   2.603
  842SOL     OW  337   1.632   3.239   1.943
  842SOL    HW1  338   1.600   3.333   1.933
  842SOL    HW2  339   1.556   3.176   1.931
  844SOL     OW  340   1.400   1.969   2.288
  844SOL    HW1  341   1.376   1.932   2.198
  844SOL    HW2  342   1.499   1.985   2.292
  848SOL     OW  343   1.547   2.084   3.591
  848SOL    HW1  344   1.542   2.121   3.683
  848SOL    HW2  345   1.475   2.015   3.579
  852SOL     OW  346   1.351   2.452   3.295
  852SOL    HW1  347   1.379   2.409   3.380
  852SOL    HW2  348   1.376   2.548   3.296
  854SOL     OW  349   0.922   2.365   2.761
  854SOL    HW1  350   0.897   2.356   2.665
  854SOL    HW2  351   0.970   2.283   2.792
  856SOL     OW  352   1.434   3.050   1.903
  856SOL    HW1  353   1.466   2.974   1.960
  856SOL    HW2  354   1.342   3.077   1.933
  858SOL     OW  355   0.935   2.098   2.342
  858SOL    HW1  356   0.887   2.139   2.264
  858SOL    HW2  357   1.034   2.096   2.323
  859SOL     OW  358   1.076   2.545   3.326
  859SOL    HW1  359   0.996   2.484   3.329
  859SOL    HW2  360   1.157   2.492   3.302
  860SOL     OW  361   1.227   3.432   2.655
  860SOL    HW1  362   1.248   3.506   2.590
  860SOL    HW2  363   1.295   3.432   2.728
  862SOL     OW  364   1.271   3.659   2.453
  862SOL    HW1  365   1.315   3.723   2.389
  862SOL    HW2  366   1.221   3.711   2.523
  863SOL     OW  367   1.032   2.411   1.878
  863SOL    HW1  368   0.991   2.493   1.839
  863SOL    HW2  369   1.096   2.437   1.951
  866SOL     OW  370   0.866   2.316   2.504
  866SOL    HW1  371   0.834   2.388   2.442
  866SOL    HW2  372   0.890   2.235   2.451
  867SOL     OW  373   1.017   1.901   2.615
  867SOL    HW1  374   0.945   1.906   2.546
  867SOL    HW2  375   0.993   1.832   2.684
  868SOL     OW  376   1.429   3.035   2.729
  868SOL    HW1  377   1.374   2.951   2.722
  868SOL    HW2  378   1.455   3.064   2.637
  869SOL     OW  379   1.466   2.452   2.854
  869SOL    HW1  380   1.436   2.357   2.861
  869SOL    HW2  381   1.539   2.468   2.920
  870SOL     OW  382   1.857   2.695   2.239
  870SOL    HW1  383   1.899   2.631   2.303
  870SOL    HW2  384   1.819   2.644   2.161
  872SOL     OW  385   1.664   3.142   2.519
  872SOL    HW1  386   1.763   3.150   2.533
  872SOL    HW2  387   1.619   3.226   2.550
  873SOL     OW  388   1.390   2.437   1.940
  873SOL    HW1  389   1.336   2.416   2.021
  873SOL    HW2  390   1.481   2.396   1.949
  875SOL     OW  391   1.754   3.085   3.450
  875SOL    HW1  392   1.845   3.046   3.437
  875SOL    HW2  393   1.762   3.181   3.474
  876SOL     OW  394   1.064   3.209   3.202
  876SOL    HW1  395   0.984   3.186   3.257
  876SOL    HW2  396   1.147   3.183   3.251
  877SOL     OW  397   1.592   3.491   3.487
  877SOL    HW1  398   1.619   3.525   3.397
  877SOL    HW2  399   1.671   3.453   3.533
  878SOL     OW  400   1.111   3.057   2.962
  878SOL    HW1  401   1.071   3.101   3.043
  878SOL    HW2  402   1.070   3.094   2.879
  879SOL     OW  403   1.638   2.961   2.941
  879SOL    HW1  404   1.643   3.042   3.000
  879SOL    HW2  405   1.552   2.963   2.890
  884SOL     OW  406   1.274   2.248   3.124
  884SOL    HW1  407   1.295   2.322   3.188
  884SOL    HW2  408   1.185   2.265   3.081
  888SOL     OW  409   1.252   3.210   2.250
  888SOL    HW1  410   1.302   3.287   2.290
  888SOL    HW2  411   1.157   3.212   2.282
  889SOL     OW  412   1.272   3.307   3.004
  889SOL    HW1  413   1.319   3.320   3.091
  889SOL    HW2  414   1.206   3.233   3.013
  890SOL     OW  415   1.582   2.501   2.334
  890SOL    HW1  416   1.551   2.562   2.407
  890SOL    HW2  417   1.632   2.553   2.265
  893SOL     OW  418   1.587   2.641   3.532
  893SOL    HW1  419   1.495   2.679   3.527
  893SOL    HW2  420   1.647   2.688   3.467
  897SOL     OW  421   1.360   2.724   2.907
  897SOL    HW1  422   1.285   2.724   2.841
  897SOL    HW2  423   1.397   2.632   2.916
  898SOL     OW  424   1.209   2.387   2.137
  898SOL    HW1  425   1.222   2.303   2.191
  898SOL    HW2  426   1.180   2.461   2.197
  902SOL     OW  427   1.728   2.797   3.716
  902SOL    HW1  428   1.682   2.790   3.627
  902SOL    HW2  429   1.666   2.841   3.782
  904SOL     OW  430   1.622   2.229   2.236
  904SOL    HW1  431   1.624   2.153   2.300
  904SOL    HW2  432   1.574   2.306   2.276
  905SOL     OW  433   1.023   2.628   2.828
  905SOL    HW1  434   1.038   2.649   2.924
  905SOL    HW2  435   0.993   2.533   2.819
  907SOL     OW  436   1.859   3.380   3.467
  907SOL    HW1  437   1.873   3.407   3.372
  907SOL    HW2  438   1.942   3.402   3.520
  909SOL     OW  439   1.540   2.136   1.987
  909SOL    HW1  440   1.479   2.061   2.010
  909SOL    HW2  441   1.562   2.188   2.070
  910SOL     OW  442   1.303   2.700   1.904
  910SOL    HW1  443   1.337   2.607   1.919
  910SOL    HW2  444   1.321   2.727   1.809
  911SOL     OW  445   1.068   3.195   2.711
  911SOL    HW1  446   1.075   3.111   2.656
  911SOL    HW2  447   1.130   3.264   2.675
  914SOL     OW  448   1.138   2.242   3.540
  914SOL    HW1  449   1.093   2.305   3.604
  914SOL    HW2  450   1.231   2.273   3.523
  915SOL     OW  451   1.160   2.069   3.339
  915SOL    HW1  452   1.160   2.133   3.416
  915SOL    HW2  453   1.188   2.117   3.256
  919SOL     OW  454   1.002   2.658   3.100
  919SOL    HW1  455   1.043   2.626   3.186
  919SOL    HW2  456   0.906   2.631   3.097
  922SOL     OW  457   1.369   2.812   3.522
  922SOL    HW1  458   1.408   2.901   3.542
  922SOL    HW2  459   1.379   2.792   3.425
  923SOL     OW  460   0.815   2.434   2.187
  923SOL    HW1  461   0.822   2.345   2.141
  923SOL    HW2  462   0.721   2.468   2.179
  924SOL     OW  463   1.657   2.466   3.068
  924SOL    HW1  464   1.619   2.397   3.130
  924SOL    HW2  465   1.739   2.430   3.024
  930SOL     OW  466   1.347   2.921   3.096
  930SOL    HW1  467   1.371   2.858   3.022
  930SOL    HW2  468   1.257   2.961   3.078
  931SOL     OW  469   1.302   2.717   2.171
  931SOL    HW1  470   1.216   2.686   2.213
  931SOL    HW2  471   1.298   2.703   2.072
  932SOL     OW  472   1.759   3.609   3.016
  932SOL    HW1  473   1.820   3.639   2.943
  932SOL    HW2  474   1.721   3.520   2.994
  933SOL     OW  475   1.252   3.593   2.990
  933SOL    HW1  476   1.336   3.598   2.936
  933SOL    HW2  477   1.229   3.497   3.008
  936SOL     OW  478   1.726   1.997   2.385
  936SOL    HW1  479   1.799   1.980   2.318
  936SOL    HW2  480   1.695   1.910   2.423
  937SOL     OW  481   1.388   3.435   2.339
  937SOL    HW1  482   1.455   3.447   2.265
  937SOL    HW2  483   1.348   3.524   2.362
  939SOL     OW  484   1.280   2.789   2.534
  939SOL    HW1  485   1.340   2.708   2.536
  939SOL    HW2  486   1.320   2.858   2.474
  942SOL     OW  487   1.650   3.582   3.256
  942SOL    HW1  488   1.703   3.592   3.172
  942SOL    HW2  489   1.623   3.672   3.290
  943SOL     OW  490   1.841   2.037   2.825
  943SOL    HW1  491   1.880   1.952   2.789
  943SOL    HW2  492   1.743   2.039   2.806
  945SOL     OW  493   1.194   3.474   1.893
  945SOL    HW1  494   1.200   3.381   1.930
  945SOL    HW2  495   1.135   3.474   1.813
  947SOL     OW  496   0.916   2.772   2.153
  947SOL    HW1  497   0.979   2.810   2.085
  947SOL    HW2  498   0.956   2.689   2.192
  948SOL     OW  499   1.504   3.469   1.906
  948SOL    HW1  500   1.412   3.506   1.913
  948SOL    HW2  501   1.542   3.489   1.816
  950SOL     OW  502   1.614   3.154   3.151
  950SOL    HW1  503   1.674   3.157   3.231
  950SOL    HW2  504   1.539   3.218   3.164
  951SOL     OW  505   1.039   2.960   2.558
  951SOL    HW1  506   0.969   2.913   2.612
  951SOL    HW2  507   1.098   2.892   2.515
  952SOL     OW  508   1.014   2.098   2.833
  952SOL    HW1  509   1.006   2.062   2.740
  952SOL    HW2  510   1.012   2.022   2.898
  954SOL     OW  511   1.709   2.247   3.243
  954SOL    HW1  512   1.782   2.316   3.247
  954SOL    HW2  513   1.737   2.172   3.184
  959SOL     OW  514   1.440   2.718   3.260
  959SOL    HW1  515   1.383   2.770   3.197
  959SOL    HW2  516   1.536   2.730   3.236
  961SOL     OW  517   1.183   3.197   1.981
  961SOL    HW1  518   1.084   3.186   1.983
  961SOL    HW2  519   1.217   3.212   2.074
  963SOL     OW  520   1.493   3.629   2.821
  963SOL    HW1  521   1.526   3.693   2.752
  963SOL    HW2  522   1.559   3.623   2.896
  965SOL     OW  523   1.450   3.082   3.495
  965SOL    HW1  524   1.441   3.072   3.594
  965SOL    HW2  525   1.546   3.075   3.469
  967SOL     OW  526   1.674   2.745   3.116
  967SOL    HW1  527   1.647   2.656   3.079
  967SOL    HW2  528   1.675   2.813   3.043
  968SOL     OW  529   1.225   2.187   2.311
  968SOL    HW1  530   1.290   2.113   2.300
  968SOL    HW2  531   1.245   2.237   2.395
  970SOL     OW  532   1.777   2.204   3.504
  970SOL    HW1  533   1.760   2.235   3.410
  970SOL    HW2  534   1.693   2.167   3.542
  971SOL     OW  535   1.730   2.796   3.379
  971SOL    HW1  536   1.768   2.887   3.394
  971SOL    HW2  537   1.722   2.779   3.280
  974SOL     OW  538   0.859   2.818   2.723
  974SOL    HW1  539   0.913   2.749   2.771
  974SOL    HW2  540   0.827   2.887   2.789
  975SOL     OW  541   1.083   2.846   1.949
  975SOL    HW1  542   1.060   2.899   1.867
  975SOL    HW2  543   1.164   2.790   1.930
  976SOL     OW  544   1.861   3.431   2.713
  976SOL    HW1  545   1.790   3.419   2.643
  976SOL    HW2  546   1.862   3.352   2.773
  980SOL     OW  547   1.824   2.054   3.089
  980SOL    HW1  548   1.820   1.964   3.133
  980SOL    HW2  549   1.827   2.043   2.990
  982SOL     OW  550   1.705   3.349   2.966
  982SOL    HW1  551   1.612   3.324   2.939
  982SOL    HW2  552   1.731   3.299   3.048
  985SOL     OW  553   1.424   2.076   2.974
  985SOL    HW1  554   1.476   2.011   3.029
  985SOL    HW2  555   1.375   2.139   3.035
  986SOL     OW  556   1.001   1.896   3.016
  986SOL    HW1  557   0.938   1.824   2.985
  986SOL    HW2  558   1.094   1.860   3.016
  989SOL     OW  559   1.352   1.914   2.030
  989SOL    HW1  560   1.387   1.873   1.946
  989SOL    HW2  561   1.262   1.876   2.050
  990SOL     OW  562   1.300   2.315   2.553
  990SOL    HW1  563   1.241   2.395   2.557
  990SOL    HW2  564   1.315   2.280   2.646
  991SOL     OW  565   1.593   2.083   2.744
  991SOL    HW1  566   1.509   2.082   2.798
  991SOL    HW2  567   1.595   2.166   2.688
 1000SOL     OW  568   1.755   2.469   3.955
 1000SOL    HW1  569   1.743   2.456   3.856
 1000SOL    HW2  570   1.725   2.388   4.004
 1017SOL     OW  571   1.525   2.861   3.914
 1017SOL    HW1  572   1.462   2.785   3.927
 1017SOL    HW2  573   1.573   2.879   4.000
 1034SOL     OW  574   1.632   3.239   3.805
 1034SOL    HW1  575   1.600   3.333   3.795
 1034SOL    HW2  576   1.556   3.176   3.793
 1044SOL     OW  577   1.434   3.050   3.765
 1044SOL    HW1  578   1.466   2.974   3.822
 1044SOL    HW2  579   1.342   3.077   3.795
 1055SOL     OW  580   1.857   2.695   4.101
 1055SOL    HW1  581   1.899   2.631   4.165
 1055SOL    HW2  582   1.819   2.644   4.023
 1058SOL     OW  583   1.390   2.437   3.802
 1058SOL    HW1  584   1.336   2.416   3.883
 1058SOL    HW2  585   1.481   2.396   3.811
 1077SOL     OW  586   1.540   2.136   3.849
 1077SOL    HW1  587   1.479   2.061   3.872
 1077SOL    HW2  588   1.562   2.188   3.932
 1078SOL     OW  589   1.303   2.700   3.766
 1078SOL    HW1  590   1.337   2.607   3.781
 1078SOL    HW2  591   1.321   2.727   3.671
 1317SOL     OW  592   1.400   3.831   2.288
 1317SOL    HW1  593   1.376   3.794   2.198
 1317SOL    HW2  594   1.499   3.847   2.292
 1382SOL     OW  595   1.726   3.859   2.385
 1382SOL    HW1  596   1.799   3.842   2.318
 1382SOL    HW2  597   1.695   3.772   2.423
 1384SOL     OW  598   1.841   3.899   2.825
 1384SOL    HW1  599   1.880   3.814   2.789
 1384SOL    HW2  600   1.743   3.901   2.806
 1409SOL     OW  601   1.824   3.916   3.089
 1409SOL    HW1  602   1.820   3.826   3.133
 1409SOL    HW2  603   1.827   3.905   2.990
 1415SOL     OW  604   1.352   3.776   2.030
 1415SOL    HW1  605   1.387   3.735   1.946
 1415SOL    HW2  606   1.262   3.738   2.050
 1417SOL     OW  607   1.593   3.945   2.744
 1417SOL    HW1  608   1.509   3.944   2.798
 1417SOL    HW2  609   1.595   4.028   2.688
 1522SOL     OW  610   2.431   1.275   1.165
 1522SOL    HW1  611   2.338   1.268   1.128
 1522SOL    HW2  612   2.442   1.364   1.209
 1529SOL     OW  613   2.548   1.161   1.803
 1529SOL    HW1  614   2.608   1.240   1.817
 1529SOL    HW2  615   2.462   1.192   1.762
 1530SOL     OW  616   2.197   1.435   1.061
 1530SOL    HW1  617   2.119   1.404   1.008
 1530SOL    HW2  618   2.255   1.493   1.004
 1531SOL     OW  619   3.322   1.505   1.339
 1531SOL    HW1  620   3.346   1.599   1.365
 1531SOL    HW2  621   3.306   1.451   1.421
 1535SOL     OW  622   2.989   1.341   1.690
 1535SOL    HW1  623   3.036   1.341   1.778
 1535SOL    HW2  624   2.941   1.254   1.679
 1538SOL     OW  625   2.482   1.786   1.439
 1538SOL    HW1  626   2.390   1.769   1.474
 1538SOL    HW2  627   2.510   1.878   1.465
 1548SOL     OW  628   3.155   1.228   1.423
 1548SOL    HW1  629   3.192   1.155   1.365
 1548SOL    HW2  630   3.207   1.233   1.508
 1552SOL     OW  631   3.049   1.792   1.616
 1552SOL    HW1  632   3.073   1.852   1.540
 1552SOL    HW2  633   3.056   1.697   1.586
 1565SOL     OW  634   1.992   1.821   1.571
 1565SOL    HW1  635   1.982   1.806   1.670
 1565SOL    HW2  636   1.906   1.857   1.535
 1571SOL     OW  637   2.213   1.801   0.853
 1571SOL    HW1  638   2.263   1.715   0.859
 1571SOL    HW2  639   2.278   1.878   0.850
 1573SOL     OW  640   3.089   1.550   1.506
 1573SOL    HW1  641   3.095   1.473   1.570
 1573SOL    HW2  642   3.037   1.524   1.426
 1576SOL     OW  643   2.323   1.266   1.727
 1576SOL    HW1  644   2.273   1.267   1.641
 1576SOL    HW2  645   2.260   1.248   1.803
 1582SOL     OW  646   2.111   1.785   1.241
 1582SOL    HW1  647   2.168   1.720   1.291
 1582SOL    HW2  648   2.095   1.752   1.148
 1583SOL     OW  649   2.802   1.698   0.904
 1583SOL    HW1  650   2.882   1.641   0.925
 1583SOL    HW2  651   2.753   1.658   0.827
 1588SOL     OW  652   2.750   1.514   1.195
 1588SOL    HW1  653   2.727   1.489   1.101
 1588SOL    HW2  654   2.811   1.445   1.234
 1613SOL     OW  655   2.926   1.347   1.340
 1613SOL    HW1  656   2.846   1.324   1.395
 1613SOL    HW2  657   3.009   1.321   1.389
 1614SOL     OW  658   3.454   1.629   1.625
 1614SOL    HW1  659   3.481   1.663   1.535
 1614SOL    HW2  660   3.533   1.591   1.671
 1618SOL     OW  661   2.842   1.116   1.719
 1618SOL    HW1  662   2.743   1.122   1.729
 1618SOL    HW2  663   2.865   1.036   1.663
 1622SOL     OW  664   1.926   1.564   1.331
 1622SOL    HW1  665   1.880   1.646   1.297
 1622SOL    HW2  666   2.024   1.583   1.340
 1628SOL     OW  667   2.216   1.510   1.329
 1628SOL    HW1  668   2.195   1.466   1.242
 1628SOL    HW2  669   2.313   1.536   1.332
 1637SOL     OW  670   1.899   1.310   1.282
 1637SOL    HW1  671   1.952   1.261   1.350
 1637SOL    HW2  672   1.921   1.408   1.287
 1643SOL     OW  673   2.842   1.573   1.700
 1643SOL    HW1  674   2.822   1.617   1.612
 1643SOL    HW2  675   2.881   1.482   1.684
 1645SOL     OW  676   2.212   0.898   1.804
 1645SOL    HW1  677   2.288   0.942   1.852
 1645SOL    HW2  678   2.247   0.851   1.722
 1654SOL     OW  679   1.950   1.801   0.927
 1654SOL    HW1  680   1.908   1.715   0.900
 1654SOL    HW2  681   2.044   1.804   0.893
 1662SOL     OW  682   2.114   1.564   1.744
 1662SOL    HW1  683   2.084   1.621   1.820
 1662SOL    HW2  684   2.107   1.467   1.770
 1664SOL     OW  685   2.792   1.678   1.465
 1664SOL    HW1  686   2.768   1.660   1.370
 1664SOL    HW2  687   2.822   1.772   1.475
 1666SOL     OW  688   2.021   1.137   1.466
 1666SOL    HW1  689   2.043   1.076   1.542
 1666SOL    HW2  690   2.031   1.088   1.380
 1670SOL     OW  691   3.114   1.731   1.128
 1670SOL    HW1  692   3.198   1.736   1.074
 1670SOL    HW2  693   3.091   1.635   1.146
 1672SOL     OW  694   2.550   1.662   1.716
 1672SOL    HW1  695   2.494   1.743   1.725
 1672SOL    HW2  696   2.602   1.666   1.630
 1676SOL     OW  697   1.992   1.794   1.851
 1676SOL    HW1  698   1.951   1.720   1.904
 1676SOL    HW2  699   2.056   1.845   1.909
 1678SOL     OW  700   2.692   1.273   1.422
 1678SOL    HW1  701   2.687   1.306   1.517
 1678SOL    HW2  702   2.606   1.292   1.376
 1680SOL     OW  703   3.512   1.720   1.394
 1680SOL    HW1  704   3.565   1.730   1.310
 1680SOL    HW2  705   3.485   1.810   1.428
 1687SOL     OW  706   2.234   1.288   1.490
 1687SOL    HW1  707   2.221   1.381   1.456
 1687SOL    HW2  708   2.150   1.236   1.477
 1694SOL     OW  709   1.967   1.013   1.726
 1694SOL    HW1  710   1.890   0.980   1.780
 1694SOL    HW2  711   2.052   0.983   1.768
 1702SOL     OW  712   3.312   1.220   1.633
 1702SOL    HW1  713   3.303   1.210   1.732
 1702SOL    HW2  714   3.408   1.213   1.607
 1703SOL     OW  715   2.252   1.741   1.560
 1703SOL    HW1  716   2.161   1.782   1.558
 1703SOL    HW2  717   2.245   1.647   1.592
 1710SOL     OW  718   2.523   1.790   0.953
 1710SOL    HW1  719   2.477   1.878   0.940
 1710SOL    HW2  720   2.622   1.802   0.946
 1714SOL     OW  721   2.083   1.314   1.844
 1714SOL    HW1  722   2.018   1.241   1.823
 1714SOL    HW2  723   2.087   1.328   1.942
 1716SOL     OW  724   2.534   1.391   1.624
 1716SOL    HW1  725   2.456   1.341   1.662
 1716SOL    HW2  726   2.531   1.486   1.655
 1725SOL     OW  727   2.480   1.567   1.284
 1725SOL    HW1  728   2.475   1.649   1.341
 1725SOL    HW2  729   2.569   1.564   1.239
 1733SOL     OW  730   2.431   1.275   3.027
 1733SOL    HW1  731   2.338   1.268   2.990
 1733SOL    HW2  732   2.442   1.364   3.071
 1734SOL     OW  733   3.417   1.511   2.565
 1734SOL    HW1  734   3.360   1.495   2.646
 1734SOL    HW2  735   3.358   1.521   2.485
 1737SOL     OW  736   2.630   1.144   2.885
 1737SOL    HW1  737   2.552   1.161   2.945
 1737SOL    HW2  738   2.664   1.231   2.849
 1739SOL     OW  739   2.547   1.012   2.527
 1739SOL    HW1  740   2.616   0.996   2.597
 1739SOL    HW2  741   2.474   1.069   2.565
 1740SOL     OW  742   2.548   1.161   3.665
 1740SOL    HW1  743   2.608   1.240   3.679
 1740SOL    HW2  744   2.462   1.192   3.624
 1741SOL     OW  745   2.197   1.435   2.923
 1741SOL    HW1  746   2.119   1.404   2.870
 1741SOL    HW2  747   2.255   1.493   2.866
 1742SOL     OW  748   3.322   1.505   3.201
 1742SOL    HW1  749   3.346   1.599   3.227
 1742SOL    HW2  750   3.306   1.451   3.283
 1745SOL     OW  751   2.093   1.713   2.345
 1745SOL    HW1  752   2.127   1.790   2.399
 1745SOL    HW2  753   2.137   1.713   2.255
 1746SOL     OW  754   2.989   1.341   3.552
 1746SOL    HW1  755   3.036   1.341   3.640
 1746SOL    HW2  756   2.941   1.254   3.541
 1747SOL     OW  757   2.092   1.434   2.400
 1747SOL    HW1  758   2.066   1.530   2.400
 1747SOL    HW2  759   2.021   1.380   2.445
 1748SOL     OW  760   2.102   1.091   2.748
 1748SOL    HW1  761   2.116   1.007   2.800
 1748SOL    HW2  762   2.047   1.155   2.803
 1749SOL     OW  763   2.482   1.786   3.301
 1749SOL    HW1  764   2.390   1.769   3.336
 1749SOL    HW2  765   2.510   1.878   3.327
 1750SOL     OW  766   2.468   0.964   1.985
 1750SOL    HW1  767   2.475   1.048   1.931
 1750SOL    HW2  768   2.514   0.977   2.073
 1753SOL     OW  769   3.704   1.767   2.221
 1753SOL    HW1  770   3.758   1.738   2.301
 1753SOL    HW2  771   3.734   1.857   2.192
 1754SOL     OW  772   1.889   1.596   1.979
 1754SOL    HW1  773   1.870   1.500   2.000
 1754SOL    HW2  774   1.856   1.654   2.054
 1756SOL     OW  775   3.503   1.108   2.294
 1756SOL    HW1  776   3.589   1.110   2.242
 1756SOL    HW2  777   3.517   1.155   2.382
 1758SOL     OW  778   2.475   1.365   2.588
 1758SOL    HW1  779   2.426   1.278   2.597
 1758SOL    HW2  780   2.452   1.408   2.501
 1759SOL     OW  781   3.155   1.228   3.285
 1759SOL    HW1  782   3.192   1.155   3.227
 1759SOL    HW2  783   3.207   1.233   3.370
 1761SOL     OW  784   2.059   0.976   3.126
 1761SOL    HW1  785   2.148   0.931   3.112
 1761SOL    HW2  786   1.986   0.911   3.107
 1762SOL     OW  787   3.387   0.999   2.052
 1762SOL    HW1  788   3.324   0.923   2.065
 1762SOL    HW2  789   3.435   1.017   2.138
 1763SOL     OW  790   3.049   1.792   3.478
 1763SOL    HW1  791   3.073   1.852   3.402
 1763SOL    HW2  792   3.056   1.697   3.448
 1765SOL     OW  793   3.328   1.417   2.815
 1765SOL    HW1  794   3.269   1.423   2.895
 1765SOL    HW2  795   3.313   1.329   2.769
 1766SOL     OW  796   3.529   1.714   2.434
 1766SOL    HW1  797   3.488   1.691   2.346
 1766SOL    HW2  798   3.511   1.640   2.499
 1767SOL     OW  799   2.460   0.729   2.132
 1767SOL    HW1  800   2.484   0.798   2.064
 1767SOL    HW2  801   2.382   0.762   2.186
 1769SOL     OW  802   3.438   1.662   2.169
 1769SOL    HW1  803   3.527   1.708   2.172
 1769SOL    HW2  804   3.417   1.638   2.074
 1775SOL     OW  805   1.938   0.811   2.651
 1775SOL    HW1  806   2.037   0.799   2.660
 1775SOL    HW2  807   1.914   0.906   2.672
 1776SOL     OW  808   1.992   1.821   3.433
 1776SOL    HW1  809   1.982   1.806   3.532
 1776SOL    HW2  810   1.906   1.857   3.397
 1779SOL     OW  811   3.224   1.144   2.407
 1779SOL    HW1  812   3.307   1.115   2.359
 1779SOL    HW2  813   3.175   1.211   2.351
 1781SOL     OW  814   2.870   1.456   2.339
 1781SOL    HW1  815   2.824   1.528   2.287
 1781SOL    HW2  816   2.866   1.476   2.437
 1782SOL     OW  817   2.213   1.801   2.715
 1782SOL    HW1  818   2.263   1.715   2.721
 1782SOL    HW2  819   2.278   1.878   2.712
 1784SOL     OW  820   3.089   1.550   3.368
 1784SOL    HW1  821   3.095   1.473   3.432
 1784SOL    HW2  822   3.037   1.524   3.288
 1785SOL     OW  823   2.183   0.943   2.104
 1785SOL    HW1  824   2.265   0.982   2.062
 1785SOL    HW2  825   2.156   0.861   2.055
 1787SOL     OW  826   2.323   1.266   3.589
 1787SOL    HW1  827   2.273   1.267   3.503
 1787SOL    HW2  828   2.260   1.248   3.665
 1788SOL     OW  829   2.973   1.776   2.099
 1788SOL    HW1  830   2.913   1.714   2.149
 1788SOL    HW2  831   3.004   1.732   2.014
 1790SOL     OW  832   3.494   1.377   1.943
 1790SOL    HW1  833   3.462   1.471   1.933
 1790SOL    HW2  834   3.418   1.314   1.931
 1791SOL     OW  835   2.326   1.743   2.185
 1791SOL    HW1  836   2.359   1.782   2.271
 1791SOL    HW2  837   2.402   1.736   2.120
 1793SOL     OW  838   2.111   1.785   3.103
 1793SOL    HW1  839   2.168   1.720   3.153
 1793SOL    HW2  840   2.095   1.752   3.010
 1794SOL     OW  841   2.802   1.698   2.766
 1794SOL    HW1  842   2.882   1.641   2.787
 1794SOL    HW2  843   2.753   1.658   2.689
 1799SOL     OW  844   2.750   1.514   3.057
 1799SOL    HW1  845   2.727   1.489   2.963
 1799SOL    HW2  846   2.811   1.445   3.096
 1801SOL     OW  847   2.665   1.402   2.786
 1801SOL    HW1  848   2.755   1.416   2.744
 1801SOL    HW2  849   2.594   1.404   2.715
 1804SOL     OW  850   3.296   1.188   1.903
 1804SOL    HW1  851   3.328   1.112   1.960
 1804SOL    HW2  852   3.204   1.215   1.933
 1808SOL     OW  853   3.089   1.570   2.655
 1808SOL    HW1  854   3.110   1.644   2.590
 1808SOL    HW2  855   3.157   1.570   2.728
 1809SOL     OW  856   2.321   1.152   2.603
 1809SOL    HW1  857   2.250   1.125   2.668
 1809SOL    HW2  858   2.295   1.124   2.510
 1810SOL     OW  859   3.133   1.797   2.453
 1810SOL    HW1  860   3.177   1.861   2.389
 1810SOL    HW2  861   3.083   1.849   2.523
 1816SOL     OW  862   3.291   1.173   2.729
 1816SOL    HW1  863   3.236   1.089   2.722
 1816SOL    HW2  864   3.317   1.202   2.637
 1819SOL     OW  865   2.350   1.385   2.036
 1819SOL    HW1  866   2.263   1.370   2.083
 1819SOL    HW2  867   2.333   1.411   1.941
 1820SOL     OW  868   3.526   1.280   2.519
 1820SOL    HW1  869   3.625   1.288   2.533
 1820SOL    HW2  870   3.481   1.364   2.550
 1824SOL     OW  871   2.926   1.347   3.202
 1824SOL    HW1  872   2.846   1.324   3.257
 1824SOL    HW2  873   3.009   1.321   3.251
 1825SOL     OW  874   3.454   1.629   3.487
 1825SOL    HW1  875   3.481   1.663   3.397
 1825SOL    HW2  876   3.533   1.591   3.533
 1826SOL     OW  877   2.973   1.195   2.962
 1826SOL    HW1  878   2.933   1.239   3.043
 1826SOL    HW2  879   2.932   1.232   2.879
 1827SOL     OW  880   3.500   1.099   2.941
 1827SOL    HW1  881   3.505   1.180   3.000
 1827SOL    HW2  882   3.414   1.101   2.890
 1829SOL     OW  883   2.842   1.116   3.581
 1829SOL    HW1  884   2.743   1.122   3.591
 1829SOL    HW2  885   2.865   1.036   3.525
 1830SOL     OW  886   2.567   1.050   2.230
 1830SOL    HW1  887   2.553   1.057   2.329
 1830SOL    HW2  888   2.651   0.999   2.212
 1833SOL     OW  889   1.926   1.564   3.193
 1833SOL    HW1  890   1.880   1.646   3.159
 1833SOL    HW2  891   2.024   1.583   3.202
 1834SOL     OW  892   2.229   1.100   2.363
 1834SOL    HW1  893   2.222   1.183   2.307
 1834SOL    HW2  894   2.233   1.020   2.303
 1836SOL     OW  895   3.114   1.348   2.250
 1836SOL    HW1  896   3.164   1.425   2.290
 1836SOL    HW2  897   3.019   1.350   2.282
 1837SOL     OW  898   3.134   1.445   3.004
 1837SOL    HW1  899   3.181   1.458   3.091
 1837SOL    HW2  900   3.068   1.371   3.013
 1839SOL     OW  901   2.216   1.510   3.191
 1839SOL    HW1  902   2.195   1.466   3.104
 1839SOL    HW2  903   2.313   1.536   3.194
 1844SOL     OW  904   2.435   0.870   2.891
 1844SOL    HW1  905   2.479   0.959   2.882
 1844SOL    HW2  906   2.372   0.870   2.968
 1848SOL     OW  907   1.899   1.310   3.144
 1848SOL    HW1  908   1.952   1.261   3.212
 1848SOL    HW2  909   1.921   1.408   3.149
 1854SOL     OW  910   2.842   1.573   3.562
 1854SOL    HW1  911   2.822   1.617   3.474
 1854SOL    HW2  912   2.881   1.482   3.546
 1859SOL     OW  913   2.930   1.333   2.711
 1859SOL    HW1  914   2.937   1.249   2.656
 1859SOL    HW2  915   2.992   1.402   2.675
 1860SOL     OW  916   2.181   0.810   2.811
 1860SOL    HW1  917   2.274   0.846   2.816
 1860SOL    HW2  918   2.175   0.725   2.863
 1864SOL     OW  919   1.870   1.326   2.062
 1864SOL    HW1  920   1.777   1.347   2.031
 1864SOL    HW2  921   1.880   1.227   2.075
 1865SOL     OW  922   1.950   1.801   2.789
 1865SOL    HW1  923   1.908   1.715   2.762
 1865SOL    HW2  924   2.044   1.804   2.755
 1866SOL     OW  925   2.366   1.568   2.772
 1866SOL    HW1  926   2.432   1.642   2.781
 1866SOL    HW2  927   2.410   1.489   2.730
 1873SOL     OW  928   2.114   1.564   3.606
 1873SOL    HW1  929   2.084   1.621   3.682
 1873SOL    HW2  930   2.107   1.467   3.632
 1875SOL     OW  931   2.792   1.678   3.327
 1875SOL    HW1  932   2.768   1.660   3.232
 1875SOL    HW2  933   2.822   1.772   3.337
 1877SOL     OW  934   2.021   1.137   3.328
 1877SOL    HW1  935   2.043   1.076   3.404
 1877SOL    HW2  936   2.031   1.088   3.242
 1878SOL     OW  937   3.209   1.059   3.096
 1878SOL    HW1  938   3.233   0.996   3.022
 1878SOL    HW2  939   3.119   1.099   3.078
 1879SOL     OW  940   3.164   0.855   2.171
 1879SOL    HW1  941   3.078   0.824   2.213
 1879SOL    HW2  942   3.160   0.841   2.072
 1880SOL     OW  943   3.621   1.747   3.016
 1880SOL    HW1  944   3.682   1.777   2.943
 1880SOL    HW2  945   3.583   1.658   2.994
 1881SOL     OW  946   3.114   1.731   2.990
 1881SOL    HW1  947   3.198   1.736   2.936
 1881SOL    HW2  948   3.091   1.635   3.008
 1882SOL     OW  949   1.945   1.258   2.884
 1882SOL    HW1  950   1.940   1.257   2.984
 1882SOL    HW2  951   1.862   1.217   2.846
 1883SOL     OW  952   2.550   1.662   3.578
 1883SOL    HW1  953   2.494   1.743   3.587
 1883SOL    HW2  954   2.602   1.666   3.492
 1885SOL     OW  955   3.250   1.573   2.339
 1885SOL    HW1  956   3.317   1.585   2.265
 1885SOL    HW2  957   3.210   1.662   2.362
 1886SOL     OW  958   1.992   1.794   3.713
 1886SOL    HW1  959   1.951   1.720   3.766
 1886SOL    HW2  960   2.056   1.845   3.771
 1887SOL     OW  961   3.142   0.927   2.534
 1887SOL    HW1  962   3.202   0.846   2.536
 1887SOL    HW2  963   3.182   0.996   2.474
 1888SOL     OW  964   2.692   1.273   3.284
 1888SOL    HW1  965   2.687   1.306   3.379
 1888SOL    HW2  966   2.606   1.292   3.238
 1889SOL     OW  967   2.534   1.616   2.016
 1889SOL    HW1  968   2.543   1.626   1.917
 1889SOL    HW2  969   2.494   1.527   2.037
 1890SOL     OW  970   3.512   1.720   3.256
 1890SOL    HW1  971   3.565   1.730   3.172
 1890SOL    HW2  972   3.485   1.810   3.290
 1893SOL     OW  973   3.056   1.612   1.893
 1893SOL    HW1  974   3.062   1.519   1.930
 1893SOL    HW2  975   2.997   1.612   1.813
 1894SOL     OW  976   2.684   1.002   3.234
 1894SOL    HW1  977   2.724   1.001   3.142
 1894SOL    HW2  978   2.694   1.094   3.274
 1895SOL     OW  979   2.778   0.910   2.153
 1895SOL    HW1  980   2.841   0.948   2.085
 1895SOL    HW2  981   2.818   0.827   2.192
 1896SOL     OW  982   3.366   1.607   1.906
 1896SOL    HW1  983   3.274   1.644   1.913
 1896SOL    HW2  984   3.404   1.627   1.816
 1897SOL     OW  985   2.234   1.288   3.352
 1897SOL    HW1  986   2.221   1.381   3.318
 1897SOL    HW2  987   2.150   1.236   3.339
 1898SOL     OW  988   3.476   1.292   3.151
 1898SOL    HW1  989   3.536   1.295   3.231
 1898SOL    HW2  990   3.401   1.356   3.164
 1899SOL     OW  991   2.901   1.098   2.558
 1899SOL    HW1  992   2.831   1.051   2.612
 1899SOL    HW2  993   2.960   1.030   2.515
 1901SOL     OW  994   2.452   1.487   2.353
 1901SOL    HW1  995   2.494   1.429   2.283
 1901SOL    HW2  996   2.408   1.566   2.309
 1903SOL     OW  997   2.117   1.348   2.152
 1903SOL    HW1  998   2.021   1.349   2.125
 1903SOL    HW2  999   2.129   1.401   2.236
 1909SOL     OW 1000   3.045   1.335   1.981
 1909SOL    HW1 1001   2.946   1.324   1.983
 1909SOL    HW2 1002   3.079   1.350   2.074
 1911SOL     OW 1003   3.355   1.767   2.821
 1911SOL    HW1 1004   3.388   1.831   2.752
 1911SOL    HW2 1005   3.421   1.761   2.896
 1914SOL     OW 1006   2.252   1.741   3.422
 1914SOL    HW1 1007   2.161   1.782   3.420
 1914SOL    HW2 1008   2.245   1.647   3.454
 1917SOL     OW 1009   2.456   0.745   2.514
 1917SOL    HW1 1010   2.506   0.830   2.495
 1917SOL    HW2 1011   2.368   0.747   2.466
 1920SOL     OW 1012   2.721   1.374   1.878
 1920SOL    HW1 1013   2.675   1.389   1.966
 1920SOL    HW2 1014   2.765   1.459   1.848
 1921SOL     OW 1015   2.523   1.790   2.815
 1921SOL    HW1 1016   2.477   1.878   2.802
 1921SOL    HW2 1017   2.622   1.802   2.808
 1922SOL     OW 1018   2.721   0.956   2.723
 1922SOL    HW1 1019   2.775   0.887   2.771
 1922SOL    HW2 1020   2.689   1.025   2.789
 1923SOL     OW 1021   2.945   0.984   1.949
 1923SOL    HW1 1022   2.922   1.037   1.867
 1923SOL    HW2 1023   3.026   0.928   1.930
 1924SOL     OW 1024   3.723   1.569   2.713
 1924SOL    HW1 1025   3.652   1.557   2.643
 1924SOL    HW2 1026   3.724   1.490   2.773
 1925SOL     OW 1027   2.083   1.314   3.706
 1925SOL    HW1 1028   2.018   1.241   3.685
 1925SOL    HW2 1029   2.087   1.328   3.804
 1926SOL     OW 1030   1.941   1.240   2.515
 1926SOL    HW1 1031   1.940   1.193   2.603
 1926SOL    HW2 1032   2.023   1.212   2.464
 1927SOL     OW 1033   2.534   1.391   3.486
 1927SOL    HW1 1034   2.456   1.341   3.524
 1927SOL    HW2 1035   2.531   1.486   3.517
 1930SOL     OW 1036   3.567   1.487   2.966
 1930SOL    HW1 1037   3.474   1.462   2.939
 1930SOL    HW2 1038   3.593   1.437   3.048
 1932SOL     OW 1039   2.674   1.586   2.549
 1932SOL    HW1 1040   2.706   1.596   2.455
 1932SOL    HW2 1041   2.595   1.524   2.551
 1935SOL     OW 1042   2.632   1.330   2.163
 1935SOL    HW1 1043   2.586   1.243   2.180
 1935SOL    HW2 1044   2.723   1.327   2.204
 1936SOL     OW 1045   2.480   1.567   3.146
 1936SOL    HW1 1046   2.475   1.649   3.203
 1936SOL    HW2 1047   2.569   1.564   3.101
 1940SOL     OW 1048   1.901   1.077   2.162
 1940SOL    HW1 1049   2.000   1.066   2.153
 1940SOL    HW2 1050   1.861   0.991   2.194
 1941SOL     OW 1051   2.737   1.646   2.199
 1941SOL    HW1 1052   2.660   1.611   2.145
 1941SOL    HW2 1053   2.705   1.717   2.261
 1959SOL     OW 1054   1.889   1.596   3.841
 1959SOL    HW1 1055   1.870   1.500   3.862
 1959SOL    HW2 1056   1.856   1.654   3.916
 1981SOL     OW 1057   2.973   1.776   3.961
 1981SOL    HW1 1058   2.913   1.714   4.011
 1981SOL    HW2 1059   3.004   1.732   3.876
 1983SOL     OW 1060   2.326   1.743   4.047
 1983SOL    HW1 1061   2.359   1.782   4.133
 1983SOL    HW2 1062   2.402   1.736   3.982
 2004SOL     OW 1063   2.350   1.385   3.898
 2004SOL    HW1 1064   2.263   1.370   3.945
 2004SOL    HW2 1065   2.333   1.411   3.803
 2047SOL     OW 1066   2.534   1.616   3.878
 2047SOL    HW1 1067   2.543   1.626   3.779
 2047SOL    HW2 1068   2.494   1.527   3.899
 2050SOL     OW 1069   3.056   1.612   3.755
 2050SOL    HW1 1070   3.062   1.519   3.792
 2050SOL    HW2 1071   2.997   1.612   3.675
 2053SOL     OW 1072   3.366   1.607   3.768
 2053SOL    HW1 1073   3.274   1.644   3.775
 2053SOL    HW2 1074   3.404   1.627   3.678
 2067SOL     OW 1075   2.721   1.374   3.740
 2067SOL    HW1 1076   2.675   1.389   3.828
 2067SOL    HW2 1077   2.765   1.459   3.710
 2086SOL     OW 1078   2.087   2.137   0.996
 2086SOL    HW1 1079   2.122   2.120   1.088
 2086SOL    HW2 1080   1.999   2.092   0.984
 2088SOL     OW 1081   2.431   3.137   1.165
 2088SOL    HW1 1082   2.338   3.130   1.128
 2088SOL    HW2 1083   2.442   3.226   1.209
 2092SOL     OW 1084   2.630   3.006   1.023
 2092SOL    HW1 1085   2.552   3.023   1.083
 2092SOL    HW2 1086   2.664   3.093   0.987
 2093SOL     OW 1087   2.712   2.660   1.823
 2093SOL    HW1 1088   2.708   2.736   1.888
 2093SOL    HW2 1089   2.734   2.696   1.732
 2095SOL     OW 1090   2.548   3.023   1.803
 2095SOL    HW1 1091   2.608   3.102   1.817
 2095SOL    HW2 1092   2.462   3.054   1.762
 2096SOL     OW 1093   2.197   3.297   1.061
 2096SOL    HW1 1094   2.119   3.266   1.008
 2096SOL    HW2 1095   2.255   3.355   1.004
 2097SOL     OW 1096   3.322   3.367   1.339
 2097SOL    HW1 1097   3.346   3.461   1.365
 2097SOL    HW2 1098   3.306   3.313   1.421
 2098SOL     OW 1099   2.300   2.254   1.499
 2098SOL    HW1 1100   2.382   2.198   1.508
 2098SOL    HW2 1101   2.219   2.196   1.503
 2101SOL     OW 1102   2.989   3.203   1.690
 2101SOL    HW1 1103   3.036   3.203   1.778
 2101SOL    HW2 1104   2.941   3.116   1.679
 2103SOL     OW 1105   2.102   2.953   0.886
 2103SOL    HW1 1106   2.116   2.869   0.938
 2103SOL    HW2 1107   2.047   3.017   0.941
 2104SOL     OW 1108   2.482   3.648   1.439
 2104SOL    HW1 1109   2.390   3.631   1.474
 2104SOL    HW2 1110   2.510   3.740   1.465
 2106SOL     OW 1111   3.456   1.976   1.480
 2106SOL    HW1 1112   3.438   2.043   1.408
 2106SOL    HW2 1113   3.453   2.022   1.569
 2112SOL     OW 1114   1.975   2.599   1.597
 2112SOL    HW1 1115   2.063   2.586   1.642
 2112SOL    HW2 1116   1.962   2.696   1.575
 2114SOL     OW 1117   3.155   3.090   1.423
 2114SOL    HW1 1118   3.192   3.017   1.365
 2114SOL    HW2 1119   3.207   3.095   1.508
 2116SOL     OW 1120   2.059   2.838   1.264
 2116SOL    HW1 1121   2.148   2.793   1.250
 2116SOL    HW2 1122   1.986   2.773   1.245
 2118SOL     OW 1123   3.049   3.654   1.616
 2118SOL    HW1 1124   3.073   3.714   1.540
 2118SOL    HW2 1125   3.056   3.559   1.586
 2119SOL     OW 1126   2.179   2.113   1.801
 2119SOL    HW1 1127   2.250   2.184   1.807
 2119SOL    HW2 1128   2.091   2.152   1.829
 2123SOL     OW 1129   3.143   2.207   0.944
 2123SOL    HW1 1130   3.057   2.157   0.931
 2123SOL    HW2 1131   3.205   2.153   1.000
 2125SOL     OW 1132   2.669   2.467   1.465
 2125SOL    HW1 1133   2.622   2.464   1.554
 2125SOL    HW2 1134   2.618   2.412   1.399
 2126SOL     OW 1135   3.256   2.331   1.674
 2126SOL    HW1 1136   3.236   2.374   1.762
 2126SOL    HW2 1137   3.334   2.269   1.683
 2127SOL     OW 1138   2.835   2.752   1.572
 2127SOL    HW1 1139   2.881   2.668   1.543
 2127SOL    HW2 1140   2.779   2.786   1.497
 2128SOL     OW 1141   2.853   2.272   1.242
 2128SOL    HW1 1142   2.776   2.306   1.296
 2128SOL    HW2 1143   2.819   2.221   1.163
 2130SOL     OW 1144   1.938   2.673   0.789
 2130SOL    HW1 1145   2.037   2.661   0.798
 2130SOL    HW2 1146   1.914   2.768   0.810
 2131SOL     OW 1147   1.992   3.683   1.571
 2131SOL    HW1 1148   1.982   3.668   1.670
 2131SOL    HW2 1149   1.906   3.719   1.535
 2133SOL     OW 1150   3.581   2.447   1.831
 2133SOL    HW1 1151   3.555   2.536   1.795
 2133SOL    HW2 1152   3.579   2.379   1.758
 2135SOL     OW 1153   2.412   2.058   0.885
 2135SOL    HW1 1154   2.407   2.053   0.985
 2135SOL    HW2 1155   2.414   2.154   0.856
 2139SOL     OW 1156   3.089   3.412   1.506
 2139SOL    HW1 1157   3.095   3.335   1.570
 2139SOL    HW2 1158   3.037   3.386   1.426
 2142SOL     OW 1159   2.323   3.128   1.727
 2142SOL    HW1 1160   2.273   3.129   1.641
 2142SOL    HW2 1161   2.260   3.110   1.803
 2144SOL     OW 1162   2.064   2.147   1.498
 2144SOL    HW1 1163   1.984   2.207   1.485
 2144SOL    HW2 1164   2.054   2.098   1.584
 2148SOL     OW 1165   2.111   3.647   1.241
 2148SOL    HW1 1166   2.168   3.582   1.291
 2148SOL    HW2 1167   2.095   3.614   1.148
 2151SOL     OW 1168   3.409   2.084   1.729
 2151SOL    HW1 1169   3.404   2.121   1.821
 2151SOL    HW2 1170   3.337   2.015   1.717
 2153SOL     OW 1171   2.643   2.126   1.749
 2153SOL    HW1 1172   2.710   2.065   1.792
 2153SOL    HW2 1173   2.570   2.145   1.814
 2154SOL     OW 1174   2.750   3.376   1.195
 2154SOL    HW1 1175   2.727   3.351   1.101
 2154SOL    HW2 1176   2.811   3.307   1.234
 2155SOL     OW 1177   3.213   2.452   1.433
 2155SOL    HW1 1178   3.241   2.409   1.518
 2155SOL    HW2 1179   3.238   2.548   1.434
 2156SOL     OW 1180   2.665   3.264   0.924
 2156SOL    HW1 1181   2.755   3.278   0.882
 2156SOL    HW2 1182   2.594   3.266   0.853
 2157SOL     OW 1183   2.784   2.365   0.899
 2157SOL    HW1 1184   2.759   2.356   0.803
 2157SOL    HW2 1185   2.832   2.283   0.930
 2162SOL     OW 1186   2.938   2.545   1.464
 2162SOL    HW1 1187   2.858   2.484   1.467
 2162SOL    HW2 1188   3.019   2.492   1.440
 2167SOL     OW 1189   1.940   2.418   1.386
 2167SOL    HW1 1190   2.032   2.417   1.345
 2167SOL    HW2 1191   1.934   2.492   1.453
 2168SOL     OW 1192   2.423   2.084   1.147
 2168SOL    HW1 1193   2.461   2.000   1.184
 2168SOL    HW2 1194   2.335   2.103   1.191
 2172SOL     OW 1195   3.328   2.452   0.992
 2172SOL    HW1 1196   3.298   2.357   0.999
 2172SOL    HW2 1197   3.401   2.468   1.058
 2178SOL     OW 1198   3.616   3.085   1.588
 2178SOL    HW1 1199   3.707   3.046   1.575
 2178SOL    HW2 1200   3.624   3.181   1.612
 2179SOL     OW 1201   2.926   3.209   1.340
 2179SOL    HW1 1202   2.846   3.186   1.395
 2179SOL    HW2 1203   3.009   3.183   1.389
 2180SOL     OW 1204   3.454   3.491   1.625
 2180SOL    HW1 1205   3.481   3.525   1.535
 2180SOL    HW2 1206   3.533   3.453   1.671
 2181SOL     OW 1207   2.973   3.057   1.100
 2181SOL    HW1 1208   2.933   3.101   1.181
 2181SOL    HW2 1209   2.932   3.094   1.017
 2182SOL     OW 1210   3.500   2.961   1.079
 2182SOL    HW1 1211   3.505   3.042   1.138
 2182SOL    HW2 1212   3.414   2.963   1.028
 2183SOL     OW 1213   2.777   1.951   1.402
 2183SOL    HW1 1214   2.802   1.931   1.307
 2183SOL    HW2 1215   2.849   2.007   1.444
 2184SOL     OW 1216   2.842   2.978   1.719
 2184SOL    HW1 1217   2.743   2.984   1.729
 2184SOL    HW2 1218   2.865   2.898   1.663
 2186SOL     OW 1219   2.272   2.675   1.251
 2186SOL    HW1 1220   2.358   2.687   1.301
 2186SOL    HW2 1221   2.230   2.588   1.278
 2187SOL     OW 1222   3.136   2.248   1.262
 2187SOL    HW1 1223   3.157   2.322   1.326
 2187SOL    HW2 1224   3.047   2.265   1.219
 2188SOL     OW 1225   1.926   3.426   1.331
 2188SOL    HW1 1226   1.880   3.508   1.297
 2188SOL    HW2 1227   2.024   3.445   1.340
 2190SOL     OW 1228   2.428   2.399   0.865
 2190SOL    HW1 1229   2.440   2.465   0.791
 2190SOL    HW2 1230   2.474   2.433   0.948
 2192SOL     OW 1231   3.134   3.307   1.142
 2192SOL    HW1 1232   3.181   3.320   1.229
 2192SOL    HW2 1233   3.068   3.233   1.151
 2194SOL     OW 1234   2.216   3.372   1.329
 2194SOL    HW1 1235   2.195   3.328   1.242
 2194SOL    HW2 1236   2.313   3.398   1.332
 2195SOL     OW 1237   2.264   2.613   1.598
 2195SOL    HW1 1238   2.332   2.668   1.551
 2195SOL    HW2 1239   2.304   2.525   1.625
 2196SOL     OW 1240   3.449   2.641   1.670
 2196SOL    HW1 1241   3.357   2.679   1.665
 2196SOL    HW2 1242   3.509   2.688   1.605
 2197SOL     OW 1243   2.875   1.967   1.770
 2197SOL    HW1 1244   2.881   2.052   1.718
 2197SOL    HW2 1245   2.907   1.891   1.713
 2198SOL     OW 1246   2.366   1.912   1.740
 2198SOL    HW1 1247   2.324   1.855   1.670
 2198SOL    HW2 1248   2.300   1.981   1.772
 2199SOL     OW 1249   2.435   2.732   1.029
 2199SOL    HW1 1250   2.479   2.821   1.020
 2199SOL    HW2 1251   2.372   2.732   1.106
 2200SOL     OW 1252   3.222   2.724   1.045
 2200SOL    HW1 1253   3.147   2.724   0.979
 2200SOL    HW2 1254   3.259   2.632   1.054
 2202SOL     OW 1255   2.169   2.075   1.231
 2202SOL    HW1 1256   2.146   2.112   1.321
 2202SOL    HW2 1257   2.139   1.980   1.225
 2203SOL     OW 1258   1.899   3.172   1.282
 2203SOL    HW1 1259   1.952   3.123   1.350
 2203SOL    HW2 1260   1.921   3.270   1.287
 2204SOL     OW 1261   2.594   2.496   1.064
 2204SOL    HW1 1262   2.653   2.470   0.988
 2204SOL    HW2 1263   2.566   2.592   1.053
 2205SOL     OW 1264   3.590   2.797   1.854
 2205SOL    HW1 1265   3.544   2.790   1.765
 2205SOL    HW2 1266   3.528   2.841   1.920
 2208SOL     OW 1267   2.885   2.628   0.966
 2208SOL    HW1 1268   2.900   2.649   1.062
 2208SOL    HW2 1269   2.855   2.533   0.957
 2209SOL     OW 1270   2.842   3.435   1.700
 2209SOL    HW1 1271   2.822   3.479   1.612
 2209SOL    HW2 1272   2.881   3.344   1.684
 2210SOL     OW 1273   3.721   3.380   1.605
 2210SOL    HW1 1274   3.735   3.407   1.510
 2210SOL    HW2 1275   3.804   3.402   1.658
 2211SOL     OW 1276   2.212   2.760   1.804
 2211SOL    HW1 1277   2.288   2.804   1.852
 2211SOL    HW2 1278   2.247   2.713   1.722
 2215SOL     OW 1279   2.181   2.672   0.949
 2215SOL    HW1 1280   2.274   2.708   0.954
 2215SOL    HW2 1281   2.175   2.587   1.001
 2216SOL     OW 1282   2.201   2.371   1.006
 2216SOL    HW1 1283   2.149   2.288   0.989
 2216SOL    HW2 1284   2.278   2.376   0.942
 2217SOL     OW 1285   3.000   2.242   1.678
 2217SOL    HW1 1286   2.955   2.305   1.742
 2217SOL    HW2 1287   3.093   2.273   1.661
 2218SOL     OW 1288   3.022   2.069   1.477
 2218SOL    HW1 1289   3.022   2.133   1.554
 2218SOL    HW2 1290   3.050   2.117   1.394
 2222SOL     OW 1291   2.864   2.658   1.238
 2222SOL    HW1 1292   2.905   2.626   1.324
 2222SOL    HW2 1293   2.768   2.631   1.235
 2223SOL     OW 1294   1.902   2.406   1.114
 2223SOL    HW1 1295   1.987   2.373   1.073
 2223SOL    HW2 1296   1.915   2.421   1.212
 2224SOL     OW 1297   2.051   2.382   1.722
 2224SOL    HW1 1298   2.110   2.342   1.652
 2224SOL    HW2 1299   1.993   2.453   1.681
 2225SOL     OW 1300   3.231   2.812   1.660
 2225SOL    HW1 1301   3.270   2.901   1.680
 2225SOL    HW2 1302   3.241   2.792   1.563
 2227SOL     OW 1303   3.519   2.466   1.206
 2227SOL    HW1 1304   3.481   2.397   1.268
 2227SOL    HW2 1305   3.601   2.430   1.162
 2228SOL     OW 1306   2.114   3.426   1.744
 2228SOL    HW1 1307   2.084   3.483   1.820
 2228SOL    HW2 1308   2.107   3.329   1.770
 2229SOL     OW 1309   2.533   2.326   1.269
 2229SOL    HW1 1310   2.499   2.237   1.239
 2229SOL    HW2 1311   2.559   2.380   1.189
 2230SOL     OW 1312   2.792   3.540   1.465
 2230SOL    HW1 1313   2.768   3.522   1.370
 2230SOL    HW2 1314   2.822   3.634   1.475
 2232SOL     OW 1315   2.021   2.999   1.466
 2232SOL    HW1 1316   2.043   2.938   1.542
 2232SOL    HW2 1317   2.031   2.950   1.380
 2233SOL     OW 1318   3.209   2.921   1.234
 2233SOL    HW1 1319   3.233   2.858   1.160
 2233SOL    HW2 1320   3.119   2.961   1.216
 2237SOL     OW 1321   1.945   3.120   1.022
 2237SOL    HW1 1322   1.940   3.119   1.122
 2237SOL    HW2 1323   1.862   3.079   0.984
 2238SOL     OW 1324   2.550   3.524   1.716
 2238SOL    HW1 1325   2.494   3.605   1.725
 2238SOL    HW2 1326   2.602   3.528   1.630
 2242SOL     OW 1327   1.992   3.656   1.851
 2242SOL    HW1 1328   1.951   3.582   1.904
 2242SOL    HW2 1329   2.056   3.707   1.909
 2244SOL     OW 1330   2.692   3.135   1.422
 2244SOL    HW1 1331   2.687   3.168   1.517
 2244SOL    HW2 1332   2.606   3.154   1.376
 2250SOL     OW 1333   2.684   2.864   1.372
 2250SOL    HW1 1334   2.724   2.863   1.280
 2250SOL    HW2 1335   2.694   2.956   1.412
 2253SOL     OW 1336   2.234   3.150   1.490
 2253SOL    HW1 1337   2.221   3.243   1.456
 2253SOL    HW2 1338   2.150   3.098   1.477
 2254SOL     OW 1339   3.476   3.154   1.289
 2254SOL    HW1 1340   3.536   3.157   1.369
 2254SOL    HW2 1341   3.401   3.218   1.302
 2256SOL     OW 1342   2.876   2.098   0.971
 2256SOL    HW1 1343   2.868   2.062   0.878
 2256SOL    HW2 1344   2.874   2.022   1.036
 2258SOL     OW 1345   3.571   2.247   1.381
 2258SOL    HW1 1346   3.644   2.316   1.385
 2258SOL    HW2 1347   3.599   2.172   1.322
 2260SOL     OW 1348   1.967   2.875   1.726
 2260SOL    HW1 1349   1.890   2.842   1.780
 2260SOL    HW2 1350   2.052   2.845   1.768
 2261SOL     OW 1351   2.534   2.065   1.489
 2261SOL    HW1 1352   2.624   2.049   1.449
 2261SOL    HW2 1353   2.542   2.070   1.588
 2262SOL     OW 1354   3.302   2.718   1.398
 2262SOL    HW1 1355   3.245   2.770   1.335
 2262SOL    HW2 1356   3.398   2.730   1.374
 2265SOL     OW 1357   2.475   2.704   1.431
 2265SOL    HW1 1358   2.531   2.785   1.414
 2265SOL    HW2 1359   2.534   2.624   1.434
 2267SOL     OW 1360   2.578   2.427   1.708
 2267SOL    HW1 1361   2.597   2.492   1.782
 2267SOL    HW2 1362   2.638   2.347   1.717
 2268SOL     OW 1363   3.312   3.082   1.633
 2268SOL    HW1 1364   3.303   3.072   1.732
 2268SOL    HW2 1365   3.408   3.075   1.607
 2269SOL     OW 1366   2.252   3.603   1.560
 2269SOL    HW1 1367   2.161   3.644   1.558
 2269SOL    HW2 1368   2.245   3.509   1.592
 2270SOL     OW 1369   3.536   2.745   1.254
 2270SOL    HW1 1370   3.509   2.656   1.217
 2270SOL    HW2 1371   3.537   2.813   1.181
 2273SOL     OW 1372   3.639   2.204   1.642
 2273SOL    HW1 1373   3.622   2.235   1.548
 2273SOL    HW2 1374   3.555   2.167   1.680
 2274SOL     OW 1375   3.592   2.796   1.517
 2274SOL    HW1 1376   3.630   2.887   1.532
 2274SOL    HW2 1377   3.584   2.779   1.418
 2277SOL     OW 1378   2.721   2.818   0.861
 2277SOL    HW1 1379   2.775   2.749   0.909
 2277SOL    HW2 1380   2.689   2.887   0.927
 2280SOL     OW 1381   2.083   3.176   1.844
 2280SOL    HW1 1382   2.018   3.103   1.823
 2280SOL    HW2 1383   2.087   3.190   1.942
 2282SOL     OW 1384   2.534   3.253   1.624
 2282SOL    HW1 1385   2.456   3.203   1.662
 2282SOL    HW2 1386   2.531   3.348   1.655
 2283SOL     OW 1387   3.686   2.054   1.227
 2283SOL    HW1 1388   3.682   1.964   1.271
 2283SOL    HW2 1389   3.689   2.043   1.128
 2286SOL     OW 1390   2.179   2.409   1.280
 2286SOL    HW1 1391   2.217   2.350   1.352
 2286SOL    HW2 1392   2.219   2.383   1.192
 2288SOL     OW 1393   3.286   2.076   1.112
 2288SOL    HW1 1394   3.338   2.011   1.167
 2288SOL    HW2 1395   3.237   2.139   1.173
 2289SOL     OW 1396   2.863   1.896   1.154
 2289SOL    HW1 1397   2.800   1.824   1.123
 2289SOL    HW2 1398   2.956   1.860   1.154
 2291SOL     OW 1399   2.480   3.429   1.284
 2291SOL    HW1 1400   2.475   3.511   1.341
 2291SOL    HW2 1401   2.569   3.426   1.239
 2296SOL     OW 1402   2.092   2.490   1.975
 2296SOL    HW1 1403   1.999   2.488   2.012
 2296SOL    HW2 1404   2.093   2.451   1.883
 2297SOL     OW 1405   2.087   2.137   2.858
 2297SOL    HW1 1406   2.122   2.120   2.950
 2297SOL    HW2 1407   1.999   2.092   2.846
 2298SOL     OW 1408   1.881   2.230   2.509
 2298SOL    HW1 1409   1.799   2.273   2.548
 2298SOL    HW2 1410   1.853   2.157   2.446
 2299SOL     OW 1411   2.431   3.137   3.027
 2299SOL    HW1 1412   2.338   3.130   2.990
 2299SOL    HW2 1413   2.442   3.226   3.071
 2300SOL     OW 1414   3.417   3.373   2.565
 2300SOL    HW1 1415   3.360   3.357   2.646
 2300SOL    HW2 1416   3.358   3.383   2.485
 2301SOL     OW 1417   2.997   2.565   2.579
 2301SOL    HW1 1418   3.054   2.643   2.554
 2301SOL    HW2 1419   2.937   2.591   2.655
 2302SOL     OW 1420   3.617   2.469   2.093
 2302SOL    HW1 1421   3.605   2.456   1.994
 2302SOL    HW2 1422   3.587   2.388   2.142
 2303SOL     OW 1423   2.630   3.006   2.885
 2303SOL    HW1 1424   2.552   3.023   2.945
 2303SOL    HW2 1425   2.664   3.093   2.849
 2304SOL     OW 1426   2.712   2.660   3.685
 2304SOL    HW1 1427   2.708   2.736   3.750
 2304SOL    HW2 1428   2.734   2.696   3.594
 2305SOL     OW 1429   2.547   2.874   2.527
 2305SOL    HW1 1430   2.616   2.858   2.597
 2305SOL    HW2 1431   2.474   2.931   2.565
 2306SOL     OW 1432   2.548   3.023   3.665
 2306SOL    HW1 1433   2.608   3.102   3.679
 2306SOL    HW2 1434   2.462   3.054   3.624
 2307SOL     OW 1435   2.197   3.297   2.923
 2307SOL    HW1 1436   2.119   3.266   2.870
 2307SOL    HW2 1437   2.255   3.355   2.866
 2308SOL     OW 1438   3.322   3.367   3.201
 2308SOL    HW1 1439   3.346   3.461   3.227
 2308SOL    HW2 1440   3.306   3.313   3.283
 2309SOL     OW 1441   2.300   2.254   3.361
 2309SOL    HW1 1442   2.382   2.198   3.370
 2309SOL    HW2 1443   2.219   2.196   3.365
 2310SOL     OW 1444   3.465   2.309   2.599
 2310SOL    HW1 1445   3.391   2.355   2.549
 2310SOL    HW2 1446   3.516   2.377   2.652
 2311SOL     OW 1447   2.093   3.575   2.345
 2311SOL    HW1 1448   2.127   3.652   2.399
 2311SOL    HW2 1449   2.137   3.575   2.255
 2312SOL     OW 1450   2.989   3.203   3.552
 2312SOL    HW1 1451   3.036   3.203   3.640
 2312SOL    HW2 1452   2.941   3.116   3.541
 2313SOL     OW 1453   2.092   3.296   2.400
 2313SOL    HW1 1454   2.066   3.392   2.400
 2313SOL    HW2 1455   2.021   3.242   2.445
 2314SOL     OW 1456   2.102   2.953   2.748
 2314SOL    HW1 1457   2.116   2.869   2.800
 2314SOL    HW2 1458   2.047   3.017   2.803
 2315SOL     OW 1459   2.482   3.648   3.301
 2315SOL    HW1 1460   2.390   3.631   3.336
 2315SOL    HW2 1461   2.510   3.740   3.327
 2316SOL     OW 1462   2.468   2.826   1.985
 2316SOL    HW1 1463   2.475   2.910   1.931
 2316SOL    HW2 1464   2.514   2.839   2.073
 2317SOL     OW 1465   3.456   1.976   3.342
 2317SOL    HW1 1466   3.438   2.043   3.270
 2317SOL    HW2 1467   3.453   2.022   3.431
 2318SOL     OW 1468   1.984   2.505   2.425
 2318SOL    HW1 1469   1.939   2.417   2.442
 2318SOL    HW2 1470   1.983   2.559   2.509
 2319SOL     OW 1471   3.704   3.629   2.221
 2319SOL    HW1 1472   3.758   3.600   2.301
 2319SOL    HW2 1473   3.734   3.719   2.192
 2320SOL     OW 1474   1.889   3.458   1.979
 2320SOL    HW1 1475   1.870   3.362   2.000
 2320SOL    HW2 1476   1.856   3.516   2.054
 2321SOL     OW 1477   3.551   2.784   2.474
 2321SOL    HW1 1478   3.646   2.755   2.482
 2321SOL    HW2 1479   3.543   2.849   2.399
 2322SOL     OW 1480   3.503   2.970   2.294
 2322SOL    HW1 1481   3.589   2.972   2.242
 2322SOL    HW2 1482   3.517   3.017   2.382
 2323SOL     OW 1483   1.975   2.599   3.459
 2323SOL    HW1 1484   2.063   2.586   3.504
 2323SOL    HW2 1485   1.962   2.696   3.437
 2324SOL     OW 1486   2.475   3.227   2.588
 2324SOL    HW1 1487   2.426   3.140   2.597
 2324SOL    HW2 1488   2.452   3.270   2.501
 2325SOL     OW 1489   3.155   3.090   3.285
 2325SOL    HW1 1490   3.192   3.017   3.227
 2325SOL    HW2 1491   3.207   3.095   3.370
 2326SOL     OW 1492   2.671   1.866   2.364
 2326SOL    HW1 1493   2.711   1.957   2.355
 2326SOL    HW2 1494   2.571   1.874   2.370
 2327SOL     OW 1495   2.059   2.838   3.126
 2327SOL    HW1 1496   2.148   2.793   3.112
 2327SOL    HW2 1497   1.986   2.773   3.107
 2328SOL     OW 1498   3.387   2.861   2.052
 2328SOL    HW1 1499   3.324   2.785   2.065
 2328SOL    HW2 1500   3.435   2.879   2.138
 2329SOL     OW 1501   3.049   3.654   3.478
 2329SOL    HW1 1502   3.073   3.714   3.402
 2329SOL    HW2 1503   3.056   3.559   3.448
 2330SOL     OW 1504   2.179   2.113   3.663
 2330SOL    HW1 1505   2.250   2.184   3.669
 2330SOL    HW2 1506   2.091   2.152   3.691
 2331SOL     OW 1507   3.328   3.279   2.815
 2331SOL    HW1 1508   3.269   3.285   2.895
 2331SOL    HW2 1509   3.313   3.191   2.769
 2332SOL     OW 1510   3.529   3.576   2.434
 2332SOL    HW1 1511   3.488   3.553   2.346
 2332SOL    HW2 1512   3.511   3.502   2.499
 2333SOL     OW 1513   3.143   2.207   2.806
 2333SOL    HW1 1514   3.057   2.157   2.793
 2333SOL    HW2 1515   3.205   2.153   2.862
 2334SOL     OW 1516   3.438   3.524   2.169
 2334SOL    HW1 1517   3.527   3.570   2.172
 2334SOL    HW2 1518   3.417   3.500   2.074
 2335SOL     OW 1519   2.669   2.467   3.327
 2335SOL    HW1 1520   2.622   2.464   3.416
 2335SOL    HW2 1521   2.618   2.412   3.261
 2336SOL     OW 1522   3.256   2.331   3.536
 2336SOL    HW1 1523   3.236   2.374   3.624
 2336SOL    HW2 1524   3.334   2.269   3.545
 2337SOL     OW 1525   2.835   2.752   3.434
 2337SOL    HW1 1526   2.881   2.668   3.405
 2337SOL    HW2 1527   2.779   2.786   3.359
 2338SOL     OW 1528   2.853   2.272   3.104
 2338SOL    HW1 1529   2.776   2.306   3.158
 2338SOL    HW2 1530   2.819   2.221   3.025
 2339SOL     OW 1531   2.903   2.563   2.291
 2339SOL    HW1 1532   2.929   2.559   2.387
 2339SOL    HW2 1533   2.818   2.512   2.277
 2340SOL     OW 1534   1.938   2.673   2.651
 2340SOL    HW1 1535   2.037   2.661   2.660
 2340SOL    HW2 1536   1.914   2.768   2.672
 2341SOL     OW 1537   1.992   3.683   3.433
 2341SOL    HW1 1538   1.982   3.668   3.532
 2341SOL    HW2 1539   1.906   3.719   3.397
 2342SOL     OW 1540   2.727   2.210   2.057
 2342SOL    HW1 1541   2.786   2.273   2.008
 2342SOL    HW2 1542   2.746   2.116   2.028
 2343SOL     OW 1543   3.581   2.447   3.693
 2343SOL    HW1 1544   3.555   2.536   3.657
 2343SOL    HW2 1545   3.579   2.379   3.620
 2344SOL     OW 1546   3.224   3.006   2.407
 2344SOL    HW1 1547   3.307   2.977   2.359
 2344SOL    HW2 1548   3.175   3.073   2.351
 2345SOL     OW 1549   2.870   3.318   2.339
 2345SOL    HW1 1550   2.824   3.390   2.287
 2345SOL    HW2 1551   2.866   3.338   2.437
 2346SOL     OW 1552   2.213   3.663   2.715
 2346SOL    HW1 1553   2.263   3.577   2.721
 2346SOL    HW2 1554   2.278   3.740   2.712
 2347SOL     OW 1555   3.657   2.928   2.735
 2347SOL    HW1 1556   3.595   2.913   2.659
 2347SOL    HW2 1557   3.605   2.939   2.820
 2348SOL     OW 1558   3.089   3.412   3.368
 2348SOL    HW1 1559   3.095   3.335   3.432
 2348SOL    HW2 1560   3.037   3.386   3.288
 2349SOL     OW 1561   2.183   2.805   2.104
 2349SOL    HW1 1562   2.265   2.844   2.062
 2349SOL    HW2 1563   2.156   2.723   2.055
 2350SOL     OW 1564   3.320   2.597   2.590
 2350SOL    HW1 1565   3.315   2.532   2.665
 2350SOL    HW2 1566   3.400   2.656   2.603
 2351SOL     OW 1567   2.323   3.128   3.589
 2351SOL    HW1 1568   2.273   3.129   3.503
 2351SOL    HW2 1569   2.260   3.110   3.665
 2352SOL     OW 1570   2.973   3.638   2.099
 2352SOL    HW1 1571   2.913   3.576   2.149
 2352SOL    HW2 1572   3.004   3.594   2.014
 2353SOL     OW 1573   2.064   2.147   3.360
 2353SOL    HW1 1574   1.984   2.207   3.347
 2353SOL    HW2 1575   2.054   2.098   3.446
 2354SOL     OW 1576   3.494   3.239   1.943
 2354SOL    HW1 1577   3.462   3.333   1.933
 2354SOL    HW2 1578   3.418   3.176   1.931
 2355SOL     OW 1579   2.326   3.605   2.185
 2355SOL    HW1 1580   2.359   3.644   2.271
 2355SOL    HW2 1581   2.402   3.598   2.120
 2356SOL     OW 1582   3.262   1.969   2.288
 2356SOL    HW1 1583   3.238   1.932   2.198
 2356SOL    HW2 1584   3.361   1.985   2.292
 2357SOL     OW 1585   2.111   3.647   3.103
 2357SOL    HW1 1586   2.168   3.582   3.153
 2357SOL    HW2 1587   2.095   3.614   3.010
 2358SOL     OW 1588   2.802   3.560   2.766
 2358SOL    HW1 1589   2.882   3.503   2.787
 2358SOL    HW2 1590   2.753   3.520   2.689
 2359SOL     OW 1591   3.409   2.084   3.591
 2359SOL    HW1 1592   3.404   2.121   3.683
 2359SOL    HW2 1593   3.337   2.015   3.579
 2360SOL     OW 1594   2.476   1.984   1.979
 2360SOL    HW1 1595   2.574   1.962   1.986
 2360SOL    HW2 1596   2.445   1.967   1.886
 2361SOL     OW 1597   2.643   2.126   3.611
 2361SOL    HW1 1598   2.710   2.065   3.654
 2361SOL    HW2 1599   2.570   2.145   3.676
 2362SOL     OW 1600   2.750   3.376   3.057
 2362SOL    HW1 1601   2.727   3.351   2.963
 2362SOL    HW2 1602   2.811   3.307   3.096
 2363SOL     OW 1603   3.213   2.452   3.295
 2363SOL    HW1 1604   3.241   2.409   3.380
 2363SOL    HW2 1605   3.238   2.548   3.296
 2364SOL     OW 1606   2.665   3.264   2.786
 2364SOL    HW1 1607   2.755   3.278   2.744
 2364SOL    HW2 1608   2.594   3.266   2.715
 2365SOL     OW 1609   2.401   1.926   2.374
 2365SOL    HW1 1610   2.320   1.927   2.432
 2365SOL    HW2 1611   2.404   2.009   2.319
 2366SOL     OW 1612   3.296   3.050   1.903
 2366SOL    HW1 1613   3.328   2.974   1.960
 2366SOL    HW2 1614   3.204   3.077   1.933
 2367SOL     OW 1615   2.159   1.897   2.033
 2367SOL    HW1 1616   2.208   1.981   2.012
 2367SOL    HW2 1617   2.221   1.832   2.078
 2368SOL     OW 1618   2.797   2.098   2.342
 2368SOL    HW1 1619   2.749   2.139   2.264
 2368SOL    HW2 1620   2.896   2.096   2.323
 2369SOL     OW 1621   2.938   2.545   3.326
 2369SOL    HW1 1622   2.858   2.484   3.329
 2369SOL    HW2 1623   3.019   2.492   3.302
 2370SOL     OW 1624   3.089   3.432   2.655
 2370SOL    HW1 1625   3.110   3.506   2.590
 2370SOL    HW2 1626   3.157   3.432   2.728
 2371SOL     OW 1627   2.321   3.014   2.603
 2371SOL    HW1 1628   2.250   2.987   2.668
 2371SOL    HW2 1629   2.295   2.986   2.510
 2372SOL     OW 1630   3.133   3.659   2.453
 2372SOL    HW1 1631   3.177   3.723   2.389
 2372SOL    HW2 1632   3.083   3.711   2.523
 2373SOL     OW 1633   2.894   2.411   1.878
 2373SOL    HW1 1634   2.853   2.493   1.839
 2373SOL    HW2 1635   2.958   2.437   1.951
 2374SOL     OW 1636   1.940   2.418   3.248
 2374SOL    HW1 1637   2.032   2.417   3.207
 2374SOL    HW2 1638   1.934   2.492   3.315
 2375SOL     OW 1639   2.423   2.084   3.009
 2375SOL    HW1 1640   2.461   2.000   3.046
 2375SOL    HW2 1641   2.335   2.103   3.053
 2376SOL     OW 1642   2.879   1.901   2.615
 2376SOL    HW1 1643   2.807   1.906   2.546
 2376SOL    HW2 1644   2.855   1.832   2.684
 2377SOL     OW 1645   3.291   3.035   2.729
 2377SOL    HW1 1646   3.236   2.951   2.722
 2377SOL    HW2 1647   3.317   3.064   2.637
 2378SOL     OW 1648   3.328   2.452   2.854
 2378SOL    HW1 1649   3.298   2.357   2.861
 2378SOL    HW2 1650   3.401   2.468   2.920
 2379SOL     OW 1651   3.719   2.695   2.239
 2379SOL    HW1 1652   3.761   2.631   2.303
 2379SOL    HW2 1653   3.681   2.644   2.161
 2380SOL     OW 1654   2.350   3.247   2.036
 2380SOL    HW1 1655   2.263   3.232   2.083
 2380SOL    HW2 1656   2.333   3.273   1.941
 2381SOL     OW 1657   3.526   3.142   2.519
 2381SOL    HW1 1658   3.625   3.150   2.533
 2381SOL    HW2 1659   3.481   3.226   2.550
 2382SOL     OW 1660   3.252   2.437   1.940
 2382SOL    HW1 1661   3.198   2.416   2.021
 2382SOL    HW2 1662   3.343   2.396   1.949
 2383SOL     OW 1663   2.389   2.118   2.190
 2383SOL    HW1 1664   2.416   2.059   2.115
 2383SOL    HW2 1665   2.389   2.213   2.159
 2384SOL     OW 1666   3.616   3.085   3.450
 2384SOL    HW1 1667   3.707   3.046   3.437
 2384SOL    HW2 1668   3.624   3.181   3.474
 2385SOL     OW 1669   2.926   3.209   3.202
 2385SOL    HW1 1670   2.846   3.186   3.257
 2385SOL    HW2 1671   3.009   3.183   3.251
 2386SOL     OW 1672   3.454   3.491   3.487
 2386SOL    HW1 1673   3.481   3.525   3.397
 2386SOL    HW2 1674   3.533   3.453   3.533
 2387SOL     OW 1675   2.973   3.057   2.962
 2387SOL    HW1 1676   2.933   3.101   3.043
 2387SOL    HW2 1677   2.932   3.094   2.879
 2388SOL     OW 1678   3.500   2.961   2.941
 2388SOL    HW1 1679   3.505   3.042   3.000
 2388SOL    HW2 1680   3.414   2.963   2.890
 2389SOL     OW 1681   2.777   1.951   3.264
 2389SOL    HW1 1682   2.802   1.931   3.169
 2389SOL    HW2 1683   2.849   2.007   3.306
 2390SOL     OW 1684   2.842   2.978   3.581
 2390SOL    HW1 1685   2.743   2.984   3.591
 2390SOL    HW2 1686   2.865   2.898   3.525
 2391SOL     OW 1687   2.567   2.912   2.230
 2391SOL    HW1 1688   2.553   2.919   2.329
 2391SOL    HW2 1689   2.651   2.861   2.212
 2392SOL     OW 1690   2.272   2.675   3.113
 2392SOL    HW1 1691   2.358   2.687   3.163
 2392SOL    HW2 1692   2.230   2.588   3.140
 2393SOL     OW 1693   3.136   2.248   3.124
 2393SOL    HW1 1694   3.157   2.322   3.188
 2393SOL    HW2 1695   3.047   2.265   3.081
 2394SOL     OW 1696   1.926   3.426   3.193
 2394SOL    HW1 1697   1.880   3.508   3.159
 2394SOL    HW2 1698   2.024   3.445   3.202
 2395SOL     OW 1699   3.114   3.210   2.250
 2395SOL    HW1 1700   3.164   3.287   2.290
 2395SOL    HW2 1701   3.019   3.212   2.282
 2396SOL     OW 1702   3.134   3.307   3.004
 2396SOL    HW1 1703   3.181   3.320   3.091
 2396SOL    HW2 1704   3.068   3.233   3.013
 2397SOL     OW 1705   3.444   2.501   2.334
 2397SOL    HW1 1706   3.413   2.562   2.407
 2397SOL    HW2 1707   3.494   2.553   2.265
 2398SOL     OW 1708   2.216   3.372   3.191
 2398SOL    HW1 1709   2.195   3.328   3.104
 2398SOL    HW2 1710   2.313   3.398   3.194
 2399SOL     OW 1711   2.264   2.613   3.460
 2399SOL    HW1 1712   2.332   2.668   3.413
 2399SOL    HW2 1713   2.304   2.525   3.487
 2400SOL     OW 1714   3.449   2.641   3.532
 2400SOL    HW1 1715   3.357   2.679   3.527
 2400SOL    HW2 1716   3.509   2.688   3.467
 2401SOL     OW 1717   2.875   1.967   3.632
 2401SOL    HW1 1718   2.881   2.052   3.580
 2401SOL    HW2 1719   2.907   1.891   3.575
 2402SOL     OW 1720   2.366   1.912   3.602
 2402SOL    HW1 1721   2.324   1.855   3.532
 2402SOL    HW2 1722   2.300   1.981   3.634
 2403SOL     OW 1723   2.435   2.732   2.891
 2403SOL    HW1 1724   2.479   2.821   2.882
 2403SOL    HW2 1725   2.372   2.732   2.968
 2404SOL     OW 1726   3.222   2.724   2.907
 2404SOL    HW1 1727   3.147   2.724   2.841
 2404SOL    HW2 1728   3.259   2.632   2.916
 2405SOL     OW 1729   3.071   2.387   2.137
 2405SOL    HW1 1730   3.084   2.303   2.191
 2405SOL    HW2 1731   3.042   2.461   2.197
 2406SOL     OW 1732   2.169   2.075   3.093
 2406SOL    HW1 1733   2.146   2.112   3.183
 2406SOL    HW2 1734   2.139   1.980   3.087
 2407SOL     OW 1735   1.899   3.172   3.144
 2407SOL    HW1 1736   1.952   3.123   3.212
 2407SOL    HW2 1737   1.921   3.270   3.149
 2408SOL     OW 1738   2.594   2.496   2.926
 2408SOL    HW1 1739   2.653   2.470   2.850
 2408SOL    HW2 1740   2.566   2.592   2.915
 2409SOL     OW 1741   3.590   2.797   3.716
 2409SOL    HW1 1742   3.544   2.790   3.627
 2409SOL    HW2 1743   3.528   2.841   3.782
 2410SOL     OW 1744   2.169   1.925   2.480
 2410SOL    HW1 1745   2.158   2.019   2.513
 2410SOL    HW2 1746   2.164   1.862   2.557
 2411SOL     OW 1747   3.484   2.229   2.236
 2411SOL    HW1 1748   3.486   2.153   2.300
 2411SOL    HW2 1749   3.436   2.306   2.276
 2412SOL     OW 1750   2.885   2.628   2.828
 2412SOL    HW1 1751   2.900   2.649   2.924
 2412SOL    HW2 1752   2.855   2.533   2.819
 2413SOL     OW 1753   2.842   3.435   3.562
 2413SOL    HW1 1754   2.822   3.479   3.474
 2413SOL    HW2 1755   2.881   3.344   3.546
 2415SOL     OW 1756   2.212   2.760   3.666
 2415SOL    HW1 1757   2.288   2.804   3.714
 2415SOL    HW2 1758   2.247   2.713   3.584
 2416SOL     OW 1759   3.402   2.136   1.987
 2416SOL    HW1 1760   3.341   2.061   2.010
 2416SOL    HW2 1761   3.424   2.188   2.070
 2417SOL     OW 1762   3.165   2.700   1.904
 2417SOL    HW1 1763   3.199   2.607   1.919
 2417SOL    HW2 1764   3.183   2.727   1.809
 2418SOL     OW 1765   2.930   3.195   2.711
 2418SOL    HW1 1766   2.937   3.111   2.656
 2418SOL    HW2 1767   2.992   3.264   2.675
 2419SOL     OW 1768   2.181   2.672   2.811
 2419SOL    HW1 1769   2.274   2.708   2.816
 2419SOL    HW2 1770   2.175   2.587   2.863
 2420SOL     OW 1771   2.201   2.371   2.868
 2420SOL    HW1 1772   2.149   2.288   2.851
 2420SOL    HW2 1773   2.278   2.376   2.804
 2421SOL     OW 1774   3.000   2.242   3.540
 2421SOL    HW1 1775   2.955   2.305   3.604
 2421SOL    HW2 1776   3.093   2.273   3.523
 2422SOL     OW 1777   3.022   2.069   3.339
 2422SOL    HW1 1778   3.022   2.133   3.416
 2422SOL    HW2 1779   3.050   2.117   3.256
 2423SOL     OW 1780   1.870   3.188   2.062
 2423SOL    HW1 1781   1.777   3.209   2.031
 2423SOL    HW2 1782   1.880   3.089   2.075
 2424SOL     OW 1783   1.950   3.663   2.789
 2424SOL    HW1 1784   1.908   3.577   2.762
 2424SOL    HW2 1785   2.044   3.666   2.755
 2425SOL     OW 1786   2.366   3.430   2.772
 2425SOL    HW1 1787   2.432   3.504   2.781
 2425SOL    HW2 1788   2.410   3.351   2.730
 2426SOL     OW 1789   2.864   2.658   3.100
 2426SOL    HW1 1790   2.905   2.626   3.186
 2426SOL    HW2 1791   2.768   2.631   3.097
 2427SOL     OW 1792   1.902   2.406   2.976
 2427SOL    HW1 1793   1.987   2.373   2.935
 2427SOL    HW2 1794   1.915   2.421   3.074
 2428SOL     OW 1795   2.051   2.382   3.584
 2428SOL    HW1 1796   2.110   2.342   3.514
 2428SOL    HW2 1797   1.993   2.453   3.543
 2429SOL     OW 1798   3.231   2.812   3.522
 2429SOL    HW1 1799   3.270   2.901   3.542
 2429SOL    HW2 1800   3.241   2.792   3.425
 2430SOL     OW 1801   3.519   2.466   3.068
 2430SOL    HW1 1802   3.481   2.397   3.130
 2430SOL    HW2 1803   3.601   2.430   3.024
 2431SOL     OW 1804   2.114   3.426   3.606
 2431SOL    HW1 1805   2.084   3.483   3.682
 2431SOL    HW2 1806   2.107   3.329   3.632
 2432SOL     OW 1807   2.533   2.326   3.131
 2432SOL    HW1 1808   2.499   2.237   3.101
 2432SOL    HW2 1809   2.559   2.380   3.051
 2433SOL     OW 1810   2.792   3.540   3.327
 2433SOL    HW1 1811   2.768   3.522   3.232
 2433SOL    HW2 1812   2.822   3.634   3.337
 2434SOL     OW 1813   2.335   2.362   2.053
 2434SOL    HW1 1814   2.396   2.442   2.057
 2434SOL    HW2 1815   2.240   2.393   2.060
 2435SOL     OW 1816   2.021   2.999   3.328
 2435SOL    HW1 1817   2.043   2.938   3.404
 2435SOL    HW2 1818   2.031   2.950   3.242
 2436SOL     OW 1819   3.209   2.921   3.096
 2436SOL    HW1 1820   3.233   2.858   3.022
 2436SOL    HW2 1821   3.119   2.961   3.078
 2437SOL     OW 1822   3.164   2.717   2.171
 2437SOL    HW1 1823   3.078   2.686   2.213
 2437SOL    HW2 1824   3.160   2.703   2.072
 2438SOL     OW 1825   3.621   3.609   3.016
 2438SOL    HW1 1826   3.682   3.639   2.943
 2438SOL    HW2 1827   3.583   3.520   2.994
 2439SOL     OW 1828   3.114   3.593   2.990
 2439SOL    HW1 1829   3.198   3.598   2.936
 2439SOL    HW2 1830   3.091   3.497   3.008
 2440SOL     OW 1831   1.945   3.120   2.884
 2440SOL    HW1 1832   1.940   3.119   2.984
 2440SOL    HW2 1833   1.862   3.079   2.846
 2441SOL     OW 1834   2.550   3.524   3.578
 2441SOL    HW1 1835   2.494   3.605   3.587
 2441SOL    HW2 1836   2.602   3.528   3.492
 2442SOL     OW 1837   3.588   1.997   2.385
 2442SOL    HW1 1838   3.661   1.980   2.318
 2442SOL    HW2 1839   3.557   1.910   2.423
 2443SOL     OW 1840   3.250   3.435   2.339
 2443SOL    HW1 1841   3.317   3.447   2.265
 2443SOL    HW2 1842   3.210   3.524   2.362
 2444SOL     OW 1843   1.992   3.656   3.713
 2444SOL    HW1 1844   1.951   3.582   3.766
 2444SOL    HW2 1845   2.056   3.707   3.771
 2445SOL     OW 1846   3.142   2.789   2.534
 2445SOL    HW1 1847   3.202   2.708   2.536
 2445SOL    HW2 1848   3.182   2.858   2.474
 2446SOL     OW 1849   2.692   3.135   3.284
 2446SOL    HW1 1850   2.687   3.168   3.379
 2446SOL    HW2 1851   2.606   3.154   3.238
 2447SOL     OW 1852   2.534   3.478   2.016
 2447SOL    HW1 1853   2.543   3.488   1.917
 2447SOL    HW2 1854   2.494   3.389   2.037
 2448SOL     OW 1855   3.512   3.582   3.256
 2448SOL    HW1 1856   3.565   3.592   3.172
 2448SOL    HW2 1857   3.485   3.672   3.290
 2449SOL     OW 1858   3.703   2.037   2.825
 2449SOL    HW1 1859   3.742   1.952   2.789
 2449SOL    HW2 1860   3.605   2.039   2.806
 2450SOL     OW 1861   2.125   2.188   2.582
 2450SOL    HW1 1862   2.046   2.239   2.548
 2450SOL    HW2 1863   2.116   2.173   2.680
 2451SOL     OW 1864   3.056   3.474   1.893
 2451SOL    HW1 1865   3.062   3.381   1.930
 2451SOL    HW2 1866   2.997   3.474   1.813
 2452SOL     OW 1867   2.684   2.864   3.234
 2452SOL    HW1 1868   2.724   2.863   3.142
 2452SOL    HW2 1869   2.694   2.956   3.274
 2453SOL     OW 1870   2.778   2.772   2.153
 2453SOL    HW1 1871   2.841   2.810   2.085
 2453SOL    HW2 1872   2.818   2.689   2.192
 2454SOL     OW 1873   3.366   3.469   1.906
 2454SOL    HW1 1874   3.274   3.506   1.913
 2454SOL    HW2 1875   3.404   3.489   1.816
 2455SOL     OW 1876   2.234   3.150   3.352
 2455SOL    HW1 1877   2.221   3.243   3.318
 2455SOL    HW2 1878   2.150   3.098   3.339
 2456SOL     OW 1879   3.476   3.154   3.151
 2456SOL    HW1 1880   3.536   3.157   3.231
 2456SOL    HW2 1881   3.401   3.218   3.164
 2457SOL     OW 1882   2.901   2.960   2.558
 2457SOL    HW1 1883   2.831   2.913   2.612
 2457SOL    HW2 1884   2.960   2.892   2.515
 2458SOL     OW 1885   2.876   2.098   2.833
 2458SOL    HW1 1886   2.868   2.062   2.740
 2458SOL    HW2 1887   2.874   2.022   2.898
 2459SOL     OW 1888   2.452   3.349   2.353
 2459SOL    HW1 1889   2.494   3.291   2.283
 2459SOL    HW2 1890   2.408   3.428   2.309
 2460SOL     OW 1891   3.571   2.247   3.243
 2460SOL    HW1 1892   3.644   2.316   3.247
 2460SOL    HW2 1893   3.599   2.172   3.184
 2461SOL     OW 1894   2.117   3.210   2.152
 2461SOL    HW1 1895   2.021   3.211   2.125
 2461SOL    HW2 1896   2.129   3.263   2.236
 2462SOL     OW 1897   1.967   2.875   3.588
 2462SOL    HW1 1898   1.890   2.842   3.642
 2462SOL    HW2 1899   2.052   2.845   3.630
 2463SOL     OW 1900   2.534   2.065   3.351
 2463SOL    HW1 1901   2.624   2.049   3.311
 2463SOL    HW2 1902   2.542   2.070   3.450
 2464SOL     OW 1903   1.937   2.207   1.895
 2464SOL    HW1 1904   1.845   2.179   1.866
 2464SOL    HW2 1905   1.968   2.284   1.839
 2465SOL     OW 1906   3.302   2.718   3.260
 2465SOL    HW1 1907   3.245   2.770   3.197
 2465SOL    HW2 1908   3.398   2.730   3.236
 2466SOL     OW 1909   1.934   2.028   2.180
 2466SOL    HW1 1910   1.917   2.111   2.126
 2466SOL    HW2 1911   2.024   1.991   2.158
 2467SOL     OW 1912   3.045   3.197   1.981
 2467SOL    HW1 1913   2.946   3.186   1.983
 2467SOL    HW2 1914   3.079   3.212   2.074
 2468SOL     OW 1915   2.475   2.704   3.293
 2468SOL    HW1 1916   2.531   2.785   3.276
 2468SOL    HW2 1917   2.534   2.624   3.296
 2469SOL     OW 1918   3.355   3.629   2.821
 2469SOL    HW1 1919   3.388   3.693   2.752
 2469SOL    HW2 1920   3.421   3.623   2.896
 2470SOL     OW 1921   2.578   2.427   3.570
 2470SOL    HW1 1922   2.597   2.492   3.644
 2470SOL    HW2 1923   2.638   2.347   3.579
 2471SOL     OW 1924   3.312   3.082   3.495
 2471SOL    HW1 1925   3.303   3.072   3.594
 2471SOL    HW2 1926   3.408   3.075   3.469
 2472SOL     OW 1927   2.252   3.603   3.422
 2472SOL    HW1 1928   2.161   3.644   3.420
 2472SOL    HW2 1929   2.245   3.509   3.454
 2473SOL     OW 1930   3.536   2.745   3.116
 2473SOL    HW1 1931   3.509   2.656   3.079
 2473SOL    HW2 1932   3.537   2.813   3.043
 2474SOL     OW 1933   3.087   2.187   2.311
 2474SOL    HW1 1934   3.152   2.113   2.300
 2474SOL    HW2 1935   3.107   2.237   2.395
 2475SOL     OW 1936   3.639   2.204   3.504
 2475SOL    HW1 1937   3.622   2.235   3.410
 2475SOL    HW2 1938   3.555   2.167   3.542
 2476SOL     OW 1939   3.592   2.796   3.379
 2476SOL    HW1 1940   3.630   2.887   3.394
 2476SOL    HW2 1941   3.584   2.779   3.280
 2477SOL     OW 1942   2.721   3.236   1.878
 2477SOL    HW1 1943   2.675   3.251   1.966
 2477SOL    HW2 1944   2.765   3.321   1.848
 2478SOL     OW 1945   2.523   3.652   2.815
 2478SOL    HW1 1946   2.477   3.740   2.802
 2478SOL    HW2 1947   2.622   3.664   2.808
 2479SOL     OW 1948   2.721   2.818   2.723
 2479SOL    HW1 1949   2.775   2.749   2.771
 2479SOL    HW2 1950   2.689   2.887   2.789
 2480SOL     OW 1951   2.945   2.846   1.949
 2480SOL    HW1 1952   2.922   2.899   1.867
 2480SOL    HW2 1953   3.026   2.790   1.930
 2481SOL     OW 1954   3.723   3.431   2.713
 2481SOL    HW1 1955   3.652   3.419   2.643
 2481SOL    HW2 1956   3.724   3.352   2.773
 2482SOL     OW 1957   2.083   3.176   3.706
 2482SOL    HW1 1958   2.018   3.103   3.685
 2482SOL    HW2 1959   2.087   3.190   3.804
 2483SOL     OW 1960   1.941   3.102   2.515
 2483SOL    HW1 1961   1.940   3.055   2.603
 2483SOL    HW2 1962   2.023   3.074   2.464
 2484SOL     OW 1963   2.534   3.253   3.486
 2484SOL    HW1 1964   2.456   3.203   3.524
 2484SOL    HW2 1965   2.531   3.348   3.517
 2485SOL     OW 1966   3.686   2.054   3.089
 2485SOL    HW1 1967   3.682   1.964   3.133
 2485SOL    HW2 1968   3.689   2.043   2.990
 2486SOL     OW 1969   2.290   2.286   2.382
 2486SOL    HW1 1970   2.320   2.214   2.320
 2486SOL    HW2 1971   2.251   2.246   2.465
 2487SOL     OW 1972   3.567   3.349   2.966
 2487SOL    HW1 1973   3.474   3.324   2.939
 2487SOL    HW2 1974   3.593   3.299   3.048
 2488SOL     OW 1975   2.179   2.409   3.142
 2488SOL    HW1 1976   2.217   2.350   3.214
 2488SOL    HW2 1977   2.219   2.383   3.054
 2489SOL     OW 1978   2.674   3.448   2.549
 2489SOL    HW1 1979   2.706   3.458   2.455
 2489SOL    HW2 1980   2.595   3.386   2.551
 2490SOL     OW 1981   3.286   2.076   2.974
 2490SOL    HW1 1982   3.338   2.011   3.029
 2490SOL    HW2 1983   3.237   2.139   3.035
 2491SOL     OW 1984   2.863   1.896   3.016
 2491SOL    HW1 1985   2.800   1.824   2.985
 2491SOL    HW2 1986   2.956   1.860   3.016
 2492SOL     OW 1987   2.632   3.192   2.163
 2492SOL    HW1 1988   2.586   3.105   2.180
 2492SOL    HW2 1989   2.723   3.189   2.204
 2493SOL     OW 1990   2.480   3.429   3.146
 2493SOL    HW1 1991   2.475   3.511   3.203
 2493SOL    HW2 1992   2.569   3.426   3.101
 2494SOL     OW 1993   3.214   1.914   2.030
 2494SOL    HW1 1994   3.249   1.873   1.946
 2494SOL    HW2 1995   3.124   1.876   2.050
 2495SOL     OW 1996   3.162   2.315   2.553
 2495SOL    HW1 1997   3.103   2.395   2.557
 2495SOL    HW2 1998   3.177   2.280   2.646
 2496SOL     OW 1999   3.455   2.083   2.744
 2496SOL    HW1 2000   3.371   2.082   2.798
 2496SOL    HW2 2001   3.457   2.166   2.688
 2497SOL     OW 2002   1.901   2.939   2.162
 2497SOL    HW1 2003   2.000   2.928   2.153
 2497SOL    HW2 2004   1.861   2.853   2.194
 2498SOL     OW 2005   2.737   3.508   2.199
 2498SOL    HW1 2006   2.660   3.473   2.145
 2498SOL    HW2 2007   2.705   3.579   2.261
 2499SOL     OW 2008   2.092   2.490   3.837
 2499SOL    HW1 2009   1.999   2.488   3.874
 2499SOL    HW2 2010   2.093   2.451   3.745
 2513SOL     OW 2011   2.468   2.826   3.847
 2513SOL    HW1 2012   2.475   2.910   3.793
 2513SOL    HW2 2013   2.514   2.839   3.935
 2516SOL     OW 2014   1.889   3.458   3.841
 2516SOL    HW1 2015   1.870   3.362   3.862
 2516SOL    HW2 2016   1.856   3.516   3.916
 2522SOL     OW 2017   3.387   2.861   3.914
 2522SOL    HW1 2018   3.324   2.785   3.927
 2522SOL    HW2 2019   3.435   2.879   4.000
 2525SOL     OW 2020   2.460   2.591   3.994
 2525SOL    HW1 2021   2.484   2.660   3.926
 2525SOL    HW2 2022   2.382   2.624   4.048
 2528SOL     OW 2023   2.903   2.563   4.153
 2528SOL    HW1 2024   2.929   2.559   4.249
 2528SOL    HW2 2025   2.818   2.512   4.139
 2530SOL     OW 2026   2.727   2.210   3.919
 2530SOL    HW1 2027   2.786   2.273   3.870
 2530SOL    HW2 2028   2.746   2.116   3.890
 2536SOL     OW 2029   2.183   2.805   3.966
 2536SOL    HW1 2030   2.265   2.844   3.924
 2536SOL    HW2 2031   2.156   2.723   3.917
 2544SOL     OW 2032   2.244   2.562   4.204
 2544SOL    HW1 2033   2.289   2.472   4.201
 2544SOL    HW2 2034   2.150   2.551   4.237
 2545SOL     OW 2035   2.476   1.984   3.841
 2545SOL    HW1 2036   2.574   1.962   3.848
 2545SOL    HW2 2037   2.445   1.967   3.748
 2549SOL     OW 2038   3.296   3.050   3.765
 2549SOL    HW1 2039   3.328   2.974   3.822
 2549SOL    HW2 2040   3.204   3.077   3.795
 2550SOL     OW 2041   2.159   1.897   3.895
 2550SOL    HW1 2042   2.208   1.981   3.874
 2550SOL    HW2 2043   2.221   1.832   3.940
 2551SOL     OW 2044   2.797   2.098   4.204
 2551SOL    HW1 2045   2.749   2.139   4.126
 2551SOL    HW2 2046   2.896   2.096   4.185
 2555SOL     OW 2047   2.894   2.411   3.740
 2555SOL    HW1 2048   2.853   2.493   3.701
 2555SOL    HW2 2049   2.958   2.437   3.813
 2561SOL     OW 2050   2.350   3.247   3.898
 2561SOL    HW1 2051   2.263   3.232   3.945
 2561SOL    HW2 2052   2.333   3.273   3.803
 2563SOL     OW 2053   3.252   2.437   3.802
 2563SOL    HW1 2054   3.198   2.416   3.883
 2563SOL    HW2 2055   3.343   2.396   3.811
 2564SOL     OW 2056   2.389   2.118   4.052
 2564SOL    HW1 2057   2.416   2.059   3.977
 2564SOL    HW2 2058   2.389   2.213   4.021
 2567SOL     OW 2059   2.567   2.912   4.092
 2567SOL    HW1 2060   2.553   2.919   4.191
 2567SOL    HW2 2061   2.651   2.861   4.074
 2576SOL     OW 2062   3.071   2.387   3.999
 2576SOL    HW1 2063   3.084   2.303   4.053
 2576SOL    HW2 2064   3.042   2.461   4.059
 2582SOL     OW 2065   3.402   2.136   3.849
 2582SOL    HW1 2066   3.341   2.061   3.872
 2582SOL    HW2 2067   3.424   2.188   3.932
 2583SOL     OW 2068   3.165   2.700   3.766
 2583SOL    HW1 2069   3.199   2.607   3.781
 2583SOL    HW2 2070   3.183   2.727   3.671
 2588SOL     OW 2071   1.870   3.188   3.924
 2588SOL    HW1 2072   1.777   3.209   3.893
 2588SOL    HW2 2073   1.880   3.089   3.937
 2593SOL     OW 2074   2.677   2.434   4.049
 2593SOL    HW1 2075   2.684   2.345   4.003
 2593SOL    HW2 2076   2.583   2.468   4.041
 2596SOL     OW 2077   2.335   2.362   3.915
 2596SOL    HW1 2078   2.396   2.442   3.919
 2596SOL    HW2 2079   2.240   2.393   3.922
 2598SOL     OW 2080   3.164   2.717   4.033
 2598SOL    HW1 2081   3.078   2.686   4.075
 2598SOL    HW2 2082   3.160   2.703   3.934
 2604SOL     OW 2083   2.534   3.478   3.878
 2604SOL    HW1 2084   2.543   3.488   3.779
 2604SOL    HW2 2085   2.494   3.389   3.899
 2607SOL     OW 2086   3.056   3.474   3.755
 2607SOL    HW1 2087   3.062   3.381   3.792
 2607SOL    HW2 2088   2.997   3.474   3.675
 2609SOL     OW 2089   2.778   2.772   4.015
 2609SOL    HW1 2090   2.841   2.810   3.947
 2609SOL    HW2 2091   2.818   2.689   4.054
 2615SOL     OW 2092   2.117   3.210   4.014
 2615SOL    HW1 2093   2.021   3.211   3.987
 2615SOL    HW2 2094   2.129   3.263   4.098
 2616SOL     OW 2095   1.937   2.207   3.757
 2616SOL    HW1 2096   1.845   2.179   3.728
 2616SOL    HW2 2097   1.968   2.284   3.701
 2617SOL     OW 2098   1.934   2.028   4.042
 2617SOL    HW1 2099   1.917   2.111   3.988
 2617SOL    HW2 2100   2.024   1.991   4.020
 2618SOL     OW 2101   3.045   3.197   3.843
 2618SOL    HW1 2102   2.946   3.186   3.845
 2618SOL    HW2 2103   3.079   3.212   3.936
 2624SOL     OW 2104   2.721   3.236   3.740
 2624SOL    HW1 2105   2.675   3.251   3.828
 2624SOL    HW2 2106   2.765   3.321   3.710
 2627SOL     OW 2107   2.945   2.846   3.811
 2627SOL    HW1 2108   2.922   2.899   3.729
 2627SOL    HW2 2109   3.026   2.790   3.792
 2631SOL     OW 2110   2.290   2.286   4.244
 2631SOL    HW1 2111   2.320   2.214   4.182
 2631SOL    HW2 2112   2.251   2.246   4.327
 2636SOL     OW 2113   2.632   3.192   4.025
 2636SOL    HW1 2114   2.586   3.105   4.042
 2636SOL    HW2 2115   2.723   3.189   4.066
 2637SOL     OW 2116   3.214   1.914   3.892
 2637SOL    HW1 2117   3.249   1.873   3.808
 2637SOL    HW2 2118   3.124   1.876   3.912
 2640SOL     OW 2119   1.901   2.939   4.024
 2640SOL    HW1 2120   2.000   2.928   4.015
 2640SOL    HW2 2121   1.861   2.853   4.056
 2664SOL     OW 2122   2.179   3.975   1.801
 2664SOL    HW1 2123   2.250   4.046   1.807
 2664SOL    HW2 2124   2.091   4.014   1.829
 2685SOL     OW 2125   2.643   3.988   1.749
 2685SOL    HW1 2126   2.710   3.927   1.792
 2685SOL    HW2 2127   2.570   4.007   1.814
 2705SOL     OW 2128   2.777   3.813   1.402
 2705SOL    HW1 2129   2.802   3.793   1.307
 2705SOL    HW2 2130   2.849   3.869   1.444
 2715SOL     OW 2131   2.875   3.829   1.770
 2715SOL    HW1 2132   2.881   3.914   1.718
 2715SOL    HW2 2133   2.907   3.753   1.713
 2716SOL     OW 2134   2.366   3.774   1.740
 2716SOL    HW1 2135   2.324   3.717   1.670
 2716SOL    HW2 2136   2.300   3.843   1.772
 2757SOL     OW 2137   2.534   3.927   1.489
 2757SOL    HW1 2138   2.624   3.911   1.449
 2757SOL    HW2 2139   2.542   3.932   1.588
 2781SOL     OW 2140   2.087   3.999   2.858
 2781SOL    HW1 2141   2.122   3.982   2.950
 2781SOL    HW2 2142   1.999   3.954   2.846
 2782SOL     OW 2143   1.881   4.092   2.509
 2782SOL    HW1 2144   1.799   4.135   2.548
 2782SOL    HW2 2145   1.853   4.019   2.446
 2799SOL     OW 2146   2.671   3.728   2.364
 2799SOL    HW1 2147   2.711   3.819   2.355
 2799SOL    HW2 2148   2.571   3.736   2.370
 2804SOL     OW 2149   3.143   4.069   2.806
 2804SOL    HW1 2150   3.057   4.019   2.793
 2804SOL    HW2 2151   3.205   4.015   2.862
 2808SOL     OW 2152   2.853   4.134   3.104
 2808SOL    HW1 2153   2.776   4.168   3.158
 2808SOL    HW2 2154   2.819   4.083   3.025
 2811SOL     OW 2155   2.727   4.072   2.057
 2811SOL    HW1 2156   2.786   4.135   2.008
 2811SOL    HW2 2157   2.746   3.978   2.028
 2814SOL     OW 2158   2.412   3.920   2.747
 2814SOL    HW1 2159   2.407   3.915   2.847
 2814SOL    HW2 2160   2.414   4.016   2.718
 2819SOL     OW 2161   3.262   3.831   2.288
 2819SOL    HW1 2162   3.238   3.794   2.198
 2819SOL    HW2 2163   3.361   3.847   2.292
 2822SOL     OW 2164   2.476   3.846   1.979
 2822SOL    HW1 2165   2.574   3.824   1.986
 2822SOL    HW2 2166   2.445   3.829   1.886
 2825SOL     OW 2167   2.784   4.227   2.761
 2825SOL    HW1 2168   2.759   4.218   2.665
 2825SOL    HW2 2169   2.832   4.145   2.792
 2826SOL     OW 2170   2.401   3.788   2.374
 2826SOL    HW1 2171   2.320   3.789   2.432
 2826SOL    HW2 2172   2.404   3.871   2.319
 2827SOL     OW 2173   2.159   3.759   2.033
 2827SOL    HW1 2174   2.208   3.843   2.012
 2827SOL    HW2 2175   2.221   3.694   2.078
 2828SOL     OW 2176   2.797   3.960   2.342
 2828SOL    HW1 2177   2.749   4.001   2.264
 2828SOL    HW2 2178   2.896   3.958   2.323
 2833SOL     OW 2179   2.423   3.946   3.009
 2833SOL    HW1 2180   2.461   3.862   3.046
 2833SOL    HW2 2181   2.335   3.965   3.053
 2834SOL     OW 2182   2.728   4.178   2.504
 2834SOL    HW1 2183   2.696   4.250   2.442
 2834SOL    HW2 2184   2.752   4.097   2.451
 2835SOL     OW 2185   2.879   3.763   2.615
 2835SOL    HW1 2186   2.807   3.768   2.546
 2835SOL    HW2 2187   2.855   3.694   2.684
 2840SOL     OW 2188   2.389   3.980   2.190
 2840SOL    HW1 2189   2.416   3.921   2.115
 2840SOL    HW2 2190   2.389   4.075   2.159
 2843SOL     OW 2191   2.777   3.813   3.264
 2843SOL    HW1 2192   2.802   3.793   3.169
 2843SOL    HW2 2193   2.849   3.869   3.306
 2849SOL     OW 2194   2.428   4.261   2.727
 2849SOL    HW1 2195   2.440   4.327   2.653
 2849SOL    HW2 2196   2.474   4.295   2.810
 2854SOL     OW 2197   2.366   3.774   3.602
 2854SOL    HW1 2198   2.324   3.717   3.532
 2854SOL    HW2 2199   2.300   3.843   3.634
 2858SOL     OW 2200   2.169   3.937   3.093
 2858SOL    HW1 2201   2.146   3.974   3.183
 2858SOL    HW2 2202   2.139   3.842   3.087
 2861SOL     OW 2203   2.169   3.787   2.480
 2861SOL    HW1 2204   2.158   3.881   2.513
 2861SOL    HW2 2205   2.164   3.724   2.557
 2870SOL     OW 2206   3.022   3.931   3.339
 2870SOL    HW1 2207   3.022   3.995   3.416
 2870SOL    HW2 2208   3.050   3.979   3.256
 2878SOL     OW 2209   2.335   4.224   2.053
 2878SOL    HW1 2210   2.396   4.304   2.057
 2878SOL    HW2 2211   2.240   4.255   2.060
 2882SOL     OW 2212   3.588   3.859   2.385
 2882SOL    HW1 2213   3.661   3.842   2.318
 2882SOL    HW2 2214   3.557   3.772   2.423
 2885SOL     OW 2215   2.125   4.050   2.582
 2885SOL    HW1 2216   2.046   4.101   2.548
 2885SOL    HW2 2217   2.116   4.035   2.680
 2891SOL     OW 2218   2.876   3.960   2.833
 2891SOL    HW1 2219   2.868   3.924   2.740
 2891SOL    HW2 2220   2.874   3.884   2.898
 2894SOL     OW 2221   2.534   3.927   3.351
 2894SOL    HW1 2222   2.624   3.911   3.311
 2894SOL    HW2 2223   2.542   3.932   3.450
 2895SOL     OW 2224   1.937   4.069   1.895
 2895SOL    HW1 2225   1.845   4.041   1.866
 2895SOL    HW2 2226   1.968   4.146   1.839
 2897SOL     OW 2227   1.934   3.890   2.180
 2897SOL    HW1 2228   1.917   3.973   2.126
 2897SOL    HW2 2229   2.024   3.853   2.158
 2902SOL     OW 2230   3.087   4.049   2.311
 2902SOL    HW1 2231   3.152   3.975   2.300
 2902SOL    HW2 2232   3.107   4.099   2.395
 2910SOL     OW 2233   2.290   4.148   2.382
 2910SOL    HW1 2234   2.320   4.076   2.320
 2910SOL    HW2 2235   2.251   4.108   2.465
 2912SOL     OW 2236   3.286   3.938   2.974
 2912SOL    HW1 2237   3.338   3.873   3.029
 2912SOL    HW2 2238   3.237   4.001   3.035
 2913SOL     OW 2239   2.863   3.758   3.016
 2913SOL    HW1 2240   2.800   3.686   2.985
 2913SOL    HW2 2241   2.956   3.722   3.016
 2915SOL     OW 2242   3.214   3.776   2.030
 2915SOL    HW1 2243   3.249   3.735   1.946
 2915SOL    HW2 2244   3.124   3.738   2.050
 2917SOL     OW 2245   3.455   3.945   2.744
 2917SOL    HW1 2246   3.371   3.944   2.798
 2917SOL    HW2 2247   3.457   4.028   2.688
 3048SOL     OW 2248   3.854   1.821   1.571
 3048SOL    HW1 2249   3.844   1.806   1.670
 3048SOL    HW2 2250   3.768   1.857   1.535
 3127SOL     OW 2251   3.854   1.794   1.851
 3127SOL    HW1 2252   3.813   1.720   1.904
 3127SOL    HW2 2253   3.918   1.845   1.909
 3170SOL     OW 2254   3.955   1.713   2.345
 3170SOL    HW1 2255   3.989   1.790   2.399
 3170SOL    HW2 2256   3.999   1.713   2.255
 3177SOL     OW 2257   3.751   1.596   1.979
 3177SOL    HW1 2258   3.732   1.500   2.000
 3177SOL    HW2 2259   3.718   1.654   2.054
 3189SOL     OW 2260   3.854   1.821   3.433
 3189SOL    HW1 2261   3.844   1.806   3.532
 3189SOL    HW2 2262   3.768   1.857   3.397
 3193SOL     OW 2263   4.075   1.801   2.715
 3193SOL    HW1 2264   4.125   1.715   2.721
 3193SOL    HW2 2265   4.140   1.878   2.712
 3200SOL     OW 2266   3.973   1.785   3.103
 3200SOL    HW1 2267   4.030   1.720   3.153
 3200SOL    HW2 2268   3.957   1.752   3.010
 3228SOL     OW 2269   3.788   1.564   3.193
 3228SOL    HW1 2270   3.742   1.646   3.159
 3228SOL    HW2 2271   3.886   1.583   3.202
 3252SOL     OW 2272   3.732   1.326   2.062
 3252SOL    HW1 2273   3.639   1.347   2.031
 3252SOL    HW2 2274   3.742   1.227   2.075
 3253SOL     OW 2275   3.812   1.801   2.789
 3253SOL    HW1 2276   3.770   1.715   2.762
 3253SOL    HW2 2277   3.906   1.804   2.755
 3419SOL     OW 2278   3.837   2.599   1.597
 3419SOL    HW1 2279   3.925   2.586   1.642
 3419SOL    HW2 2280   3.824   2.696   1.575
 3423SOL     OW 2281   4.041   2.113   1.801
 3423SOL    HW1 2282   4.112   2.184   1.807
 3423SOL    HW2 2283   3.953   2.152   1.829
 3439SOL     OW 2284   3.926   2.147   1.498
 3439SOL    HW1 2285   3.846   2.207   1.485
 3439SOL    HW2 2286   3.916   2.098   1.584
 3458SOL     OW 2287   3.802   2.418   1.386
 3458SOL    HW1 2288   3.894   2.417   1.345
 3458SOL    HW2 2289   3.796   2.492   1.453
 3487SOL     OW 2290   4.074   2.760   1.804
 3487SOL    HW1 2291   4.150   2.804   1.852
 3487SOL    HW2 2292   4.109   2.713   1.722
 3498SOL     OW 2293   3.913   2.382   1.722
 3498SOL    HW1 2294   3.972   2.342   1.652
 3498SOL    HW2 2295   3.855   2.453   1.681
 3520SOL     OW 2296   3.829   2.875   1.726
 3520SOL    HW1 2297   3.752   2.842   1.780
 3520SOL    HW2 2298   3.914   2.845   1.768
 3531SOL     OW 2299   3.945   3.176   1.844
 3531SOL    HW1 2300   3.880   3.103   1.823
 3531SOL    HW2 2301   3.949   3.190   1.942
 3542SOL     OW 2302   3.954   2.490   1.975
 3542SOL    HW1 2303   3.861   2.488   2.012
 3542SOL    HW2 2304   3.955   2.451   1.883
 3543SOL     OW 2305   3.949   2.137   2.858
 3543SOL    HW1 2306   3.984   2.120   2.950
 3543SOL    HW2 2307   3.861   2.092   2.846
 3544SOL     OW 2308   3.743   2.230   2.509
 3544SOL    HW1 2309   3.661   2.273   2.548
 3544SOL    HW2 2310   3.715   2.157   2.446
 3555SOL     OW 2311   3.954   3.296   2.400
 3555SOL    HW1 2312   3.928   3.392   2.400
 3555SOL    HW2 2313   3.883   3.242   2.445
 3556SOL     OW 2314   3.964   2.953   2.748
 3556SOL    HW1 2315   3.978   2.869   2.800
 3556SOL    HW2 2316   3.909   3.017   2.803
 3559SOL     OW 2317   3.846   2.505   2.425
 3559SOL    HW1 2318   3.801   2.417   2.442
 3559SOL    HW2 2319   3.845   2.559   2.509
 3560SOL     OW 2320   3.751   3.458   1.979
 3560SOL    HW1 2321   3.732   3.362   2.000
 3560SOL    HW2 2322   3.718   3.516   2.054
 3561SOL     OW 2323   3.837   2.599   3.459
 3561SOL    HW1 2324   3.925   2.586   3.504
 3561SOL    HW2 2325   3.824   2.696   3.437
 3564SOL     OW 2326   3.921   2.838   3.126
 3564SOL    HW1 2327   4.010   2.793   3.112
 3564SOL    HW2 2328   3.848   2.773   3.107
 3571SOL     OW 2329   3.800   2.673   2.651
 3571SOL    HW1 2330   3.899   2.661   2.660
 3571SOL    HW2 2331   3.776   2.768   2.672
 3578SOL     OW 2332   4.045   2.805   2.104
 3578SOL    HW1 2333   4.127   2.844   2.062
 3578SOL    HW2 2334   4.018   2.723   2.055
 3581SOL     OW 2335   3.926   2.147   3.360
 3581SOL    HW1 2336   3.846   2.207   3.347
 3581SOL    HW2 2337   3.916   2.098   3.446
 3585SOL     OW 2338   4.106   2.562   2.342
 3585SOL    HW1 2339   4.151   2.472   2.339
 3585SOL    HW2 2340   4.012   2.551   2.375
 3592SOL     OW 2341   4.021   1.897   2.033
 3592SOL    HW1 2342   4.070   1.981   2.012
 3592SOL    HW2 2343   4.083   1.832   2.078
 3596SOL     OW 2344   4.183   3.014   2.603
 3596SOL    HW1 2345   4.112   2.987   2.668
 3596SOL    HW2 2346   4.157   2.986   2.510
 3599SOL     OW 2347   3.802   2.418   3.248
 3599SOL    HW1 2348   3.894   2.417   3.207
 3599SOL    HW2 2349   3.796   2.492   3.315
 3610SOL     OW 2350   4.134   2.675   3.113
 3610SOL    HW1 2351   4.220   2.687   3.163
 3610SOL    HW2 2352   4.092   2.588   3.140
 3611SOL     OW 2353   3.788   3.426   3.193
 3611SOL    HW1 2354   3.742   3.508   3.159
 3611SOL    HW2 2355   3.886   3.445   3.202
 3612SOL     OW 2356   4.091   2.962   2.363
 3612SOL    HW1 2357   4.084   3.045   2.307
 3612SOL    HW2 2358   4.095   2.882   2.303
 3622SOL     OW 2359   4.031   2.075   3.093
 3622SOL    HW1 2360   4.008   2.112   3.183
 3622SOL    HW2 2361   4.001   1.980   3.087
 3623SOL     OW 2362   3.761   3.172   3.144
 3623SOL    HW1 2363   3.814   3.123   3.212
 3623SOL    HW2 2364   3.783   3.270   3.149
 3625SOL     OW 2365   4.031   1.925   2.480
 3625SOL    HW1 2366   4.020   2.019   2.513
 3625SOL    HW2 2367   4.026   1.862   2.557
 3631SOL     OW 2368   4.043   2.672   2.811
 3631SOL    HW1 2369   4.136   2.708   2.816
 3631SOL    HW2 2370   4.037   2.587   2.863
 3632SOL     OW 2371   4.063   2.371   2.868
 3632SOL    HW1 2372   4.011   2.288   2.851
 3632SOL    HW2 2373   4.140   2.376   2.804
 3635SOL     OW 2374   3.732   3.188   2.062
 3635SOL    HW1 2375   3.639   3.209   2.031
 3635SOL    HW2 2376   3.742   3.089   2.075
 3636SOL     OW 2377   3.812   3.663   2.789
 3636SOL    HW1 2378   3.770   3.577   2.762
 3636SOL    HW2 2379   3.906   3.666   2.755
 3639SOL     OW 2380   3.764   2.406   2.976
 3639SOL    HW1 2381   3.849   2.373   2.935
 3639SOL    HW2 2382   3.777   2.421   3.074
 3640SOL     OW 2383   3.913   2.382   3.584
 3640SOL    HW1 2384   3.972   2.342   3.514
 3640SOL    HW2 2385   3.855   2.453   3.543
 3645SOL     OW 2386   4.197   2.362   2.053
 3645SOL    HW1 2387   4.258   2.442   2.057
 3645SOL    HW2 2388   4.102   2.393   2.060
 3646SOL     OW 2389   3.883   2.999   3.328
 3646SOL    HW1 2390   3.905   2.938   3.404
 3646SOL    HW2 2391   3.893   2.950   3.242
 3648SOL     OW 2392   3.807   3.120   2.884
 3648SOL    HW1 2393   3.802   3.119   2.984
 3648SOL    HW2 2394   3.724   3.079   2.846
 3653SOL     OW 2395   3.987   2.188   2.582
 3653SOL    HW1 2396   3.908   2.239   2.548
 3653SOL    HW2 2397   3.978   2.173   2.680
 3660SOL     OW 2398   3.979   3.210   2.152
 3660SOL    HW1 2399   3.883   3.211   2.125
 3660SOL    HW2 2400   3.991   3.263   2.236
 3661SOL     OW 2401   3.829   2.875   3.588
 3661SOL    HW1 2402   3.752   2.842   3.642
 3661SOL    HW2 2403   3.914   2.845   3.630
 3663SOL     OW 2404   3.799   2.207   1.895
 3663SOL    HW1 2405   3.707   2.179   1.866
 3663SOL    HW2 2406   3.830   2.284   1.839
 3664SOL     OW 2407   3.796   2.028   2.180
 3664SOL    HW1 2408   3.779   2.111   2.126
 3664SOL    HW2 2409   3.886   1.991   2.158
 3674SOL     OW 2410   3.803   3.102   2.515
 3674SOL    HW1 2411   3.802   3.055   2.603
 3674SOL    HW2 2412   3.885   3.074   2.464
 3676SOL     OW 2413   4.152   2.286   2.382
 3676SOL    HW1 2414   4.182   2.214   2.320
 3676SOL    HW2 2415   4.113   2.246   2.465
 3677SOL     OW 2416   4.041   2.409   3.142
 3677SOL    HW1 2417   4.079   2.350   3.214
 3677SOL    HW2 2418   4.081   2.383   3.054
 3682SOL     OW 2419   3.763   2.939   2.162
 3682SOL    HW1 2420   3.862   2.928   2.153
 3682SOL    HW2 2421   3.723   2.853   2.194
   4.97927   4.97927   4.97927
