mobley_3210206_GMX.gro created by acpype (v: 2023.10.27) on Wed May 20 23:44:51 2026
 9905
    1MOL     C1    1   2.349   2.351   2.142
    1MOL     C2    2   2.300   2.426   2.377
    1MOL     C3    3   2.372   2.321   2.290
    1MOL     N1    4   2.275   2.495   2.601
    1MOL     N2    5   2.401   2.084   2.301
    1MOL     O1    6   2.307   2.477   2.719
    1MOL     O2    7   2.201   2.580   2.552
    1MOL     O3    8   2.350   1.977   2.333
    1MOL     O4    9   2.513   2.108   2.254
    1MOL     O5   10   2.337   2.404   2.513
    1MOL     O6   11   2.314   2.194   2.322
    1MOL     H1   12   2.242   2.347   2.118
    1MOL     H2   13   2.387   2.450   2.116
    1MOL     H3   14   2.398   2.277   2.079
    1MOL     H4   15   2.331   2.526   2.346
    1MOL     H5   16   2.192   2.414   2.366
    1MOL     H6   17   2.479   2.325   2.315
    2SOL     OW   18   0.230   0.628   0.113
    2SOL    HW1   19   0.137   0.626   0.150
    2SOL    HW2   20   0.231   0.589   0.021
    3SOL     OW   21   0.225   0.275   0.996
    3SOL    HW1   22   0.260   0.258   1.088
    3SOL    HW2   23   0.137   0.230   0.984
    4SOL     OW   24   0.019   0.368   0.647
    4SOL    HW1   25  -0.063   0.411   0.686
    4SOL    HW2   26  -0.009   0.295   0.584
    5SOL     OW   27   0.569   1.275   1.165
    5SOL    HW1   28   0.476   1.268   1.128
    5SOL    HW2   29   0.580   1.364   1.209
    6SOL     OW   30   1.555   1.511   0.703
    6SOL    HW1   31   1.498   1.495   0.784
    6SOL    HW2   32   1.496   1.521   0.623
    7SOL     OW   33   1.135   0.703   0.717
    7SOL    HW1   34   1.192   0.781   0.692
    7SOL    HW2   35   1.075   0.729   0.793
    8SOL     OW   36   1.755   0.607   0.231
    8SOL    HW1   37   1.743   0.594   0.132
    8SOL    HW2   38   1.725   0.526   0.280
    9SOL     OW   39   0.768   1.144   1.023
    9SOL    HW1   40   0.690   1.161   1.083
    9SOL    HW2   41   0.802   1.231   0.987
   10SOL     OW   42   0.850   0.798   1.823
   10SOL    HW1   43   0.846   0.874   1.888
   10SOL    HW2   44   0.872   0.834   1.732
   11SOL     OW   45   0.685   1.012   0.665
   11SOL    HW1   46   0.754   0.996   0.735
   11SOL    HW2   47   0.612   1.069   0.703
   12SOL     OW   48   0.686   1.161   1.803
   12SOL    HW1   49   0.746   1.240   1.817
   12SOL    HW2   50   0.600   1.192   1.762
   13SOL     OW   51   0.335   1.435   1.061
   13SOL    HW1   52   0.257   1.404   1.008
   13SOL    HW2   53   0.393   1.493   1.004
   14SOL     OW   54   1.460   1.505   1.339
   14SOL    HW1   55   1.484   1.599   1.365
   14SOL    HW2   56   1.444   1.451   1.421
   15SOL     OW   57   0.438   0.392   1.499
   15SOL    HW1   58   0.520   0.336   1.508
   15SOL    HW2   59   0.357   0.334   1.503
   16SOL     OW   60   1.603   0.447   0.737
   16SOL    HW1   61   1.529   0.493   0.687
   16SOL    HW2   62   1.654   0.515   0.790
   17SOL     OW   63   0.231   1.713   0.483
   17SOL    HW1   64   0.265   1.790   0.537
   17SOL    HW2   65   0.275   1.713   0.393
   18SOL     OW   66   1.127   1.341   1.690
   18SOL    HW1   67   1.174   1.341   1.778
   18SOL    HW2   68   1.079   1.254   1.679
   19SOL     OW   69   0.230   1.434   0.538
   19SOL    HW1   70   0.204   1.530   0.538
   19SOL    HW2   71   0.159   1.380   0.583
   20SOL     OW   72   0.240   1.091   0.886
   20SOL    HW1   73   0.254   1.007   0.938
   20SOL    HW2   74   0.185   1.155   0.941
   21SOL     OW   75   0.620   1.786   1.439
   21SOL    HW1   76   0.528   1.769   1.474
   21SOL    HW2   77   0.648   1.878   1.465
   22SOL     OW   78   0.606   0.964   0.123
   22SOL    HW1   79   0.613   1.048   0.069
   22SOL    HW2   80   0.652   0.977   0.211
   23SOL     OW   81   1.594   0.114   1.480
   23SOL    HW1   82   1.576   0.181   1.408
   23SOL    HW2   83   1.591   0.160   1.569
   24SOL     OW   84   0.122   0.643   0.563
   24SOL    HW1   85   0.077   0.555   0.580
   24SOL    HW2   86   0.121   0.697   0.647
   25SOL     OW   87   1.842   1.767   0.359
   25SOL    HW1   88   1.896   1.738   0.439
   25SOL    HW2   89   1.872   1.857   0.330
   26SOL     OW   90   0.027   1.596   0.117
   26SOL    HW1   91   0.008   1.500   0.138
   26SOL    HW2   92  -0.006   1.654   0.192
   27SOL     OW   93   1.689   0.922   0.612
   27SOL    HW1   94   1.784   0.893   0.620
   27SOL    HW2   95   1.681   0.987   0.537
   28SOL     OW   96   1.641   1.108   0.432
   28SOL    HW1   97   1.727   1.110   0.380
   28SOL    HW2   98   1.655   1.155   0.520
   29SOL     OW   99   0.113   0.737   1.597
   29SOL    HW1  100   0.201   0.724   1.642
   29SOL    HW2  101   0.100   0.834   1.575
   30SOL     OW  102   0.613   1.365   0.726
   30SOL    HW1  103   0.564   1.278   0.735
   30SOL    HW2  104   0.590   1.408   0.639
   31SOL     OW  105   1.293   1.228   1.423
   31SOL    HW1  106   1.330   1.155   1.365
   31SOL    HW2  107   1.345   1.233   1.508
   32SOL     OW  108   0.809   0.004   0.502
   32SOL    HW1  109   0.849   0.095   0.493
   32SOL    HW2  110   0.709   0.012   0.508
   33SOL     OW  111   0.197   0.976   1.264
   33SOL    HW1  112   0.286   0.931   1.250
   33SOL    HW2  113   0.124   0.911   1.245
   34SOL     OW  114   1.525   0.999   0.190
   34SOL    HW1  115   1.462   0.923   0.203
   34SOL    HW2  116   1.573   1.017   0.276
   35SOL     OW  117   1.187   1.792   1.616
   35SOL    HW1  118   1.211   1.852   1.540
   35SOL    HW2  119   1.194   1.697   1.586
   36SOL     OW  120   0.317   0.251   1.801
   36SOL    HW1  121   0.388   0.322   1.807
   36SOL    HW2  122   0.229   0.290   1.829
   37SOL     OW  123   1.466   1.417   0.953
   37SOL    HW1  124   1.407   1.423   1.033
   37SOL    HW2  125   1.451   1.329   0.907
   38SOL     OW  126   1.667   1.714   0.572
   38SOL    HW1  127   1.626   1.691   0.484
   38SOL    HW2  128   1.649   1.640   0.637
   39SOL     OW  129   0.598   0.729   0.270
   39SOL    HW1  130   0.622   0.798   0.202
   39SOL    HW2  131   0.520   0.762   0.324
   40SOL     OW  132   1.281   0.345   0.944
   40SOL    HW1  133   1.195   0.295   0.931
   40SOL    HW2  134   1.343   0.291   1.000
   41SOL     OW  135   1.576   1.662   0.307
   41SOL    HW1  136   1.665   1.708   0.310
   41SOL    HW2  137   1.555   1.638   0.212
   42SOL     OW  138   0.807   0.605   1.465
   42SOL    HW1  139   0.760   0.602   1.554
   42SOL    HW2  140   0.756   0.550   1.399
   43SOL     OW  141   1.394   0.469   1.674
   43SOL    HW1  142   1.374   0.512   1.762
   43SOL    HW2  143   1.472   0.407   1.683
   44SOL     OW  144   0.973   0.890   1.572
   44SOL    HW1  145   1.019   0.806   1.543
   44SOL    HW2  146   0.917   0.924   1.497
   45SOL     OW  147   0.991   0.410   1.242
   45SOL    HW1  148   0.914   0.444   1.296
   45SOL    HW2  149   0.957   0.359   1.163
   46SOL     OW  150   1.041   0.701   0.429
   46SOL    HW1  151   1.067   0.697   0.525
   46SOL    HW2  152   0.956   0.650   0.415
   47SOL     OW  153   0.076   0.811   0.789
   47SOL    HW1  154   0.175   0.799   0.798
   47SOL    HW2  155   0.052   0.906   0.810
   48SOL     OW  156   0.130   1.821   1.571
   48SOL    HW1  157   0.120   1.806   1.670
   48SOL    HW2  158   0.044   1.857   1.535
   49SOL     OW  159   0.865   0.348   0.195
   49SOL    HW1  160   0.924   0.411   0.146
   49SOL    HW2  161   0.884   0.254   0.166
   50SOL     OW  162   1.719   0.585   1.831
   50SOL    HW1  163   1.693   0.674   1.795
   50SOL    HW2  164   1.717   0.517   1.758
   51SOL     OW  165   1.362   1.144   0.545
   51SOL    HW1  166   1.445   1.115   0.497
   51SOL    HW2  167   1.313   1.211   0.489
   52SOL     OW  168   0.550   0.196   0.885
   52SOL    HW1  169   0.545   0.191   0.985
   52SOL    HW2  170   0.552   0.292   0.856
   53SOL     OW  171   1.008   1.456   0.477
   53SOL    HW1  172   0.962   1.528   0.425
   53SOL    HW2  173   1.004   1.476   0.575
   54SOL     OW  174   0.351   1.801   0.853
   54SOL    HW1  175   0.401   1.715   0.859
   54SOL    HW2  176   0.416   1.878   0.850
   55SOL     OW  177   1.795   1.066   0.873
   55SOL    HW1  178   1.733   1.051   0.797
   55SOL    HW2  179   1.743   1.077   0.958
   56SOL     OW  180   1.227   1.550   1.506
   56SOL    HW1  181   1.233   1.473   1.570
   56SOL    HW2  182   1.175   1.524   1.426
   57SOL     OW  183   0.321   0.943   0.242
   57SOL    HW1  184   0.403   0.982   0.200
   57SOL    HW2  185   0.294   0.861   0.193
   58SOL     OW  186   1.458   0.735   0.728
   58SOL    HW1  187   1.453   0.670   0.803
   58SOL    HW2  188   1.538   0.794   0.741
   59SOL     OW  189   0.461   1.266   1.727
   59SOL    HW1  190   0.411   1.267   1.641
   59SOL    HW2  191   0.398   1.248   1.803
   60SOL     OW  192   1.111   1.776   0.237
   60SOL    HW1  193   1.051   1.714   0.287
   60SOL    HW2  194   1.142   1.732   0.152
   61SOL     OW  195   0.202   0.285   1.498
   61SOL    HW1  196   0.122   0.345   1.485
   61SOL    HW2  197   0.192   0.236   1.584
   62SOL     OW  198   1.632   1.377   0.081
   62SOL    HW1  199   1.600   1.471   0.071
   62SOL    HW2  200   1.556   1.314   0.069
   63SOL     OW  201   0.464   1.743   0.323
   63SOL    HW1  202   0.497   1.782   0.409
   63SOL    HW2  203   0.540   1.736   0.258
   64SOL     OW  204   1.400   0.107   0.426
   64SOL    HW1  205   1.376   0.070   0.336
   64SOL    HW2  206   1.499   0.123   0.430
   65SOL     OW  207   0.249   1.785   1.241
   65SOL    HW1  208   0.306   1.720   1.291
   65SOL    HW2  209   0.233   1.752   1.148
   66SOL     OW  210   0.940   1.698   0.904
   66SOL    HW1  211   1.020   1.641   0.925
   66SOL    HW2  212   0.891   1.658   0.827
   67SOL     OW  213   0.382   0.700   0.480
   67SOL    HW1  214   0.427   0.610   0.477
   67SOL    HW2  215   0.288   0.689   0.513
   68SOL     OW  216   1.547   0.222   1.729
   68SOL    HW1  217   1.542   0.259   1.821
   68SOL    HW2  218   1.475   0.153   1.717
   69SOL     OW  219   0.614   0.122   0.117
   69SOL    HW1  220   0.712   0.100   0.124
   69SOL    HW2  221   0.583   0.105   0.024
   70SOL     OW  222   0.781   0.264   1.749
   70SOL    HW1  223   0.848   0.203   1.792
   70SOL    HW2  224   0.708   0.283   1.814
   71SOL     OW  225   0.888   1.514   1.195
   71SOL    HW1  226   0.865   1.489   1.101
   71SOL    HW2  227   0.949   1.445   1.234
   72SOL     OW  228   1.351   0.590   1.433
   72SOL    HW1  229   1.379   0.547   1.518
   72SOL    HW2  230   1.376   0.686   1.434
   73SOL     OW  231   0.803   1.402   0.924
   73SOL    HW1  232   0.893   1.416   0.882
   73SOL    HW2  233   0.732   1.404   0.853
   74SOL     OW  234   0.922   0.503   0.899
   74SOL    HW1  235   0.897   0.494   0.803
   74SOL    HW2  236   0.970   0.421   0.930
   75SOL     OW  237   0.539   0.064   0.512
   75SOL    HW1  238   0.458   0.065   0.570
   75SOL    HW2  239   0.542   0.147   0.457
   76SOL     OW  240   1.434   1.188   0.041
   76SOL    HW1  241   1.466   1.112   0.098
   76SOL    HW2  242   1.342   1.215   0.071
   77SOL     OW  243   0.297   0.035   0.171
   77SOL    HW1  244   0.346   0.119   0.150
   77SOL    HW2  245   0.359  -0.030   0.216
   78SOL     OW  246   0.935   0.236   0.480
   78SOL    HW1  247   0.887   0.277   0.402
   78SOL    HW2  248   1.034   0.234   0.461
   79SOL     OW  249   1.076   0.683   1.464
   79SOL    HW1  250   0.996   0.622   1.467
   79SOL    HW2  251   1.157   0.630   1.440
   80SOL     OW  252   1.227   1.570   0.793
   80SOL    HW1  253   1.248   1.644   0.728
   80SOL    HW2  254   1.295   1.570   0.866
   81SOL     OW  255   0.459   1.152   0.741
   81SOL    HW1  256   0.388   1.125   0.806
   81SOL    HW2  257   0.433   1.124   0.648
   82SOL     OW  258   1.271   1.797   0.591
   82SOL    HW1  259   1.315   1.861   0.527
   82SOL    HW2  260   1.221   1.849   0.661
   83SOL     OW  261   1.032   0.549   0.016
   83SOL    HW1  262   0.991   0.631  -0.023
   83SOL    HW2  263   1.096   0.575   0.089
   84SOL     OW  264   0.078   0.556   1.386
   84SOL    HW1  265   0.170   0.555   1.345
   84SOL    HW2  266   0.072   0.630   1.453
   85SOL     OW  267   0.561   0.222   1.147
   85SOL    HW1  268   0.599   0.138   1.184
   85SOL    HW2  269   0.473   0.241   1.191
   86SOL     OW  270   0.866   0.454   0.642
   86SOL    HW1  271   0.834   0.526   0.580
   86SOL    HW2  272   0.890   0.373   0.589
   87SOL     OW  273   1.017   0.039   0.753
   87SOL    HW1  274   0.945   0.044   0.684
   87SOL    HW2  275   0.993  -0.030   0.822
   88SOL     OW  276   1.429   1.173   0.867
   88SOL    HW1  277   1.374   1.089   0.860
   88SOL    HW2  278   1.455   1.202   0.775
   89SOL     OW  279   1.466   0.590   0.992
   89SOL    HW1  280   1.436   0.495   0.999
   89SOL    HW2  281   1.539   0.606   1.058
   90SOL     OW  282   1.857   0.833   0.377
   90SOL    HW1  283   1.899   0.769   0.441
   90SOL    HW2  284   1.819   0.782   0.299
   91SOL     OW  285   0.488   1.385   0.174
   91SOL    HW1  286   0.401   1.370   0.221
   91SOL    HW2  287   0.471   1.411   0.079
   92SOL     OW  288   1.664   1.280   0.657
   92SOL    HW1  289   1.763   1.288   0.671
   92SOL    HW2  290   1.619   1.364   0.688
   93SOL     OW  291   1.390   0.575   0.078
   93SOL    HW1  292   1.336   0.554   0.159
   93SOL    HW2  293   1.481   0.534   0.087
   94SOL     OW  294   0.527   0.256   0.328
   94SOL    HW1  295   0.554   0.197   0.253
   94SOL    HW2  296   0.527   0.351   0.297
   95SOL     OW  297   1.754   1.223   1.588
   95SOL    HW1  298   1.845   1.184   1.575
   95SOL    HW2  299   1.762   1.319   1.612
   96SOL     OW  300   1.064   1.347   1.340
   96SOL    HW1  301   0.984   1.324   1.395
   96SOL    HW2  302   1.147   1.321   1.389
   97SOL     OW  303   1.592   1.629   1.625
   97SOL    HW1  304   1.619   1.663   1.535
   97SOL    HW2  305   1.671   1.591   1.671
   98SOL     OW  306   1.111   1.195   1.100
   98SOL    HW1  307   1.071   1.239   1.181
   98SOL    HW2  308   1.070   1.232   1.017
   99SOL     OW  309   1.638   1.099   1.079
   99SOL    HW1  310   1.643   1.180   1.138
   99SOL    HW2  311   1.552   1.101   1.028
  100SOL     OW  312   0.915   0.089   1.402
  100SOL    HW1  313   0.940   0.069   1.307
  100SOL    HW2  314   0.987   0.145   1.444
  101SOL     OW  315   0.980   1.116   1.719
  101SOL    HW1  316   0.881   1.122   1.729
  101SOL    HW2  317   1.003   1.036   1.663
  102SOL     OW  318   0.705   1.050   0.368
  102SOL    HW1  319   0.691   1.057   0.467
  102SOL    HW2  320   0.789   0.999   0.350
  103SOL     OW  321   0.410   0.813   1.251
  103SOL    HW1  322   0.496   0.825   1.301
  103SOL    HW2  323   0.368   0.726   1.278
  104SOL     OW  324   1.274   0.386   1.262
  104SOL    HW1  325   1.295   0.460   1.326
  104SOL    HW2  326   1.185   0.403   1.219
  105SOL     OW  327   0.064   1.564   1.331
  105SOL    HW1  328   0.018   1.646   1.297
  105SOL    HW2  329   0.162   1.583   1.340
  106SOL     OW  330   0.367   1.100   0.501
  106SOL    HW1  331   0.360   1.183   0.445
  106SOL    HW2  332   0.371   1.020   0.441
  107SOL     OW  333   0.566   0.537   0.865
  107SOL    HW1  334   0.578   0.603   0.791
  107SOL    HW2  335   0.612   0.571   0.948
  108SOL     OW  336   1.252   1.348   0.388
  108SOL    HW1  337   1.302   1.425   0.428
  108SOL    HW2  338   1.157   1.350   0.420
  109SOL     OW  339   1.272   1.445   1.142
  109SOL    HW1  340   1.319   1.458   1.229
  109SOL    HW2  341   1.206   1.371   1.151
  110SOL     OW  342   1.582   0.639   0.472
  110SOL    HW1  343   1.551   0.700   0.545
  110SOL    HW2  344   1.632   0.691   0.403
  111SOL     OW  345   0.354   1.510   1.329
  111SOL    HW1  346   0.333   1.466   1.242
  111SOL    HW2  347   0.451   1.536   1.332
  112SOL     OW  348   0.402   0.751   1.598
  112SOL    HW1  349   0.470   0.806   1.551
  112SOL    HW2  350   0.442   0.663   1.625
  113SOL     OW  351   1.587   0.779   1.670
  113SOL    HW1  352   1.495   0.817   1.665
  113SOL    HW2  353   1.647   0.826   1.605
  114SOL     OW  354   1.013   0.105   1.770
  114SOL    HW1  355   1.019   0.190   1.718
  114SOL    HW2  356   1.045   0.029   1.713
  115SOL     OW  357   0.504   0.050   1.740
  115SOL    HW1  358   0.462  -0.007   1.670
  115SOL    HW2  359   0.438   0.119   1.772
  116SOL     OW  360   0.573   0.870   1.029
  116SOL    HW1  361   0.617   0.959   1.020
  116SOL    HW2  362   0.510   0.870   1.106
  117SOL     OW  363   1.360   0.862   1.045
  117SOL    HW1  364   1.285   0.862   0.979
  117SOL    HW2  365   1.397   0.770   1.054
  118SOL     OW  366   1.209   0.525   0.275
  118SOL    HW1  367   1.222   0.441   0.329
  118SOL    HW2  368   1.180   0.599   0.335
  119SOL     OW  369   0.307   0.213   1.231
  119SOL    HW1  370   0.284   0.250   1.321
  119SOL    HW2  371   0.277   0.118   1.225
  120SOL     OW  372   0.037   1.310   1.282
  120SOL    HW1  373   0.090   1.261   1.350
  120SOL    HW2  374   0.059   1.408   1.287
  121SOL     OW  375   0.732   0.634   1.064
  121SOL    HW1  376   0.791   0.608   0.988
  121SOL    HW2  377   0.704   0.730   1.053
  122SOL     OW  378   1.728   0.935   1.854
  122SOL    HW1  379   1.682   0.928   1.765
  122SOL    HW2  380   1.666   0.979   1.920
  123SOL     OW  381   0.307   0.063   0.618
  123SOL    HW1  382   0.296   0.157   0.651
  123SOL    HW2  383   0.302   0.000   0.695
  124SOL     OW  384   1.622   0.367   0.374
  124SOL    HW1  385   1.624   0.291   0.438
  124SOL    HW2  386   1.574   0.444   0.414
  125SOL     OW  387   1.023   0.766   0.966
  125SOL    HW1  388   1.038   0.787   1.062
  125SOL    HW2  389   0.993   0.671   0.957
  126SOL     OW  390   0.980   1.573   1.700
  126SOL    HW1  391   0.960   1.617   1.612
  126SOL    HW2  392   1.019   1.482   1.684
  127SOL     OW  393   1.859   1.518   1.605
  127SOL    HW1  394   1.873   1.545   1.510
  127SOL    HW2  395   1.942   1.540   1.658
  128SOL     OW  396   0.350   0.898   1.804
  128SOL    HW1  397   0.426   0.942   1.852
  128SOL    HW2  398   0.385   0.851   1.722
  129SOL     OW  399   1.540   0.274   0.125
  129SOL    HW1  400   1.479   0.199   0.148
  129SOL    HW2  401   1.562   0.326   0.208
  130SOL     OW  402   1.303   0.838   0.042
  130SOL    HW1  403   1.337   0.745   0.057
  130SOL    HW2  404   1.321   0.865  -0.053
  131SOL     OW  405   1.068   1.333   0.849
  131SOL    HW1  406   1.075   1.249   0.794
  131SOL    HW2  407   1.130   1.402   0.813
  132SOL     OW  408   0.319   0.810   0.949
  132SOL    HW1  409   0.412   0.846   0.954
  132SOL    HW2  410   0.313   0.725   1.001
  133SOL     OW  411   0.339   0.509   1.006
  133SOL    HW1  412   0.287   0.426   0.989
  133SOL    HW2  413   0.416   0.514   0.942
  134SOL     OW  414   1.138   0.380   1.678
  134SOL    HW1  415   1.093   0.443   1.742
  134SOL    HW2  416   1.231   0.411   1.661
  135SOL     OW  417   1.160   0.207   1.477
  135SOL    HW1  418   1.160   0.271   1.554
  135SOL    HW2  419   1.188   0.255   1.394
  136SOL     OW  420   0.008   1.326   0.200
  136SOL    HW1  421  -0.085   1.347   0.169
  136SOL    HW2  422   0.018   1.227   0.213
  137SOL     OW  423   0.088   1.801   0.927
  137SOL    HW1  424   0.046   1.715   0.900
  137SOL    HW2  425   0.182   1.804   0.893
  138SOL     OW  426   0.504   1.568   0.910
  138SOL    HW1  427   0.570   1.642   0.919
  138SOL    HW2  428   0.548   1.489   0.868
  139SOL     OW  429   1.002   0.796   1.238
  139SOL    HW1  430   1.043   0.764   1.324
  139SOL    HW2  431   0.906   0.769   1.235
  140SOL     OW  432   0.040   0.544   1.114
  140SOL    HW1  433   0.125   0.511   1.073
  140SOL    HW2  434   0.053   0.559   1.212
  141SOL     OW  435   0.189   0.520   1.722
  141SOL    HW1  436   0.248   0.480   1.652
  141SOL    HW2  437   0.131   0.591   1.681
  142SOL     OW  438   1.369   0.950   1.660
  142SOL    HW1  439   1.408   1.039   1.680
  142SOL    HW2  440   1.379   0.930   1.563
  143SOL     OW  441   0.815   0.572   0.325
  143SOL    HW1  442   0.822   0.483   0.279
  143SOL    HW2  443   0.721   0.606   0.317
  144SOL     OW  444   1.657   0.604   1.206
  144SOL    HW1  445   1.619   0.535   1.268
  144SOL    HW2  446   1.739   0.568   1.162
  145SOL     OW  447   0.252   1.564   1.744
  145SOL    HW1  448   0.222   1.621   1.820
  145SOL    HW2  449   0.245   1.467   1.770
  146SOL     OW  450   0.671   0.464   1.269
  146SOL    HW1  451   0.637   0.375   1.239
  146SOL    HW2  452   0.697   0.518   1.189
  147SOL     OW  453   0.930   1.678   1.465
  147SOL    HW1  454   0.906   1.660   1.370
  147SOL    HW2  455   0.960   1.772   1.475
  148SOL     OW  456   0.473   0.500   0.191
  148SOL    HW1  457   0.534   0.580   0.195
  148SOL    HW2  458   0.378   0.531   0.198
  149SOL     OW  459   0.159   1.137   1.466
  149SOL    HW1  460   0.181   1.076   1.542
  149SOL    HW2  461   0.169   1.088   1.380
  150SOL     OW  462   1.347   1.059   1.234
  150SOL    HW1  463   1.371   0.996   1.160
  150SOL    HW2  464   1.257   1.099   1.216
  151SOL     OW  465   1.302   0.855   0.309
  151SOL    HW1  466   1.216   0.824   0.351
  151SOL    HW2  467   1.298   0.841   0.210
  152SOL     OW  468   1.759   1.747   1.154
  152SOL    HW1  469   1.820   1.777   1.081
  152SOL    HW2  470   1.721   1.658   1.132
  153SOL     OW  471   1.252   1.731   1.128
  153SOL    HW1  472   1.336   1.736   1.074
  153SOL    HW2  473   1.229   1.635   1.146
  154SOL     OW  474   0.083   1.258   1.022
  154SOL    HW1  475   0.078   1.257   1.122
  154SOL    HW2  476   0.000   1.217   0.984
  155SOL     OW  477   0.688   1.662   1.716
  155SOL    HW1  478   0.632   1.743   1.725
  155SOL    HW2  479   0.740   1.666   1.630
  156SOL     OW  480   0.903   0.086   0.133
  156SOL    HW1  481   0.954   0.087   0.047
  156SOL    HW2  482   0.959   0.044   0.204
  157SOL     OW  483   1.726   0.135   0.523
  157SOL    HW1  484   1.799   0.118   0.456
  157SOL    HW2  485   1.695   0.048   0.561
  158SOL     OW  486   1.388   1.573   0.477
  158SOL    HW1  487   1.455   1.585   0.403
  158SOL    HW2  488   1.348   1.662   0.500
  159SOL     OW  489   0.130   1.794   1.851
  159SOL    HW1  490   0.089   1.720   1.904
  159SOL    HW2  491   0.194   1.845   1.909
  160SOL     OW  492   1.280   0.927   0.672
  160SOL    HW1  493   1.340   0.846   0.674
  160SOL    HW2  494   1.320   0.996   0.612
  161SOL     OW  495   0.830   1.273   1.422
  161SOL    HW1  496   0.825   1.306   1.517
  161SOL    HW2  497   0.744   1.292   1.376
  162SOL     OW  498   0.672   1.616   0.154
  162SOL    HW1  499   0.681   1.626   0.055
  162SOL    HW2  500   0.632   1.527   0.175
  163SOL     OW  501   1.650   1.720   1.394
  163SOL    HW1  502   1.703   1.730   1.310
  163SOL    HW2  503   1.623   1.810   1.428
  164SOL     OW  504   1.841   0.175   0.963
  164SOL    HW1  505   1.880   0.090   0.927
  164SOL    HW2  506   1.743   0.177   0.944
  165SOL     OW  507   0.263   0.326   0.720
  165SOL    HW1  508   0.184   0.377   0.686
  165SOL    HW2  509   0.254   0.311   0.818
  166SOL     OW  510   1.194   1.612   0.031
  166SOL    HW1  511   1.200   1.519   0.068
  166SOL    HW2  512   1.135   1.612  -0.049
  167SOL     OW  513   0.822   1.002   1.372
  167SOL    HW1  514   0.862   1.001   1.280
  167SOL    HW2  515   0.832   1.094   1.412
  168SOL     OW  516   0.916   0.910   0.291
  168SOL    HW1  517   0.979   0.948   0.223
  168SOL    HW2  518   0.956   0.827   0.330
  169SOL     OW  519   1.504   1.607   0.044
  169SOL    HW1  520   1.412   1.644   0.051
  169SOL    HW2  521   1.542   1.627  -0.046
  170SOL     OW  522   0.372   1.288   1.490
  170SOL    HW1  523   0.359   1.381   1.456
  170SOL    HW2  524   0.288   1.236   1.477
  171SOL     OW  525   1.614   1.292   1.289
  171SOL    HW1  526   1.674   1.295   1.369
  171SOL    HW2  527   1.539   1.356   1.302
  172SOL     OW  528   1.039   1.098   0.696
  172SOL    HW1  529   0.969   1.051   0.750
  172SOL    HW2  530   1.098   1.030   0.653
  173SOL     OW  531   1.014   0.236   0.971
  173SOL    HW1  532   1.006   0.200   0.878
  173SOL    HW2  533   1.012   0.160   1.036
  174SOL     OW  534   0.590   1.487   0.491
  174SOL    HW1  535   0.632   1.429   0.421
  174SOL    HW2  536   0.546   1.566   0.447
  175SOL     OW  537   1.709   0.385   1.381
  175SOL    HW1  538   1.782   0.454   1.385
  175SOL    HW2  539   1.737   0.310   1.322
  176SOL     OW  540   0.255   1.348   0.290
  176SOL    HW1  541   0.159   1.349   0.263
  176SOL    HW2  542   0.267   1.401   0.374
  177SOL     OW  543   0.105   1.013   1.726
  177SOL    HW1  544   0.028   0.980   1.780
  177SOL    HW2  545   0.190   0.983   1.768
  178SOL     OW  546   0.672   0.203   1.489
  178SOL    HW1  547   0.762   0.187   1.449
  178SOL    HW2  548   0.680   0.208   1.588
  179SOL     OW  549   0.075   0.345   0.033
  179SOL    HW1  550  -0.017   0.317   0.004
  179SOL    HW2  551   0.106   0.422  -0.023
  180SOL     OW  552   1.440   0.856   1.398
  180SOL    HW1  553   1.383   0.908   1.335
  180SOL    HW2  554   1.536   0.868   1.374
  181SOL     OW  555   0.072   0.166   0.318
  181SOL    HW1  556   0.055   0.249   0.264
  181SOL    HW2  557   0.162   0.129   0.296
  182SOL     OW  558   1.183   1.335   0.119
  182SOL    HW1  559   1.084   1.324   0.121
  182SOL    HW2  560   1.217   1.350   0.212
  183SOL     OW  561   0.613   0.842   1.431
  183SOL    HW1  562   0.669   0.923   1.414
  183SOL    HW2  563   0.672   0.762   1.434
  184SOL     OW  564   1.493   1.767   0.959
  184SOL    HW1  565   1.526   1.831   0.890
  184SOL    HW2  566   1.559   1.761   1.034
  185SOL     OW  567   0.716   0.565   1.708
  185SOL    HW1  568   0.735   0.630   1.782
  185SOL    HW2  569   0.776   0.485   1.717
  186SOL     OW  570   1.450   1.220   1.633
  186SOL    HW1  571   1.441   1.210   1.732
  186SOL    HW2  572   1.546   1.213   1.607
  187SOL     OW  573   0.390   1.741   1.560
  187SOL    HW1  574   0.299   1.782   1.558
  187SOL    HW2  575   0.383   1.647   1.592
  188SOL     OW  576   1.674   0.883   1.254
  188SOL    HW1  577   1.647   0.794   1.217
  188SOL    HW2  578   1.675   0.951   1.181
  189SOL     OW  579   1.225   0.325   0.449
  189SOL    HW1  580   1.290   0.251   0.438
  189SOL    HW2  581   1.245   0.375   0.533
  190SOL     OW  582   0.594   0.745   0.652
  190SOL    HW1  583   0.644   0.830   0.633
  190SOL    HW2  584   0.506   0.747   0.604
  191SOL     OW  585   1.777   0.342   1.642
  191SOL    HW1  586   1.760   0.373   1.548
  191SOL    HW2  587   1.693   0.305   1.680
  192SOL     OW  588   1.730   0.934   1.517
  192SOL    HW1  589   1.768   1.025   1.532
  192SOL    HW2  590   1.722   0.917   1.418
  193SOL     OW  591   0.859   1.374   0.016
  193SOL    HW1  592   0.813   1.389   0.104
  193SOL    HW2  593   0.903   1.459  -0.014
  194SOL     OW  594   0.661   1.790   0.953
  194SOL    HW1  595   0.615   1.878   0.940
  194SOL    HW2  596   0.760   1.802   0.946
  195SOL     OW  597   0.859   0.956   0.861
  195SOL    HW1  598   0.913   0.887   0.909
  195SOL    HW2  599   0.827   1.025   0.927
  196SOL     OW  600   1.083   0.984   0.087
  196SOL    HW1  601   1.060   1.037   0.005
  196SOL    HW2  602   1.164   0.928   0.068
  197SOL     OW  603   1.861   1.569   0.851
  197SOL    HW1  604   1.790   1.557   0.781
  197SOL    HW2  605   1.862   1.490   0.911
  198SOL     OW  606   0.221   1.314   1.844
  198SOL    HW1  607   0.156   1.241   1.823
  198SOL    HW2  608   0.225   1.328   1.942
  199SOL     OW  609   0.079   1.240   0.653
  199SOL    HW1  610   0.078   1.193   0.741
  199SOL    HW2  611   0.161   1.212   0.602
  200SOL     OW  612   0.672   1.391   1.624
  200SOL    HW1  613   0.594   1.341   1.662
  200SOL    HW2  614   0.669   1.486   1.655
  201SOL     OW  615   1.824   0.192   1.227
  201SOL    HW1  616   1.820   0.102   1.271
  201SOL    HW2  617   1.827   0.181   1.128
  202SOL     OW  618   0.428   0.424   0.520
  202SOL    HW1  619   0.458   0.352   0.458
  202SOL    HW2  620   0.389   0.384   0.603
  203SOL     OW  621   1.705   1.487   1.104
  203SOL    HW1  622   1.612   1.462   1.077
  203SOL    HW2  623   1.731   1.437   1.186
  204SOL     OW  624   0.317   0.547   1.280
  204SOL    HW1  625   0.355   0.488   1.352
  204SOL    HW2  626   0.357   0.521   1.192
  205SOL     OW  627   0.812   1.586   0.687
  205SOL    HW1  628   0.844   1.596   0.593
  205SOL    HW2  629   0.733   1.524   0.689
  206SOL     OW  630   1.424   0.214   1.112
  206SOL    HW1  631   1.476   0.149   1.167
  206SOL    HW2  632   1.375   0.277   1.173
  207SOL     OW  633   1.001   0.034   1.154
  207SOL    HW1  634   0.938  -0.038   1.123
  207SOL    HW2  635   1.094  -0.002   1.154
  208SOL     OW  636   0.770   1.330   0.301
  208SOL    HW1  637   0.724   1.243   0.318
  208SOL    HW2  638   0.861   1.327   0.342
  209SOL     OW  639   0.618   1.567   1.284
  209SOL    HW1  640   0.613   1.649   1.341
  209SOL    HW2  641   0.707   1.564   1.239
  210SOL     OW  642   1.352   0.052   0.168
  210SOL    HW1  643   1.387   0.011   0.084
  210SOL    HW2  644   1.262   0.014   0.188
  211SOL     OW  645   1.300   0.453   0.691
  211SOL    HW1  646   1.241   0.533   0.695
  211SOL    HW2  647   1.315   0.418   0.784
  212SOL     OW  648   1.593   0.221   0.882
  212SOL    HW1  649   1.509   0.220   0.936
  212SOL    HW2  650   1.595   0.304   0.826
  213SOL     OW  651   0.039   1.077   0.300
  213SOL    HW1  652   0.138   1.066   0.291
  213SOL    HW2  653  -0.001   0.991   0.332
  214SOL     OW  654   0.875   1.646   0.337
  214SOL    HW1  655   0.798   1.611   0.283
  214SOL    HW2  656   0.843   1.717   0.399
  215SOL     OW  657   0.230   0.628   1.975
  215SOL    HW1  658   0.137   0.626   2.012
  215SOL    HW2  659   0.231   0.589   1.883
  216SOL     OW  660   0.225   0.275   2.858
  216SOL    HW1  661   0.260   0.258   2.950
  216SOL    HW2  662   0.137   0.230   2.846
  217SOL     OW  663   0.019   0.368   2.509
  217SOL    HW1  664  -0.063   0.411   2.548
  217SOL    HW2  665  -0.009   0.295   2.446
  218SOL     OW  666   0.569   1.275   3.027
  218SOL    HW1  667   0.476   1.268   2.990
  218SOL    HW2  668   0.580   1.364   3.071
  219SOL     OW  669   1.555   1.511   2.565
  219SOL    HW1  670   1.498   1.495   2.646
  219SOL    HW2  671   1.496   1.521   2.485
  220SOL     OW  672   1.135   0.703   2.579
  220SOL    HW1  673   1.192   0.781   2.554
  220SOL    HW2  674   1.075   0.729   2.655
  221SOL     OW  675   1.755   0.607   2.093
  221SOL    HW1  676   1.743   0.594   1.994
  221SOL    HW2  677   1.725   0.526   2.142
  222SOL     OW  678   0.768   1.144   2.885
  222SOL    HW1  679   0.690   1.161   2.945
  222SOL    HW2  680   0.802   1.231   2.849
  223SOL     OW  681   0.850   0.798   3.685
  223SOL    HW1  682   0.846   0.874   3.750
  223SOL    HW2  683   0.872   0.834   3.594
  224SOL     OW  684   0.685   1.012   2.527
  224SOL    HW1  685   0.754   0.996   2.597
  224SOL    HW2  686   0.612   1.069   2.565
  225SOL     OW  687   0.686   1.161   3.665
  225SOL    HW1  688   0.746   1.240   3.679
  225SOL    HW2  689   0.600   1.192   3.624
  226SOL     OW  690   0.335   1.435   2.923
  226SOL    HW1  691   0.257   1.404   2.870
  226SOL    HW2  692   0.393   1.493   2.866
  227SOL     OW  693   1.460   1.505   3.201
  227SOL    HW1  694   1.484   1.599   3.227
  227SOL    HW2  695   1.444   1.451   3.283
  228SOL     OW  696   0.438   0.392   3.361
  228SOL    HW1  697   0.520   0.336   3.370
  228SOL    HW2  698   0.357   0.334   3.365
  229SOL     OW  699   1.603   0.447   2.599
  229SOL    HW1  700   1.529   0.493   2.549
  229SOL    HW2  701   1.654   0.515   2.652
  230SOL     OW  702   0.231   1.713   2.345
  230SOL    HW1  703   0.265   1.790   2.399
  230SOL    HW2  704   0.275   1.713   2.255
  231SOL     OW  705   1.127   1.341   3.552
  231SOL    HW1  706   1.174   1.341   3.640
  231SOL    HW2  707   1.079   1.254   3.541
  232SOL     OW  708   0.230   1.434   2.400
  232SOL    HW1  709   0.204   1.530   2.400
  232SOL    HW2  710   0.159   1.380   2.445
  233SOL     OW  711   0.240   1.091   2.748
  233SOL    HW1  712   0.254   1.007   2.800
  233SOL    HW2  713   0.185   1.155   2.803
  234SOL     OW  714   0.620   1.786   3.301
  234SOL    HW1  715   0.528   1.769   3.336
  234SOL    HW2  716   0.648   1.878   3.327
  235SOL     OW  717   0.606   0.964   1.985
  235SOL    HW1  718   0.613   1.048   1.931
  235SOL    HW2  719   0.652   0.977   2.073
  236SOL     OW  720   1.594   0.114   3.342
  236SOL    HW1  721   1.576   0.181   3.270
  236SOL    HW2  722   1.591   0.160   3.431
  237SOL     OW  723   0.122   0.643   2.425
  237SOL    HW1  724   0.077   0.555   2.442
  237SOL    HW2  725   0.121   0.697   2.509
  238SOL     OW  726   1.842   1.767   2.221
  238SOL    HW1  727   1.896   1.738   2.301
  238SOL    HW2  728   1.872   1.857   2.192
  239SOL     OW  729   0.027   1.596   1.979
  239SOL    HW1  730   0.008   1.500   2.000
  239SOL    HW2  731  -0.006   1.654   2.054
  240SOL     OW  732   1.689   0.922   2.474
  240SOL    HW1  733   1.784   0.893   2.482
  240SOL    HW2  734   1.681   0.987   2.399
  241SOL     OW  735   1.641   1.108   2.294
  241SOL    HW1  736   1.727   1.110   2.242
  241SOL    HW2  737   1.655   1.155   2.382
  242SOL     OW  738   0.113   0.737   3.459
  242SOL    HW1  739   0.201   0.724   3.504
  242SOL    HW2  740   0.100   0.834   3.437
  243SOL     OW  741   0.613   1.365   2.588
  243SOL    HW1  742   0.564   1.278   2.597
  243SOL    HW2  743   0.590   1.408   2.501
  244SOL     OW  744   1.293   1.228   3.285
  244SOL    HW1  745   1.330   1.155   3.227
  244SOL    HW2  746   1.345   1.233   3.370
  245SOL     OW  747   0.809   0.004   2.364
  245SOL    HW1  748   0.849   0.095   2.355
  245SOL    HW2  749   0.709   0.012   2.370
  246SOL     OW  750   0.197   0.976   3.126
  246SOL    HW1  751   0.286   0.931   3.112
  246SOL    HW2  752   0.124   0.911   3.107
  247SOL     OW  753   1.525   0.999   2.052
  247SOL    HW1  754   1.462   0.923   2.065
  247SOL    HW2  755   1.573   1.017   2.138
  248SOL     OW  756   1.187   1.792   3.478
  248SOL    HW1  757   1.211   1.852   3.402
  248SOL    HW2  758   1.194   1.697   3.448
  249SOL     OW  759   0.317   0.251   3.663
  249SOL    HW1  760   0.388   0.322   3.669
  249SOL    HW2  761   0.229   0.290   3.691
  250SOL     OW  762   1.466   1.417   2.815
  250SOL    HW1  763   1.407   1.423   2.895
  250SOL    HW2  764   1.451   1.329   2.769
  251SOL     OW  765   1.667   1.714   2.434
  251SOL    HW1  766   1.626   1.691   2.346
  251SOL    HW2  767   1.649   1.640   2.499
  252SOL     OW  768   0.598   0.729   2.132
  252SOL    HW1  769   0.622   0.798   2.064
  252SOL    HW2  770   0.520   0.762   2.186
  253SOL     OW  771   1.281   0.345   2.806
  253SOL    HW1  772   1.195   0.295   2.793
  253SOL    HW2  773   1.343   0.291   2.862
  254SOL     OW  774   1.576   1.662   2.169
  254SOL    HW1  775   1.665   1.708   2.172
  254SOL    HW2  776   1.555   1.638   2.074
  255SOL     OW  777   0.807   0.605   3.327
  255SOL    HW1  778   0.760   0.602   3.416
  255SOL    HW2  779   0.756   0.550   3.261
  256SOL     OW  780   1.394   0.469   3.536
  256SOL    HW1  781   1.374   0.512   3.624
  256SOL    HW2  782   1.472   0.407   3.545
  257SOL     OW  783   0.973   0.890   3.434
  257SOL    HW1  784   1.019   0.806   3.405
  257SOL    HW2  785   0.917   0.924   3.359
  258SOL     OW  786   0.991   0.410   3.104
  258SOL    HW1  787   0.914   0.444   3.158
  258SOL    HW2  788   0.957   0.359   3.025
  259SOL     OW  789   1.041   0.701   2.291
  259SOL    HW1  790   1.067   0.697   2.387
  259SOL    HW2  791   0.956   0.650   2.277
  260SOL     OW  792   0.076   0.811   2.651
  260SOL    HW1  793   0.175   0.799   2.660
  260SOL    HW2  794   0.052   0.906   2.672
  261SOL     OW  795   0.130   1.821   3.433
  261SOL    HW1  796   0.120   1.806   3.532
  261SOL    HW2  797   0.044   1.857   3.397
  262SOL     OW  798   0.865   0.348   2.057
  262SOL    HW1  799   0.924   0.411   2.008
  262SOL    HW2  800   0.884   0.254   2.028
  263SOL     OW  801   1.719   0.585   3.693
  263SOL    HW1  802   1.693   0.674   3.657
  263SOL    HW2  803   1.717   0.517   3.620
  264SOL     OW  804   1.362   1.144   2.407
  264SOL    HW1  805   1.445   1.115   2.359
  264SOL    HW2  806   1.313   1.211   2.351
  265SOL     OW  807   0.550   0.196   2.747
  265SOL    HW1  808   0.545   0.191   2.847
  265SOL    HW2  809   0.552   0.292   2.718
  266SOL     OW  810   1.008   1.456   2.339
  266SOL    HW1  811   0.962   1.528   2.287
  266SOL    HW2  812   1.004   1.476   2.437
  267SOL     OW  813   0.351   1.801   2.715
  267SOL    HW1  814   0.401   1.715   2.721
  267SOL    HW2  815   0.416   1.878   2.712
  268SOL     OW  816   1.795   1.066   2.735
  268SOL    HW1  817   1.733   1.051   2.659
  268SOL    HW2  818   1.743   1.077   2.820
  269SOL     OW  819   1.227   1.550   3.368
  269SOL    HW1  820   1.233   1.473   3.432
  269SOL    HW2  821   1.175   1.524   3.288
  270SOL     OW  822   0.321   0.943   2.104
  270SOL    HW1  823   0.403   0.982   2.062
  270SOL    HW2  824   0.294   0.861   2.055
  271SOL     OW  825   1.458   0.735   2.590
  271SOL    HW1  826   1.453   0.670   2.665
  271SOL    HW2  827   1.538   0.794   2.603
  272SOL     OW  828   0.461   1.266   3.589
  272SOL    HW1  829   0.411   1.267   3.503
  272SOL    HW2  830   0.398   1.248   3.665
  273SOL     OW  831   1.111   1.776   2.099
  273SOL    HW1  832   1.051   1.714   2.149
  273SOL    HW2  833   1.142   1.732   2.014
  274SOL     OW  834   0.202   0.285   3.360
  274SOL    HW1  835   0.122   0.345   3.347
  274SOL    HW2  836   0.192   0.236   3.446
  275SOL     OW  837   1.632   1.377   1.943
  275SOL    HW1  838   1.600   1.471   1.933
  275SOL    HW2  839   1.556   1.314   1.931
  276SOL     OW  840   0.464   1.743   2.185
  276SOL    HW1  841   0.497   1.782   2.271
  276SOL    HW2  842   0.540   1.736   2.120
  277SOL     OW  843   1.400   0.107   2.288
  277SOL    HW1  844   1.376   0.070   2.198
  277SOL    HW2  845   1.499   0.123   2.292
  278SOL     OW  846   0.249   1.785   3.103
  278SOL    HW1  847   0.306   1.720   3.153
  278SOL    HW2  848   0.233   1.752   3.010
  279SOL     OW  849   0.940   1.698   2.766
  279SOL    HW1  850   1.020   1.641   2.787
  279SOL    HW2  851   0.891   1.658   2.689
  280SOL     OW  852   0.382   0.700   2.342
  280SOL    HW1  853   0.427   0.610   2.339
  280SOL    HW2  854   0.288   0.689   2.375
  281SOL     OW  855   1.547   0.222   3.591
  281SOL    HW1  856   1.542   0.259   3.683
  281SOL    HW2  857   1.475   0.153   3.579
  282SOL     OW  858   0.614   0.122   1.979
  282SOL    HW1  859   0.712   0.100   1.986
  282SOL    HW2  860   0.583   0.105   1.886
  283SOL     OW  861   0.781   0.264   3.611
  283SOL    HW1  862   0.848   0.203   3.654
  283SOL    HW2  863   0.708   0.283   3.676
  284SOL     OW  864   0.888   1.514   3.057
  284SOL    HW1  865   0.865   1.489   2.963
  284SOL    HW2  866   0.949   1.445   3.096
  285SOL     OW  867   1.351   0.590   3.295
  285SOL    HW1  868   1.379   0.547   3.380
  285SOL    HW2  869   1.376   0.686   3.296
  286SOL     OW  870   0.803   1.402   2.786
  286SOL    HW1  871   0.893   1.416   2.744
  286SOL    HW2  872   0.732   1.404   2.715
  287SOL     OW  873   0.922   0.503   2.761
  287SOL    HW1  874   0.897   0.494   2.665
  287SOL    HW2  875   0.970   0.421   2.792
  288SOL     OW  876   0.539   0.064   2.374
  288SOL    HW1  877   0.458   0.065   2.432
  288SOL    HW2  878   0.542   0.147   2.319
  289SOL     OW  879   1.434   1.188   1.903
  289SOL    HW1  880   1.466   1.112   1.960
  289SOL    HW2  881   1.342   1.215   1.933
  290SOL     OW  882   0.297   0.035   2.033
  290SOL    HW1  883   0.346   0.119   2.012
  290SOL    HW2  884   0.359  -0.030   2.078
  291SOL     OW  885   0.935   0.236   2.342
  291SOL    HW1  886   0.887   0.277   2.264
  291SOL    HW2  887   1.034   0.234   2.323
  292SOL     OW  888   1.076   0.683   3.326
  292SOL    HW1  889   0.996   0.622   3.329
  292SOL    HW2  890   1.157   0.630   3.302
  293SOL     OW  891   1.227   1.570   2.655
  293SOL    HW1  892   1.248   1.644   2.590
  293SOL    HW2  893   1.295   1.570   2.728
  294SOL     OW  894   0.459   1.152   2.603
  294SOL    HW1  895   0.388   1.125   2.668
  294SOL    HW2  896   0.433   1.124   2.510
  295SOL     OW  897   1.271   1.797   2.453
  295SOL    HW1  898   1.315   1.861   2.389
  295SOL    HW2  899   1.221   1.849   2.523
  296SOL     OW  900   1.032   0.549   1.878
  296SOL    HW1  901   0.991   0.631   1.839
  296SOL    HW2  902   1.096   0.575   1.951
  297SOL     OW  903   0.078   0.556   3.248
  297SOL    HW1  904   0.170   0.555   3.207
  297SOL    HW2  905   0.072   0.630   3.315
  298SOL     OW  906   0.561   0.222   3.009
  298SOL    HW1  907   0.599   0.138   3.046
  298SOL    HW2  908   0.473   0.241   3.053
  299SOL     OW  909   0.866   0.454   2.504
  299SOL    HW1  910   0.834   0.526   2.442
  299SOL    HW2  911   0.890   0.373   2.451
  300SOL     OW  912   1.017   0.039   2.615
  300SOL    HW1  913   0.945   0.044   2.546
  300SOL    HW2  914   0.993  -0.030   2.684
  301SOL     OW  915   1.429   1.173   2.729
  301SOL    HW1  916   1.374   1.089   2.722
  301SOL    HW2  917   1.455   1.202   2.637
  302SOL     OW  918   1.466   0.590   2.854
  302SOL    HW1  919   1.436   0.495   2.861
  302SOL    HW2  920   1.539   0.606   2.920
  303SOL     OW  921   1.857   0.833   2.239
  303SOL    HW1  922   1.899   0.769   2.303
  303SOL    HW2  923   1.819   0.782   2.161
  304SOL     OW  924   0.488   1.385   2.036
  304SOL    HW1  925   0.401   1.370   2.083
  304SOL    HW2  926   0.471   1.411   1.941
  305SOL     OW  927   1.664   1.280   2.519
  305SOL    HW1  928   1.763   1.288   2.533
  305SOL    HW2  929   1.619   1.364   2.550
  306SOL     OW  930   1.390   0.575   1.940
  306SOL    HW1  931   1.336   0.554   2.021
  306SOL    HW2  932   1.481   0.534   1.949
  307SOL     OW  933   0.527   0.256   2.190
  307SOL    HW1  934   0.554   0.197   2.115
  307SOL    HW2  935   0.527   0.351   2.159
  308SOL     OW  936   1.754   1.223   3.450
  308SOL    HW1  937   1.845   1.184   3.437
  308SOL    HW2  938   1.762   1.319   3.474
  309SOL     OW  939   1.064   1.347   3.202
  309SOL    HW1  940   0.984   1.324   3.257
  309SOL    HW2  941   1.147   1.321   3.251
  310SOL     OW  942   1.592   1.629   3.487
  310SOL    HW1  943   1.619   1.663   3.397
  310SOL    HW2  944   1.671   1.591   3.533
  311SOL     OW  945   1.111   1.195   2.962
  311SOL    HW1  946   1.071   1.239   3.043
  311SOL    HW2  947   1.070   1.232   2.879
  312SOL     OW  948   1.638   1.099   2.941
  312SOL    HW1  949   1.643   1.180   3.000
  312SOL    HW2  950   1.552   1.101   2.890
  313SOL     OW  951   0.915   0.089   3.264
  313SOL    HW1  952   0.940   0.069   3.169
  313SOL    HW2  953   0.987   0.145   3.306
  314SOL     OW  954   0.980   1.116   3.581
  314SOL    HW1  955   0.881   1.122   3.591
  314SOL    HW2  956   1.003   1.036   3.525
  315SOL     OW  957   0.705   1.050   2.230
  315SOL    HW1  958   0.691   1.057   2.329
  315SOL    HW2  959   0.789   0.999   2.212
  316SOL     OW  960   0.410   0.813   3.113
  316SOL    HW1  961   0.496   0.825   3.163
  316SOL    HW2  962   0.368   0.726   3.140
  317SOL     OW  963   1.274   0.386   3.124
  317SOL    HW1  964   1.295   0.460   3.188
  317SOL    HW2  965   1.185   0.403   3.081
  318SOL     OW  966   0.064   1.564   3.193
  318SOL    HW1  967   0.018   1.646   3.159
  318SOL    HW2  968   0.162   1.583   3.202
  319SOL     OW  969   0.367   1.100   2.363
  319SOL    HW1  970   0.360   1.183   2.307
  319SOL    HW2  971   0.371   1.020   2.303
  320SOL     OW  972   0.566   0.537   2.727
  320SOL    HW1  973   0.578   0.603   2.653
  320SOL    HW2  974   0.612   0.571   2.810
  321SOL     OW  975   1.252   1.348   2.250
  321SOL    HW1  976   1.302   1.425   2.290
  321SOL    HW2  977   1.157   1.350   2.282
  322SOL     OW  978   1.272   1.445   3.004
  322SOL    HW1  979   1.319   1.458   3.091
  322SOL    HW2  980   1.206   1.371   3.013
  323SOL     OW  981   1.582   0.639   2.334
  323SOL    HW1  982   1.551   0.700   2.407
  323SOL    HW2  983   1.632   0.691   2.265
  324SOL     OW  984   0.354   1.510   3.191
  324SOL    HW1  985   0.333   1.466   3.104
  324SOL    HW2  986   0.451   1.536   3.194
  325SOL     OW  987   0.402   0.751   3.460
  325SOL    HW1  988   0.470   0.806   3.413
  325SOL    HW2  989   0.442   0.663   3.487
  326SOL     OW  990   1.587   0.779   3.532
  326SOL    HW1  991   1.495   0.817   3.527
  326SOL    HW2  992   1.647   0.826   3.467
  327SOL     OW  993   1.013   0.105   3.632
  327SOL    HW1  994   1.019   0.190   3.580
  327SOL    HW2  995   1.045   0.029   3.575
  328SOL     OW  996   0.504   0.050   3.602
  328SOL    HW1  997   0.462  -0.007   3.532
  328SOL    HW2  998   0.438   0.119   3.634
  329SOL     OW  999   0.573   0.870   2.891
  329SOL    HW1 1000   0.617   0.959   2.882
  329SOL    HW2 1001   0.510   0.870   2.968
  330SOL     OW 1002   1.360   0.862   2.907
  330SOL    HW1 1003   1.285   0.862   2.841
  330SOL    HW2 1004   1.397   0.770   2.916
  331SOL     OW 1005   1.209   0.525   2.137
  331SOL    HW1 1006   1.222   0.441   2.191
  331SOL    HW2 1007   1.180   0.599   2.197
  332SOL     OW 1008   0.307   0.213   3.093
  332SOL    HW1 1009   0.284   0.250   3.183
  332SOL    HW2 1010   0.277   0.118   3.087
  333SOL     OW 1011   0.037   1.310   3.144
  333SOL    HW1 1012   0.090   1.261   3.212
  333SOL    HW2 1013   0.059   1.408   3.149
  334SOL     OW 1014   0.732   0.634   2.926
  334SOL    HW1 1015   0.791   0.608   2.850
  334SOL    HW2 1016   0.704   0.730   2.915
  335SOL     OW 1017   1.728   0.935   3.716
  335SOL    HW1 1018   1.682   0.928   3.627
  335SOL    HW2 1019   1.666   0.979   3.782
  336SOL     OW 1020   0.307   0.063   2.480
  336SOL    HW1 1021   0.296   0.157   2.513
  336SOL    HW2 1022   0.302   0.000   2.557
  337SOL     OW 1023   1.622   0.367   2.236
  337SOL    HW1 1024   1.624   0.291   2.300
  337SOL    HW2 1025   1.574   0.444   2.276
  338SOL     OW 1026   1.023   0.766   2.828
  338SOL    HW1 1027   1.038   0.787   2.924
  338SOL    HW2 1028   0.993   0.671   2.819
  339SOL     OW 1029   0.980   1.573   3.562
  339SOL    HW1 1030   0.960   1.617   3.474
  339SOL    HW2 1031   1.019   1.482   3.546
  340SOL     OW 1032   1.859   1.518   3.467
  340SOL    HW1 1033   1.873   1.545   3.372
  340SOL    HW2 1034   1.942   1.540   3.520
  341SOL     OW 1035   0.350   0.898   3.666
  341SOL    HW1 1036   0.426   0.942   3.714
  341SOL    HW2 1037   0.385   0.851   3.584
  342SOL     OW 1038   1.540   0.274   1.987
  342SOL    HW1 1039   1.479   0.199   2.010
  342SOL    HW2 1040   1.562   0.326   2.070
  343SOL     OW 1041   1.303   0.838   1.904
  343SOL    HW1 1042   1.337   0.745   1.919
  343SOL    HW2 1043   1.321   0.865   1.809
  344SOL     OW 1044   1.068   1.333   2.711
  344SOL    HW1 1045   1.075   1.249   2.656
  344SOL    HW2 1046   1.130   1.402   2.675
  345SOL     OW 1047   0.319   0.810   2.811
  345SOL    HW1 1048   0.412   0.846   2.816
  345SOL    HW2 1049   0.313   0.725   2.863
  346SOL     OW 1050   0.339   0.509   2.868
  346SOL    HW1 1051   0.287   0.426   2.851
  346SOL    HW2 1052   0.416   0.514   2.804
  347SOL     OW 1053   1.138   0.380   3.540
  347SOL    HW1 1054   1.093   0.443   3.604
  347SOL    HW2 1055   1.231   0.411   3.523
  348SOL     OW 1056   1.160   0.207   3.339
  348SOL    HW1 1057   1.160   0.271   3.416
  348SOL    HW2 1058   1.188   0.255   3.256
  349SOL     OW 1059   0.008   1.326   2.062
  349SOL    HW1 1060  -0.085   1.347   2.031
  349SOL    HW2 1061   0.018   1.227   2.075
  350SOL     OW 1062   0.088   1.801   2.789
  350SOL    HW1 1063   0.046   1.715   2.762
  350SOL    HW2 1064   0.182   1.804   2.755
  351SOL     OW 1065   0.504   1.568   2.772
  351SOL    HW1 1066   0.570   1.642   2.781
  351SOL    HW2 1067   0.548   1.489   2.730
  352SOL     OW 1068   1.002   0.796   3.100
  352SOL    HW1 1069   1.043   0.764   3.186
  352SOL    HW2 1070   0.906   0.769   3.097
  353SOL     OW 1071   0.040   0.544   2.976
  353SOL    HW1 1072   0.125   0.511   2.935
  353SOL    HW2 1073   0.053   0.559   3.074
  354SOL     OW 1074   0.189   0.520   3.584
  354SOL    HW1 1075   0.248   0.480   3.514
  354SOL    HW2 1076   0.131   0.591   3.543
  355SOL     OW 1077   1.369   0.950   3.522
  355SOL    HW1 1078   1.408   1.039   3.542
  355SOL    HW2 1079   1.379   0.930   3.425
  356SOL     OW 1080   0.815   0.572   2.187
  356SOL    HW1 1081   0.822   0.483   2.141
  356SOL    HW2 1082   0.721   0.606   2.179
  357SOL     OW 1083   1.657   0.604   3.068
  357SOL    HW1 1084   1.619   0.535   3.130
  357SOL    HW2 1085   1.739   0.568   3.024
  358SOL     OW 1086   0.252   1.564   3.606
  358SOL    HW1 1087   0.222   1.621   3.682
  358SOL    HW2 1088   0.245   1.467   3.632
  359SOL     OW 1089   0.671   0.464   3.131
  359SOL    HW1 1090   0.637   0.375   3.101
  359SOL    HW2 1091   0.697   0.518   3.051
  360SOL     OW 1092   0.930   1.678   3.327
  360SOL    HW1 1093   0.906   1.660   3.232
  360SOL    HW2 1094   0.960   1.772   3.337
  361SOL     OW 1095   0.473   0.500   2.053
  361SOL    HW1 1096   0.534   0.580   2.057
  361SOL    HW2 1097   0.378   0.531   2.060
  362SOL     OW 1098   0.159   1.137   3.328
  362SOL    HW1 1099   0.181   1.076   3.404
  362SOL    HW2 1100   0.169   1.088   3.242
  363SOL     OW 1101   1.347   1.059   3.096
  363SOL    HW1 1102   1.371   0.996   3.022
  363SOL    HW2 1103   1.257   1.099   3.078
  364SOL     OW 1104   1.302   0.855   2.171
  364SOL    HW1 1105   1.216   0.824   2.213
  364SOL    HW2 1106   1.298   0.841   2.072
  365SOL     OW 1107   1.759   1.747   3.016
  365SOL    HW1 1108   1.820   1.777   2.943
  365SOL    HW2 1109   1.721   1.658   2.994
  366SOL     OW 1110   1.252   1.731   2.990
  366SOL    HW1 1111   1.336   1.736   2.936
  366SOL    HW2 1112   1.229   1.635   3.008
  367SOL     OW 1113   0.083   1.258   2.884
  367SOL    HW1 1114   0.078   1.257   2.984
  367SOL    HW2 1115   0.000   1.217   2.846
  368SOL     OW 1116   0.688   1.662   3.578
  368SOL    HW1 1117   0.632   1.743   3.587
  368SOL    HW2 1118   0.740   1.666   3.492
  369SOL     OW 1119   1.726   0.135   2.385
  369SOL    HW1 1120   1.799   0.118   2.318
  369SOL    HW2 1121   1.695   0.048   2.423
  370SOL     OW 1122   1.388   1.573   2.339
  370SOL    HW1 1123   1.455   1.585   2.265
  370SOL    HW2 1124   1.348   1.662   2.362
  371SOL     OW 1125   0.130   1.794   3.713
  371SOL    HW1 1126   0.089   1.720   3.766
  371SOL    HW2 1127   0.194   1.845   3.771
  372SOL     OW 1128   1.280   0.927   2.534
  372SOL    HW1 1129   1.340   0.846   2.536
  372SOL    HW2 1130   1.320   0.996   2.474
  373SOL     OW 1131   0.830   1.273   3.284
  373SOL    HW1 1132   0.825   1.306   3.379
  373SOL    HW2 1133   0.744   1.292   3.238
  374SOL     OW 1134   0.672   1.616   2.016
  374SOL    HW1 1135   0.681   1.626   1.917
  374SOL    HW2 1136   0.632   1.527   2.037
  375SOL     OW 1137   1.650   1.720   3.256
  375SOL    HW1 1138   1.703   1.730   3.172
  375SOL    HW2 1139   1.623   1.810   3.290
  376SOL     OW 1140   1.841   0.175   2.825
  376SOL    HW1 1141   1.880   0.090   2.789
  376SOL    HW2 1142   1.743   0.177   2.806
  377SOL     OW 1143   0.263   0.326   2.582
  377SOL    HW1 1144   0.184   0.377   2.548
  377SOL    HW2 1145   0.254   0.311   2.680
  378SOL     OW 1146   1.194   1.612   1.893
  378SOL    HW1 1147   1.200   1.519   1.930
  378SOL    HW2 1148   1.135   1.612   1.813
  379SOL     OW 1149   0.822   1.002   3.234
  379SOL    HW1 1150   0.862   1.001   3.142
  379SOL    HW2 1151   0.832   1.094   3.274
  380SOL     OW 1152   0.916   0.910   2.153
  380SOL    HW1 1153   0.979   0.948   2.085
  380SOL    HW2 1154   0.956   0.827   2.192
  381SOL     OW 1155   1.504   1.607   1.906
  381SOL    HW1 1156   1.412   1.644   1.913
  381SOL    HW2 1157   1.542   1.627   1.816
  382SOL     OW 1158   0.372   1.288   3.352
  382SOL    HW1 1159   0.359   1.381   3.318
  382SOL    HW2 1160   0.288   1.236   3.339
  383SOL     OW 1161   1.614   1.292   3.151
  383SOL    HW1 1162   1.674   1.295   3.231
  383SOL    HW2 1163   1.539   1.356   3.164
  384SOL     OW 1164   1.039   1.098   2.558
  384SOL    HW1 1165   0.969   1.051   2.612
  384SOL    HW2 1166   1.098   1.030   2.515
  385SOL     OW 1167   1.014   0.236   2.833
  385SOL    HW1 1168   1.006   0.200   2.740
  385SOL    HW2 1169   1.012   0.160   2.898
  386SOL     OW 1170   0.590   1.487   2.353
  386SOL    HW1 1171   0.632   1.429   2.283
  386SOL    HW2 1172   0.546   1.566   2.309
  387SOL     OW 1173   1.709   0.385   3.243
  387SOL    HW1 1174   1.782   0.454   3.247
  387SOL    HW2 1175   1.737   0.310   3.184
  388SOL     OW 1176   0.255   1.348   2.152
  388SOL    HW1 1177   0.159   1.349   2.125
  388SOL    HW2 1178   0.267   1.401   2.236
  389SOL     OW 1179   0.105   1.013   3.588
  389SOL    HW1 1180   0.028   0.980   3.642
  389SOL    HW2 1181   0.190   0.983   3.630
  390SOL     OW 1182   0.672   0.203   3.351
  390SOL    HW1 1183   0.762   0.187   3.311
  390SOL    HW2 1184   0.680   0.208   3.450
  391SOL     OW 1185   0.075   0.345   1.895
  391SOL    HW1 1186  -0.017   0.317   1.866
  391SOL    HW2 1187   0.106   0.422   1.839
  392SOL     OW 1188   1.440   0.856   3.260
  392SOL    HW1 1189   1.383   0.908   3.197
  392SOL    HW2 1190   1.536   0.868   3.236
  393SOL     OW 1191   0.072   0.166   2.180
  393SOL    HW1 1192   0.055   0.249   2.126
  393SOL    HW2 1193   0.162   0.129   2.158
  394SOL     OW 1194   1.183   1.335   1.981
  394SOL    HW1 1195   1.084   1.324   1.983
  394SOL    HW2 1196   1.217   1.350   2.074
  395SOL     OW 1197   0.613   0.842   3.293
  395SOL    HW1 1198   0.669   0.923   3.276
  395SOL    HW2 1199   0.672   0.762   3.296
  396SOL     OW 1200   1.493   1.767   2.821
  396SOL    HW1 1201   1.526   1.831   2.752
  396SOL    HW2 1202   1.559   1.761   2.896
  397SOL     OW 1203   0.716   0.565   3.570
  397SOL    HW1 1204   0.735   0.630   3.644
  397SOL    HW2 1205   0.776   0.485   3.579
  398SOL     OW 1206   1.450   1.220   3.495
  398SOL    HW1 1207   1.441   1.210   3.594
  398SOL    HW2 1208   1.546   1.213   3.469
  399SOL     OW 1209   0.390   1.741   3.422
  399SOL    HW1 1210   0.299   1.782   3.420
  399SOL    HW2 1211   0.383   1.647   3.454
  400SOL     OW 1212   1.674   0.883   3.116
  400SOL    HW1 1213   1.647   0.794   3.079
  400SOL    HW2 1214   1.675   0.951   3.043
  401SOL     OW 1215   1.225   0.325   2.311
  401SOL    HW1 1216   1.290   0.251   2.300
  401SOL    HW2 1217   1.245   0.375   2.395
  402SOL     OW 1218   0.594   0.745   2.514
  402SOL    HW1 1219   0.644   0.830   2.495
  402SOL    HW2 1220   0.506   0.747   2.466
  403SOL     OW 1221   1.777   0.342   3.504
  403SOL    HW1 1222   1.760   0.373   3.410
  403SOL    HW2 1223   1.693   0.305   3.542
  404SOL     OW 1224   1.730   0.934   3.379
  404SOL    HW1 1225   1.768   1.025   3.394
  404SOL    HW2 1226   1.722   0.917   3.280
  405SOL     OW 1227   0.859   1.374   1.878
  405SOL    HW1 1228   0.813   1.389   1.966
  405SOL    HW2 1229   0.903   1.459   1.848
  406SOL     OW 1230   0.661   1.790   2.815
  406SOL    HW1 1231   0.615   1.878   2.802
  406SOL    HW2 1232   0.760   1.802   2.808
  407SOL     OW 1233   0.859   0.956   2.723
  407SOL    HW1 1234   0.913   0.887   2.771
  407SOL    HW2 1235   0.827   1.025   2.789
  408SOL     OW 1236   1.083   0.984   1.949
  408SOL    HW1 1237   1.060   1.037   1.867
  408SOL    HW2 1238   1.164   0.928   1.930
  409SOL     OW 1239   1.861   1.569   2.713
  409SOL    HW1 1240   1.790   1.557   2.643
  409SOL    HW2 1241   1.862   1.490   2.773
  410SOL     OW 1242   0.221   1.314   3.706
  410SOL    HW1 1243   0.156   1.241   3.685
  410SOL    HW2 1244   0.225   1.328   3.804
  411SOL     OW 1245   0.079   1.240   2.515
  411SOL    HW1 1246   0.078   1.193   2.603
  411SOL    HW2 1247   0.161   1.212   2.464
  412SOL     OW 1248   0.672   1.391   3.486
  412SOL    HW1 1249   0.594   1.341   3.524
  412SOL    HW2 1250   0.669   1.486   3.517
  413SOL     OW 1251   1.824   0.192   3.089
  413SOL    HW1 1252   1.820   0.102   3.133
  413SOL    HW2 1253   1.827   0.181   2.990
  414SOL     OW 1254   0.428   0.424   2.382
  414SOL    HW1 1255   0.458   0.352   2.320
  414SOL    HW2 1256   0.389   0.384   2.465
  415SOL     OW 1257   1.705   1.487   2.966
  415SOL    HW1 1258   1.612   1.462   2.939
  415SOL    HW2 1259   1.731   1.437   3.048
  416SOL     OW 1260   0.317   0.547   3.142
  416SOL    HW1 1261   0.355   0.488   3.214
  416SOL    HW2 1262   0.357   0.521   3.054
  417SOL     OW 1263   0.812   1.586   2.549
  417SOL    HW1 1264   0.844   1.596   2.455
  417SOL    HW2 1265   0.733   1.524   2.551
  418SOL     OW 1266   1.424   0.214   2.974
  418SOL    HW1 1267   1.476   0.149   3.029
  418SOL    HW2 1268   1.375   0.277   3.035
  419SOL     OW 1269   1.001   0.034   3.016
  419SOL    HW1 1270   0.938  -0.038   2.985
  419SOL    HW2 1271   1.094  -0.002   3.016
  420SOL     OW 1272   0.770   1.330   2.163
  420SOL    HW1 1273   0.724   1.243   2.180
  420SOL    HW2 1274   0.861   1.327   2.204
  421SOL     OW 1275   0.618   1.567   3.146
  421SOL    HW1 1276   0.613   1.649   3.203
  421SOL    HW2 1277   0.707   1.564   3.101
  422SOL     OW 1278   1.352   0.052   2.030
  422SOL    HW1 1279   1.387   0.011   1.946
  422SOL    HW2 1280   1.262   0.014   2.050
  423SOL     OW 1281   1.300   0.453   2.553
  423SOL    HW1 1282   1.241   0.533   2.557
  423SOL    HW2 1283   1.315   0.418   2.646
  424SOL     OW 1284   1.593   0.221   2.744
  424SOL    HW1 1285   1.509   0.220   2.798
  424SOL    HW2 1286   1.595   0.304   2.688
  425SOL     OW 1287   0.039   1.077   2.162
  425SOL    HW1 1288   0.138   1.066   2.153
  425SOL    HW2 1289  -0.001   0.991   2.194
  426SOL     OW 1290   0.875   1.646   2.199
  426SOL    HW1 1291   0.798   1.611   2.145
  426SOL    HW2 1292   0.843   1.717   2.261
  427SOL     OW 1293   0.230   0.628   3.837
  427SOL    HW1 1294   0.137   0.626   3.874
  427SOL    HW2 1295   0.231   0.589   3.745
  428SOL     OW 1296   0.019   0.368   4.371
  428SOL    HW1 1297  -0.063   0.411   4.410
  428SOL    HW2 1298  -0.009   0.295   4.308
  429SOL     OW 1299   1.555   1.511   4.427
  429SOL    HW1 1300   1.498   1.495   4.508
  429SOL    HW2 1301   1.496   1.521   4.347
  430SOL     OW 1302   1.135   0.703   4.441
  430SOL    HW1 1303   1.192   0.781   4.416
  430SOL    HW2 1304   1.075   0.729   4.517
  431SOL     OW 1305   1.755   0.607   3.955
  431SOL    HW1 1306   1.743   0.594   3.856
  431SOL    HW2 1307   1.725   0.526   4.004
  432SOL     OW 1308   0.768   1.144   4.747
  432SOL    HW1 1309   0.690   1.161   4.807
  432SOL    HW2 1310   0.802   1.231   4.711
  433SOL     OW 1311   0.685   1.012   4.389
  433SOL    HW1 1312   0.754   0.996   4.459
  433SOL    HW2 1313   0.612   1.069   4.427
  434SOL     OW 1314   1.603   0.447   4.461
  434SOL    HW1 1315   1.529   0.493   4.411
  434SOL    HW2 1316   1.654   0.515   4.514
  435SOL     OW 1317   0.231   1.713   4.207
  435SOL    HW1 1318   0.265   1.790   4.261
  435SOL    HW2 1319   0.275   1.713   4.117
  436SOL     OW 1320   0.230   1.434   4.262
  436SOL    HW1 1321   0.204   1.530   4.262
  436SOL    HW2 1322   0.159   1.380   4.307
  437SOL     OW 1323   0.240   1.091   4.610
  437SOL    HW1 1324   0.254   1.007   4.662
  437SOL    HW2 1325   0.185   1.155   4.665
  438SOL     OW 1326   0.606   0.964   3.847
  438SOL    HW1 1327   0.613   1.048   3.793
  438SOL    HW2 1328   0.652   0.977   3.935
  439SOL     OW 1329   0.122   0.643   4.287
  439SOL    HW1 1330   0.077   0.555   4.304
  439SOL    HW2 1331   0.121   0.697   4.371
  440SOL     OW 1332   1.842   1.767   4.083
  440SOL    HW1 1333   1.896   1.738   4.163
  440SOL    HW2 1334   1.872   1.857   4.054
  441SOL     OW 1335   0.027   1.596   3.841
  441SOL    HW1 1336   0.008   1.500   3.862
  441SOL    HW2 1337  -0.006   1.654   3.916
  442SOL     OW 1338   1.689   0.922   4.336
  442SOL    HW1 1339   1.784   0.893   4.344
  442SOL    HW2 1340   1.681   0.987   4.261
  443SOL     OW 1341   1.641   1.108   4.156
  443SOL    HW1 1342   1.727   1.110   4.104
  443SOL    HW2 1343   1.655   1.155   4.244
  444SOL     OW 1344   0.613   1.365   4.450
  444SOL    HW1 1345   0.564   1.278   4.459
  444SOL    HW2 1346   0.590   1.408   4.363
  445SOL     OW 1347   0.809   0.004   4.226
  445SOL    HW1 1348   0.849   0.095   4.217
  445SOL    HW2 1349   0.709   0.012   4.232
  446SOL     OW 1350   1.525   0.999   3.914
  446SOL    HW1 1351   1.462   0.923   3.927
  446SOL    HW2 1352   1.573   1.017   4.000
  447SOL     OW 1353   1.667   1.714   4.296
  447SOL    HW1 1354   1.626   1.691   4.208
  447SOL    HW2 1355   1.649   1.640   4.361
  448SOL     OW 1356   0.598   0.729   3.994
  448SOL    HW1 1357   0.622   0.798   3.926
  448SOL    HW2 1358   0.520   0.762   4.048
  449SOL     OW 1359   1.281   0.345   4.668
  449SOL    HW1 1360   1.195   0.295   4.655
  449SOL    HW2 1361   1.343   0.291   4.724
  450SOL     OW 1362   1.576   1.662   4.031
  450SOL    HW1 1363   1.665   1.708   4.034
  450SOL    HW2 1364   1.555   1.638   3.936
  451SOL     OW 1365   1.041   0.701   4.153
  451SOL    HW1 1366   1.067   0.697   4.249
  451SOL    HW2 1367   0.956   0.650   4.139
  452SOL     OW 1368   0.076   0.811   4.513
  452SOL    HW1 1369   0.175   0.799   4.522
  452SOL    HW2 1370   0.052   0.906   4.534
  453SOL     OW 1371   0.865   0.348   3.919
  453SOL    HW1 1372   0.924   0.411   3.870
  453SOL    HW2 1373   0.884   0.254   3.890
  454SOL     OW 1374   1.362   1.144   4.269
  454SOL    HW1 1375   1.445   1.115   4.221
  454SOL    HW2 1376   1.313   1.211   4.213
  455SOL     OW 1377   1.008   1.456   4.201
  455SOL    HW1 1378   0.962   1.528   4.149
  455SOL    HW2 1379   1.004   1.476   4.299
  456SOL     OW 1380   0.351   1.801   4.577
  456SOL    HW1 1381   0.401   1.715   4.583
  456SOL    HW2 1382   0.416   1.878   4.574
  457SOL     OW 1383   1.795   1.066   4.597
  457SOL    HW1 1384   1.733   1.051   4.521
  457SOL    HW2 1385   1.743   1.077   4.682
  458SOL     OW 1386   0.321   0.943   3.966
  458SOL    HW1 1387   0.403   0.982   3.924
  458SOL    HW2 1388   0.294   0.861   3.917
  459SOL     OW 1389   1.458   0.735   4.452
  459SOL    HW1 1390   1.453   0.670   4.527
  459SOL    HW2 1391   1.538   0.794   4.465
  460SOL     OW 1392   1.111   1.776   3.961
  460SOL    HW1 1393   1.051   1.714   4.011
  460SOL    HW2 1394   1.142   1.732   3.876
  461SOL     OW 1395   1.632   1.377   3.805
  461SOL    HW1 1396   1.600   1.471   3.795
  461SOL    HW2 1397   1.556   1.314   3.793
  462SOL     OW 1398   0.464   1.743   4.047
  462SOL    HW1 1399   0.497   1.782   4.133
  462SOL    HW2 1400   0.540   1.736   3.982
  463SOL     OW 1401   1.400   0.107   4.150
  463SOL    HW1 1402   1.376   0.070   4.060
  463SOL    HW2 1403   1.499   0.123   4.154
  464SOL     OW 1404   0.382   0.700   4.204
  464SOL    HW1 1405   0.427   0.610   4.201
  464SOL    HW2 1406   0.288   0.689   4.237
  465SOL     OW 1407   0.614   0.122   3.841
  465SOL    HW1 1408   0.712   0.100   3.848
  465SOL    HW2 1409   0.583   0.105   3.748
  466SOL     OW 1410   0.539   0.064   4.236
  466SOL    HW1 1411   0.458   0.065   4.294
  466SOL    HW2 1412   0.542   0.147   4.181
  467SOL     OW 1413   1.434   1.188   3.765
  467SOL    HW1 1414   1.466   1.112   3.822
  467SOL    HW2 1415   1.342   1.215   3.795
  468SOL     OW 1416   0.297   0.035   3.895
  468SOL    HW1 1417   0.346   0.119   3.874
  468SOL    HW2 1418   0.359  -0.030   3.940
  469SOL     OW 1419   0.935   0.236   4.204
  469SOL    HW1 1420   0.887   0.277   4.126
  469SOL    HW2 1421   1.034   0.234   4.185
  470SOL     OW 1422   0.459   1.152   4.465
  470SOL    HW1 1423   0.388   1.125   4.530
  470SOL    HW2 1424   0.433   1.124   4.372
  471SOL     OW 1425   1.271   1.797   4.315
  471SOL    HW1 1426   1.315   1.861   4.251
  471SOL    HW2 1427   1.221   1.849   4.385
  472SOL     OW 1428   1.032   0.549   3.740
  472SOL    HW1 1429   0.991   0.631   3.701
  472SOL    HW2 1430   1.096   0.575   3.813
  473SOL     OW 1431   0.866   0.454   4.366
  473SOL    HW1 1432   0.834   0.526   4.304
  473SOL    HW2 1433   0.890   0.373   4.313
  474SOL     OW 1434   1.017   0.039   4.477
  474SOL    HW1 1435   0.945   0.044   4.408
  474SOL    HW2 1436   0.993  -0.030   4.546
  475SOL     OW 1437   1.857   0.833   4.101
  475SOL    HW1 1438   1.899   0.769   4.165
  475SOL    HW2 1439   1.819   0.782   4.023
  476SOL     OW 1440   0.488   1.385   3.898
  476SOL    HW1 1441   0.401   1.370   3.945
  476SOL    HW2 1442   0.471   1.411   3.803
  477SOL     OW 1443   1.664   1.280   4.381
  477SOL    HW1 1444   1.763   1.288   4.395
  477SOL    HW2 1445   1.619   1.364   4.412
  478SOL     OW 1446   1.390   0.575   3.802
  478SOL    HW1 1447   1.336   0.554   3.883
  478SOL    HW2 1448   1.481   0.534   3.811
  479SOL     OW 1449   0.527   0.256   4.052
  479SOL    HW1 1450   0.554   0.197   3.977
  479SOL    HW2 1451   0.527   0.351   4.021
  480SOL     OW 1452   0.705   1.050   4.092
  480SOL    HW1 1453   0.691   1.057   4.191
  480SOL    HW2 1454   0.789   0.999   4.074
  481SOL     OW 1455   0.367   1.100   4.225
  481SOL    HW1 1456   0.360   1.183   4.169
  481SOL    HW2 1457   0.371   1.020   4.165
  482SOL     OW 1458   0.566   0.537   4.589
  482SOL    HW1 1459   0.578   0.603   4.515
  482SOL    HW2 1460   0.612   0.571   4.672
  483SOL     OW 1461   1.252   1.348   4.112
  483SOL    HW1 1462   1.302   1.425   4.152
  483SOL    HW2 1463   1.157   1.350   4.144
  484SOL     OW 1464   1.582   0.639   4.196
  484SOL    HW1 1465   1.551   0.700   4.269
  484SOL    HW2 1466   1.632   0.691   4.127
  485SOL     OW 1467   1.209   0.525   3.999
  485SOL    HW1 1468   1.222   0.441   4.053
  485SOL    HW2 1469   1.180   0.599   4.059
  486SOL     OW 1470   0.732   0.634   4.788
  486SOL    HW1 1471   0.791   0.608   4.712
  486SOL    HW2 1472   0.704   0.730   4.777
  487SOL     OW 1473   0.307   0.063   4.342
  487SOL    HW1 1474   0.296   0.157   4.375
  487SOL    HW2 1475   0.302   0.000   4.419
  488SOL     OW 1476   1.622   0.367   4.098
  488SOL    HW1 1477   1.624   0.291   4.162
  488SOL    HW2 1478   1.574   0.444   4.138
  489SOL     OW 1479   1.540   0.274   3.849
  489SOL    HW1 1480   1.479   0.199   3.872
  489SOL    HW2 1481   1.562   0.326   3.932
  490SOL     OW 1482   1.303   0.838   3.766
  490SOL    HW1 1483   1.337   0.745   3.781
  490SOL    HW2 1484   1.321   0.865   3.671
  491SOL     OW 1485   1.068   1.333   4.573
  491SOL    HW1 1486   1.075   1.249   4.518
  491SOL    HW2 1487   1.130   1.402   4.537
  492SOL     OW 1488   0.008   1.326   3.924
  492SOL    HW1 1489  -0.085   1.347   3.893
  492SOL    HW2 1490   0.018   1.227   3.937
  493SOL     OW 1491   0.088   1.801   4.651
  493SOL    HW1 1492   0.046   1.715   4.624
  493SOL    HW2 1493   0.182   1.804   4.617
  494SOL     OW 1494   0.504   1.568   4.634
  494SOL    HW1 1495   0.570   1.642   4.643
  494SOL    HW2 1496   0.548   1.489   4.592
  495SOL     OW 1497   0.815   0.572   4.049
  495SOL    HW1 1498   0.822   0.483   4.003
  495SOL    HW2 1499   0.721   0.606   4.041
  496SOL     OW 1500   0.473   0.500   3.915
  496SOL    HW1 1501   0.534   0.580   3.919
  496SOL    HW2 1502   0.378   0.531   3.922
  497SOL     OW 1503   1.302   0.855   4.033
  497SOL    HW1 1504   1.216   0.824   4.075
  497SOL    HW2 1505   1.298   0.841   3.934
  498SOL     OW 1506   1.726   0.135   4.247
  498SOL    HW1 1507   1.799   0.118   4.180
  498SOL    HW2 1508   1.695   0.048   4.285
  499SOL     OW 1509   1.388   1.573   4.201
  499SOL    HW1 1510   1.455   1.585   4.127
  499SOL    HW2 1511   1.348   1.662   4.224
  500SOL     OW 1512   1.280   0.927   4.396
  500SOL    HW1 1513   1.340   0.846   4.398
  500SOL    HW2 1514   1.320   0.996   4.336
  501SOL     OW 1515   0.672   1.616   3.878
  501SOL    HW1 1516   0.681   1.626   3.779
  501SOL    HW2 1517   0.632   1.527   3.899
  502SOL     OW 1518   1.841   0.175   4.687
  502SOL    HW1 1519   1.880   0.090   4.651
  502SOL    HW2 1520   1.743   0.177   4.668
  503SOL     OW 1521   0.263   0.326   4.444
  503SOL    HW1 1522   0.184   0.377   4.410
  503SOL    HW2 1523   0.254   0.311   4.542
  504SOL     OW 1524   1.194   1.612   3.755
  504SOL    HW1 1525   1.200   1.519   3.792
  504SOL    HW2 1526   1.135   1.612   3.675
  505SOL     OW 1527   0.916   0.910   4.015
  505SOL    HW1 1528   0.979   0.948   3.947
  505SOL    HW2 1529   0.956   0.827   4.054
  506SOL     OW 1530   1.504   1.607   3.768
  506SOL    HW1 1531   1.412   1.644   3.775
  506SOL    HW2 1532   1.542   1.627   3.678
  507SOL     OW 1533   1.039   1.098   4.420
  507SOL    HW1 1534   0.969   1.051   4.474
  507SOL    HW2 1535   1.098   1.030   4.377
  508SOL     OW 1536   0.590   1.487   4.215
  508SOL    HW1 1537   0.632   1.429   4.145
  508SOL    HW2 1538   0.546   1.566   4.171
  509SOL     OW 1539   0.255   1.348   4.014
  509SOL    HW1 1540   0.159   1.349   3.987
  509SOL    HW2 1541   0.267   1.401   4.098
  510SOL     OW 1542   0.075   0.345   3.757
  510SOL    HW1 1543  -0.017   0.317   3.728
  510SOL    HW2 1544   0.106   0.422   3.701
  511SOL     OW 1545   0.072   0.166   4.042
  511SOL    HW1 1546   0.055   0.249   3.988
  511SOL    HW2 1547   0.162   0.129   4.020
  512SOL     OW 1548   1.183   1.335   3.843
  512SOL    HW1 1549   1.084   1.324   3.845
  512SOL    HW2 1550   1.217   1.350   3.936
  513SOL     OW 1551   1.225   0.325   4.173
  513SOL    HW1 1552   1.290   0.251   4.162
  513SOL    HW2 1553   1.245   0.375   4.257
  514SOL     OW 1554   0.594   0.745   4.376
  514SOL    HW1 1555   0.644   0.830   4.357
  514SOL    HW2 1556   0.506   0.747   4.328
  515SOL     OW 1557   0.859   1.374   3.740
  515SOL    HW1 1558   0.813   1.389   3.828
  515SOL    HW2 1559   0.903   1.459   3.710
  516SOL     OW 1560   0.661   1.790   4.677
  516SOL    HW1 1561   0.615   1.878   4.664
  516SOL    HW2 1562   0.760   1.802   4.670
  517SOL     OW 1563   0.859   0.956   4.585
  517SOL    HW1 1564   0.913   0.887   4.633
  517SOL    HW2 1565   0.827   1.025   4.651
  518SOL     OW 1566   1.083   0.984   3.811
  518SOL    HW1 1567   1.060   1.037   3.729
  518SOL    HW2 1568   1.164   0.928   3.792
  519SOL     OW 1569   1.861   1.569   4.575
  519SOL    HW1 1570   1.790   1.557   4.505
  519SOL    HW2 1571   1.862   1.490   4.635
  520SOL     OW 1572   0.079   1.240   4.377
  520SOL    HW1 1573   0.078   1.193   4.465
  520SOL    HW2 1574   0.161   1.212   4.326
  521SOL     OW 1575   1.824   0.192   4.951
  521SOL    HW1 1576   1.820   0.102   4.995
  521SOL    HW2 1577   1.827   0.181   4.852
  522SOL     OW 1578   0.428   0.424   4.244
  522SOL    HW1 1579   0.458   0.352   4.182
  522SOL    HW2 1580   0.389   0.384   4.327
  523SOL     OW 1581   0.812   1.586   4.411
  523SOL    HW1 1582   0.844   1.596   4.317
  523SOL    HW2 1583   0.733   1.524   4.413
  524SOL     OW 1584   0.770   1.330   4.025
  524SOL    HW1 1585   0.724   1.243   4.042
  524SOL    HW2 1586   0.861   1.327   4.066
  525SOL     OW 1587   1.352   0.052   3.892
  525SOL    HW1 1588   1.387   0.011   3.808
  525SOL    HW2 1589   1.262   0.014   3.912
  526SOL     OW 1590   1.300   0.453   4.415
  526SOL    HW1 1591   1.241   0.533   4.419
  526SOL    HW2 1592   1.315   0.418   4.508
  527SOL     OW 1593   0.039   1.077   4.024
  527SOL    HW1 1594   0.138   1.066   4.015
  527SOL    HW2 1595  -0.001   0.991   4.056
  528SOL     OW 1596   0.875   1.646   4.061
  528SOL    HW1 1597   0.798   1.611   4.007
  528SOL    HW2 1598   0.843   1.717   4.123
  529SOL     OW 1599   0.230   2.490   0.113
  529SOL    HW1 1600   0.137   2.488   0.150
  529SOL    HW2 1601   0.231   2.451   0.021
  530SOL     OW 1602   0.225   2.137   0.996
  530SOL    HW1 1603   0.260   2.120   1.088
  530SOL    HW2 1604   0.137   2.092   0.984
  531SOL     OW 1605   0.019   2.230   0.647
  531SOL    HW1 1606  -0.063   2.273   0.686
  531SOL    HW2 1607  -0.009   2.157   0.584
  532SOL     OW 1608   0.569   3.137   1.165
  532SOL    HW1 1609   0.476   3.130   1.128
  532SOL    HW2 1610   0.580   3.226   1.209
  533SOL     OW 1611   1.555   3.373   0.703
  533SOL    HW1 1612   1.498   3.357   0.784
  533SOL    HW2 1613   1.496   3.383   0.623
  534SOL     OW 1614   1.135   2.565   0.717
  534SOL    HW1 1615   1.192   2.643   0.692
  534SOL    HW2 1616   1.075   2.591   0.793
  535SOL     OW 1617   1.755   2.469   0.231
  535SOL    HW1 1618   1.743   2.456   0.132
  535SOL    HW2 1619   1.725   2.388   0.280
  536SOL     OW 1620   0.768   3.006   1.023
  536SOL    HW1 1621   0.690   3.023   1.083
  536SOL    HW2 1622   0.802   3.093   0.987
  537SOL     OW 1623   0.850   2.660   1.823
  537SOL    HW1 1624   0.846   2.736   1.888
  537SOL    HW2 1625   0.872   2.696   1.732
  538SOL     OW 1626   0.685   2.874   0.665
  538SOL    HW1 1627   0.754   2.858   0.735
  538SOL    HW2 1628   0.612   2.931   0.703
  539SOL     OW 1629   0.686   3.023   1.803
  539SOL    HW1 1630   0.746   3.102   1.817
  539SOL    HW2 1631   0.600   3.054   1.762
  540SOL     OW 1632   0.335   3.297   1.061
  540SOL    HW1 1633   0.257   3.266   1.008
  540SOL    HW2 1634   0.393   3.355   1.004
  541SOL     OW 1635   1.460   3.367   1.339
  541SOL    HW1 1636   1.484   3.461   1.365
  541SOL    HW2 1637   1.444   3.313   1.421
  542SOL     OW 1638   0.438   2.254   1.499
  542SOL    HW1 1639   0.520   2.198   1.508
  542SOL    HW2 1640   0.357   2.196   1.503
  543SOL     OW 1641   1.603   2.309   0.737
  543SOL    HW1 1642   1.529   2.355   0.687
  543SOL    HW2 1643   1.654   2.377   0.790
  544SOL     OW 1644   0.231   3.575   0.483
  544SOL    HW1 1645   0.265   3.652   0.537
  544SOL    HW2 1646   0.275   3.575   0.393
  545SOL     OW 1647   1.127   3.203   1.690
  545SOL    HW1 1648   1.174   3.203   1.778
  545SOL    HW2 1649   1.079   3.116   1.679
  546SOL     OW 1650   0.230   3.296   0.538
  546SOL    HW1 1651   0.204   3.392   0.538
  546SOL    HW2 1652   0.159   3.242   0.583
  547SOL     OW 1653   0.240   2.953   0.886
  547SOL    HW1 1654   0.254   2.869   0.938
  547SOL    HW2 1655   0.185   3.017   0.941
  548SOL     OW 1656   0.620   3.648   1.439
  548SOL    HW1 1657   0.528   3.631   1.474
  548SOL    HW2 1658   0.648   3.740   1.465
  549SOL     OW 1659   0.606   2.826   0.123
  549SOL    HW1 1660   0.613   2.910   0.069
  549SOL    HW2 1661   0.652   2.839   0.211
  550SOL     OW 1662   1.594   1.976   1.480
  550SOL    HW1 1663   1.576   2.043   1.408
  550SOL    HW2 1664   1.591   2.022   1.569
  551SOL     OW 1665   0.122   2.505   0.563
  551SOL    HW1 1666   0.077   2.417   0.580
  551SOL    HW2 1667   0.121   2.559   0.647
  552SOL     OW 1668   1.842   3.629   0.359
  552SOL    HW1 1669   1.896   3.600   0.439
  552SOL    HW2 1670   1.872   3.719   0.330
  553SOL     OW 1671   0.027   3.458   0.117
  553SOL    HW1 1672   0.008   3.362   0.138
  553SOL    HW2 1673  -0.006   3.516   0.192
  554SOL     OW 1674   1.689   2.784   0.612
  554SOL    HW1 1675   1.784   2.755   0.620
  554SOL    HW2 1676   1.681   2.849   0.537
  555SOL     OW 1677   1.641   2.970   0.432
  555SOL    HW1 1678   1.727   2.972   0.380
  555SOL    HW2 1679   1.655   3.017   0.520
  556SOL     OW 1680   0.113   2.599   1.597
  556SOL    HW1 1681   0.201   2.586   1.642
  556SOL    HW2 1682   0.100   2.696   1.575
  557SOL     OW 1683   0.613   3.227   0.726
  557SOL    HW1 1684   0.564   3.140   0.735
  557SOL    HW2 1685   0.590   3.270   0.639
  558SOL     OW 1686   1.293   3.090   1.423
  558SOL    HW1 1687   1.330   3.017   1.365
  558SOL    HW2 1688   1.345   3.095   1.508
  559SOL     OW 1689   0.809   1.866   0.502
  559SOL    HW1 1690   0.849   1.957   0.493
  559SOL    HW2 1691   0.709   1.874   0.508
  560SOL     OW 1692   0.197   2.838   1.264
  560SOL    HW1 1693   0.286   2.793   1.250
  560SOL    HW2 1694   0.124   2.773   1.245
  561SOL     OW 1695   1.525   2.861   0.190
  561SOL    HW1 1696   1.462   2.785   0.203
  561SOL    HW2 1697   1.573   2.879   0.276
  562SOL     OW 1698   1.187   3.654   1.616
  562SOL    HW1 1699   1.211   3.714   1.540
  562SOL    HW2 1700   1.194   3.559   1.586
  563SOL     OW 1701   0.317   2.113   1.801
  563SOL    HW1 1702   0.388   2.184   1.807
  563SOL    HW2 1703   0.229   2.152   1.829
  564SOL     OW 1704   1.466   3.279   0.953
  564SOL    HW1 1705   1.407   3.285   1.033
  564SOL    HW2 1706   1.451   3.191   0.907
  565SOL     OW 1707   1.667   3.576   0.572
  565SOL    HW1 1708   1.626   3.553   0.484
  565SOL    HW2 1709   1.649   3.502   0.637
  566SOL     OW 1710   0.598   2.591   0.270
  566SOL    HW1 1711   0.622   2.660   0.202
  566SOL    HW2 1712   0.520   2.624   0.324
  567SOL     OW 1713   1.281   2.207   0.944
  567SOL    HW1 1714   1.195   2.157   0.931
  567SOL    HW2 1715   1.343   2.153   1.000
  568SOL     OW 1716   1.576   3.524   0.307
  568SOL    HW1 1717   1.665   3.570   0.310
  568SOL    HW2 1718   1.555   3.500   0.212
  569SOL     OW 1719   0.807   2.467   1.465
  569SOL    HW1 1720   0.760   2.464   1.554
  569SOL    HW2 1721   0.756   2.412   1.399
  570SOL     OW 1722   1.394   2.331   1.674
  570SOL    HW1 1723   1.374   2.374   1.762
  570SOL    HW2 1724   1.472   2.269   1.683
  571SOL     OW 1725   0.973   2.752   1.572
  571SOL    HW1 1726   1.019   2.668   1.543
  571SOL    HW2 1727   0.917   2.786   1.497
  572SOL     OW 1728   0.991   2.272   1.242
  572SOL    HW1 1729   0.914   2.306   1.296
  572SOL    HW2 1730   0.957   2.221   1.163
  573SOL     OW 1731   1.041   2.563   0.429
  573SOL    HW1 1732   1.067   2.559   0.525
  573SOL    HW2 1733   0.956   2.512   0.415
  574SOL     OW 1734   0.076   2.673   0.789
  574SOL    HW1 1735   0.175   2.661   0.798
  574SOL    HW2 1736   0.052   2.768   0.810
  575SOL     OW 1737   0.130   3.683   1.571
  575SOL    HW1 1738   0.120   3.668   1.670
  575SOL    HW2 1739   0.044   3.719   1.535
  576SOL     OW 1740   0.865   2.210   0.195
  576SOL    HW1 1741   0.924   2.273   0.146
  576SOL    HW2 1742   0.884   2.116   0.166
  577SOL     OW 1743   1.719   2.447   1.831
  577SOL    HW1 1744   1.693   2.536   1.795
  577SOL    HW2 1745   1.717   2.379   1.758
  578SOL     OW 1746   1.362   3.006   0.545
  578SOL    HW1 1747   1.445   2.977   0.497
  578SOL    HW2 1748   1.313   3.073   0.489
  579SOL     OW 1749   0.550   2.058   0.885
  579SOL    HW1 1750   0.545   2.053   0.985
  579SOL    HW2 1751   0.552   2.154   0.856
  580SOL     OW 1752   1.008   3.318   0.477
  580SOL    HW1 1753   0.962   3.390   0.425
  580SOL    HW2 1754   1.004   3.338   0.575
  581SOL     OW 1755   0.351   3.663   0.853
  581SOL    HW1 1756   0.401   3.577   0.859
  581SOL    HW2 1757   0.416   3.740   0.850
  582SOL     OW 1758   1.795   2.928   0.873
  582SOL    HW1 1759   1.733   2.913   0.797
  582SOL    HW2 1760   1.743   2.939   0.958
  583SOL     OW 1761   1.227   3.412   1.506
  583SOL    HW1 1762   1.233   3.335   1.570
  583SOL    HW2 1763   1.175   3.386   1.426
  584SOL     OW 1764   0.321   2.805   0.242
  584SOL    HW1 1765   0.403   2.844   0.200
  584SOL    HW2 1766   0.294   2.723   0.193
  585SOL     OW 1767   1.458   2.597   0.728
  585SOL    HW1 1768   1.453   2.532   0.803
  585SOL    HW2 1769   1.538   2.656   0.741
  586SOL     OW 1770   0.461   3.128   1.727
  586SOL    HW1 1771   0.411   3.129   1.641
  586SOL    HW2 1772   0.398   3.110   1.803
  587SOL     OW 1773   1.111   3.638   0.237
  587SOL    HW1 1774   1.051   3.576   0.287
  587SOL    HW2 1775   1.142   3.594   0.152
  588SOL     OW 1776   0.202   2.147   1.498
  588SOL    HW1 1777   0.122   2.207   1.485
  588SOL    HW2 1778   0.192   2.098   1.584
  589SOL     OW 1779   1.632   3.239   0.081
  589SOL    HW1 1780   1.600   3.333   0.071
  589SOL    HW2 1781   1.556   3.176   0.069
  590SOL     OW 1782   0.464   3.605   0.323
  590SOL    HW1 1783   0.497   3.644   0.409
  590SOL    HW2 1784   0.540   3.598   0.258
  591SOL     OW 1785   1.400   1.969   0.426
  591SOL    HW1 1786   1.376   1.932   0.336
  591SOL    HW2 1787   1.499   1.985   0.430
  592SOL     OW 1788   0.249   3.647   1.241
  592SOL    HW1 1789   0.306   3.582   1.291
  592SOL    HW2 1790   0.233   3.614   1.148
  593SOL     OW 1791   0.940   3.560   0.904
  593SOL    HW1 1792   1.020   3.503   0.925
  593SOL    HW2 1793   0.891   3.520   0.827
  594SOL     OW 1794   0.382   2.562   0.480
  594SOL    HW1 1795   0.427   2.472   0.477
  594SOL    HW2 1796   0.288   2.551   0.513
  595SOL     OW 1797   1.547   2.084   1.729
  595SOL    HW1 1798   1.542   2.121   1.821
  595SOL    HW2 1799   1.475   2.015   1.717
  596SOL     OW 1800   0.781   2.126   1.749
  596SOL    HW1 1801   0.848   2.065   1.792
  596SOL    HW2 1802   0.708   2.145   1.814
  597SOL     OW 1803   0.888   3.376   1.195
  597SOL    HW1 1804   0.865   3.351   1.101
  597SOL    HW2 1805   0.949   3.307   1.234
  598SOL     OW 1806   1.351   2.452   1.433
  598SOL    HW1 1807   1.379   2.409   1.518
  598SOL    HW2 1808   1.376   2.548   1.434
  599SOL     OW 1809   0.803   3.264   0.924
  599SOL    HW1 1810   0.893   3.278   0.882
  599SOL    HW2 1811   0.732   3.266   0.853
  600SOL     OW 1812   0.922   2.365   0.899
  600SOL    HW1 1813   0.897   2.356   0.803
  600SOL    HW2 1814   0.970   2.283   0.930
  601SOL     OW 1815   0.539   1.926   0.512
  601SOL    HW1 1816   0.458   1.927   0.570
  601SOL    HW2 1817   0.542   2.009   0.457
  602SOL     OW 1818   1.434   3.050   0.041
  602SOL    HW1 1819   1.466   2.974   0.098
  602SOL    HW2 1820   1.342   3.077   0.071
  603SOL     OW 1821   0.297   1.897   0.171
  603SOL    HW1 1822   0.346   1.981   0.150
  603SOL    HW2 1823   0.359   1.832   0.216
  604SOL     OW 1824   0.935   2.098   0.480
  604SOL    HW1 1825   0.887   2.139   0.402
  604SOL    HW2 1826   1.034   2.096   0.461
  605SOL     OW 1827   1.076   2.545   1.464
  605SOL    HW1 1828   0.996   2.484   1.467
  605SOL    HW2 1829   1.157   2.492   1.440
  606SOL     OW 1830   1.227   3.432   0.793
  606SOL    HW1 1831   1.248   3.506   0.728
  606SOL    HW2 1832   1.295   3.432   0.866
  607SOL     OW 1833   0.459   3.014   0.741
  607SOL    HW1 1834   0.388   2.987   0.806
  607SOL    HW2 1835   0.433   2.986   0.648
  608SOL     OW 1836   1.271   3.659   0.591
  608SOL    HW1 1837   1.315   3.723   0.527
  608SOL    HW2 1838   1.221   3.711   0.661
  609SOL     OW 1839   1.032   2.411   0.016
  609SOL    HW1 1840   0.991   2.493  -0.023
  609SOL    HW2 1841   1.096   2.437   0.089
  610SOL     OW 1842   0.078   2.418   1.386
  610SOL    HW1 1843   0.170   2.417   1.345
  610SOL    HW2 1844   0.072   2.492   1.453
  611SOL     OW 1845   0.561   2.084   1.147
  611SOL    HW1 1846   0.599   2.000   1.184
  611SOL    HW2 1847   0.473   2.103   1.191
  612SOL     OW 1848   0.866   2.316   0.642
  612SOL    HW1 1849   0.834   2.388   0.580
  612SOL    HW2 1850   0.890   2.235   0.589
  613SOL     OW 1851   1.017   1.901   0.753
  613SOL    HW1 1852   0.945   1.906   0.684
  613SOL    HW2 1853   0.993   1.832   0.822
  614SOL     OW 1854   1.429   3.035   0.867
  614SOL    HW1 1855   1.374   2.951   0.860
  614SOL    HW2 1856   1.455   3.064   0.775
  615SOL     OW 1857   1.466   2.452   0.992
  615SOL    HW1 1858   1.436   2.357   0.999
  615SOL    HW2 1859   1.539   2.468   1.058
  616SOL     OW 1860   1.857   2.695   0.377
  616SOL    HW1 1861   1.899   2.631   0.441
  616SOL    HW2 1862   1.819   2.644   0.299
  617SOL     OW 1863   0.488   3.247   0.174
  617SOL    HW1 1864   0.401   3.232   0.221
  617SOL    HW2 1865   0.471   3.273   0.079
  618SOL     OW 1866   1.664   3.142   0.657
  618SOL    HW1 1867   1.763   3.150   0.671
  618SOL    HW2 1868   1.619   3.226   0.688
  619SOL     OW 1869   1.390   2.437   0.078
  619SOL    HW1 1870   1.336   2.416   0.159
  619SOL    HW2 1871   1.481   2.396   0.087
  620SOL     OW 1872   0.527   2.118   0.328
  620SOL    HW1 1873   0.554   2.059   0.253
  620SOL    HW2 1874   0.527   2.213   0.297
  621SOL     OW 1875   1.754   3.085   1.588
  621SOL    HW1 1876   1.845   3.046   1.575
  621SOL    HW2 1877   1.762   3.181   1.612
  622SOL     OW 1878   1.064   3.209   1.340
  622SOL    HW1 1879   0.984   3.186   1.395
  622SOL    HW2 1880   1.147   3.183   1.389
  623SOL     OW 1881   1.592   3.491   1.625
  623SOL    HW1 1882   1.619   3.525   1.535
  623SOL    HW2 1883   1.671   3.453   1.671
  624SOL     OW 1884   1.111   3.057   1.100
  624SOL    HW1 1885   1.071   3.101   1.181
  624SOL    HW2 1886   1.070   3.094   1.017
  625SOL     OW 1887   1.638   2.961   1.079
  625SOL    HW1 1888   1.643   3.042   1.138
  625SOL    HW2 1889   1.552   2.963   1.028
  626SOL     OW 1890   0.915   1.951   1.402
  626SOL    HW1 1891   0.940   1.931   1.307
  626SOL    HW2 1892   0.987   2.007   1.444
  627SOL     OW 1893   0.980   2.978   1.719
  627SOL    HW1 1894   0.881   2.984   1.729
  627SOL    HW2 1895   1.003   2.898   1.663
  628SOL     OW 1896   0.705   2.912   0.368
  628SOL    HW1 1897   0.691   2.919   0.467
  628SOL    HW2 1898   0.789   2.861   0.350
  629SOL     OW 1899   0.410   2.675   1.251
  629SOL    HW1 1900   0.496   2.687   1.301
  629SOL    HW2 1901   0.368   2.588   1.278
  630SOL     OW 1902   1.274   2.248   1.262
  630SOL    HW1 1903   1.295   2.322   1.326
  630SOL    HW2 1904   1.185   2.265   1.219
  631SOL     OW 1905   0.064   3.426   1.331
  631SOL    HW1 1906   0.018   3.508   1.297
  631SOL    HW2 1907   0.162   3.445   1.340
  632SOL     OW 1908   0.367   2.962   0.501
  632SOL    HW1 1909   0.360   3.045   0.445
  632SOL    HW2 1910   0.371   2.882   0.441
  633SOL     OW 1911   0.566   2.399   0.865
  633SOL    HW1 1912   0.578   2.465   0.791
  633SOL    HW2 1913   0.612   2.433   0.948
  634SOL     OW 1914   1.252   3.210   0.388
  634SOL    HW1 1915   1.302   3.287   0.428
  634SOL    HW2 1916   1.157   3.212   0.420
  635SOL     OW 1917   1.272   3.307   1.142
  635SOL    HW1 1918   1.319   3.320   1.229
  635SOL    HW2 1919   1.206   3.233   1.151
  636SOL     OW 1920   1.582   2.501   0.472
  636SOL    HW1 1921   1.551   2.562   0.545
  636SOL    HW2 1922   1.632   2.553   0.403
  637SOL     OW 1923   0.354   3.372   1.329
  637SOL    HW1 1924   0.333   3.328   1.242
  637SOL    HW2 1925   0.451   3.398   1.332
  638SOL     OW 1926   0.402   2.613   1.598
  638SOL    HW1 1927   0.470   2.668   1.551
  638SOL    HW2 1928   0.442   2.525   1.625
  639SOL     OW 1929   1.587   2.641   1.670
  639SOL    HW1 1930   1.495   2.679   1.665
  639SOL    HW2 1931   1.647   2.688   1.605
  640SOL     OW 1932   1.013   1.967   1.770
  640SOL    HW1 1933   1.019   2.052   1.718
  640SOL    HW2 1934   1.045   1.891   1.713
  641SOL     OW 1935   0.504   1.912   1.740
  641SOL    HW1 1936   0.462   1.855   1.670
  641SOL    HW2 1937   0.438   1.981   1.772
  642SOL     OW 1938   0.573   2.732   1.029
  642SOL    HW1 1939   0.617   2.821   1.020
  642SOL    HW2 1940   0.510   2.732   1.106
  643SOL     OW 1941   1.360   2.724   1.045
  643SOL    HW1 1942   1.285   2.724   0.979
  643SOL    HW2 1943   1.397   2.632   1.054
  644SOL     OW 1944   1.209   2.387   0.275
  644SOL    HW1 1945   1.222   2.303   0.329
  644SOL    HW2 1946   1.180   2.461   0.335
  645SOL     OW 1947   0.307   2.075   1.231
  645SOL    HW1 1948   0.284   2.112   1.321
  645SOL    HW2 1949   0.277   1.980   1.225
  646SOL     OW 1950   0.037   3.172   1.282
  646SOL    HW1 1951   0.090   3.123   1.350
  646SOL    HW2 1952   0.059   3.270   1.287
  647SOL     OW 1953   0.732   2.496   1.064
  647SOL    HW1 1954   0.791   2.470   0.988
  647SOL    HW2 1955   0.704   2.592   1.053
  648SOL     OW 1956   1.728   2.797   1.854
  648SOL    HW1 1957   1.682   2.790   1.765
  648SOL    HW2 1958   1.666   2.841   1.920
  649SOL     OW 1959   0.307   1.925   0.618
  649SOL    HW1 1960   0.296   2.019   0.651
  649SOL    HW2 1961   0.302   1.862   0.695
  650SOL     OW 1962   1.622   2.229   0.374
  650SOL    HW1 1963   1.624   2.153   0.438
  650SOL    HW2 1964   1.574   2.306   0.414
  651SOL     OW 1965   1.023   2.628   0.966
  651SOL    HW1 1966   1.038   2.649   1.062
  651SOL    HW2 1967   0.993   2.533   0.957
  652SOL     OW 1968   0.980   3.435   1.700
  652SOL    HW1 1969   0.960   3.479   1.612
  652SOL    HW2 1970   1.019   3.344   1.684
  653SOL     OW 1971   1.859   3.380   1.605
  653SOL    HW1 1972   1.873   3.407   1.510
  653SOL    HW2 1973   1.942   3.402   1.658
  654SOL     OW 1974   0.350   2.760   1.804
  654SOL    HW1 1975   0.426   2.804   1.852
  654SOL    HW2 1976   0.385   2.713   1.722
  655SOL     OW 1977   1.540   2.136   0.125
  655SOL    HW1 1978   1.479   2.061   0.148
  655SOL    HW2 1979   1.562   2.188   0.208
  656SOL     OW 1980   1.303   2.700   0.042
  656SOL    HW1 1981   1.337   2.607   0.057
  656SOL    HW2 1982   1.321   2.727  -0.053
  657SOL     OW 1983   1.068   3.195   0.849
  657SOL    HW1 1984   1.075   3.111   0.794
  657SOL    HW2 1985   1.130   3.264   0.813
  658SOL     OW 1986   0.319   2.672   0.949
  658SOL    HW1 1987   0.412   2.708   0.954
  658SOL    HW2 1988   0.313   2.587   1.001
  659SOL     OW 1989   0.339   2.371   1.006
  659SOL    HW1 1990   0.287   2.288   0.989
  659SOL    HW2 1991   0.416   2.376   0.942
  660SOL     OW 1992   1.138   2.242   1.678
  660SOL    HW1 1993   1.093   2.305   1.742
  660SOL    HW2 1994   1.231   2.273   1.661
  661SOL     OW 1995   1.160   2.069   1.477
  661SOL    HW1 1996   1.160   2.133   1.554
  661SOL    HW2 1997   1.188   2.117   1.394
  662SOL     OW 1998   0.008   3.188   0.200
  662SOL    HW1 1999  -0.085   3.209   0.169
  662SOL    HW2 2000   0.018   3.089   0.213
  663SOL     OW 2001   0.088   3.663   0.927
  663SOL    HW1 2002   0.046   3.577   0.900
  663SOL    HW2 2003   0.182   3.666   0.893
  664SOL     OW 2004   0.504   3.430   0.910
  664SOL    HW1 2005   0.570   3.504   0.919
  664SOL    HW2 2006   0.548   3.351   0.868
  665SOL     OW 2007   1.002   2.658   1.238
  665SOL    HW1 2008   1.043   2.626   1.324
  665SOL    HW2 2009   0.906   2.631   1.235
  666SOL     OW 2010   0.040   2.406   1.114
  666SOL    HW1 2011   0.125   2.373   1.073
  666SOL    HW2 2012   0.053   2.421   1.212
  667SOL     OW 2013   0.189   2.382   1.722
  667SOL    HW1 2014   0.248   2.342   1.652
  667SOL    HW2 2015   0.131   2.453   1.681
  668SOL     OW 2016   1.369   2.812   1.660
  668SOL    HW1 2017   1.408   2.901   1.680
  668SOL    HW2 2018   1.379   2.792   1.563
  669SOL     OW 2019   0.815   2.434   0.325
  669SOL    HW1 2020   0.822   2.345   0.279
  669SOL    HW2 2021   0.721   2.468   0.317
  670SOL     OW 2022   1.657   2.466   1.206
  670SOL    HW1 2023   1.619   2.397   1.268
  670SOL    HW2 2024   1.739   2.430   1.162
  671SOL     OW 2025   0.252   3.426   1.744
  671SOL    HW1 2026   0.222   3.483   1.820
  671SOL    HW2 2027   0.245   3.329   1.770
  672SOL     OW 2028   0.671   2.326   1.269
  672SOL    HW1 2029   0.637   2.237   1.239
  672SOL    HW2 2030   0.697   2.380   1.189
  673SOL     OW 2031   0.930   3.540   1.465
  673SOL    HW1 2032   0.906   3.522   1.370
  673SOL    HW2 2033   0.960   3.634   1.475
  674SOL     OW 2034   0.473   2.362   0.191
  674SOL    HW1 2035   0.534   2.442   0.195
  674SOL    HW2 2036   0.378   2.393   0.198
  675SOL     OW 2037   0.159   2.999   1.466
  675SOL    HW1 2038   0.181   2.938   1.542
  675SOL    HW2 2039   0.169   2.950   1.380
  676SOL     OW 2040   1.347   2.921   1.234
  676SOL    HW1 2041   1.371   2.858   1.160
  676SOL    HW2 2042   1.257   2.961   1.216
  677SOL     OW 2043   1.302   2.717   0.309
  677SOL    HW1 2044   1.216   2.686   0.351
  677SOL    HW2 2045   1.298   2.703   0.210
  678SOL     OW 2046   1.759   3.609   1.154
  678SOL    HW1 2047   1.820   3.639   1.081
  678SOL    HW2 2048   1.721   3.520   1.132
  679SOL     OW 2049   1.252   3.593   1.128
  679SOL    HW1 2050   1.336   3.598   1.074
  679SOL    HW2 2051   1.229   3.497   1.146
  680SOL     OW 2052   0.083   3.120   1.022
  680SOL    HW1 2053   0.078   3.119   1.122
  680SOL    HW2 2054   0.000   3.079   0.984
  681SOL     OW 2055   0.688   3.524   1.716
  681SOL    HW1 2056   0.632   3.605   1.725
  681SOL    HW2 2057   0.740   3.528   1.630
  682SOL     OW 2058   0.903   1.948   0.133
  682SOL    HW1 2059   0.954   1.949   0.047
  682SOL    HW2 2060   0.959   1.906   0.204
  683SOL     OW 2061   1.726   1.997   0.523
  683SOL    HW1 2062   1.799   1.980   0.456
  683SOL    HW2 2063   1.695   1.910   0.561
  684SOL     OW 2064   1.388   3.435   0.477
  684SOL    HW1 2065   1.455   3.447   0.403
  684SOL    HW2 2066   1.348   3.524   0.500
  685SOL     OW 2067   0.130   3.656   1.851
  685SOL    HW1 2068   0.089   3.582   1.904
  685SOL    HW2 2069   0.194   3.707   1.909
  686SOL     OW 2070   1.280   2.789   0.672
  686SOL    HW1 2071   1.340   2.708   0.674
  686SOL    HW2 2072   1.320   2.858   0.612
  687SOL     OW 2073   0.830   3.135   1.422
  687SOL    HW1 2074   0.825   3.168   1.517
  687SOL    HW2 2075   0.744   3.154   1.376
  688SOL     OW 2076   0.672   3.478   0.154
  688SOL    HW1 2077   0.681   3.488   0.055
  688SOL    HW2 2078   0.632   3.389   0.175
  689SOL     OW 2079   1.650   3.582   1.394
  689SOL    HW1 2080   1.703   3.592   1.310
  689SOL    HW2 2081   1.623   3.672   1.428
  690SOL     OW 2082   1.841   2.037   0.963
  690SOL    HW1 2083   1.880   1.952   0.927
  690SOL    HW2 2084   1.743   2.039   0.944
  691SOL     OW 2085   0.263   2.188   0.720
  691SOL    HW1 2086   0.184   2.239   0.686
  691SOL    HW2 2087   0.254   2.173   0.818
  692SOL     OW 2088   1.194   3.474   0.031
  692SOL    HW1 2089   1.200   3.381   0.068
  692SOL    HW2 2090   1.135   3.474  -0.049
  693SOL     OW 2091   0.822   2.864   1.372
  693SOL    HW1 2092   0.862   2.863   1.280
  693SOL    HW2 2093   0.832   2.956   1.412
  694SOL     OW 2094   0.916   2.772   0.291
  694SOL    HW1 2095   0.979   2.810   0.223
  694SOL    HW2 2096   0.956   2.689   0.330
  695SOL     OW 2097   1.504   3.469   0.044
  695SOL    HW1 2098   1.412   3.506   0.051
  695SOL    HW2 2099   1.542   3.489  -0.046
  696SOL     OW 2100   0.372   3.150   1.490
  696SOL    HW1 2101   0.359   3.243   1.456
  696SOL    HW2 2102   0.288   3.098   1.477
  697SOL     OW 2103   1.614   3.154   1.289
  697SOL    HW1 2104   1.674   3.157   1.369
  697SOL    HW2 2105   1.539   3.218   1.302
  698SOL     OW 2106   1.039   2.960   0.696
  698SOL    HW1 2107   0.969   2.913   0.750
  698SOL    HW2 2108   1.098   2.892   0.653
  699SOL     OW 2109   1.014   2.098   0.971
  699SOL    HW1 2110   1.006   2.062   0.878
  699SOL    HW2 2111   1.012   2.022   1.036
  700SOL     OW 2112   0.590   3.349   0.491
  700SOL    HW1 2113   0.632   3.291   0.421
  700SOL    HW2 2114   0.546   3.428   0.447
  701SOL     OW 2115   1.709   2.247   1.381
  701SOL    HW1 2116   1.782   2.316   1.385
  701SOL    HW2 2117   1.737   2.172   1.322
  702SOL     OW 2118   0.255   3.210   0.290
  702SOL    HW1 2119   0.159   3.211   0.263
  702SOL    HW2 2120   0.267   3.263   0.374
  703SOL     OW 2121   0.105   2.875   1.726
  703SOL    HW1 2122   0.028   2.842   1.780
  703SOL    HW2 2123   0.190   2.845   1.768
  704SOL     OW 2124   0.672   2.065   1.489
  704SOL    HW1 2125   0.762   2.049   1.449
  704SOL    HW2 2126   0.680   2.070   1.588
  705SOL     OW 2127   0.075   2.207   0.033
  705SOL    HW1 2128  -0.017   2.179   0.004
  705SOL    HW2 2129   0.106   2.284  -0.023
  706SOL     OW 2130   1.440   2.718   1.398
  706SOL    HW1 2131   1.383   2.770   1.335
  706SOL    HW2 2132   1.536   2.730   1.374
  707SOL     OW 2133   0.072   2.028   0.318
  707SOL    HW1 2134   0.055   2.111   0.264
  707SOL    HW2 2135   0.162   1.991   0.296
  708SOL     OW 2136   1.183   3.197   0.119
  708SOL    HW1 2137   1.084   3.186   0.121
  708SOL    HW2 2138   1.217   3.212   0.212
  709SOL     OW 2139   0.613   2.704   1.431
  709SOL    HW1 2140   0.669   2.785   1.414
  709SOL    HW2 2141   0.672   2.624   1.434
  710SOL     OW 2142   1.493   3.629   0.959
  710SOL    HW1 2143   1.526   3.693   0.890
  710SOL    HW2 2144   1.559   3.623   1.034
  711SOL     OW 2145   0.716   2.427   1.708
  711SOL    HW1 2146   0.735   2.492   1.782
  711SOL    HW2 2147   0.776   2.347   1.717
  712SOL     OW 2148   1.450   3.082   1.633
  712SOL    HW1 2149   1.441   3.072   1.732
  712SOL    HW2 2150   1.546   3.075   1.607
  713SOL     OW 2151   0.390   3.603   1.560
  713SOL    HW1 2152   0.299   3.644   1.558
  713SOL    HW2 2153   0.383   3.509   1.592
  714SOL     OW 2154   1.674   2.745   1.254
  714SOL    HW1 2155   1.647   2.656   1.217
  714SOL    HW2 2156   1.675   2.813   1.181
  715SOL     OW 2157   1.225   2.187   0.449
  715SOL    HW1 2158   1.290   2.113   0.438
  715SOL    HW2 2159   1.245   2.237   0.533
  716SOL     OW 2160   0.594   2.607   0.652
  716SOL    HW1 2161   0.644   2.692   0.633
  716SOL    HW2 2162   0.506   2.609   0.604
  717SOL     OW 2163   1.777   2.204   1.642
  717SOL    HW1 2164   1.760   2.235   1.548
  717SOL    HW2 2165   1.693   2.167   1.680
  718SOL     OW 2166   1.730   2.796   1.517
  718SOL    HW1 2167   1.768   2.887   1.532
  718SOL    HW2 2168   1.722   2.779   1.418
  719SOL     OW 2169   0.859   3.236   0.016
  719SOL    HW1 2170   0.813   3.251   0.104
  719SOL    HW2 2171   0.903   3.321  -0.014
  720SOL     OW 2172   0.661   3.652   0.953
  720SOL    HW1 2173   0.615   3.740   0.940
  720SOL    HW2 2174   0.760   3.664   0.946
  721SOL     OW 2175   0.859   2.818   0.861
  721SOL    HW1 2176   0.913   2.749   0.909
  721SOL    HW2 2177   0.827   2.887   0.927
  722SOL     OW 2178   1.083   2.846   0.087
  722SOL    HW1 2179   1.060   2.899   0.005
  722SOL    HW2 2180   1.164   2.790   0.068
  723SOL     OW 2181   1.861   3.431   0.851
  723SOL    HW1 2182   1.790   3.419   0.781
  723SOL    HW2 2183   1.862   3.352   0.911
  724SOL     OW 2184   0.221   3.176   1.844
  724SOL    HW1 2185   0.156   3.103   1.823
  724SOL    HW2 2186   0.225   3.190   1.942
  725SOL     OW 2187   0.079   3.102   0.653
  725SOL    HW1 2188   0.078   3.055   0.741
  725SOL    HW2 2189   0.161   3.074   0.602
  726SOL     OW 2190   0.672   3.253   1.624
  726SOL    HW1 2191   0.594   3.203   1.662
  726SOL    HW2 2192   0.669   3.348   1.655
  727SOL     OW 2193   1.824   2.054   1.227
  727SOL    HW1 2194   1.820   1.964   1.271
  727SOL    HW2 2195   1.827   2.043   1.128
  728SOL     OW 2196   0.428   2.286   0.520
  728SOL    HW1 2197   0.458   2.214   0.458
  728SOL    HW2 2198   0.389   2.246   0.603
  729SOL     OW 2199   1.705   3.349   1.104
  729SOL    HW1 2200   1.612   3.324   1.077
  729SOL    HW2 2201   1.731   3.299   1.186
  730SOL     OW 2202   0.317   2.409   1.280
  730SOL    HW1 2203   0.355   2.350   1.352
  730SOL    HW2 2204   0.357   2.383   1.192
  731SOL     OW 2205   0.812   3.448   0.687
  731SOL    HW1 2206   0.844   3.458   0.593
  731SOL    HW2 2207   0.733   3.386   0.689
  732SOL     OW 2208   1.424   2.076   1.112
  732SOL    HW1 2209   1.476   2.011   1.167
  732SOL    HW2 2210   1.375   2.139   1.173
  733SOL     OW 2211   1.001   1.896   1.154
  733SOL    HW1 2212   0.938   1.824   1.123
  733SOL    HW2 2213   1.094   1.860   1.154
  734SOL     OW 2214   0.770   3.192   0.301
  734SOL    HW1 2215   0.724   3.105   0.318
  734SOL    HW2 2216   0.861   3.189   0.342
  735SOL     OW 2217   0.618   3.429   1.284
  735SOL    HW1 2218   0.613   3.511   1.341
  735SOL    HW2 2219   0.707   3.426   1.239
  736SOL     OW 2220   1.352   1.914   0.168
  736SOL    HW1 2221   1.387   1.873   0.084
  736SOL    HW2 2222   1.262   1.876   0.188
  737SOL     OW 2223   1.300   2.315   0.691
  737SOL    HW1 2224   1.241   2.395   0.695
  737SOL    HW2 2225   1.315   2.280   0.784
  738SOL     OW 2226   1.593   2.083   0.882
  738SOL    HW1 2227   1.509   2.082   0.936
  738SOL    HW2 2228   1.595   2.166   0.826
  739SOL     OW 2229   0.039   2.939   0.300
  739SOL    HW1 2230   0.138   2.928   0.291
  739SOL    HW2 2231  -0.001   2.853   0.332
  740SOL     OW 2232   0.875   3.508   0.337
  740SOL    HW1 2233   0.798   3.473   0.283
  740SOL    HW2 2234   0.843   3.579   0.399
  741SOL     OW 2235   0.230   2.490   1.975
  741SOL    HW1 2236   0.137   2.488   2.012
  741SOL    HW2 2237   0.231   2.451   1.883
  742SOL     OW 2238   0.225   2.137   2.858
  742SOL    HW1 2239   0.260   2.120   2.950
  742SOL    HW2 2240   0.137   2.092   2.846
  743SOL     OW 2241   0.019   2.230   2.509
  743SOL    HW1 2242  -0.063   2.273   2.548
  743SOL    HW2 2243  -0.009   2.157   2.446
  744SOL     OW 2244   0.569   3.137   3.027
  744SOL    HW1 2245   0.476   3.130   2.990
  744SOL    HW2 2246   0.580   3.226   3.071
  745SOL     OW 2247   1.555   3.373   2.565
  745SOL    HW1 2248   1.498   3.357   2.646
  745SOL    HW2 2249   1.496   3.383   2.485
  746SOL     OW 2250   1.135   2.565   2.579
  746SOL    HW1 2251   1.192   2.643   2.554
  746SOL    HW2 2252   1.075   2.591   2.655
  747SOL     OW 2253   1.755   2.469   2.093
  747SOL    HW1 2254   1.743   2.456   1.994
  747SOL    HW2 2255   1.725   2.388   2.142
  748SOL     OW 2256   0.768   3.006   2.885
  748SOL    HW1 2257   0.690   3.023   2.945
  748SOL    HW2 2258   0.802   3.093   2.849
  749SOL     OW 2259   0.850   2.660   3.685
  749SOL    HW1 2260   0.846   2.736   3.750
  749SOL    HW2 2261   0.872   2.696   3.594
  750SOL     OW 2262   0.685   2.874   2.527
  750SOL    HW1 2263   0.754   2.858   2.597
  750SOL    HW2 2264   0.612   2.931   2.565
  751SOL     OW 2265   0.686   3.023   3.665
  751SOL    HW1 2266   0.746   3.102   3.679
  751SOL    HW2 2267   0.600   3.054   3.624
  752SOL     OW 2268   0.335   3.297   2.923
  752SOL    HW1 2269   0.257   3.266   2.870
  752SOL    HW2 2270   0.393   3.355   2.866
  753SOL     OW 2271   1.460   3.367   3.201
  753SOL    HW1 2272   1.484   3.461   3.227
  753SOL    HW2 2273   1.444   3.313   3.283
  754SOL     OW 2274   0.438   2.254   3.361
  754SOL    HW1 2275   0.520   2.198   3.370
  754SOL    HW2 2276   0.357   2.196   3.365
  755SOL     OW 2277   1.603   2.309   2.599
  755SOL    HW1 2278   1.529   2.355   2.549
  755SOL    HW2 2279   1.654   2.377   2.652
  756SOL     OW 2280   0.231   3.575   2.345
  756SOL    HW1 2281   0.265   3.652   2.399
  756SOL    HW2 2282   0.275   3.575   2.255
  757SOL     OW 2283   1.127   3.203   3.552
  757SOL    HW1 2284   1.174   3.203   3.640
  757SOL    HW2 2285   1.079   3.116   3.541
  758SOL     OW 2286   0.230   3.296   2.400
  758SOL    HW1 2287   0.204   3.392   2.400
  758SOL    HW2 2288   0.159   3.242   2.445
  759SOL     OW 2289   0.240   2.953   2.748
  759SOL    HW1 2290   0.254   2.869   2.800
  759SOL    HW2 2291   0.185   3.017   2.803
  760SOL     OW 2292   0.620   3.648   3.301
  760SOL    HW1 2293   0.528   3.631   3.336
  760SOL    HW2 2294   0.648   3.740   3.327
  761SOL     OW 2295   0.606   2.826   1.985
  761SOL    HW1 2296   0.613   2.910   1.931
  761SOL    HW2 2297   0.652   2.839   2.073
  762SOL     OW 2298   1.594   1.976   3.342
  762SOL    HW1 2299   1.576   2.043   3.270
  762SOL    HW2 2300   1.591   2.022   3.431
  763SOL     OW 2301   0.122   2.505   2.425
  763SOL    HW1 2302   0.077   2.417   2.442
  763SOL    HW2 2303   0.121   2.559   2.509
  764SOL     OW 2304   1.842   3.629   2.221
  764SOL    HW1 2305   1.896   3.600   2.301
  764SOL    HW2 2306   1.872   3.719   2.192
  765SOL     OW 2307   0.027   3.458   1.979
  765SOL    HW1 2308   0.008   3.362   2.000
  765SOL    HW2 2309  -0.006   3.516   2.054
  766SOL     OW 2310   1.689   2.784   2.474
  766SOL    HW1 2311   1.784   2.755   2.482
  766SOL    HW2 2312   1.681   2.849   2.399
  767SOL     OW 2313   1.641   2.970   2.294
  767SOL    HW1 2314   1.727   2.972   2.242
  767SOL    HW2 2315   1.655   3.017   2.382
  768SOL     OW 2316   0.113   2.599   3.459
  768SOL    HW1 2317   0.201   2.586   3.504
  768SOL    HW2 2318   0.100   2.696   3.437
  769SOL     OW 2319   0.613   3.227   2.588
  769SOL    HW1 2320   0.564   3.140   2.597
  769SOL    HW2 2321   0.590   3.270   2.501
  770SOL     OW 2322   1.293   3.090   3.285
  770SOL    HW1 2323   1.330   3.017   3.227
  770SOL    HW2 2324   1.345   3.095   3.370
  771SOL     OW 2325   0.809   1.866   2.364
  771SOL    HW1 2326   0.849   1.957   2.355
  771SOL    HW2 2327   0.709   1.874   2.370
  772SOL     OW 2328   0.197   2.838   3.126
  772SOL    HW1 2329   0.286   2.793   3.112
  772SOL    HW2 2330   0.124   2.773   3.107
  773SOL     OW 2331   1.525   2.861   2.052
  773SOL    HW1 2332   1.462   2.785   2.065
  773SOL    HW2 2333   1.573   2.879   2.138
  774SOL     OW 2334   1.187   3.654   3.478
  774SOL    HW1 2335   1.211   3.714   3.402
  774SOL    HW2 2336   1.194   3.559   3.448
  775SOL     OW 2337   0.317   2.113   3.663
  775SOL    HW1 2338   0.388   2.184   3.669
  775SOL    HW2 2339   0.229   2.152   3.691
  776SOL     OW 2340   1.466   3.279   2.815
  776SOL    HW1 2341   1.407   3.285   2.895
  776SOL    HW2 2342   1.451   3.191   2.769
  777SOL     OW 2343   1.667   3.576   2.434
  777SOL    HW1 2344   1.626   3.553   2.346
  777SOL    HW2 2345   1.649   3.502   2.499
  778SOL     OW 2346   0.598   2.591   2.132
  778SOL    HW1 2347   0.622   2.660   2.064
  778SOL    HW2 2348   0.520   2.624   2.186
  779SOL     OW 2349   1.281   2.207   2.806
  779SOL    HW1 2350   1.195   2.157   2.793
  779SOL    HW2 2351   1.343   2.153   2.862
  780SOL     OW 2352   1.576   3.524   2.169
  780SOL    HW1 2353   1.665   3.570   2.172
  780SOL    HW2 2354   1.555   3.500   2.074
  781SOL     OW 2355   0.807   2.467   3.327
  781SOL    HW1 2356   0.760   2.464   3.416
  781SOL    HW2 2357   0.756   2.412   3.261
  782SOL     OW 2358   1.394   2.331   3.536
  782SOL    HW1 2359   1.374   2.374   3.624
  782SOL    HW2 2360   1.472   2.269   3.545
  783SOL     OW 2361   0.973   2.752   3.434
  783SOL    HW1 2362   1.019   2.668   3.405
  783SOL    HW2 2363   0.917   2.786   3.359
  784SOL     OW 2364   0.991   2.272   3.104
  784SOL    HW1 2365   0.914   2.306   3.158
  784SOL    HW2 2366   0.957   2.221   3.025
  785SOL     OW 2367   1.041   2.563   2.291
  785SOL    HW1 2368   1.067   2.559   2.387
  785SOL    HW2 2369   0.956   2.512   2.277
  786SOL     OW 2370   0.076   2.673   2.651
  786SOL    HW1 2371   0.175   2.661   2.660
  786SOL    HW2 2372   0.052   2.768   2.672
  787SOL     OW 2373   0.130   3.683   3.433
  787SOL    HW1 2374   0.120   3.668   3.532
  787SOL    HW2 2375   0.044   3.719   3.397
  788SOL     OW 2376   0.865   2.210   2.057
  788SOL    HW1 2377   0.924   2.273   2.008
  788SOL    HW2 2378   0.884   2.116   2.028
  789SOL     OW 2379   1.719   2.447   3.693
  789SOL    HW1 2380   1.693   2.536   3.657
  789SOL    HW2 2381   1.717   2.379   3.620
  790SOL     OW 2382   1.362   3.006   2.407
  790SOL    HW1 2383   1.445   2.977   2.359
  790SOL    HW2 2384   1.313   3.073   2.351
  791SOL     OW 2385   0.550   2.058   2.747
  791SOL    HW1 2386   0.545   2.053   2.847
  791SOL    HW2 2387   0.552   2.154   2.718
  792SOL     OW 2388   1.008   3.318   2.339
  792SOL    HW1 2389   0.962   3.390   2.287
  792SOL    HW2 2390   1.004   3.338   2.437
  793SOL     OW 2391   0.351   3.663   2.715
  793SOL    HW1 2392   0.401   3.577   2.721
  793SOL    HW2 2393   0.416   3.740   2.712
  794SOL     OW 2394   1.795   2.928   2.735
  794SOL    HW1 2395   1.733   2.913   2.659
  794SOL    HW2 2396   1.743   2.939   2.820
  795SOL     OW 2397   1.227   3.412   3.368
  795SOL    HW1 2398   1.233   3.335   3.432
  795SOL    HW2 2399   1.175   3.386   3.288
  796SOL     OW 2400   0.321   2.805   2.104
  796SOL    HW1 2401   0.403   2.844   2.062
  796SOL    HW2 2402   0.294   2.723   2.055
  797SOL     OW 2403   1.458   2.597   2.590
  797SOL    HW1 2404   1.453   2.532   2.665
  797SOL    HW2 2405   1.538   2.656   2.603
  798SOL     OW 2406   0.461   3.128   3.589
  798SOL    HW1 2407   0.411   3.129   3.503
  798SOL    HW2 2408   0.398   3.110   3.665
  799SOL     OW 2409   1.111   3.638   2.099
  799SOL    HW1 2410   1.051   3.576   2.149
  799SOL    HW2 2411   1.142   3.594   2.014
  800SOL     OW 2412   0.202   2.147   3.360
  800SOL    HW1 2413   0.122   2.207   3.347
  800SOL    HW2 2414   0.192   2.098   3.446
  801SOL     OW 2415   1.632   3.239   1.943
  801SOL    HW1 2416   1.600   3.333   1.933
  801SOL    HW2 2417   1.556   3.176   1.931
  802SOL     OW 2418   0.464   3.605   2.185
  802SOL    HW1 2419   0.497   3.644   2.271
  802SOL    HW2 2420   0.540   3.598   2.120
  803SOL     OW 2421   1.400   1.969   2.288
  803SOL    HW1 2422   1.376   1.932   2.198
  803SOL    HW2 2423   1.499   1.985   2.292
  804SOL     OW 2424   0.249   3.647   3.103
  804SOL    HW1 2425   0.306   3.582   3.153
  804SOL    HW2 2426   0.233   3.614   3.010
  805SOL     OW 2427   0.940   3.560   2.766
  805SOL    HW1 2428   1.020   3.503   2.787
  805SOL    HW2 2429   0.891   3.520   2.689
  806SOL     OW 2430   0.382   2.562   2.342
  806SOL    HW1 2431   0.427   2.472   2.339
  806SOL    HW2 2432   0.288   2.551   2.375
  807SOL     OW 2433   1.547   2.084   3.591
  807SOL    HW1 2434   1.542   2.121   3.683
  807SOL    HW2 2435   1.475   2.015   3.579
  808SOL     OW 2436   0.614   1.984   1.979
  808SOL    HW1 2437   0.712   1.962   1.986
  808SOL    HW2 2438   0.583   1.967   1.886
  809SOL     OW 2439   0.781   2.126   3.611
  809SOL    HW1 2440   0.848   2.065   3.654
  809SOL    HW2 2441   0.708   2.145   3.676
  810SOL     OW 2442   0.888   3.376   3.057
  810SOL    HW1 2443   0.865   3.351   2.963
  810SOL    HW2 2444   0.949   3.307   3.096
  811SOL     OW 2445   1.351   2.452   3.295
  811SOL    HW1 2446   1.379   2.409   3.380
  811SOL    HW2 2447   1.376   2.548   3.296
  812SOL     OW 2448   0.803   3.264   2.786
  812SOL    HW1 2449   0.893   3.278   2.744
  812SOL    HW2 2450   0.732   3.266   2.715
  813SOL     OW 2451   0.922   2.365   2.761
  813SOL    HW1 2452   0.897   2.356   2.665
  813SOL    HW2 2453   0.970   2.283   2.792
  814SOL     OW 2454   0.539   1.926   2.374
  814SOL    HW1 2455   0.458   1.927   2.432
  814SOL    HW2 2456   0.542   2.009   2.319
  815SOL     OW 2457   1.434   3.050   1.903
  815SOL    HW1 2458   1.466   2.974   1.960
  815SOL    HW2 2459   1.342   3.077   1.933
  816SOL     OW 2460   0.297   1.897   2.033
  816SOL    HW1 2461   0.346   1.981   2.012
  816SOL    HW2 2462   0.359   1.832   2.078
  817SOL     OW 2463   0.935   2.098   2.342
  817SOL    HW1 2464   0.887   2.139   2.264
  817SOL    HW2 2465   1.034   2.096   2.323
  818SOL     OW 2466   1.076   2.545   3.326
  818SOL    HW1 2467   0.996   2.484   3.329
  818SOL    HW2 2468   1.157   2.492   3.302
  819SOL     OW 2469   1.227   3.432   2.655
  819SOL    HW1 2470   1.248   3.506   2.590
  819SOL    HW2 2471   1.295   3.432   2.728
  820SOL     OW 2472   0.459   3.014   2.603
  820SOL    HW1 2473   0.388   2.987   2.668
  820SOL    HW2 2474   0.433   2.986   2.510
  821SOL     OW 2475   1.271   3.659   2.453
  821SOL    HW1 2476   1.315   3.723   2.389
  821SOL    HW2 2477   1.221   3.711   2.523
  822SOL     OW 2478   1.032   2.411   1.878
  822SOL    HW1 2479   0.991   2.493   1.839
  822SOL    HW2 2480   1.096   2.437   1.951
  823SOL     OW 2481   0.078   2.418   3.248
  823SOL    HW1 2482   0.170   2.417   3.207
  823SOL    HW2 2483   0.072   2.492   3.315
  824SOL     OW 2484   0.561   2.084   3.009
  824SOL    HW1 2485   0.599   2.000   3.046
  824SOL    HW2 2486   0.473   2.103   3.053
  825SOL     OW 2487   0.866   2.316   2.504
  825SOL    HW1 2488   0.834   2.388   2.442
  825SOL    HW2 2489   0.890   2.235   2.451
  826SOL     OW 2490   1.017   1.901   2.615
  826SOL    HW1 2491   0.945   1.906   2.546
  826SOL    HW2 2492   0.993   1.832   2.684
  827SOL     OW 2493   1.429   3.035   2.729
  827SOL    HW1 2494   1.374   2.951   2.722
  827SOL    HW2 2495   1.455   3.064   2.637
  828SOL     OW 2496   1.466   2.452   2.854
  828SOL    HW1 2497   1.436   2.357   2.861
  828SOL    HW2 2498   1.539   2.468   2.920
  829SOL     OW 2499   1.857   2.695   2.239
  829SOL    HW1 2500   1.899   2.631   2.303
  829SOL    HW2 2501   1.819   2.644   2.161
  830SOL     OW 2502   0.488   3.247   2.036
  830SOL    HW1 2503   0.401   3.232   2.083
  830SOL    HW2 2504   0.471   3.273   1.941
  831SOL     OW 2505   1.664   3.142   2.519
  831SOL    HW1 2506   1.763   3.150   2.533
  831SOL    HW2 2507   1.619   3.226   2.550
  832SOL     OW 2508   1.390   2.437   1.940
  832SOL    HW1 2509   1.336   2.416   2.021
  832SOL    HW2 2510   1.481   2.396   1.949
  833SOL     OW 2511   0.527   2.118   2.190
  833SOL    HW1 2512   0.554   2.059   2.115
  833SOL    HW2 2513   0.527   2.213   2.159
  834SOL     OW 2514   1.754   3.085   3.450
  834SOL    HW1 2515   1.845   3.046   3.437
  834SOL    HW2 2516   1.762   3.181   3.474
  835SOL     OW 2517   1.064   3.209   3.202
  835SOL    HW1 2518   0.984   3.186   3.257
  835SOL    HW2 2519   1.147   3.183   3.251
  836SOL     OW 2520   1.592   3.491   3.487
  836SOL    HW1 2521   1.619   3.525   3.397
  836SOL    HW2 2522   1.671   3.453   3.533
  837SOL     OW 2523   1.111   3.057   2.962
  837SOL    HW1 2524   1.071   3.101   3.043
  837SOL    HW2 2525   1.070   3.094   2.879
  838SOL     OW 2526   1.638   2.961   2.941
  838SOL    HW1 2527   1.643   3.042   3.000
  838SOL    HW2 2528   1.552   2.963   2.890
  839SOL     OW 2529   0.915   1.951   3.264
  839SOL    HW1 2530   0.940   1.931   3.169
  839SOL    HW2 2531   0.987   2.007   3.306
  840SOL     OW 2532   0.980   2.978   3.581
  840SOL    HW1 2533   0.881   2.984   3.591
  840SOL    HW2 2534   1.003   2.898   3.525
  841SOL     OW 2535   0.705   2.912   2.230
  841SOL    HW1 2536   0.691   2.919   2.329
  841SOL    HW2 2537   0.789   2.861   2.212
  842SOL     OW 2538   0.410   2.675   3.113
  842SOL    HW1 2539   0.496   2.687   3.163
  842SOL    HW2 2540   0.368   2.588   3.140
  843SOL     OW 2541   1.274   2.248   3.124
  843SOL    HW1 2542   1.295   2.322   3.188
  843SOL    HW2 2543   1.185   2.265   3.081
  844SOL     OW 2544   0.064   3.426   3.193
  844SOL    HW1 2545   0.018   3.508   3.159
  844SOL    HW2 2546   0.162   3.445   3.202
  845SOL     OW 2547   0.367   2.962   2.363
  845SOL    HW1 2548   0.360   3.045   2.307
  845SOL    HW2 2549   0.371   2.882   2.303
  846SOL     OW 2550   0.566   2.399   2.727
  846SOL    HW1 2551   0.578   2.465   2.653
  846SOL    HW2 2552   0.612   2.433   2.810
  847SOL     OW 2553   1.252   3.210   2.250
  847SOL    HW1 2554   1.302   3.287   2.290
  847SOL    HW2 2555   1.157   3.212   2.282
  848SOL     OW 2556   1.272   3.307   3.004
  848SOL    HW1 2557   1.319   3.320   3.091
  848SOL    HW2 2558   1.206   3.233   3.013
  849SOL     OW 2559   1.582   2.501   2.334
  849SOL    HW1 2560   1.551   2.562   2.407
  849SOL    HW2 2561   1.632   2.553   2.265
  850SOL     OW 2562   0.354   3.372   3.191
  850SOL    HW1 2563   0.333   3.328   3.104
  850SOL    HW2 2564   0.451   3.398   3.194
  851SOL     OW 2565   0.402   2.613   3.460
  851SOL    HW1 2566   0.470   2.668   3.413
  851SOL    HW2 2567   0.442   2.525   3.487
  852SOL     OW 2568   1.587   2.641   3.532
  852SOL    HW1 2569   1.495   2.679   3.527
  852SOL    HW2 2570   1.647   2.688   3.467
  853SOL     OW 2571   1.013   1.967   3.632
  853SOL    HW1 2572   1.019   2.052   3.580
  853SOL    HW2 2573   1.045   1.891   3.575
  854SOL     OW 2574   0.504   1.912   3.602
  854SOL    HW1 2575   0.462   1.855   3.532
  854SOL    HW2 2576   0.438   1.981   3.634
  855SOL     OW 2577   0.573   2.732   2.891
  855SOL    HW1 2578   0.617   2.821   2.882
  855SOL    HW2 2579   0.510   2.732   2.968
  856SOL     OW 2580   1.360   2.724   2.907
  856SOL    HW1 2581   1.285   2.724   2.841
  856SOL    HW2 2582   1.397   2.632   2.916
  857SOL     OW 2583   1.209   2.387   2.137
  857SOL    HW1 2584   1.222   2.303   2.191
  857SOL    HW2 2585   1.180   2.461   2.197
  858SOL     OW 2586   0.307   2.075   3.093
  858SOL    HW1 2587   0.284   2.112   3.183
  858SOL    HW2 2588   0.277   1.980   3.087
  859SOL     OW 2589   0.037   3.172   3.144
  859SOL    HW1 2590   0.090   3.123   3.212
  859SOL    HW2 2591   0.059   3.270   3.149
  860SOL     OW 2592   0.732   2.496   2.926
  860SOL    HW1 2593   0.791   2.470   2.850
  860SOL    HW2 2594   0.704   2.592   2.915
  861SOL     OW 2595   1.728   2.797   3.716
  861SOL    HW1 2596   1.682   2.790   3.627
  861SOL    HW2 2597   1.666   2.841   3.782
  862SOL     OW 2598   0.307   1.925   2.480
  862SOL    HW1 2599   0.296   2.019   2.513
  862SOL    HW2 2600   0.302   1.862   2.557
  863SOL     OW 2601   1.622   2.229   2.236
  863SOL    HW1 2602   1.624   2.153   2.300
  863SOL    HW2 2603   1.574   2.306   2.276
  864SOL     OW 2604   1.023   2.628   2.828
  864SOL    HW1 2605   1.038   2.649   2.924
  864SOL    HW2 2606   0.993   2.533   2.819
  865SOL     OW 2607   0.980   3.435   3.562
  865SOL    HW1 2608   0.960   3.479   3.474
  865SOL    HW2 2609   1.019   3.344   3.546
  866SOL     OW 2610   1.859   3.380   3.467
  866SOL    HW1 2611   1.873   3.407   3.372
  866SOL    HW2 2612   1.942   3.402   3.520
  867SOL     OW 2613   0.350   2.760   3.666
  867SOL    HW1 2614   0.426   2.804   3.714
  867SOL    HW2 2615   0.385   2.713   3.584
  868SOL     OW 2616   1.540   2.136   1.987
  868SOL    HW1 2617   1.479   2.061   2.010
  868SOL    HW2 2618   1.562   2.188   2.070
  869SOL     OW 2619   1.303   2.700   1.904
  869SOL    HW1 2620   1.337   2.607   1.919
  869SOL    HW2 2621   1.321   2.727   1.809
  870SOL     OW 2622   1.068   3.195   2.711
  870SOL    HW1 2623   1.075   3.111   2.656
  870SOL    HW2 2624   1.130   3.264   2.675
  871SOL     OW 2625   0.319   2.672   2.811
  871SOL    HW1 2626   0.412   2.708   2.816
  871SOL    HW2 2627   0.313   2.587   2.863
  872SOL     OW 2628   0.339   2.371   2.868
  872SOL    HW1 2629   0.287   2.288   2.851
  872SOL    HW2 2630   0.416   2.376   2.804
  873SOL     OW 2631   1.138   2.242   3.540
  873SOL    HW1 2632   1.093   2.305   3.604
  873SOL    HW2 2633   1.231   2.273   3.523
  874SOL     OW 2634   1.160   2.069   3.339
  874SOL    HW1 2635   1.160   2.133   3.416
  874SOL    HW2 2636   1.188   2.117   3.256
  875SOL     OW 2637   0.008   3.188   2.062
  875SOL    HW1 2638  -0.085   3.209   2.031
  875SOL    HW2 2639   0.018   3.089   2.075
  876SOL     OW 2640   0.088   3.663   2.789
  876SOL    HW1 2641   0.046   3.577   2.762
  876SOL    HW2 2642   0.182   3.666   2.755
  877SOL     OW 2643   0.504   3.430   2.772
  877SOL    HW1 2644   0.570   3.504   2.781
  877SOL    HW2 2645   0.548   3.351   2.730
  878SOL     OW 2646   1.002   2.658   3.100
  878SOL    HW1 2647   1.043   2.626   3.186
  878SOL    HW2 2648   0.906   2.631   3.097
  879SOL     OW 2649   0.040   2.406   2.976
  879SOL    HW1 2650   0.125   2.373   2.935
  879SOL    HW2 2651   0.053   2.421   3.074
  880SOL     OW 2652   0.189   2.382   3.584
  880SOL    HW1 2653   0.248   2.342   3.514
  880SOL    HW2 2654   0.131   2.453   3.543
  881SOL     OW 2655   1.369   2.812   3.522
  881SOL    HW1 2656   1.408   2.901   3.542
  881SOL    HW2 2657   1.379   2.792   3.425
  882SOL     OW 2658   0.815   2.434   2.187
  882SOL    HW1 2659   0.822   2.345   2.141
  882SOL    HW2 2660   0.721   2.468   2.179
  883SOL     OW 2661   1.657   2.466   3.068
  883SOL    HW1 2662   1.619   2.397   3.130
  883SOL    HW2 2663   1.739   2.430   3.024
  884SOL     OW 2664   0.252   3.426   3.606
  884SOL    HW1 2665   0.222   3.483   3.682
  884SOL    HW2 2666   0.245   3.329   3.632
  885SOL     OW 2667   0.671   2.326   3.131
  885SOL    HW1 2668   0.637   2.237   3.101
  885SOL    HW2 2669   0.697   2.380   3.051
  886SOL     OW 2670   0.930   3.540   3.327
  886SOL    HW1 2671   0.906   3.522   3.232
  886SOL    HW2 2672   0.960   3.634   3.337
  887SOL     OW 2673   0.473   2.362   2.053
  887SOL    HW1 2674   0.534   2.442   2.057
  887SOL    HW2 2675   0.378   2.393   2.060
  888SOL     OW 2676   0.159   2.999   3.328
  888SOL    HW1 2677   0.181   2.938   3.404
  888SOL    HW2 2678   0.169   2.950   3.242
  889SOL     OW 2679   1.347   2.921   3.096
  889SOL    HW1 2680   1.371   2.858   3.022
  889SOL    HW2 2681   1.257   2.961   3.078
  890SOL     OW 2682   1.302   2.717   2.171
  890SOL    HW1 2683   1.216   2.686   2.213
  890SOL    HW2 2684   1.298   2.703   2.072
  891SOL     OW 2685   1.759   3.609   3.016
  891SOL    HW1 2686   1.820   3.639   2.943
  891SOL    HW2 2687   1.721   3.520   2.994
  892SOL     OW 2688   1.252   3.593   2.990
  892SOL    HW1 2689   1.336   3.598   2.936
  892SOL    HW2 2690   1.229   3.497   3.008
  893SOL     OW 2691   0.083   3.120   2.884
  893SOL    HW1 2692   0.078   3.119   2.984
  893SOL    HW2 2693   0.000   3.079   2.846
  894SOL     OW 2694   0.688   3.524   3.578
  894SOL    HW1 2695   0.632   3.605   3.587
  894SOL    HW2 2696   0.740   3.528   3.492
  895SOL     OW 2697   1.726   1.997   2.385
  895SOL    HW1 2698   1.799   1.980   2.318
  895SOL    HW2 2699   1.695   1.910   2.423
  896SOL     OW 2700   1.388   3.435   2.339
  896SOL    HW1 2701   1.455   3.447   2.265
  896SOL    HW2 2702   1.348   3.524   2.362
  897SOL     OW 2703   0.130   3.656   3.713
  897SOL    HW1 2704   0.089   3.582   3.766
  897SOL    HW2 2705   0.194   3.707   3.771
  898SOL     OW 2706   1.280   2.789   2.534
  898SOL    HW1 2707   1.340   2.708   2.536
  898SOL    HW2 2708   1.320   2.858   2.474
  899SOL     OW 2709   0.830   3.135   3.284
  899SOL    HW1 2710   0.825   3.168   3.379
  899SOL    HW2 2711   0.744   3.154   3.238
  900SOL     OW 2712   0.672   3.478   2.016
  900SOL    HW1 2713   0.681   3.488   1.917
  900SOL    HW2 2714   0.632   3.389   2.037
  901SOL     OW 2715   1.650   3.582   3.256
  901SOL    HW1 2716   1.703   3.592   3.172
  901SOL    HW2 2717   1.623   3.672   3.290
  902SOL     OW 2718   1.841   2.037   2.825
  902SOL    HW1 2719   1.880   1.952   2.789
  902SOL    HW2 2720   1.743   2.039   2.806
  903SOL     OW 2721   0.263   2.188   2.582
  903SOL    HW1 2722   0.184   2.239   2.548
  903SOL    HW2 2723   0.254   2.173   2.680
  904SOL     OW 2724   1.194   3.474   1.893
  904SOL    HW1 2725   1.200   3.381   1.930
  904SOL    HW2 2726   1.135   3.474   1.813
  905SOL     OW 2727   0.822   2.864   3.234
  905SOL    HW1 2728   0.862   2.863   3.142
  905SOL    HW2 2729   0.832   2.956   3.274
  906SOL     OW 2730   0.916   2.772   2.153
  906SOL    HW1 2731   0.979   2.810   2.085
  906SOL    HW2 2732   0.956   2.689   2.192
  907SOL     OW 2733   1.504   3.469   1.906
  907SOL    HW1 2734   1.412   3.506   1.913
  907SOL    HW2 2735   1.542   3.489   1.816
  908SOL     OW 2736   0.372   3.150   3.352
  908SOL    HW1 2737   0.359   3.243   3.318
  908SOL    HW2 2738   0.288   3.098   3.339
  909SOL     OW 2739   1.614   3.154   3.151
  909SOL    HW1 2740   1.674   3.157   3.231
  909SOL    HW2 2741   1.539   3.218   3.164
  910SOL     OW 2742   1.039   2.960   2.558
  910SOL    HW1 2743   0.969   2.913   2.612
  910SOL    HW2 2744   1.098   2.892   2.515
  911SOL     OW 2745   1.014   2.098   2.833
  911SOL    HW1 2746   1.006   2.062   2.740
  911SOL    HW2 2747   1.012   2.022   2.898
  912SOL     OW 2748   0.590   3.349   2.353
  912SOL    HW1 2749   0.632   3.291   2.283
  912SOL    HW2 2750   0.546   3.428   2.309
  913SOL     OW 2751   1.709   2.247   3.243
  913SOL    HW1 2752   1.782   2.316   3.247
  913SOL    HW2 2753   1.737   2.172   3.184
  914SOL     OW 2754   0.255   3.210   2.152
  914SOL    HW1 2755   0.159   3.211   2.125
  914SOL    HW2 2756   0.267   3.263   2.236
  915SOL     OW 2757   0.105   2.875   3.588
  915SOL    HW1 2758   0.028   2.842   3.642
  915SOL    HW2 2759   0.190   2.845   3.630
  916SOL     OW 2760   0.672   2.065   3.351
  916SOL    HW1 2761   0.762   2.049   3.311
  916SOL    HW2 2762   0.680   2.070   3.450
  917SOL     OW 2763   0.075   2.207   1.895
  917SOL    HW1 2764  -0.017   2.179   1.866
  917SOL    HW2 2765   0.106   2.284   1.839
  918SOL     OW 2766   1.440   2.718   3.260
  918SOL    HW1 2767   1.383   2.770   3.197
  918SOL    HW2 2768   1.536   2.730   3.236
  919SOL     OW 2769   0.072   2.028   2.180
  919SOL    HW1 2770   0.055   2.111   2.126
  919SOL    HW2 2771   0.162   1.991   2.158
  920SOL     OW 2772   1.183   3.197   1.981
  920SOL    HW1 2773   1.084   3.186   1.983
  920SOL    HW2 2774   1.217   3.212   2.074
  921SOL     OW 2775   0.613   2.704   3.293
  921SOL    HW1 2776   0.669   2.785   3.276
  921SOL    HW2 2777   0.672   2.624   3.296
  922SOL     OW 2778   1.493   3.629   2.821
  922SOL    HW1 2779   1.526   3.693   2.752
  922SOL    HW2 2780   1.559   3.623   2.896
  923SOL     OW 2781   0.716   2.427   3.570
  923SOL    HW1 2782   0.735   2.492   3.644
  923SOL    HW2 2783   0.776   2.347   3.579
  924SOL     OW 2784   1.450   3.082   3.495
  924SOL    HW1 2785   1.441   3.072   3.594
  924SOL    HW2 2786   1.546   3.075   3.469
  925SOL     OW 2787   0.390   3.603   3.422
  925SOL    HW1 2788   0.299   3.644   3.420
  925SOL    HW2 2789   0.383   3.509   3.454
  926SOL     OW 2790   1.674   2.745   3.116
  926SOL    HW1 2791   1.647   2.656   3.079
  926SOL    HW2 2792   1.675   2.813   3.043
  927SOL     OW 2793   1.225   2.187   2.311
  927SOL    HW1 2794   1.290   2.113   2.300
  927SOL    HW2 2795   1.245   2.237   2.395
  928SOL     OW 2796   0.594   2.607   2.514
  928SOL    HW1 2797   0.644   2.692   2.495
  928SOL    HW2 2798   0.506   2.609   2.466
  929SOL     OW 2799   1.777   2.204   3.504
  929SOL    HW1 2800   1.760   2.235   3.410
  929SOL    HW2 2801   1.693   2.167   3.542
  930SOL     OW 2802   1.730   2.796   3.379
  930SOL    HW1 2803   1.768   2.887   3.394
  930SOL    HW2 2804   1.722   2.779   3.280
  931SOL     OW 2805   0.859   3.236   1.878
  931SOL    HW1 2806   0.813   3.251   1.966
  931SOL    HW2 2807   0.903   3.321   1.848
  932SOL     OW 2808   0.661   3.652   2.815
  932SOL    HW1 2809   0.615   3.740   2.802
  932SOL    HW2 2810   0.760   3.664   2.808
  933SOL     OW 2811   0.859   2.818   2.723
  933SOL    HW1 2812   0.913   2.749   2.771
  933SOL    HW2 2813   0.827   2.887   2.789
  934SOL     OW 2814   1.083   2.846   1.949
  934SOL    HW1 2815   1.060   2.899   1.867
  934SOL    HW2 2816   1.164   2.790   1.930
  935SOL     OW 2817   1.861   3.431   2.713
  935SOL    HW1 2818   1.790   3.419   2.643
  935SOL    HW2 2819   1.862   3.352   2.773
  936SOL     OW 2820   0.221   3.176   3.706
  936SOL    HW1 2821   0.156   3.103   3.685
  936SOL    HW2 2822   0.225   3.190   3.804
  937SOL     OW 2823   0.079   3.102   2.515
  937SOL    HW1 2824   0.078   3.055   2.603
  937SOL    HW2 2825   0.161   3.074   2.464
  938SOL     OW 2826   0.672   3.253   3.486
  938SOL    HW1 2827   0.594   3.203   3.524
  938SOL    HW2 2828   0.669   3.348   3.517
  939SOL     OW 2829   1.824   2.054   3.089
  939SOL    HW1 2830   1.820   1.964   3.133
  939SOL    HW2 2831   1.827   2.043   2.990
  940SOL     OW 2832   0.428   2.286   2.382
  940SOL    HW1 2833   0.458   2.214   2.320
  940SOL    HW2 2834   0.389   2.246   2.465
  941SOL     OW 2835   1.705   3.349   2.966
  941SOL    HW1 2836   1.612   3.324   2.939
  941SOL    HW2 2837   1.731   3.299   3.048
  942SOL     OW 2838   0.317   2.409   3.142
  942SOL    HW1 2839   0.355   2.350   3.214
  942SOL    HW2 2840   0.357   2.383   3.054
  943SOL     OW 2841   0.812   3.448   2.549
  943SOL    HW1 2842   0.844   3.458   2.455
  943SOL    HW2 2843   0.733   3.386   2.551
  944SOL     OW 2844   1.424   2.076   2.974
  944SOL    HW1 2845   1.476   2.011   3.029
  944SOL    HW2 2846   1.375   2.139   3.035
  945SOL     OW 2847   1.001   1.896   3.016
  945SOL    HW1 2848   0.938   1.824   2.985
  945SOL    HW2 2849   1.094   1.860   3.016
  946SOL     OW 2850   0.770   3.192   2.163
  946SOL    HW1 2851   0.724   3.105   2.180
  946SOL    HW2 2852   0.861   3.189   2.204
  947SOL     OW 2853   0.618   3.429   3.146
  947SOL    HW1 2854   0.613   3.511   3.203
  947SOL    HW2 2855   0.707   3.426   3.101
  948SOL     OW 2856   1.352   1.914   2.030
  948SOL    HW1 2857   1.387   1.873   1.946
  948SOL    HW2 2858   1.262   1.876   2.050
  949SOL     OW 2859   1.300   2.315   2.553
  949SOL    HW1 2860   1.241   2.395   2.557
  949SOL    HW2 2861   1.315   2.280   2.646
  950SOL     OW 2862   1.593   2.083   2.744
  950SOL    HW1 2863   1.509   2.082   2.798
  950SOL    HW2 2864   1.595   2.166   2.688
  951SOL     OW 2865   0.039   2.939   2.162
  951SOL    HW1 2866   0.138   2.928   2.153
  951SOL    HW2 2867  -0.001   2.853   2.194
  952SOL     OW 2868   0.875   3.508   2.199
  952SOL    HW1 2869   0.798   3.473   2.145
  952SOL    HW2 2870   0.843   3.579   2.261
  953SOL     OW 2871   0.230   2.490   3.837
  953SOL    HW1 2872   0.137   2.488   3.874
  953SOL    HW2 2873   0.231   2.451   3.745
  954SOL     OW 2874   0.019   2.230   4.371
  954SOL    HW1 2875  -0.063   2.273   4.410
  954SOL    HW2 2876  -0.009   2.157   4.308
  955SOL     OW 2877   1.555   3.373   4.427
  955SOL    HW1 2878   1.498   3.357   4.508
  955SOL    HW2 2879   1.496   3.383   4.347
  956SOL     OW 2880   1.135   2.565   4.441
  956SOL    HW1 2881   1.192   2.643   4.416
  956SOL    HW2 2882   1.075   2.591   4.517
  957SOL     OW 2883   1.755   2.469   3.955
  957SOL    HW1 2884   1.743   2.456   3.856
  957SOL    HW2 2885   1.725   2.388   4.004
  958SOL     OW 2886   0.768   3.006   4.747
  958SOL    HW1 2887   0.690   3.023   4.807
  958SOL    HW2 2888   0.802   3.093   4.711
  959SOL     OW 2889   0.685   2.874   4.389
  959SOL    HW1 2890   0.754   2.858   4.459
  959SOL    HW2 2891   0.612   2.931   4.427
  960SOL     OW 2892   1.603   2.309   4.461
  960SOL    HW1 2893   1.529   2.355   4.411
  960SOL    HW2 2894   1.654   2.377   4.514
  961SOL     OW 2895   0.231   3.575   4.207
  961SOL    HW1 2896   0.265   3.652   4.261
  961SOL    HW2 2897   0.275   3.575   4.117
  962SOL     OW 2898   0.230   3.296   4.262
  962SOL    HW1 2899   0.204   3.392   4.262
  962SOL    HW2 2900   0.159   3.242   4.307
  963SOL     OW 2901   0.240   2.953   4.610
  963SOL    HW1 2902   0.254   2.869   4.662
  963SOL    HW2 2903   0.185   3.017   4.665
  964SOL     OW 2904   0.606   2.826   3.847
  964SOL    HW1 2905   0.613   2.910   3.793
  964SOL    HW2 2906   0.652   2.839   3.935
  965SOL     OW 2907   0.122   2.505   4.287
  965SOL    HW1 2908   0.077   2.417   4.304
  965SOL    HW2 2909   0.121   2.559   4.371
  966SOL     OW 2910   1.842   3.629   4.083
  966SOL    HW1 2911   1.896   3.600   4.163
  966SOL    HW2 2912   1.872   3.719   4.054
  967SOL     OW 2913   0.027   3.458   3.841
  967SOL    HW1 2914   0.008   3.362   3.862
  967SOL    HW2 2915  -0.006   3.516   3.916
  968SOL     OW 2916   1.689   2.784   4.336
  968SOL    HW1 2917   1.784   2.755   4.344
  968SOL    HW2 2918   1.681   2.849   4.261
  969SOL     OW 2919   1.641   2.970   4.156
  969SOL    HW1 2920   1.727   2.972   4.104
  969SOL    HW2 2921   1.655   3.017   4.244
  970SOL     OW 2922   0.613   3.227   4.450
  970SOL    HW1 2923   0.564   3.140   4.459
  970SOL    HW2 2924   0.590   3.270   4.363
  971SOL     OW 2925   0.809   1.866   4.226
  971SOL    HW1 2926   0.849   1.957   4.217
  971SOL    HW2 2927   0.709   1.874   4.232
  972SOL     OW 2928   1.525   2.861   3.914
  972SOL    HW1 2929   1.462   2.785   3.927
  972SOL    HW2 2930   1.573   2.879   4.000
  973SOL     OW 2931   1.667   3.576   4.296
  973SOL    HW1 2932   1.626   3.553   4.208
  973SOL    HW2 2933   1.649   3.502   4.361
  974SOL     OW 2934   0.598   2.591   3.994
  974SOL    HW1 2935   0.622   2.660   3.926
  974SOL    HW2 2936   0.520   2.624   4.048
  975SOL     OW 2937   1.281   2.207   4.668
  975SOL    HW1 2938   1.195   2.157   4.655
  975SOL    HW2 2939   1.343   2.153   4.724
  976SOL     OW 2940   1.576   3.524   4.031
  976SOL    HW1 2941   1.665   3.570   4.034
  976SOL    HW2 2942   1.555   3.500   3.936
  977SOL     OW 2943   1.041   2.563   4.153
  977SOL    HW1 2944   1.067   2.559   4.249
  977SOL    HW2 2945   0.956   2.512   4.139
  978SOL     OW 2946   0.076   2.673   4.513
  978SOL    HW1 2947   0.175   2.661   4.522
  978SOL    HW2 2948   0.052   2.768   4.534
  979SOL     OW 2949   0.865   2.210   3.919
  979SOL    HW1 2950   0.924   2.273   3.870
  979SOL    HW2 2951   0.884   2.116   3.890
  980SOL     OW 2952   1.362   3.006   4.269
  980SOL    HW1 2953   1.445   2.977   4.221
  980SOL    HW2 2954   1.313   3.073   4.213
  981SOL     OW 2955   0.550   2.058   4.609
  981SOL    HW1 2956   0.545   2.053   4.709
  981SOL    HW2 2957   0.552   2.154   4.580
  982SOL     OW 2958   1.008   3.318   4.201
  982SOL    HW1 2959   0.962   3.390   4.149
  982SOL    HW2 2960   1.004   3.338   4.299
  983SOL     OW 2961   0.351   3.663   4.577
  983SOL    HW1 2962   0.401   3.577   4.583
  983SOL    HW2 2963   0.416   3.740   4.574
  984SOL     OW 2964   1.795   2.928   4.597
  984SOL    HW1 2965   1.733   2.913   4.521
  984SOL    HW2 2966   1.743   2.939   4.682
  985SOL     OW 2967   0.321   2.805   3.966
  985SOL    HW1 2968   0.403   2.844   3.924
  985SOL    HW2 2969   0.294   2.723   3.917
  986SOL     OW 2970   1.458   2.597   4.452
  986SOL    HW1 2971   1.453   2.532   4.527
  986SOL    HW2 2972   1.538   2.656   4.465
  987SOL     OW 2973   1.111   3.638   3.961
  987SOL    HW1 2974   1.051   3.576   4.011
  987SOL    HW2 2975   1.142   3.594   3.876
  988SOL     OW 2976   1.632   3.239   3.805
  988SOL    HW1 2977   1.600   3.333   3.795
  988SOL    HW2 2978   1.556   3.176   3.793
  989SOL     OW 2979   0.464   3.605   4.047
  989SOL    HW1 2980   0.497   3.644   4.133
  989SOL    HW2 2981   0.540   3.598   3.982
  990SOL     OW 2982   1.400   1.969   4.150
  990SOL    HW1 2983   1.376   1.932   4.060
  990SOL    HW2 2984   1.499   1.985   4.154
  991SOL     OW 2985   0.382   2.562   4.204
  991SOL    HW1 2986   0.427   2.472   4.201
  991SOL    HW2 2987   0.288   2.551   4.237
  992SOL     OW 2988   0.614   1.984   3.841
  992SOL    HW1 2989   0.712   1.962   3.848
  992SOL    HW2 2990   0.583   1.967   3.748
  993SOL     OW 2991   0.539   1.926   4.236
  993SOL    HW1 2992   0.458   1.927   4.294
  993SOL    HW2 2993   0.542   2.009   4.181
  994SOL     OW 2994   1.434   3.050   3.765
  994SOL    HW1 2995   1.466   2.974   3.822
  994SOL    HW2 2996   1.342   3.077   3.795
  995SOL     OW 2997   0.297   1.897   3.895
  995SOL    HW1 2998   0.346   1.981   3.874
  995SOL    HW2 2999   0.359   1.832   3.940
  996SOL     OW 3000   0.935   2.098   4.204
  996SOL    HW1 3001   0.887   2.139   4.126
  996SOL    HW2 3002   1.034   2.096   4.185
  997SOL     OW 3003   0.459   3.014   4.465
  997SOL    HW1 3004   0.388   2.987   4.530
  997SOL    HW2 3005   0.433   2.986   4.372
  998SOL     OW 3006   1.271   3.659   4.315
  998SOL    HW1 3007   1.315   3.723   4.251
  998SOL    HW2 3008   1.221   3.711   4.385
  999SOL     OW 3009   1.032   2.411   3.740
  999SOL    HW1 3010   0.991   2.493   3.701
  999SOL    HW2 3011   1.096   2.437   3.813
 1000SOL     OW 3012   0.866   2.316   4.366
 1000SOL    HW1 3013   0.834   2.388   4.304
 1000SOL    HW2 3014   0.890   2.235   4.313
 1001SOL     OW 3015   1.017   1.901   4.477
 1001SOL    HW1 3016   0.945   1.906   4.408
 1001SOL    HW2 3017   0.993   1.832   4.546
 1002SOL     OW 3018   1.857   2.695   4.101
 1002SOL    HW1 3019   1.899   2.631   4.165
 1002SOL    HW2 3020   1.819   2.644   4.023
 1003SOL     OW 3021   0.488   3.247   3.898
 1003SOL    HW1 3022   0.401   3.232   3.945
 1003SOL    HW2 3023   0.471   3.273   3.803
 1004SOL     OW 3024   1.664   3.142   4.381
 1004SOL    HW1 3025   1.763   3.150   4.395
 1004SOL    HW2 3026   1.619   3.226   4.412
 1005SOL     OW 3027   1.390   2.437   3.802
 1005SOL    HW1 3028   1.336   2.416   3.883
 1005SOL    HW2 3029   1.481   2.396   3.811
 1006SOL     OW 3030   0.527   2.118   4.052
 1006SOL    HW1 3031   0.554   2.059   3.977
 1006SOL    HW2 3032   0.527   2.213   4.021
 1007SOL     OW 3033   0.705   2.912   4.092
 1007SOL    HW1 3034   0.691   2.919   4.191
 1007SOL    HW2 3035   0.789   2.861   4.074
 1008SOL     OW 3036   0.367   2.962   4.225
 1008SOL    HW1 3037   0.360   3.045   4.169
 1008SOL    HW2 3038   0.371   2.882   4.165
 1009SOL     OW 3039   0.566   2.399   4.589
 1009SOL    HW1 3040   0.578   2.465   4.515
 1009SOL    HW2 3041   0.612   2.433   4.672
 1010SOL     OW 3042   1.252   3.210   4.112
 1010SOL    HW1 3043   1.302   3.287   4.152
 1010SOL    HW2 3044   1.157   3.212   4.144
 1011SOL     OW 3045   1.582   2.501   4.196
 1011SOL    HW1 3046   1.551   2.562   4.269
 1011SOL    HW2 3047   1.632   2.553   4.127
 1012SOL     OW 3048   1.209   2.387   3.999
 1012SOL    HW1 3049   1.222   2.303   4.053
 1012SOL    HW2 3050   1.180   2.461   4.059
 1013SOL     OW 3051   0.732   2.496   4.788
 1013SOL    HW1 3052   0.791   2.470   4.712
 1013SOL    HW2 3053   0.704   2.592   4.777
 1014SOL     OW 3054   0.307   1.925   4.342
 1014SOL    HW1 3055   0.296   2.019   4.375
 1014SOL    HW2 3056   0.302   1.862   4.419
 1015SOL     OW 3057   1.622   2.229   4.098
 1015SOL    HW1 3058   1.624   2.153   4.162
 1015SOL    HW2 3059   1.574   2.306   4.138
 1016SOL     OW 3060   1.540   2.136   3.849
 1016SOL    HW1 3061   1.479   2.061   3.872
 1016SOL    HW2 3062   1.562   2.188   3.932
 1017SOL     OW 3063   1.303   2.700   3.766
 1017SOL    HW1 3064   1.337   2.607   3.781
 1017SOL    HW2 3065   1.321   2.727   3.671
 1018SOL     OW 3066   1.068   3.195   4.573
 1018SOL    HW1 3067   1.075   3.111   4.518
 1018SOL    HW2 3068   1.130   3.264   4.537
 1019SOL     OW 3069   0.008   3.188   3.924
 1019SOL    HW1 3070  -0.085   3.209   3.893
 1019SOL    HW2 3071   0.018   3.089   3.937
 1020SOL     OW 3072   0.088   3.663   4.651
 1020SOL    HW1 3073   0.046   3.577   4.624
 1020SOL    HW2 3074   0.182   3.666   4.617
 1021SOL     OW 3075   0.504   3.430   4.634
 1021SOL    HW1 3076   0.570   3.504   4.643
 1021SOL    HW2 3077   0.548   3.351   4.592
 1022SOL     OW 3078   0.815   2.434   4.049
 1022SOL    HW1 3079   0.822   2.345   4.003
 1022SOL    HW2 3080   0.721   2.468   4.041
 1023SOL     OW 3081   0.473   2.362   3.915
 1023SOL    HW1 3082   0.534   2.442   3.919
 1023SOL    HW2 3083   0.378   2.393   3.922
 1024SOL     OW 3084   1.302   2.717   4.033
 1024SOL    HW1 3085   1.216   2.686   4.075
 1024SOL    HW2 3086   1.298   2.703   3.934
 1025SOL     OW 3087   1.726   1.997   4.247
 1025SOL    HW1 3088   1.799   1.980   4.180
 1025SOL    HW2 3089   1.695   1.910   4.285
 1026SOL     OW 3090   1.388   3.435   4.201
 1026SOL    HW1 3091   1.455   3.447   4.127
 1026SOL    HW2 3092   1.348   3.524   4.224
 1027SOL     OW 3093   1.280   2.789   4.396
 1027SOL    HW1 3094   1.340   2.708   4.398
 1027SOL    HW2 3095   1.320   2.858   4.336
 1028SOL     OW 3096   0.672   3.478   3.878
 1028SOL    HW1 3097   0.681   3.488   3.779
 1028SOL    HW2 3098   0.632   3.389   3.899
 1029SOL     OW 3099   1.841   2.037   4.687
 1029SOL    HW1 3100   1.880   1.952   4.651
 1029SOL    HW2 3101   1.743   2.039   4.668
 1030SOL     OW 3102   0.263   2.188   4.444
 1030SOL    HW1 3103   0.184   2.239   4.410
 1030SOL    HW2 3104   0.254   2.173   4.542
 1031SOL     OW 3105   1.194   3.474   3.755
 1031SOL    HW1 3106   1.200   3.381   3.792
 1031SOL    HW2 3107   1.135   3.474   3.675
 1032SOL     OW 3108   0.916   2.772   4.015
 1032SOL    HW1 3109   0.979   2.810   3.947
 1032SOL    HW2 3110   0.956   2.689   4.054
 1033SOL     OW 3111   1.504   3.469   3.768
 1033SOL    HW1 3112   1.412   3.506   3.775
 1033SOL    HW2 3113   1.542   3.489   3.678
 1034SOL     OW 3114   1.039   2.960   4.420
 1034SOL    HW1 3115   0.969   2.913   4.474
 1034SOL    HW2 3116   1.098   2.892   4.377
 1035SOL     OW 3117   0.590   3.349   4.215
 1035SOL    HW1 3118   0.632   3.291   4.145
 1035SOL    HW2 3119   0.546   3.428   4.171
 1036SOL     OW 3120   0.255   3.210   4.014
 1036SOL    HW1 3121   0.159   3.211   3.987
 1036SOL    HW2 3122   0.267   3.263   4.098
 1037SOL     OW 3123   0.075   2.207   3.757
 1037SOL    HW1 3124  -0.017   2.179   3.728
 1037SOL    HW2 3125   0.106   2.284   3.701
 1038SOL     OW 3126   0.072   2.028   4.042
 1038SOL    HW1 3127   0.055   2.111   3.988
 1038SOL    HW2 3128   0.162   1.991   4.020
 1039SOL     OW 3129   1.183   3.197   3.843
 1039SOL    HW1 3130   1.084   3.186   3.845
 1039SOL    HW2 3131   1.217   3.212   3.936
 1040SOL     OW 3132   1.225   2.187   4.173
 1040SOL    HW1 3133   1.290   2.113   4.162
 1040SOL    HW2 3134   1.245   2.237   4.257
 1041SOL     OW 3135   0.594   2.607   4.376
 1041SOL    HW1 3136   0.644   2.692   4.357
 1041SOL    HW2 3137   0.506   2.609   4.328
 1042SOL     OW 3138   0.859   3.236   3.740
 1042SOL    HW1 3139   0.813   3.251   3.828
 1042SOL    HW2 3140   0.903   3.321   3.710
 1043SOL     OW 3141   0.661   3.652   4.677
 1043SOL    HW1 3142   0.615   3.740   4.664
 1043SOL    HW2 3143   0.760   3.664   4.670
 1044SOL     OW 3144   0.859   2.818   4.585
 1044SOL    HW1 3145   0.913   2.749   4.633
 1044SOL    HW2 3146   0.827   2.887   4.651
 1045SOL     OW 3147   1.083   2.846   3.811
 1045SOL    HW1 3148   1.060   2.899   3.729
 1045SOL    HW2 3149   1.164   2.790   3.792
 1046SOL     OW 3150   1.861   3.431   4.575
 1046SOL    HW1 3151   1.790   3.419   4.505
 1046SOL    HW2 3152   1.862   3.352   4.635
 1047SOL     OW 3153   0.079   3.102   4.377
 1047SOL    HW1 3154   0.078   3.055   4.465
 1047SOL    HW2 3155   0.161   3.074   4.326
 1048SOL     OW 3156   0.428   2.286   4.244
 1048SOL    HW1 3157   0.458   2.214   4.182
 1048SOL    HW2 3158   0.389   2.246   4.327
 1049SOL     OW 3159   0.812   3.448   4.411
 1049SOL    HW1 3160   0.844   3.458   4.317
 1049SOL    HW2 3161   0.733   3.386   4.413
 1050SOL     OW 3162   0.770   3.192   4.025
 1050SOL    HW1 3163   0.724   3.105   4.042
 1050SOL    HW2 3164   0.861   3.189   4.066
 1051SOL     OW 3165   1.352   1.914   3.892
 1051SOL    HW1 3166   1.387   1.873   3.808
 1051SOL    HW2 3167   1.262   1.876   3.912
 1052SOL     OW 3168   1.300   2.315   4.415
 1052SOL    HW1 3169   1.241   2.395   4.419
 1052SOL    HW2 3170   1.315   2.280   4.508
 1053SOL     OW 3171   0.039   2.939   4.024
 1053SOL    HW1 3172   0.138   2.928   4.015
 1053SOL    HW2 3173  -0.001   2.853   4.056
 1054SOL     OW 3174   0.875   3.508   4.061
 1054SOL    HW1 3175   0.798   3.473   4.007
 1054SOL    HW2 3176   0.843   3.579   4.123
 1055SOL     OW 3177   0.230   4.352   0.113
 1055SOL    HW1 3178   0.137   4.350   0.150
 1055SOL    HW2 3179   0.231   4.313   0.021
 1056SOL     OW 3180   0.225   3.999   0.996
 1056SOL    HW1 3181   0.260   3.982   1.088
 1056SOL    HW2 3182   0.137   3.954   0.984
 1057SOL     OW 3183   0.019   4.092   0.647
 1057SOL    HW1 3184  -0.063   4.135   0.686
 1057SOL    HW2 3185  -0.009   4.019   0.584
 1058SOL     OW 3186   1.135   4.427   0.717
 1058SOL    HW1 3187   1.192   4.505   0.692
 1058SOL    HW2 3188   1.075   4.453   0.793
 1059SOL     OW 3189   1.755   4.331   0.231
 1059SOL    HW1 3190   1.743   4.318   0.132
 1059SOL    HW2 3191   1.725   4.250   0.280
 1060SOL     OW 3192   0.850   4.522   1.823
 1060SOL    HW1 3193   0.846   4.598   1.888
 1060SOL    HW2 3194   0.872   4.558   1.732
 1061SOL     OW 3195   0.685   4.736   0.665
 1061SOL    HW1 3196   0.754   4.720   0.735
 1061SOL    HW2 3197   0.612   4.793   0.703
 1062SOL     OW 3198   0.438   4.116   1.499
 1062SOL    HW1 3199   0.520   4.060   1.508
 1062SOL    HW2 3200   0.357   4.058   1.503
 1063SOL     OW 3201   1.603   4.171   0.737
 1063SOL    HW1 3202   1.529   4.217   0.687
 1063SOL    HW2 3203   1.654   4.239   0.790
 1064SOL     OW 3204   1.594   3.838   1.480
 1064SOL    HW1 3205   1.576   3.905   1.408
 1064SOL    HW2 3206   1.591   3.884   1.569
 1065SOL     OW 3207   0.122   4.367   0.563
 1065SOL    HW1 3208   0.077   4.279   0.580
 1065SOL    HW2 3209   0.121   4.421   0.647
 1066SOL     OW 3210   0.113   4.461   1.597
 1066SOL    HW1 3211   0.201   4.448   1.642
 1066SOL    HW2 3212   0.100   4.558   1.575
 1067SOL     OW 3213   0.809   3.728   0.502
 1067SOL    HW1 3214   0.849   3.819   0.493
 1067SOL    HW2 3215   0.709   3.736   0.508
 1068SOL     OW 3216   0.317   3.975   1.801
 1068SOL    HW1 3217   0.388   4.046   1.807
 1068SOL    HW2 3218   0.229   4.014   1.829
 1069SOL     OW 3219   0.598   4.453   0.270
 1069SOL    HW1 3220   0.622   4.522   0.202
 1069SOL    HW2 3221   0.520   4.486   0.324
 1070SOL     OW 3222   1.281   4.069   0.944
 1070SOL    HW1 3223   1.195   4.019   0.931
 1070SOL    HW2 3224   1.343   4.015   1.000
 1071SOL     OW 3225   0.807   4.329   1.465
 1071SOL    HW1 3226   0.760   4.326   1.554
 1071SOL    HW2 3227   0.756   4.274   1.399
 1072SOL     OW 3228   1.394   4.193   1.674
 1072SOL    HW1 3229   1.374   4.236   1.762
 1072SOL    HW2 3230   1.472   4.131   1.683
 1073SOL     OW 3231   0.991   4.134   1.242
 1073SOL    HW1 3232   0.914   4.168   1.296
 1073SOL    HW2 3233   0.957   4.083   1.163
 1074SOL     OW 3234   1.041   4.425   0.429
 1074SOL    HW1 3235   1.067   4.421   0.525
 1074SOL    HW2 3236   0.956   4.374   0.415
 1075SOL     OW 3237   0.076   4.535   0.789
 1075SOL    HW1 3238   0.175   4.523   0.798
 1075SOL    HW2 3239   0.052   4.630   0.810
 1076SOL     OW 3240   0.865   4.072   0.195
 1076SOL    HW1 3241   0.924   4.135   0.146
 1076SOL    HW2 3242   0.884   3.978   0.166
 1077SOL     OW 3243   1.719   4.309   1.831
 1077SOL    HW1 3244   1.693   4.398   1.795
 1077SOL    HW2 3245   1.717   4.241   1.758
 1078SOL     OW 3246   0.550   3.920   0.885
 1078SOL    HW1 3247   0.545   3.915   0.985
 1078SOL    HW2 3248   0.552   4.016   0.856
 1079SOL     OW 3249   1.458   4.459   0.728
 1079SOL    HW1 3250   1.453   4.394   0.803
 1079SOL    HW2 3251   1.538   4.518   0.741
 1080SOL     OW 3252   0.202   4.009   1.498
 1080SOL    HW1 3253   0.122   4.069   1.485
 1080SOL    HW2 3254   0.192   3.960   1.584
 1081SOL     OW 3255   1.400   3.831   0.426
 1081SOL    HW1 3256   1.376   3.794   0.336
 1081SOL    HW2 3257   1.499   3.847   0.430
 1082SOL     OW 3258   0.382   4.424   0.480
 1082SOL    HW1 3259   0.427   4.334   0.477
 1082SOL    HW2 3260   0.288   4.413   0.513
 1083SOL     OW 3261   1.547   3.946   1.729
 1083SOL    HW1 3262   1.542   3.983   1.821
 1083SOL    HW2 3263   1.475   3.877   1.717
 1084SOL     OW 3264   0.781   3.988   1.749
 1084SOL    HW1 3265   0.848   3.927   1.792
 1084SOL    HW2 3266   0.708   4.007   1.814
 1085SOL     OW 3267   1.351   4.314   1.433
 1085SOL    HW1 3268   1.379   4.271   1.518
 1085SOL    HW2 3269   1.376   4.410   1.434
 1086SOL     OW 3270   0.922   4.227   0.899
 1086SOL    HW1 3271   0.897   4.218   0.803
 1086SOL    HW2 3272   0.970   4.145   0.930
 1087SOL     OW 3273   0.539   3.788   0.512
 1087SOL    HW1 3274   0.458   3.789   0.570
 1087SOL    HW2 3275   0.542   3.871   0.457
 1088SOL     OW 3276   0.297   3.759   0.171
 1088SOL    HW1 3277   0.346   3.843   0.150
 1088SOL    HW2 3278   0.359   3.694   0.216
 1089SOL     OW 3279   0.935   3.960   0.480
 1089SOL    HW1 3280   0.887   4.001   0.402
 1089SOL    HW2 3281   1.034   3.958   0.461
 1090SOL     OW 3282   1.076   4.407   1.464
 1090SOL    HW1 3283   0.996   4.346   1.467
 1090SOL    HW2 3284   1.157   4.354   1.440
 1091SOL     OW 3285   1.032   4.273   0.016
 1091SOL    HW1 3286   0.991   4.355  -0.023
 1091SOL    HW2 3287   1.096   4.299   0.089
 1092SOL     OW 3288   0.078   4.280   1.386
 1092SOL    HW1 3289   0.170   4.279   1.345
 1092SOL    HW2 3290   0.072   4.354   1.453
 1093SOL     OW 3291   0.561   3.946   1.147
 1093SOL    HW1 3292   0.599   3.862   1.184
 1093SOL    HW2 3293   0.473   3.965   1.191
 1094SOL     OW 3294   0.866   4.178   0.642
 1094SOL    HW1 3295   0.834   4.250   0.580
 1094SOL    HW2 3296   0.890   4.097   0.589
 1095SOL     OW 3297   1.017   3.763   0.753
 1095SOL    HW1 3298   0.945   3.768   0.684
 1095SOL    HW2 3299   0.993   3.694   0.822
 1096SOL     OW 3300   1.466   4.314   0.992
 1096SOL    HW1 3301   1.436   4.219   0.999
 1096SOL    HW2 3302   1.539   4.330   1.058
 1097SOL     OW 3303   1.857   4.557   0.377
 1097SOL    HW1 3304   1.899   4.493   0.441
 1097SOL    HW2 3305   1.819   4.506   0.299
 1098SOL     OW 3306   1.390   4.299   0.078
 1098SOL    HW1 3307   1.336   4.278   0.159
 1098SOL    HW2 3308   1.481   4.258   0.087
 1099SOL     OW 3309   0.527   3.980   0.328
 1099SOL    HW1 3310   0.554   3.921   0.253
 1099SOL    HW2 3311   0.527   4.075   0.297
 1100SOL     OW 3312   0.915   3.813   1.402
 1100SOL    HW1 3313   0.940   3.793   1.307
 1100SOL    HW2 3314   0.987   3.869   1.444
 1101SOL     OW 3315   0.410   4.537   1.251
 1101SOL    HW1 3316   0.496   4.549   1.301
 1101SOL    HW2 3317   0.368   4.450   1.278
 1102SOL     OW 3318   1.274   4.110   1.262
 1102SOL    HW1 3319   1.295   4.184   1.326
 1102SOL    HW2 3320   1.185   4.127   1.219
 1103SOL     OW 3321   0.566   4.261   0.865
 1103SOL    HW1 3322   0.578   4.327   0.791
 1103SOL    HW2 3323   0.612   4.295   0.948
 1104SOL     OW 3324   1.582   4.363   0.472
 1104SOL    HW1 3325   1.551   4.424   0.545
 1104SOL    HW2 3326   1.632   4.415   0.403
 1105SOL     OW 3327   0.402   4.475   1.598
 1105SOL    HW1 3328   0.470   4.530   1.551
 1105SOL    HW2 3329   0.442   4.387   1.625
 1106SOL     OW 3330   1.587   4.503   1.670
 1106SOL    HW1 3331   1.495   4.541   1.665
 1106SOL    HW2 3332   1.647   4.550   1.605
 1107SOL     OW 3333   1.013   3.829   1.770
 1107SOL    HW1 3334   1.019   3.914   1.718
 1107SOL    HW2 3335   1.045   3.753   1.713
 1108SOL     OW 3336   0.504   3.774   1.740
 1108SOL    HW1 3337   0.462   3.717   1.670
 1108SOL    HW2 3338   0.438   3.843   1.772
 1109SOL     OW 3339   0.573   4.594   1.029
 1109SOL    HW1 3340   0.617   4.683   1.020
 1109SOL    HW2 3341   0.510   4.594   1.106
 1110SOL     OW 3342   1.360   4.586   1.045
 1110SOL    HW1 3343   1.285   4.586   0.979
 1110SOL    HW2 3344   1.397   4.494   1.054
 1111SOL     OW 3345   1.209   4.249   0.275
 1111SOL    HW1 3346   1.222   4.165   0.329
 1111SOL    HW2 3347   1.180   4.323   0.335
 1112SOL     OW 3348   0.307   3.937   1.231
 1112SOL    HW1 3349   0.284   3.974   1.321
 1112SOL    HW2 3350   0.277   3.842   1.225
 1113SOL     OW 3351   0.732   4.358   1.064
 1113SOL    HW1 3352   0.791   4.332   0.988
 1113SOL    HW2 3353   0.704   4.454   1.053
 1114SOL     OW 3354   1.728   4.659   1.854
 1114SOL    HW1 3355   1.682   4.652   1.765
 1114SOL    HW2 3356   1.666   4.703   1.920
 1115SOL     OW 3357   0.307   3.787   0.618
 1115SOL    HW1 3358   0.296   3.881   0.651
 1115SOL    HW2 3359   0.302   3.724   0.695
 1116SOL     OW 3360   1.622   4.091   0.374
 1116SOL    HW1 3361   1.624   4.015   0.438
 1116SOL    HW2 3362   1.574   4.168   0.414
 1117SOL     OW 3363   1.023   4.490   0.966
 1117SOL    HW1 3364   1.038   4.511   1.062
 1117SOL    HW2 3365   0.993   4.395   0.957
 1118SOL     OW 3366   1.540   3.998   0.125
 1118SOL    HW1 3367   1.479   3.923   0.148
 1118SOL    HW2 3368   1.562   4.050   0.208
 1119SOL     OW 3369   1.303   4.562   0.042
 1119SOL    HW1 3370   1.337   4.469   0.057
 1119SOL    HW2 3371   1.321   4.589  -0.053
 1120SOL     OW 3372   0.319   4.534   0.949
 1120SOL    HW1 3373   0.412   4.570   0.954
 1120SOL    HW2 3374   0.313   4.449   1.001
 1121SOL     OW 3375   0.339   4.233   1.006
 1121SOL    HW1 3376   0.287   4.150   0.989
 1121SOL    HW2 3377   0.416   4.238   0.942
 1122SOL     OW 3378   1.138   4.104   1.678
 1122SOL    HW1 3379   1.093   4.167   1.742
 1122SOL    HW2 3380   1.231   4.135   1.661
 1123SOL     OW 3381   1.160   3.931   1.477
 1123SOL    HW1 3382   1.160   3.995   1.554
 1123SOL    HW2 3383   1.188   3.979   1.394
 1124SOL     OW 3384   1.002   4.520   1.238
 1124SOL    HW1 3385   1.043   4.488   1.324
 1124SOL    HW2 3386   0.906   4.493   1.235
 1125SOL     OW 3387   0.040   4.268   1.114
 1125SOL    HW1 3388   0.125   4.235   1.073
 1125SOL    HW2 3389   0.053   4.283   1.212
 1126SOL     OW 3390   0.189   4.244   1.722
 1126SOL    HW1 3391   0.248   4.204   1.652
 1126SOL    HW2 3392   0.131   4.315   1.681
 1127SOL     OW 3393   0.815   4.296   0.325
 1127SOL    HW1 3394   0.822   4.207   0.279
 1127SOL    HW2 3395   0.721   4.330   0.317
 1128SOL     OW 3396   1.657   4.328   1.206
 1128SOL    HW1 3397   1.619   4.259   1.268
 1128SOL    HW2 3398   1.739   4.292   1.162
 1129SOL     OW 3399   0.671   4.188   1.269
 1129SOL    HW1 3400   0.637   4.099   1.239
 1129SOL    HW2 3401   0.697   4.242   1.189
 1130SOL     OW 3402   0.473   4.224   0.191
 1130SOL    HW1 3403   0.534   4.304   0.195
 1130SOL    HW2 3404   0.378   4.255   0.198
 1131SOL     OW 3405   0.903   3.810   0.133
 1131SOL    HW1 3406   0.954   3.811   0.047
 1131SOL    HW2 3407   0.959   3.768   0.204
 1132SOL     OW 3408   1.726   3.859   0.523
 1132SOL    HW1 3409   1.799   3.842   0.456
 1132SOL    HW2 3410   1.695   3.772   0.561
 1133SOL     OW 3411   1.280   4.651   0.672
 1133SOL    HW1 3412   1.340   4.570   0.674
 1133SOL    HW2 3413   1.320   4.720   0.612
 1134SOL     OW 3414   1.841   3.899   0.963
 1134SOL    HW1 3415   1.880   3.814   0.927
 1134SOL    HW2 3416   1.743   3.901   0.944
 1135SOL     OW 3417   0.263   4.050   0.720
 1135SOL    HW1 3418   0.184   4.101   0.686
 1135SOL    HW2 3419   0.254   4.035   0.818
 1136SOL     OW 3420   1.014   3.960   0.971
 1136SOL    HW1 3421   1.006   3.924   0.878
 1136SOL    HW2 3422   1.012   3.884   1.036
 1137SOL     OW 3423   1.709   4.109   1.381
 1137SOL    HW1 3424   1.782   4.178   1.385
 1137SOL    HW2 3425   1.737   4.034   1.322
 1138SOL     OW 3426   0.105   4.737   1.726
 1138SOL    HW1 3427   0.028   4.704   1.780
 1138SOL    HW2 3428   0.190   4.707   1.768
 1139SOL     OW 3429   0.672   3.927   1.489
 1139SOL    HW1 3430   0.762   3.911   1.449
 1139SOL    HW2 3431   0.680   3.932   1.588
 1140SOL     OW 3432   0.075   4.069   0.033
 1140SOL    HW1 3433  -0.017   4.041   0.004
 1140SOL    HW2 3434   0.106   4.146  -0.023
 1141SOL     OW 3435   1.440   4.580   1.398
 1141SOL    HW1 3436   1.383   4.632   1.335
 1141SOL    HW2 3437   1.536   4.592   1.374
 1142SOL     OW 3438   0.072   3.890   0.318
 1142SOL    HW1 3439   0.055   3.973   0.264
 1142SOL    HW2 3440   0.162   3.853   0.296
 1143SOL     OW 3441   0.613   4.566   1.431
 1143SOL    HW1 3442   0.669   4.647   1.414
 1143SOL    HW2 3443   0.672   4.486   1.434
 1144SOL     OW 3444   0.716   4.289   1.708
 1144SOL    HW1 3445   0.735   4.354   1.782
 1144SOL    HW2 3446   0.776   4.209   1.717
 1145SOL     OW 3447   1.674   4.607   1.254
 1145SOL    HW1 3448   1.647   4.518   1.217
 1145SOL    HW2 3449   1.675   4.675   1.181
 1146SOL     OW 3450   1.225   4.049   0.449
 1146SOL    HW1 3451   1.290   3.975   0.438
 1146SOL    HW2 3452   1.245   4.099   0.533
 1147SOL     OW 3453   0.594   4.469   0.652
 1147SOL    HW1 3454   0.644   4.554   0.633
 1147SOL    HW2 3455   0.506   4.471   0.604
 1148SOL     OW 3456   1.777   4.066   1.642
 1148SOL    HW1 3457   1.760   4.097   1.548
 1148SOL    HW2 3458   1.693   4.029   1.680
 1149SOL     OW 3459   1.730   4.658   1.517
 1149SOL    HW1 3460   1.768   4.749   1.532
 1149SOL    HW2 3461   1.722   4.641   1.418
 1150SOL     OW 3462   1.824   3.916   1.227
 1150SOL    HW1 3463   1.820   3.826   1.271
 1150SOL    HW2 3464   1.827   3.905   1.128
 1151SOL     OW 3465   0.428   4.148   0.520
 1151SOL    HW1 3466   0.458   4.076   0.458
 1151SOL    HW2 3467   0.389   4.108   0.603
 1152SOL     OW 3468   0.317   4.271   1.280
 1152SOL    HW1 3469   0.355   4.212   1.352
 1152SOL    HW2 3470   0.357   4.245   1.192
 1153SOL     OW 3471   1.424   3.938   1.112
 1153SOL    HW1 3472   1.476   3.873   1.167
 1153SOL    HW2 3473   1.375   4.001   1.173
 1154SOL     OW 3474   1.001   3.758   1.154
 1154SOL    HW1 3475   0.938   3.686   1.123
 1154SOL    HW2 3476   1.094   3.722   1.154
 1155SOL     OW 3477   1.352   3.776   0.168
 1155SOL    HW1 3478   1.387   3.735   0.084
 1155SOL    HW2 3479   1.262   3.738   0.188
 1156SOL     OW 3480   1.300   4.177   0.691
 1156SOL    HW1 3481   1.241   4.257   0.695
 1156SOL    HW2 3482   1.315   4.142   0.784
 1157SOL     OW 3483   1.593   3.945   0.882
 1157SOL    HW1 3484   1.509   3.944   0.936
 1157SOL    HW2 3485   1.595   4.028   0.826
 1158SOL     OW 3486   0.230   4.352   1.975
 1158SOL    HW1 3487   0.137   4.350   2.012
 1158SOL    HW2 3488   0.231   4.313   1.883
 1159SOL     OW 3489   0.225   3.999   2.858
 1159SOL    HW1 3490   0.260   3.982   2.950
 1159SOL    HW2 3491   0.137   3.954   2.846
 1160SOL     OW 3492   0.019   4.092   2.509
 1160SOL    HW1 3493  -0.063   4.135   2.548
 1160SOL    HW2 3494  -0.009   4.019   2.446
 1161SOL     OW 3495   1.135   4.427   2.579
 1161SOL    HW1 3496   1.192   4.505   2.554
 1161SOL    HW2 3497   1.075   4.453   2.655
 1162SOL     OW 3498   1.755   4.331   2.093
 1162SOL    HW1 3499   1.743   4.318   1.994
 1162SOL    HW2 3500   1.725   4.250   2.142
 1163SOL     OW 3501   0.850   4.522   3.685
 1163SOL    HW1 3502   0.846   4.598   3.750
 1163SOL    HW2 3503   0.872   4.558   3.594
 1164SOL     OW 3504   0.685   4.736   2.527
 1164SOL    HW1 3505   0.754   4.720   2.597
 1164SOL    HW2 3506   0.612   4.793   2.565
 1165SOL     OW 3507   0.438   4.116   3.361
 1165SOL    HW1 3508   0.520   4.060   3.370
 1165SOL    HW2 3509   0.357   4.058   3.365
 1166SOL     OW 3510   1.603   4.171   2.599
 1166SOL    HW1 3511   1.529   4.217   2.549
 1166SOL    HW2 3512   1.654   4.239   2.652
 1167SOL     OW 3513   1.594   3.838   3.342
 1167SOL    HW1 3514   1.576   3.905   3.270
 1167SOL    HW2 3515   1.591   3.884   3.431
 1168SOL     OW 3516   0.122   4.367   2.425
 1168SOL    HW1 3517   0.077   4.279   2.442
 1168SOL    HW2 3518   0.121   4.421   2.509
 1169SOL     OW 3519   0.113   4.461   3.459
 1169SOL    HW1 3520   0.201   4.448   3.504
 1169SOL    HW2 3521   0.100   4.558   3.437
 1170SOL     OW 3522   0.809   3.728   2.364
 1170SOL    HW1 3523   0.849   3.819   2.355
 1170SOL    HW2 3524   0.709   3.736   2.370
 1171SOL     OW 3525   0.317   3.975   3.663
 1171SOL    HW1 3526   0.388   4.046   3.669
 1171SOL    HW2 3527   0.229   4.014   3.691
 1172SOL     OW 3528   0.598   4.453   2.132
 1172SOL    HW1 3529   0.622   4.522   2.064
 1172SOL    HW2 3530   0.520   4.486   2.186
 1173SOL     OW 3531   1.281   4.069   2.806
 1173SOL    HW1 3532   1.195   4.019   2.793
 1173SOL    HW2 3533   1.343   4.015   2.862
 1174SOL     OW 3534   0.807   4.329   3.327
 1174SOL    HW1 3535   0.760   4.326   3.416
 1174SOL    HW2 3536   0.756   4.274   3.261
 1175SOL     OW 3537   1.394   4.193   3.536
 1175SOL    HW1 3538   1.374   4.236   3.624
 1175SOL    HW2 3539   1.472   4.131   3.545
 1176SOL     OW 3540   0.991   4.134   3.104
 1176SOL    HW1 3541   0.914   4.168   3.158
 1176SOL    HW2 3542   0.957   4.083   3.025
 1177SOL     OW 3543   1.041   4.425   2.291
 1177SOL    HW1 3544   1.067   4.421   2.387
 1177SOL    HW2 3545   0.956   4.374   2.277
 1178SOL     OW 3546   0.076   4.535   2.651
 1178SOL    HW1 3547   0.175   4.523   2.660
 1178SOL    HW2 3548   0.052   4.630   2.672
 1179SOL     OW 3549   0.865   4.072   2.057
 1179SOL    HW1 3550   0.924   4.135   2.008
 1179SOL    HW2 3551   0.884   3.978   2.028
 1180SOL     OW 3552   1.719   4.309   3.693
 1180SOL    HW1 3553   1.693   4.398   3.657
 1180SOL    HW2 3554   1.717   4.241   3.620
 1181SOL     OW 3555   0.550   3.920   2.747
 1181SOL    HW1 3556   0.545   3.915   2.847
 1181SOL    HW2 3557   0.552   4.016   2.718
 1182SOL     OW 3558   1.458   4.459   2.590
 1182SOL    HW1 3559   1.453   4.394   2.665
 1182SOL    HW2 3560   1.538   4.518   2.603
 1183SOL     OW 3561   0.202   4.009   3.360
 1183SOL    HW1 3562   0.122   4.069   3.347
 1183SOL    HW2 3563   0.192   3.960   3.446
 1184SOL     OW 3564   1.400   3.831   2.288
 1184SOL    HW1 3565   1.376   3.794   2.198
 1184SOL    HW2 3566   1.499   3.847   2.292
 1185SOL     OW 3567   0.382   4.424   2.342
 1185SOL    HW1 3568   0.427   4.334   2.339
 1185SOL    HW2 3569   0.288   4.413   2.375
 1186SOL     OW 3570   1.547   3.946   3.591
 1186SOL    HW1 3571   1.542   3.983   3.683
 1186SOL    HW2 3572   1.475   3.877   3.579
 1187SOL     OW 3573   0.614   3.846   1.979
 1187SOL    HW1 3574   0.712   3.824   1.986
 1187SOL    HW2 3575   0.583   3.829   1.886
 1188SOL     OW 3576   0.781   3.988   3.611
 1188SOL    HW1 3577   0.848   3.927   3.654
 1188SOL    HW2 3578   0.708   4.007   3.676
 1189SOL     OW 3579   1.351   4.314   3.295
 1189SOL    HW1 3580   1.379   4.271   3.380
 1189SOL    HW2 3581   1.376   4.410   3.296
 1190SOL     OW 3582   0.922   4.227   2.761
 1190SOL    HW1 3583   0.897   4.218   2.665
 1190SOL    HW2 3584   0.970   4.145   2.792
 1191SOL     OW 3585   0.539   3.788   2.374
 1191SOL    HW1 3586   0.458   3.789   2.432
 1191SOL    HW2 3587   0.542   3.871   2.319
 1192SOL     OW 3588   0.297   3.759   2.033
 1192SOL    HW1 3589   0.346   3.843   2.012
 1192SOL    HW2 3590   0.359   3.694   2.078
 1193SOL     OW 3591   0.935   3.960   2.342
 1193SOL    HW1 3592   0.887   4.001   2.264
 1193SOL    HW2 3593   1.034   3.958   2.323
 1194SOL     OW 3594   1.076   4.407   3.326
 1194SOL    HW1 3595   0.996   4.346   3.329
 1194SOL    HW2 3596   1.157   4.354   3.302
 1195SOL     OW 3597   1.032   4.273   1.878
 1195SOL    HW1 3598   0.991   4.355   1.839
 1195SOL    HW2 3599   1.096   4.299   1.951
 1196SOL     OW 3600   0.078   4.280   3.248
 1196SOL    HW1 3601   0.170   4.279   3.207
 1196SOL    HW2 3602   0.072   4.354   3.315
 1197SOL     OW 3603   0.561   3.946   3.009
 1197SOL    HW1 3604   0.599   3.862   3.046
 1197SOL    HW2 3605   0.473   3.965   3.053
 1198SOL     OW 3606   0.866   4.178   2.504
 1198SOL    HW1 3607   0.834   4.250   2.442
 1198SOL    HW2 3608   0.890   4.097   2.451
 1199SOL     OW 3609   1.017   3.763   2.615
 1199SOL    HW1 3610   0.945   3.768   2.546
 1199SOL    HW2 3611   0.993   3.694   2.684
 1200SOL     OW 3612   1.466   4.314   2.854
 1200SOL    HW1 3613   1.436   4.219   2.861
 1200SOL    HW2 3614   1.539   4.330   2.920
 1201SOL     OW 3615   1.857   4.557   2.239
 1201SOL    HW1 3616   1.899   4.493   2.303
 1201SOL    HW2 3617   1.819   4.506   2.161
 1202SOL     OW 3618   1.390   4.299   1.940
 1202SOL    HW1 3619   1.336   4.278   2.021
 1202SOL    HW2 3620   1.481   4.258   1.949
 1203SOL     OW 3621   0.527   3.980   2.190
 1203SOL    HW1 3622   0.554   3.921   2.115
 1203SOL    HW2 3623   0.527   4.075   2.159
 1204SOL     OW 3624   0.915   3.813   3.264
 1204SOL    HW1 3625   0.940   3.793   3.169
 1204SOL    HW2 3626   0.987   3.869   3.306
 1205SOL     OW 3627   0.410   4.537   3.113
 1205SOL    HW1 3628   0.496   4.549   3.163
 1205SOL    HW2 3629   0.368   4.450   3.140
 1206SOL     OW 3630   1.274   4.110   3.124
 1206SOL    HW1 3631   1.295   4.184   3.188
 1206SOL    HW2 3632   1.185   4.127   3.081
 1207SOL     OW 3633   0.566   4.261   2.727
 1207SOL    HW1 3634   0.578   4.327   2.653
 1207SOL    HW2 3635   0.612   4.295   2.810
 1208SOL     OW 3636   1.582   4.363   2.334
 1208SOL    HW1 3637   1.551   4.424   2.407
 1208SOL    HW2 3638   1.632   4.415   2.265
 1209SOL     OW 3639   0.402   4.475   3.460
 1209SOL    HW1 3640   0.470   4.530   3.413
 1209SOL    HW2 3641   0.442   4.387   3.487
 1210SOL     OW 3642   1.587   4.503   3.532
 1210SOL    HW1 3643   1.495   4.541   3.527
 1210SOL    HW2 3644   1.647   4.550   3.467
 1211SOL     OW 3645   1.013   3.829   3.632
 1211SOL    HW1 3646   1.019   3.914   3.580
 1211SOL    HW2 3647   1.045   3.753   3.575
 1212SOL     OW 3648   0.504   3.774   3.602
 1212SOL    HW1 3649   0.462   3.717   3.532
 1212SOL    HW2 3650   0.438   3.843   3.634
 1213SOL     OW 3651   0.573   4.594   2.891
 1213SOL    HW1 3652   0.617   4.683   2.882
 1213SOL    HW2 3653   0.510   4.594   2.968
 1214SOL     OW 3654   1.360   4.586   2.907
 1214SOL    HW1 3655   1.285   4.586   2.841
 1214SOL    HW2 3656   1.397   4.494   2.916
 1215SOL     OW 3657   1.209   4.249   2.137
 1215SOL    HW1 3658   1.222   4.165   2.191
 1215SOL    HW2 3659   1.180   4.323   2.197
 1216SOL     OW 3660   0.307   3.937   3.093
 1216SOL    HW1 3661   0.284   3.974   3.183
 1216SOL    HW2 3662   0.277   3.842   3.087
 1217SOL     OW 3663   0.732   4.358   2.926
 1217SOL    HW1 3664   0.791   4.332   2.850
 1217SOL    HW2 3665   0.704   4.454   2.915
 1218SOL     OW 3666   1.728   4.659   3.716
 1218SOL    HW1 3667   1.682   4.652   3.627
 1218SOL    HW2 3668   1.666   4.703   3.782
 1219SOL     OW 3669   0.307   3.787   2.480
 1219SOL    HW1 3670   0.296   3.881   2.513
 1219SOL    HW2 3671   0.302   3.724   2.557
 1220SOL     OW 3672   1.622   4.091   2.236
 1220SOL    HW1 3673   1.624   4.015   2.300
 1220SOL    HW2 3674   1.574   4.168   2.276
 1221SOL     OW 3675   1.023   4.490   2.828
 1221SOL    HW1 3676   1.038   4.511   2.924
 1221SOL    HW2 3677   0.993   4.395   2.819
 1222SOL     OW 3678   1.540   3.998   1.987
 1222SOL    HW1 3679   1.479   3.923   2.010
 1222SOL    HW2 3680   1.562   4.050   2.070
 1223SOL     OW 3681   1.303   4.562   1.904
 1223SOL    HW1 3682   1.337   4.469   1.919
 1223SOL    HW2 3683   1.321   4.589   1.809
 1224SOL     OW 3684   0.319   4.534   2.811
 1224SOL    HW1 3685   0.412   4.570   2.816
 1224SOL    HW2 3686   0.313   4.449   2.863
 1225SOL     OW 3687   0.339   4.233   2.868
 1225SOL    HW1 3688   0.287   4.150   2.851
 1225SOL    HW2 3689   0.416   4.238   2.804
 1226SOL     OW 3690   1.138   4.104   3.540
 1226SOL    HW1 3691   1.093   4.167   3.604
 1226SOL    HW2 3692   1.231   4.135   3.523
 1227SOL     OW 3693   1.160   3.931   3.339
 1227SOL    HW1 3694   1.160   3.995   3.416
 1227SOL    HW2 3695   1.188   3.979   3.256
 1228SOL     OW 3696   1.002   4.520   3.100
 1228SOL    HW1 3697   1.043   4.488   3.186
 1228SOL    HW2 3698   0.906   4.493   3.097
 1229SOL     OW 3699   0.040   4.268   2.976
 1229SOL    HW1 3700   0.125   4.235   2.935
 1229SOL    HW2 3701   0.053   4.283   3.074
 1230SOL     OW 3702   0.189   4.244   3.584
 1230SOL    HW1 3703   0.248   4.204   3.514
 1230SOL    HW2 3704   0.131   4.315   3.543
 1231SOL     OW 3705   0.815   4.296   2.187
 1231SOL    HW1 3706   0.822   4.207   2.141
 1231SOL    HW2 3707   0.721   4.330   2.179
 1232SOL     OW 3708   1.657   4.328   3.068
 1232SOL    HW1 3709   1.619   4.259   3.130
 1232SOL    HW2 3710   1.739   4.292   3.024
 1233SOL     OW 3711   0.671   4.188   3.131
 1233SOL    HW1 3712   0.637   4.099   3.101
 1233SOL    HW2 3713   0.697   4.242   3.051
 1234SOL     OW 3714   0.473   4.224   2.053
 1234SOL    HW1 3715   0.534   4.304   2.057
 1234SOL    HW2 3716   0.378   4.255   2.060
 1235SOL     OW 3717   1.726   3.859   2.385
 1235SOL    HW1 3718   1.799   3.842   2.318
 1235SOL    HW2 3719   1.695   3.772   2.423
 1236SOL     OW 3720   1.280   4.651   2.534
 1236SOL    HW1 3721   1.340   4.570   2.536
 1236SOL    HW2 3722   1.320   4.720   2.474
 1237SOL     OW 3723   1.841   3.899   2.825
 1237SOL    HW1 3724   1.880   3.814   2.789
 1237SOL    HW2 3725   1.743   3.901   2.806
 1238SOL     OW 3726   0.263   4.050   2.582
 1238SOL    HW1 3727   0.184   4.101   2.548
 1238SOL    HW2 3728   0.254   4.035   2.680
 1239SOL     OW 3729   0.916   4.634   2.153
 1239SOL    HW1 3730   0.979   4.672   2.085
 1239SOL    HW2 3731   0.956   4.551   2.192
 1240SOL     OW 3732   1.014   3.960   2.833
 1240SOL    HW1 3733   1.006   3.924   2.740
 1240SOL    HW2 3734   1.012   3.884   2.898
 1241SOL     OW 3735   1.709   4.109   3.243
 1241SOL    HW1 3736   1.782   4.178   3.247
 1241SOL    HW2 3737   1.737   4.034   3.184
 1242SOL     OW 3738   0.105   4.737   3.588
 1242SOL    HW1 3739   0.028   4.704   3.642
 1242SOL    HW2 3740   0.190   4.707   3.630
 1243SOL     OW 3741   0.672   3.927   3.351
 1243SOL    HW1 3742   0.762   3.911   3.311
 1243SOL    HW2 3743   0.680   3.932   3.450
 1244SOL     OW 3744   0.075   4.069   1.895
 1244SOL    HW1 3745  -0.017   4.041   1.866
 1244SOL    HW2 3746   0.106   4.146   1.839
 1245SOL     OW 3747   1.440   4.580   3.260
 1245SOL    HW1 3748   1.383   4.632   3.197
 1245SOL    HW2 3749   1.536   4.592   3.236
 1246SOL     OW 3750   0.072   3.890   2.180
 1246SOL    HW1 3751   0.055   3.973   2.126
 1246SOL    HW2 3752   0.162   3.853   2.158
 1247SOL     OW 3753   0.613   4.566   3.293
 1247SOL    HW1 3754   0.669   4.647   3.276
 1247SOL    HW2 3755   0.672   4.486   3.296
 1248SOL     OW 3756   0.716   4.289   3.570
 1248SOL    HW1 3757   0.735   4.354   3.644
 1248SOL    HW2 3758   0.776   4.209   3.579
 1249SOL     OW 3759   1.674   4.607   3.116
 1249SOL    HW1 3760   1.647   4.518   3.079
 1249SOL    HW2 3761   1.675   4.675   3.043
 1250SOL     OW 3762   1.225   4.049   2.311
 1250SOL    HW1 3763   1.290   3.975   2.300
 1250SOL    HW2 3764   1.245   4.099   2.395
 1251SOL     OW 3765   0.594   4.469   2.514
 1251SOL    HW1 3766   0.644   4.554   2.495
 1251SOL    HW2 3767   0.506   4.471   2.466
 1252SOL     OW 3768   1.777   4.066   3.504
 1252SOL    HW1 3769   1.760   4.097   3.410
 1252SOL    HW2 3770   1.693   4.029   3.542
 1253SOL     OW 3771   1.730   4.658   3.379
 1253SOL    HW1 3772   1.768   4.749   3.394
 1253SOL    HW2 3773   1.722   4.641   3.280
 1254SOL     OW 3774   1.824   3.916   3.089
 1254SOL    HW1 3775   1.820   3.826   3.133
 1254SOL    HW2 3776   1.827   3.905   2.990
 1255SOL     OW 3777   0.428   4.148   2.382
 1255SOL    HW1 3778   0.458   4.076   2.320
 1255SOL    HW2 3779   0.389   4.108   2.465
 1256SOL     OW 3780   0.317   4.271   3.142
 1256SOL    HW1 3781   0.355   4.212   3.214
 1256SOL    HW2 3782   0.357   4.245   3.054
 1257SOL     OW 3783   1.424   3.938   2.974
 1257SOL    HW1 3784   1.476   3.873   3.029
 1257SOL    HW2 3785   1.375   4.001   3.035
 1258SOL     OW 3786   1.001   3.758   3.016
 1258SOL    HW1 3787   0.938   3.686   2.985
 1258SOL    HW2 3788   1.094   3.722   3.016
 1259SOL     OW 3789   1.352   3.776   2.030
 1259SOL    HW1 3790   1.387   3.735   1.946
 1259SOL    HW2 3791   1.262   3.738   2.050
 1260SOL     OW 3792   1.300   4.177   2.553
 1260SOL    HW1 3793   1.241   4.257   2.557
 1260SOL    HW2 3794   1.315   4.142   2.646
 1261SOL     OW 3795   1.593   3.945   2.744
 1261SOL    HW1 3796   1.509   3.944   2.798
 1261SOL    HW2 3797   1.595   4.028   2.688
 1262SOL     OW 3798   0.230   4.352   3.837
 1262SOL    HW1 3799   0.137   4.350   3.874
 1262SOL    HW2 3800   0.231   4.313   3.745
 1263SOL     OW 3801   0.019   4.092   4.371
 1263SOL    HW1 3802  -0.063   4.135   4.410
 1263SOL    HW2 3803  -0.009   4.019   4.308
 1264SOL     OW 3804   1.135   4.427   4.441
 1264SOL    HW1 3805   1.192   4.505   4.416
 1264SOL    HW2 3806   1.075   4.453   4.517
 1265SOL     OW 3807   1.755   4.331   3.955
 1265SOL    HW1 3808   1.743   4.318   3.856
 1265SOL    HW2 3809   1.725   4.250   4.004
 1266SOL     OW 3810   0.685   4.736   4.389
 1266SOL    HW1 3811   0.754   4.720   4.459
 1266SOL    HW2 3812   0.612   4.793   4.427
 1267SOL     OW 3813   1.603   4.171   4.461
 1267SOL    HW1 3814   1.529   4.217   4.411
 1267SOL    HW2 3815   1.654   4.239   4.514
 1268SOL     OW 3816   0.240   4.815   4.610
 1268SOL    HW1 3817   0.254   4.731   4.662
 1268SOL    HW2 3818   0.185   4.879   4.665
 1269SOL     OW 3819   0.122   4.367   4.287
 1269SOL    HW1 3820   0.077   4.279   4.304
 1269SOL    HW2 3821   0.121   4.421   4.371
 1270SOL     OW 3822   0.809   3.728   4.226
 1270SOL    HW1 3823   0.849   3.819   4.217
 1270SOL    HW2 3824   0.709   3.736   4.232
 1271SOL     OW 3825   0.598   4.453   3.994
 1271SOL    HW1 3826   0.622   4.522   3.926
 1271SOL    HW2 3827   0.520   4.486   4.048
 1272SOL     OW 3828   1.281   4.069   4.668
 1272SOL    HW1 3829   1.195   4.019   4.655
 1272SOL    HW2 3830   1.343   4.015   4.724
 1273SOL     OW 3831   1.041   4.425   4.153
 1273SOL    HW1 3832   1.067   4.421   4.249
 1273SOL    HW2 3833   0.956   4.374   4.139
 1274SOL     OW 3834   0.076   4.535   4.513
 1274SOL    HW1 3835   0.175   4.523   4.522
 1274SOL    HW2 3836   0.052   4.630   4.534
 1275SOL     OW 3837   0.865   4.072   3.919
 1275SOL    HW1 3838   0.924   4.135   3.870
 1275SOL    HW2 3839   0.884   3.978   3.890
 1276SOL     OW 3840   0.550   3.920   4.609
 1276SOL    HW1 3841   0.545   3.915   4.709
 1276SOL    HW2 3842   0.552   4.016   4.580
 1277SOL     OW 3843   1.458   4.459   4.452
 1277SOL    HW1 3844   1.453   4.394   4.527
 1277SOL    HW2 3845   1.538   4.518   4.465
 1278SOL     OW 3846   1.400   3.831   4.150
 1278SOL    HW1 3847   1.376   3.794   4.060
 1278SOL    HW2 3848   1.499   3.847   4.154
 1279SOL     OW 3849   0.382   4.424   4.204
 1279SOL    HW1 3850   0.427   4.334   4.201
 1279SOL    HW2 3851   0.288   4.413   4.237
 1280SOL     OW 3852   0.614   3.846   3.841
 1280SOL    HW1 3853   0.712   3.824   3.848
 1280SOL    HW2 3854   0.583   3.829   3.748
 1281SOL     OW 3855   0.539   3.788   4.236
 1281SOL    HW1 3856   0.458   3.789   4.294
 1281SOL    HW2 3857   0.542   3.871   4.181
 1282SOL     OW 3858   0.297   3.759   3.895
 1282SOL    HW1 3859   0.346   3.843   3.874
 1282SOL    HW2 3860   0.359   3.694   3.940
 1283SOL     OW 3861   0.935   3.960   4.204
 1283SOL    HW1 3862   0.887   4.001   4.126
 1283SOL    HW2 3863   1.034   3.958   4.185
 1284SOL     OW 3864   1.032   4.273   3.740
 1284SOL    HW1 3865   0.991   4.355   3.701
 1284SOL    HW2 3866   1.096   4.299   3.813
 1285SOL     OW 3867   0.866   4.178   4.366
 1285SOL    HW1 3868   0.834   4.250   4.304
 1285SOL    HW2 3869   0.890   4.097   4.313
 1286SOL     OW 3870   1.017   3.763   4.477
 1286SOL    HW1 3871   0.945   3.768   4.408
 1286SOL    HW2 3872   0.993   3.694   4.546
 1287SOL     OW 3873   1.429   4.897   4.591
 1287SOL    HW1 3874   1.374   4.813   4.584
 1287SOL    HW2 3875   1.455   4.926   4.499
 1288SOL     OW 3876   1.857   4.557   4.101
 1288SOL    HW1 3877   1.899   4.493   4.165
 1288SOL    HW2 3878   1.819   4.506   4.023
 1289SOL     OW 3879   1.390   4.299   3.802
 1289SOL    HW1 3880   1.336   4.278   3.883
 1289SOL    HW2 3881   1.481   4.258   3.811
 1290SOL     OW 3882   0.527   3.980   4.052
 1290SOL    HW1 3883   0.554   3.921   3.977
 1290SOL    HW2 3884   0.527   4.075   4.021
 1291SOL     OW 3885   1.111   4.919   4.824
 1291SOL    HW1 3886   1.071   4.963   4.905
 1291SOL    HW2 3887   1.070   4.956   4.741
 1292SOL     OW 3888   0.566   4.261   4.589
 1292SOL    HW1 3889   0.578   4.327   4.515
 1292SOL    HW2 3890   0.612   4.295   4.672
 1293SOL     OW 3891   1.582   4.363   4.196
 1293SOL    HW1 3892   1.551   4.424   4.269
 1293SOL    HW2 3893   1.632   4.415   4.127
 1294SOL     OW 3894   1.209   4.249   3.999
 1294SOL    HW1 3895   1.222   4.165   4.053
 1294SOL    HW2 3896   1.180   4.323   4.059
 1295SOL     OW 3897   0.732   4.358   4.788
 1295SOL    HW1 3898   0.791   4.332   4.712
 1295SOL    HW2 3899   0.704   4.454   4.777
 1296SOL     OW 3900   0.307   3.787   4.342
 1296SOL    HW1 3901   0.296   3.881   4.375
 1296SOL    HW2 3902   0.302   3.724   4.419
 1297SOL     OW 3903   1.622   4.091   4.098
 1297SOL    HW1 3904   1.624   4.015   4.162
 1297SOL    HW2 3905   1.574   4.168   4.138
 1298SOL     OW 3906   1.540   3.998   3.849
 1298SOL    HW1 3907   1.479   3.923   3.872
 1298SOL    HW2 3908   1.562   4.050   3.932
 1299SOL     OW 3909   1.303   4.562   3.766
 1299SOL    HW1 3910   1.337   4.469   3.781
 1299SOL    HW2 3911   1.321   4.589   3.671
 1300SOL     OW 3912   0.815   4.296   4.049
 1300SOL    HW1 3913   0.822   4.207   4.003
 1300SOL    HW2 3914   0.721   4.330   4.041
 1301SOL     OW 3915   0.473   4.224   3.915
 1301SOL    HW1 3916   0.534   4.304   3.919
 1301SOL    HW2 3917   0.378   4.255   3.922
 1302SOL     OW 3918   1.726   3.859   4.247
 1302SOL    HW1 3919   1.799   3.842   4.180
 1302SOL    HW2 3920   1.695   3.772   4.285
 1303SOL     OW 3921   1.280   4.651   4.396
 1303SOL    HW1 3922   1.340   4.570   4.398
 1303SOL    HW2 3923   1.320   4.720   4.336
 1304SOL     OW 3924   1.841   3.899   4.687
 1304SOL    HW1 3925   1.880   3.814   4.651
 1304SOL    HW2 3926   1.743   3.901   4.668
 1305SOL     OW 3927   0.263   4.050   4.444
 1305SOL    HW1 3928   0.184   4.101   4.410
 1305SOL    HW2 3929   0.254   4.035   4.542
 1306SOL     OW 3930   0.916   4.634   4.015
 1306SOL    HW1 3931   0.979   4.672   3.947
 1306SOL    HW2 3932   0.956   4.551   4.054
 1307SOL     OW 3933   0.075   4.069   3.757
 1307SOL    HW1 3934  -0.017   4.041   3.728
 1307SOL    HW2 3935   0.106   4.146   3.701
 1308SOL     OW 3936   0.072   3.890   4.042
 1308SOL    HW1 3937   0.055   3.973   3.988
 1308SOL    HW2 3938   0.162   3.853   4.020
 1309SOL     OW 3939   1.674   4.607   4.978
 1309SOL    HW1 3940   1.647   4.518   4.941
 1309SOL    HW2 3941   1.675   4.675   4.905
 1310SOL     OW 3942   1.225   4.049   4.173
 1310SOL    HW1 3943   1.290   3.975   4.162
 1310SOL    HW2 3944   1.245   4.099   4.257
 1311SOL     OW 3945   0.594   4.469   4.376
 1311SOL    HW1 3946   0.644   4.554   4.357
 1311SOL    HW2 3947   0.506   4.471   4.328
 1312SOL     OW 3948   0.428   4.148   4.244
 1312SOL    HW1 3949   0.458   4.076   4.182
 1312SOL    HW2 3950   0.389   4.108   4.327
 1313SOL     OW 3951   1.352   3.776   3.892
 1313SOL    HW1 3952   1.387   3.735   3.808
 1313SOL    HW2 3953   1.262   3.738   3.912
 1314SOL     OW 3954   1.300   4.177   4.415
 1314SOL    HW1 3955   1.241   4.257   4.419
 1314SOL    HW2 3956   1.315   4.142   4.508
 1315SOL     OW 3957   2.092   0.628   0.113
 1315SOL    HW1 3958   1.999   0.626   0.150
 1315SOL    HW2 3959   2.093   0.589   0.021
 1316SOL     OW 3960   2.087   0.275   0.996
 1316SOL    HW1 3961   2.122   0.258   1.088
 1316SOL    HW2 3962   1.999   0.230   0.984
 1317SOL     OW 3963   1.881   0.368   0.647
 1317SOL    HW1 3964   1.799   0.411   0.686
 1317SOL    HW2 3965   1.853   0.295   0.584
 1318SOL     OW 3966   2.431   1.275   1.165
 1318SOL    HW1 3967   2.338   1.268   1.128
 1318SOL    HW2 3968   2.442   1.364   1.209
 1319SOL     OW 3969   3.417   1.511   0.703
 1319SOL    HW1 3970   3.360   1.495   0.784
 1319SOL    HW2 3971   3.358   1.521   0.623
 1320SOL     OW 3972   2.997   0.703   0.717
 1320SOL    HW1 3973   3.054   0.781   0.692
 1320SOL    HW2 3974   2.937   0.729   0.793
 1321SOL     OW 3975   3.617   0.607   0.231
 1321SOL    HW1 3976   3.605   0.594   0.132
 1321SOL    HW2 3977   3.587   0.526   0.280
 1322SOL     OW 3978   2.630   1.144   1.023
 1322SOL    HW1 3979   2.552   1.161   1.083
 1322SOL    HW2 3980   2.664   1.231   0.987
 1323SOL     OW 3981   2.712   0.798   1.823
 1323SOL    HW1 3982   2.708   0.874   1.888
 1323SOL    HW2 3983   2.734   0.834   1.732
 1324SOL     OW 3984   2.547   1.012   0.665
 1324SOL    HW1 3985   2.616   0.996   0.735
 1324SOL    HW2 3986   2.474   1.069   0.703
 1325SOL     OW 3987   2.548   1.161   1.803
 1325SOL    HW1 3988   2.608   1.240   1.817
 1325SOL    HW2 3989   2.462   1.192   1.762
 1326SOL     OW 3990   2.197   1.435   1.061
 1326SOL    HW1 3991   2.119   1.404   1.008
 1326SOL    HW2 3992   2.255   1.493   1.004
 1327SOL     OW 3993   3.322   1.505   1.339
 1327SOL    HW1 3994   3.346   1.599   1.365
 1327SOL    HW2 3995   3.306   1.451   1.421
 1328SOL     OW 3996   2.300   0.392   1.499
 1328SOL    HW1 3997   2.382   0.336   1.508
 1328SOL    HW2 3998   2.219   0.334   1.503
 1329SOL     OW 3999   3.465   0.447   0.737
 1329SOL    HW1 4000   3.391   0.493   0.687
 1329SOL    HW2 4001   3.516   0.515   0.790
 1330SOL     OW 4002   2.093   1.713   0.483
 1330SOL    HW1 4003   2.127   1.790   0.537
 1330SOL    HW2 4004   2.137   1.713   0.393
 1331SOL     OW 4005   2.989   1.341   1.690
 1331SOL    HW1 4006   3.036   1.341   1.778
 1331SOL    HW2 4007   2.941   1.254   1.679
 1332SOL     OW 4008   2.092   1.434   0.538
 1332SOL    HW1 4009   2.066   1.530   0.538
 1332SOL    HW2 4010   2.021   1.380   0.583
 1333SOL     OW 4011   2.102   1.091   0.886
 1333SOL    HW1 4012   2.116   1.007   0.938
 1333SOL    HW2 4013   2.047   1.155   0.941
 1334SOL     OW 4014   2.482   1.786   1.439
 1334SOL    HW1 4015   2.390   1.769   1.474
 1334SOL    HW2 4016   2.510   1.878   1.465
 1335SOL     OW 4017   2.468   0.964   0.123
 1335SOL    HW1 4018   2.475   1.048   0.069
 1335SOL    HW2 4019   2.514   0.977   0.211
 1336SOL     OW 4020   3.456   0.114   1.480
 1336SOL    HW1 4021   3.438   0.181   1.408
 1336SOL    HW2 4022   3.453   0.160   1.569
 1337SOL     OW 4023   1.984   0.643   0.563
 1337SOL    HW1 4024   1.939   0.555   0.580
 1337SOL    HW2 4025   1.983   0.697   0.647
 1338SOL     OW 4026   3.704   1.767   0.359
 1338SOL    HW1 4027   3.758   1.738   0.439
 1338SOL    HW2 4028   3.734   1.857   0.330
 1339SOL     OW 4029   1.889   1.596   0.117
 1339SOL    HW1 4030   1.870   1.500   0.138
 1339SOL    HW2 4031   1.856   1.654   0.192
 1340SOL     OW 4032   3.551   0.922   0.612
 1340SOL    HW1 4033   3.646   0.893   0.620
 1340SOL    HW2 4034   3.543   0.987   0.537
 1341SOL     OW 4035   3.503   1.108   0.432
 1341SOL    HW1 4036   3.589   1.110   0.380
 1341SOL    HW2 4037   3.517   1.155   0.520
 1342SOL     OW 4038   1.975   0.737   1.597
 1342SOL    HW1 4039   2.063   0.724   1.642
 1342SOL    HW2 4040   1.962   0.834   1.575
 1343SOL     OW 4041   2.475   1.365   0.726
 1343SOL    HW1 4042   2.426   1.278   0.735
 1343SOL    HW2 4043   2.452   1.408   0.639
 1344SOL     OW 4044   3.155   1.228   1.423
 1344SOL    HW1 4045   3.192   1.155   1.365
 1344SOL    HW2 4046   3.207   1.233   1.508
 1345SOL     OW 4047   2.671   0.004   0.502
 1345SOL    HW1 4048   2.711   0.095   0.493
 1345SOL    HW2 4049   2.571   0.012   0.508
 1346SOL     OW 4050   2.059   0.976   1.264
 1346SOL    HW1 4051   2.148   0.931   1.250
 1346SOL    HW2 4052   1.986   0.911   1.245
 1347SOL     OW 4053   3.387   0.999   0.190
 1347SOL    HW1 4054   3.324   0.923   0.203
 1347SOL    HW2 4055   3.435   1.017   0.276
 1348SOL     OW 4056   3.049   1.792   1.616
 1348SOL    HW1 4057   3.073   1.852   1.540
 1348SOL    HW2 4058   3.056   1.697   1.586
 1349SOL     OW 4059   2.179   0.251   1.801
 1349SOL    HW1 4060   2.250   0.322   1.807
 1349SOL    HW2 4061   2.091   0.290   1.829
 1350SOL     OW 4062   3.328   1.417   0.953
 1350SOL    HW1 4063   3.269   1.423   1.033
 1350SOL    HW2 4064   3.313   1.329   0.907
 1351SOL     OW 4065   3.529   1.714   0.572
 1351SOL    HW1 4066   3.488   1.691   0.484
 1351SOL    HW2 4067   3.511   1.640   0.637
 1352SOL     OW 4068   2.460   0.729   0.270
 1352SOL    HW1 4069   2.484   0.798   0.202
 1352SOL    HW2 4070   2.382   0.762   0.324
 1353SOL     OW 4071   3.143   0.345   0.944
 1353SOL    HW1 4072   3.057   0.295   0.931
 1353SOL    HW2 4073   3.205   0.291   1.000
 1354SOL     OW 4074   3.438   1.662   0.307
 1354SOL    HW1 4075   3.527   1.708   0.310
 1354SOL    HW2 4076   3.417   1.638   0.212
 1355SOL     OW 4077   2.669   0.605   1.465
 1355SOL    HW1 4078   2.622   0.602   1.554
 1355SOL    HW2 4079   2.618   0.550   1.399
 1356SOL     OW 4080   3.256   0.469   1.674
 1356SOL    HW1 4081   3.236   0.512   1.762
 1356SOL    HW2 4082   3.334   0.407   1.683
 1357SOL     OW 4083   2.835   0.890   1.572
 1357SOL    HW1 4084   2.881   0.806   1.543
 1357SOL    HW2 4085   2.779   0.924   1.497
 1358SOL     OW 4086   2.853   0.410   1.242
 1358SOL    HW1 4087   2.776   0.444   1.296
 1358SOL    HW2 4088   2.819   0.359   1.163
 1359SOL     OW 4089   2.903   0.701   0.429
 1359SOL    HW1 4090   2.929   0.697   0.525
 1359SOL    HW2 4091   2.818   0.650   0.415
 1360SOL     OW 4092   1.938   0.811   0.789
 1360SOL    HW1 4093   2.037   0.799   0.798
 1360SOL    HW2 4094   1.914   0.906   0.810
 1361SOL     OW 4095   1.992   1.821   1.571
 1361SOL    HW1 4096   1.982   1.806   1.670
 1361SOL    HW2 4097   1.906   1.857   1.535
 1362SOL     OW 4098   2.727   0.348   0.195
 1362SOL    HW1 4099   2.786   0.411   0.146
 1362SOL    HW2 4100   2.746   0.254   0.166
 1363SOL     OW 4101   3.581   0.585   1.831
 1363SOL    HW1 4102   3.555   0.674   1.795
 1363SOL    HW2 4103   3.579   0.517   1.758
 1364SOL     OW 4104   3.224   1.144   0.545
 1364SOL    HW1 4105   3.307   1.115   0.497
 1364SOL    HW2 4106   3.175   1.211   0.489
 1365SOL     OW 4107   2.412   0.196   0.885
 1365SOL    HW1 4108   2.407   0.191   0.985
 1365SOL    HW2 4109   2.414   0.292   0.856
 1366SOL     OW 4110   2.870   1.456   0.477
 1366SOL    HW1 4111   2.824   1.528   0.425
 1366SOL    HW2 4112   2.866   1.476   0.575
 1367SOL     OW 4113   2.213   1.801   0.853
 1367SOL    HW1 4114   2.263   1.715   0.859
 1367SOL    HW2 4115   2.278   1.878   0.850
 1368SOL     OW 4116   3.657   1.066   0.873
 1368SOL    HW1 4117   3.595   1.051   0.797
 1368SOL    HW2 4118   3.605   1.077   0.958
 1369SOL     OW 4119   3.089   1.550   1.506
 1369SOL    HW1 4120   3.095   1.473   1.570
 1369SOL    HW2 4121   3.037   1.524   1.426
 1370SOL     OW 4122   2.183   0.943   0.242
 1370SOL    HW1 4123   2.265   0.982   0.200
 1370SOL    HW2 4124   2.156   0.861   0.193
 1371SOL     OW 4125   3.320   0.735   0.728
 1371SOL    HW1 4126   3.315   0.670   0.803
 1371SOL    HW2 4127   3.400   0.794   0.741
 1372SOL     OW 4128   2.323   1.266   1.727
 1372SOL    HW1 4129   2.273   1.267   1.641
 1372SOL    HW2 4130   2.260   1.248   1.803
 1373SOL     OW 4131   2.973   1.776   0.237
 1373SOL    HW1 4132   2.913   1.714   0.287
 1373SOL    HW2 4133   3.004   1.732   0.152
 1374SOL     OW 4134   2.064   0.285   1.498
 1374SOL    HW1 4135   1.984   0.345   1.485
 1374SOL    HW2 4136   2.054   0.236   1.584
 1375SOL     OW 4137   3.494   1.377   0.081
 1375SOL    HW1 4138   3.462   1.471   0.071
 1375SOL    HW2 4139   3.418   1.314   0.069
 1376SOL     OW 4140   2.326   1.743   0.323
 1376SOL    HW1 4141   2.359   1.782   0.409
 1376SOL    HW2 4142   2.402   1.736   0.258
 1377SOL     OW 4143   3.262   0.107   0.426
 1377SOL    HW1 4144   3.238   0.070   0.336
 1377SOL    HW2 4145   3.361   0.123   0.430
 1378SOL     OW 4146   2.111   1.785   1.241
 1378SOL    HW1 4147   2.168   1.720   1.291
 1378SOL    HW2 4148   2.095   1.752   1.148
 1379SOL     OW 4149   2.802   1.698   0.904
 1379SOL    HW1 4150   2.882   1.641   0.925
 1379SOL    HW2 4151   2.753   1.658   0.827
 1380SOL     OW 4152   2.244   0.700   0.480
 1380SOL    HW1 4153   2.289   0.610   0.477
 1380SOL    HW2 4154   2.150   0.689   0.513
 1381SOL     OW 4155   3.409   0.222   1.729
 1381SOL    HW1 4156   3.404   0.259   1.821
 1381SOL    HW2 4157   3.337   0.153   1.717
 1382SOL     OW 4158   2.476   0.122   0.117
 1382SOL    HW1 4159   2.574   0.100   0.124
 1382SOL    HW2 4160   2.445   0.105   0.024
 1383SOL     OW 4161   2.643   0.264   1.749
 1383SOL    HW1 4162   2.710   0.203   1.792
 1383SOL    HW2 4163   2.570   0.283   1.814
 1384SOL     OW 4164   2.750   1.514   1.195
 1384SOL    HW1 4165   2.727   1.489   1.101
 1384SOL    HW2 4166   2.811   1.445   1.234
 1385SOL     OW 4167   3.213   0.590   1.433
 1385SOL    HW1 4168   3.241   0.547   1.518
 1385SOL    HW2 4169   3.238   0.686   1.434
 1386SOL     OW 4170   2.665   1.402   0.924
 1386SOL    HW1 4171   2.755   1.416   0.882
 1386SOL    HW2 4172   2.594   1.404   0.853
 1387SOL     OW 4173   2.784   0.503   0.899
 1387SOL    HW1 4174   2.759   0.494   0.803
 1387SOL    HW2 4175   2.832   0.421   0.930
 1388SOL     OW 4176   2.401   0.064   0.512
 1388SOL    HW1 4177   2.320   0.065   0.570
 1388SOL    HW2 4178   2.404   0.147   0.457
 1389SOL     OW 4179   3.296   1.188   0.041
 1389SOL    HW1 4180   3.328   1.112   0.098
 1389SOL    HW2 4181   3.204   1.215   0.071
 1390SOL     OW 4182   2.159   0.035   0.171
 1390SOL    HW1 4183   2.208   0.119   0.150
 1390SOL    HW2 4184   2.221  -0.030   0.216
 1391SOL     OW 4185   2.797   0.236   0.480
 1391SOL    HW1 4186   2.749   0.277   0.402
 1391SOL    HW2 4187   2.896   0.234   0.461
 1392SOL     OW 4188   2.938   0.683   1.464
 1392SOL    HW1 4189   2.858   0.622   1.467
 1392SOL    HW2 4190   3.019   0.630   1.440
 1393SOL     OW 4191   3.089   1.570   0.793
 1393SOL    HW1 4192   3.110   1.644   0.728
 1393SOL    HW2 4193   3.157   1.570   0.866
 1394SOL     OW 4194   2.321   1.152   0.741
 1394SOL    HW1 4195   2.250   1.125   0.806
 1394SOL    HW2 4196   2.295   1.124   0.648
 1395SOL     OW 4197   3.133   1.797   0.591
 1395SOL    HW1 4198   3.177   1.861   0.527
 1395SOL    HW2 4199   3.083   1.849   0.661
 1396SOL     OW 4200   2.894   0.549   0.016
 1396SOL    HW1 4201   2.853   0.631  -0.023
 1396SOL    HW2 4202   2.958   0.575   0.089
 1397SOL     OW 4203   1.940   0.556   1.386
 1397SOL    HW1 4204   2.032   0.555   1.345
 1397SOL    HW2 4205   1.934   0.630   1.453
 1398SOL     OW 4206   2.423   0.222   1.147
 1398SOL    HW1 4207   2.461   0.138   1.184
 1398SOL    HW2 4208   2.335   0.241   1.191
 1399SOL     OW 4209   2.728   0.454   0.642
 1399SOL    HW1 4210   2.696   0.526   0.580
 1399SOL    HW2 4211   2.752   0.373   0.589
 1400SOL     OW 4212   2.879   0.039   0.753
 1400SOL    HW1 4213   2.807   0.044   0.684
 1400SOL    HW2 4214   2.855  -0.030   0.822
 1401SOL     OW 4215   3.291   1.173   0.867
 1401SOL    HW1 4216   3.236   1.089   0.860
 1401SOL    HW2 4217   3.317   1.202   0.775
 1402SOL     OW 4218   3.328   0.590   0.992
 1402SOL    HW1 4219   3.298   0.495   0.999
 1402SOL    HW2 4220   3.401   0.606   1.058
 1403SOL     OW 4221   3.719   0.833   0.377
 1403SOL    HW1 4222   3.761   0.769   0.441
 1403SOL    HW2 4223   3.681   0.782   0.299
 1404SOL     OW 4224   2.350   1.385   0.174
 1404SOL    HW1 4225   2.263   1.370   0.221
 1404SOL    HW2 4226   2.333   1.411   0.079
 1405SOL     OW 4227   3.526   1.280   0.657
 1405SOL    HW1 4228   3.625   1.288   0.671
 1405SOL    HW2 4229   3.481   1.364   0.688
 1406SOL     OW 4230   3.252   0.575   0.078
 1406SOL    HW1 4231   3.198   0.554   0.159
 1406SOL    HW2 4232   3.343   0.534   0.087
 1407SOL     OW 4233   2.389   0.256   0.328
 1407SOL    HW1 4234   2.416   0.197   0.253
 1407SOL    HW2 4235   2.389   0.351   0.297
 1408SOL     OW 4236   3.616   1.223   1.588
 1408SOL    HW1 4237   3.707   1.184   1.575
 1408SOL    HW2 4238   3.624   1.319   1.612
 1409SOL     OW 4239   2.926   1.347   1.340
 1409SOL    HW1 4240   2.846   1.324   1.395
 1409SOL    HW2 4241   3.009   1.321   1.389
 1410SOL     OW 4242   3.454   1.629   1.625
 1410SOL    HW1 4243   3.481   1.663   1.535
 1410SOL    HW2 4244   3.533   1.591   1.671
 1411SOL     OW 4245   2.973   1.195   1.100
 1411SOL    HW1 4246   2.933   1.239   1.181
 1411SOL    HW2 4247   2.932   1.232   1.017
 1412SOL     OW 4248   3.500   1.099   1.079
 1412SOL    HW1 4249   3.505   1.180   1.138
 1412SOL    HW2 4250   3.414   1.101   1.028
 1413SOL     OW 4251   2.777   0.089   1.402
 1413SOL    HW1 4252   2.802   0.069   1.307
 1413SOL    HW2 4253   2.849   0.145   1.444
 1414SOL     OW 4254   2.842   1.116   1.719
 1414SOL    HW1 4255   2.743   1.122   1.729
 1414SOL    HW2 4256   2.865   1.036   1.663
 1415SOL     OW 4257   2.567   1.050   0.368
 1415SOL    HW1 4258   2.553   1.057   0.467
 1415SOL    HW2 4259   2.651   0.999   0.350
 1416SOL     OW 4260   2.272   0.813   1.251
 1416SOL    HW1 4261   2.358   0.825   1.301
 1416SOL    HW2 4262   2.230   0.726   1.278
 1417SOL     OW 4263   3.136   0.386   1.262
 1417SOL    HW1 4264   3.157   0.460   1.326
 1417SOL    HW2 4265   3.047   0.403   1.219
 1418SOL     OW 4266   1.926   1.564   1.331
 1418SOL    HW1 4267   1.880   1.646   1.297
 1418SOL    HW2 4268   2.024   1.583   1.340
 1419SOL     OW 4269   2.229   1.100   0.501
 1419SOL    HW1 4270   2.222   1.183   0.445
 1419SOL    HW2 4271   2.233   1.020   0.441
 1420SOL     OW 4272   2.428   0.537   0.865
 1420SOL    HW1 4273   2.440   0.603   0.791
 1420SOL    HW2 4274   2.474   0.571   0.948
 1421SOL     OW 4275   3.114   1.348   0.388
 1421SOL    HW1 4276   3.164   1.425   0.428
 1421SOL    HW2 4277   3.019   1.350   0.420
 1422SOL     OW 4278   3.134   1.445   1.142
 1422SOL    HW1 4279   3.181   1.458   1.229
 1422SOL    HW2 4280   3.068   1.371   1.151
 1423SOL     OW 4281   3.444   0.639   0.472
 1423SOL    HW1 4282   3.413   0.700   0.545
 1423SOL    HW2 4283   3.494   0.691   0.403
 1424SOL     OW 4284   2.216   1.510   1.329
 1424SOL    HW1 4285   2.195   1.466   1.242
 1424SOL    HW2 4286   2.313   1.536   1.332
 1425SOL     OW 4287   2.264   0.751   1.598
 1425SOL    HW1 4288   2.332   0.806   1.551
 1425SOL    HW2 4289   2.304   0.663   1.625
 1426SOL     OW 4290   3.449   0.779   1.670
 1426SOL    HW1 4291   3.357   0.817   1.665
 1426SOL    HW2 4292   3.509   0.826   1.605
 1427SOL     OW 4293   2.875   0.105   1.770
 1427SOL    HW1 4294   2.881   0.190   1.718
 1427SOL    HW2 4295   2.907   0.029   1.713
 1428SOL     OW 4296   2.366   0.050   1.740
 1428SOL    HW1 4297   2.324  -0.007   1.670
 1428SOL    HW2 4298   2.300   0.119   1.772
 1429SOL     OW 4299   2.435   0.870   1.029
 1429SOL    HW1 4300   2.479   0.959   1.020
 1429SOL    HW2 4301   2.372   0.870   1.106
 1430SOL     OW 4302   3.222   0.862   1.045
 1430SOL    HW1 4303   3.147   0.862   0.979
 1430SOL    HW2 4304   3.259   0.770   1.054
 1431SOL     OW 4305   3.071   0.525   0.275
 1431SOL    HW1 4306   3.084   0.441   0.329
 1431SOL    HW2 4307   3.042   0.599   0.335
 1432SOL     OW 4308   2.169   0.213   1.231
 1432SOL    HW1 4309   2.146   0.250   1.321
 1432SOL    HW2 4310   2.139   0.118   1.225
 1433SOL     OW 4311   1.899   1.310   1.282
 1433SOL    HW1 4312   1.952   1.261   1.350
 1433SOL    HW2 4313   1.921   1.408   1.287
 1434SOL     OW 4314   2.594   0.634   1.064
 1434SOL    HW1 4315   2.653   0.608   0.988
 1434SOL    HW2 4316   2.566   0.730   1.053
 1435SOL     OW 4317   3.590   0.935   1.854
 1435SOL    HW1 4318   3.544   0.928   1.765
 1435SOL    HW2 4319   3.528   0.979   1.920
 1436SOL     OW 4320   2.169   0.063   0.618
 1436SOL    HW1 4321   2.158   0.157   0.651
 1436SOL    HW2 4322   2.164   0.000   0.695
 1437SOL     OW 4323   3.484   0.367   0.374
 1437SOL    HW1 4324   3.486   0.291   0.438
 1437SOL    HW2 4325   3.436   0.444   0.414
 1438SOL     OW 4326   2.885   0.766   0.966
 1438SOL    HW1 4327   2.900   0.787   1.062
 1438SOL    HW2 4328   2.855   0.671   0.957
 1439SOL     OW 4329   2.842   1.573   1.700
 1439SOL    HW1 4330   2.822   1.617   1.612
 1439SOL    HW2 4331   2.881   1.482   1.684
 1440SOL     OW 4332   3.721   1.518   1.605
 1440SOL    HW1 4333   3.735   1.545   1.510
 1440SOL    HW2 4334   3.804   1.540   1.658
 1441SOL     OW 4335   2.212   0.898   1.804
 1441SOL    HW1 4336   2.288   0.942   1.852
 1441SOL    HW2 4337   2.247   0.851   1.722
 1442SOL     OW 4338   3.402   0.274   0.125
 1442SOL    HW1 4339   3.341   0.199   0.148
 1442SOL    HW2 4340   3.424   0.326   0.208
 1443SOL     OW 4341   3.165   0.838   0.042
 1443SOL    HW1 4342   3.199   0.745   0.057
 1443SOL    HW2 4343   3.183   0.865  -0.053
 1444SOL     OW 4344   2.930   1.333   0.849
 1444SOL    HW1 4345   2.937   1.249   0.794
 1444SOL    HW2 4346   2.992   1.402   0.813
 1445SOL     OW 4347   2.181   0.810   0.949
 1445SOL    HW1 4348   2.274   0.846   0.954
 1445SOL    HW2 4349   2.175   0.725   1.001
 1446SOL     OW 4350   2.201   0.509   1.006
 1446SOL    HW1 4351   2.149   0.426   0.989
 1446SOL    HW2 4352   2.278   0.514   0.942
 1447SOL     OW 4353   3.000   0.380   1.678
 1447SOL    HW1 4354   2.955   0.443   1.742
 1447SOL    HW2 4355   3.093   0.411   1.661
 1448SOL     OW 4356   3.022   0.207   1.477
 1448SOL    HW1 4357   3.022   0.271   1.554
 1448SOL    HW2 4358   3.050   0.255   1.394
 1449SOL     OW 4359   1.870   1.326   0.200
 1449SOL    HW1 4360   1.777   1.347   0.169
 1449SOL    HW2 4361   1.880   1.227   0.213
 1450SOL     OW 4362   1.950   1.801   0.927
 1450SOL    HW1 4363   1.908   1.715   0.900
 1450SOL    HW2 4364   2.044   1.804   0.893
 1451SOL     OW 4365   2.366   1.568   0.910
 1451SOL    HW1 4366   2.432   1.642   0.919
 1451SOL    HW2 4367   2.410   1.489   0.868
 1452SOL     OW 4368   2.864   0.796   1.238
 1452SOL    HW1 4369   2.905   0.764   1.324
 1452SOL    HW2 4370   2.768   0.769   1.235
 1453SOL     OW 4371   1.902   0.544   1.114
 1453SOL    HW1 4372   1.987   0.511   1.073
 1453SOL    HW2 4373   1.915   0.559   1.212
 1454SOL     OW 4374   2.051   0.520   1.722
 1454SOL    HW1 4375   2.110   0.480   1.652
 1454SOL    HW2 4376   1.993   0.591   1.681
 1455SOL     OW 4377   3.231   0.950   1.660
 1455SOL    HW1 4378   3.270   1.039   1.680
 1455SOL    HW2 4379   3.241   0.930   1.563
 1456SOL     OW 4380   2.677   0.572   0.325
 1456SOL    HW1 4381   2.684   0.483   0.279
 1456SOL    HW2 4382   2.583   0.606   0.317
 1457SOL     OW 4383   3.519   0.604   1.206
 1457SOL    HW1 4384   3.481   0.535   1.268
 1457SOL    HW2 4385   3.601   0.568   1.162
 1458SOL     OW 4386   2.114   1.564   1.744
 1458SOL    HW1 4387   2.084   1.621   1.820
 1458SOL    HW2 4388   2.107   1.467   1.770
 1459SOL     OW 4389   2.533   0.464   1.269
 1459SOL    HW1 4390   2.499   0.375   1.239
 1459SOL    HW2 4391   2.559   0.518   1.189
 1460SOL     OW 4392   2.792   1.678   1.465
 1460SOL    HW1 4393   2.768   1.660   1.370
 1460SOL    HW2 4394   2.822   1.772   1.475
 1461SOL     OW 4395   2.335   0.500   0.191
 1461SOL    HW1 4396   2.396   0.580   0.195
 1461SOL    HW2 4397   2.240   0.531   0.198
 1462SOL     OW 4398   2.021   1.137   1.466
 1462SOL    HW1 4399   2.043   1.076   1.542
 1462SOL    HW2 4400   2.031   1.088   1.380
 1463SOL     OW 4401   3.209   1.059   1.234
 1463SOL    HW1 4402   3.233   0.996   1.160
 1463SOL    HW2 4403   3.119   1.099   1.216
 1464SOL     OW 4404   3.164   0.855   0.309
 1464SOL    HW1 4405   3.078   0.824   0.351
 1464SOL    HW2 4406   3.160   0.841   0.210
 1465SOL     OW 4407   3.621   1.747   1.154
 1465SOL    HW1 4408   3.682   1.777   1.081
 1465SOL    HW2 4409   3.583   1.658   1.132
 1466SOL     OW 4410   3.114   1.731   1.128
 1466SOL    HW1 4411   3.198   1.736   1.074
 1466SOL    HW2 4412   3.091   1.635   1.146
 1467SOL     OW 4413   1.945   1.258   1.022
 1467SOL    HW1 4414   1.940   1.257   1.122
 1467SOL    HW2 4415   1.862   1.217   0.984
 1468SOL     OW 4416   2.550   1.662   1.716
 1468SOL    HW1 4417   2.494   1.743   1.725
 1468SOL    HW2 4418   2.602   1.666   1.630
 1469SOL     OW 4419   2.765   0.086   0.133
 1469SOL    HW1 4420   2.816   0.087   0.047
 1469SOL    HW2 4421   2.821   0.044   0.204
 1470SOL     OW 4422   3.588   0.135   0.523
 1470SOL    HW1 4423   3.661   0.118   0.456
 1470SOL    HW2 4424   3.557   0.048   0.561
 1471SOL     OW 4425   3.250   1.573   0.477
 1471SOL    HW1 4426   3.317   1.585   0.403
 1471SOL    HW2 4427   3.210   1.662   0.500
 1472SOL     OW 4428   1.992   1.794   1.851
 1472SOL    HW1 4429   1.951   1.720   1.904
 1472SOL    HW2 4430   2.056   1.845   1.909
 1473SOL     OW 4431   3.142   0.927   0.672
 1473SOL    HW1 4432   3.202   0.846   0.674
 1473SOL    HW2 4433   3.182   0.996   0.612
 1474SOL     OW 4434   2.692   1.273   1.422
 1474SOL    HW1 4435   2.687   1.306   1.517
 1474SOL    HW2 4436   2.606   1.292   1.376
 1475SOL     OW 4437   2.534   1.616   0.154
 1475SOL    HW1 4438   2.543   1.626   0.055
 1475SOL    HW2 4439   2.494   1.527   0.175
 1476SOL     OW 4440   3.512   1.720   1.394
 1476SOL    HW1 4441   3.565   1.730   1.310
 1476SOL    HW2 4442   3.485   1.810   1.428
 1477SOL     OW 4443   3.703   0.175   0.963
 1477SOL    HW1 4444   3.742   0.090   0.927
 1477SOL    HW2 4445   3.605   0.177   0.944
 1478SOL     OW 4446   2.125   0.326   0.720
 1478SOL    HW1 4447   2.046   0.377   0.686
 1478SOL    HW2 4448   2.116   0.311   0.818
 1479SOL     OW 4449   3.056   1.612   0.031
 1479SOL    HW1 4450   3.062   1.519   0.068
 1479SOL    HW2 4451   2.997   1.612  -0.049
 1480SOL     OW 4452   2.684   1.002   1.372
 1480SOL    HW1 4453   2.724   1.001   1.280
 1480SOL    HW2 4454   2.694   1.094   1.412
 1481SOL     OW 4455   2.778   0.910   0.291
 1481SOL    HW1 4456   2.841   0.948   0.223
 1481SOL    HW2 4457   2.818   0.827   0.330
 1482SOL     OW 4458   3.366   1.607   0.044
 1482SOL    HW1 4459   3.274   1.644   0.051
 1482SOL    HW2 4460   3.404   1.627  -0.046
 1483SOL     OW 4461   2.234   1.288   1.490
 1483SOL    HW1 4462   2.221   1.381   1.456
 1483SOL    HW2 4463   2.150   1.236   1.477
 1484SOL     OW 4464   3.476   1.292   1.289
 1484SOL    HW1 4465   3.536   1.295   1.369
 1484SOL    HW2 4466   3.401   1.356   1.302
 1485SOL     OW 4467   2.901   1.098   0.696
 1485SOL    HW1 4468   2.831   1.051   0.750
 1485SOL    HW2 4469   2.960   1.030   0.653
 1486SOL     OW 4470   2.876   0.236   0.971
 1486SOL    HW1 4471   2.868   0.200   0.878
 1486SOL    HW2 4472   2.874   0.160   1.036
 1487SOL     OW 4473   2.452   1.487   0.491
 1487SOL    HW1 4474   2.494   1.429   0.421
 1487SOL    HW2 4475   2.408   1.566   0.447
 1488SOL     OW 4476   3.571   0.385   1.381
 1488SOL    HW1 4477   3.644   0.454   1.385
 1488SOL    HW2 4478   3.599   0.310   1.322
 1489SOL     OW 4479   2.117   1.348   0.290
 1489SOL    HW1 4480   2.021   1.349   0.263
 1489SOL    HW2 4481   2.129   1.401   0.374
 1490SOL     OW 4482   1.967   1.013   1.726
 1490SOL    HW1 4483   1.890   0.980   1.780
 1490SOL    HW2 4484   2.052   0.983   1.768
 1491SOL     OW 4485   2.534   0.203   1.489
 1491SOL    HW1 4486   2.624   0.187   1.449
 1491SOL    HW2 4487   2.542   0.208   1.588
 1492SOL     OW 4488   3.302   0.856   1.398
 1492SOL    HW1 4489   3.245   0.908   1.335
 1492SOL    HW2 4490   3.398   0.868   1.374
 1493SOL     OW 4491   3.045   1.335   0.119
 1493SOL    HW1 4492   2.946   1.324   0.121
 1493SOL    HW2 4493   3.079   1.350   0.212
 1494SOL     OW 4494   2.475   0.842   1.431
 1494SOL    HW1 4495   2.531   0.923   1.414
 1494SOL    HW2 4496   2.534   0.762   1.434
 1495SOL     OW 4497   3.355   1.767   0.959
 1495SOL    HW1 4498   3.388   1.831   0.890
 1495SOL    HW2 4499   3.421   1.761   1.034
 1496SOL     OW 4500   2.578   0.565   1.708
 1496SOL    HW1 4501   2.597   0.630   1.782
 1496SOL    HW2 4502   2.638   0.485   1.717
 1497SOL     OW 4503   3.312   1.220   1.633
 1497SOL    HW1 4504   3.303   1.210   1.732
 1497SOL    HW2 4505   3.408   1.213   1.607
 1498SOL     OW 4506   2.252   1.741   1.560
 1498SOL    HW1 4507   2.161   1.782   1.558
 1498SOL    HW2 4508   2.245   1.647   1.592
 1499SOL     OW 4509   3.536   0.883   1.254
 1499SOL    HW1 4510   3.509   0.794   1.217
 1499SOL    HW2 4511   3.537   0.951   1.181
 1500SOL     OW 4512   3.087   0.325   0.449
 1500SOL    HW1 4513   3.152   0.251   0.438
 1500SOL    HW2 4514   3.107   0.375   0.533
 1501SOL     OW 4515   2.456   0.745   0.652
 1501SOL    HW1 4516   2.506   0.830   0.633
 1501SOL    HW2 4517   2.368   0.747   0.604
 1502SOL     OW 4518   3.639   0.342   1.642
 1502SOL    HW1 4519   3.622   0.373   1.548
 1502SOL    HW2 4520   3.555   0.305   1.680
 1503SOL     OW 4521   3.592   0.934   1.517
 1503SOL    HW1 4522   3.630   1.025   1.532
 1503SOL    HW2 4523   3.584   0.917   1.418
 1504SOL     OW 4524   2.721   1.374   0.016
 1504SOL    HW1 4525   2.675   1.389   0.104
 1504SOL    HW2 4526   2.765   1.459  -0.014
 1505SOL     OW 4527   2.523   1.790   0.953
 1505SOL    HW1 4528   2.477   1.878   0.940
 1505SOL    HW2 4529   2.622   1.802   0.946
 1506SOL     OW 4530   2.721   0.956   0.861
 1506SOL    HW1 4531   2.775   0.887   0.909
 1506SOL    HW2 4532   2.689   1.025   0.927
 1507SOL     OW 4533   2.945   0.984   0.087
 1507SOL    HW1 4534   2.922   1.037   0.005
 1507SOL    HW2 4535   3.026   0.928   0.068
 1508SOL     OW 4536   3.723   1.569   0.851
 1508SOL    HW1 4537   3.652   1.557   0.781
 1508SOL    HW2 4538   3.724   1.490   0.911
 1509SOL     OW 4539   2.083   1.314   1.844
 1509SOL    HW1 4540   2.018   1.241   1.823
 1509SOL    HW2 4541   2.087   1.328   1.942
 1510SOL     OW 4542   1.941   1.240   0.653
 1510SOL    HW1 4543   1.940   1.193   0.741
 1510SOL    HW2 4544   2.023   1.212   0.602
 1511SOL     OW 4545   2.534   1.391   1.624
 1511SOL    HW1 4546   2.456   1.341   1.662
 1511SOL    HW2 4547   2.531   1.486   1.655
 1512SOL     OW 4548   3.686   0.192   1.227
 1512SOL    HW1 4549   3.682   0.102   1.271
 1512SOL    HW2 4550   3.689   0.181   1.128
 1513SOL     OW 4551   2.290   0.424   0.520
 1513SOL    HW1 4552   2.320   0.352   0.458
 1513SOL    HW2 4553   2.251   0.384   0.603
 1514SOL     OW 4554   3.567   1.487   1.104
 1514SOL    HW1 4555   3.474   1.462   1.077
 1514SOL    HW2 4556   3.593   1.437   1.186
 1515SOL     OW 4557   2.179   0.547   1.280
 1515SOL    HW1 4558   2.217   0.488   1.352
 1515SOL    HW2 4559   2.219   0.521   1.192
 1516SOL     OW 4560   2.674   1.586   0.687
 1516SOL    HW1 4561   2.706   1.596   0.593
 1516SOL    HW2 4562   2.595   1.524   0.689
 1517SOL     OW 4563   3.286   0.214   1.112
 1517SOL    HW1 4564   3.338   0.149   1.167
 1517SOL    HW2 4565   3.237   0.277   1.173
 1518SOL     OW 4566   2.863   0.034   1.154
 1518SOL    HW1 4567   2.800  -0.038   1.123
 1518SOL    HW2 4568   2.956  -0.002   1.154
 1519SOL     OW 4569   2.632   1.330   0.301
 1519SOL    HW1 4570   2.586   1.243   0.318
 1519SOL    HW2 4571   2.723   1.327   0.342
 1520SOL     OW 4572   2.480   1.567   1.284
 1520SOL    HW1 4573   2.475   1.649   1.341
 1520SOL    HW2 4574   2.569   1.564   1.239
 1521SOL     OW 4575   3.214   0.052   0.168
 1521SOL    HW1 4576   3.249   0.011   0.084
 1521SOL    HW2 4577   3.124   0.014   0.188
 1522SOL     OW 4578   3.162   0.453   0.691
 1522SOL    HW1 4579   3.103   0.533   0.695
 1522SOL    HW2 4580   3.177   0.418   0.784
 1523SOL     OW 4581   3.455   0.221   0.882
 1523SOL    HW1 4582   3.371   0.220   0.936
 1523SOL    HW2 4583   3.457   0.304   0.826
 1524SOL     OW 4584   1.901   1.077   0.300
 1524SOL    HW1 4585   2.000   1.066   0.291
 1524SOL    HW2 4586   1.861   0.991   0.332
 1525SOL     OW 4587   2.737   1.646   0.337
 1525SOL    HW1 4588   2.660   1.611   0.283
 1525SOL    HW2 4589   2.705   1.717   0.399
 1526SOL     OW 4590   2.092   0.628   1.975
 1526SOL    HW1 4591   1.999   0.626   2.012
 1526SOL    HW2 4592   2.093   0.589   1.883
 1527SOL     OW 4593   2.087   0.275   2.858
 1527SOL    HW1 4594   2.122   0.258   2.950
 1527SOL    HW2 4595   1.999   0.230   2.846
 1528SOL     OW 4596   1.881   0.368   2.509
 1528SOL    HW1 4597   1.799   0.411   2.548
 1528SOL    HW2 4598   1.853   0.295   2.446
 1529SOL     OW 4599   2.431   1.275   3.027
 1529SOL    HW1 4600   2.338   1.268   2.990
 1529SOL    HW2 4601   2.442   1.364   3.071
 1530SOL     OW 4602   3.417   1.511   2.565
 1530SOL    HW1 4603   3.360   1.495   2.646
 1530SOL    HW2 4604   3.358   1.521   2.485
 1531SOL     OW 4605   2.997   0.703   2.579
 1531SOL    HW1 4606   3.054   0.781   2.554
 1531SOL    HW2 4607   2.937   0.729   2.655
 1532SOL     OW 4608   3.617   0.607   2.093
 1532SOL    HW1 4609   3.605   0.594   1.994
 1532SOL    HW2 4610   3.587   0.526   2.142
 1533SOL     OW 4611   2.630   1.144   2.885
 1533SOL    HW1 4612   2.552   1.161   2.945
 1533SOL    HW2 4613   2.664   1.231   2.849
 1534SOL     OW 4614   2.712   0.798   3.685
 1534SOL    HW1 4615   2.708   0.874   3.750
 1534SOL    HW2 4616   2.734   0.834   3.594
 1535SOL     OW 4617   2.547   1.012   2.527
 1535SOL    HW1 4618   2.616   0.996   2.597
 1535SOL    HW2 4619   2.474   1.069   2.565
 1536SOL     OW 4620   2.548   1.161   3.665
 1536SOL    HW1 4621   2.608   1.240   3.679
 1536SOL    HW2 4622   2.462   1.192   3.624
 1537SOL     OW 4623   2.197   1.435   2.923
 1537SOL    HW1 4624   2.119   1.404   2.870
 1537SOL    HW2 4625   2.255   1.493   2.866
 1538SOL     OW 4626   3.322   1.505   3.201
 1538SOL    HW1 4627   3.346   1.599   3.227
 1538SOL    HW2 4628   3.306   1.451   3.283
 1539SOL     OW 4629   2.300   0.392   3.361
 1539SOL    HW1 4630   2.382   0.336   3.370
 1539SOL    HW2 4631   2.219   0.334   3.365
 1540SOL     OW 4632   3.465   0.447   2.599
 1540SOL    HW1 4633   3.391   0.493   2.549
 1540SOL    HW2 4634   3.516   0.515   2.652
 1541SOL     OW 4635   2.093   1.713   2.345
 1541SOL    HW1 4636   2.127   1.790   2.399
 1541SOL    HW2 4637   2.137   1.713   2.255
 1542SOL     OW 4638   2.989   1.341   3.552
 1542SOL    HW1 4639   3.036   1.341   3.640
 1542SOL    HW2 4640   2.941   1.254   3.541
 1543SOL     OW 4641   2.092   1.434   2.400
 1543SOL    HW1 4642   2.066   1.530   2.400
 1543SOL    HW2 4643   2.021   1.380   2.445
 1544SOL     OW 4644   2.102   1.091   2.748
 1544SOL    HW1 4645   2.116   1.007   2.800
 1544SOL    HW2 4646   2.047   1.155   2.803
 1545SOL     OW 4647   2.482   1.786   3.301
 1545SOL    HW1 4648   2.390   1.769   3.336
 1545SOL    HW2 4649   2.510   1.878   3.327
 1546SOL     OW 4650   2.468   0.964   1.985
 1546SOL    HW1 4651   2.475   1.048   1.931
 1546SOL    HW2 4652   2.514   0.977   2.073
 1547SOL     OW 4653   3.456   0.114   3.342
 1547SOL    HW1 4654   3.438   0.181   3.270
 1547SOL    HW2 4655   3.453   0.160   3.431
 1548SOL     OW 4656   1.984   0.643   2.425
 1548SOL    HW1 4657   1.939   0.555   2.442
 1548SOL    HW2 4658   1.983   0.697   2.509
 1549SOL     OW 4659   3.704   1.767   2.221
 1549SOL    HW1 4660   3.758   1.738   2.301
 1549SOL    HW2 4661   3.734   1.857   2.192
 1550SOL     OW 4662   1.889   1.596   1.979
 1550SOL    HW1 4663   1.870   1.500   2.000
 1550SOL    HW2 4664   1.856   1.654   2.054
 1551SOL     OW 4665   3.551   0.922   2.474
 1551SOL    HW1 4666   3.646   0.893   2.482
 1551SOL    HW2 4667   3.543   0.987   2.399
 1552SOL     OW 4668   3.503   1.108   2.294
 1552SOL    HW1 4669   3.589   1.110   2.242
 1552SOL    HW2 4670   3.517   1.155   2.382
 1553SOL     OW 4671   1.975   0.737   3.459
 1553SOL    HW1 4672   2.063   0.724   3.504
 1553SOL    HW2 4673   1.962   0.834   3.437
 1554SOL     OW 4674   2.475   1.365   2.588
 1554SOL    HW1 4675   2.426   1.278   2.597
 1554SOL    HW2 4676   2.452   1.408   2.501
 1555SOL     OW 4677   3.155   1.228   3.285
 1555SOL    HW1 4678   3.192   1.155   3.227
 1555SOL    HW2 4679   3.207   1.233   3.370
 1556SOL     OW 4680   2.671   0.004   2.364
 1556SOL    HW1 4681   2.711   0.095   2.355
 1556SOL    HW2 4682   2.571   0.012   2.370
 1557SOL     OW 4683   2.059   0.976   3.126
 1557SOL    HW1 4684   2.148   0.931   3.112
 1557SOL    HW2 4685   1.986   0.911   3.107
 1558SOL     OW 4686   3.387   0.999   2.052
 1558SOL    HW1 4687   3.324   0.923   2.065
 1558SOL    HW2 4688   3.435   1.017   2.138
 1559SOL     OW 4689   3.049   1.792   3.478
 1559SOL    HW1 4690   3.073   1.852   3.402
 1559SOL    HW2 4691   3.056   1.697   3.448
 1560SOL     OW 4692   2.179   0.251   3.663
 1560SOL    HW1 4693   2.250   0.322   3.669
 1560SOL    HW2 4694   2.091   0.290   3.691
 1561SOL     OW 4695   3.328   1.417   2.815
 1561SOL    HW1 4696   3.269   1.423   2.895
 1561SOL    HW2 4697   3.313   1.329   2.769
 1562SOL     OW 4698   3.529   1.714   2.434
 1562SOL    HW1 4699   3.488   1.691   2.346
 1562SOL    HW2 4700   3.511   1.640   2.499
 1563SOL     OW 4701   2.460   0.729   2.132
 1563SOL    HW1 4702   2.484   0.798   2.064
 1563SOL    HW2 4703   2.382   0.762   2.186
 1564SOL     OW 4704   3.143   0.345   2.806
 1564SOL    HW1 4705   3.057   0.295   2.793
 1564SOL    HW2 4706   3.205   0.291   2.862
 1565SOL     OW 4707   3.438   1.662   2.169
 1565SOL    HW1 4708   3.527   1.708   2.172
 1565SOL    HW2 4709   3.417   1.638   2.074
 1566SOL     OW 4710   2.669   0.605   3.327
 1566SOL    HW1 4711   2.622   0.602   3.416
 1566SOL    HW2 4712   2.618   0.550   3.261
 1567SOL     OW 4713   3.256   0.469   3.536
 1567SOL    HW1 4714   3.236   0.512   3.624
 1567SOL    HW2 4715   3.334   0.407   3.545
 1568SOL     OW 4716   2.835   0.890   3.434
 1568SOL    HW1 4717   2.881   0.806   3.405
 1568SOL    HW2 4718   2.779   0.924   3.359
 1569SOL     OW 4719   2.853   0.410   3.104
 1569SOL    HW1 4720   2.776   0.444   3.158
 1569SOL    HW2 4721   2.819   0.359   3.025
 1570SOL     OW 4722   2.903   0.701   2.291
 1570SOL    HW1 4723   2.929   0.697   2.387
 1570SOL    HW2 4724   2.818   0.650   2.277
 1571SOL     OW 4725   1.938   0.811   2.651
 1571SOL    HW1 4726   2.037   0.799   2.660
 1571SOL    HW2 4727   1.914   0.906   2.672
 1572SOL     OW 4728   1.992   1.821   3.433
 1572SOL    HW1 4729   1.982   1.806   3.532
 1572SOL    HW2 4730   1.906   1.857   3.397
 1573SOL     OW 4731   2.727   0.348   2.057
 1573SOL    HW1 4732   2.786   0.411   2.008
 1573SOL    HW2 4733   2.746   0.254   2.028
 1574SOL     OW 4734   3.581   0.585   3.693
 1574SOL    HW1 4735   3.555   0.674   3.657
 1574SOL    HW2 4736   3.579   0.517   3.620
 1575SOL     OW 4737   3.224   1.144   2.407
 1575SOL    HW1 4738   3.307   1.115   2.359
 1575SOL    HW2 4739   3.175   1.211   2.351
 1576SOL     OW 4740   2.412   0.196   2.747
 1576SOL    HW1 4741   2.407   0.191   2.847
 1576SOL    HW2 4742   2.414   0.292   2.718
 1577SOL     OW 4743   2.870   1.456   2.339
 1577SOL    HW1 4744   2.824   1.528   2.287
 1577SOL    HW2 4745   2.866   1.476   2.437
 1578SOL     OW 4746   2.213   1.801   2.715
 1578SOL    HW1 4747   2.263   1.715   2.721
 1578SOL    HW2 4748   2.278   1.878   2.712
 1579SOL     OW 4749   3.657   1.066   2.735
 1579SOL    HW1 4750   3.595   1.051   2.659
 1579SOL    HW2 4751   3.605   1.077   2.820
 1580SOL     OW 4752   3.089   1.550   3.368
 1580SOL    HW1 4753   3.095   1.473   3.432
 1580SOL    HW2 4754   3.037   1.524   3.288
 1581SOL     OW 4755   2.183   0.943   2.104
 1581SOL    HW1 4756   2.265   0.982   2.062
 1581SOL    HW2 4757   2.156   0.861   2.055
 1582SOL     OW 4758   3.320   0.735   2.590
 1582SOL    HW1 4759   3.315   0.670   2.665
 1582SOL    HW2 4760   3.400   0.794   2.603
 1583SOL     OW 4761   2.323   1.266   3.589
 1583SOL    HW1 4762   2.273   1.267   3.503
 1583SOL    HW2 4763   2.260   1.248   3.665
 1584SOL     OW 4764   2.973   1.776   2.099
 1584SOL    HW1 4765   2.913   1.714   2.149
 1584SOL    HW2 4766   3.004   1.732   2.014
 1585SOL     OW 4767   2.064   0.285   3.360
 1585SOL    HW1 4768   1.984   0.345   3.347
 1585SOL    HW2 4769   2.054   0.236   3.446
 1586SOL     OW 4770   3.494   1.377   1.943
 1586SOL    HW1 4771   3.462   1.471   1.933
 1586SOL    HW2 4772   3.418   1.314   1.931
 1587SOL     OW 4773   2.326   1.743   2.185
 1587SOL    HW1 4774   2.359   1.782   2.271
 1587SOL    HW2 4775   2.402   1.736   2.120
 1588SOL     OW 4776   3.262   0.107   2.288
 1588SOL    HW1 4777   3.238   0.070   2.198
 1588SOL    HW2 4778   3.361   0.123   2.292
 1589SOL     OW 4779   2.111   1.785   3.103
 1589SOL    HW1 4780   2.168   1.720   3.153
 1589SOL    HW2 4781   2.095   1.752   3.010
 1590SOL     OW 4782   2.802   1.698   2.766
 1590SOL    HW1 4783   2.882   1.641   2.787
 1590SOL    HW2 4784   2.753   1.658   2.689
 1591SOL     OW 4785   2.244   0.700   2.342
 1591SOL    HW1 4786   2.289   0.610   2.339
 1591SOL    HW2 4787   2.150   0.689   2.375
 1592SOL     OW 4788   3.409   0.222   3.591
 1592SOL    HW1 4789   3.404   0.259   3.683
 1592SOL    HW2 4790   3.337   0.153   3.579
 1593SOL     OW 4791   2.476   0.122   1.979
 1593SOL    HW1 4792   2.574   0.100   1.986
 1593SOL    HW2 4793   2.445   0.105   1.886
 1594SOL     OW 4794   2.643   0.264   3.611
 1594SOL    HW1 4795   2.710   0.203   3.654
 1594SOL    HW2 4796   2.570   0.283   3.676
 1595SOL     OW 4797   2.750   1.514   3.057
 1595SOL    HW1 4798   2.727   1.489   2.963
 1595SOL    HW2 4799   2.811   1.445   3.096
 1596SOL     OW 4800   3.213   0.590   3.295
 1596SOL    HW1 4801   3.241   0.547   3.380
 1596SOL    HW2 4802   3.238   0.686   3.296
 1597SOL     OW 4803   2.665   1.402   2.786
 1597SOL    HW1 4804   2.755   1.416   2.744
 1597SOL    HW2 4805   2.594   1.404   2.715
 1598SOL     OW 4806   2.784   0.503   2.761
 1598SOL    HW1 4807   2.759   0.494   2.665
 1598SOL    HW2 4808   2.832   0.421   2.792
 1599SOL     OW 4809   2.401   0.064   2.374
 1599SOL    HW1 4810   2.320   0.065   2.432
 1599SOL    HW2 4811   2.404   0.147   2.319
 1600SOL     OW 4812   3.296   1.188   1.903
 1600SOL    HW1 4813   3.328   1.112   1.960
 1600SOL    HW2 4814   3.204   1.215   1.933
 1601SOL     OW 4815   2.159   0.035   2.033
 1601SOL    HW1 4816   2.208   0.119   2.012
 1601SOL    HW2 4817   2.221  -0.030   2.078
 1602SOL     OW 4818   2.797   0.236   2.342
 1602SOL    HW1 4819   2.749   0.277   2.264
 1602SOL    HW2 4820   2.896   0.234   2.323
 1603SOL     OW 4821   2.938   0.683   3.326
 1603SOL    HW1 4822   2.858   0.622   3.329
 1603SOL    HW2 4823   3.019   0.630   3.302
 1604SOL     OW 4824   3.089   1.570   2.655
 1604SOL    HW1 4825   3.110   1.644   2.590
 1604SOL    HW2 4826   3.157   1.570   2.728
 1605SOL     OW 4827   2.321   1.152   2.603
 1605SOL    HW1 4828   2.250   1.125   2.668
 1605SOL    HW2 4829   2.295   1.124   2.510
 1606SOL     OW 4830   3.133   1.797   2.453
 1606SOL    HW1 4831   3.177   1.861   2.389
 1606SOL    HW2 4832   3.083   1.849   2.523
 1607SOL     OW 4833   2.894   0.549   1.878
 1607SOL    HW1 4834   2.853   0.631   1.839
 1607SOL    HW2 4835   2.958   0.575   1.951
 1608SOL     OW 4836   1.940   0.556   3.248
 1608SOL    HW1 4837   2.032   0.555   3.207
 1608SOL    HW2 4838   1.934   0.630   3.315
 1609SOL     OW 4839   2.423   0.222   3.009
 1609SOL    HW1 4840   2.461   0.138   3.046
 1609SOL    HW2 4841   2.335   0.241   3.053
 1610SOL     OW 4842   2.728   0.454   2.504
 1610SOL    HW1 4843   2.696   0.526   2.442
 1610SOL    HW2 4844   2.752   0.373   2.451
 1611SOL     OW 4845   2.879   0.039   2.615
 1611SOL    HW1 4846   2.807   0.044   2.546
 1611SOL    HW2 4847   2.855  -0.030   2.684
 1612SOL     OW 4848   3.291   1.173   2.729
 1612SOL    HW1 4849   3.236   1.089   2.722
 1612SOL    HW2 4850   3.317   1.202   2.637
 1613SOL     OW 4851   3.328   0.590   2.854
 1613SOL    HW1 4852   3.298   0.495   2.861
 1613SOL    HW2 4853   3.401   0.606   2.920
 1614SOL     OW 4854   3.719   0.833   2.239
 1614SOL    HW1 4855   3.761   0.769   2.303
 1614SOL    HW2 4856   3.681   0.782   2.161
 1615SOL     OW 4857   2.350   1.385   2.036
 1615SOL    HW1 4858   2.263   1.370   2.083
 1615SOL    HW2 4859   2.333   1.411   1.941
 1616SOL     OW 4860   3.526   1.280   2.519
 1616SOL    HW1 4861   3.625   1.288   2.533
 1616SOL    HW2 4862   3.481   1.364   2.550
 1617SOL     OW 4863   3.252   0.575   1.940
 1617SOL    HW1 4864   3.198   0.554   2.021
 1617SOL    HW2 4865   3.343   0.534   1.949
 1618SOL     OW 4866   2.389   0.256   2.190
 1618SOL    HW1 4867   2.416   0.197   2.115
 1618SOL    HW2 4868   2.389   0.351   2.159
 1619SOL     OW 4869   3.616   1.223   3.450
 1619SOL    HW1 4870   3.707   1.184   3.437
 1619SOL    HW2 4871   3.624   1.319   3.474
 1620SOL     OW 4872   2.926   1.347   3.202
 1620SOL    HW1 4873   2.846   1.324   3.257
 1620SOL    HW2 4874   3.009   1.321   3.251
 1621SOL     OW 4875   3.454   1.629   3.487
 1621SOL    HW1 4876   3.481   1.663   3.397
 1621SOL    HW2 4877   3.533   1.591   3.533
 1622SOL     OW 4878   2.973   1.195   2.962
 1622SOL    HW1 4879   2.933   1.239   3.043
 1622SOL    HW2 4880   2.932   1.232   2.879
 1623SOL     OW 4881   3.500   1.099   2.941
 1623SOL    HW1 4882   3.505   1.180   3.000
 1623SOL    HW2 4883   3.414   1.101   2.890
 1624SOL     OW 4884   2.777   0.089   3.264
 1624SOL    HW1 4885   2.802   0.069   3.169
 1624SOL    HW2 4886   2.849   0.145   3.306
 1625SOL     OW 4887   2.842   1.116   3.581
 1625SOL    HW1 4888   2.743   1.122   3.591
 1625SOL    HW2 4889   2.865   1.036   3.525
 1626SOL     OW 4890   2.567   1.050   2.230
 1626SOL    HW1 4891   2.553   1.057   2.329
 1626SOL    HW2 4892   2.651   0.999   2.212
 1627SOL     OW 4893   2.272   0.813   3.113
 1627SOL    HW1 4894   2.358   0.825   3.163
 1627SOL    HW2 4895   2.230   0.726   3.140
 1628SOL     OW 4896   3.136   0.386   3.124
 1628SOL    HW1 4897   3.157   0.460   3.188
 1628SOL    HW2 4898   3.047   0.403   3.081
 1629SOL     OW 4899   1.926   1.564   3.193
 1629SOL    HW1 4900   1.880   1.646   3.159
 1629SOL    HW2 4901   2.024   1.583   3.202
 1630SOL     OW 4902   2.229   1.100   2.363
 1630SOL    HW1 4903   2.222   1.183   2.307
 1630SOL    HW2 4904   2.233   1.020   2.303
 1631SOL     OW 4905   2.428   0.537   2.727
 1631SOL    HW1 4906   2.440   0.603   2.653
 1631SOL    HW2 4907   2.474   0.571   2.810
 1632SOL     OW 4908   3.114   1.348   2.250
 1632SOL    HW1 4909   3.164   1.425   2.290
 1632SOL    HW2 4910   3.019   1.350   2.282
 1633SOL     OW 4911   3.134   1.445   3.004
 1633SOL    HW1 4912   3.181   1.458   3.091
 1633SOL    HW2 4913   3.068   1.371   3.013
 1634SOL     OW 4914   3.444   0.639   2.334
 1634SOL    HW1 4915   3.413   0.700   2.407
 1634SOL    HW2 4916   3.494   0.691   2.265
 1635SOL     OW 4917   2.216   1.510   3.191
 1635SOL    HW1 4918   2.195   1.466   3.104
 1635SOL    HW2 4919   2.313   1.536   3.194
 1636SOL     OW 4920   2.264   0.751   3.460
 1636SOL    HW1 4921   2.332   0.806   3.413
 1636SOL    HW2 4922   2.304   0.663   3.487
 1637SOL     OW 4923   3.449   0.779   3.532
 1637SOL    HW1 4924   3.357   0.817   3.527
 1637SOL    HW2 4925   3.509   0.826   3.467
 1638SOL     OW 4926   2.875   0.105   3.632
 1638SOL    HW1 4927   2.881   0.190   3.580
 1638SOL    HW2 4928   2.907   0.029   3.575
 1639SOL     OW 4929   2.366   0.050   3.602
 1639SOL    HW1 4930   2.324  -0.007   3.532
 1639SOL    HW2 4931   2.300   0.119   3.634
 1640SOL     OW 4932   2.435   0.870   2.891
 1640SOL    HW1 4933   2.479   0.959   2.882
 1640SOL    HW2 4934   2.372   0.870   2.968
 1641SOL     OW 4935   3.222   0.862   2.907
 1641SOL    HW1 4936   3.147   0.862   2.841
 1641SOL    HW2 4937   3.259   0.770   2.916
 1642SOL     OW 4938   3.071   0.525   2.137
 1642SOL    HW1 4939   3.084   0.441   2.191
 1642SOL    HW2 4940   3.042   0.599   2.197
 1643SOL     OW 4941   2.169   0.213   3.093
 1643SOL    HW1 4942   2.146   0.250   3.183
 1643SOL    HW2 4943   2.139   0.118   3.087
 1644SOL     OW 4944   1.899   1.310   3.144
 1644SOL    HW1 4945   1.952   1.261   3.212
 1644SOL    HW2 4946   1.921   1.408   3.149
 1645SOL     OW 4947   2.594   0.634   2.926
 1645SOL    HW1 4948   2.653   0.608   2.850
 1645SOL    HW2 4949   2.566   0.730   2.915
 1646SOL     OW 4950   3.590   0.935   3.716
 1646SOL    HW1 4951   3.544   0.928   3.627
 1646SOL    HW2 4952   3.528   0.979   3.782
 1647SOL     OW 4953   2.169   0.063   2.480
 1647SOL    HW1 4954   2.158   0.157   2.513
 1647SOL    HW2 4955   2.164   0.000   2.557
 1648SOL     OW 4956   3.484   0.367   2.236
 1648SOL    HW1 4957   3.486   0.291   2.300
 1648SOL    HW2 4958   3.436   0.444   2.276
 1649SOL     OW 4959   2.885   0.766   2.828
 1649SOL    HW1 4960   2.900   0.787   2.924
 1649SOL    HW2 4961   2.855   0.671   2.819
 1650SOL     OW 4962   2.842   1.573   3.562
 1650SOL    HW1 4963   2.822   1.617   3.474
 1650SOL    HW2 4964   2.881   1.482   3.546
 1651SOL     OW 4965   3.721   1.518   3.467
 1651SOL    HW1 4966   3.735   1.545   3.372
 1651SOL    HW2 4967   3.804   1.540   3.520
 1652SOL     OW 4968   2.212   0.898   3.666
 1652SOL    HW1 4969   2.288   0.942   3.714
 1652SOL    HW2 4970   2.247   0.851   3.584
 1653SOL     OW 4971   3.402   0.274   1.987
 1653SOL    HW1 4972   3.341   0.199   2.010
 1653SOL    HW2 4973   3.424   0.326   2.070
 1654SOL     OW 4974   3.165   0.838   1.904
 1654SOL    HW1 4975   3.199   0.745   1.919
 1654SOL    HW2 4976   3.183   0.865   1.809
 1655SOL     OW 4977   2.930   1.333   2.711
 1655SOL    HW1 4978   2.937   1.249   2.656
 1655SOL    HW2 4979   2.992   1.402   2.675
 1656SOL     OW 4980   2.181   0.810   2.811
 1656SOL    HW1 4981   2.274   0.846   2.816
 1656SOL    HW2 4982   2.175   0.725   2.863
 1657SOL     OW 4983   2.201   0.509   2.868
 1657SOL    HW1 4984   2.149   0.426   2.851
 1657SOL    HW2 4985   2.278   0.514   2.804
 1658SOL     OW 4986   3.000   0.380   3.540
 1658SOL    HW1 4987   2.955   0.443   3.604
 1658SOL    HW2 4988   3.093   0.411   3.523
 1659SOL     OW 4989   3.022   0.207   3.339
 1659SOL    HW1 4990   3.022   0.271   3.416
 1659SOL    HW2 4991   3.050   0.255   3.256
 1660SOL     OW 4992   1.870   1.326   2.062
 1660SOL    HW1 4993   1.777   1.347   2.031
 1660SOL    HW2 4994   1.880   1.227   2.075
 1661SOL     OW 4995   1.950   1.801   2.789
 1661SOL    HW1 4996   1.908   1.715   2.762
 1661SOL    HW2 4997   2.044   1.804   2.755
 1662SOL     OW 4998   2.366   1.568   2.772
 1662SOL    HW1 4999   2.432   1.642   2.781
 1662SOL    HW2 5000   2.410   1.489   2.730
 1663SOL     OW 5001   2.864   0.796   3.100
 1663SOL    HW1 5002   2.905   0.764   3.186
 1663SOL    HW2 5003   2.768   0.769   3.097
 1664SOL     OW 5004   1.902   0.544   2.976
 1664SOL    HW1 5005   1.987   0.511   2.935
 1664SOL    HW2 5006   1.915   0.559   3.074
 1665SOL     OW 5007   2.051   0.520   3.584
 1665SOL    HW1 5008   2.110   0.480   3.514
 1665SOL    HW2 5009   1.993   0.591   3.543
 1666SOL     OW 5010   3.231   0.950   3.522
 1666SOL    HW1 5011   3.270   1.039   3.542
 1666SOL    HW2 5012   3.241   0.930   3.425
 1667SOL     OW 5013   2.677   0.572   2.187
 1667SOL    HW1 5014   2.684   0.483   2.141
 1667SOL    HW2 5015   2.583   0.606   2.179
 1668SOL     OW 5016   3.519   0.604   3.068
 1668SOL    HW1 5017   3.481   0.535   3.130
 1668SOL    HW2 5018   3.601   0.568   3.024
 1669SOL     OW 5019   2.114   1.564   3.606
 1669SOL    HW1 5020   2.084   1.621   3.682
 1669SOL    HW2 5021   2.107   1.467   3.632
 1670SOL     OW 5022   2.533   0.464   3.131
 1670SOL    HW1 5023   2.499   0.375   3.101
 1670SOL    HW2 5024   2.559   0.518   3.051
 1671SOL     OW 5025   2.792   1.678   3.327
 1671SOL    HW1 5026   2.768   1.660   3.232
 1671SOL    HW2 5027   2.822   1.772   3.337
 1672SOL     OW 5028   2.335   0.500   2.053
 1672SOL    HW1 5029   2.396   0.580   2.057
 1672SOL    HW2 5030   2.240   0.531   2.060
 1673SOL     OW 5031   2.021   1.137   3.328
 1673SOL    HW1 5032   2.043   1.076   3.404
 1673SOL    HW2 5033   2.031   1.088   3.242
 1674SOL     OW 5034   3.209   1.059   3.096
 1674SOL    HW1 5035   3.233   0.996   3.022
 1674SOL    HW2 5036   3.119   1.099   3.078
 1675SOL     OW 5037   3.164   0.855   2.171
 1675SOL    HW1 5038   3.078   0.824   2.213
 1675SOL    HW2 5039   3.160   0.841   2.072
 1676SOL     OW 5040   3.621   1.747   3.016
 1676SOL    HW1 5041   3.682   1.777   2.943
 1676SOL    HW2 5042   3.583   1.658   2.994
 1677SOL     OW 5043   3.114   1.731   2.990
 1677SOL    HW1 5044   3.198   1.736   2.936
 1677SOL    HW2 5045   3.091   1.635   3.008
 1678SOL     OW 5046   1.945   1.258   2.884
 1678SOL    HW1 5047   1.940   1.257   2.984
 1678SOL    HW2 5048   1.862   1.217   2.846
 1679SOL     OW 5049   2.550   1.662   3.578
 1679SOL    HW1 5050   2.494   1.743   3.587
 1679SOL    HW2 5051   2.602   1.666   3.492
 1680SOL     OW 5052   3.588   0.135   2.385
 1680SOL    HW1 5053   3.661   0.118   2.318
 1680SOL    HW2 5054   3.557   0.048   2.423
 1681SOL     OW 5055   3.250   1.573   2.339
 1681SOL    HW1 5056   3.317   1.585   2.265
 1681SOL    HW2 5057   3.210   1.662   2.362
 1682SOL     OW 5058   1.992   1.794   3.713
 1682SOL    HW1 5059   1.951   1.720   3.766
 1682SOL    HW2 5060   2.056   1.845   3.771
 1683SOL     OW 5061   3.142   0.927   2.534
 1683SOL    HW1 5062   3.202   0.846   2.536
 1683SOL    HW2 5063   3.182   0.996   2.474
 1684SOL     OW 5064   2.692   1.273   3.284
 1684SOL    HW1 5065   2.687   1.306   3.379
 1684SOL    HW2 5066   2.606   1.292   3.238
 1685SOL     OW 5067   2.534   1.616   2.016
 1685SOL    HW1 5068   2.543   1.626   1.917
 1685SOL    HW2 5069   2.494   1.527   2.037
 1686SOL     OW 5070   3.512   1.720   3.256
 1686SOL    HW1 5071   3.565   1.730   3.172
 1686SOL    HW2 5072   3.485   1.810   3.290
 1687SOL     OW 5073   3.703   0.175   2.825
 1687SOL    HW1 5074   3.742   0.090   2.789
 1687SOL    HW2 5075   3.605   0.177   2.806
 1688SOL     OW 5076   2.125   0.326   2.582
 1688SOL    HW1 5077   2.046   0.377   2.548
 1688SOL    HW2 5078   2.116   0.311   2.680
 1689SOL     OW 5079   3.056   1.612   1.893
 1689SOL    HW1 5080   3.062   1.519   1.930
 1689SOL    HW2 5081   2.997   1.612   1.813
 1690SOL     OW 5082   2.684   1.002   3.234
 1690SOL    HW1 5083   2.724   1.001   3.142
 1690SOL    HW2 5084   2.694   1.094   3.274
 1691SOL     OW 5085   2.778   0.910   2.153
 1691SOL    HW1 5086   2.841   0.948   2.085
 1691SOL    HW2 5087   2.818   0.827   2.192
 1692SOL     OW 5088   3.366   1.607   1.906
 1692SOL    HW1 5089   3.274   1.644   1.913
 1692SOL    HW2 5090   3.404   1.627   1.816
 1693SOL     OW 5091   2.234   1.288   3.352
 1693SOL    HW1 5092   2.221   1.381   3.318
 1693SOL    HW2 5093   2.150   1.236   3.339
 1694SOL     OW 5094   3.476   1.292   3.151
 1694SOL    HW1 5095   3.536   1.295   3.231
 1694SOL    HW2 5096   3.401   1.356   3.164
 1695SOL     OW 5097   2.901   1.098   2.558
 1695SOL    HW1 5098   2.831   1.051   2.612
 1695SOL    HW2 5099   2.960   1.030   2.515
 1696SOL     OW 5100   2.876   0.236   2.833
 1696SOL    HW1 5101   2.868   0.200   2.740
 1696SOL    HW2 5102   2.874   0.160   2.898
 1697SOL     OW 5103   2.452   1.487   2.353
 1697SOL    HW1 5104   2.494   1.429   2.283
 1697SOL    HW2 5105   2.408   1.566   2.309
 1698SOL     OW 5106   3.571   0.385   3.243
 1698SOL    HW1 5107   3.644   0.454   3.247
 1698SOL    HW2 5108   3.599   0.310   3.184
 1699SOL     OW 5109   2.117   1.348   2.152
 1699SOL    HW1 5110   2.021   1.349   2.125
 1699SOL    HW2 5111   2.129   1.401   2.236
 1700SOL     OW 5112   1.967   1.013   3.588
 1700SOL    HW1 5113   1.890   0.980   3.642
 1700SOL    HW2 5114   2.052   0.983   3.630
 1701SOL     OW 5115   2.534   0.203   3.351
 1701SOL    HW1 5116   2.624   0.187   3.311
 1701SOL    HW2 5117   2.542   0.208   3.450
 1702SOL     OW 5118   1.937   0.345   1.895
 1702SOL    HW1 5119   1.845   0.317   1.866
 1702SOL    HW2 5120   1.968   0.422   1.839
 1703SOL     OW 5121   3.302   0.856   3.260
 1703SOL    HW1 5122   3.245   0.908   3.197
 1703SOL    HW2 5123   3.398   0.868   3.236
 1704SOL     OW 5124   1.934   0.166   2.180
 1704SOL    HW1 5125   1.917   0.249   2.126
 1704SOL    HW2 5126   2.024   0.129   2.158
 1705SOL     OW 5127   3.045   1.335   1.981
 1705SOL    HW1 5128   2.946   1.324   1.983
 1705SOL    HW2 5129   3.079   1.350   2.074
 1706SOL     OW 5130   2.475   0.842   3.293
 1706SOL    HW1 5131   2.531   0.923   3.276
 1706SOL    HW2 5132   2.534   0.762   3.296
 1707SOL     OW 5133   3.355   1.767   2.821
 1707SOL    HW1 5134   3.388   1.831   2.752
 1707SOL    HW2 5135   3.421   1.761   2.896
 1708SOL     OW 5136   2.578   0.565   3.570
 1708SOL    HW1 5137   2.597   0.630   3.644
 1708SOL    HW2 5138   2.638   0.485   3.579
 1709SOL     OW 5139   3.312   1.220   3.495
 1709SOL    HW1 5140   3.303   1.210   3.594
 1709SOL    HW2 5141   3.408   1.213   3.469
 1710SOL     OW 5142   2.252   1.741   3.422
 1710SOL    HW1 5143   2.161   1.782   3.420
 1710SOL    HW2 5144   2.245   1.647   3.454
 1711SOL     OW 5145   3.536   0.883   3.116
 1711SOL    HW1 5146   3.509   0.794   3.079
 1711SOL    HW2 5147   3.537   0.951   3.043
 1712SOL     OW 5148   3.087   0.325   2.311
 1712SOL    HW1 5149   3.152   0.251   2.300
 1712SOL    HW2 5150   3.107   0.375   2.395
 1713SOL     OW 5151   2.456   0.745   2.514
 1713SOL    HW1 5152   2.506   0.830   2.495
 1713SOL    HW2 5153   2.368   0.747   2.466
 1714SOL     OW 5154   3.639   0.342   3.504
 1714SOL    HW1 5155   3.622   0.373   3.410
 1714SOL    HW2 5156   3.555   0.305   3.542
 1715SOL     OW 5157   3.592   0.934   3.379
 1715SOL    HW1 5158   3.630   1.025   3.394
 1715SOL    HW2 5159   3.584   0.917   3.280
 1716SOL     OW 5160   2.721   1.374   1.878
 1716SOL    HW1 5161   2.675   1.389   1.966
 1716SOL    HW2 5162   2.765   1.459   1.848
 1717SOL     OW 5163   2.523   1.790   2.815
 1717SOL    HW1 5164   2.477   1.878   2.802
 1717SOL    HW2 5165   2.622   1.802   2.808
 1718SOL     OW 5166   2.721   0.956   2.723
 1718SOL    HW1 5167   2.775   0.887   2.771
 1718SOL    HW2 5168   2.689   1.025   2.789
 1719SOL     OW 5169   2.945   0.984   1.949
 1719SOL    HW1 5170   2.922   1.037   1.867
 1719SOL    HW2 5171   3.026   0.928   1.930
 1720SOL     OW 5172   3.723   1.569   2.713
 1720SOL    HW1 5173   3.652   1.557   2.643
 1720SOL    HW2 5174   3.724   1.490   2.773
 1721SOL     OW 5175   2.083   1.314   3.706
 1721SOL    HW1 5176   2.018   1.241   3.685
 1721SOL    HW2 5177   2.087   1.328   3.804
 1722SOL     OW 5178   1.941   1.240   2.515
 1722SOL    HW1 5179   1.940   1.193   2.603
 1722SOL    HW2 5180   2.023   1.212   2.464
 1723SOL     OW 5181   2.534   1.391   3.486
 1723SOL    HW1 5182   2.456   1.341   3.524
 1723SOL    HW2 5183   2.531   1.486   3.517
 1724SOL     OW 5184   3.686   0.192   3.089
 1724SOL    HW1 5185   3.682   0.102   3.133
 1724SOL    HW2 5186   3.689   0.181   2.990
 1725SOL     OW 5187   2.290   0.424   2.382
 1725SOL    HW1 5188   2.320   0.352   2.320
 1725SOL    HW2 5189   2.251   0.384   2.465
 1726SOL     OW 5190   3.567   1.487   2.966
 1726SOL    HW1 5191   3.474   1.462   2.939
 1726SOL    HW2 5192   3.593   1.437   3.048
 1727SOL     OW 5193   2.179   0.547   3.142
 1727SOL    HW1 5194   2.217   0.488   3.214
 1727SOL    HW2 5195   2.219   0.521   3.054
 1728SOL     OW 5196   2.674   1.586   2.549
 1728SOL    HW1 5197   2.706   1.596   2.455
 1728SOL    HW2 5198   2.595   1.524   2.551
 1729SOL     OW 5199   3.286   0.214   2.974
 1729SOL    HW1 5200   3.338   0.149   3.029
 1729SOL    HW2 5201   3.237   0.277   3.035
 1730SOL     OW 5202   2.863   0.034   3.016
 1730SOL    HW1 5203   2.800  -0.038   2.985
 1730SOL    HW2 5204   2.956  -0.002   3.016
 1731SOL     OW 5205   2.632   1.330   2.163
 1731SOL    HW1 5206   2.586   1.243   2.180
 1731SOL    HW2 5207   2.723   1.327   2.204
 1732SOL     OW 5208   2.480   1.567   3.146
 1732SOL    HW1 5209   2.475   1.649   3.203
 1732SOL    HW2 5210   2.569   1.564   3.101
 1733SOL     OW 5211   3.214   0.052   2.030
 1733SOL    HW1 5212   3.249   0.011   1.946
 1733SOL    HW2 5213   3.124   0.014   2.050
 1734SOL     OW 5214   3.162   0.453   2.553
 1734SOL    HW1 5215   3.103   0.533   2.557
 1734SOL    HW2 5216   3.177   0.418   2.646
 1735SOL     OW 5217   3.455   0.221   2.744
 1735SOL    HW1 5218   3.371   0.220   2.798
 1735SOL    HW2 5219   3.457   0.304   2.688
 1736SOL     OW 5220   1.901   1.077   2.162
 1736SOL    HW1 5221   2.000   1.066   2.153
 1736SOL    HW2 5222   1.861   0.991   2.194
 1737SOL     OW 5223   2.737   1.646   2.199
 1737SOL    HW1 5224   2.660   1.611   2.145
 1737SOL    HW2 5225   2.705   1.717   2.261
 1738SOL     OW 5226   2.092   0.628   3.837
 1738SOL    HW1 5227   1.999   0.626   3.874
 1738SOL    HW2 5228   2.093   0.589   3.745
 1739SOL     OW 5229   2.087   0.275   4.720
 1739SOL    HW1 5230   2.122   0.258   4.812
 1739SOL    HW2 5231   1.999   0.230   4.708
 1740SOL     OW 5232   1.881   0.368   4.371
 1740SOL    HW1 5233   1.799   0.411   4.410
 1740SOL    HW2 5234   1.853   0.295   4.308
 1741SOL     OW 5235   3.417   1.511   4.427
 1741SOL    HW1 5236   3.360   1.495   4.508
 1741SOL    HW2 5237   3.358   1.521   4.347
 1742SOL     OW 5238   2.997   0.703   4.441
 1742SOL    HW1 5239   3.054   0.781   4.416
 1742SOL    HW2 5240   2.937   0.729   4.517
 1743SOL     OW 5241   3.617   0.607   3.955
 1743SOL    HW1 5242   3.605   0.594   3.856
 1743SOL    HW2 5243   3.587   0.526   4.004
 1744SOL     OW 5244   2.630   1.144   4.747
 1744SOL    HW1 5245   2.552   1.161   4.807
 1744SOL    HW2 5246   2.664   1.231   4.711
 1745SOL     OW 5247   2.547   1.012   4.389
 1745SOL    HW1 5248   2.616   0.996   4.459
 1745SOL    HW2 5249   2.474   1.069   4.427
 1746SOL     OW 5250   3.465   0.447   4.461
 1746SOL    HW1 5251   3.391   0.493   4.411
 1746SOL    HW2 5252   3.516   0.515   4.514
 1747SOL     OW 5253   2.093   1.713   4.207
 1747SOL    HW1 5254   2.127   1.790   4.261
 1747SOL    HW2 5255   2.137   1.713   4.117
 1748SOL     OW 5256   2.092   1.434   4.262
 1748SOL    HW1 5257   2.066   1.530   4.262
 1748SOL    HW2 5258   2.021   1.380   4.307
 1749SOL     OW 5259   2.102   1.091   4.610
 1749SOL    HW1 5260   2.116   1.007   4.662
 1749SOL    HW2 5261   2.047   1.155   4.665
 1750SOL     OW 5262   2.468   0.964   3.847
 1750SOL    HW1 5263   2.475   1.048   3.793
 1750SOL    HW2 5264   2.514   0.977   3.935
 1751SOL     OW 5265   1.984   0.643   4.287
 1751SOL    HW1 5266   1.939   0.555   4.304
 1751SOL    HW2 5267   1.983   0.697   4.371
 1752SOL     OW 5268   3.704   1.767   4.083
 1752SOL    HW1 5269   3.758   1.738   4.163
 1752SOL    HW2 5270   3.734   1.857   4.054
 1753SOL     OW 5271   1.889   1.596   3.841
 1753SOL    HW1 5272   1.870   1.500   3.862
 1753SOL    HW2 5273   1.856   1.654   3.916
 1754SOL     OW 5274   3.551   0.922   4.336
 1754SOL    HW1 5275   3.646   0.893   4.344
 1754SOL    HW2 5276   3.543   0.987   4.261
 1755SOL     OW 5277   3.503   1.108   4.156
 1755SOL    HW1 5278   3.589   1.110   4.104
 1755SOL    HW2 5279   3.517   1.155   4.244
 1756SOL     OW 5280   2.475   1.365   4.450
 1756SOL    HW1 5281   2.426   1.278   4.459
 1756SOL    HW2 5282   2.452   1.408   4.363
 1757SOL     OW 5283   2.671   0.004   4.226
 1757SOL    HW1 5284   2.711   0.095   4.217
 1757SOL    HW2 5285   2.571   0.012   4.232
 1758SOL     OW 5286   3.387   0.999   3.914
 1758SOL    HW1 5287   3.324   0.923   3.927
 1758SOL    HW2 5288   3.435   1.017   4.000
 1759SOL     OW 5289   3.529   1.714   4.296
 1759SOL    HW1 5290   3.488   1.691   4.208
 1759SOL    HW2 5291   3.511   1.640   4.361
 1760SOL     OW 5292   2.460   0.729   3.994
 1760SOL    HW1 5293   2.484   0.798   3.926
 1760SOL    HW2 5294   2.382   0.762   4.048
 1761SOL     OW 5295   3.143   0.345   4.668
 1761SOL    HW1 5296   3.057   0.295   4.655
 1761SOL    HW2 5297   3.205   0.291   4.724
 1762SOL     OW 5298   3.438   1.662   4.031
 1762SOL    HW1 5299   3.527   1.708   4.034
 1762SOL    HW2 5300   3.417   1.638   3.936
 1763SOL     OW 5301   2.903   0.701   4.153
 1763SOL    HW1 5302   2.929   0.697   4.249
 1763SOL    HW2 5303   2.818   0.650   4.139
 1764SOL     OW 5304   1.938   0.811   4.513
 1764SOL    HW1 5305   2.037   0.799   4.522
 1764SOL    HW2 5306   1.914   0.906   4.534
 1765SOL     OW 5307   2.727   0.348   3.919
 1765SOL    HW1 5308   2.786   0.411   3.870
 1765SOL    HW2 5309   2.746   0.254   3.890
 1766SOL     OW 5310   3.224   1.144   4.269
 1766SOL    HW1 5311   3.307   1.115   4.221
 1766SOL    HW2 5312   3.175   1.211   4.213
 1767SOL     OW 5313   2.870   1.456   4.201
 1767SOL    HW1 5314   2.824   1.528   4.149
 1767SOL    HW2 5315   2.866   1.476   4.299
 1768SOL     OW 5316   2.213   1.801   4.577
 1768SOL    HW1 5317   2.263   1.715   4.583
 1768SOL    HW2 5318   2.278   1.878   4.574
 1769SOL     OW 5319   3.657   1.066   4.597
 1769SOL    HW1 5320   3.595   1.051   4.521
 1769SOL    HW2 5321   3.605   1.077   4.682
 1770SOL     OW 5322   2.183   0.943   3.966
 1770SOL    HW1 5323   2.265   0.982   3.924
 1770SOL    HW2 5324   2.156   0.861   3.917
 1771SOL     OW 5325   3.320   0.735   4.452
 1771SOL    HW1 5326   3.315   0.670   4.527
 1771SOL    HW2 5327   3.400   0.794   4.465
 1772SOL     OW 5328   2.973   1.776   3.961
 1772SOL    HW1 5329   2.913   1.714   4.011
 1772SOL    HW2 5330   3.004   1.732   3.876
 1773SOL     OW 5331   3.494   1.377   3.805
 1773SOL    HW1 5332   3.462   1.471   3.795
 1773SOL    HW2 5333   3.418   1.314   3.793
 1774SOL     OW 5334   2.326   1.743   4.047
 1774SOL    HW1 5335   2.359   1.782   4.133
 1774SOL    HW2 5336   2.402   1.736   3.982
 1775SOL     OW 5337   3.262   0.107   4.150
 1775SOL    HW1 5338   3.238   0.070   4.060
 1775SOL    HW2 5339   3.361   0.123   4.154
 1776SOL     OW 5340   2.244   0.700   4.204
 1776SOL    HW1 5341   2.289   0.610   4.201
 1776SOL    HW2 5342   2.150   0.689   4.237
 1777SOL     OW 5343   2.476   0.122   3.841
 1777SOL    HW1 5344   2.574   0.100   3.848
 1777SOL    HW2 5345   2.445   0.105   3.748
 1778SOL     OW 5346   2.401   0.064   4.236
 1778SOL    HW1 5347   2.320   0.065   4.294
 1778SOL    HW2 5348   2.404   0.147   4.181
 1779SOL     OW 5349   3.296   1.188   3.765
 1779SOL    HW1 5350   3.328   1.112   3.822
 1779SOL    HW2 5351   3.204   1.215   3.795
 1780SOL     OW 5352   2.159   0.035   3.895
 1780SOL    HW1 5353   2.208   0.119   3.874
 1780SOL    HW2 5354   2.221  -0.030   3.940
 1781SOL     OW 5355   2.797   0.236   4.204
 1781SOL    HW1 5356   2.749   0.277   4.126
 1781SOL    HW2 5357   2.896   0.234   4.185
 1782SOL     OW 5358   2.321   1.152   4.465
 1782SOL    HW1 5359   2.250   1.125   4.530
 1782SOL    HW2 5360   2.295   1.124   4.372
 1783SOL     OW 5361   3.133   1.797   4.315
 1783SOL    HW1 5362   3.177   1.861   4.251
 1783SOL    HW2 5363   3.083   1.849   4.385
 1784SOL     OW 5364   2.894   0.549   3.740
 1784SOL    HW1 5365   2.853   0.631   3.701
 1784SOL    HW2 5366   2.958   0.575   3.813
 1785SOL     OW 5367   2.728   0.454   4.366
 1785SOL    HW1 5368   2.696   0.526   4.304
 1785SOL    HW2 5369   2.752   0.373   4.313
 1786SOL     OW 5370   2.879   0.039   4.477
 1786SOL    HW1 5371   2.807   0.044   4.408
 1786SOL    HW2 5372   2.855  -0.030   4.546
 1787SOL     OW 5373   3.719   0.833   4.101
 1787SOL    HW1 5374   3.761   0.769   4.165
 1787SOL    HW2 5375   3.681   0.782   4.023
 1788SOL     OW 5376   2.350   1.385   3.898
 1788SOL    HW1 5377   2.263   1.370   3.945
 1788SOL    HW2 5378   2.333   1.411   3.803
 1789SOL     OW 5379   3.526   1.280   4.381
 1789SOL    HW1 5380   3.625   1.288   4.395
 1789SOL    HW2 5381   3.481   1.364   4.412
 1790SOL     OW 5382   3.252   0.575   3.802
 1790SOL    HW1 5383   3.198   0.554   3.883
 1790SOL    HW2 5384   3.343   0.534   3.811
 1791SOL     OW 5385   2.389   0.256   4.052
 1791SOL    HW1 5386   2.416   0.197   3.977
 1791SOL    HW2 5387   2.389   0.351   4.021
 1792SOL     OW 5388   2.567   1.050   4.092
 1792SOL    HW1 5389   2.553   1.057   4.191
 1792SOL    HW2 5390   2.651   0.999   4.074
 1793SOL     OW 5391   2.229   1.100   4.225
 1793SOL    HW1 5392   2.222   1.183   4.169
 1793SOL    HW2 5393   2.233   1.020   4.165
 1794SOL     OW 5394   2.428   0.537   4.589
 1794SOL    HW1 5395   2.440   0.603   4.515
 1794SOL    HW2 5396   2.474   0.571   4.672
 1795SOL     OW 5397   3.114   1.348   4.112
 1795SOL    HW1 5398   3.164   1.425   4.152
 1795SOL    HW2 5399   3.019   1.350   4.144
 1796SOL     OW 5400   3.444   0.639   4.196
 1796SOL    HW1 5401   3.413   0.700   4.269
 1796SOL    HW2 5402   3.494   0.691   4.127
 1797SOL     OW 5403   3.071   0.525   3.999
 1797SOL    HW1 5404   3.084   0.441   4.053
 1797SOL    HW2 5405   3.042   0.599   4.059
 1798SOL     OW 5406   2.594   0.634   4.788
 1798SOL    HW1 5407   2.653   0.608   4.712
 1798SOL    HW2 5408   2.566   0.730   4.777
 1799SOL     OW 5409   2.169   0.063   4.342
 1799SOL    HW1 5410   2.158   0.157   4.375
 1799SOL    HW2 5411   2.164   0.000   4.419
 1800SOL     OW 5412   3.484   0.367   4.098
 1800SOL    HW1 5413   3.486   0.291   4.162
 1800SOL    HW2 5414   3.436   0.444   4.138
 1801SOL     OW 5415   3.402   0.274   3.849
 1801SOL    HW1 5416   3.341   0.199   3.872
 1801SOL    HW2 5417   3.424   0.326   3.932
 1802SOL     OW 5418   3.165   0.838   3.766
 1802SOL    HW1 5419   3.199   0.745   3.781
 1802SOL    HW2 5420   3.183   0.865   3.671
 1803SOL     OW 5421   2.930   1.333   4.573
 1803SOL    HW1 5422   2.937   1.249   4.518
 1803SOL    HW2 5423   2.992   1.402   4.537
 1804SOL     OW 5424   1.870   1.326   3.924
 1804SOL    HW1 5425   1.777   1.347   3.893
 1804SOL    HW2 5426   1.880   1.227   3.937
 1805SOL     OW 5427   1.950   1.801   4.651
 1805SOL    HW1 5428   1.908   1.715   4.624
 1805SOL    HW2 5429   2.044   1.804   4.617
 1806SOL     OW 5430   2.366   1.568   4.634
 1806SOL    HW1 5431   2.432   1.642   4.643
 1806SOL    HW2 5432   2.410   1.489   4.592
 1807SOL     OW 5433   2.677   0.572   4.049
 1807SOL    HW1 5434   2.684   0.483   4.003
 1807SOL    HW2 5435   2.583   0.606   4.041
 1808SOL     OW 5436   2.335   0.500   3.915
 1808SOL    HW1 5437   2.396   0.580   3.919
 1808SOL    HW2 5438   2.240   0.531   3.922
 1809SOL     OW 5439   3.164   0.855   4.033
 1809SOL    HW1 5440   3.078   0.824   4.075
 1809SOL    HW2 5441   3.160   0.841   3.934
 1810SOL     OW 5442   3.588   0.135   4.247
 1810SOL    HW1 5443   3.661   0.118   4.180
 1810SOL    HW2 5444   3.557   0.048   4.285
 1811SOL     OW 5445   3.250   1.573   4.201
 1811SOL    HW1 5446   3.317   1.585   4.127
 1811SOL    HW2 5447   3.210   1.662   4.224
 1812SOL     OW 5448   3.142   0.927   4.396
 1812SOL    HW1 5449   3.202   0.846   4.398
 1812SOL    HW2 5450   3.182   0.996   4.336
 1813SOL     OW 5451   2.534   1.616   3.878
 1813SOL    HW1 5452   2.543   1.626   3.779
 1813SOL    HW2 5453   2.494   1.527   3.899
 1814SOL     OW 5454   3.703   0.175   4.687
 1814SOL    HW1 5455   3.742   0.090   4.651
 1814SOL    HW2 5456   3.605   0.177   4.668
 1815SOL     OW 5457   2.125   0.326   4.444
 1815SOL    HW1 5458   2.046   0.377   4.410
 1815SOL    HW2 5459   2.116   0.311   4.542
 1816SOL     OW 5460   3.056   1.612   3.755
 1816SOL    HW1 5461   3.062   1.519   3.792
 1816SOL    HW2 5462   2.997   1.612   3.675
 1817SOL     OW 5463   2.778   0.910   4.015
 1817SOL    HW1 5464   2.841   0.948   3.947
 1817SOL    HW2 5465   2.818   0.827   4.054
 1818SOL     OW 5466   3.366   1.607   3.768
 1818SOL    HW1 5467   3.274   1.644   3.775
 1818SOL    HW2 5468   3.404   1.627   3.678
 1819SOL     OW 5469   2.901   1.098   4.420
 1819SOL    HW1 5470   2.831   1.051   4.474
 1819SOL    HW2 5471   2.960   1.030   4.377
 1820SOL     OW 5472   2.452   1.487   4.215
 1820SOL    HW1 5473   2.494   1.429   4.145
 1820SOL    HW2 5474   2.408   1.566   4.171
 1821SOL     OW 5475   2.117   1.348   4.014
 1821SOL    HW1 5476   2.021   1.349   3.987
 1821SOL    HW2 5477   2.129   1.401   4.098
 1822SOL     OW 5478   1.937   0.345   3.757
 1822SOL    HW1 5479   1.845   0.317   3.728
 1822SOL    HW2 5480   1.968   0.422   3.701
 1823SOL     OW 5481   1.934   0.166   4.042
 1823SOL    HW1 5482   1.917   0.249   3.988
 1823SOL    HW2 5483   2.024   0.129   4.020
 1824SOL     OW 5484   3.045   1.335   3.843
 1824SOL    HW1 5485   2.946   1.324   3.845
 1824SOL    HW2 5486   3.079   1.350   3.936
 1825SOL     OW 5487   3.087   0.325   4.173
 1825SOL    HW1 5488   3.152   0.251   4.162
 1825SOL    HW2 5489   3.107   0.375   4.257
 1826SOL     OW 5490   2.456   0.745   4.376
 1826SOL    HW1 5491   2.506   0.830   4.357
 1826SOL    HW2 5492   2.368   0.747   4.328
 1827SOL     OW 5493   2.721   1.374   3.740
 1827SOL    HW1 5494   2.675   1.389   3.828
 1827SOL    HW2 5495   2.765   1.459   3.710
 1828SOL     OW 5496   2.523   1.790   4.677
 1828SOL    HW1 5497   2.477   1.878   4.664
 1828SOL    HW2 5498   2.622   1.802   4.670
 1829SOL     OW 5499   2.721   0.956   4.585
 1829SOL    HW1 5500   2.775   0.887   4.633
 1829SOL    HW2 5501   2.689   1.025   4.651
 1830SOL     OW 5502   2.945   0.984   3.811
 1830SOL    HW1 5503   2.922   1.037   3.729
 1830SOL    HW2 5504   3.026   0.928   3.792
 1831SOL     OW 5505   3.723   1.569   4.575
 1831SOL    HW1 5506   3.652   1.557   4.505
 1831SOL    HW2 5507   3.724   1.490   4.635
 1832SOL     OW 5508   1.941   1.240   4.377
 1832SOL    HW1 5509   1.940   1.193   4.465
 1832SOL    HW2 5510   2.023   1.212   4.326
 1833SOL     OW 5511   3.686   0.192   4.951
 1833SOL    HW1 5512   3.682   0.102   4.995
 1833SOL    HW2 5513   3.689   0.181   4.852
 1834SOL     OW 5514   2.290   0.424   4.244
 1834SOL    HW1 5515   2.320   0.352   4.182
 1834SOL    HW2 5516   2.251   0.384   4.327
 1835SOL     OW 5517   2.674   1.586   4.411
 1835SOL    HW1 5518   2.706   1.596   4.317
 1835SOL    HW2 5519   2.595   1.524   4.413
 1836SOL     OW 5520   2.632   1.330   4.025
 1836SOL    HW1 5521   2.586   1.243   4.042
 1836SOL    HW2 5522   2.723   1.327   4.066
 1837SOL     OW 5523   3.214   0.052   3.892
 1837SOL    HW1 5524   3.249   0.011   3.808
 1837SOL    HW2 5525   3.124   0.014   3.912
 1838SOL     OW 5526   3.162   0.453   4.415
 1838SOL    HW1 5527   3.103   0.533   4.419
 1838SOL    HW2 5528   3.177   0.418   4.508
 1839SOL     OW 5529   1.901   1.077   4.024
 1839SOL    HW1 5530   2.000   1.066   4.015
 1839SOL    HW2 5531   1.861   0.991   4.056
 1840SOL     OW 5532   2.737   1.646   4.061
 1840SOL    HW1 5533   2.660   1.611   4.007
 1840SOL    HW2 5534   2.705   1.717   4.123
 1841SOL     OW 5535   2.092   2.490   0.113
 1841SOL    HW1 5536   1.999   2.488   0.150
 1841SOL    HW2 5537   2.093   2.451   0.021
 1842SOL     OW 5538   2.087   2.137   0.996
 1842SOL    HW1 5539   2.122   2.120   1.088
 1842SOL    HW2 5540   1.999   2.092   0.984
 1843SOL     OW 5541   1.881   2.230   0.647
 1843SOL    HW1 5542   1.799   2.273   0.686
 1843SOL    HW2 5543   1.853   2.157   0.584
 1844SOL     OW 5544   2.431   3.137   1.165
 1844SOL    HW1 5545   2.338   3.130   1.128
 1844SOL    HW2 5546   2.442   3.226   1.209
 1845SOL     OW 5547   3.417   3.373   0.703
 1845SOL    HW1 5548   3.360   3.357   0.784
 1845SOL    HW2 5549   3.358   3.383   0.623
 1846SOL     OW 5550   2.997   2.565   0.717
 1846SOL    HW1 5551   3.054   2.643   0.692
 1846SOL    HW2 5552   2.937   2.591   0.793
 1847SOL     OW 5553   3.617   2.469   0.231
 1847SOL    HW1 5554   3.605   2.456   0.132
 1847SOL    HW2 5555   3.587   2.388   0.280
 1848SOL     OW 5556   2.630   3.006   1.023
 1848SOL    HW1 5557   2.552   3.023   1.083
 1848SOL    HW2 5558   2.664   3.093   0.987
 1849SOL     OW 5559   2.712   2.660   1.823
 1849SOL    HW1 5560   2.708   2.736   1.888
 1849SOL    HW2 5561   2.734   2.696   1.732
 1850SOL     OW 5562   2.547   2.874   0.665
 1850SOL    HW1 5563   2.616   2.858   0.735
 1850SOL    HW2 5564   2.474   2.931   0.703
 1851SOL     OW 5565   2.548   3.023   1.803
 1851SOL    HW1 5566   2.608   3.102   1.817
 1851SOL    HW2 5567   2.462   3.054   1.762
 1852SOL     OW 5568   2.197   3.297   1.061
 1852SOL    HW1 5569   2.119   3.266   1.008
 1852SOL    HW2 5570   2.255   3.355   1.004
 1853SOL     OW 5571   3.322   3.367   1.339
 1853SOL    HW1 5572   3.346   3.461   1.365
 1853SOL    HW2 5573   3.306   3.313   1.421
 1854SOL     OW 5574   2.300   2.254   1.499
 1854SOL    HW1 5575   2.382   2.198   1.508
 1854SOL    HW2 5576   2.219   2.196   1.503
 1855SOL     OW 5577   3.465   2.309   0.737
 1855SOL    HW1 5578   3.391   2.355   0.687
 1855SOL    HW2 5579   3.516   2.377   0.790
 1856SOL     OW 5580   2.093   3.575   0.483
 1856SOL    HW1 5581   2.127   3.652   0.537
 1856SOL    HW2 5582   2.137   3.575   0.393
 1857SOL     OW 5583   2.989   3.203   1.690
 1857SOL    HW1 5584   3.036   3.203   1.778
 1857SOL    HW2 5585   2.941   3.116   1.679
 1858SOL     OW 5586   2.092   3.296   0.538
 1858SOL    HW1 5587   2.066   3.392   0.538
 1858SOL    HW2 5588   2.021   3.242   0.583
 1859SOL     OW 5589   2.102   2.953   0.886
 1859SOL    HW1 5590   2.116   2.869   0.938
 1859SOL    HW2 5591   2.047   3.017   0.941
 1860SOL     OW 5592   2.482   3.648   1.439
 1860SOL    HW1 5593   2.390   3.631   1.474
 1860SOL    HW2 5594   2.510   3.740   1.465
 1861SOL     OW 5595   2.468   2.826   0.123
 1861SOL    HW1 5596   2.475   2.910   0.069
 1861SOL    HW2 5597   2.514   2.839   0.211
 1862SOL     OW 5598   3.456   1.976   1.480
 1862SOL    HW1 5599   3.438   2.043   1.408
 1862SOL    HW2 5600   3.453   2.022   1.569
 1863SOL     OW 5601   1.984   2.505   0.563
 1863SOL    HW1 5602   1.939   2.417   0.580
 1863SOL    HW2 5603   1.983   2.559   0.647
 1864SOL     OW 5604   3.704   3.629   0.359
 1864SOL    HW1 5605   3.758   3.600   0.439
 1864SOL    HW2 5606   3.734   3.719   0.330
 1865SOL     OW 5607   1.889   3.458   0.117
 1865SOL    HW1 5608   1.870   3.362   0.138
 1865SOL    HW2 5609   1.856   3.516   0.192
 1866SOL     OW 5610   3.551   2.784   0.612
 1866SOL    HW1 5611   3.646   2.755   0.620
 1866SOL    HW2 5612   3.543   2.849   0.537
 1867SOL     OW 5613   3.503   2.970   0.432
 1867SOL    HW1 5614   3.589   2.972   0.380
 1867SOL    HW2 5615   3.517   3.017   0.520
 1868SOL     OW 5616   1.975   2.599   1.597
 1868SOL    HW1 5617   2.063   2.586   1.642
 1868SOL    HW2 5618   1.962   2.696   1.575
 1869SOL     OW 5619   2.475   3.227   0.726
 1869SOL    HW1 5620   2.426   3.140   0.735
 1869SOL    HW2 5621   2.452   3.270   0.639
 1870SOL     OW 5622   3.155   3.090   1.423
 1870SOL    HW1 5623   3.192   3.017   1.365
 1870SOL    HW2 5624   3.207   3.095   1.508
 1871SOL     OW 5625   2.671   1.866   0.502
 1871SOL    HW1 5626   2.711   1.957   0.493
 1871SOL    HW2 5627   2.571   1.874   0.508
 1872SOL     OW 5628   2.059   2.838   1.264
 1872SOL    HW1 5629   2.148   2.793   1.250
 1872SOL    HW2 5630   1.986   2.773   1.245
 1873SOL     OW 5631   3.387   2.861   0.190
 1873SOL    HW1 5632   3.324   2.785   0.203
 1873SOL    HW2 5633   3.435   2.879   0.276
 1874SOL     OW 5634   3.049   3.654   1.616
 1874SOL    HW1 5635   3.073   3.714   1.540
 1874SOL    HW2 5636   3.056   3.559   1.586
 1875SOL     OW 5637   2.179   2.113   1.801
 1875SOL    HW1 5638   2.250   2.184   1.807
 1875SOL    HW2 5639   2.091   2.152   1.829
 1876SOL     OW 5640   3.328   3.279   0.953
 1876SOL    HW1 5641   3.269   3.285   1.033
 1876SOL    HW2 5642   3.313   3.191   0.907
 1877SOL     OW 5643   3.529   3.576   0.572
 1877SOL    HW1 5644   3.488   3.553   0.484
 1877SOL    HW2 5645   3.511   3.502   0.637
 1878SOL     OW 5646   2.460   2.591   0.270
 1878SOL    HW1 5647   2.484   2.660   0.202
 1878SOL    HW2 5648   2.382   2.624   0.324
 1879SOL     OW 5649   3.143   2.207   0.944
 1879SOL    HW1 5650   3.057   2.157   0.931
 1879SOL    HW2 5651   3.205   2.153   1.000
 1880SOL     OW 5652   3.438   3.524   0.307
 1880SOL    HW1 5653   3.527   3.570   0.310
 1880SOL    HW2 5654   3.417   3.500   0.212
 1881SOL     OW 5655   2.669   2.467   1.465
 1881SOL    HW1 5656   2.622   2.464   1.554
 1881SOL    HW2 5657   2.618   2.412   1.399
 1882SOL     OW 5658   3.256   2.331   1.674
 1882SOL    HW1 5659   3.236   2.374   1.762
 1882SOL    HW2 5660   3.334   2.269   1.683
 1883SOL     OW 5661   2.835   2.752   1.572
 1883SOL    HW1 5662   2.881   2.668   1.543
 1883SOL    HW2 5663   2.779   2.786   1.497
 1884SOL     OW 5664   2.853   2.272   1.242
 1884SOL    HW1 5665   2.776   2.306   1.296
 1884SOL    HW2 5666   2.819   2.221   1.163
 1885SOL     OW 5667   2.903   2.563   0.429
 1885SOL    HW1 5668   2.929   2.559   0.525
 1885SOL    HW2 5669   2.818   2.512   0.415
 1886SOL     OW 5670   1.938   2.673   0.789
 1886SOL    HW1 5671   2.037   2.661   0.798
 1886SOL    HW2 5672   1.914   2.768   0.810
 1887SOL     OW 5673   1.992   3.683   1.571
 1887SOL    HW1 5674   1.982   3.668   1.670
 1887SOL    HW2 5675   1.906   3.719   1.535
 1888SOL     OW 5676   2.727   2.210   0.195
 1888SOL    HW1 5677   2.786   2.273   0.146
 1888SOL    HW2 5678   2.746   2.116   0.166
 1889SOL     OW 5679   3.581   2.447   1.831
 1889SOL    HW1 5680   3.555   2.536   1.795
 1889SOL    HW2 5681   3.579   2.379   1.758
 1890SOL     OW 5682   3.224   3.006   0.545
 1890SOL    HW1 5683   3.307   2.977   0.497
 1890SOL    HW2 5684   3.175   3.073   0.489
 1891SOL     OW 5685   2.412   2.058   0.885
 1891SOL    HW1 5686   2.407   2.053   0.985
 1891SOL    HW2 5687   2.414   2.154   0.856
 1892SOL     OW 5688   2.870   3.318   0.477
 1892SOL    HW1 5689   2.824   3.390   0.425
 1892SOL    HW2 5690   2.866   3.338   0.575
 1893SOL     OW 5691   2.213   3.663   0.853
 1893SOL    HW1 5692   2.263   3.577   0.859
 1893SOL    HW2 5693   2.278   3.740   0.850
 1894SOL     OW 5694   3.657   2.928   0.873
 1894SOL    HW1 5695   3.595   2.913   0.797
 1894SOL    HW2 5696   3.605   2.939   0.958
 1895SOL     OW 5697   3.089   3.412   1.506
 1895SOL    HW1 5698   3.095   3.335   1.570
 1895SOL    HW2 5699   3.037   3.386   1.426
 1896SOL     OW 5700   2.183   2.805   0.242
 1896SOL    HW1 5701   2.265   2.844   0.200
 1896SOL    HW2 5702   2.156   2.723   0.193
 1897SOL     OW 5703   3.320   2.597   0.728
 1897SOL    HW1 5704   3.315   2.532   0.803
 1897SOL    HW2 5705   3.400   2.656   0.741
 1898SOL     OW 5706   2.323   3.128   1.727
 1898SOL    HW1 5707   2.273   3.129   1.641
 1898SOL    HW2 5708   2.260   3.110   1.803
 1899SOL     OW 5709   2.973   3.638   0.237
 1899SOL    HW1 5710   2.913   3.576   0.287
 1899SOL    HW2 5711   3.004   3.594   0.152
 1900SOL     OW 5712   2.064   2.147   1.498
 1900SOL    HW1 5713   1.984   2.207   1.485
 1900SOL    HW2 5714   2.054   2.098   1.584
 1901SOL     OW 5715   3.494   3.239   0.081
 1901SOL    HW1 5716   3.462   3.333   0.071
 1901SOL    HW2 5717   3.418   3.176   0.069
 1902SOL     OW 5718   2.326   3.605   0.323
 1902SOL    HW1 5719   2.359   3.644   0.409
 1902SOL    HW2 5720   2.402   3.598   0.258
 1903SOL     OW 5721   3.262   1.969   0.426
 1903SOL    HW1 5722   3.238   1.932   0.336
 1903SOL    HW2 5723   3.361   1.985   0.430
 1904SOL     OW 5724   2.111   3.647   1.241
 1904SOL    HW1 5725   2.168   3.582   1.291
 1904SOL    HW2 5726   2.095   3.614   1.148
 1905SOL     OW 5727   2.802   3.560   0.904
 1905SOL    HW1 5728   2.882   3.503   0.925
 1905SOL    HW2 5729   2.753   3.520   0.827
 1906SOL     OW 5730   2.244   2.562   0.480
 1906SOL    HW1 5731   2.289   2.472   0.477
 1906SOL    HW2 5732   2.150   2.551   0.513
 1907SOL     OW 5733   3.409   2.084   1.729
 1907SOL    HW1 5734   3.404   2.121   1.821
 1907SOL    HW2 5735   3.337   2.015   1.717
 1908SOL     OW 5736   2.643   2.126   1.749
 1908SOL    HW1 5737   2.710   2.065   1.792
 1908SOL    HW2 5738   2.570   2.145   1.814
 1909SOL     OW 5739   2.750   3.376   1.195
 1909SOL    HW1 5740   2.727   3.351   1.101
 1909SOL    HW2 5741   2.811   3.307   1.234
 1910SOL     OW 5742   3.213   2.452   1.433
 1910SOL    HW1 5743   3.241   2.409   1.518
 1910SOL    HW2 5744   3.238   2.548   1.434
 1911SOL     OW 5745   2.665   3.264   0.924
 1911SOL    HW1 5746   2.755   3.278   0.882
 1911SOL    HW2 5747   2.594   3.266   0.853
 1912SOL     OW 5748   2.784   2.365   0.899
 1912SOL    HW1 5749   2.759   2.356   0.803
 1912SOL    HW2 5750   2.832   2.283   0.930
 1913SOL     OW 5751   2.401   1.926   0.512
 1913SOL    HW1 5752   2.320   1.927   0.570
 1913SOL    HW2 5753   2.404   2.009   0.457
 1914SOL     OW 5754   3.296   3.050   0.041
 1914SOL    HW1 5755   3.328   2.974   0.098
 1914SOL    HW2 5756   3.204   3.077   0.071
 1915SOL     OW 5757   2.159   1.897   0.171
 1915SOL    HW1 5758   2.208   1.981   0.150
 1915SOL    HW2 5759   2.221   1.832   0.216
 1916SOL     OW 5760   2.797   2.098   0.480
 1916SOL    HW1 5761   2.749   2.139   0.402
 1916SOL    HW2 5762   2.896   2.096   0.461
 1917SOL     OW 5763   2.938   2.545   1.464
 1917SOL    HW1 5764   2.858   2.484   1.467
 1917SOL    HW2 5765   3.019   2.492   1.440
 1918SOL     OW 5766   3.089   3.432   0.793
 1918SOL    HW1 5767   3.110   3.506   0.728
 1918SOL    HW2 5768   3.157   3.432   0.866
 1919SOL     OW 5769   2.321   3.014   0.741
 1919SOL    HW1 5770   2.250   2.987   0.806
 1919SOL    HW2 5771   2.295   2.986   0.648
 1920SOL     OW 5772   3.133   3.659   0.591
 1920SOL    HW1 5773   3.177   3.723   0.527
 1920SOL    HW2 5774   3.083   3.711   0.661
 1921SOL     OW 5775   2.894   2.411   0.016
 1921SOL    HW1 5776   2.853   2.493  -0.023
 1921SOL    HW2 5777   2.958   2.437   0.089
 1922SOL     OW 5778   1.940   2.418   1.386
 1922SOL    HW1 5779   2.032   2.417   1.345
 1922SOL    HW2 5780   1.934   2.492   1.453
 1923SOL     OW 5781   2.423   2.084   1.147
 1923SOL    HW1 5782   2.461   2.000   1.184
 1923SOL    HW2 5783   2.335   2.103   1.191
 1924SOL     OW 5784   2.728   2.316   0.642
 1924SOL    HW1 5785   2.696   2.388   0.580
 1924SOL    HW2 5786   2.752   2.235   0.589
 1925SOL     OW 5787   2.879   1.901   0.753
 1925SOL    HW1 5788   2.807   1.906   0.684
 1925SOL    HW2 5789   2.855   1.832   0.822
 1926SOL     OW 5790   3.291   3.035   0.867
 1926SOL    HW1 5791   3.236   2.951   0.860
 1926SOL    HW2 5792   3.317   3.064   0.775
 1927SOL     OW 5793   3.328   2.452   0.992
 1927SOL    HW1 5794   3.298   2.357   0.999
 1927SOL    HW2 5795   3.401   2.468   1.058
 1928SOL     OW 5796   3.719   2.695   0.377
 1928SOL    HW1 5797   3.761   2.631   0.441
 1928SOL    HW2 5798   3.681   2.644   0.299
 1929SOL     OW 5799   2.350   3.247   0.174
 1929SOL    HW1 5800   2.263   3.232   0.221
 1929SOL    HW2 5801   2.333   3.273   0.079
 1930SOL     OW 5802   3.526   3.142   0.657
 1930SOL    HW1 5803   3.625   3.150   0.671
 1930SOL    HW2 5804   3.481   3.226   0.688
 1931SOL     OW 5805   3.252   2.437   0.078
 1931SOL    HW1 5806   3.198   2.416   0.159
 1931SOL    HW2 5807   3.343   2.396   0.087
 1932SOL     OW 5808   2.389   2.118   0.328
 1932SOL    HW1 5809   2.416   2.059   0.253
 1932SOL    HW2 5810   2.389   2.213   0.297
 1933SOL     OW 5811   3.616   3.085   1.588
 1933SOL    HW1 5812   3.707   3.046   1.575
 1933SOL    HW2 5813   3.624   3.181   1.612
 1934SOL     OW 5814   2.926   3.209   1.340
 1934SOL    HW1 5815   2.846   3.186   1.395
 1934SOL    HW2 5816   3.009   3.183   1.389
 1935SOL     OW 5817   3.454   3.491   1.625
 1935SOL    HW1 5818   3.481   3.525   1.535
 1935SOL    HW2 5819   3.533   3.453   1.671
 1936SOL     OW 5820   2.973   3.057   1.100
 1936SOL    HW1 5821   2.933   3.101   1.181
 1936SOL    HW2 5822   2.932   3.094   1.017
 1937SOL     OW 5823   3.500   2.961   1.079
 1937SOL    HW1 5824   3.505   3.042   1.138
 1937SOL    HW2 5825   3.414   2.963   1.028
 1938SOL     OW 5826   2.777   1.951   1.402
 1938SOL    HW1 5827   2.802   1.931   1.307
 1938SOL    HW2 5828   2.849   2.007   1.444
 1939SOL     OW 5829   2.842   2.978   1.719
 1939SOL    HW1 5830   2.743   2.984   1.729
 1939SOL    HW2 5831   2.865   2.898   1.663
 1940SOL     OW 5832   2.567   2.912   0.368
 1940SOL    HW1 5833   2.553   2.919   0.467
 1940SOL    HW2 5834   2.651   2.861   0.350
 1941SOL     OW 5835   2.272   2.675   1.251
 1941SOL    HW1 5836   2.358   2.687   1.301
 1941SOL    HW2 5837   2.230   2.588   1.278
 1942SOL     OW 5838   3.136   2.248   1.262
 1942SOL    HW1 5839   3.157   2.322   1.326
 1942SOL    HW2 5840   3.047   2.265   1.219
 1943SOL     OW 5841   1.926   3.426   1.331
 1943SOL    HW1 5842   1.880   3.508   1.297
 1943SOL    HW2 5843   2.024   3.445   1.340
 1944SOL     OW 5844   2.229   2.962   0.501
 1944SOL    HW1 5845   2.222   3.045   0.445
 1944SOL    HW2 5846   2.233   2.882   0.441
 1945SOL     OW 5847   2.428   2.399   0.865
 1945SOL    HW1 5848   2.440   2.465   0.791
 1945SOL    HW2 5849   2.474   2.433   0.948
 1946SOL     OW 5850   3.114   3.210   0.388
 1946SOL    HW1 5851   3.164   3.287   0.428
 1946SOL    HW2 5852   3.019   3.212   0.420
 1947SOL     OW 5853   3.134   3.307   1.142
 1947SOL    HW1 5854   3.181   3.320   1.229
 1947SOL    HW2 5855   3.068   3.233   1.151
 1948SOL     OW 5856   3.444   2.501   0.472
 1948SOL    HW1 5857   3.413   2.562   0.545
 1948SOL    HW2 5858   3.494   2.553   0.403
 1949SOL     OW 5859   2.216   3.372   1.329
 1949SOL    HW1 5860   2.195   3.328   1.242
 1949SOL    HW2 5861   2.313   3.398   1.332
 1950SOL     OW 5862   2.264   2.613   1.598
 1950SOL    HW1 5863   2.332   2.668   1.551
 1950SOL    HW2 5864   2.304   2.525   1.625
 1951SOL     OW 5865   3.449   2.641   1.670
 1951SOL    HW1 5866   3.357   2.679   1.665
 1951SOL    HW2 5867   3.509   2.688   1.605
 1952SOL     OW 5868   2.875   1.967   1.770
 1952SOL    HW1 5869   2.881   2.052   1.718
 1952SOL    HW2 5870   2.907   1.891   1.713
 1953SOL     OW 5871   2.366   1.912   1.740
 1953SOL    HW1 5872   2.324   1.855   1.670
 1953SOL    HW2 5873   2.300   1.981   1.772
 1954SOL     OW 5874   2.435   2.732   1.029
 1954SOL    HW1 5875   2.479   2.821   1.020
 1954SOL    HW2 5876   2.372   2.732   1.106
 1955SOL     OW 5877   3.222   2.724   1.045
 1955SOL    HW1 5878   3.147   2.724   0.979
 1955SOL    HW2 5879   3.259   2.632   1.054
 1956SOL     OW 5880   3.071   2.387   0.275
 1956SOL    HW1 5881   3.084   2.303   0.329
 1956SOL    HW2 5882   3.042   2.461   0.335
 1957SOL     OW 5883   2.169   2.075   1.231
 1957SOL    HW1 5884   2.146   2.112   1.321
 1957SOL    HW2 5885   2.139   1.980   1.225
 1958SOL     OW 5886   1.899   3.172   1.282
 1958SOL    HW1 5887   1.952   3.123   1.350
 1958SOL    HW2 5888   1.921   3.270   1.287
 1959SOL     OW 5889   2.594   2.496   1.064
 1959SOL    HW1 5890   2.653   2.470   0.988
 1959SOL    HW2 5891   2.566   2.592   1.053
 1960SOL     OW 5892   3.590   2.797   1.854
 1960SOL    HW1 5893   3.544   2.790   1.765
 1960SOL    HW2 5894   3.528   2.841   1.920
 1961SOL     OW 5895   2.169   1.925   0.618
 1961SOL    HW1 5896   2.158   2.019   0.651
 1961SOL    HW2 5897   2.164   1.862   0.695
 1962SOL     OW 5898   3.484   2.229   0.374
 1962SOL    HW1 5899   3.486   2.153   0.438
 1962SOL    HW2 5900   3.436   2.306   0.414
 1963SOL     OW 5901   2.885   2.628   0.966
 1963SOL    HW1 5902   2.900   2.649   1.062
 1963SOL    HW2 5903   2.855   2.533   0.957
 1964SOL     OW 5904   2.842   3.435   1.700
 1964SOL    HW1 5905   2.822   3.479   1.612
 1964SOL    HW2 5906   2.881   3.344   1.684
 1965SOL     OW 5907   3.721   3.380   1.605
 1965SOL    HW1 5908   3.735   3.407   1.510
 1965SOL    HW2 5909   3.804   3.402   1.658
 1966SOL     OW 5910   2.212   2.760   1.804
 1966SOL    HW1 5911   2.288   2.804   1.852
 1966SOL    HW2 5912   2.247   2.713   1.722
 1967SOL     OW 5913   3.402   2.136   0.125
 1967SOL    HW1 5914   3.341   2.061   0.148
 1967SOL    HW2 5915   3.424   2.188   0.208
 1968SOL     OW 5916   3.165   2.700   0.042
 1968SOL    HW1 5917   3.199   2.607   0.057
 1968SOL    HW2 5918   3.183   2.727  -0.053
 1969SOL     OW 5919   2.930   3.195   0.849
 1969SOL    HW1 5920   2.937   3.111   0.794
 1969SOL    HW2 5921   2.992   3.264   0.813
 1970SOL     OW 5922   2.181   2.672   0.949
 1970SOL    HW1 5923   2.274   2.708   0.954
 1970SOL    HW2 5924   2.175   2.587   1.001
 1971SOL     OW 5925   2.201   2.371   1.006
 1971SOL    HW1 5926   2.149   2.288   0.989
 1971SOL    HW2 5927   2.278   2.376   0.942
 1972SOL     OW 5928   3.000   2.242   1.678
 1972SOL    HW1 5929   2.955   2.305   1.742
 1972SOL    HW2 5930   3.093   2.273   1.661
 1973SOL     OW 5931   3.022   2.069   1.477
 1973SOL    HW1 5932   3.022   2.133   1.554
 1973SOL    HW2 5933   3.050   2.117   1.394
 1974SOL     OW 5934   1.870   3.188   0.200
 1974SOL    HW1 5935   1.777   3.209   0.169
 1974SOL    HW2 5936   1.880   3.089   0.213
 1975SOL     OW 5937   1.950   3.663   0.927
 1975SOL    HW1 5938   1.908   3.577   0.900
 1975SOL    HW2 5939   2.044   3.666   0.893
 1976SOL     OW 5940   2.366   3.430   0.910
 1976SOL    HW1 5941   2.432   3.504   0.919
 1976SOL    HW2 5942   2.410   3.351   0.868
 1977SOL     OW 5943   2.864   2.658   1.238
 1977SOL    HW1 5944   2.905   2.626   1.324
 1977SOL    HW2 5945   2.768   2.631   1.235
 1978SOL     OW 5946   1.902   2.406   1.114
 1978SOL    HW1 5947   1.987   2.373   1.073
 1978SOL    HW2 5948   1.915   2.421   1.212
 1979SOL     OW 5949   2.051   2.382   1.722
 1979SOL    HW1 5950   2.110   2.342   1.652
 1979SOL    HW2 5951   1.993   2.453   1.681
 1980SOL     OW 5952   3.231   2.812   1.660
 1980SOL    HW1 5953   3.270   2.901   1.680
 1980SOL    HW2 5954   3.241   2.792   1.563
 1981SOL     OW 5955   2.677   2.434   0.325
 1981SOL    HW1 5956   2.684   2.345   0.279
 1981SOL    HW2 5957   2.583   2.468   0.317
 1982SOL     OW 5958   3.519   2.466   1.206
 1982SOL    HW1 5959   3.481   2.397   1.268
 1982SOL    HW2 5960   3.601   2.430   1.162
 1983SOL     OW 5961   2.114   3.426   1.744
 1983SOL    HW1 5962   2.084   3.483   1.820
 1983SOL    HW2 5963   2.107   3.329   1.770
 1984SOL     OW 5964   2.533   2.326   1.269
 1984SOL    HW1 5965   2.499   2.237   1.239
 1984SOL    HW2 5966   2.559   2.380   1.189
 1985SOL     OW 5967   2.792   3.540   1.465
 1985SOL    HW1 5968   2.768   3.522   1.370
 1985SOL    HW2 5969   2.822   3.634   1.475
 1986SOL     OW 5970   2.335   2.362   0.191
 1986SOL    HW1 5971   2.396   2.442   0.195
 1986SOL    HW2 5972   2.240   2.393   0.198
 1987SOL     OW 5973   2.021   2.999   1.466
 1987SOL    HW1 5974   2.043   2.938   1.542
 1987SOL    HW2 5975   2.031   2.950   1.380
 1988SOL     OW 5976   3.209   2.921   1.234
 1988SOL    HW1 5977   3.233   2.858   1.160
 1988SOL    HW2 5978   3.119   2.961   1.216
 1989SOL     OW 5979   3.164   2.717   0.309
 1989SOL    HW1 5980   3.078   2.686   0.351
 1989SOL    HW2 5981   3.160   2.703   0.210
 1990SOL     OW 5982   3.621   3.609   1.154
 1990SOL    HW1 5983   3.682   3.639   1.081
 1990SOL    HW2 5984   3.583   3.520   1.132
 1991SOL     OW 5985   3.114   3.593   1.128
 1991SOL    HW1 5986   3.198   3.598   1.074
 1991SOL    HW2 5987   3.091   3.497   1.146
 1992SOL     OW 5988   1.945   3.120   1.022
 1992SOL    HW1 5989   1.940   3.119   1.122
 1992SOL    HW2 5990   1.862   3.079   0.984
 1993SOL     OW 5991   2.550   3.524   1.716
 1993SOL    HW1 5992   2.494   3.605   1.725
 1993SOL    HW2 5993   2.602   3.528   1.630
 1994SOL     OW 5994   2.765   1.948   0.133
 1994SOL    HW1 5995   2.816   1.949   0.047
 1994SOL    HW2 5996   2.821   1.906   0.204
 1995SOL     OW 5997   3.588   1.997   0.523
 1995SOL    HW1 5998   3.661   1.980   0.456
 1995SOL    HW2 5999   3.557   1.910   0.561
 1996SOL     OW 6000   3.250   3.435   0.477
 1996SOL    HW1 6001   3.317   3.447   0.403
 1996SOL    HW2 6002   3.210   3.524   0.500
 1997SOL     OW 6003   1.992   3.656   1.851
 1997SOL    HW1 6004   1.951   3.582   1.904
 1997SOL    HW2 6005   2.056   3.707   1.909
 1998SOL     OW 6006   3.142   2.789   0.672
 1998SOL    HW1 6007   3.202   2.708   0.674
 1998SOL    HW2 6008   3.182   2.858   0.612
 1999SOL     OW 6009   2.692   3.135   1.422
 1999SOL    HW1 6010   2.687   3.168   1.517
 1999SOL    HW2 6011   2.606   3.154   1.376
 2000SOL     OW 6012   2.534   3.478   0.154
 2000SOL    HW1 6013   2.543   3.488   0.055
 2000SOL    HW2 6014   2.494   3.389   0.175
 2001SOL     OW 6015   3.512   3.582   1.394
 2001SOL    HW1 6016   3.565   3.592   1.310
 2001SOL    HW2 6017   3.485   3.672   1.428
 2002SOL     OW 6018   3.703   2.037   0.963
 2002SOL    HW1 6019   3.742   1.952   0.927
 2002SOL    HW2 6020   3.605   2.039   0.944
 2003SOL     OW 6021   2.125   2.188   0.720
 2003SOL    HW1 6022   2.046   2.239   0.686
 2003SOL    HW2 6023   2.116   2.173   0.818
 2004SOL     OW 6024   3.056   3.474   0.031
 2004SOL    HW1 6025   3.062   3.381   0.068
 2004SOL    HW2 6026   2.997   3.474  -0.049
 2005SOL     OW 6027   2.684   2.864   1.372
 2005SOL    HW1 6028   2.724   2.863   1.280
 2005SOL    HW2 6029   2.694   2.956   1.412
 2006SOL     OW 6030   2.778   2.772   0.291
 2006SOL    HW1 6031   2.841   2.810   0.223
 2006SOL    HW2 6032   2.818   2.689   0.330
 2007SOL     OW 6033   3.366   3.469   0.044
 2007SOL    HW1 6034   3.274   3.506   0.051
 2007SOL    HW2 6035   3.404   3.489  -0.046
 2008SOL     OW 6036   2.234   3.150   1.490
 2008SOL    HW1 6037   2.221   3.243   1.456
 2008SOL    HW2 6038   2.150   3.098   1.477
 2009SOL     OW 6039   3.476   3.154   1.289
 2009SOL    HW1 6040   3.536   3.157   1.369
 2009SOL    HW2 6041   3.401   3.218   1.302
 2010SOL     OW 6042   2.901   2.960   0.696
 2010SOL    HW1 6043   2.831   2.913   0.750
 2010SOL    HW2 6044   2.960   2.892   0.653
 2011SOL     OW 6045   2.876   2.098   0.971
 2011SOL    HW1 6046   2.868   2.062   0.878
 2011SOL    HW2 6047   2.874   2.022   1.036
 2012SOL     OW 6048   2.452   3.349   0.491
 2012SOL    HW1 6049   2.494   3.291   0.421
 2012SOL    HW2 6050   2.408   3.428   0.447
 2013SOL     OW 6051   3.571   2.247   1.381
 2013SOL    HW1 6052   3.644   2.316   1.385
 2013SOL    HW2 6053   3.599   2.172   1.322
 2014SOL     OW 6054   2.117   3.210   0.290
 2014SOL    HW1 6055   2.021   3.211   0.263
 2014SOL    HW2 6056   2.129   3.263   0.374
 2015SOL     OW 6057   1.967   2.875   1.726
 2015SOL    HW1 6058   1.890   2.842   1.780
 2015SOL    HW2 6059   2.052   2.845   1.768
 2016SOL     OW 6060   2.534   2.065   1.489
 2016SOL    HW1 6061   2.624   2.049   1.449
 2016SOL    HW2 6062   2.542   2.070   1.588
 2017SOL     OW 6063   3.302   2.718   1.398
 2017SOL    HW1 6064   3.245   2.770   1.335
 2017SOL    HW2 6065   3.398   2.730   1.374
 2018SOL     OW 6066   1.934   2.028   0.318
 2018SOL    HW1 6067   1.917   2.111   0.264
 2018SOL    HW2 6068   2.024   1.991   0.296
 2019SOL     OW 6069   3.045   3.197   0.119
 2019SOL    HW1 6070   2.946   3.186   0.121
 2019SOL    HW2 6071   3.079   3.212   0.212
 2020SOL     OW 6072   2.475   2.704   1.431
 2020SOL    HW1 6073   2.531   2.785   1.414
 2020SOL    HW2 6074   2.534   2.624   1.434
 2021SOL     OW 6075   3.355   3.629   0.959
 2021SOL    HW1 6076   3.388   3.693   0.890
 2021SOL    HW2 6077   3.421   3.623   1.034
 2022SOL     OW 6078   2.578   2.427   1.708
 2022SOL    HW1 6079   2.597   2.492   1.782
 2022SOL    HW2 6080   2.638   2.347   1.717
 2023SOL     OW 6081   3.312   3.082   1.633
 2023SOL    HW1 6082   3.303   3.072   1.732
 2023SOL    HW2 6083   3.408   3.075   1.607
 2024SOL     OW 6084   2.252   3.603   1.560
 2024SOL    HW1 6085   2.161   3.644   1.558
 2024SOL    HW2 6086   2.245   3.509   1.592
 2025SOL     OW 6087   3.536   2.745   1.254
 2025SOL    HW1 6088   3.509   2.656   1.217
 2025SOL    HW2 6089   3.537   2.813   1.181
 2026SOL     OW 6090   3.087   2.187   0.449
 2026SOL    HW1 6091   3.152   2.113   0.438
 2026SOL    HW2 6092   3.107   2.237   0.533
 2027SOL     OW 6093   2.456   2.607   0.652
 2027SOL    HW1 6094   2.506   2.692   0.633
 2027SOL    HW2 6095   2.368   2.609   0.604
 2028SOL     OW 6096   3.639   2.204   1.642
 2028SOL    HW1 6097   3.622   2.235   1.548
 2028SOL    HW2 6098   3.555   2.167   1.680
 2029SOL     OW 6099   3.592   2.796   1.517
 2029SOL    HW1 6100   3.630   2.887   1.532
 2029SOL    HW2 6101   3.584   2.779   1.418
 2030SOL     OW 6102   2.721   3.236   0.016
 2030SOL    HW1 6103   2.675   3.251   0.104
 2030SOL    HW2 6104   2.765   3.321  -0.014
 2031SOL     OW 6105   2.523   3.652   0.953
 2031SOL    HW1 6106   2.477   3.740   0.940
 2031SOL    HW2 6107   2.622   3.664   0.946
 2032SOL     OW 6108   2.721   2.818   0.861
 2032SOL    HW1 6109   2.775   2.749   0.909
 2032SOL    HW2 6110   2.689   2.887   0.927
 2033SOL     OW 6111   2.945   2.846   0.087
 2033SOL    HW1 6112   2.922   2.899   0.005
 2033SOL    HW2 6113   3.026   2.790   0.068
 2034SOL     OW 6114   3.723   3.431   0.851
 2034SOL    HW1 6115   3.652   3.419   0.781
 2034SOL    HW2 6116   3.724   3.352   0.911
 2035SOL     OW 6117   2.083   3.176   1.844
 2035SOL    HW1 6118   2.018   3.103   1.823
 2035SOL    HW2 6119   2.087   3.190   1.942
 2036SOL     OW 6120   1.941   3.102   0.653
 2036SOL    HW1 6121   1.940   3.055   0.741
 2036SOL    HW2 6122   2.023   3.074   0.602
 2037SOL     OW 6123   2.534   3.253   1.624
 2037SOL    HW1 6124   2.456   3.203   1.662
 2037SOL    HW2 6125   2.531   3.348   1.655
 2038SOL     OW 6126   3.686   2.054   1.227
 2038SOL    HW1 6127   3.682   1.964   1.271
 2038SOL    HW2 6128   3.689   2.043   1.128
 2039SOL     OW 6129   2.290   2.286   0.520
 2039SOL    HW1 6130   2.320   2.214   0.458
 2039SOL    HW2 6131   2.251   2.246   0.603
 2040SOL     OW 6132   3.567   3.349   1.104
 2040SOL    HW1 6133   3.474   3.324   1.077
 2040SOL    HW2 6134   3.593   3.299   1.186
 2041SOL     OW 6135   2.179   2.409   1.280
 2041SOL    HW1 6136   2.217   2.350   1.352
 2041SOL    HW2 6137   2.219   2.383   1.192
 2042SOL     OW 6138   2.674   3.448   0.687
 2042SOL    HW1 6139   2.706   3.458   0.593
 2042SOL    HW2 6140   2.595   3.386   0.689
 2043SOL     OW 6141   3.286   2.076   1.112
 2043SOL    HW1 6142   3.338   2.011   1.167
 2043SOL    HW2 6143   3.237   2.139   1.173
 2044SOL     OW 6144   2.863   1.896   1.154
 2044SOL    HW1 6145   2.800   1.824   1.123
 2044SOL    HW2 6146   2.956   1.860   1.154
 2045SOL     OW 6147   2.632   3.192   0.301
 2045SOL    HW1 6148   2.586   3.105   0.318
 2045SOL    HW2 6149   2.723   3.189   0.342
 2046SOL     OW 6150   2.480   3.429   1.284
 2046SOL    HW1 6151   2.475   3.511   1.341
 2046SOL    HW2 6152   2.569   3.426   1.239
 2047SOL     OW 6153   3.214   1.914   0.168
 2047SOL    HW1 6154   3.249   1.873   0.084
 2047SOL    HW2 6155   3.124   1.876   0.188
 2048SOL     OW 6156   3.162   2.315   0.691
 2048SOL    HW1 6157   3.103   2.395   0.695
 2048SOL    HW2 6158   3.177   2.280   0.784
 2049SOL     OW 6159   3.455   2.083   0.882
 2049SOL    HW1 6160   3.371   2.082   0.936
 2049SOL    HW2 6161   3.457   2.166   0.826
 2050SOL     OW 6162   1.901   2.939   0.300
 2050SOL    HW1 6163   2.000   2.928   0.291
 2050SOL    HW2 6164   1.861   2.853   0.332
 2051SOL     OW 6165   2.737   3.508   0.337
 2051SOL    HW1 6166   2.660   3.473   0.283
 2051SOL    HW2 6167   2.705   3.579   0.399
 2052SOL     OW 6168   2.092   2.490   1.975
 2052SOL    HW1 6169   1.999   2.488   2.012
 2052SOL    HW2 6170   2.093   2.451   1.883
 2053SOL     OW 6171   2.087   2.137   2.858
 2053SOL    HW1 6172   2.122   2.120   2.950
 2053SOL    HW2 6173   1.999   2.092   2.846
 2054SOL     OW 6174   1.881   2.230   2.509
 2054SOL    HW1 6175   1.799   2.273   2.548
 2054SOL    HW2 6176   1.853   2.157   2.446
 2055SOL     OW 6177   2.431   3.137   3.027
 2055SOL    HW1 6178   2.338   3.130   2.990
 2055SOL    HW2 6179   2.442   3.226   3.071
 2056SOL     OW 6180   3.417   3.373   2.565
 2056SOL    HW1 6181   3.360   3.357   2.646
 2056SOL    HW2 6182   3.358   3.383   2.485
 2057SOL     OW 6183   2.997   2.565   2.579
 2057SOL    HW1 6184   3.054   2.643   2.554
 2057SOL    HW2 6185   2.937   2.591   2.655
 2058SOL     OW 6186   3.617   2.469   2.093
 2058SOL    HW1 6187   3.605   2.456   1.994
 2058SOL    HW2 6188   3.587   2.388   2.142
 2059SOL     OW 6189   2.630   3.006   2.885
 2059SOL    HW1 6190   2.552   3.023   2.945
 2059SOL    HW2 6191   2.664   3.093   2.849
 2060SOL     OW 6192   2.712   2.660   3.685
 2060SOL    HW1 6193   2.708   2.736   3.750
 2060SOL    HW2 6194   2.734   2.696   3.594
 2061SOL     OW 6195   2.547   2.874   2.527
 2061SOL    HW1 6196   2.616   2.858   2.597
 2061SOL    HW2 6197   2.474   2.931   2.565
 2062SOL     OW 6198   2.548   3.023   3.665
 2062SOL    HW1 6199   2.608   3.102   3.679
 2062SOL    HW2 6200   2.462   3.054   3.624
 2063SOL     OW 6201   2.197   3.297   2.923
 2063SOL    HW1 6202   2.119   3.266   2.870
 2063SOL    HW2 6203   2.255   3.355   2.866
 2064SOL     OW 6204   3.322   3.367   3.201
 2064SOL    HW1 6205   3.346   3.461   3.227
 2064SOL    HW2 6206   3.306   3.313   3.283
 2065SOL     OW 6207   2.300   2.254   3.361
 2065SOL    HW1 6208   2.382   2.198   3.370
 2065SOL    HW2 6209   2.219   2.196   3.365
 2066SOL     OW 6210   3.465   2.309   2.599
 2066SOL    HW1 6211   3.391   2.355   2.549
 2066SOL    HW2 6212   3.516   2.377   2.652
 2067SOL     OW 6213   2.093   3.575   2.345
 2067SOL    HW1 6214   2.127   3.652   2.399
 2067SOL    HW2 6215   2.137   3.575   2.255
 2068SOL     OW 6216   2.989   3.203   3.552
 2068SOL    HW1 6217   3.036   3.203   3.640
 2068SOL    HW2 6218   2.941   3.116   3.541
 2069SOL     OW 6219   2.092   3.296   2.400
 2069SOL    HW1 6220   2.066   3.392   2.400
 2069SOL    HW2 6221   2.021   3.242   2.445
 2070SOL     OW 6222   2.102   2.953   2.748
 2070SOL    HW1 6223   2.116   2.869   2.800
 2070SOL    HW2 6224   2.047   3.017   2.803
 2071SOL     OW 6225   2.482   3.648   3.301
 2071SOL    HW1 6226   2.390   3.631   3.336
 2071SOL    HW2 6227   2.510   3.740   3.327
 2072SOL     OW 6228   2.468   2.826   1.985
 2072SOL    HW1 6229   2.475   2.910   1.931
 2072SOL    HW2 6230   2.514   2.839   2.073
 2073SOL     OW 6231   3.456   1.976   3.342
 2073SOL    HW1 6232   3.438   2.043   3.270
 2073SOL    HW2 6233   3.453   2.022   3.431
 2074SOL     OW 6234   1.984   2.505   2.425
 2074SOL    HW1 6235   1.939   2.417   2.442
 2074SOL    HW2 6236   1.983   2.559   2.509
 2075SOL     OW 6237   3.704   3.629   2.221
 2075SOL    HW1 6238   3.758   3.600   2.301
 2075SOL    HW2 6239   3.734   3.719   2.192
 2076SOL     OW 6240   1.889   3.458   1.979
 2076SOL    HW1 6241   1.870   3.362   2.000
 2076SOL    HW2 6242   1.856   3.516   2.054
 2077SOL     OW 6243   3.551   2.784   2.474
 2077SOL    HW1 6244   3.646   2.755   2.482
 2077SOL    HW2 6245   3.543   2.849   2.399
 2078SOL     OW 6246   3.503   2.970   2.294
 2078SOL    HW1 6247   3.589   2.972   2.242
 2078SOL    HW2 6248   3.517   3.017   2.382
 2079SOL     OW 6249   1.975   2.599   3.459
 2079SOL    HW1 6250   2.063   2.586   3.504
 2079SOL    HW2 6251   1.962   2.696   3.437
 2080SOL     OW 6252   2.475   3.227   2.588
 2080SOL    HW1 6253   2.426   3.140   2.597
 2080SOL    HW2 6254   2.452   3.270   2.501
 2081SOL     OW 6255   3.155   3.090   3.285
 2081SOL    HW1 6256   3.192   3.017   3.227
 2081SOL    HW2 6257   3.207   3.095   3.370
 2082SOL     OW 6258   2.671   1.866   2.364
 2082SOL    HW1 6259   2.711   1.957   2.355
 2082SOL    HW2 6260   2.571   1.874   2.370
 2083SOL     OW 6261   2.059   2.838   3.126
 2083SOL    HW1 6262   2.148   2.793   3.112
 2083SOL    HW2 6263   1.986   2.773   3.107
 2084SOL     OW 6264   3.387   2.861   2.052
 2084SOL    HW1 6265   3.324   2.785   2.065
 2084SOL    HW2 6266   3.435   2.879   2.138
 2085SOL     OW 6267   3.049   3.654   3.478
 2085SOL    HW1 6268   3.073   3.714   3.402
 2085SOL    HW2 6269   3.056   3.559   3.448
 2086SOL     OW 6270   2.179   2.113   3.663
 2086SOL    HW1 6271   2.250   2.184   3.669
 2086SOL    HW2 6272   2.091   2.152   3.691
 2087SOL     OW 6273   3.328   3.279   2.815
 2087SOL    HW1 6274   3.269   3.285   2.895
 2087SOL    HW2 6275   3.313   3.191   2.769
 2088SOL     OW 6276   3.529   3.576   2.434
 2088SOL    HW1 6277   3.488   3.553   2.346
 2088SOL    HW2 6278   3.511   3.502   2.499
 2089SOL     OW 6279   2.460   2.591   2.132
 2089SOL    HW1 6280   2.484   2.660   2.064
 2089SOL    HW2 6281   2.382   2.624   2.186
 2090SOL     OW 6282   3.143   2.207   2.806
 2090SOL    HW1 6283   3.057   2.157   2.793
 2090SOL    HW2 6284   3.205   2.153   2.862
 2091SOL     OW 6285   3.438   3.524   2.169
 2091SOL    HW1 6286   3.527   3.570   2.172
 2091SOL    HW2 6287   3.417   3.500   2.074
 2092SOL     OW 6288   2.669   2.467   3.327
 2092SOL    HW1 6289   2.622   2.464   3.416
 2092SOL    HW2 6290   2.618   2.412   3.261
 2093SOL     OW 6291   3.256   2.331   3.536
 2093SOL    HW1 6292   3.236   2.374   3.624
 2093SOL    HW2 6293   3.334   2.269   3.545
 2094SOL     OW 6294   2.835   2.752   3.434
 2094SOL    HW1 6295   2.881   2.668   3.405
 2094SOL    HW2 6296   2.779   2.786   3.359
 2095SOL     OW 6297   2.853   2.272   3.104
 2095SOL    HW1 6298   2.776   2.306   3.158
 2095SOL    HW2 6299   2.819   2.221   3.025
 2096SOL     OW 6300   2.903   2.563   2.291
 2096SOL    HW1 6301   2.929   2.559   2.387
 2096SOL    HW2 6302   2.818   2.512   2.277
 2097SOL     OW 6303   1.938   2.673   2.651
 2097SOL    HW1 6304   2.037   2.661   2.660
 2097SOL    HW2 6305   1.914   2.768   2.672
 2098SOL     OW 6306   1.992   3.683   3.433
 2098SOL    HW1 6307   1.982   3.668   3.532
 2098SOL    HW2 6308   1.906   3.719   3.397
 2099SOL     OW 6309   2.727   2.210   2.057
 2099SOL    HW1 6310   2.786   2.273   2.008
 2099SOL    HW2 6311   2.746   2.116   2.028
 2100SOL     OW 6312   3.581   2.447   3.693
 2100SOL    HW1 6313   3.555   2.536   3.657
 2100SOL    HW2 6314   3.579   2.379   3.620
 2101SOL     OW 6315   3.224   3.006   2.407
 2101SOL    HW1 6316   3.307   2.977   2.359
 2101SOL    HW2 6317   3.175   3.073   2.351
 2102SOL     OW 6318   2.412   2.058   2.747
 2102SOL    HW1 6319   2.407   2.053   2.847
 2102SOL    HW2 6320   2.414   2.154   2.718
 2103SOL     OW 6321   2.870   3.318   2.339
 2103SOL    HW1 6322   2.824   3.390   2.287
 2103SOL    HW2 6323   2.866   3.338   2.437
 2104SOL     OW 6324   2.213   3.663   2.715
 2104SOL    HW1 6325   2.263   3.577   2.721
 2104SOL    HW2 6326   2.278   3.740   2.712
 2105SOL     OW 6327   3.657   2.928   2.735
 2105SOL    HW1 6328   3.595   2.913   2.659
 2105SOL    HW2 6329   3.605   2.939   2.820
 2106SOL     OW 6330   3.089   3.412   3.368
 2106SOL    HW1 6331   3.095   3.335   3.432
 2106SOL    HW2 6332   3.037   3.386   3.288
 2107SOL     OW 6333   2.183   2.805   2.104
 2107SOL    HW1 6334   2.265   2.844   2.062
 2107SOL    HW2 6335   2.156   2.723   2.055
 2108SOL     OW 6336   3.320   2.597   2.590
 2108SOL    HW1 6337   3.315   2.532   2.665
 2108SOL    HW2 6338   3.400   2.656   2.603
 2109SOL     OW 6339   2.323   3.128   3.589
 2109SOL    HW1 6340   2.273   3.129   3.503
 2109SOL    HW2 6341   2.260   3.110   3.665
 2110SOL     OW 6342   2.973   3.638   2.099
 2110SOL    HW1 6343   2.913   3.576   2.149
 2110SOL    HW2 6344   3.004   3.594   2.014
 2111SOL     OW 6345   2.064   2.147   3.360
 2111SOL    HW1 6346   1.984   2.207   3.347
 2111SOL    HW2 6347   2.054   2.098   3.446
 2112SOL     OW 6348   3.494   3.239   1.943
 2112SOL    HW1 6349   3.462   3.333   1.933
 2112SOL    HW2 6350   3.418   3.176   1.931
 2113SOL     OW 6351   2.326   3.605   2.185
 2113SOL    HW1 6352   2.359   3.644   2.271
 2113SOL    HW2 6353   2.402   3.598   2.120
 2114SOL     OW 6354   3.262   1.969   2.288
 2114SOL    HW1 6355   3.238   1.932   2.198
 2114SOL    HW2 6356   3.361   1.985   2.292
 2115SOL     OW 6357   2.111   3.647   3.103
 2115SOL    HW1 6358   2.168   3.582   3.153
 2115SOL    HW2 6359   2.095   3.614   3.010
 2116SOL     OW 6360   2.802   3.560   2.766
 2116SOL    HW1 6361   2.882   3.503   2.787
 2116SOL    HW2 6362   2.753   3.520   2.689
 2117SOL     OW 6363   3.409   2.084   3.591
 2117SOL    HW1 6364   3.404   2.121   3.683
 2117SOL    HW2 6365   3.337   2.015   3.579
 2118SOL     OW 6366   2.476   1.984   1.979
 2118SOL    HW1 6367   2.574   1.962   1.986
 2118SOL    HW2 6368   2.445   1.967   1.886
 2119SOL     OW 6369   2.643   2.126   3.611
 2119SOL    HW1 6370   2.710   2.065   3.654
 2119SOL    HW2 6371   2.570   2.145   3.676
 2120SOL     OW 6372   2.750   3.376   3.057
 2120SOL    HW1 6373   2.727   3.351   2.963
 2120SOL    HW2 6374   2.811   3.307   3.096
 2121SOL     OW 6375   3.213   2.452   3.295
 2121SOL    HW1 6376   3.241   2.409   3.380
 2121SOL    HW2 6377   3.238   2.548   3.296
 2122SOL     OW 6378   2.665   3.264   2.786
 2122SOL    HW1 6379   2.755   3.278   2.744
 2122SOL    HW2 6380   2.594   3.266   2.715
 2123SOL     OW 6381   2.784   2.365   2.761
 2123SOL    HW1 6382   2.759   2.356   2.665
 2123SOL    HW2 6383   2.832   2.283   2.792
 2124SOL     OW 6384   3.296   3.050   1.903
 2124SOL    HW1 6385   3.328   2.974   1.960
 2124SOL    HW2 6386   3.204   3.077   1.933
 2125SOL     OW 6387   2.159   1.897   2.033
 2125SOL    HW1 6388   2.208   1.981   2.012
 2125SOL    HW2 6389   2.221   1.832   2.078
 2126SOL     OW 6390   2.797   2.098   2.342
 2126SOL    HW1 6391   2.749   2.139   2.264
 2126SOL    HW2 6392   2.896   2.096   2.323
 2127SOL     OW 6393   2.938   2.545   3.326
 2127SOL    HW1 6394   2.858   2.484   3.329
 2127SOL    HW2 6395   3.019   2.492   3.302
 2128SOL     OW 6396   3.089   3.432   2.655
 2128SOL    HW1 6397   3.110   3.506   2.590
 2128SOL    HW2 6398   3.157   3.432   2.728
 2129SOL     OW 6399   2.321   3.014   2.603
 2129SOL    HW1 6400   2.250   2.987   2.668
 2129SOL    HW2 6401   2.295   2.986   2.510
 2130SOL     OW 6402   3.133   3.659   2.453
 2130SOL    HW1 6403   3.177   3.723   2.389
 2130SOL    HW2 6404   3.083   3.711   2.523
 2131SOL     OW 6405   2.894   2.411   1.878
 2131SOL    HW1 6406   2.853   2.493   1.839
 2131SOL    HW2 6407   2.958   2.437   1.951
 2132SOL     OW 6408   1.940   2.418   3.248
 2132SOL    HW1 6409   2.032   2.417   3.207
 2132SOL    HW2 6410   1.934   2.492   3.315
 2133SOL     OW 6411   2.423   2.084   3.009
 2133SOL    HW1 6412   2.461   2.000   3.046
 2133SOL    HW2 6413   2.335   2.103   3.053
 2134SOL     OW 6414   2.728   2.316   2.504
 2134SOL    HW1 6415   2.696   2.388   2.442
 2134SOL    HW2 6416   2.752   2.235   2.451
 2135SOL     OW 6417   2.879   1.901   2.615
 2135SOL    HW1 6418   2.807   1.906   2.546
 2135SOL    HW2 6419   2.855   1.832   2.684
 2136SOL     OW 6420   3.291   3.035   2.729
 2136SOL    HW1 6421   3.236   2.951   2.722
 2136SOL    HW2 6422   3.317   3.064   2.637
 2137SOL     OW 6423   3.328   2.452   2.854
 2137SOL    HW1 6424   3.298   2.357   2.861
 2137SOL    HW2 6425   3.401   2.468   2.920
 2138SOL     OW 6426   3.719   2.695   2.239
 2138SOL    HW1 6427   3.761   2.631   2.303
 2138SOL    HW2 6428   3.681   2.644   2.161
 2139SOL     OW 6429   2.350   3.247   2.036
 2139SOL    HW1 6430   2.263   3.232   2.083
 2139SOL    HW2 6431   2.333   3.273   1.941
 2140SOL     OW 6432   3.526   3.142   2.519
 2140SOL    HW1 6433   3.625   3.150   2.533
 2140SOL    HW2 6434   3.481   3.226   2.550
 2141SOL     OW 6435   3.252   2.437   1.940
 2141SOL    HW1 6436   3.198   2.416   2.021
 2141SOL    HW2 6437   3.343   2.396   1.949
 2142SOL     OW 6438   3.616   3.085   3.450
 2142SOL    HW1 6439   3.707   3.046   3.437
 2142SOL    HW2 6440   3.624   3.181   3.474
 2143SOL     OW 6441   2.926   3.209   3.202
 2143SOL    HW1 6442   2.846   3.186   3.257
 2143SOL    HW2 6443   3.009   3.183   3.251
 2144SOL     OW 6444   3.454   3.491   3.487
 2144SOL    HW1 6445   3.481   3.525   3.397
 2144SOL    HW2 6446   3.533   3.453   3.533
 2145SOL     OW 6447   2.973   3.057   2.962
 2145SOL    HW1 6448   2.933   3.101   3.043
 2145SOL    HW2 6449   2.932   3.094   2.879
 2146SOL     OW 6450   3.500   2.961   2.941
 2146SOL    HW1 6451   3.505   3.042   3.000
 2146SOL    HW2 6452   3.414   2.963   2.890
 2147SOL     OW 6453   2.777   1.951   3.264
 2147SOL    HW1 6454   2.802   1.931   3.169
 2147SOL    HW2 6455   2.849   2.007   3.306
 2148SOL     OW 6456   2.842   2.978   3.581
 2148SOL    HW1 6457   2.743   2.984   3.591
 2148SOL    HW2 6458   2.865   2.898   3.525
 2149SOL     OW 6459   2.567   2.912   2.230
 2149SOL    HW1 6460   2.553   2.919   2.329
 2149SOL    HW2 6461   2.651   2.861   2.212
 2150SOL     OW 6462   2.272   2.675   3.113
 2150SOL    HW1 6463   2.358   2.687   3.163
 2150SOL    HW2 6464   2.230   2.588   3.140
 2151SOL     OW 6465   3.136   2.248   3.124
 2151SOL    HW1 6466   3.157   2.322   3.188
 2151SOL    HW2 6467   3.047   2.265   3.081
 2152SOL     OW 6468   1.926   3.426   3.193
 2152SOL    HW1 6469   1.880   3.508   3.159
 2152SOL    HW2 6470   2.024   3.445   3.202
 2153SOL     OW 6471   2.229   2.962   2.363
 2153SOL    HW1 6472   2.222   3.045   2.307
 2153SOL    HW2 6473   2.233   2.882   2.303
 2154SOL     OW 6474   3.114   3.210   2.250
 2154SOL    HW1 6475   3.164   3.287   2.290
 2154SOL    HW2 6476   3.019   3.212   2.282
 2155SOL     OW 6477   3.134   3.307   3.004
 2155SOL    HW1 6478   3.181   3.320   3.091
 2155SOL    HW2 6479   3.068   3.233   3.013
 2156SOL     OW 6480   3.444   2.501   2.334
 2156SOL    HW1 6481   3.413   2.562   2.407
 2156SOL    HW2 6482   3.494   2.553   2.265
 2157SOL     OW 6483   2.216   3.372   3.191
 2157SOL    HW1 6484   2.195   3.328   3.104
 2157SOL    HW2 6485   2.313   3.398   3.194
 2158SOL     OW 6486   2.264   2.613   3.460
 2158SOL    HW1 6487   2.332   2.668   3.413
 2158SOL    HW2 6488   2.304   2.525   3.487
 2159SOL     OW 6489   3.449   2.641   3.532
 2159SOL    HW1 6490   3.357   2.679   3.527
 2159SOL    HW2 6491   3.509   2.688   3.467
 2160SOL     OW 6492   2.875   1.967   3.632
 2160SOL    HW1 6493   2.881   2.052   3.580
 2160SOL    HW2 6494   2.907   1.891   3.575
 2161SOL     OW 6495   2.366   1.912   3.602
 2161SOL    HW1 6496   2.324   1.855   3.532
 2161SOL    HW2 6497   2.300   1.981   3.634
 2162SOL     OW 6498   2.435   2.732   2.891
 2162SOL    HW1 6499   2.479   2.821   2.882
 2162SOL    HW2 6500   2.372   2.732   2.968
 2163SOL     OW 6501   3.222   2.724   2.907
 2163SOL    HW1 6502   3.147   2.724   2.841
 2163SOL    HW2 6503   3.259   2.632   2.916
 2164SOL     OW 6504   3.071   2.387   2.137
 2164SOL    HW1 6505   3.084   2.303   2.191
 2164SOL    HW2 6506   3.042   2.461   2.197
 2165SOL     OW 6507   2.169   2.075   3.093
 2165SOL    HW1 6508   2.146   2.112   3.183
 2165SOL    HW2 6509   2.139   1.980   3.087
 2166SOL     OW 6510   1.899   3.172   3.144
 2166SOL    HW1 6511   1.952   3.123   3.212
 2166SOL    HW2 6512   1.921   3.270   3.149
 2167SOL     OW 6513   2.594   2.496   2.926
 2167SOL    HW1 6514   2.653   2.470   2.850
 2167SOL    HW2 6515   2.566   2.592   2.915
 2168SOL     OW 6516   3.590   2.797   3.716
 2168SOL    HW1 6517   3.544   2.790   3.627
 2168SOL    HW2 6518   3.528   2.841   3.782
 2169SOL     OW 6519   2.169   1.925   2.480
 2169SOL    HW1 6520   2.158   2.019   2.513
 2169SOL    HW2 6521   2.164   1.862   2.557
 2170SOL     OW 6522   3.484   2.229   2.236
 2170SOL    HW1 6523   3.486   2.153   2.300
 2170SOL    HW2 6524   3.436   2.306   2.276
 2171SOL     OW 6525   2.885   2.628   2.828
 2171SOL    HW1 6526   2.900   2.649   2.924
 2171SOL    HW2 6527   2.855   2.533   2.819
 2172SOL     OW 6528   2.842   3.435   3.562
 2172SOL    HW1 6529   2.822   3.479   3.474
 2172SOL    HW2 6530   2.881   3.344   3.546
 2173SOL     OW 6531   3.721   3.380   3.467
 2173SOL    HW1 6532   3.735   3.407   3.372
 2173SOL    HW2 6533   3.804   3.402   3.520
 2174SOL     OW 6534   2.212   2.760   3.666
 2174SOL    HW1 6535   2.288   2.804   3.714
 2174SOL    HW2 6536   2.247   2.713   3.584
 2175SOL     OW 6537   3.402   2.136   1.987
 2175SOL    HW1 6538   3.341   2.061   2.010
 2175SOL    HW2 6539   3.424   2.188   2.070
 2176SOL     OW 6540   3.165   2.700   1.904
 2176SOL    HW1 6541   3.199   2.607   1.919
 2176SOL    HW2 6542   3.183   2.727   1.809
 2177SOL     OW 6543   2.930   3.195   2.711
 2177SOL    HW1 6544   2.937   3.111   2.656
 2177SOL    HW2 6545   2.992   3.264   2.675
 2178SOL     OW 6546   2.181   2.672   2.811
 2178SOL    HW1 6547   2.274   2.708   2.816
 2178SOL    HW2 6548   2.175   2.587   2.863
 2179SOL     OW 6549   3.000   2.242   3.540
 2179SOL    HW1 6550   2.955   2.305   3.604
 2179SOL    HW2 6551   3.093   2.273   3.523
 2180SOL     OW 6552   3.022   2.069   3.339
 2180SOL    HW1 6553   3.022   2.133   3.416
 2180SOL    HW2 6554   3.050   2.117   3.256
 2181SOL     OW 6555   1.870   3.188   2.062
 2181SOL    HW1 6556   1.777   3.209   2.031
 2181SOL    HW2 6557   1.880   3.089   2.075
 2182SOL     OW 6558   1.950   3.663   2.789
 2182SOL    HW1 6559   1.908   3.577   2.762
 2182SOL    HW2 6560   2.044   3.666   2.755
 2183SOL     OW 6561   2.366   3.430   2.772
 2183SOL    HW1 6562   2.432   3.504   2.781
 2183SOL    HW2 6563   2.410   3.351   2.730
 2184SOL     OW 6564   2.864   2.658   3.100
 2184SOL    HW1 6565   2.905   2.626   3.186
 2184SOL    HW2 6566   2.768   2.631   3.097
 2185SOL     OW 6567   1.902   2.406   2.976
 2185SOL    HW1 6568   1.987   2.373   2.935
 2185SOL    HW2 6569   1.915   2.421   3.074
 2186SOL     OW 6570   2.051   2.382   3.584
 2186SOL    HW1 6571   2.110   2.342   3.514
 2186SOL    HW2 6572   1.993   2.453   3.543
 2187SOL     OW 6573   3.231   2.812   3.522
 2187SOL    HW1 6574   3.270   2.901   3.542
 2187SOL    HW2 6575   3.241   2.792   3.425
 2188SOL     OW 6576   2.677   2.434   2.187
 2188SOL    HW1 6577   2.684   2.345   2.141
 2188SOL    HW2 6578   2.583   2.468   2.179
 2189SOL     OW 6579   3.519   2.466   3.068
 2189SOL    HW1 6580   3.481   2.397   3.130
 2189SOL    HW2 6581   3.601   2.430   3.024
 2190SOL     OW 6582   2.114   3.426   3.606
 2190SOL    HW1 6583   2.084   3.483   3.682
 2190SOL    HW2 6584   2.107   3.329   3.632
 2191SOL     OW 6585   2.533   2.326   3.131
 2191SOL    HW1 6586   2.499   2.237   3.101
 2191SOL    HW2 6587   2.559   2.380   3.051
 2192SOL     OW 6588   2.792   3.540   3.327
 2192SOL    HW1 6589   2.768   3.522   3.232
 2192SOL    HW2 6590   2.822   3.634   3.337
 2193SOL     OW 6591   2.021   2.999   3.328
 2193SOL    HW1 6592   2.043   2.938   3.404
 2193SOL    HW2 6593   2.031   2.950   3.242
 2194SOL     OW 6594   3.209   2.921   3.096
 2194SOL    HW1 6595   3.233   2.858   3.022
 2194SOL    HW2 6596   3.119   2.961   3.078
 2195SOL     OW 6597   3.164   2.717   2.171
 2195SOL    HW1 6598   3.078   2.686   2.213
 2195SOL    HW2 6599   3.160   2.703   2.072
 2196SOL     OW 6600   3.621   3.609   3.016
 2196SOL    HW1 6601   3.682   3.639   2.943
 2196SOL    HW2 6602   3.583   3.520   2.994
 2197SOL     OW 6603   3.114   3.593   2.990
 2197SOL    HW1 6604   3.198   3.598   2.936
 2197SOL    HW2 6605   3.091   3.497   3.008
 2198SOL     OW 6606   1.945   3.120   2.884
 2198SOL    HW1 6607   1.940   3.119   2.984
 2198SOL    HW2 6608   1.862   3.079   2.846
 2199SOL     OW 6609   2.550   3.524   3.578
 2199SOL    HW1 6610   2.494   3.605   3.587
 2199SOL    HW2 6611   2.602   3.528   3.492
 2200SOL     OW 6612   3.588   1.997   2.385
 2200SOL    HW1 6613   3.661   1.980   2.318
 2200SOL    HW2 6614   3.557   1.910   2.423
 2201SOL     OW 6615   3.250   3.435   2.339
 2201SOL    HW1 6616   3.317   3.447   2.265
 2201SOL    HW2 6617   3.210   3.524   2.362
 2202SOL     OW 6618   1.992   3.656   3.713
 2202SOL    HW1 6619   1.951   3.582   3.766
 2202SOL    HW2 6620   2.056   3.707   3.771
 2203SOL     OW 6621   3.142   2.789   2.534
 2203SOL    HW1 6622   3.202   2.708   2.536
 2203SOL    HW2 6623   3.182   2.858   2.474
 2204SOL     OW 6624   2.692   3.135   3.284
 2204SOL    HW1 6625   2.687   3.168   3.379
 2204SOL    HW2 6626   2.606   3.154   3.238
 2205SOL     OW 6627   2.534   3.478   2.016
 2205SOL    HW1 6628   2.543   3.488   1.917
 2205SOL    HW2 6629   2.494   3.389   2.037
 2206SOL     OW 6630   3.512   3.582   3.256
 2206SOL    HW1 6631   3.565   3.592   3.172
 2206SOL    HW2 6632   3.485   3.672   3.290
 2207SOL     OW 6633   3.703   2.037   2.825
 2207SOL    HW1 6634   3.742   1.952   2.789
 2207SOL    HW2 6635   3.605   2.039   2.806
 2208SOL     OW 6636   2.125   2.188   2.582
 2208SOL    HW1 6637   2.046   2.239   2.548
 2208SOL    HW2 6638   2.116   2.173   2.680
 2209SOL     OW 6639   3.056   3.474   1.893
 2209SOL    HW1 6640   3.062   3.381   1.930
 2209SOL    HW2 6641   2.997   3.474   1.813
 2210SOL     OW 6642   2.684   2.864   3.234
 2210SOL    HW1 6643   2.724   2.863   3.142
 2210SOL    HW2 6644   2.694   2.956   3.274
 2211SOL     OW 6645   2.778   2.772   2.153
 2211SOL    HW1 6646   2.841   2.810   2.085
 2211SOL    HW2 6647   2.818   2.689   2.192
 2212SOL     OW 6648   3.366   3.469   1.906
 2212SOL    HW1 6649   3.274   3.506   1.913
 2212SOL    HW2 6650   3.404   3.489   1.816
 2213SOL     OW 6651   2.234   3.150   3.352
 2213SOL    HW1 6652   2.221   3.243   3.318
 2213SOL    HW2 6653   2.150   3.098   3.339
 2214SOL     OW 6654   3.476   3.154   3.151
 2214SOL    HW1 6655   3.536   3.157   3.231
 2214SOL    HW2 6656   3.401   3.218   3.164
 2215SOL     OW 6657   2.901   2.960   2.558
 2215SOL    HW1 6658   2.831   2.913   2.612
 2215SOL    HW2 6659   2.960   2.892   2.515
 2216SOL     OW 6660   2.876   2.098   2.833
 2216SOL    HW1 6661   2.868   2.062   2.740
 2216SOL    HW2 6662   2.874   2.022   2.898
 2217SOL     OW 6663   2.452   3.349   2.353
 2217SOL    HW1 6664   2.494   3.291   2.283
 2217SOL    HW2 6665   2.408   3.428   2.309
 2218SOL     OW 6666   3.571   2.247   3.243
 2218SOL    HW1 6667   3.644   2.316   3.247
 2218SOL    HW2 6668   3.599   2.172   3.184
 2219SOL     OW 6669   2.117   3.210   2.152
 2219SOL    HW1 6670   2.021   3.211   2.125
 2219SOL    HW2 6671   2.129   3.263   2.236
 2220SOL     OW 6672   1.967   2.875   3.588
 2220SOL    HW1 6673   1.890   2.842   3.642
 2220SOL    HW2 6674   2.052   2.845   3.630
 2221SOL     OW 6675   2.534   2.065   3.351
 2221SOL    HW1 6676   2.624   2.049   3.311
 2221SOL    HW2 6677   2.542   2.070   3.450
 2222SOL     OW 6678   1.937   2.207   1.895
 2222SOL    HW1 6679   1.845   2.179   1.866
 2222SOL    HW2 6680   1.968   2.284   1.839
 2223SOL     OW 6681   3.302   2.718   3.260
 2223SOL    HW1 6682   3.245   2.770   3.197
 2223SOL    HW2 6683   3.398   2.730   3.236
 2224SOL     OW 6684   1.934   2.028   2.180
 2224SOL    HW1 6685   1.917   2.111   2.126
 2224SOL    HW2 6686   2.024   1.991   2.158
 2225SOL     OW 6687   3.045   3.197   1.981
 2225SOL    HW1 6688   2.946   3.186   1.983
 2225SOL    HW2 6689   3.079   3.212   2.074
 2226SOL     OW 6690   2.475   2.704   3.293
 2226SOL    HW1 6691   2.531   2.785   3.276
 2226SOL    HW2 6692   2.534   2.624   3.296
 2227SOL     OW 6693   3.355   3.629   2.821
 2227SOL    HW1 6694   3.388   3.693   2.752
 2227SOL    HW2 6695   3.421   3.623   2.896
 2228SOL     OW 6696   2.578   2.427   3.570
 2228SOL    HW1 6697   2.597   2.492   3.644
 2228SOL    HW2 6698   2.638   2.347   3.579
 2229SOL     OW 6699   3.312   3.082   3.495
 2229SOL    HW1 6700   3.303   3.072   3.594
 2229SOL    HW2 6701   3.408   3.075   3.469
 2230SOL     OW 6702   2.252   3.603   3.422
 2230SOL    HW1 6703   2.161   3.644   3.420
 2230SOL    HW2 6704   2.245   3.509   3.454
 2231SOL     OW 6705   3.536   2.745   3.116
 2231SOL    HW1 6706   3.509   2.656   3.079
 2231SOL    HW2 6707   3.537   2.813   3.043
 2232SOL     OW 6708   3.087   2.187   2.311
 2232SOL    HW1 6709   3.152   2.113   2.300
 2232SOL    HW2 6710   3.107   2.237   2.395
 2233SOL     OW 6711   2.456   2.607   2.514
 2233SOL    HW1 6712   2.506   2.692   2.495
 2233SOL    HW2 6713   2.368   2.609   2.466
 2234SOL     OW 6714   3.639   2.204   3.504
 2234SOL    HW1 6715   3.622   2.235   3.410
 2234SOL    HW2 6716   3.555   2.167   3.542
 2235SOL     OW 6717   3.592   2.796   3.379
 2235SOL    HW1 6718   3.630   2.887   3.394
 2235SOL    HW2 6719   3.584   2.779   3.280
 2236SOL     OW 6720   2.721   3.236   1.878
 2236SOL    HW1 6721   2.675   3.251   1.966
 2236SOL    HW2 6722   2.765   3.321   1.848
 2237SOL     OW 6723   2.523   3.652   2.815
 2237SOL    HW1 6724   2.477   3.740   2.802
 2237SOL    HW2 6725   2.622   3.664   2.808
 2238SOL     OW 6726   2.721   2.818   2.723
 2238SOL    HW1 6727   2.775   2.749   2.771
 2238SOL    HW2 6728   2.689   2.887   2.789
 2239SOL     OW 6729   2.945   2.846   1.949
 2239SOL    HW1 6730   2.922   2.899   1.867
 2239SOL    HW2 6731   3.026   2.790   1.930
 2240SOL     OW 6732   3.723   3.431   2.713
 2240SOL    HW1 6733   3.652   3.419   2.643
 2240SOL    HW2 6734   3.724   3.352   2.773
 2241SOL     OW 6735   2.083   3.176   3.706
 2241SOL    HW1 6736   2.018   3.103   3.685
 2241SOL    HW2 6737   2.087   3.190   3.804
 2242SOL     OW 6738   1.941   3.102   2.515
 2242SOL    HW1 6739   1.940   3.055   2.603
 2242SOL    HW2 6740   2.023   3.074   2.464
 2243SOL     OW 6741   2.534   3.253   3.486
 2243SOL    HW1 6742   2.456   3.203   3.524
 2243SOL    HW2 6743   2.531   3.348   3.517
 2244SOL     OW 6744   3.686   2.054   3.089
 2244SOL    HW1 6745   3.682   1.964   3.133
 2244SOL    HW2 6746   3.689   2.043   2.990
 2245SOL     OW 6747   3.567   3.349   2.966
 2245SOL    HW1 6748   3.474   3.324   2.939
 2245SOL    HW2 6749   3.593   3.299   3.048
 2246SOL     OW 6750   2.179   2.409   3.142
 2246SOL    HW1 6751   2.217   2.350   3.214
 2246SOL    HW2 6752   2.219   2.383   3.054
 2247SOL     OW 6753   2.674   3.448   2.549
 2247SOL    HW1 6754   2.706   3.458   2.455
 2247SOL    HW2 6755   2.595   3.386   2.551
 2248SOL     OW 6756   3.286   2.076   2.974
 2248SOL    HW1 6757   3.338   2.011   3.029
 2248SOL    HW2 6758   3.237   2.139   3.035
 2249SOL     OW 6759   2.863   1.896   3.016
 2249SOL    HW1 6760   2.800   1.824   2.985
 2249SOL    HW2 6761   2.956   1.860   3.016
 2250SOL     OW 6762   2.632   3.192   2.163
 2250SOL    HW1 6763   2.586   3.105   2.180
 2250SOL    HW2 6764   2.723   3.189   2.204
 2251SOL     OW 6765   2.480   3.429   3.146
 2251SOL    HW1 6766   2.475   3.511   3.203
 2251SOL    HW2 6767   2.569   3.426   3.101
 2252SOL     OW 6768   3.214   1.914   2.030
 2252SOL    HW1 6769   3.249   1.873   1.946
 2252SOL    HW2 6770   3.124   1.876   2.050
 2253SOL     OW 6771   3.162   2.315   2.553
 2253SOL    HW1 6772   3.103   2.395   2.557
 2253SOL    HW2 6773   3.177   2.280   2.646
 2254SOL     OW 6774   3.455   2.083   2.744
 2254SOL    HW1 6775   3.371   2.082   2.798
 2254SOL    HW2 6776   3.457   2.166   2.688
 2255SOL     OW 6777   1.901   2.939   2.162
 2255SOL    HW1 6778   2.000   2.928   2.153
 2255SOL    HW2 6779   1.861   2.853   2.194
 2256SOL     OW 6780   2.737   3.508   2.199
 2256SOL    HW1 6781   2.660   3.473   2.145
 2256SOL    HW2 6782   2.705   3.579   2.261
 2257SOL     OW 6783   2.092   2.490   3.837
 2257SOL    HW1 6784   1.999   2.488   3.874
 2257SOL    HW2 6785   2.093   2.451   3.745
 2258SOL     OW 6786   2.087   2.137   4.720
 2258SOL    HW1 6787   2.122   2.120   4.812
 2258SOL    HW2 6788   1.999   2.092   4.708
 2259SOL     OW 6789   1.881   2.230   4.371
 2259SOL    HW1 6790   1.799   2.273   4.410
 2259SOL    HW2 6791   1.853   2.157   4.308
 2260SOL     OW 6792   3.417   3.373   4.427
 2260SOL    HW1 6793   3.360   3.357   4.508
 2260SOL    HW2 6794   3.358   3.383   4.347
 2261SOL     OW 6795   2.997   2.565   4.441
 2261SOL    HW1 6796   3.054   2.643   4.416
 2261SOL    HW2 6797   2.937   2.591   4.517
 2262SOL     OW 6798   3.617   2.469   3.955
 2262SOL    HW1 6799   3.605   2.456   3.856
 2262SOL    HW2 6800   3.587   2.388   4.004
 2263SOL     OW 6801   2.630   3.006   4.747
 2263SOL    HW1 6802   2.552   3.023   4.807
 2263SOL    HW2 6803   2.664   3.093   4.711
 2264SOL     OW 6804   2.547   2.874   4.389
 2264SOL    HW1 6805   2.616   2.858   4.459
 2264SOL    HW2 6806   2.474   2.931   4.427
 2265SOL     OW 6807   3.465   2.309   4.461
 2265SOL    HW1 6808   3.391   2.355   4.411
 2265SOL    HW2 6809   3.516   2.377   4.514
 2266SOL     OW 6810   2.093   3.575   4.207
 2266SOL    HW1 6811   2.127   3.652   4.261
 2266SOL    HW2 6812   2.137   3.575   4.117
 2267SOL     OW 6813   2.092   3.296   4.262
 2267SOL    HW1 6814   2.066   3.392   4.262
 2267SOL    HW2 6815   2.021   3.242   4.307
 2268SOL     OW 6816   2.102   2.953   4.610
 2268SOL    HW1 6817   2.116   2.869   4.662
 2268SOL    HW2 6818   2.047   3.017   4.665
 2269SOL     OW 6819   2.468   2.826   3.847
 2269SOL    HW1 6820   2.475   2.910   3.793
 2269SOL    HW2 6821   2.514   2.839   3.935
 2270SOL     OW 6822   1.984   2.505   4.287
 2270SOL    HW1 6823   1.939   2.417   4.304
 2270SOL    HW2 6824   1.983   2.559   4.371
 2271SOL     OW 6825   3.704   3.629   4.083
 2271SOL    HW1 6826   3.758   3.600   4.163
 2271SOL    HW2 6827   3.734   3.719   4.054
 2272SOL     OW 6828   1.889   3.458   3.841
 2272SOL    HW1 6829   1.870   3.362   3.862
 2272SOL    HW2 6830   1.856   3.516   3.916
 2273SOL     OW 6831   3.551   2.784   4.336
 2273SOL    HW1 6832   3.646   2.755   4.344
 2273SOL    HW2 6833   3.543   2.849   4.261
 2274SOL     OW 6834   3.503   2.970   4.156
 2274SOL    HW1 6835   3.589   2.972   4.104
 2274SOL    HW2 6836   3.517   3.017   4.244
 2275SOL     OW 6837   2.475   3.227   4.450
 2275SOL    HW1 6838   2.426   3.140   4.459
 2275SOL    HW2 6839   2.452   3.270   4.363
 2276SOL     OW 6840   2.671   1.866   4.226
 2276SOL    HW1 6841   2.711   1.957   4.217
 2276SOL    HW2 6842   2.571   1.874   4.232
 2277SOL     OW 6843   3.387   2.861   3.914
 2277SOL    HW1 6844   3.324   2.785   3.927
 2277SOL    HW2 6845   3.435   2.879   4.000
 2278SOL     OW 6846   3.529   3.576   4.296
 2278SOL    HW1 6847   3.488   3.553   4.208
 2278SOL    HW2 6848   3.511   3.502   4.361
 2279SOL     OW 6849   2.460   2.591   3.994
 2279SOL    HW1 6850   2.484   2.660   3.926
 2279SOL    HW2 6851   2.382   2.624   4.048
 2280SOL     OW 6852   3.143   2.207   4.668
 2280SOL    HW1 6853   3.057   2.157   4.655
 2280SOL    HW2 6854   3.205   2.153   4.724
 2281SOL     OW 6855   3.438   3.524   4.031
 2281SOL    HW1 6856   3.527   3.570   4.034
 2281SOL    HW2 6857   3.417   3.500   3.936
 2282SOL     OW 6858   2.903   2.563   4.153
 2282SOL    HW1 6859   2.929   2.559   4.249
 2282SOL    HW2 6860   2.818   2.512   4.139
 2283SOL     OW 6861   1.938   2.673   4.513
 2283SOL    HW1 6862   2.037   2.661   4.522
 2283SOL    HW2 6863   1.914   2.768   4.534
 2284SOL     OW 6864   2.727   2.210   3.919
 2284SOL    HW1 6865   2.786   2.273   3.870
 2284SOL    HW2 6866   2.746   2.116   3.890
 2285SOL     OW 6867   3.224   3.006   4.269
 2285SOL    HW1 6868   3.307   2.977   4.221
 2285SOL    HW2 6869   3.175   3.073   4.213
 2286SOL     OW 6870   2.412   2.058   4.609
 2286SOL    HW1 6871   2.407   2.053   4.709
 2286SOL    HW2 6872   2.414   2.154   4.580
 2287SOL     OW 6873   2.870   3.318   4.201
 2287SOL    HW1 6874   2.824   3.390   4.149
 2287SOL    HW2 6875   2.866   3.338   4.299
 2288SOL     OW 6876   2.213   3.663   4.577
 2288SOL    HW1 6877   2.263   3.577   4.583
 2288SOL    HW2 6878   2.278   3.740   4.574
 2289SOL     OW 6879   3.657   2.928   4.597
 2289SOL    HW1 6880   3.595   2.913   4.521
 2289SOL    HW2 6881   3.605   2.939   4.682
 2290SOL     OW 6882   2.183   2.805   3.966
 2290SOL    HW1 6883   2.265   2.844   3.924
 2290SOL    HW2 6884   2.156   2.723   3.917
 2291SOL     OW 6885   3.320   2.597   4.452
 2291SOL    HW1 6886   3.315   2.532   4.527
 2291SOL    HW2 6887   3.400   2.656   4.465
 2292SOL     OW 6888   2.973   3.638   3.961
 2292SOL    HW1 6889   2.913   3.576   4.011
 2292SOL    HW2 6890   3.004   3.594   3.876
 2293SOL     OW 6891   3.494   3.239   3.805
 2293SOL    HW1 6892   3.462   3.333   3.795
 2293SOL    HW2 6893   3.418   3.176   3.793
 2294SOL     OW 6894   2.326   3.605   4.047
 2294SOL    HW1 6895   2.359   3.644   4.133
 2294SOL    HW2 6896   2.402   3.598   3.982
 2295SOL     OW 6897   3.262   1.969   4.150
 2295SOL    HW1 6898   3.238   1.932   4.060
 2295SOL    HW2 6899   3.361   1.985   4.154
 2296SOL     OW 6900   2.244   2.562   4.204
 2296SOL    HW1 6901   2.289   2.472   4.201
 2296SOL    HW2 6902   2.150   2.551   4.237
 2297SOL     OW 6903   2.476   1.984   3.841
 2297SOL    HW1 6904   2.574   1.962   3.848
 2297SOL    HW2 6905   2.445   1.967   3.748
 2298SOL     OW 6906   2.401   1.926   4.236
 2298SOL    HW1 6907   2.320   1.927   4.294
 2298SOL    HW2 6908   2.404   2.009   4.181
 2299SOL     OW 6909   3.296   3.050   3.765
 2299SOL    HW1 6910   3.328   2.974   3.822
 2299SOL    HW2 6911   3.204   3.077   3.795
 2300SOL     OW 6912   2.159   1.897   3.895
 2300SOL    HW1 6913   2.208   1.981   3.874
 2300SOL    HW2 6914   2.221   1.832   3.940
 2301SOL     OW 6915   2.797   2.098   4.204
 2301SOL    HW1 6916   2.749   2.139   4.126
 2301SOL    HW2 6917   2.896   2.096   4.185
 2302SOL     OW 6918   2.321   3.014   4.465
 2302SOL    HW1 6919   2.250   2.987   4.530
 2302SOL    HW2 6920   2.295   2.986   4.372
 2303SOL     OW 6921   3.133   3.659   4.315
 2303SOL    HW1 6922   3.177   3.723   4.251
 2303SOL    HW2 6923   3.083   3.711   4.385
 2304SOL     OW 6924   2.894   2.411   3.740
 2304SOL    HW1 6925   2.853   2.493   3.701
 2304SOL    HW2 6926   2.958   2.437   3.813
 2305SOL     OW 6927   2.728   2.316   4.366
 2305SOL    HW1 6928   2.696   2.388   4.304
 2305SOL    HW2 6929   2.752   2.235   4.313
 2306SOL     OW 6930   2.879   1.901   4.477
 2306SOL    HW1 6931   2.807   1.906   4.408
 2306SOL    HW2 6932   2.855   1.832   4.546
 2307SOL     OW 6933   3.719   2.695   4.101
 2307SOL    HW1 6934   3.761   2.631   4.165
 2307SOL    HW2 6935   3.681   2.644   4.023
 2308SOL     OW 6936   2.350   3.247   3.898
 2308SOL    HW1 6937   2.263   3.232   3.945
 2308SOL    HW2 6938   2.333   3.273   3.803
 2309SOL     OW 6939   3.526   3.142   4.381
 2309SOL    HW1 6940   3.625   3.150   4.395
 2309SOL    HW2 6941   3.481   3.226   4.412
 2310SOL     OW 6942   3.252   2.437   3.802
 2310SOL    HW1 6943   3.198   2.416   3.883
 2310SOL    HW2 6944   3.343   2.396   3.811
 2311SOL     OW 6945   2.389   2.118   4.052
 2311SOL    HW1 6946   2.416   2.059   3.977
 2311SOL    HW2 6947   2.389   2.213   4.021
 2312SOL     OW 6948   2.567   2.912   4.092
 2312SOL    HW1 6949   2.553   2.919   4.191
 2312SOL    HW2 6950   2.651   2.861   4.074
 2313SOL     OW 6951   2.229   2.962   4.225
 2313SOL    HW1 6952   2.222   3.045   4.169
 2313SOL    HW2 6953   2.233   2.882   4.165
 2314SOL     OW 6954   2.428   2.399   4.589
 2314SOL    HW1 6955   2.440   2.465   4.515
 2314SOL    HW2 6956   2.474   2.433   4.672
 2315SOL     OW 6957   3.114   3.210   4.112
 2315SOL    HW1 6958   3.164   3.287   4.152
 2315SOL    HW2 6959   3.019   3.212   4.144
 2316SOL     OW 6960   3.444   2.501   4.196
 2316SOL    HW1 6961   3.413   2.562   4.269
 2316SOL    HW2 6962   3.494   2.553   4.127
 2317SOL     OW 6963   3.071   2.387   3.999
 2317SOL    HW1 6964   3.084   2.303   4.053
 2317SOL    HW2 6965   3.042   2.461   4.059
 2318SOL     OW 6966   2.594   2.496   4.788
 2318SOL    HW1 6967   2.653   2.470   4.712
 2318SOL    HW2 6968   2.566   2.592   4.777
 2319SOL     OW 6969   2.169   1.925   4.342
 2319SOL    HW1 6970   2.158   2.019   4.375
 2319SOL    HW2 6971   2.164   1.862   4.419
 2320SOL     OW 6972   3.484   2.229   4.098
 2320SOL    HW1 6973   3.486   2.153   4.162
 2320SOL    HW2 6974   3.436   2.306   4.138
 2321SOL     OW 6975   3.402   2.136   3.849
 2321SOL    HW1 6976   3.341   2.061   3.872
 2321SOL    HW2 6977   3.424   2.188   3.932
 2322SOL     OW 6978   3.165   2.700   3.766
 2322SOL    HW1 6979   3.199   2.607   3.781
 2322SOL    HW2 6980   3.183   2.727   3.671
 2323SOL     OW 6981   2.930   3.195   4.573
 2323SOL    HW1 6982   2.937   3.111   4.518
 2323SOL    HW2 6983   2.992   3.264   4.537
 2324SOL     OW 6984   1.870   3.188   3.924
 2324SOL    HW1 6985   1.777   3.209   3.893
 2324SOL    HW2 6986   1.880   3.089   3.937
 2325SOL     OW 6987   1.950   3.663   4.651
 2325SOL    HW1 6988   1.908   3.577   4.624
 2325SOL    HW2 6989   2.044   3.666   4.617
 2326SOL     OW 6990   2.366   3.430   4.634
 2326SOL    HW1 6991   2.432   3.504   4.643
 2326SOL    HW2 6992   2.410   3.351   4.592
 2327SOL     OW 6993   2.677   2.434   4.049
 2327SOL    HW1 6994   2.684   2.345   4.003
 2327SOL    HW2 6995   2.583   2.468   4.041
 2328SOL     OW 6996   2.335   2.362   3.915
 2328SOL    HW1 6997   2.396   2.442   3.919
 2328SOL    HW2 6998   2.240   2.393   3.922
 2329SOL     OW 6999   3.164   2.717   4.033
 2329SOL    HW1 7000   3.078   2.686   4.075
 2329SOL    HW2 7001   3.160   2.703   3.934
 2330SOL     OW 7002   3.588   1.997   4.247
 2330SOL    HW1 7003   3.661   1.980   4.180
 2330SOL    HW2 7004   3.557   1.910   4.285
 2331SOL     OW 7005   3.250   3.435   4.201
 2331SOL    HW1 7006   3.317   3.447   4.127
 2331SOL    HW2 7007   3.210   3.524   4.224
 2332SOL     OW 7008   3.142   2.789   4.396
 2332SOL    HW1 7009   3.202   2.708   4.398
 2332SOL    HW2 7010   3.182   2.858   4.336
 2333SOL     OW 7011   2.534   3.478   3.878
 2333SOL    HW1 7012   2.543   3.488   3.779
 2333SOL    HW2 7013   2.494   3.389   3.899
 2334SOL     OW 7014   3.703   2.037   4.687
 2334SOL    HW1 7015   3.742   1.952   4.651
 2334SOL    HW2 7016   3.605   2.039   4.668
 2335SOL     OW 7017   2.125   2.188   4.444
 2335SOL    HW1 7018   2.046   2.239   4.410
 2335SOL    HW2 7019   2.116   2.173   4.542
 2336SOL     OW 7020   3.056   3.474   3.755
 2336SOL    HW1 7021   3.062   3.381   3.792
 2336SOL    HW2 7022   2.997   3.474   3.675
 2337SOL     OW 7023   2.778   2.772   4.015
 2337SOL    HW1 7024   2.841   2.810   3.947
 2337SOL    HW2 7025   2.818   2.689   4.054
 2338SOL     OW 7026   3.366   3.469   3.768
 2338SOL    HW1 7027   3.274   3.506   3.775
 2338SOL    HW2 7028   3.404   3.489   3.678
 2339SOL     OW 7029   2.901   2.960   4.420
 2339SOL    HW1 7030   2.831   2.913   4.474
 2339SOL    HW2 7031   2.960   2.892   4.377
 2340SOL     OW 7032   2.452   3.349   4.215
 2340SOL    HW1 7033   2.494   3.291   4.145
 2340SOL    HW2 7034   2.408   3.428   4.171
 2341SOL     OW 7035   2.117   3.210   4.014
 2341SOL    HW1 7036   2.021   3.211   3.987
 2341SOL    HW2 7037   2.129   3.263   4.098
 2342SOL     OW 7038   1.937   2.207   3.757
 2342SOL    HW1 7039   1.845   2.179   3.728
 2342SOL    HW2 7040   1.968   2.284   3.701
 2343SOL     OW 7041   1.934   2.028   4.042
 2343SOL    HW1 7042   1.917   2.111   3.988
 2343SOL    HW2 7043   2.024   1.991   4.020
 2344SOL     OW 7044   3.045   3.197   3.843
 2344SOL    HW1 7045   2.946   3.186   3.845
 2344SOL    HW2 7046   3.079   3.212   3.936
 2345SOL     OW 7047   3.087   2.187   4.173
 2345SOL    HW1 7048   3.152   2.113   4.162
 2345SOL    HW2 7049   3.107   2.237   4.257
 2346SOL     OW 7050   2.456   2.607   4.376
 2346SOL    HW1 7051   2.506   2.692   4.357
 2346SOL    HW2 7052   2.368   2.609   4.328
 2347SOL     OW 7053   2.721   3.236   3.740
 2347SOL    HW1 7054   2.675   3.251   3.828
 2347SOL    HW2 7055   2.765   3.321   3.710
 2348SOL     OW 7056   2.523   3.652   4.677
 2348SOL    HW1 7057   2.477   3.740   4.664
 2348SOL    HW2 7058   2.622   3.664   4.670
 2349SOL     OW 7059   2.721   2.818   4.585
 2349SOL    HW1 7060   2.775   2.749   4.633
 2349SOL    HW2 7061   2.689   2.887   4.651
 2350SOL     OW 7062   2.945   2.846   3.811
 2350SOL    HW1 7063   2.922   2.899   3.729
 2350SOL    HW2 7064   3.026   2.790   3.792
 2351SOL     OW 7065   3.723   3.431   4.575
 2351SOL    HW1 7066   3.652   3.419   4.505
 2351SOL    HW2 7067   3.724   3.352   4.635
 2352SOL     OW 7068   1.941   3.102   4.377
 2352SOL    HW1 7069   1.940   3.055   4.465
 2352SOL    HW2 7070   2.023   3.074   4.326
 2353SOL     OW 7071   2.290   2.286   4.244
 2353SOL    HW1 7072   2.320   2.214   4.182
 2353SOL    HW2 7073   2.251   2.246   4.327
 2354SOL     OW 7074   2.674   3.448   4.411
 2354SOL    HW1 7075   2.706   3.458   4.317
 2354SOL    HW2 7076   2.595   3.386   4.413
 2355SOL     OW 7077   2.632   3.192   4.025
 2355SOL    HW1 7078   2.586   3.105   4.042
 2355SOL    HW2 7079   2.723   3.189   4.066
 2356SOL     OW 7080   3.214   1.914   3.892
 2356SOL    HW1 7081   3.249   1.873   3.808
 2356SOL    HW2 7082   3.124   1.876   3.912
 2357SOL     OW 7083   3.162   2.315   4.415
 2357SOL    HW1 7084   3.103   2.395   4.419
 2357SOL    HW2 7085   3.177   2.280   4.508
 2358SOL     OW 7086   1.901   2.939   4.024
 2358SOL    HW1 7087   2.000   2.928   4.015
 2358SOL    HW2 7088   1.861   2.853   4.056
 2359SOL     OW 7089   2.737   3.508   4.061
 2359SOL    HW1 7090   2.660   3.473   4.007
 2359SOL    HW2 7091   2.705   3.579   4.123
 2360SOL     OW 7092   2.092   4.352   0.113
 2360SOL    HW1 7093   1.999   4.350   0.150
 2360SOL    HW2 7094   2.093   4.313   0.021
 2361SOL     OW 7095   2.087   3.999   0.996
 2361SOL    HW1 7096   2.122   3.982   1.088
 2361SOL    HW2 7097   1.999   3.954   0.984
 2362SOL     OW 7098   1.881   4.092   0.647
 2362SOL    HW1 7099   1.799   4.135   0.686
 2362SOL    HW2 7100   1.853   4.019   0.584
 2363SOL     OW 7101   2.997   4.427   0.717
 2363SOL    HW1 7102   3.054   4.505   0.692
 2363SOL    HW2 7103   2.937   4.453   0.793
 2364SOL     OW 7104   3.617   4.331   0.231
 2364SOL    HW1 7105   3.605   4.318   0.132
 2364SOL    HW2 7106   3.587   4.250   0.280
 2365SOL     OW 7107   2.712   4.522   1.823
 2365SOL    HW1 7108   2.708   4.598   1.888
 2365SOL    HW2 7109   2.734   4.558   1.732
 2366SOL     OW 7110   2.547   4.736   0.665
 2366SOL    HW1 7111   2.616   4.720   0.735
 2366SOL    HW2 7112   2.474   4.793   0.703
 2367SOL     OW 7113   2.300   4.116   1.499
 2367SOL    HW1 7114   2.382   4.060   1.508
 2367SOL    HW2 7115   2.219   4.058   1.503
 2368SOL     OW 7116   3.465   4.171   0.737
 2368SOL    HW1 7117   3.391   4.217   0.687
 2368SOL    HW2 7118   3.516   4.239   0.790
 2369SOL     OW 7119   3.456   3.838   1.480
 2369SOL    HW1 7120   3.438   3.905   1.408
 2369SOL    HW2 7121   3.453   3.884   1.569
 2370SOL     OW 7122   1.984   4.367   0.563
 2370SOL    HW1 7123   1.939   4.279   0.580
 2370SOL    HW2 7124   1.983   4.421   0.647
 2371SOL     OW 7125   1.975   4.461   1.597
 2371SOL    HW1 7126   2.063   4.448   1.642
 2371SOL    HW2 7127   1.962   4.558   1.575
 2372SOL     OW 7128   2.671   3.728   0.502
 2372SOL    HW1 7129   2.711   3.819   0.493
 2372SOL    HW2 7130   2.571   3.736   0.508
 2373SOL     OW 7131   2.179   3.975   1.801
 2373SOL    HW1 7132   2.250   4.046   1.807
 2373SOL    HW2 7133   2.091   4.014   1.829
 2374SOL     OW 7134   2.460   4.453   0.270
 2374SOL    HW1 7135   2.484   4.522   0.202
 2374SOL    HW2 7136   2.382   4.486   0.324
 2375SOL     OW 7137   3.143   4.069   0.944
 2375SOL    HW1 7138   3.057   4.019   0.931
 2375SOL    HW2 7139   3.205   4.015   1.000
 2376SOL     OW 7140   2.669   4.329   1.465
 2376SOL    HW1 7141   2.622   4.326   1.554
 2376SOL    HW2 7142   2.618   4.274   1.399
 2377SOL     OW 7143   3.256   4.193   1.674
 2377SOL    HW1 7144   3.236   4.236   1.762
 2377SOL    HW2 7145   3.334   4.131   1.683
 2378SOL     OW 7146   2.853   4.134   1.242
 2378SOL    HW1 7147   2.776   4.168   1.296
 2378SOL    HW2 7148   2.819   4.083   1.163
 2379SOL     OW 7149   2.903   4.425   0.429
 2379SOL    HW1 7150   2.929   4.421   0.525
 2379SOL    HW2 7151   2.818   4.374   0.415
 2380SOL     OW 7152   1.938   4.535   0.789
 2380SOL    HW1 7153   2.037   4.523   0.798
 2380SOL    HW2 7154   1.914   4.630   0.810
 2381SOL     OW 7155   2.727   4.072   0.195
 2381SOL    HW1 7156   2.786   4.135   0.146
 2381SOL    HW2 7157   2.746   3.978   0.166
 2382SOL     OW 7158   3.581   4.309   1.831
 2382SOL    HW1 7159   3.555   4.398   1.795
 2382SOL    HW2 7160   3.579   4.241   1.758
 2383SOL     OW 7161   2.412   3.920   0.885
 2383SOL    HW1 7162   2.407   3.915   0.985
 2383SOL    HW2 7163   2.414   4.016   0.856
 2384SOL     OW 7164   3.320   4.459   0.728
 2384SOL    HW1 7165   3.315   4.394   0.803
 2384SOL    HW2 7166   3.400   4.518   0.741
 2385SOL     OW 7167   2.064   4.009   1.498
 2385SOL    HW1 7168   1.984   4.069   1.485
 2385SOL    HW2 7169   2.054   3.960   1.584
 2386SOL     OW 7170   3.262   3.831   0.426
 2386SOL    HW1 7171   3.238   3.794   0.336
 2386SOL    HW2 7172   3.361   3.847   0.430
 2387SOL     OW 7173   2.244   4.424   0.480
 2387SOL    HW1 7174   2.289   4.334   0.477
 2387SOL    HW2 7175   2.150   4.413   0.513
 2388SOL     OW 7176   3.409   3.946   1.729
 2388SOL    HW1 7177   3.404   3.983   1.821
 2388SOL    HW2 7178   3.337   3.877   1.717
 2389SOL     OW 7179   2.643   3.988   1.749
 2389SOL    HW1 7180   2.710   3.927   1.792
 2389SOL    HW2 7181   2.570   4.007   1.814
 2390SOL     OW 7182   3.213   4.314   1.433
 2390SOL    HW1 7183   3.241   4.271   1.518
 2390SOL    HW2 7184   3.238   4.410   1.434
 2391SOL     OW 7185   2.784   4.227   0.899
 2391SOL    HW1 7186   2.759   4.218   0.803
 2391SOL    HW2 7187   2.832   4.145   0.930
 2392SOL     OW 7188   2.401   3.788   0.512
 2392SOL    HW1 7189   2.320   3.789   0.570
 2392SOL    HW2 7190   2.404   3.871   0.457
 2393SOL     OW 7191   2.159   3.759   0.171
 2393SOL    HW1 7192   2.208   3.843   0.150
 2393SOL    HW2 7193   2.221   3.694   0.216
 2394SOL     OW 7194   2.797   3.960   0.480
 2394SOL    HW1 7195   2.749   4.001   0.402
 2394SOL    HW2 7196   2.896   3.958   0.461
 2395SOL     OW 7197   2.938   4.407   1.464
 2395SOL    HW1 7198   2.858   4.346   1.467
 2395SOL    HW2 7199   3.019   4.354   1.440
 2396SOL     OW 7200   2.894   4.273   0.016
 2396SOL    HW1 7201   2.853   4.355  -0.023
 2396SOL    HW2 7202   2.958   4.299   0.089
 2397SOL     OW 7203   1.940   4.280   1.386
 2397SOL    HW1 7204   2.032   4.279   1.345
 2397SOL    HW2 7205   1.934   4.354   1.453
 2398SOL     OW 7206   2.423   3.946   1.147
 2398SOL    HW1 7207   2.461   3.862   1.184
 2398SOL    HW2 7208   2.335   3.965   1.191
 2399SOL     OW 7209   2.728   4.178   0.642
 2399SOL    HW1 7210   2.696   4.250   0.580
 2399SOL    HW2 7211   2.752   4.097   0.589
 2400SOL     OW 7212   2.879   3.763   0.753
 2400SOL    HW1 7213   2.807   3.768   0.684
 2400SOL    HW2 7214   2.855   3.694   0.822
 2401SOL     OW 7215   3.328   4.314   0.992
 2401SOL    HW1 7216   3.298   4.219   0.999
 2401SOL    HW2 7217   3.401   4.330   1.058
 2402SOL     OW 7218   3.719   4.557   0.377
 2402SOL    HW1 7219   3.761   4.493   0.441
 2402SOL    HW2 7220   3.681   4.506   0.299
 2403SOL     OW 7221   3.252   4.299   0.078
 2403SOL    HW1 7222   3.198   4.278   0.159
 2403SOL    HW2 7223   3.343   4.258   0.087
 2404SOL     OW 7224   2.389   3.980   0.328
 2404SOL    HW1 7225   2.416   3.921   0.253
 2404SOL    HW2 7226   2.389   4.075   0.297
 2405SOL     OW 7227   2.777   3.813   1.402
 2405SOL    HW1 7228   2.802   3.793   1.307
 2405SOL    HW2 7229   2.849   3.869   1.444
 2406SOL     OW 7230   2.272   4.537   1.251
 2406SOL    HW1 7231   2.358   4.549   1.301
 2406SOL    HW2 7232   2.230   4.450   1.278
 2407SOL     OW 7233   3.136   4.110   1.262
 2407SOL    HW1 7234   3.157   4.184   1.326
 2407SOL    HW2 7235   3.047   4.127   1.219
 2408SOL     OW 7236   2.428   4.261   0.865
 2408SOL    HW1 7237   2.440   4.327   0.791
 2408SOL    HW2 7238   2.474   4.295   0.948
 2409SOL     OW 7239   3.444   4.363   0.472
 2409SOL    HW1 7240   3.413   4.424   0.545
 2409SOL    HW2 7241   3.494   4.415   0.403
 2410SOL     OW 7242   2.264   4.475   1.598
 2410SOL    HW1 7243   2.332   4.530   1.551
 2410SOL    HW2 7244   2.304   4.387   1.625
 2411SOL     OW 7245   3.449   4.503   1.670
 2411SOL    HW1 7246   3.357   4.541   1.665
 2411SOL    HW2 7247   3.509   4.550   1.605
 2412SOL     OW 7248   2.875   3.829   1.770
 2412SOL    HW1 7249   2.881   3.914   1.718
 2412SOL    HW2 7250   2.907   3.753   1.713
 2413SOL     OW 7251   2.366   3.774   1.740
 2413SOL    HW1 7252   2.324   3.717   1.670
 2413SOL    HW2 7253   2.300   3.843   1.772
 2414SOL     OW 7254   2.435   4.594   1.029
 2414SOL    HW1 7255   2.479   4.683   1.020
 2414SOL    HW2 7256   2.372   4.594   1.106
 2415SOL     OW 7257   3.222   4.586   1.045
 2415SOL    HW1 7258   3.147   4.586   0.979
 2415SOL    HW2 7259   3.259   4.494   1.054
 2416SOL     OW 7260   3.071   4.249   0.275
 2416SOL    HW1 7261   3.084   4.165   0.329
 2416SOL    HW2 7262   3.042   4.323   0.335
 2417SOL     OW 7263   2.169   3.937   1.231
 2417SOL    HW1 7264   2.146   3.974   1.321
 2417SOL    HW2 7265   2.139   3.842   1.225
 2418SOL     OW 7266   2.594   4.358   1.064
 2418SOL    HW1 7267   2.653   4.332   0.988
 2418SOL    HW2 7268   2.566   4.454   1.053
 2419SOL     OW 7269   3.590   4.659   1.854
 2419SOL    HW1 7270   3.544   4.652   1.765
 2419SOL    HW2 7271   3.528   4.703   1.920
 2420SOL     OW 7272   2.169   3.787   0.618
 2420SOL    HW1 7273   2.158   3.881   0.651
 2420SOL    HW2 7274   2.164   3.724   0.695
 2421SOL     OW 7275   3.484   4.091   0.374
 2421SOL    HW1 7276   3.486   4.015   0.438
 2421SOL    HW2 7277   3.436   4.168   0.414
 2422SOL     OW 7278   2.885   4.490   0.966
 2422SOL    HW1 7279   2.900   4.511   1.062
 2422SOL    HW2 7280   2.855   4.395   0.957
 2423SOL     OW 7281   3.402   3.998   0.125
 2423SOL    HW1 7282   3.341   3.923   0.148
 2423SOL    HW2 7283   3.424   4.050   0.208
 2424SOL     OW 7284   3.165   4.562   0.042
 2424SOL    HW1 7285   3.199   4.469   0.057
 2424SOL    HW2 7286   3.183   4.589  -0.053
 2425SOL     OW 7287   2.181   4.534   0.949
 2425SOL    HW1 7288   2.274   4.570   0.954
 2425SOL    HW2 7289   2.175   4.449   1.001
 2426SOL     OW 7290   2.201   4.233   1.006
 2426SOL    HW1 7291   2.149   4.150   0.989
 2426SOL    HW2 7292   2.278   4.238   0.942
 2427SOL     OW 7293   3.000   4.104   1.678
 2427SOL    HW1 7294   2.955   4.167   1.742
 2427SOL    HW2 7295   3.093   4.135   1.661
 2428SOL     OW 7296   3.022   3.931   1.477
 2428SOL    HW1 7297   3.022   3.995   1.554
 2428SOL    HW2 7298   3.050   3.979   1.394
 2429SOL     OW 7299   2.864   4.520   1.238
 2429SOL    HW1 7300   2.905   4.488   1.324
 2429SOL    HW2 7301   2.768   4.493   1.235
 2430SOL     OW 7302   1.902   4.268   1.114
 2430SOL    HW1 7303   1.987   4.235   1.073
 2430SOL    HW2 7304   1.915   4.283   1.212
 2431SOL     OW 7305   2.051   4.244   1.722
 2431SOL    HW1 7306   2.110   4.204   1.652
 2431SOL    HW2 7307   1.993   4.315   1.681
 2432SOL     OW 7308   2.677   4.296   0.325
 2432SOL    HW1 7309   2.684   4.207   0.279
 2432SOL    HW2 7310   2.583   4.330   0.317
 2433SOL     OW 7311   3.519   4.328   1.206
 2433SOL    HW1 7312   3.481   4.259   1.268
 2433SOL    HW2 7313   3.601   4.292   1.162
 2434SOL     OW 7314   2.533   4.188   1.269
 2434SOL    HW1 7315   2.499   4.099   1.239
 2434SOL    HW2 7316   2.559   4.242   1.189
 2435SOL     OW 7317   2.335   4.224   0.191
 2435SOL    HW1 7318   2.396   4.304   0.195
 2435SOL    HW2 7319   2.240   4.255   0.198
 2436SOL     OW 7320   2.765   3.810   0.133
 2436SOL    HW1 7321   2.816   3.811   0.047
 2436SOL    HW2 7322   2.821   3.768   0.204
 2437SOL     OW 7323   3.588   3.859   0.523
 2437SOL    HW1 7324   3.661   3.842   0.456
 2437SOL    HW2 7325   3.557   3.772   0.561
 2438SOL     OW 7326   3.142   4.651   0.672
 2438SOL    HW1 7327   3.202   4.570   0.674
 2438SOL    HW2 7328   3.182   4.720   0.612
 2439SOL     OW 7329   3.703   3.899   0.963
 2439SOL    HW1 7330   3.742   3.814   0.927
 2439SOL    HW2 7331   3.605   3.901   0.944
 2440SOL     OW 7332   2.125   4.050   0.720
 2440SOL    HW1 7333   2.046   4.101   0.686
 2440SOL    HW2 7334   2.116   4.035   0.818
 2441SOL     OW 7335   2.876   3.960   0.971
 2441SOL    HW1 7336   2.868   3.924   0.878
 2441SOL    HW2 7337   2.874   3.884   1.036
 2442SOL     OW 7338   3.571   4.109   1.381
 2442SOL    HW1 7339   3.644   4.178   1.385
 2442SOL    HW2 7340   3.599   4.034   1.322
 2443SOL     OW 7341   1.967   4.737   1.726
 2443SOL    HW1 7342   1.890   4.704   1.780
 2443SOL    HW2 7343   2.052   4.707   1.768
 2444SOL     OW 7344   2.534   3.927   1.489
 2444SOL    HW1 7345   2.624   3.911   1.449
 2444SOL    HW2 7346   2.542   3.932   1.588
 2445SOL     OW 7347   3.302   4.580   1.398
 2445SOL    HW1 7348   3.245   4.632   1.335
 2445SOL    HW2 7349   3.398   4.592   1.374
 2446SOL     OW 7350   1.934   3.890   0.318
 2446SOL    HW1 7351   1.917   3.973   0.264
 2446SOL    HW2 7352   2.024   3.853   0.296
 2447SOL     OW 7353   2.475   4.566   1.431
 2447SOL    HW1 7354   2.531   4.647   1.414
 2447SOL    HW2 7355   2.534   4.486   1.434
 2448SOL     OW 7356   2.578   4.289   1.708
 2448SOL    HW1 7357   2.597   4.354   1.782
 2448SOL    HW2 7358   2.638   4.209   1.717
 2449SOL     OW 7359   3.536   4.607   1.254
 2449SOL    HW1 7360   3.509   4.518   1.217
 2449SOL    HW2 7361   3.537   4.675   1.181
 2450SOL     OW 7362   3.087   4.049   0.449
 2450SOL    HW1 7363   3.152   3.975   0.438
 2450SOL    HW2 7364   3.107   4.099   0.533
 2451SOL     OW 7365   2.456   4.469   0.652
 2451SOL    HW1 7366   2.506   4.554   0.633
 2451SOL    HW2 7367   2.368   4.471   0.604
 2452SOL     OW 7368   3.639   4.066   1.642
 2452SOL    HW1 7369   3.622   4.097   1.548
 2452SOL    HW2 7370   3.555   4.029   1.680
 2453SOL     OW 7371   3.592   4.658   1.517
 2453SOL    HW1 7372   3.630   4.749   1.532
 2453SOL    HW2 7373   3.584   4.641   1.418
 2454SOL     OW 7374   3.686   3.916   1.227
 2454SOL    HW1 7375   3.682   3.826   1.271
 2454SOL    HW2 7376   3.689   3.905   1.128
 2455SOL     OW 7377   2.290   4.148   0.520
 2455SOL    HW1 7378   2.320   4.076   0.458
 2455SOL    HW2 7379   2.251   4.108   0.603
 2456SOL     OW 7380   2.179   4.271   1.280
 2456SOL    HW1 7381   2.217   4.212   1.352
 2456SOL    HW2 7382   2.219   4.245   1.192
 2457SOL     OW 7383   3.286   3.938   1.112
 2457SOL    HW1 7384   3.338   3.873   1.167
 2457SOL    HW2 7385   3.237   4.001   1.173
 2458SOL     OW 7386   2.863   3.758   1.154
 2458SOL    HW1 7387   2.800   3.686   1.123
 2458SOL    HW2 7388   2.956   3.722   1.154
 2459SOL     OW 7389   3.214   3.776   0.168
 2459SOL    HW1 7390   3.249   3.735   0.084
 2459SOL    HW2 7391   3.124   3.738   0.188
 2460SOL     OW 7392   3.162   4.177   0.691
 2460SOL    HW1 7393   3.103   4.257   0.695
 2460SOL    HW2 7394   3.177   4.142   0.784
 2461SOL     OW 7395   3.455   3.945   0.882
 2461SOL    HW1 7396   3.371   3.944   0.936
 2461SOL    HW2 7397   3.457   4.028   0.826
 2462SOL     OW 7398   2.092   4.352   1.975
 2462SOL    HW1 7399   1.999   4.350   2.012
 2462SOL    HW2 7400   2.093   4.313   1.883
 2463SOL     OW 7401   2.087   3.999   2.858
 2463SOL    HW1 7402   2.122   3.982   2.950
 2463SOL    HW2 7403   1.999   3.954   2.846
 2464SOL     OW 7404   1.881   4.092   2.509
 2464SOL    HW1 7405   1.799   4.135   2.548
 2464SOL    HW2 7406   1.853   4.019   2.446
 2465SOL     OW 7407   2.997   4.427   2.579
 2465SOL    HW1 7408   3.054   4.505   2.554
 2465SOL    HW2 7409   2.937   4.453   2.655
 2466SOL     OW 7410   3.617   4.331   2.093
 2466SOL    HW1 7411   3.605   4.318   1.994
 2466SOL    HW2 7412   3.587   4.250   2.142
 2467SOL     OW 7413   2.712   4.522   3.685
 2467SOL    HW1 7414   2.708   4.598   3.750
 2467SOL    HW2 7415   2.734   4.558   3.594
 2468SOL     OW 7416   2.547   4.736   2.527
 2468SOL    HW1 7417   2.616   4.720   2.597
 2468SOL    HW2 7418   2.474   4.793   2.565
 2469SOL     OW 7419   2.300   4.116   3.361
 2469SOL    HW1 7420   2.382   4.060   3.370
 2469SOL    HW2 7421   2.219   4.058   3.365
 2470SOL     OW 7422   3.465   4.171   2.599
 2470SOL    HW1 7423   3.391   4.217   2.549
 2470SOL    HW2 7424   3.516   4.239   2.652
 2471SOL     OW 7425   3.456   3.838   3.342
 2471SOL    HW1 7426   3.438   3.905   3.270
 2471SOL    HW2 7427   3.453   3.884   3.431
 2472SOL     OW 7428   1.984   4.367   2.425
 2472SOL    HW1 7429   1.939   4.279   2.442
 2472SOL    HW2 7430   1.983   4.421   2.509
 2473SOL     OW 7431   1.975   4.461   3.459
 2473SOL    HW1 7432   2.063   4.448   3.504
 2473SOL    HW2 7433   1.962   4.558   3.437
 2474SOL     OW 7434   2.671   3.728   2.364
 2474SOL    HW1 7435   2.711   3.819   2.355
 2474SOL    HW2 7436   2.571   3.736   2.370
 2475SOL     OW 7437   2.179   3.975   3.663
 2475SOL    HW1 7438   2.250   4.046   3.669
 2475SOL    HW2 7439   2.091   4.014   3.691
 2476SOL     OW 7440   2.460   4.453   2.132
 2476SOL    HW1 7441   2.484   4.522   2.064
 2476SOL    HW2 7442   2.382   4.486   2.186
 2477SOL     OW 7443   3.143   4.069   2.806
 2477SOL    HW1 7444   3.057   4.019   2.793
 2477SOL    HW2 7445   3.205   4.015   2.862
 2478SOL     OW 7446   2.669   4.329   3.327
 2478SOL    HW1 7447   2.622   4.326   3.416
 2478SOL    HW2 7448   2.618   4.274   3.261
 2479SOL     OW 7449   3.256   4.193   3.536
 2479SOL    HW1 7450   3.236   4.236   3.624
 2479SOL    HW2 7451   3.334   4.131   3.545
 2480SOL     OW 7452   2.853   4.134   3.104
 2480SOL    HW1 7453   2.776   4.168   3.158
 2480SOL    HW2 7454   2.819   4.083   3.025
 2481SOL     OW 7455   2.903   4.425   2.291
 2481SOL    HW1 7456   2.929   4.421   2.387
 2481SOL    HW2 7457   2.818   4.374   2.277
 2482SOL     OW 7458   1.938   4.535   2.651
 2482SOL    HW1 7459   2.037   4.523   2.660
 2482SOL    HW2 7460   1.914   4.630   2.672
 2483SOL     OW 7461   2.727   4.072   2.057
 2483SOL    HW1 7462   2.786   4.135   2.008
 2483SOL    HW2 7463   2.746   3.978   2.028
 2484SOL     OW 7464   3.581   4.309   3.693
 2484SOL    HW1 7465   3.555   4.398   3.657
 2484SOL    HW2 7466   3.579   4.241   3.620
 2485SOL     OW 7467   2.412   3.920   2.747
 2485SOL    HW1 7468   2.407   3.915   2.847
 2485SOL    HW2 7469   2.414   4.016   2.718
 2486SOL     OW 7470   3.320   4.459   2.590
 2486SOL    HW1 7471   3.315   4.394   2.665
 2486SOL    HW2 7472   3.400   4.518   2.603
 2487SOL     OW 7473   2.064   4.009   3.360
 2487SOL    HW1 7474   1.984   4.069   3.347
 2487SOL    HW2 7475   2.054   3.960   3.446
 2488SOL     OW 7476   3.262   3.831   2.288
 2488SOL    HW1 7477   3.238   3.794   2.198
 2488SOL    HW2 7478   3.361   3.847   2.292
 2489SOL     OW 7479   2.244   4.424   2.342
 2489SOL    HW1 7480   2.289   4.334   2.339
 2489SOL    HW2 7481   2.150   4.413   2.375
 2490SOL     OW 7482   3.409   3.946   3.591
 2490SOL    HW1 7483   3.404   3.983   3.683
 2490SOL    HW2 7484   3.337   3.877   3.579
 2491SOL     OW 7485   2.476   3.846   1.979
 2491SOL    HW1 7486   2.574   3.824   1.986
 2491SOL    HW2 7487   2.445   3.829   1.886
 2492SOL     OW 7488   2.643   3.988   3.611
 2492SOL    HW1 7489   2.710   3.927   3.654
 2492SOL    HW2 7490   2.570   4.007   3.676
 2493SOL     OW 7491   3.213   4.314   3.295
 2493SOL    HW1 7492   3.241   4.271   3.380
 2493SOL    HW2 7493   3.238   4.410   3.296
 2494SOL     OW 7494   2.784   4.227   2.761
 2494SOL    HW1 7495   2.759   4.218   2.665
 2494SOL    HW2 7496   2.832   4.145   2.792
 2495SOL     OW 7497   2.401   3.788   2.374
 2495SOL    HW1 7498   2.320   3.789   2.432
 2495SOL    HW2 7499   2.404   3.871   2.319
 2496SOL     OW 7500   2.159   3.759   2.033
 2496SOL    HW1 7501   2.208   3.843   2.012
 2496SOL    HW2 7502   2.221   3.694   2.078
 2497SOL     OW 7503   2.797   3.960   2.342
 2497SOL    HW1 7504   2.749   4.001   2.264
 2497SOL    HW2 7505   2.896   3.958   2.323
 2498SOL     OW 7506   2.938   4.407   3.326
 2498SOL    HW1 7507   2.858   4.346   3.329
 2498SOL    HW2 7508   3.019   4.354   3.302
 2499SOL     OW 7509   2.894   4.273   1.878
 2499SOL    HW1 7510   2.853   4.355   1.839
 2499SOL    HW2 7511   2.958   4.299   1.951
 2500SOL     OW 7512   1.940   4.280   3.248
 2500SOL    HW1 7513   2.032   4.279   3.207
 2500SOL    HW2 7514   1.934   4.354   3.315
 2501SOL     OW 7515   2.423   3.946   3.009
 2501SOL    HW1 7516   2.461   3.862   3.046
 2501SOL    HW2 7517   2.335   3.965   3.053
 2502SOL     OW 7518   2.728   4.178   2.504
 2502SOL    HW1 7519   2.696   4.250   2.442
 2502SOL    HW2 7520   2.752   4.097   2.451
 2503SOL     OW 7521   2.879   3.763   2.615
 2503SOL    HW1 7522   2.807   3.768   2.546
 2503SOL    HW2 7523   2.855   3.694   2.684
 2504SOL     OW 7524   3.328   4.314   2.854
 2504SOL    HW1 7525   3.298   4.219   2.861
 2504SOL    HW2 7526   3.401   4.330   2.920
 2505SOL     OW 7527   3.719   4.557   2.239
 2505SOL    HW1 7528   3.761   4.493   2.303
 2505SOL    HW2 7529   3.681   4.506   2.161
 2506SOL     OW 7530   3.252   4.299   1.940
 2506SOL    HW1 7531   3.198   4.278   2.021
 2506SOL    HW2 7532   3.343   4.258   1.949
 2507SOL     OW 7533   2.389   3.980   2.190
 2507SOL    HW1 7534   2.416   3.921   2.115
 2507SOL    HW2 7535   2.389   4.075   2.159
 2508SOL     OW 7536   2.777   3.813   3.264
 2508SOL    HW1 7537   2.802   3.793   3.169
 2508SOL    HW2 7538   2.849   3.869   3.306
 2509SOL     OW 7539   2.272   4.537   3.113
 2509SOL    HW1 7540   2.358   4.549   3.163
 2509SOL    HW2 7541   2.230   4.450   3.140
 2510SOL     OW 7542   3.136   4.110   3.124
 2510SOL    HW1 7543   3.157   4.184   3.188
 2510SOL    HW2 7544   3.047   4.127   3.081
 2511SOL     OW 7545   2.428   4.261   2.727
 2511SOL    HW1 7546   2.440   4.327   2.653
 2511SOL    HW2 7547   2.474   4.295   2.810
 2512SOL     OW 7548   3.444   4.363   2.334
 2512SOL    HW1 7549   3.413   4.424   2.407
 2512SOL    HW2 7550   3.494   4.415   2.265
 2513SOL     OW 7551   2.264   4.475   3.460
 2513SOL    HW1 7552   2.332   4.530   3.413
 2513SOL    HW2 7553   2.304   4.387   3.487
 2514SOL     OW 7554   3.449   4.503   3.532
 2514SOL    HW1 7555   3.357   4.541   3.527
 2514SOL    HW2 7556   3.509   4.550   3.467
 2515SOL     OW 7557   2.875   3.829   3.632
 2515SOL    HW1 7558   2.881   3.914   3.580
 2515SOL    HW2 7559   2.907   3.753   3.575
 2516SOL     OW 7560   2.366   3.774   3.602
 2516SOL    HW1 7561   2.324   3.717   3.532
 2516SOL    HW2 7562   2.300   3.843   3.634
 2517SOL     OW 7563   2.435   4.594   2.891
 2517SOL    HW1 7564   2.479   4.683   2.882
 2517SOL    HW2 7565   2.372   4.594   2.968
 2518SOL     OW 7566   3.222   4.586   2.907
 2518SOL    HW1 7567   3.147   4.586   2.841
 2518SOL    HW2 7568   3.259   4.494   2.916
 2519SOL     OW 7569   3.071   4.249   2.137
 2519SOL    HW1 7570   3.084   4.165   2.191
 2519SOL    HW2 7571   3.042   4.323   2.197
 2520SOL     OW 7572   2.169   3.937   3.093
 2520SOL    HW1 7573   2.146   3.974   3.183
 2520SOL    HW2 7574   2.139   3.842   3.087
 2521SOL     OW 7575   2.594   4.358   2.926
 2521SOL    HW1 7576   2.653   4.332   2.850
 2521SOL    HW2 7577   2.566   4.454   2.915
 2522SOL     OW 7578   3.590   4.659   3.716
 2522SOL    HW1 7579   3.544   4.652   3.627
 2522SOL    HW2 7580   3.528   4.703   3.782
 2523SOL     OW 7581   2.169   3.787   2.480
 2523SOL    HW1 7582   2.158   3.881   2.513
 2523SOL    HW2 7583   2.164   3.724   2.557
 2524SOL     OW 7584   3.484   4.091   2.236
 2524SOL    HW1 7585   3.486   4.015   2.300
 2524SOL    HW2 7586   3.436   4.168   2.276
 2525SOL     OW 7587   2.885   4.490   2.828
 2525SOL    HW1 7588   2.900   4.511   2.924
 2525SOL    HW2 7589   2.855   4.395   2.819
 2526SOL     OW 7590   3.402   3.998   1.987
 2526SOL    HW1 7591   3.341   3.923   2.010
 2526SOL    HW2 7592   3.424   4.050   2.070
 2527SOL     OW 7593   3.165   4.562   1.904
 2527SOL    HW1 7594   3.199   4.469   1.919
 2527SOL    HW2 7595   3.183   4.589   1.809
 2528SOL     OW 7596   2.181   4.534   2.811
 2528SOL    HW1 7597   2.274   4.570   2.816
 2528SOL    HW2 7598   2.175   4.449   2.863
 2529SOL     OW 7599   2.201   4.233   2.868
 2529SOL    HW1 7600   2.149   4.150   2.851
 2529SOL    HW2 7601   2.278   4.238   2.804
 2530SOL     OW 7602   3.000   4.104   3.540
 2530SOL    HW1 7603   2.955   4.167   3.604
 2530SOL    HW2 7604   3.093   4.135   3.523
 2531SOL     OW 7605   3.022   3.931   3.339
 2531SOL    HW1 7606   3.022   3.995   3.416
 2531SOL    HW2 7607   3.050   3.979   3.256
 2532SOL     OW 7608   2.864   4.520   3.100
 2532SOL    HW1 7609   2.905   4.488   3.186
 2532SOL    HW2 7610   2.768   4.493   3.097
 2533SOL     OW 7611   1.902   4.268   2.976
 2533SOL    HW1 7612   1.987   4.235   2.935
 2533SOL    HW2 7613   1.915   4.283   3.074
 2534SOL     OW 7614   2.051   4.244   3.584
 2534SOL    HW1 7615   2.110   4.204   3.514
 2534SOL    HW2 7616   1.993   4.315   3.543
 2535SOL     OW 7617   2.677   4.296   2.187
 2535SOL    HW1 7618   2.684   4.207   2.141
 2535SOL    HW2 7619   2.583   4.330   2.179
 2536SOL     OW 7620   3.519   4.328   3.068
 2536SOL    HW1 7621   3.481   4.259   3.130
 2536SOL    HW2 7622   3.601   4.292   3.024
 2537SOL     OW 7623   2.533   4.188   3.131
 2537SOL    HW1 7624   2.499   4.099   3.101
 2537SOL    HW2 7625   2.559   4.242   3.051
 2538SOL     OW 7626   2.335   4.224   2.053
 2538SOL    HW1 7627   2.396   4.304   2.057
 2538SOL    HW2 7628   2.240   4.255   2.060
 2539SOL     OW 7629   3.588   3.859   2.385
 2539SOL    HW1 7630   3.661   3.842   2.318
 2539SOL    HW2 7631   3.557   3.772   2.423
 2540SOL     OW 7632   3.142   4.651   2.534
 2540SOL    HW1 7633   3.202   4.570   2.536
 2540SOL    HW2 7634   3.182   4.720   2.474
 2541SOL     OW 7635   3.703   3.899   2.825
 2541SOL    HW1 7636   3.742   3.814   2.789
 2541SOL    HW2 7637   3.605   3.901   2.806
 2542SOL     OW 7638   2.125   4.050   2.582
 2542SOL    HW1 7639   2.046   4.101   2.548
 2542SOL    HW2 7640   2.116   4.035   2.680
 2543SOL     OW 7641   2.778   4.634   2.153
 2543SOL    HW1 7642   2.841   4.672   2.085
 2543SOL    HW2 7643   2.818   4.551   2.192
 2544SOL     OW 7644   2.876   3.960   2.833
 2544SOL    HW1 7645   2.868   3.924   2.740
 2544SOL    HW2 7646   2.874   3.884   2.898
 2545SOL     OW 7647   3.571   4.109   3.243
 2545SOL    HW1 7648   3.644   4.178   3.247
 2545SOL    HW2 7649   3.599   4.034   3.184
 2546SOL     OW 7650   1.967   4.737   3.588
 2546SOL    HW1 7651   1.890   4.704   3.642
 2546SOL    HW2 7652   2.052   4.707   3.630
 2547SOL     OW 7653   2.534   3.927   3.351
 2547SOL    HW1 7654   2.624   3.911   3.311
 2547SOL    HW2 7655   2.542   3.932   3.450
 2548SOL     OW 7656   1.937   4.069   1.895
 2548SOL    HW1 7657   1.845   4.041   1.866
 2548SOL    HW2 7658   1.968   4.146   1.839
 2549SOL     OW 7659   3.302   4.580   3.260
 2549SOL    HW1 7660   3.245   4.632   3.197
 2549SOL    HW2 7661   3.398   4.592   3.236
 2550SOL     OW 7662   1.934   3.890   2.180
 2550SOL    HW1 7663   1.917   3.973   2.126
 2550SOL    HW2 7664   2.024   3.853   2.158
 2551SOL     OW 7665   2.475   4.566   3.293
 2551SOL    HW1 7666   2.531   4.647   3.276
 2551SOL    HW2 7667   2.534   4.486   3.296
 2552SOL     OW 7668   2.578   4.289   3.570
 2552SOL    HW1 7669   2.597   4.354   3.644
 2552SOL    HW2 7670   2.638   4.209   3.579
 2553SOL     OW 7671   3.536   4.607   3.116
 2553SOL    HW1 7672   3.509   4.518   3.079
 2553SOL    HW2 7673   3.537   4.675   3.043
 2554SOL     OW 7674   3.087   4.049   2.311
 2554SOL    HW1 7675   3.152   3.975   2.300
 2554SOL    HW2 7676   3.107   4.099   2.395
 2555SOL     OW 7677   2.456   4.469   2.514
 2555SOL    HW1 7678   2.506   4.554   2.495
 2555SOL    HW2 7679   2.368   4.471   2.466
 2556SOL     OW 7680   3.639   4.066   3.504
 2556SOL    HW1 7681   3.622   4.097   3.410
 2556SOL    HW2 7682   3.555   4.029   3.542
 2557SOL     OW 7683   3.592   4.658   3.379
 2557SOL    HW1 7684   3.630   4.749   3.394
 2557SOL    HW2 7685   3.584   4.641   3.280
 2558SOL     OW 7686   3.686   3.916   3.089
 2558SOL    HW1 7687   3.682   3.826   3.133
 2558SOL    HW2 7688   3.689   3.905   2.990
 2559SOL     OW 7689   2.290   4.148   2.382
 2559SOL    HW1 7690   2.320   4.076   2.320
 2559SOL    HW2 7691   2.251   4.108   2.465
 2560SOL     OW 7692   2.179   4.271   3.142
 2560SOL    HW1 7693   2.217   4.212   3.214
 2560SOL    HW2 7694   2.219   4.245   3.054
 2561SOL     OW 7695   3.286   3.938   2.974
 2561SOL    HW1 7696   3.338   3.873   3.029
 2561SOL    HW2 7697   3.237   4.001   3.035
 2562SOL     OW 7698   2.863   3.758   3.016
 2562SOL    HW1 7699   2.800   3.686   2.985
 2562SOL    HW2 7700   2.956   3.722   3.016
 2563SOL     OW 7701   3.214   3.776   2.030
 2563SOL    HW1 7702   3.249   3.735   1.946
 2563SOL    HW2 7703   3.124   3.738   2.050
 2564SOL     OW 7704   3.162   4.177   2.553
 2564SOL    HW1 7705   3.103   4.257   2.557
 2564SOL    HW2 7706   3.177   4.142   2.646
 2565SOL     OW 7707   3.455   3.945   2.744
 2565SOL    HW1 7708   3.371   3.944   2.798
 2565SOL    HW2 7709   3.457   4.028   2.688
 2566SOL     OW 7710   2.092   4.352   3.837
 2566SOL    HW1 7711   1.999   4.350   3.874
 2566SOL    HW2 7712   2.093   4.313   3.745
 2567SOL     OW 7713   2.087   3.999   4.720
 2567SOL    HW1 7714   2.122   3.982   4.812
 2567SOL    HW2 7715   1.999   3.954   4.708
 2568SOL     OW 7716   1.881   4.092   4.371
 2568SOL    HW1 7717   1.799   4.135   4.410
 2568SOL    HW2 7718   1.853   4.019   4.308
 2569SOL     OW 7719   2.997   4.427   4.441
 2569SOL    HW1 7720   3.054   4.505   4.416
 2569SOL    HW2 7721   2.937   4.453   4.517
 2570SOL     OW 7722   3.617   4.331   3.955
 2570SOL    HW1 7723   3.605   4.318   3.856
 2570SOL    HW2 7724   3.587   4.250   4.004
 2571SOL     OW 7725   2.547   4.736   4.389
 2571SOL    HW1 7726   2.616   4.720   4.459
 2571SOL    HW2 7727   2.474   4.793   4.427
 2572SOL     OW 7728   3.465   4.171   4.461
 2572SOL    HW1 7729   3.391   4.217   4.411
 2572SOL    HW2 7730   3.516   4.239   4.514
 2573SOL     OW 7731   1.984   4.367   4.287
 2573SOL    HW1 7732   1.939   4.279   4.304
 2573SOL    HW2 7733   1.983   4.421   4.371
 2574SOL     OW 7734   2.671   3.728   4.226
 2574SOL    HW1 7735   2.711   3.819   4.217
 2574SOL    HW2 7736   2.571   3.736   4.232
 2575SOL     OW 7737   2.460   4.453   3.994
 2575SOL    HW1 7738   2.484   4.522   3.926
 2575SOL    HW2 7739   2.382   4.486   4.048
 2576SOL     OW 7740   3.143   4.069   4.668
 2576SOL    HW1 7741   3.057   4.019   4.655
 2576SOL    HW2 7742   3.205   4.015   4.724
 2577SOL     OW 7743   2.903   4.425   4.153
 2577SOL    HW1 7744   2.929   4.421   4.249
 2577SOL    HW2 7745   2.818   4.374   4.139
 2578SOL     OW 7746   1.938   4.535   4.513
 2578SOL    HW1 7747   2.037   4.523   4.522
 2578SOL    HW2 7748   1.914   4.630   4.534
 2579SOL     OW 7749   2.727   4.072   3.919
 2579SOL    HW1 7750   2.786   4.135   3.870
 2579SOL    HW2 7751   2.746   3.978   3.890
 2580SOL     OW 7752   2.412   3.920   4.609
 2580SOL    HW1 7753   2.407   3.915   4.709
 2580SOL    HW2 7754   2.414   4.016   4.580
 2581SOL     OW 7755   3.320   4.459   4.452
 2581SOL    HW1 7756   3.315   4.394   4.527
 2581SOL    HW2 7757   3.400   4.518   4.465
 2582SOL     OW 7758   3.262   3.831   4.150
 2582SOL    HW1 7759   3.238   3.794   4.060
 2582SOL    HW2 7760   3.361   3.847   4.154
 2583SOL     OW 7761   2.244   4.424   4.204
 2583SOL    HW1 7762   2.289   4.334   4.201
 2583SOL    HW2 7763   2.150   4.413   4.237
 2584SOL     OW 7764   2.476   3.846   3.841
 2584SOL    HW1 7765   2.574   3.824   3.848
 2584SOL    HW2 7766   2.445   3.829   3.748
 2585SOL     OW 7767   2.401   3.788   4.236
 2585SOL    HW1 7768   2.320   3.789   4.294
 2585SOL    HW2 7769   2.404   3.871   4.181
 2586SOL     OW 7770   2.159   3.759   3.895
 2586SOL    HW1 7771   2.208   3.843   3.874
 2586SOL    HW2 7772   2.221   3.694   3.940
 2587SOL     OW 7773   2.797   3.960   4.204
 2587SOL    HW1 7774   2.749   4.001   4.126
 2587SOL    HW2 7775   2.896   3.958   4.185
 2588SOL     OW 7776   2.894   4.273   3.740
 2588SOL    HW1 7777   2.853   4.355   3.701
 2588SOL    HW2 7778   2.958   4.299   3.813
 2589SOL     OW 7779   2.728   4.178   4.366
 2589SOL    HW1 7780   2.696   4.250   4.304
 2589SOL    HW2 7781   2.752   4.097   4.313
 2590SOL     OW 7782   2.879   3.763   4.477
 2590SOL    HW1 7783   2.807   3.768   4.408
 2590SOL    HW2 7784   2.855   3.694   4.546
 2591SOL     OW 7785   3.291   4.897   4.591
 2591SOL    HW1 7786   3.236   4.813   4.584
 2591SOL    HW2 7787   3.317   4.926   4.499
 2592SOL     OW 7788   3.719   4.557   4.101
 2592SOL    HW1 7789   3.761   4.493   4.165
 2592SOL    HW2 7790   3.681   4.506   4.023
 2593SOL     OW 7791   3.252   4.299   3.802
 2593SOL    HW1 7792   3.198   4.278   3.883
 2593SOL    HW2 7793   3.343   4.258   3.811
 2594SOL     OW 7794   2.389   3.980   4.052
 2594SOL    HW1 7795   2.416   3.921   3.977
 2594SOL    HW2 7796   2.389   4.075   4.021
 2595SOL     OW 7797   2.973   4.919   4.824
 2595SOL    HW1 7798   2.933   4.963   4.905
 2595SOL    HW2 7799   2.932   4.956   4.741
 2596SOL     OW 7800   2.428   4.261   4.589
 2596SOL    HW1 7801   2.440   4.327   4.515
 2596SOL    HW2 7802   2.474   4.295   4.672
 2597SOL     OW 7803   3.444   4.363   4.196
 2597SOL    HW1 7804   3.413   4.424   4.269
 2597SOL    HW2 7805   3.494   4.415   4.127
 2598SOL     OW 7806   3.071   4.249   3.999
 2598SOL    HW1 7807   3.084   4.165   4.053
 2598SOL    HW2 7808   3.042   4.323   4.059
 2599SOL     OW 7809   2.594   4.358   4.788
 2599SOL    HW1 7810   2.653   4.332   4.712
 2599SOL    HW2 7811   2.566   4.454   4.777
 2600SOL     OW 7812   2.169   3.787   4.342
 2600SOL    HW1 7813   2.158   3.881   4.375
 2600SOL    HW2 7814   2.164   3.724   4.419
 2601SOL     OW 7815   3.484   4.091   4.098
 2601SOL    HW1 7816   3.486   4.015   4.162
 2601SOL    HW2 7817   3.436   4.168   4.138
 2602SOL     OW 7818   3.402   3.998   3.849
 2602SOL    HW1 7819   3.341   3.923   3.872
 2602SOL    HW2 7820   3.424   4.050   3.932
 2603SOL     OW 7821   3.165   4.562   3.766
 2603SOL    HW1 7822   3.199   4.469   3.781
 2603SOL    HW2 7823   3.183   4.589   3.671
 2604SOL     OW 7824   2.677   4.296   4.049
 2604SOL    HW1 7825   2.684   4.207   4.003
 2604SOL    HW2 7826   2.583   4.330   4.041
 2605SOL     OW 7827   2.335   4.224   3.915
 2605SOL    HW1 7828   2.396   4.304   3.919
 2605SOL    HW2 7829   2.240   4.255   3.922
 2606SOL     OW 7830   3.588   3.859   4.247
 2606SOL    HW1 7831   3.661   3.842   4.180
 2606SOL    HW2 7832   3.557   3.772   4.285
 2607SOL     OW 7833   3.142   4.651   4.396
 2607SOL    HW1 7834   3.202   4.570   4.398
 2607SOL    HW2 7835   3.182   4.720   4.336
 2608SOL     OW 7836   3.703   3.899   4.687
 2608SOL    HW1 7837   3.742   3.814   4.651
 2608SOL    HW2 7838   3.605   3.901   4.668
 2609SOL     OW 7839   2.125   4.050   4.444
 2609SOL    HW1 7840   2.046   4.101   4.410
 2609SOL    HW2 7841   2.116   4.035   4.542
 2610SOL     OW 7842   2.778   4.634   4.015
 2610SOL    HW1 7843   2.841   4.672   3.947
 2610SOL    HW2 7844   2.818   4.551   4.054
 2611SOL     OW 7845   1.937   4.069   3.757
 2611SOL    HW1 7846   1.845   4.041   3.728
 2611SOL    HW2 7847   1.968   4.146   3.701
 2612SOL     OW 7848   1.934   3.890   4.042
 2612SOL    HW1 7849   1.917   3.973   3.988
 2612SOL    HW2 7850   2.024   3.853   4.020
 2613SOL     OW 7851   3.536   4.607   4.978
 2613SOL    HW1 7852   3.509   4.518   4.941
 2613SOL    HW2 7853   3.537   4.675   4.905
 2614SOL     OW 7854   3.087   4.049   4.173
 2614SOL    HW1 7855   3.152   3.975   4.162
 2614SOL    HW2 7856   3.107   4.099   4.257
 2615SOL     OW 7857   2.456   4.469   4.376
 2615SOL    HW1 7858   2.506   4.554   4.357
 2615SOL    HW2 7859   2.368   4.471   4.328
 2616SOL     OW 7860   2.290   4.148   4.244
 2616SOL    HW1 7861   2.320   4.076   4.182
 2616SOL    HW2 7862   2.251   4.108   4.327
 2617SOL     OW 7863   3.214   3.776   3.892
 2617SOL    HW1 7864   3.249   3.735   3.808
 2617SOL    HW2 7865   3.124   3.738   3.912
 2618SOL     OW 7866   3.162   4.177   4.415
 2618SOL    HW1 7867   3.103   4.257   4.419
 2618SOL    HW2 7868   3.177   4.142   4.508
 2619SOL     OW 7869   3.954   0.628   0.113
 2619SOL    HW1 7870   3.861   0.626   0.150
 2619SOL    HW2 7871   3.955   0.589   0.021
 2620SOL     OW 7872   3.949   0.275   0.996
 2620SOL    HW1 7873   3.984   0.258   1.088
 2620SOL    HW2 7874   3.861   0.230   0.984
 2621SOL     OW 7875   3.743   0.368   0.647
 2621SOL    HW1 7876   3.661   0.411   0.686
 2621SOL    HW2 7877   3.715   0.295   0.584
 2622SOL     OW 7878   4.293   1.275   1.165
 2622SOL    HW1 7879   4.200   1.268   1.128
 2622SOL    HW2 7880   4.304   1.364   1.209
 2623SOL     OW 7881   4.492   1.144   1.023
 2623SOL    HW1 7882   4.414   1.161   1.083
 2623SOL    HW2 7883   4.526   1.231   0.987
 2624SOL     OW 7884   4.574   0.798   1.823
 2624SOL    HW1 7885   4.570   0.874   1.888
 2624SOL    HW2 7886   4.596   0.834   1.732
 2625SOL     OW 7887   4.409   1.012   0.665
 2625SOL    HW1 7888   4.478   0.996   0.735
 2625SOL    HW2 7889   4.336   1.069   0.703
 2626SOL     OW 7890   4.410   1.161   1.803
 2626SOL    HW1 7891   4.470   1.240   1.817
 2626SOL    HW2 7892   4.324   1.192   1.762
 2627SOL     OW 7893   4.059   1.435   1.061
 2627SOL    HW1 7894   3.981   1.404   1.008
 2627SOL    HW2 7895   4.117   1.493   1.004
 2628SOL     OW 7896   4.162   0.392   1.499
 2628SOL    HW1 7897   4.244   0.336   1.508
 2628SOL    HW2 7898   4.081   0.334   1.503
 2629SOL     OW 7899   3.955   1.713   0.483
 2629SOL    HW1 7900   3.989   1.790   0.537
 2629SOL    HW2 7901   3.999   1.713   0.393
 2630SOL     OW 7902   3.954   1.434   0.538
 2630SOL    HW1 7903   3.928   1.530   0.538
 2630SOL    HW2 7904   3.883   1.380   0.583
 2631SOL     OW 7905   3.964   1.091   0.886
 2631SOL    HW1 7906   3.978   1.007   0.938
 2631SOL    HW2 7907   3.909   1.155   0.941
 2632SOL     OW 7908   4.344   1.786   1.439
 2632SOL    HW1 7909   4.252   1.769   1.474
 2632SOL    HW2 7910   4.372   1.878   1.465
 2633SOL     OW 7911   4.330   0.964   0.123
 2633SOL    HW1 7912   4.337   1.048   0.069
 2633SOL    HW2 7913   4.376   0.977   0.211
 2634SOL     OW 7914   3.846   0.643   0.563
 2634SOL    HW1 7915   3.801   0.555   0.580
 2634SOL    HW2 7916   3.845   0.697   0.647
 2635SOL     OW 7917   3.751   1.596   0.117
 2635SOL    HW1 7918   3.732   1.500   0.138
 2635SOL    HW2 7919   3.718   1.654   0.192
 2636SOL     OW 7920   3.837   0.737   1.597
 2636SOL    HW1 7921   3.925   0.724   1.642
 2636SOL    HW2 7922   3.824   0.834   1.575
 2637SOL     OW 7923   4.337   1.365   0.726
 2637SOL    HW1 7924   4.288   1.278   0.735
 2637SOL    HW2 7925   4.314   1.408   0.639
 2638SOL     OW 7926   4.533   0.004   0.502
 2638SOL    HW1 7927   4.573   0.095   0.493
 2638SOL    HW2 7928   4.433   0.012   0.508
 2639SOL     OW 7929   3.921   0.976   1.264
 2639SOL    HW1 7930   4.010   0.931   1.250
 2639SOL    HW2 7931   3.848   0.911   1.245
 2640SOL     OW 7932   4.041   0.251   1.801
 2640SOL    HW1 7933   4.112   0.322   1.807
 2640SOL    HW2 7934   3.953   0.290   1.829
 2641SOL     OW 7935   4.322   0.729   0.270
 2641SOL    HW1 7936   4.346   0.798   0.202
 2641SOL    HW2 7937   4.244   0.762   0.324
 2642SOL     OW 7938   4.531   0.605   1.465
 2642SOL    HW1 7939   4.484   0.602   1.554
 2642SOL    HW2 7940   4.480   0.550   1.399
 2643SOL     OW 7941   3.800   0.811   0.789
 2643SOL    HW1 7942   3.899   0.799   0.798
 2643SOL    HW2 7943   3.776   0.906   0.810
 2644SOL     OW 7944   3.854   1.821   1.571
 2644SOL    HW1 7945   3.844   1.806   1.670
 2644SOL    HW2 7946   3.768   1.857   1.535
 2645SOL     OW 7947   4.589   0.348   0.195
 2645SOL    HW1 7948   4.648   0.411   0.146
 2645SOL    HW2 7949   4.608   0.254   0.166
 2646SOL     OW 7950   4.274   0.196   0.885
 2646SOL    HW1 7951   4.269   0.191   0.985
 2646SOL    HW2 7952   4.276   0.292   0.856
 2647SOL     OW 7953   4.732   1.456   0.477
 2647SOL    HW1 7954   4.686   1.528   0.425
 2647SOL    HW2 7955   4.728   1.476   0.575
 2648SOL     OW 7956   4.075   1.801   0.853
 2648SOL    HW1 7957   4.125   1.715   0.859
 2648SOL    HW2 7958   4.140   1.878   0.850
 2649SOL     OW 7959   4.045   0.943   0.242
 2649SOL    HW1 7960   4.127   0.982   0.200
 2649SOL    HW2 7961   4.018   0.861   0.193
 2650SOL     OW 7962   4.185   1.266   1.727
 2650SOL    HW1 7963   4.135   1.267   1.641
 2650SOL    HW2 7964   4.122   1.248   1.803
 2651SOL     OW 7965   4.835   1.776   0.237
 2651SOL    HW1 7966   4.775   1.714   0.287
 2651SOL    HW2 7967   4.866   1.732   0.152
 2652SOL     OW 7968   3.926   0.285   1.498
 2652SOL    HW1 7969   3.846   0.345   1.485
 2652SOL    HW2 7970   3.916   0.236   1.584
 2653SOL     OW 7971   4.188   1.743   0.323
 2653SOL    HW1 7972   4.221   1.782   0.409
 2653SOL    HW2 7973   4.264   1.736   0.258
 2654SOL     OW 7974   3.973   1.785   1.241
 2654SOL    HW1 7975   4.030   1.720   1.291
 2654SOL    HW2 7976   3.957   1.752   1.148
 2655SOL     OW 7977   4.106   0.700   0.480
 2655SOL    HW1 7978   4.151   0.610   0.477
 2655SOL    HW2 7979   4.012   0.689   0.513
 2656SOL     OW 7980   4.338   0.122   0.117
 2656SOL    HW1 7981   4.436   0.100   0.124
 2656SOL    HW2 7982   4.307   0.105   0.024
 2657SOL     OW 7983   4.505   0.264   1.749
 2657SOL    HW1 7984   4.572   0.203   1.792
 2657SOL    HW2 7985   4.432   0.283   1.814
 2658SOL     OW 7986   4.527   1.402   0.924
 2658SOL    HW1 7987   4.617   1.416   0.882
 2658SOL    HW2 7988   4.456   1.404   0.853
 2659SOL     OW 7989   4.646   0.503   0.899
 2659SOL    HW1 7990   4.621   0.494   0.803
 2659SOL    HW2 7991   4.694   0.421   0.930
 2660SOL     OW 7992   4.263   0.064   0.512
 2660SOL    HW1 7993   4.182   0.065   0.570
 2660SOL    HW2 7994   4.266   0.147   0.457
 2661SOL     OW 7995   4.021   0.035   0.171
 2661SOL    HW1 7996   4.070   0.119   0.150
 2661SOL    HW2 7997   4.083  -0.030   0.216
 2662SOL     OW 7998   4.183   1.152   0.741
 2662SOL    HW1 7999   4.112   1.125   0.806
 2662SOL    HW2 8000   4.157   1.124   0.648
 2663SOL     OW 8001   3.802   0.556   1.386
 2663SOL    HW1 8002   3.894   0.555   1.345
 2663SOL    HW2 8003   3.796   0.630   1.453
 2664SOL     OW 8004   4.285   0.222   1.147
 2664SOL    HW1 8005   4.323   0.138   1.184
 2664SOL    HW2 8006   4.197   0.241   1.191
 2665SOL     OW 8007   4.212   1.385   0.174
 2665SOL    HW1 8008   4.125   1.370   0.221
 2665SOL    HW2 8009   4.195   1.411   0.079
 2666SOL     OW 8010   4.251   0.256   0.328
 2666SOL    HW1 8011   4.278   0.197   0.253
 2666SOL    HW2 8012   4.251   0.351   0.297
 2667SOL     OW 8013   4.639   0.089   1.402
 2667SOL    HW1 8014   4.664   0.069   1.307
 2667SOL    HW2 8015   4.711   0.145   1.444
 2668SOL     OW 8016   4.429   1.050   0.368
 2668SOL    HW1 8017   4.415   1.057   0.467
 2668SOL    HW2 8018   4.513   0.999   0.350
 2669SOL     OW 8019   4.134   0.813   1.251
 2669SOL    HW1 8020   4.220   0.825   1.301
 2669SOL    HW2 8021   4.092   0.726   1.278
 2670SOL     OW 8022   3.788   1.564   1.331
 2670SOL    HW1 8023   3.742   1.646   1.297
 2670SOL    HW2 8024   3.886   1.583   1.340
 2671SOL     OW 8025   4.091   1.100   0.501
 2671SOL    HW1 8026   4.084   1.183   0.445
 2671SOL    HW2 8027   4.095   1.020   0.441
 2672SOL     OW 8028   4.290   0.537   0.865
 2672SOL    HW1 8029   4.302   0.603   0.791
 2672SOL    HW2 8030   4.336   0.571   0.948
 2673SOL     OW 8031   4.078   1.510   1.329
 2673SOL    HW1 8032   4.057   1.466   1.242
 2673SOL    HW2 8033   4.175   1.536   1.332
 2674SOL     OW 8034   4.126   0.751   1.598
 2674SOL    HW1 8035   4.194   0.806   1.551
 2674SOL    HW2 8036   4.166   0.663   1.625
 2675SOL     OW 8037   4.228   0.050   1.740
 2675SOL    HW1 8038   4.186  -0.007   1.670
 2675SOL    HW2 8039   4.162   0.119   1.772
 2676SOL     OW 8040   4.297   0.870   1.029
 2676SOL    HW1 8041   4.341   0.959   1.020
 2676SOL    HW2 8042   4.234   0.870   1.106
 2677SOL     OW 8043   4.031   0.213   1.231
 2677SOL    HW1 8044   4.008   0.250   1.321
 2677SOL    HW2 8045   4.001   0.118   1.225
 2678SOL     OW 8046   3.761   1.310   1.282
 2678SOL    HW1 8047   3.814   1.261   1.350
 2678SOL    HW2 8048   3.783   1.408   1.287
 2679SOL     OW 8049   4.456   0.634   1.064
 2679SOL    HW1 8050   4.515   0.608   0.988
 2679SOL    HW2 8051   4.428   0.730   1.053
 2680SOL     OW 8052   4.031   0.063   0.618
 2680SOL    HW1 8053   4.020   0.157   0.651
 2680SOL    HW2 8054   4.026   0.000   0.695
 2681SOL     OW 8055   4.747   0.766   0.966
 2681SOL    HW1 8056   4.762   0.787   1.062
 2681SOL    HW2 8057   4.717   0.671   0.957
 2682SOL     OW 8058   4.704   1.573   1.700
 2682SOL    HW1 8059   4.684   1.617   1.612
 2682SOL    HW2 8060   4.743   1.482   1.684
 2683SOL     OW 8061   4.074   0.898   1.804
 2683SOL    HW1 8062   4.150   0.942   1.852
 2683SOL    HW2 8063   4.109   0.851   1.722
 2684SOL     OW 8064   4.043   0.810   0.949
 2684SOL    HW1 8065   4.136   0.846   0.954
 2684SOL    HW2 8066   4.037   0.725   1.001
 2685SOL     OW 8067   4.063   0.509   1.006
 2685SOL    HW1 8068   4.011   0.426   0.989
 2685SOL    HW2 8069   4.140   0.514   0.942
 2686SOL     OW 8070   3.732   1.326   0.200
 2686SOL    HW1 8071   3.639   1.347   0.169
 2686SOL    HW2 8072   3.742   1.227   0.213
 2687SOL     OW 8073   3.812   1.801   0.927
 2687SOL    HW1 8074   3.770   1.715   0.900
 2687SOL    HW2 8075   3.906   1.804   0.893
 2688SOL     OW 8076   4.228   1.568   0.910
 2688SOL    HW1 8077   4.294   1.642   0.919
 2688SOL    HW2 8078   4.272   1.489   0.868
 2689SOL     OW 8079   3.764   0.544   1.114
 2689SOL    HW1 8080   3.849   0.511   1.073
 2689SOL    HW2 8081   3.777   0.559   1.212
 2690SOL     OW 8082   3.913   0.520   1.722
 2690SOL    HW1 8083   3.972   0.480   1.652
 2690SOL    HW2 8084   3.855   0.591   1.681
 2691SOL     OW 8085   4.539   0.572   0.325
 2691SOL    HW1 8086   4.546   0.483   0.279
 2691SOL    HW2 8087   4.445   0.606   0.317
 2692SOL     OW 8088   3.976   1.564   1.744
 2692SOL    HW1 8089   3.946   1.621   1.820
 2692SOL    HW2 8090   3.969   1.467   1.770
 2693SOL     OW 8091   4.395   0.464   1.269
 2693SOL    HW1 8092   4.361   0.375   1.239
 2693SOL    HW2 8093   4.421   0.518   1.189
 2694SOL     OW 8094   4.197   0.500   0.191
 2694SOL    HW1 8095   4.258   0.580   0.195
 2694SOL    HW2 8096   4.102   0.531   0.198
 2695SOL     OW 8097   3.883   1.137   1.466
 2695SOL    HW1 8098   3.905   1.076   1.542
 2695SOL    HW2 8099   3.893   1.088   1.380
 2696SOL     OW 8100   3.807   1.258   1.022
 2696SOL    HW1 8101   3.802   1.257   1.122
 2696SOL    HW2 8102   3.724   1.217   0.984
 2697SOL     OW 8103   4.412   1.662   1.716
 2697SOL    HW1 8104   4.356   1.743   1.725
 2697SOL    HW2 8105   4.464   1.666   1.630
 2698SOL     OW 8106   4.627   0.086   0.133
 2698SOL    HW1 8107   4.678   0.087   0.047
 2698SOL    HW2 8108   4.683   0.044   0.204
 2699SOL     OW 8109   3.854   1.794   1.851
 2699SOL    HW1 8110   3.813   1.720   1.904
 2699SOL    HW2 8111   3.918   1.845   1.909
 2700SOL     OW 8112   4.554   1.273   1.422
 2700SOL    HW1 8113   4.549   1.306   1.517
 2700SOL    HW2 8114   4.468   1.292   1.376
 2701SOL     OW 8115   4.396   1.616   0.154
 2701SOL    HW1 8116   4.405   1.626   0.055
 2701SOL    HW2 8117   4.356   1.527   0.175
 2702SOL     OW 8118   3.987   0.326   0.720
 2702SOL    HW1 8119   3.908   0.377   0.686
 2702SOL    HW2 8120   3.978   0.311   0.818
 2703SOL     OW 8121   4.918   1.612   0.031
 2703SOL    HW1 8122   4.924   1.519   0.068
 2703SOL    HW2 8123   4.859   1.612  -0.049
 2704SOL     OW 8124   4.546   1.002   1.372
 2704SOL    HW1 8125   4.586   1.001   1.280
 2704SOL    HW2 8126   4.556   1.094   1.412
 2705SOL     OW 8127   4.096   1.288   1.490
 2705SOL    HW1 8128   4.083   1.381   1.456
 2705SOL    HW2 8129   4.012   1.236   1.477
 2706SOL     OW 8130   4.314   1.487   0.491
 2706SOL    HW1 8131   4.356   1.429   0.421
 2706SOL    HW2 8132   4.270   1.566   0.447
 2707SOL     OW 8133   3.979   1.348   0.290
 2707SOL    HW1 8134   3.883   1.349   0.263
 2707SOL    HW2 8135   3.991   1.401   0.374
 2708SOL     OW 8136   3.829   1.013   1.726
 2708SOL    HW1 8137   3.752   0.980   1.780
 2708SOL    HW2 8138   3.914   0.983   1.768
 2709SOL     OW 8139   4.396   0.203   1.489
 2709SOL    HW1 8140   4.486   0.187   1.449
 2709SOL    HW2 8141   4.404   0.208   1.588
 2710SOL     OW 8142   4.337   0.842   1.431
 2710SOL    HW1 8143   4.393   0.923   1.414
 2710SOL    HW2 8144   4.396   0.762   1.434
 2711SOL     OW 8145   4.440   0.565   1.708
 2711SOL    HW1 8146   4.459   0.630   1.782
 2711SOL    HW2 8147   4.500   0.485   1.717
 2712SOL     OW 8148   4.114   1.741   1.560
 2712SOL    HW1 8149   4.023   1.782   1.558
 2712SOL    HW2 8150   4.107   1.647   1.592
 2713SOL     OW 8151   4.318   0.745   0.652
 2713SOL    HW1 8152   4.368   0.830   0.633
 2713SOL    HW2 8153   4.230   0.747   0.604
 2714SOL     OW 8154   4.385   1.790   0.953
 2714SOL    HW1 8155   4.339   1.878   0.940
 2714SOL    HW2 8156   4.484   1.802   0.946
 2715SOL     OW 8157   3.945   1.314   1.844
 2715SOL    HW1 8158   3.880   1.241   1.823
 2715SOL    HW2 8159   3.949   1.328   1.942
 2716SOL     OW 8160   3.803   1.240   0.653
 2716SOL    HW1 8161   3.802   1.193   0.741
 2716SOL    HW2 8162   3.885   1.212   0.602
 2717SOL     OW 8163   4.396   1.391   1.624
 2717SOL    HW1 8164   4.318   1.341   1.662
 2717SOL    HW2 8165   4.393   1.486   1.655
 2718SOL     OW 8166   4.152   0.424   0.520
 2718SOL    HW1 8167   4.182   0.352   0.458
 2718SOL    HW2 8168   4.113   0.384   0.603
 2719SOL     OW 8169   4.041   0.547   1.280
 2719SOL    HW1 8170   4.079   0.488   1.352
 2719SOL    HW2 8171   4.081   0.521   1.192
 2720SOL     OW 8172   4.536   1.586   0.687
 2720SOL    HW1 8173   4.568   1.596   0.593
 2720SOL    HW2 8174   4.457   1.524   0.689
 2721SOL     OW 8175   4.725   0.034   1.154
 2721SOL    HW1 8176   4.662  -0.038   1.123
 2721SOL    HW2 8177   4.818  -0.002   1.154
 2722SOL     OW 8178   4.494   1.330   0.301
 2722SOL    HW1 8179   4.448   1.243   0.318
 2722SOL    HW2 8180   4.585   1.327   0.342
 2723SOL     OW 8181   4.342   1.567   1.284
 2723SOL    HW1 8182   4.337   1.649   1.341
 2723SOL    HW2 8183   4.431   1.564   1.239
 2724SOL     OW 8184   3.763   1.077   0.300
 2724SOL    HW1 8185   3.862   1.066   0.291
 2724SOL    HW2 8186   3.723   0.991   0.332
 2725SOL     OW 8187   4.599   1.646   0.337
 2725SOL    HW1 8188   4.522   1.611   0.283
 2725SOL    HW2 8189   4.567   1.717   0.399
 2726SOL     OW 8190   3.954   0.628   1.975
 2726SOL    HW1 8191   3.861   0.626   2.012
 2726SOL    HW2 8192   3.955   0.589   1.883
 2727SOL     OW 8193   3.949   0.275   2.858
 2727SOL    HW1 8194   3.984   0.258   2.950
 2727SOL    HW2 8195   3.861   0.230   2.846
 2728SOL     OW 8196   3.743   0.368   2.509
 2728SOL    HW1 8197   3.661   0.411   2.548
 2728SOL    HW2 8198   3.715   0.295   2.446
 2729SOL     OW 8199   4.293   1.275   3.027
 2729SOL    HW1 8200   4.200   1.268   2.990
 2729SOL    HW2 8201   4.304   1.364   3.071
 2730SOL     OW 8202   4.492   1.144   2.885
 2730SOL    HW1 8203   4.414   1.161   2.945
 2730SOL    HW2 8204   4.526   1.231   2.849
 2731SOL     OW 8205   4.574   0.798   3.685
 2731SOL    HW1 8206   4.570   0.874   3.750
 2731SOL    HW2 8207   4.596   0.834   3.594
 2732SOL     OW 8208   4.409   1.012   2.527
 2732SOL    HW1 8209   4.478   0.996   2.597
 2732SOL    HW2 8210   4.336   1.069   2.565
 2733SOL     OW 8211   4.410   1.161   3.665
 2733SOL    HW1 8212   4.470   1.240   3.679
 2733SOL    HW2 8213   4.324   1.192   3.624
 2734SOL     OW 8214   4.059   1.435   2.923
 2734SOL    HW1 8215   3.981   1.404   2.870
 2734SOL    HW2 8216   4.117   1.493   2.866
 2735SOL     OW 8217   4.162   0.392   3.361
 2735SOL    HW1 8218   4.244   0.336   3.370
 2735SOL    HW2 8219   4.081   0.334   3.365
 2736SOL     OW 8220   3.955   1.713   2.345
 2736SOL    HW1 8221   3.989   1.790   2.399
 2736SOL    HW2 8222   3.999   1.713   2.255
 2737SOL     OW 8223   3.954   1.434   2.400
 2737SOL    HW1 8224   3.928   1.530   2.400
 2737SOL    HW2 8225   3.883   1.380   2.445
 2738SOL     OW 8226   3.964   1.091   2.748
 2738SOL    HW1 8227   3.978   1.007   2.800
 2738SOL    HW2 8228   3.909   1.155   2.803
 2739SOL     OW 8229   4.344   1.786   3.301
 2739SOL    HW1 8230   4.252   1.769   3.336
 2739SOL    HW2 8231   4.372   1.878   3.327
 2740SOL     OW 8232   4.330   0.964   1.985
 2740SOL    HW1 8233   4.337   1.048   1.931
 2740SOL    HW2 8234   4.376   0.977   2.073
 2741SOL     OW 8235   3.846   0.643   2.425
 2741SOL    HW1 8236   3.801   0.555   2.442
 2741SOL    HW2 8237   3.845   0.697   2.509
 2742SOL     OW 8238   3.751   1.596   1.979
 2742SOL    HW1 8239   3.732   1.500   2.000
 2742SOL    HW2 8240   3.718   1.654   2.054
 2743SOL     OW 8241   3.837   0.737   3.459
 2743SOL    HW1 8242   3.925   0.724   3.504
 2743SOL    HW2 8243   3.824   0.834   3.437
 2744SOL     OW 8244   4.337   1.365   2.588
 2744SOL    HW1 8245   4.288   1.278   2.597
 2744SOL    HW2 8246   4.314   1.408   2.501
 2745SOL     OW 8247   4.533   0.004   2.364
 2745SOL    HW1 8248   4.573   0.095   2.355
 2745SOL    HW2 8249   4.433   0.012   2.370
 2746SOL     OW 8250   3.921   0.976   3.126
 2746SOL    HW1 8251   4.010   0.931   3.112
 2746SOL    HW2 8252   3.848   0.911   3.107
 2747SOL     OW 8253   4.041   0.251   3.663
 2747SOL    HW1 8254   4.112   0.322   3.669
 2747SOL    HW2 8255   3.953   0.290   3.691
 2748SOL     OW 8256   4.322   0.729   2.132
 2748SOL    HW1 8257   4.346   0.798   2.064
 2748SOL    HW2 8258   4.244   0.762   2.186
 2749SOL     OW 8259   4.531   0.605   3.327
 2749SOL    HW1 8260   4.484   0.602   3.416
 2749SOL    HW2 8261   4.480   0.550   3.261
 2750SOL     OW 8262   3.800   0.811   2.651
 2750SOL    HW1 8263   3.899   0.799   2.660
 2750SOL    HW2 8264   3.776   0.906   2.672
 2751SOL     OW 8265   3.854   1.821   3.433
 2751SOL    HW1 8266   3.844   1.806   3.532
 2751SOL    HW2 8267   3.768   1.857   3.397
 2752SOL     OW 8268   4.589   0.348   2.057
 2752SOL    HW1 8269   4.648   0.411   2.008
 2752SOL    HW2 8270   4.608   0.254   2.028
 2753SOL     OW 8271   4.274   0.196   2.747
 2753SOL    HW1 8272   4.269   0.191   2.847
 2753SOL    HW2 8273   4.276   0.292   2.718
 2754SOL     OW 8274   4.732   1.456   2.339
 2754SOL    HW1 8275   4.686   1.528   2.287
 2754SOL    HW2 8276   4.728   1.476   2.437
 2755SOL     OW 8277   4.075   1.801   2.715
 2755SOL    HW1 8278   4.125   1.715   2.721
 2755SOL    HW2 8279   4.140   1.878   2.712
 2756SOL     OW 8280   4.045   0.943   2.104
 2756SOL    HW1 8281   4.127   0.982   2.062
 2756SOL    HW2 8282   4.018   0.861   2.055
 2757SOL     OW 8283   4.185   1.266   3.589
 2757SOL    HW1 8284   4.135   1.267   3.503
 2757SOL    HW2 8285   4.122   1.248   3.665
 2758SOL     OW 8286   4.835   1.776   2.099
 2758SOL    HW1 8287   4.775   1.714   2.149
 2758SOL    HW2 8288   4.866   1.732   2.014
 2759SOL     OW 8289   3.926   0.285   3.360
 2759SOL    HW1 8290   3.846   0.345   3.347
 2759SOL    HW2 8291   3.916   0.236   3.446
 2760SOL     OW 8292   4.188   1.743   2.185
 2760SOL    HW1 8293   4.221   1.782   2.271
 2760SOL    HW2 8294   4.264   1.736   2.120
 2761SOL     OW 8295   3.973   1.785   3.103
 2761SOL    HW1 8296   4.030   1.720   3.153
 2761SOL    HW2 8297   3.957   1.752   3.010
 2762SOL     OW 8298   4.106   0.700   2.342
 2762SOL    HW1 8299   4.151   0.610   2.339
 2762SOL    HW2 8300   4.012   0.689   2.375
 2763SOL     OW 8301   4.338   0.122   1.979
 2763SOL    HW1 8302   4.436   0.100   1.986
 2763SOL    HW2 8303   4.307   0.105   1.886
 2764SOL     OW 8304   4.505   0.264   3.611
 2764SOL    HW1 8305   4.572   0.203   3.654
 2764SOL    HW2 8306   4.432   0.283   3.676
 2765SOL     OW 8307   4.527   1.402   2.786
 2765SOL    HW1 8308   4.617   1.416   2.744
 2765SOL    HW2 8309   4.456   1.404   2.715
 2766SOL     OW 8310   4.646   0.503   2.761
 2766SOL    HW1 8311   4.621   0.494   2.665
 2766SOL    HW2 8312   4.694   0.421   2.792
 2767SOL     OW 8313   4.263   0.064   2.374
 2767SOL    HW1 8314   4.182   0.065   2.432
 2767SOL    HW2 8315   4.266   0.147   2.319
 2768SOL     OW 8316   4.021   0.035   2.033
 2768SOL    HW1 8317   4.070   0.119   2.012
 2768SOL    HW2 8318   4.083  -0.030   2.078
 2769SOL     OW 8319   4.183   1.152   2.603
 2769SOL    HW1 8320   4.112   1.125   2.668
 2769SOL    HW2 8321   4.157   1.124   2.510
 2770SOL     OW 8322   3.802   0.556   3.248
 2770SOL    HW1 8323   3.894   0.555   3.207
 2770SOL    HW2 8324   3.796   0.630   3.315
 2771SOL     OW 8325   4.285   0.222   3.009
 2771SOL    HW1 8326   4.323   0.138   3.046
 2771SOL    HW2 8327   4.197   0.241   3.053
 2772SOL     OW 8328   4.212   1.385   2.036
 2772SOL    HW1 8329   4.125   1.370   2.083
 2772SOL    HW2 8330   4.195   1.411   1.941
 2773SOL     OW 8331   4.251   0.256   2.190
 2773SOL    HW1 8332   4.278   0.197   2.115
 2773SOL    HW2 8333   4.251   0.351   2.159
 2774SOL     OW 8334   4.639   0.089   3.264
 2774SOL    HW1 8335   4.664   0.069   3.169
 2774SOL    HW2 8336   4.711   0.145   3.306
 2775SOL     OW 8337   4.429   1.050   2.230
 2775SOL    HW1 8338   4.415   1.057   2.329
 2775SOL    HW2 8339   4.513   0.999   2.212
 2776SOL     OW 8340   4.134   0.813   3.113
 2776SOL    HW1 8341   4.220   0.825   3.163
 2776SOL    HW2 8342   4.092   0.726   3.140
 2777SOL     OW 8343   3.788   1.564   3.193
 2777SOL    HW1 8344   3.742   1.646   3.159
 2777SOL    HW2 8345   3.886   1.583   3.202
 2778SOL     OW 8346   4.091   1.100   2.363
 2778SOL    HW1 8347   4.084   1.183   2.307
 2778SOL    HW2 8348   4.095   1.020   2.303
 2779SOL     OW 8349   4.290   0.537   2.727
 2779SOL    HW1 8350   4.302   0.603   2.653
 2779SOL    HW2 8351   4.336   0.571   2.810
 2780SOL     OW 8352   4.078   1.510   3.191
 2780SOL    HW1 8353   4.057   1.466   3.104
 2780SOL    HW2 8354   4.175   1.536   3.194
 2781SOL     OW 8355   4.126   0.751   3.460
 2781SOL    HW1 8356   4.194   0.806   3.413
 2781SOL    HW2 8357   4.166   0.663   3.487
 2782SOL     OW 8358   4.228   0.050   3.602
 2782SOL    HW1 8359   4.186  -0.007   3.532
 2782SOL    HW2 8360   4.162   0.119   3.634
 2783SOL     OW 8361   4.297   0.870   2.891
 2783SOL    HW1 8362   4.341   0.959   2.882
 2783SOL    HW2 8363   4.234   0.870   2.968
 2784SOL     OW 8364   4.031   0.213   3.093
 2784SOL    HW1 8365   4.008   0.250   3.183
 2784SOL    HW2 8366   4.001   0.118   3.087
 2785SOL     OW 8367   3.761   1.310   3.144
 2785SOL    HW1 8368   3.814   1.261   3.212
 2785SOL    HW2 8369   3.783   1.408   3.149
 2786SOL     OW 8370   4.456   0.634   2.926
 2786SOL    HW1 8371   4.515   0.608   2.850
 2786SOL    HW2 8372   4.428   0.730   2.915
 2787SOL     OW 8373   4.031   0.063   2.480
 2787SOL    HW1 8374   4.020   0.157   2.513
 2787SOL    HW2 8375   4.026   0.000   2.557
 2788SOL     OW 8376   4.747   0.766   2.828
 2788SOL    HW1 8377   4.762   0.787   2.924
 2788SOL    HW2 8378   4.717   0.671   2.819
 2789SOL     OW 8379   4.704   1.573   3.562
 2789SOL    HW1 8380   4.684   1.617   3.474
 2789SOL    HW2 8381   4.743   1.482   3.546
 2790SOL     OW 8382   4.074   0.898   3.666
 2790SOL    HW1 8383   4.150   0.942   3.714
 2790SOL    HW2 8384   4.109   0.851   3.584
 2791SOL     OW 8385   4.043   0.810   2.811
 2791SOL    HW1 8386   4.136   0.846   2.816
 2791SOL    HW2 8387   4.037   0.725   2.863
 2792SOL     OW 8388   4.063   0.509   2.868
 2792SOL    HW1 8389   4.011   0.426   2.851
 2792SOL    HW2 8390   4.140   0.514   2.804
 2793SOL     OW 8391   3.732   1.326   2.062
 2793SOL    HW1 8392   3.639   1.347   2.031
 2793SOL    HW2 8393   3.742   1.227   2.075
 2794SOL     OW 8394   3.812   1.801   2.789
 2794SOL    HW1 8395   3.770   1.715   2.762
 2794SOL    HW2 8396   3.906   1.804   2.755
 2795SOL     OW 8397   4.228   1.568   2.772
 2795SOL    HW1 8398   4.294   1.642   2.781
 2795SOL    HW2 8399   4.272   1.489   2.730
 2796SOL     OW 8400   3.764   0.544   2.976
 2796SOL    HW1 8401   3.849   0.511   2.935
 2796SOL    HW2 8402   3.777   0.559   3.074
 2797SOL     OW 8403   3.913   0.520   3.584
 2797SOL    HW1 8404   3.972   0.480   3.514
 2797SOL    HW2 8405   3.855   0.591   3.543
 2798SOL     OW 8406   4.539   0.572   2.187
 2798SOL    HW1 8407   4.546   0.483   2.141
 2798SOL    HW2 8408   4.445   0.606   2.179
 2799SOL     OW 8409   3.976   1.564   3.606
 2799SOL    HW1 8410   3.946   1.621   3.682
 2799SOL    HW2 8411   3.969   1.467   3.632
 2800SOL     OW 8412   4.395   0.464   3.131
 2800SOL    HW1 8413   4.361   0.375   3.101
 2800SOL    HW2 8414   4.421   0.518   3.051
 2801SOL     OW 8415   4.197   0.500   2.053
 2801SOL    HW1 8416   4.258   0.580   2.057
 2801SOL    HW2 8417   4.102   0.531   2.060
 2802SOL     OW 8418   3.883   1.137   3.328
 2802SOL    HW1 8419   3.905   1.076   3.404
 2802SOL    HW2 8420   3.893   1.088   3.242
 2803SOL     OW 8421   3.807   1.258   2.884
 2803SOL    HW1 8422   3.802   1.257   2.984
 2803SOL    HW2 8423   3.724   1.217   2.846
 2804SOL     OW 8424   4.412   1.662   3.578
 2804SOL    HW1 8425   4.356   1.743   3.587
 2804SOL    HW2 8426   4.464   1.666   3.492
 2805SOL     OW 8427   4.627   0.086   1.995
 2805SOL    HW1 8428   4.678   0.087   1.909
 2805SOL    HW2 8429   4.683   0.044   2.066
 2806SOL     OW 8430   3.854   1.794   3.713
 2806SOL    HW1 8431   3.813   1.720   3.766
 2806SOL    HW2 8432   3.918   1.845   3.771
 2807SOL     OW 8433   4.554   1.273   3.284
 2807SOL    HW1 8434   4.549   1.306   3.379
 2807SOL    HW2 8435   4.468   1.292   3.238
 2808SOL     OW 8436   4.396   1.616   2.016
 2808SOL    HW1 8437   4.405   1.626   1.917
 2808SOL    HW2 8438   4.356   1.527   2.037
 2809SOL     OW 8439   3.987   0.326   2.582
 2809SOL    HW1 8440   3.908   0.377   2.548
 2809SOL    HW2 8441   3.978   0.311   2.680
 2810SOL     OW 8442   4.546   1.002   3.234
 2810SOL    HW1 8443   4.586   1.001   3.142
 2810SOL    HW2 8444   4.556   1.094   3.274
 2811SOL     OW 8445   4.096   1.288   3.352
 2811SOL    HW1 8446   4.083   1.381   3.318
 2811SOL    HW2 8447   4.012   1.236   3.339
 2812SOL     OW 8448   4.314   1.487   2.353
 2812SOL    HW1 8449   4.356   1.429   2.283
 2812SOL    HW2 8450   4.270   1.566   2.309
 2813SOL     OW 8451   3.979   1.348   2.152
 2813SOL    HW1 8452   3.883   1.349   2.125
 2813SOL    HW2 8453   3.991   1.401   2.236
 2814SOL     OW 8454   3.829   1.013   3.588
 2814SOL    HW1 8455   3.752   0.980   3.642
 2814SOL    HW2 8456   3.914   0.983   3.630
 2815SOL     OW 8457   4.396   0.203   3.351
 2815SOL    HW1 8458   4.486   0.187   3.311
 2815SOL    HW2 8459   4.404   0.208   3.450
 2816SOL     OW 8460   3.799   0.345   1.895
 2816SOL    HW1 8461   3.707   0.317   1.866
 2816SOL    HW2 8462   3.830   0.422   1.839
 2817SOL     OW 8463   3.796   0.166   2.180
 2817SOL    HW1 8464   3.779   0.249   2.126
 2817SOL    HW2 8465   3.886   0.129   2.158
 2818SOL     OW 8466   4.337   0.842   3.293
 2818SOL    HW1 8467   4.393   0.923   3.276
 2818SOL    HW2 8468   4.396   0.762   3.296
 2819SOL     OW 8469   4.440   0.565   3.570
 2819SOL    HW1 8470   4.459   0.630   3.644
 2819SOL    HW2 8471   4.500   0.485   3.579
 2820SOL     OW 8472   4.114   1.741   3.422
 2820SOL    HW1 8473   4.023   1.782   3.420
 2820SOL    HW2 8474   4.107   1.647   3.454
 2821SOL     OW 8475   4.318   0.745   2.514
 2821SOL    HW1 8476   4.368   0.830   2.495
 2821SOL    HW2 8477   4.230   0.747   2.466
 2822SOL     OW 8478   4.385   1.790   2.815
 2822SOL    HW1 8479   4.339   1.878   2.802
 2822SOL    HW2 8480   4.484   1.802   2.808
 2823SOL     OW 8481   3.945   1.314   3.706
 2823SOL    HW1 8482   3.880   1.241   3.685
 2823SOL    HW2 8483   3.949   1.328   3.804
 2824SOL     OW 8484   3.803   1.240   2.515
 2824SOL    HW1 8485   3.802   1.193   2.603
 2824SOL    HW2 8486   3.885   1.212   2.464
 2825SOL     OW 8487   4.396   1.391   3.486
 2825SOL    HW1 8488   4.318   1.341   3.524
 2825SOL    HW2 8489   4.393   1.486   3.517
 2826SOL     OW 8490   4.152   0.424   2.382
 2826SOL    HW1 8491   4.182   0.352   2.320
 2826SOL    HW2 8492   4.113   0.384   2.465
 2827SOL     OW 8493   4.041   0.547   3.142
 2827SOL    HW1 8494   4.079   0.488   3.214
 2827SOL    HW2 8495   4.081   0.521   3.054
 2828SOL     OW 8496   4.536   1.586   2.549
 2828SOL    HW1 8497   4.568   1.596   2.455
 2828SOL    HW2 8498   4.457   1.524   2.551
 2829SOL     OW 8499   4.725   0.034   3.016
 2829SOL    HW1 8500   4.662  -0.038   2.985
 2829SOL    HW2 8501   4.818  -0.002   3.016
 2830SOL     OW 8502   4.494   1.330   2.163
 2830SOL    HW1 8503   4.448   1.243   2.180
 2830SOL    HW2 8504   4.585   1.327   2.204
 2831SOL     OW 8505   4.342   1.567   3.146
 2831SOL    HW1 8506   4.337   1.649   3.203
 2831SOL    HW2 8507   4.431   1.564   3.101
 2832SOL     OW 8508   3.763   1.077   2.162
 2832SOL    HW1 8509   3.862   1.066   2.153
 2832SOL    HW2 8510   3.723   0.991   2.194
 2833SOL     OW 8511   4.599   1.646   2.199
 2833SOL    HW1 8512   4.522   1.611   2.145
 2833SOL    HW2 8513   4.567   1.717   2.261
 2834SOL     OW 8514   3.954   0.628   3.837
 2834SOL    HW1 8515   3.861   0.626   3.874
 2834SOL    HW2 8516   3.955   0.589   3.745
 2835SOL     OW 8517   3.949   0.275   4.720
 2835SOL    HW1 8518   3.984   0.258   4.812
 2835SOL    HW2 8519   3.861   0.230   4.708
 2836SOL     OW 8520   3.743   0.368   4.371
 2836SOL    HW1 8521   3.661   0.411   4.410
 2836SOL    HW2 8522   3.715   0.295   4.308
 2837SOL     OW 8523   4.492   1.144   4.747
 2837SOL    HW1 8524   4.414   1.161   4.807
 2837SOL    HW2 8525   4.526   1.231   4.711
 2838SOL     OW 8526   4.409   1.012   4.389
 2838SOL    HW1 8527   4.478   0.996   4.459
 2838SOL    HW2 8528   4.336   1.069   4.427
 2839SOL     OW 8529   3.955   1.713   4.207
 2839SOL    HW1 8530   3.989   1.790   4.261
 2839SOL    HW2 8531   3.999   1.713   4.117
 2840SOL     OW 8532   3.954   1.434   4.262
 2840SOL    HW1 8533   3.928   1.530   4.262
 2840SOL    HW2 8534   3.883   1.380   4.307
 2841SOL     OW 8535   3.964   1.091   4.610
 2841SOL    HW1 8536   3.978   1.007   4.662
 2841SOL    HW2 8537   3.909   1.155   4.665
 2842SOL     OW 8538   4.330   0.964   3.847
 2842SOL    HW1 8539   4.337   1.048   3.793
 2842SOL    HW2 8540   4.376   0.977   3.935
 2843SOL     OW 8541   3.846   0.643   4.287
 2843SOL    HW1 8542   3.801   0.555   4.304
 2843SOL    HW2 8543   3.845   0.697   4.371
 2844SOL     OW 8544   3.751   1.596   3.841
 2844SOL    HW1 8545   3.732   1.500   3.862
 2844SOL    HW2 8546   3.718   1.654   3.916
 2845SOL     OW 8547   4.337   1.365   4.450
 2845SOL    HW1 8548   4.288   1.278   4.459
 2845SOL    HW2 8549   4.314   1.408   4.363
 2846SOL     OW 8550   4.533   0.004   4.226
 2846SOL    HW1 8551   4.573   0.095   4.217
 2846SOL    HW2 8552   4.433   0.012   4.232
 2847SOL     OW 8553   4.322   0.729   3.994
 2847SOL    HW1 8554   4.346   0.798   3.926
 2847SOL    HW2 8555   4.244   0.762   4.048
 2848SOL     OW 8556   3.800   0.811   4.513
 2848SOL    HW1 8557   3.899   0.799   4.522
 2848SOL    HW2 8558   3.776   0.906   4.534
 2849SOL     OW 8559   4.589   0.348   3.919
 2849SOL    HW1 8560   4.648   0.411   3.870
 2849SOL    HW2 8561   4.608   0.254   3.890
 2850SOL     OW 8562   4.732   1.456   4.201
 2850SOL    HW1 8563   4.686   1.528   4.149
 2850SOL    HW2 8564   4.728   1.476   4.299
 2851SOL     OW 8565   4.075   1.801   4.577
 2851SOL    HW1 8566   4.125   1.715   4.583
 2851SOL    HW2 8567   4.140   1.878   4.574
 2852SOL     OW 8568   4.045   0.943   3.966
 2852SOL    HW1 8569   4.127   0.982   3.924
 2852SOL    HW2 8570   4.018   0.861   3.917
 2853SOL     OW 8571   4.835   1.776   3.961
 2853SOL    HW1 8572   4.775   1.714   4.011
 2853SOL    HW2 8573   4.866   1.732   3.876
 2854SOL     OW 8574   4.188   1.743   4.047
 2854SOL    HW1 8575   4.221   1.782   4.133
 2854SOL    HW2 8576   4.264   1.736   3.982
 2855SOL     OW 8577   4.106   0.700   4.204
 2855SOL    HW1 8578   4.151   0.610   4.201
 2855SOL    HW2 8579   4.012   0.689   4.237
 2856SOL     OW 8580   4.338   0.122   3.841
 2856SOL    HW1 8581   4.436   0.100   3.848
 2856SOL    HW2 8582   4.307   0.105   3.748
 2857SOL     OW 8583   4.527   1.402   4.648
 2857SOL    HW1 8584   4.617   1.416   4.606
 2857SOL    HW2 8585   4.456   1.404   4.577
 2858SOL     OW 8586   4.263   0.064   4.236
 2858SOL    HW1 8587   4.182   0.065   4.294
 2858SOL    HW2 8588   4.266   0.147   4.181
 2859SOL     OW 8589   4.021   0.035   3.895
 2859SOL    HW1 8590   4.070   0.119   3.874
 2859SOL    HW2 8591   4.083  -0.030   3.940
 2860SOL     OW 8592   4.183   1.152   4.465
 2860SOL    HW1 8593   4.112   1.125   4.530
 2860SOL    HW2 8594   4.157   1.124   4.372
 2861SOL     OW 8595   4.212   1.385   3.898
 2861SOL    HW1 8596   4.125   1.370   3.945
 2861SOL    HW2 8597   4.195   1.411   3.803
 2862SOL     OW 8598   4.251   0.256   4.052
 2862SOL    HW1 8599   4.278   0.197   3.977
 2862SOL    HW2 8600   4.251   0.351   4.021
 2863SOL     OW 8601   4.429   1.050   4.092
 2863SOL    HW1 8602   4.415   1.057   4.191
 2863SOL    HW2 8603   4.513   0.999   4.074
 2864SOL     OW 8604   4.091   1.100   4.225
 2864SOL    HW1 8605   4.084   1.183   4.169
 2864SOL    HW2 8606   4.095   1.020   4.165
 2865SOL     OW 8607   4.290   0.537   4.589
 2865SOL    HW1 8608   4.302   0.603   4.515
 2865SOL    HW2 8609   4.336   0.571   4.672
 2866SOL     OW 8610   4.456   0.634   4.788
 2866SOL    HW1 8611   4.515   0.608   4.712
 2866SOL    HW2 8612   4.428   0.730   4.777
 2867SOL     OW 8613   4.031   0.063   4.342
 2867SOL    HW1 8614   4.020   0.157   4.375
 2867SOL    HW2 8615   4.026   0.000   4.419
 2868SOL     OW 8616   4.747   0.766   4.690
 2868SOL    HW1 8617   4.762   0.787   4.786
 2868SOL    HW2 8618   4.717   0.671   4.681
 2869SOL     OW 8619   3.732   1.326   3.924
 2869SOL    HW1 8620   3.639   1.347   3.893
 2869SOL    HW2 8621   3.742   1.227   3.937
 2870SOL     OW 8622   3.812   1.801   4.651
 2870SOL    HW1 8623   3.770   1.715   4.624
 2870SOL    HW2 8624   3.906   1.804   4.617
 2871SOL     OW 8625   4.228   1.568   4.634
 2871SOL    HW1 8626   4.294   1.642   4.643
 2871SOL    HW2 8627   4.272   1.489   4.592
 2872SOL     OW 8628   4.539   0.572   4.049
 2872SOL    HW1 8629   4.546   0.483   4.003
 2872SOL    HW2 8630   4.445   0.606   4.041
 2873SOL     OW 8631   4.197   0.500   3.915
 2873SOL    HW1 8632   4.258   0.580   3.919
 2873SOL    HW2 8633   4.102   0.531   3.922
 2874SOL     OW 8634   4.627   0.086   3.857
 2874SOL    HW1 8635   4.678   0.087   3.771
 2874SOL    HW2 8636   4.683   0.044   3.928
 2875SOL     OW 8637   4.396   1.616   3.878
 2875SOL    HW1 8638   4.405   1.626   3.779
 2875SOL    HW2 8639   4.356   1.527   3.899
 2876SOL     OW 8640   3.987   0.326   4.444
 2876SOL    HW1 8641   3.908   0.377   4.410
 2876SOL    HW2 8642   3.978   0.311   4.542
 2877SOL     OW 8643   4.314   1.487   4.215
 2877SOL    HW1 8644   4.356   1.429   4.145
 2877SOL    HW2 8645   4.270   1.566   4.171
 2878SOL     OW 8646   3.979   1.348   4.014
 2878SOL    HW1 8647   3.883   1.349   3.987
 2878SOL    HW2 8648   3.991   1.401   4.098
 2879SOL     OW 8649   3.799   0.345   3.757
 2879SOL    HW1 8650   3.707   0.317   3.728
 2879SOL    HW2 8651   3.830   0.422   3.701
 2880SOL     OW 8652   3.796   0.166   4.042
 2880SOL    HW1 8653   3.779   0.249   3.988
 2880SOL    HW2 8654   3.886   0.129   4.020
 2881SOL     OW 8655   4.318   0.745   4.376
 2881SOL    HW1 8656   4.368   0.830   4.357
 2881SOL    HW2 8657   4.230   0.747   4.328
 2882SOL     OW 8658   4.385   1.790   4.677
 2882SOL    HW1 8659   4.339   1.878   4.664
 2882SOL    HW2 8660   4.484   1.802   4.670
 2883SOL     OW 8661   3.803   1.240   4.377
 2883SOL    HW1 8662   3.802   1.193   4.465
 2883SOL    HW2 8663   3.885   1.212   4.326
 2884SOL     OW 8664   4.152   0.424   4.244
 2884SOL    HW1 8665   4.182   0.352   4.182
 2884SOL    HW2 8666   4.113   0.384   4.327
 2885SOL     OW 8667   4.536   1.586   4.411
 2885SOL    HW1 8668   4.568   1.596   4.317
 2885SOL    HW2 8669   4.457   1.524   4.413
 2886SOL     OW 8670   4.494   1.330   4.025
 2886SOL    HW1 8671   4.448   1.243   4.042
 2886SOL    HW2 8672   4.585   1.327   4.066
 2887SOL     OW 8673   3.763   1.077   4.024
 2887SOL    HW1 8674   3.862   1.066   4.015
 2887SOL    HW2 8675   3.723   0.991   4.056
 2888SOL     OW 8676   4.599   1.646   4.061
 2888SOL    HW1 8677   4.522   1.611   4.007
 2888SOL    HW2 8678   4.567   1.717   4.123
 2889SOL     OW 8679   3.954   2.490   0.113
 2889SOL    HW1 8680   3.861   2.488   0.150
 2889SOL    HW2 8681   3.955   2.451   0.021
 2890SOL     OW 8682   3.949   2.137   0.996
 2890SOL    HW1 8683   3.984   2.120   1.088
 2890SOL    HW2 8684   3.861   2.092   0.984
 2891SOL     OW 8685   3.743   2.230   0.647
 2891SOL    HW1 8686   3.661   2.273   0.686
 2891SOL    HW2 8687   3.715   2.157   0.584
 2892SOL     OW 8688   4.293   3.137   1.165
 2892SOL    HW1 8689   4.200   3.130   1.128
 2892SOL    HW2 8690   4.304   3.226   1.209
 2893SOL     OW 8691   4.492   3.006   1.023
 2893SOL    HW1 8692   4.414   3.023   1.083
 2893SOL    HW2 8693   4.526   3.093   0.987
 2894SOL     OW 8694   4.574   2.660   1.823
 2894SOL    HW1 8695   4.570   2.736   1.888
 2894SOL    HW2 8696   4.596   2.696   1.732
 2895SOL     OW 8697   4.409   2.874   0.665
 2895SOL    HW1 8698   4.478   2.858   0.735
 2895SOL    HW2 8699   4.336   2.931   0.703
 2896SOL     OW 8700   4.410   3.023   1.803
 2896SOL    HW1 8701   4.470   3.102   1.817
 2896SOL    HW2 8702   4.324   3.054   1.762
 2897SOL     OW 8703   4.059   3.297   1.061
 2897SOL    HW1 8704   3.981   3.266   1.008
 2897SOL    HW2 8705   4.117   3.355   1.004
 2898SOL     OW 8706   4.162   2.254   1.499
 2898SOL    HW1 8707   4.244   2.198   1.508
 2898SOL    HW2 8708   4.081   2.196   1.503
 2899SOL     OW 8709   3.955   3.575   0.483
 2899SOL    HW1 8710   3.989   3.652   0.537
 2899SOL    HW2 8711   3.999   3.575   0.393
 2900SOL     OW 8712   3.954   3.296   0.538
 2900SOL    HW1 8713   3.928   3.392   0.538
 2900SOL    HW2 8714   3.883   3.242   0.583
 2901SOL     OW 8715   3.964   2.953   0.886
 2901SOL    HW1 8716   3.978   2.869   0.938
 2901SOL    HW2 8717   3.909   3.017   0.941
 2902SOL     OW 8718   4.344   3.648   1.439
 2902SOL    HW1 8719   4.252   3.631   1.474
 2902SOL    HW2 8720   4.372   3.740   1.465
 2903SOL     OW 8721   4.330   2.826   0.123
 2903SOL    HW1 8722   4.337   2.910   0.069
 2903SOL    HW2 8723   4.376   2.839   0.211
 2904SOL     OW 8724   3.846   2.505   0.563
 2904SOL    HW1 8725   3.801   2.417   0.580
 2904SOL    HW2 8726   3.845   2.559   0.647
 2905SOL     OW 8727   3.751   3.458   0.117
 2905SOL    HW1 8728   3.732   3.362   0.138
 2905SOL    HW2 8729   3.718   3.516   0.192
 2906SOL     OW 8730   3.837   2.599   1.597
 2906SOL    HW1 8731   3.925   2.586   1.642
 2906SOL    HW2 8732   3.824   2.696   1.575
 2907SOL     OW 8733   4.337   3.227   0.726
 2907SOL    HW1 8734   4.288   3.140   0.735
 2907SOL    HW2 8735   4.314   3.270   0.639
 2908SOL     OW 8736   4.533   1.866   0.502
 2908SOL    HW1 8737   4.573   1.957   0.493
 2908SOL    HW2 8738   4.433   1.874   0.508
 2909SOL     OW 8739   3.921   2.838   1.264
 2909SOL    HW1 8740   4.010   2.793   1.250
 2909SOL    HW2 8741   3.848   2.773   1.245
 2910SOL     OW 8742   4.041   2.113   1.801
 2910SOL    HW1 8743   4.112   2.184   1.807
 2910SOL    HW2 8744   3.953   2.152   1.829
 2911SOL     OW 8745   4.322   2.591   0.270
 2911SOL    HW1 8746   4.346   2.660   0.202
 2911SOL    HW2 8747   4.244   2.624   0.324
 2912SOL     OW 8748   4.531   2.467   1.465
 2912SOL    HW1 8749   4.484   2.464   1.554
 2912SOL    HW2 8750   4.480   2.412   1.399
 2913SOL     OW 8751   3.800   2.673   0.789
 2913SOL    HW1 8752   3.899   2.661   0.798
 2913SOL    HW2 8753   3.776   2.768   0.810
 2914SOL     OW 8754   3.854   3.683   1.571
 2914SOL    HW1 8755   3.844   3.668   1.670
 2914SOL    HW2 8756   3.768   3.719   1.535
 2915SOL     OW 8757   4.589   2.210   0.195
 2915SOL    HW1 8758   4.648   2.273   0.146
 2915SOL    HW2 8759   4.608   2.116   0.166
 2916SOL     OW 8760   4.274   2.058   0.885
 2916SOL    HW1 8761   4.269   2.053   0.985
 2916SOL    HW2 8762   4.276   2.154   0.856
 2917SOL     OW 8763   4.732   3.318   0.477
 2917SOL    HW1 8764   4.686   3.390   0.425
 2917SOL    HW2 8765   4.728   3.338   0.575
 2918SOL     OW 8766   4.075   3.663   0.853
 2918SOL    HW1 8767   4.125   3.577   0.859
 2918SOL    HW2 8768   4.140   3.740   0.850
 2919SOL     OW 8769   4.045   2.805   0.242
 2919SOL    HW1 8770   4.127   2.844   0.200
 2919SOL    HW2 8771   4.018   2.723   0.193
 2920SOL     OW 8772   4.185   3.128   1.727
 2920SOL    HW1 8773   4.135   3.129   1.641
 2920SOL    HW2 8774   4.122   3.110   1.803
 2921SOL     OW 8775   4.835   3.638   0.237
 2921SOL    HW1 8776   4.775   3.576   0.287
 2921SOL    HW2 8777   4.866   3.594   0.152
 2922SOL     OW 8778   3.926   2.147   1.498
 2922SOL    HW1 8779   3.846   2.207   1.485
 2922SOL    HW2 8780   3.916   2.098   1.584
 2923SOL     OW 8781   4.188   3.605   0.323
 2923SOL    HW1 8782   4.221   3.644   0.409
 2923SOL    HW2 8783   4.264   3.598   0.258
 2924SOL     OW 8784   3.973   3.647   1.241
 2924SOL    HW1 8785   4.030   3.582   1.291
 2924SOL    HW2 8786   3.957   3.614   1.148
 2925SOL     OW 8787   4.106   2.562   0.480
 2925SOL    HW1 8788   4.151   2.472   0.477
 2925SOL    HW2 8789   4.012   2.551   0.513
 2926SOL     OW 8790   4.505   2.126   1.749
 2926SOL    HW1 8791   4.572   2.065   1.792
 2926SOL    HW2 8792   4.432   2.145   1.814
 2927SOL     OW 8793   4.527   3.264   0.924
 2927SOL    HW1 8794   4.617   3.278   0.882
 2927SOL    HW2 8795   4.456   3.266   0.853
 2928SOL     OW 8796   4.646   2.365   0.899
 2928SOL    HW1 8797   4.621   2.356   0.803
 2928SOL    HW2 8798   4.694   2.283   0.930
 2929SOL     OW 8799   4.263   1.926   0.512
 2929SOL    HW1 8800   4.182   1.927   0.570
 2929SOL    HW2 8801   4.266   2.009   0.457
 2930SOL     OW 8802   4.021   1.897   0.171
 2930SOL    HW1 8803   4.070   1.981   0.150
 2930SOL    HW2 8804   4.083   1.832   0.216
 2931SOL     OW 8805   4.183   3.014   0.741
 2931SOL    HW1 8806   4.112   2.987   0.806
 2931SOL    HW2 8807   4.157   2.986   0.648
 2932SOL     OW 8808   3.802   2.418   1.386
 2932SOL    HW1 8809   3.894   2.417   1.345
 2932SOL    HW2 8810   3.796   2.492   1.453
 2933SOL     OW 8811   4.285   2.084   1.147
 2933SOL    HW1 8812   4.323   2.000   1.184
 2933SOL    HW2 8813   4.197   2.103   1.191
 2934SOL     OW 8814   4.212   3.247   0.174
 2934SOL    HW1 8815   4.125   3.232   0.221
 2934SOL    HW2 8816   4.195   3.273   0.079
 2935SOL     OW 8817   4.251   2.118   0.328
 2935SOL    HW1 8818   4.278   2.059   0.253
 2935SOL    HW2 8819   4.251   2.213   0.297
 2936SOL     OW 8820   4.639   1.951   1.402
 2936SOL    HW1 8821   4.664   1.931   1.307
 2936SOL    HW2 8822   4.711   2.007   1.444
 2937SOL     OW 8823   4.429   2.912   0.368
 2937SOL    HW1 8824   4.415   2.919   0.467
 2937SOL    HW2 8825   4.513   2.861   0.350
 2938SOL     OW 8826   4.134   2.675   1.251
 2938SOL    HW1 8827   4.220   2.687   1.301
 2938SOL    HW2 8828   4.092   2.588   1.278
 2939SOL     OW 8829   3.788   3.426   1.331
 2939SOL    HW1 8830   3.742   3.508   1.297
 2939SOL    HW2 8831   3.886   3.445   1.340
 2940SOL     OW 8832   4.091   2.962   0.501
 2940SOL    HW1 8833   4.084   3.045   0.445
 2940SOL    HW2 8834   4.095   2.882   0.441
 2941SOL     OW 8835   4.290   2.399   0.865
 2941SOL    HW1 8836   4.302   2.465   0.791
 2941SOL    HW2 8837   4.336   2.433   0.948
 2942SOL     OW 8838   4.078   3.372   1.329
 2942SOL    HW1 8839   4.057   3.328   1.242
 2942SOL    HW2 8840   4.175   3.398   1.332
 2943SOL     OW 8841   4.126   2.613   1.598
 2943SOL    HW1 8842   4.194   2.668   1.551
 2943SOL    HW2 8843   4.166   2.525   1.625
 2944SOL     OW 8844   4.228   1.912   1.740
 2944SOL    HW1 8845   4.186   1.855   1.670
 2944SOL    HW2 8846   4.162   1.981   1.772
 2945SOL     OW 8847   4.297   2.732   1.029
 2945SOL    HW1 8848   4.341   2.821   1.020
 2945SOL    HW2 8849   4.234   2.732   1.106
 2946SOL     OW 8850   4.031   2.075   1.231
 2946SOL    HW1 8851   4.008   2.112   1.321
 2946SOL    HW2 8852   4.001   1.980   1.225
 2947SOL     OW 8853   3.761   3.172   1.282
 2947SOL    HW1 8854   3.814   3.123   1.350
 2947SOL    HW2 8855   3.783   3.270   1.287
 2948SOL     OW 8856   4.456   2.496   1.064
 2948SOL    HW1 8857   4.515   2.470   0.988
 2948SOL    HW2 8858   4.428   2.592   1.053
 2949SOL     OW 8859   4.031   1.925   0.618
 2949SOL    HW1 8860   4.020   2.019   0.651
 2949SOL    HW2 8861   4.026   1.862   0.695
 2950SOL     OW 8862   4.747   2.628   0.966
 2950SOL    HW1 8863   4.762   2.649   1.062
 2950SOL    HW2 8864   4.717   2.533   0.957
 2951SOL     OW 8865   4.704   3.435   1.700
 2951SOL    HW1 8866   4.684   3.479   1.612
 2951SOL    HW2 8867   4.743   3.344   1.684
 2952SOL     OW 8868   4.074   2.760   1.804
 2952SOL    HW1 8869   4.150   2.804   1.852
 2952SOL    HW2 8870   4.109   2.713   1.722
 2953SOL     OW 8871   4.043   2.672   0.949
 2953SOL    HW1 8872   4.136   2.708   0.954
 2953SOL    HW2 8873   4.037   2.587   1.001
 2954SOL     OW 8874   4.063   2.371   1.006
 2954SOL    HW1 8875   4.011   2.288   0.989
 2954SOL    HW2 8876   4.140   2.376   0.942
 2955SOL     OW 8877   3.732   3.188   0.200
 2955SOL    HW1 8878   3.639   3.209   0.169
 2955SOL    HW2 8879   3.742   3.089   0.213
 2956SOL     OW 8880   3.812   3.663   0.927
 2956SOL    HW1 8881   3.770   3.577   0.900
 2956SOL    HW2 8882   3.906   3.666   0.893
 2957SOL     OW 8883   4.228   3.430   0.910
 2957SOL    HW1 8884   4.294   3.504   0.919
 2957SOL    HW2 8885   4.272   3.351   0.868
 2958SOL     OW 8886   3.764   2.406   1.114
 2958SOL    HW1 8887   3.849   2.373   1.073
 2958SOL    HW2 8888   3.777   2.421   1.212
 2959SOL     OW 8889   3.913   2.382   1.722
 2959SOL    HW1 8890   3.972   2.342   1.652
 2959SOL    HW2 8891   3.855   2.453   1.681
 2960SOL     OW 8892   4.539   2.434   0.325
 2960SOL    HW1 8893   4.546   2.345   0.279
 2960SOL    HW2 8894   4.445   2.468   0.317
 2961SOL     OW 8895   3.976   3.426   1.744
 2961SOL    HW1 8896   3.946   3.483   1.820
 2961SOL    HW2 8897   3.969   3.329   1.770
 2962SOL     OW 8898   4.395   2.326   1.269
 2962SOL    HW1 8899   4.361   2.237   1.239
 2962SOL    HW2 8900   4.421   2.380   1.189
 2963SOL     OW 8901   4.197   2.362   0.191
 2963SOL    HW1 8902   4.258   2.442   0.195
 2963SOL    HW2 8903   4.102   2.393   0.198
 2964SOL     OW 8904   3.883   2.999   1.466
 2964SOL    HW1 8905   3.905   2.938   1.542
 2964SOL    HW2 8906   3.893   2.950   1.380
 2965SOL     OW 8907   3.807   3.120   1.022
 2965SOL    HW1 8908   3.802   3.119   1.122
 2965SOL    HW2 8909   3.724   3.079   0.984
 2966SOL     OW 8910   4.412   3.524   1.716
 2966SOL    HW1 8911   4.356   3.605   1.725
 2966SOL    HW2 8912   4.464   3.528   1.630
 2967SOL     OW 8913   4.627   1.948   0.133
 2967SOL    HW1 8914   4.678   1.949   0.047
 2967SOL    HW2 8915   4.683   1.906   0.204
 2968SOL     OW 8916   3.854   3.656   1.851
 2968SOL    HW1 8917   3.813   3.582   1.904
 2968SOL    HW2 8918   3.918   3.707   1.909
 2969SOL     OW 8919   4.554   3.135   1.422
 2969SOL    HW1 8920   4.549   3.168   1.517
 2969SOL    HW2 8921   4.468   3.154   1.376
 2970SOL     OW 8922   4.396   3.478   0.154
 2970SOL    HW1 8923   4.405   3.488   0.055
 2970SOL    HW2 8924   4.356   3.389   0.175
 2971SOL     OW 8925   3.987   2.188   0.720
 2971SOL    HW1 8926   3.908   2.239   0.686
 2971SOL    HW2 8927   3.978   2.173   0.818
 2972SOL     OW 8928   4.918   3.474   0.031
 2972SOL    HW1 8929   4.924   3.381   0.068
 2972SOL    HW2 8930   4.859   3.474  -0.049
 2973SOL     OW 8931   4.546   2.864   1.372
 2973SOL    HW1 8932   4.586   2.863   1.280
 2973SOL    HW2 8933   4.556   2.956   1.412
 2974SOL     OW 8934   4.096   3.150   1.490
 2974SOL    HW1 8935   4.083   3.243   1.456
 2974SOL    HW2 8936   4.012   3.098   1.477
 2975SOL     OW 8937   4.314   3.349   0.491
 2975SOL    HW1 8938   4.356   3.291   0.421
 2975SOL    HW2 8939   4.270   3.428   0.447
 2976SOL     OW 8940   3.979   3.210   0.290
 2976SOL    HW1 8941   3.883   3.211   0.263
 2976SOL    HW2 8942   3.991   3.263   0.374
 2977SOL     OW 8943   3.829   2.875   1.726
 2977SOL    HW1 8944   3.752   2.842   1.780
 2977SOL    HW2 8945   3.914   2.845   1.768
 2978SOL     OW 8946   4.396   2.065   1.489
 2978SOL    HW1 8947   4.486   2.049   1.449
 2978SOL    HW2 8948   4.404   2.070   1.588
 2979SOL     OW 8949   3.796   2.028   0.318
 2979SOL    HW1 8950   3.779   2.111   0.264
 2979SOL    HW2 8951   3.886   1.991   0.296
 2980SOL     OW 8952   4.337   2.704   1.431
 2980SOL    HW1 8953   4.393   2.785   1.414
 2980SOL    HW2 8954   4.396   2.624   1.434
 2981SOL     OW 8955   4.440   2.427   1.708
 2981SOL    HW1 8956   4.459   2.492   1.782
 2981SOL    HW2 8957   4.500   2.347   1.717
 2982SOL     OW 8958   4.114   3.603   1.560
 2982SOL    HW1 8959   4.023   3.644   1.558
 2982SOL    HW2 8960   4.107   3.509   1.592
 2983SOL     OW 8961   4.318   2.607   0.652
 2983SOL    HW1 8962   4.368   2.692   0.633
 2983SOL    HW2 8963   4.230   2.609   0.604
 2984SOL     OW 8964   4.385   3.652   0.953
 2984SOL    HW1 8965   4.339   3.740   0.940
 2984SOL    HW2 8966   4.484   3.664   0.946
 2985SOL     OW 8967   3.945   3.176   1.844
 2985SOL    HW1 8968   3.880   3.103   1.823
 2985SOL    HW2 8969   3.949   3.190   1.942
 2986SOL     OW 8970   3.803   3.102   0.653
 2986SOL    HW1 8971   3.802   3.055   0.741
 2986SOL    HW2 8972   3.885   3.074   0.602
 2987SOL     OW 8973   4.396   3.253   1.624
 2987SOL    HW1 8974   4.318   3.203   1.662
 2987SOL    HW2 8975   4.393   3.348   1.655
 2988SOL     OW 8976   4.152   2.286   0.520
 2988SOL    HW1 8977   4.182   2.214   0.458
 2988SOL    HW2 8978   4.113   2.246   0.603
 2989SOL     OW 8979   4.041   2.409   1.280
 2989SOL    HW1 8980   4.079   2.350   1.352
 2989SOL    HW2 8981   4.081   2.383   1.192
 2990SOL     OW 8982   4.536   3.448   0.687
 2990SOL    HW1 8983   4.568   3.458   0.593
 2990SOL    HW2 8984   4.457   3.386   0.689
 2991SOL     OW 8985   4.725   1.896   1.154
 2991SOL    HW1 8986   4.662   1.824   1.123
 2991SOL    HW2 8987   4.818   1.860   1.154
 2992SOL     OW 8988   4.494   3.192   0.301
 2992SOL    HW1 8989   4.448   3.105   0.318
 2992SOL    HW2 8990   4.585   3.189   0.342
 2993SOL     OW 8991   4.342   3.429   1.284
 2993SOL    HW1 8992   4.337   3.511   1.341
 2993SOL    HW2 8993   4.431   3.426   1.239
 2994SOL     OW 8994   3.763   2.939   0.300
 2994SOL    HW1 8995   3.862   2.928   0.291
 2994SOL    HW2 8996   3.723   2.853   0.332
 2995SOL     OW 8997   4.599   3.508   0.337
 2995SOL    HW1 8998   4.522   3.473   0.283
 2995SOL    HW2 8999   4.567   3.579   0.399
 2996SOL     OW 9000   3.954   2.490   1.975
 2996SOL    HW1 9001   3.861   2.488   2.012
 2996SOL    HW2 9002   3.955   2.451   1.883
 2997SOL     OW 9003   3.949   2.137   2.858
 2997SOL    HW1 9004   3.984   2.120   2.950
 2997SOL    HW2 9005   3.861   2.092   2.846
 2998SOL     OW 9006   3.743   2.230   2.509
 2998SOL    HW1 9007   3.661   2.273   2.548
 2998SOL    HW2 9008   3.715   2.157   2.446
 2999SOL     OW 9009   4.293   3.137   3.027
 2999SOL    HW1 9010   4.200   3.130   2.990
 2999SOL    HW2 9011   4.304   3.226   3.071
 3000SOL     OW 9012   4.492   3.006   2.885
 3000SOL    HW1 9013   4.414   3.023   2.945
 3000SOL    HW2 9014   4.526   3.093   2.849
 3001SOL     OW 9015   4.574   2.660   3.685
 3001SOL    HW1 9016   4.570   2.736   3.750
 3001SOL    HW2 9017   4.596   2.696   3.594
 3002SOL     OW 9018   4.409   2.874   2.527
 3002SOL    HW1 9019   4.478   2.858   2.597
 3002SOL    HW2 9020   4.336   2.931   2.565
 3003SOL     OW 9021   4.410   3.023   3.665
 3003SOL    HW1 9022   4.470   3.102   3.679
 3003SOL    HW2 9023   4.324   3.054   3.624
 3004SOL     OW 9024   4.059   3.297   2.923
 3004SOL    HW1 9025   3.981   3.266   2.870
 3004SOL    HW2 9026   4.117   3.355   2.866
 3005SOL     OW 9027   4.162   2.254   3.361
 3005SOL    HW1 9028   4.244   2.198   3.370
 3005SOL    HW2 9029   4.081   2.196   3.365
 3006SOL     OW 9030   3.955   3.575   2.345
 3006SOL    HW1 9031   3.989   3.652   2.399
 3006SOL    HW2 9032   3.999   3.575   2.255
 3007SOL     OW 9033   3.954   3.296   2.400
 3007SOL    HW1 9034   3.928   3.392   2.400
 3007SOL    HW2 9035   3.883   3.242   2.445
 3008SOL     OW 9036   3.964   2.953   2.748
 3008SOL    HW1 9037   3.978   2.869   2.800
 3008SOL    HW2 9038   3.909   3.017   2.803
 3009SOL     OW 9039   4.344   3.648   3.301
 3009SOL    HW1 9040   4.252   3.631   3.336
 3009SOL    HW2 9041   4.372   3.740   3.327
 3010SOL     OW 9042   4.330   2.826   1.985
 3010SOL    HW1 9043   4.337   2.910   1.931
 3010SOL    HW2 9044   4.376   2.839   2.073
 3011SOL     OW 9045   3.846   2.505   2.425
 3011SOL    HW1 9046   3.801   2.417   2.442
 3011SOL    HW2 9047   3.845   2.559   2.509
 3012SOL     OW 9048   3.751   3.458   1.979
 3012SOL    HW1 9049   3.732   3.362   2.000
 3012SOL    HW2 9050   3.718   3.516   2.054
 3013SOL     OW 9051   3.837   2.599   3.459
 3013SOL    HW1 9052   3.925   2.586   3.504
 3013SOL    HW2 9053   3.824   2.696   3.437
 3014SOL     OW 9054   4.337   3.227   2.588
 3014SOL    HW1 9055   4.288   3.140   2.597
 3014SOL    HW2 9056   4.314   3.270   2.501
 3015SOL     OW 9057   4.533   1.866   2.364
 3015SOL    HW1 9058   4.573   1.957   2.355
 3015SOL    HW2 9059   4.433   1.874   2.370
 3016SOL     OW 9060   3.921   2.838   3.126
 3016SOL    HW1 9061   4.010   2.793   3.112
 3016SOL    HW2 9062   3.848   2.773   3.107
 3017SOL     OW 9063   4.041   2.113   3.663
 3017SOL    HW1 9064   4.112   2.184   3.669
 3017SOL    HW2 9065   3.953   2.152   3.691
 3018SOL     OW 9066   4.322   2.591   2.132
 3018SOL    HW1 9067   4.346   2.660   2.064
 3018SOL    HW2 9068   4.244   2.624   2.186
 3019SOL     OW 9069   4.531   2.467   3.327
 3019SOL    HW1 9070   4.484   2.464   3.416
 3019SOL    HW2 9071   4.480   2.412   3.261
 3020SOL     OW 9072   3.800   2.673   2.651
 3020SOL    HW1 9073   3.899   2.661   2.660
 3020SOL    HW2 9074   3.776   2.768   2.672
 3021SOL     OW 9075   3.854   3.683   3.433
 3021SOL    HW1 9076   3.844   3.668   3.532
 3021SOL    HW2 9077   3.768   3.719   3.397
 3022SOL     OW 9078   4.589   2.210   2.057
 3022SOL    HW1 9079   4.648   2.273   2.008
 3022SOL    HW2 9080   4.608   2.116   2.028
 3023SOL     OW 9081   4.274   2.058   2.747
 3023SOL    HW1 9082   4.269   2.053   2.847
 3023SOL    HW2 9083   4.276   2.154   2.718
 3024SOL     OW 9084   4.732   3.318   2.339
 3024SOL    HW1 9085   4.686   3.390   2.287
 3024SOL    HW2 9086   4.728   3.338   2.437
 3025SOL     OW 9087   4.075   3.663   2.715
 3025SOL    HW1 9088   4.125   3.577   2.721
 3025SOL    HW2 9089   4.140   3.740   2.712
 3026SOL     OW 9090   4.045   2.805   2.104
 3026SOL    HW1 9091   4.127   2.844   2.062
 3026SOL    HW2 9092   4.018   2.723   2.055
 3027SOL     OW 9093   4.185   3.128   3.589
 3027SOL    HW1 9094   4.135   3.129   3.503
 3027SOL    HW2 9095   4.122   3.110   3.665
 3028SOL     OW 9096   4.835   3.638   2.099
 3028SOL    HW1 9097   4.775   3.576   2.149
 3028SOL    HW2 9098   4.866   3.594   2.014
 3029SOL     OW 9099   3.926   2.147   3.360
 3029SOL    HW1 9100   3.846   2.207   3.347
 3029SOL    HW2 9101   3.916   2.098   3.446
 3030SOL     OW 9102   4.188   3.605   2.185
 3030SOL    HW1 9103   4.221   3.644   2.271
 3030SOL    HW2 9104   4.264   3.598   2.120
 3031SOL     OW 9105   3.973   3.647   3.103
 3031SOL    HW1 9106   4.030   3.582   3.153
 3031SOL    HW2 9107   3.957   3.614   3.010
 3032SOL     OW 9108   4.106   2.562   2.342
 3032SOL    HW1 9109   4.151   2.472   2.339
 3032SOL    HW2 9110   4.012   2.551   2.375
 3033SOL     OW 9111   4.338   1.984   1.979
 3033SOL    HW1 9112   4.436   1.962   1.986
 3033SOL    HW2 9113   4.307   1.967   1.886
 3034SOL     OW 9114   4.505   2.126   3.611
 3034SOL    HW1 9115   4.572   2.065   3.654
 3034SOL    HW2 9116   4.432   2.145   3.676
 3035SOL     OW 9117   4.527   3.264   2.786
 3035SOL    HW1 9118   4.617   3.278   2.744
 3035SOL    HW2 9119   4.456   3.266   2.715
 3036SOL     OW 9120   4.646   2.365   2.761
 3036SOL    HW1 9121   4.621   2.356   2.665
 3036SOL    HW2 9122   4.694   2.283   2.792
 3037SOL     OW 9123   4.263   1.926   2.374
 3037SOL    HW1 9124   4.182   1.927   2.432
 3037SOL    HW2 9125   4.266   2.009   2.319
 3038SOL     OW 9126   4.021   1.897   2.033
 3038SOL    HW1 9127   4.070   1.981   2.012
 3038SOL    HW2 9128   4.083   1.832   2.078
 3039SOL     OW 9129   4.183   3.014   2.603
 3039SOL    HW1 9130   4.112   2.987   2.668
 3039SOL    HW2 9131   4.157   2.986   2.510
 3040SOL     OW 9132   3.802   2.418   3.248
 3040SOL    HW1 9133   3.894   2.417   3.207
 3040SOL    HW2 9134   3.796   2.492   3.315
 3041SOL     OW 9135   4.285   2.084   3.009
 3041SOL    HW1 9136   4.323   2.000   3.046
 3041SOL    HW2 9137   4.197   2.103   3.053
 3042SOL     OW 9138   4.212   3.247   2.036
 3042SOL    HW1 9139   4.125   3.232   2.083
 3042SOL    HW2 9140   4.195   3.273   1.941
 3043SOL     OW 9141   4.251   2.118   2.190
 3043SOL    HW1 9142   4.278   2.059   2.115
 3043SOL    HW2 9143   4.251   2.213   2.159
 3044SOL     OW 9144   4.639   1.951   3.264
 3044SOL    HW1 9145   4.664   1.931   3.169
 3044SOL    HW2 9146   4.711   2.007   3.306
 3045SOL     OW 9147   4.429   2.912   2.230
 3045SOL    HW1 9148   4.415   2.919   2.329
 3045SOL    HW2 9149   4.513   2.861   2.212
 3046SOL     OW 9150   4.134   2.675   3.113
 3046SOL    HW1 9151   4.220   2.687   3.163
 3046SOL    HW2 9152   4.092   2.588   3.140
 3047SOL     OW 9153   3.788   3.426   3.193
 3047SOL    HW1 9154   3.742   3.508   3.159
 3047SOL    HW2 9155   3.886   3.445   3.202
 3048SOL     OW 9156   4.091   2.962   2.363
 3048SOL    HW1 9157   4.084   3.045   2.307
 3048SOL    HW2 9158   4.095   2.882   2.303
 3049SOL     OW 9159   4.290   2.399   2.727
 3049SOL    HW1 9160   4.302   2.465   2.653
 3049SOL    HW2 9161   4.336   2.433   2.810
 3050SOL     OW 9162   4.078   3.372   3.191
 3050SOL    HW1 9163   4.057   3.328   3.104
 3050SOL    HW2 9164   4.175   3.398   3.194
 3051SOL     OW 9165   4.126   2.613   3.460
 3051SOL    HW1 9166   4.194   2.668   3.413
 3051SOL    HW2 9167   4.166   2.525   3.487
 3052SOL     OW 9168   4.228   1.912   3.602
 3052SOL    HW1 9169   4.186   1.855   3.532
 3052SOL    HW2 9170   4.162   1.981   3.634
 3053SOL     OW 9171   4.297   2.732   2.891
 3053SOL    HW1 9172   4.341   2.821   2.882
 3053SOL    HW2 9173   4.234   2.732   2.968
 3054SOL     OW 9174   4.031   2.075   3.093
 3054SOL    HW1 9175   4.008   2.112   3.183
 3054SOL    HW2 9176   4.001   1.980   3.087
 3055SOL     OW 9177   3.761   3.172   3.144
 3055SOL    HW1 9178   3.814   3.123   3.212
 3055SOL    HW2 9179   3.783   3.270   3.149
 3056SOL     OW 9180   4.456   2.496   2.926
 3056SOL    HW1 9181   4.515   2.470   2.850
 3056SOL    HW2 9182   4.428   2.592   2.915
 3057SOL     OW 9183   4.031   1.925   2.480
 3057SOL    HW1 9184   4.020   2.019   2.513
 3057SOL    HW2 9185   4.026   1.862   2.557
 3058SOL     OW 9186   4.747   2.628   2.828
 3058SOL    HW1 9187   4.762   2.649   2.924
 3058SOL    HW2 9188   4.717   2.533   2.819
 3059SOL     OW 9189   4.704   3.435   3.562
 3059SOL    HW1 9190   4.684   3.479   3.474
 3059SOL    HW2 9191   4.743   3.344   3.546
 3060SOL     OW 9192   4.074   2.760   3.666
 3060SOL    HW1 9193   4.150   2.804   3.714
 3060SOL    HW2 9194   4.109   2.713   3.584
 3061SOL     OW 9195   4.043   2.672   2.811
 3061SOL    HW1 9196   4.136   2.708   2.816
 3061SOL    HW2 9197   4.037   2.587   2.863
 3062SOL     OW 9198   4.063   2.371   2.868
 3062SOL    HW1 9199   4.011   2.288   2.851
 3062SOL    HW2 9200   4.140   2.376   2.804
 3063SOL     OW 9201   3.732   3.188   2.062
 3063SOL    HW1 9202   3.639   3.209   2.031
 3063SOL    HW2 9203   3.742   3.089   2.075
 3064SOL     OW 9204   3.812   3.663   2.789
 3064SOL    HW1 9205   3.770   3.577   2.762
 3064SOL    HW2 9206   3.906   3.666   2.755
 3065SOL     OW 9207   4.228   3.430   2.772
 3065SOL    HW1 9208   4.294   3.504   2.781
 3065SOL    HW2 9209   4.272   3.351   2.730
 3066SOL     OW 9210   3.764   2.406   2.976
 3066SOL    HW1 9211   3.849   2.373   2.935
 3066SOL    HW2 9212   3.777   2.421   3.074
 3067SOL     OW 9213   3.913   2.382   3.584
 3067SOL    HW1 9214   3.972   2.342   3.514
 3067SOL    HW2 9215   3.855   2.453   3.543
 3068SOL     OW 9216   4.539   2.434   2.187
 3068SOL    HW1 9217   4.546   2.345   2.141
 3068SOL    HW2 9218   4.445   2.468   2.179
 3069SOL     OW 9219   3.976   3.426   3.606
 3069SOL    HW1 9220   3.946   3.483   3.682
 3069SOL    HW2 9221   3.969   3.329   3.632
 3070SOL     OW 9222   4.395   2.326   3.131
 3070SOL    HW1 9223   4.361   2.237   3.101
 3070SOL    HW2 9224   4.421   2.380   3.051
 3071SOL     OW 9225   4.197   2.362   2.053
 3071SOL    HW1 9226   4.258   2.442   2.057
 3071SOL    HW2 9227   4.102   2.393   2.060
 3072SOL     OW 9228   3.883   2.999   3.328
 3072SOL    HW1 9229   3.905   2.938   3.404
 3072SOL    HW2 9230   3.893   2.950   3.242
 3073SOL     OW 9231   3.807   3.120   2.884
 3073SOL    HW1 9232   3.802   3.119   2.984
 3073SOL    HW2 9233   3.724   3.079   2.846
 3074SOL     OW 9234   4.412   3.524   3.578
 3074SOL    HW1 9235   4.356   3.605   3.587
 3074SOL    HW2 9236   4.464   3.528   3.492
 3075SOL     OW 9237   4.627   1.948   1.995
 3075SOL    HW1 9238   4.678   1.949   1.909
 3075SOL    HW2 9239   4.683   1.906   2.066
 3076SOL     OW 9240   3.854   3.656   3.713
 3076SOL    HW1 9241   3.813   3.582   3.766
 3076SOL    HW2 9242   3.918   3.707   3.771
 3077SOL     OW 9243   4.554   3.135   3.284
 3077SOL    HW1 9244   4.549   3.168   3.379
 3077SOL    HW2 9245   4.468   3.154   3.238
 3078SOL     OW 9246   4.396   3.478   2.016
 3078SOL    HW1 9247   4.405   3.488   1.917
 3078SOL    HW2 9248   4.356   3.389   2.037
 3079SOL     OW 9249   3.987   2.188   2.582
 3079SOL    HW1 9250   3.908   2.239   2.548
 3079SOL    HW2 9251   3.978   2.173   2.680
 3080SOL     OW 9252   4.546   2.864   3.234
 3080SOL    HW1 9253   4.586   2.863   3.142
 3080SOL    HW2 9254   4.556   2.956   3.274
 3081SOL     OW 9255   4.096   3.150   3.352
 3081SOL    HW1 9256   4.083   3.243   3.318
 3081SOL    HW2 9257   4.012   3.098   3.339
 3082SOL     OW 9258   4.314   3.349   2.353
 3082SOL    HW1 9259   4.356   3.291   2.283
 3082SOL    HW2 9260   4.270   3.428   2.309
 3083SOL     OW 9261   3.979   3.210   2.152
 3083SOL    HW1 9262   3.883   3.211   2.125
 3083SOL    HW2 9263   3.991   3.263   2.236
 3084SOL     OW 9264   3.829   2.875   3.588
 3084SOL    HW1 9265   3.752   2.842   3.642
 3084SOL    HW2 9266   3.914   2.845   3.630
 3085SOL     OW 9267   4.396   2.065   3.351
 3085SOL    HW1 9268   4.486   2.049   3.311
 3085SOL    HW2 9269   4.404   2.070   3.450
 3086SOL     OW 9270   3.799   2.207   1.895
 3086SOL    HW1 9271   3.707   2.179   1.866
 3086SOL    HW2 9272   3.830   2.284   1.839
 3087SOL     OW 9273   3.796   2.028   2.180
 3087SOL    HW1 9274   3.779   2.111   2.126
 3087SOL    HW2 9275   3.886   1.991   2.158
 3088SOL     OW 9276   4.337   2.704   3.293
 3088SOL    HW1 9277   4.393   2.785   3.276
 3088SOL    HW2 9278   4.396   2.624   3.296
 3089SOL     OW 9279   4.440   2.427   3.570
 3089SOL    HW1 9280   4.459   2.492   3.644
 3089SOL    HW2 9281   4.500   2.347   3.579
 3090SOL     OW 9282   4.114   3.603   3.422
 3090SOL    HW1 9283   4.023   3.644   3.420
 3090SOL    HW2 9284   4.107   3.509   3.454
 3091SOL     OW 9285   4.318   2.607   2.514
 3091SOL    HW1 9286   4.368   2.692   2.495
 3091SOL    HW2 9287   4.230   2.609   2.466
 3092SOL     OW 9288   4.385   3.652   2.815
 3092SOL    HW1 9289   4.339   3.740   2.802
 3092SOL    HW2 9290   4.484   3.664   2.808
 3093SOL     OW 9291   3.945   3.176   3.706
 3093SOL    HW1 9292   3.880   3.103   3.685
 3093SOL    HW2 9293   3.949   3.190   3.804
 3094SOL     OW 9294   3.803   3.102   2.515
 3094SOL    HW1 9295   3.802   3.055   2.603
 3094SOL    HW2 9296   3.885   3.074   2.464
 3095SOL     OW 9297   4.396   3.253   3.486
 3095SOL    HW1 9298   4.318   3.203   3.524
 3095SOL    HW2 9299   4.393   3.348   3.517
 3096SOL     OW 9300   4.152   2.286   2.382
 3096SOL    HW1 9301   4.182   2.214   2.320
 3096SOL    HW2 9302   4.113   2.246   2.465
 3097SOL     OW 9303   4.041   2.409   3.142
 3097SOL    HW1 9304   4.079   2.350   3.214
 3097SOL    HW2 9305   4.081   2.383   3.054
 3098SOL     OW 9306   4.536   3.448   2.549
 3098SOL    HW1 9307   4.568   3.458   2.455
 3098SOL    HW2 9308   4.457   3.386   2.551
 3099SOL     OW 9309   4.725   1.896   3.016
 3099SOL    HW1 9310   4.662   1.824   2.985
 3099SOL    HW2 9311   4.818   1.860   3.016
 3100SOL     OW 9312   4.494   3.192   2.163
 3100SOL    HW1 9313   4.448   3.105   2.180
 3100SOL    HW2 9314   4.585   3.189   2.204
 3101SOL     OW 9315   4.342   3.429   3.146
 3101SOL    HW1 9316   4.337   3.511   3.203
 3101SOL    HW2 9317   4.431   3.426   3.101
 3102SOL     OW 9318   3.763   2.939   2.162
 3102SOL    HW1 9319   3.862   2.928   2.153
 3102SOL    HW2 9320   3.723   2.853   2.194
 3103SOL     OW 9321   4.599   3.508   2.199
 3103SOL    HW1 9322   4.522   3.473   2.145
 3103SOL    HW2 9323   4.567   3.579   2.261
 3104SOL     OW 9324   3.954   2.490   3.837
 3104SOL    HW1 9325   3.861   2.488   3.874
 3104SOL    HW2 9326   3.955   2.451   3.745
 3105SOL     OW 9327   3.949   2.137   4.720
 3105SOL    HW1 9328   3.984   2.120   4.812
 3105SOL    HW2 9329   3.861   2.092   4.708
 3106SOL     OW 9330   3.743   2.230   4.371
 3106SOL    HW1 9331   3.661   2.273   4.410
 3106SOL    HW2 9332   3.715   2.157   4.308
 3107SOL     OW 9333   4.492   3.006   4.747
 3107SOL    HW1 9334   4.414   3.023   4.807
 3107SOL    HW2 9335   4.526   3.093   4.711
 3108SOL     OW 9336   4.409   2.874   4.389
 3108SOL    HW1 9337   4.478   2.858   4.459
 3108SOL    HW2 9338   4.336   2.931   4.427
 3109SOL     OW 9339   3.955   3.575   4.207
 3109SOL    HW1 9340   3.989   3.652   4.261
 3109SOL    HW2 9341   3.999   3.575   4.117
 3110SOL     OW 9342   3.954   3.296   4.262
 3110SOL    HW1 9343   3.928   3.392   4.262
 3110SOL    HW2 9344   3.883   3.242   4.307
 3111SOL     OW 9345   3.964   2.953   4.610
 3111SOL    HW1 9346   3.978   2.869   4.662
 3111SOL    HW2 9347   3.909   3.017   4.665
 3112SOL     OW 9348   4.330   2.826   3.847
 3112SOL    HW1 9349   4.337   2.910   3.793
 3112SOL    HW2 9350   4.376   2.839   3.935
 3113SOL     OW 9351   3.846   2.505   4.287
 3113SOL    HW1 9352   3.801   2.417   4.304
 3113SOL    HW2 9353   3.845   2.559   4.371
 3114SOL     OW 9354   3.751   3.458   3.841
 3114SOL    HW1 9355   3.732   3.362   3.862
 3114SOL    HW2 9356   3.718   3.516   3.916
 3115SOL     OW 9357   4.337   3.227   4.450
 3115SOL    HW1 9358   4.288   3.140   4.459
 3115SOL    HW2 9359   4.314   3.270   4.363
 3116SOL     OW 9360   4.533   1.866   4.226
 3116SOL    HW1 9361   4.573   1.957   4.217
 3116SOL    HW2 9362   4.433   1.874   4.232
 3117SOL     OW 9363   4.322   2.591   3.994
 3117SOL    HW1 9364   4.346   2.660   3.926
 3117SOL    HW2 9365   4.244   2.624   4.048
 3118SOL     OW 9366   3.800   2.673   4.513
 3118SOL    HW1 9367   3.899   2.661   4.522
 3118SOL    HW2 9368   3.776   2.768   4.534
 3119SOL     OW 9369   4.589   2.210   3.919
 3119SOL    HW1 9370   4.648   2.273   3.870
 3119SOL    HW2 9371   4.608   2.116   3.890
 3120SOL     OW 9372   4.274   2.058   4.609
 3120SOL    HW1 9373   4.269   2.053   4.709
 3120SOL    HW2 9374   4.276   2.154   4.580
 3121SOL     OW 9375   4.732   3.318   4.201
 3121SOL    HW1 9376   4.686   3.390   4.149
 3121SOL    HW2 9377   4.728   3.338   4.299
 3122SOL     OW 9378   4.075   3.663   4.577
 3122SOL    HW1 9379   4.125   3.577   4.583
 3122SOL    HW2 9380   4.140   3.740   4.574
 3123SOL     OW 9381   4.045   2.805   3.966
 3123SOL    HW1 9382   4.127   2.844   3.924
 3123SOL    HW2 9383   4.018   2.723   3.917
 3124SOL     OW 9384   4.835   3.638   3.961
 3124SOL    HW1 9385   4.775   3.576   4.011
 3124SOL    HW2 9386   4.866   3.594   3.876
 3125SOL     OW 9387   4.188   3.605   4.047
 3125SOL    HW1 9388   4.221   3.644   4.133
 3125SOL    HW2 9389   4.264   3.598   3.982
 3126SOL     OW 9390   4.106   2.562   4.204
 3126SOL    HW1 9391   4.151   2.472   4.201
 3126SOL    HW2 9392   4.012   2.551   4.237
 3127SOL     OW 9393   4.338   1.984   3.841
 3127SOL    HW1 9394   4.436   1.962   3.848
 3127SOL    HW2 9395   4.307   1.967   3.748
 3128SOL     OW 9396   4.527   3.264   4.648
 3128SOL    HW1 9397   4.617   3.278   4.606
 3128SOL    HW2 9398   4.456   3.266   4.577
 3129SOL     OW 9399   4.263   1.926   4.236
 3129SOL    HW1 9400   4.182   1.927   4.294
 3129SOL    HW2 9401   4.266   2.009   4.181
 3130SOL     OW 9402   4.021   1.897   3.895
 3130SOL    HW1 9403   4.070   1.981   3.874
 3130SOL    HW2 9404   4.083   1.832   3.940
 3131SOL     OW 9405   4.183   3.014   4.465
 3131SOL    HW1 9406   4.112   2.987   4.530
 3131SOL    HW2 9407   4.157   2.986   4.372
 3132SOL     OW 9408   4.212   3.247   3.898
 3132SOL    HW1 9409   4.125   3.232   3.945
 3132SOL    HW2 9410   4.195   3.273   3.803
 3133SOL     OW 9411   4.251   2.118   4.052
 3133SOL    HW1 9412   4.278   2.059   3.977
 3133SOL    HW2 9413   4.251   2.213   4.021
 3134SOL     OW 9414   4.429   2.912   4.092
 3134SOL    HW1 9415   4.415   2.919   4.191
 3134SOL    HW2 9416   4.513   2.861   4.074
 3135SOL     OW 9417   4.091   2.962   4.225
 3135SOL    HW1 9418   4.084   3.045   4.169
 3135SOL    HW2 9419   4.095   2.882   4.165
 3136SOL     OW 9420   4.290   2.399   4.589
 3136SOL    HW1 9421   4.302   2.465   4.515
 3136SOL    HW2 9422   4.336   2.433   4.672
 3137SOL     OW 9423   4.456   2.496   4.788
 3137SOL    HW1 9424   4.515   2.470   4.712
 3137SOL    HW2 9425   4.428   2.592   4.777
 3138SOL     OW 9426   4.031   1.925   4.342
 3138SOL    HW1 9427   4.020   2.019   4.375
 3138SOL    HW2 9428   4.026   1.862   4.419
 3139SOL     OW 9429   4.747   2.628   4.690
 3139SOL    HW1 9430   4.762   2.649   4.786
 3139SOL    HW2 9431   4.717   2.533   4.681
 3140SOL     OW 9432   3.732   3.188   3.924
 3140SOL    HW1 9433   3.639   3.209   3.893
 3140SOL    HW2 9434   3.742   3.089   3.937
 3141SOL     OW 9435   3.812   3.663   4.651
 3141SOL    HW1 9436   3.770   3.577   4.624
 3141SOL    HW2 9437   3.906   3.666   4.617
 3142SOL     OW 9438   4.228   3.430   4.634
 3142SOL    HW1 9439   4.294   3.504   4.643
 3142SOL    HW2 9440   4.272   3.351   4.592
 3143SOL     OW 9441   4.539   2.434   4.049
 3143SOL    HW1 9442   4.546   2.345   4.003
 3143SOL    HW2 9443   4.445   2.468   4.041
 3144SOL     OW 9444   4.197   2.362   3.915
 3144SOL    HW1 9445   4.258   2.442   3.919
 3144SOL    HW2 9446   4.102   2.393   3.922
 3145SOL     OW 9447   4.627   1.948   3.857
 3145SOL    HW1 9448   4.678   1.949   3.771
 3145SOL    HW2 9449   4.683   1.906   3.928
 3146SOL     OW 9450   4.396   3.478   3.878
 3146SOL    HW1 9451   4.405   3.488   3.779
 3146SOL    HW2 9452   4.356   3.389   3.899
 3147SOL     OW 9453   3.987   2.188   4.444
 3147SOL    HW1 9454   3.908   2.239   4.410
 3147SOL    HW2 9455   3.978   2.173   4.542
 3148SOL     OW 9456   4.314   3.349   4.215
 3148SOL    HW1 9457   4.356   3.291   4.145
 3148SOL    HW2 9458   4.270   3.428   4.171
 3149SOL     OW 9459   3.979   3.210   4.014
 3149SOL    HW1 9460   3.883   3.211   3.987
 3149SOL    HW2 9461   3.991   3.263   4.098
 3150SOL     OW 9462   3.799   2.207   3.757
 3150SOL    HW1 9463   3.707   2.179   3.728
 3150SOL    HW2 9464   3.830   2.284   3.701
 3151SOL     OW 9465   3.796   2.028   4.042
 3151SOL    HW1 9466   3.779   2.111   3.988
 3151SOL    HW2 9467   3.886   1.991   4.020
 3152SOL     OW 9468   4.318   2.607   4.376
 3152SOL    HW1 9469   4.368   2.692   4.357
 3152SOL    HW2 9470   4.230   2.609   4.328
 3153SOL     OW 9471   4.385   3.652   4.677
 3153SOL    HW1 9472   4.339   3.740   4.664
 3153SOL    HW2 9473   4.484   3.664   4.670
 3154SOL     OW 9474   3.803   3.102   4.377
 3154SOL    HW1 9475   3.802   3.055   4.465
 3154SOL    HW2 9476   3.885   3.074   4.326
 3155SOL     OW 9477   4.152   2.286   4.244
 3155SOL    HW1 9478   4.182   2.214   4.182
 3155SOL    HW2 9479   4.113   2.246   4.327
 3156SOL     OW 9480   4.536   3.448   4.411
 3156SOL    HW1 9481   4.568   3.458   4.317
 3156SOL    HW2 9482   4.457   3.386   4.413
 3157SOL     OW 9483   4.494   3.192   4.025
 3157SOL    HW1 9484   4.448   3.105   4.042
 3157SOL    HW2 9485   4.585   3.189   4.066
 3158SOL     OW 9486   3.763   2.939   4.024
 3158SOL    HW1 9487   3.862   2.928   4.015
 3158SOL    HW2 9488   3.723   2.853   4.056
 3159SOL     OW 9489   4.599   3.508   4.061
 3159SOL    HW1 9490   4.522   3.473   4.007
 3159SOL    HW2 9491   4.567   3.579   4.123
 3160SOL     OW 9492   3.954   4.352   0.113
 3160SOL    HW1 9493   3.861   4.350   0.150
 3160SOL    HW2 9494   3.955   4.313   0.021
 3161SOL     OW 9495   3.949   3.999   0.996
 3161SOL    HW1 9496   3.984   3.982   1.088
 3161SOL    HW2 9497   3.861   3.954   0.984
 3162SOL     OW 9498   3.743   4.092   0.647
 3162SOL    HW1 9499   3.661   4.135   0.686
 3162SOL    HW2 9500   3.715   4.019   0.584
 3163SOL     OW 9501   4.574   4.522   1.823
 3163SOL    HW1 9502   4.570   4.598   1.888
 3163SOL    HW2 9503   4.596   4.558   1.732
 3164SOL     OW 9504   4.409   4.736   0.665
 3164SOL    HW1 9505   4.478   4.720   0.735
 3164SOL    HW2 9506   4.336   4.793   0.703
 3165SOL     OW 9507   4.162   4.116   1.499
 3165SOL    HW1 9508   4.244   4.060   1.508
 3165SOL    HW2 9509   4.081   4.058   1.503
 3166SOL     OW 9510   3.846   4.367   0.563
 3166SOL    HW1 9511   3.801   4.279   0.580
 3166SOL    HW2 9512   3.845   4.421   0.647
 3167SOL     OW 9513   3.837   4.461   1.597
 3167SOL    HW1 9514   3.925   4.448   1.642
 3167SOL    HW2 9515   3.824   4.558   1.575
 3168SOL     OW 9516   4.533   3.728   0.502
 3168SOL    HW1 9517   4.573   3.819   0.493
 3168SOL    HW2 9518   4.433   3.736   0.508
 3169SOL     OW 9519   4.041   3.975   1.801
 3169SOL    HW1 9520   4.112   4.046   1.807
 3169SOL    HW2 9521   3.953   4.014   1.829
 3170SOL     OW 9522   4.322   4.453   0.270
 3170SOL    HW1 9523   4.346   4.522   0.202
 3170SOL    HW2 9524   4.244   4.486   0.324
 3171SOL     OW 9525   4.531   4.329   1.465
 3171SOL    HW1 9526   4.484   4.326   1.554
 3171SOL    HW2 9527   4.480   4.274   1.399
 3172SOL     OW 9528   3.800   4.535   0.789
 3172SOL    HW1 9529   3.899   4.523   0.798
 3172SOL    HW2 9530   3.776   4.630   0.810
 3173SOL     OW 9531   4.589   4.072   0.195
 3173SOL    HW1 9532   4.648   4.135   0.146
 3173SOL    HW2 9533   4.608   3.978   0.166
 3174SOL     OW 9534   4.274   3.920   0.885
 3174SOL    HW1 9535   4.269   3.915   0.985
 3174SOL    HW2 9536   4.276   4.016   0.856
 3175SOL     OW 9537   3.926   4.009   1.498
 3175SOL    HW1 9538   3.846   4.069   1.485
 3175SOL    HW2 9539   3.916   3.960   1.584
 3176SOL     OW 9540   4.106   4.424   0.480
 3176SOL    HW1 9541   4.151   4.334   0.477
 3176SOL    HW2 9542   4.012   4.413   0.513
 3177SOL     OW 9543   4.505   3.988   1.749
 3177SOL    HW1 9544   4.572   3.927   1.792
 3177SOL    HW2 9545   4.432   4.007   1.814
 3178SOL     OW 9546   4.646   4.227   0.899
 3178SOL    HW1 9547   4.621   4.218   0.803
 3178SOL    HW2 9548   4.694   4.145   0.930
 3179SOL     OW 9549   4.263   3.788   0.512
 3179SOL    HW1 9550   4.182   3.789   0.570
 3179SOL    HW2 9551   4.266   3.871   0.457
 3180SOL     OW 9552   4.021   3.759   0.171
 3180SOL    HW1 9553   4.070   3.843   0.150
 3180SOL    HW2 9554   4.083   3.694   0.216
 3181SOL     OW 9555   3.802   4.280   1.386
 3181SOL    HW1 9556   3.894   4.279   1.345
 3181SOL    HW2 9557   3.796   4.354   1.453
 3182SOL     OW 9558   4.285   3.946   1.147
 3182SOL    HW1 9559   4.323   3.862   1.184
 3182SOL    HW2 9560   4.197   3.965   1.191
 3183SOL     OW 9561   4.251   3.980   0.328
 3183SOL    HW1 9562   4.278   3.921   0.253
 3183SOL    HW2 9563   4.251   4.075   0.297
 3184SOL     OW 9564   4.639   3.813   1.402
 3184SOL    HW1 9565   4.664   3.793   1.307
 3184SOL    HW2 9566   4.711   3.869   1.444
 3185SOL     OW 9567   4.134   4.537   1.251
 3185SOL    HW1 9568   4.220   4.549   1.301
 3185SOL    HW2 9569   4.092   4.450   1.278
 3186SOL     OW 9570   4.290   4.261   0.865
 3186SOL    HW1 9571   4.302   4.327   0.791
 3186SOL    HW2 9572   4.336   4.295   0.948
 3187SOL     OW 9573   4.126   4.475   1.598
 3187SOL    HW1 9574   4.194   4.530   1.551
 3187SOL    HW2 9575   4.166   4.387   1.625
 3188SOL     OW 9576   4.228   3.774   1.740
 3188SOL    HW1 9577   4.186   3.717   1.670
 3188SOL    HW2 9578   4.162   3.843   1.772
 3189SOL     OW 9579   4.297   4.594   1.029
 3189SOL    HW1 9580   4.341   4.683   1.020
 3189SOL    HW2 9581   4.234   4.594   1.106
 3190SOL     OW 9582   4.031   3.937   1.231
 3190SOL    HW1 9583   4.008   3.974   1.321
 3190SOL    HW2 9584   4.001   3.842   1.225
 3191SOL     OW 9585   4.456   4.358   1.064
 3191SOL    HW1 9586   4.515   4.332   0.988
 3191SOL    HW2 9587   4.428   4.454   1.053
 3192SOL     OW 9588   4.031   3.787   0.618
 3192SOL    HW1 9589   4.020   3.881   0.651
 3192SOL    HW2 9590   4.026   3.724   0.695
 3193SOL     OW 9591   4.747   4.490   0.966
 3193SOL    HW1 9592   4.762   4.511   1.062
 3193SOL    HW2 9593   4.717   4.395   0.957
 3194SOL     OW 9594   4.043   4.534   0.949
 3194SOL    HW1 9595   4.136   4.570   0.954
 3194SOL    HW2 9596   4.037   4.449   1.001
 3195SOL     OW 9597   4.063   4.233   1.006
 3195SOL    HW1 9598   4.011   4.150   0.989
 3195SOL    HW2 9599   4.140   4.238   0.942
 3196SOL     OW 9600   4.726   4.520   1.238
 3196SOL    HW1 9601   4.767   4.488   1.324
 3196SOL    HW2 9602   4.630   4.493   1.235
 3197SOL     OW 9603   3.764   4.268   1.114
 3197SOL    HW1 9604   3.849   4.235   1.073
 3197SOL    HW2 9605   3.777   4.283   1.212
 3198SOL     OW 9606   3.913   4.244   1.722
 3198SOL    HW1 9607   3.972   4.204   1.652
 3198SOL    HW2 9608   3.855   4.315   1.681
 3199SOL     OW 9609   4.539   4.296   0.325
 3199SOL    HW1 9610   4.546   4.207   0.279
 3199SOL    HW2 9611   4.445   4.330   0.317
 3200SOL     OW 9612   4.395   4.188   1.269
 3200SOL    HW1 9613   4.361   4.099   1.239
 3200SOL    HW2 9614   4.421   4.242   1.189
 3201SOL     OW 9615   4.197   4.224   0.191
 3201SOL    HW1 9616   4.258   4.304   0.195
 3201SOL    HW2 9617   4.102   4.255   0.198
 3202SOL     OW 9618   4.627   3.810   0.133
 3202SOL    HW1 9619   4.678   3.811   0.047
 3202SOL    HW2 9620   4.683   3.768   0.204
 3203SOL     OW 9621   3.987   4.050   0.720
 3203SOL    HW1 9622   3.908   4.101   0.686
 3203SOL    HW2 9623   3.978   4.035   0.818
 3204SOL     OW 9624   4.763   4.822   0.696
 3204SOL    HW1 9625   4.693   4.775   0.750
 3204SOL    HW2 9626   4.822   4.754   0.653
 3205SOL     OW 9627   3.829   4.737   1.726
 3205SOL    HW1 9628   3.752   4.704   1.780
 3205SOL    HW2 9629   3.914   4.707   1.768
 3206SOL     OW 9630   4.396   3.927   1.489
 3206SOL    HW1 9631   4.486   3.911   1.449
 3206SOL    HW2 9632   4.404   3.932   1.588
 3207SOL     OW 9633   3.796   3.890   0.318
 3207SOL    HW1 9634   3.779   3.973   0.264
 3207SOL    HW2 9635   3.886   3.853   0.296
 3208SOL     OW 9636   4.337   4.566   1.431
 3208SOL    HW1 9637   4.393   4.647   1.414
 3208SOL    HW2 9638   4.396   4.486   1.434
 3209SOL     OW 9639   4.440   4.289   1.708
 3209SOL    HW1 9640   4.459   4.354   1.782
 3209SOL    HW2 9641   4.500   4.209   1.717
 3210SOL     OW 9642   4.318   4.469   0.652
 3210SOL    HW1 9643   4.368   4.554   0.633
 3210SOL    HW2 9644   4.230   4.471   0.604
 3211SOL     OW 9645   4.152   4.148   0.520
 3211SOL    HW1 9646   4.182   4.076   0.458
 3211SOL    HW2 9647   4.113   4.108   0.603
 3212SOL     OW 9648   4.041   4.271   1.280
 3212SOL    HW1 9649   4.079   4.212   1.352
 3212SOL    HW2 9650   4.081   4.245   1.192
 3213SOL     OW 9651   4.725   3.758   1.154
 3213SOL    HW1 9652   4.662   3.686   1.123
 3213SOL    HW2 9653   4.818   3.722   1.154
 3214SOL     OW 9654   3.954   4.352   1.975
 3214SOL    HW1 9655   3.861   4.350   2.012
 3214SOL    HW2 9656   3.955   4.313   1.883
 3215SOL     OW 9657   3.949   3.999   2.858
 3215SOL    HW1 9658   3.984   3.982   2.950
 3215SOL    HW2 9659   3.861   3.954   2.846
 3216SOL     OW 9660   3.743   4.092   2.509
 3216SOL    HW1 9661   3.661   4.135   2.548
 3216SOL    HW2 9662   3.715   4.019   2.446
 3217SOL     OW 9663   4.574   4.522   3.685
 3217SOL    HW1 9664   4.570   4.598   3.750
 3217SOL    HW2 9665   4.596   4.558   3.594
 3218SOL     OW 9666   4.409   4.736   2.527
 3218SOL    HW1 9667   4.478   4.720   2.597
 3218SOL    HW2 9668   4.336   4.793   2.565
 3219SOL     OW 9669   4.162   4.116   3.361
 3219SOL    HW1 9670   4.244   4.060   3.370
 3219SOL    HW2 9671   4.081   4.058   3.365
 3220SOL     OW 9672   3.846   4.367   2.425
 3220SOL    HW1 9673   3.801   4.279   2.442
 3220SOL    HW2 9674   3.845   4.421   2.509
 3221SOL     OW 9675   3.837   4.461   3.459
 3221SOL    HW1 9676   3.925   4.448   3.504
 3221SOL    HW2 9677   3.824   4.558   3.437
 3222SOL     OW 9678   4.533   3.728   2.364
 3222SOL    HW1 9679   4.573   3.819   2.355
 3222SOL    HW2 9680   4.433   3.736   2.370
 3223SOL     OW 9681   4.041   3.975   3.663
 3223SOL    HW1 9682   4.112   4.046   3.669
 3223SOL    HW2 9683   3.953   4.014   3.691
 3224SOL     OW 9684   4.322   4.453   2.132
 3224SOL    HW1 9685   4.346   4.522   2.064
 3224SOL    HW2 9686   4.244   4.486   2.186
 3225SOL     OW 9687   4.531   4.329   3.327
 3225SOL    HW1 9688   4.484   4.326   3.416
 3225SOL    HW2 9689   4.480   4.274   3.261
 3226SOL     OW 9690   3.800   4.535   2.651
 3226SOL    HW1 9691   3.899   4.523   2.660
 3226SOL    HW2 9692   3.776   4.630   2.672
 3227SOL     OW 9693   4.589   4.072   2.057
 3227SOL    HW1 9694   4.648   4.135   2.008
 3227SOL    HW2 9695   4.608   3.978   2.028
 3228SOL     OW 9696   4.274   3.920   2.747
 3228SOL    HW1 9697   4.269   3.915   2.847
 3228SOL    HW2 9698   4.276   4.016   2.718
 3229SOL     OW 9699   3.926   4.009   3.360
 3229SOL    HW1 9700   3.846   4.069   3.347
 3229SOL    HW2 9701   3.916   3.960   3.446
 3230SOL     OW 9702   4.106   4.424   2.342
 3230SOL    HW1 9703   4.151   4.334   2.339
 3230SOL    HW2 9704   4.012   4.413   2.375
 3231SOL     OW 9705   4.338   3.846   1.979
 3231SOL    HW1 9706   4.436   3.824   1.986
 3231SOL    HW2 9707   4.307   3.829   1.886
 3232SOL     OW 9708   4.505   3.988   3.611
 3232SOL    HW1 9709   4.572   3.927   3.654
 3232SOL    HW2 9710   4.432   4.007   3.676
 3233SOL     OW 9711   4.646   4.227   2.761
 3233SOL    HW1 9712   4.621   4.218   2.665
 3233SOL    HW2 9713   4.694   4.145   2.792
 3234SOL     OW 9714   4.263   3.788   2.374
 3234SOL    HW1 9715   4.182   3.789   2.432
 3234SOL    HW2 9716   4.266   3.871   2.319
 3235SOL     OW 9717   4.021   3.759   2.033
 3235SOL    HW1 9718   4.070   3.843   2.012
 3235SOL    HW2 9719   4.083   3.694   2.078
 3236SOL     OW 9720   3.802   4.280   3.248
 3236SOL    HW1 9721   3.894   4.279   3.207
 3236SOL    HW2 9722   3.796   4.354   3.315
 3237SOL     OW 9723   4.285   3.946   3.009
 3237SOL    HW1 9724   4.323   3.862   3.046
 3237SOL    HW2 9725   4.197   3.965   3.053
 3238SOL     OW 9726   4.251   3.980   2.190
 3238SOL    HW1 9727   4.278   3.921   2.115
 3238SOL    HW2 9728   4.251   4.075   2.159
 3239SOL     OW 9729   4.639   3.813   3.264
 3239SOL    HW1 9730   4.664   3.793   3.169
 3239SOL    HW2 9731   4.711   3.869   3.306
 3240SOL     OW 9732   4.134   4.537   3.113
 3240SOL    HW1 9733   4.220   4.549   3.163
 3240SOL    HW2 9734   4.092   4.450   3.140
 3241SOL     OW 9735   4.290   4.261   2.727
 3241SOL    HW1 9736   4.302   4.327   2.653
 3241SOL    HW2 9737   4.336   4.295   2.810
 3242SOL     OW 9738   4.126   4.475   3.460
 3242SOL    HW1 9739   4.194   4.530   3.413
 3242SOL    HW2 9740   4.166   4.387   3.487
 3243SOL     OW 9741   4.228   3.774   3.602
 3243SOL    HW1 9742   4.186   3.717   3.532
 3243SOL    HW2 9743   4.162   3.843   3.634
 3244SOL     OW 9744   4.297   4.594   2.891
 3244SOL    HW1 9745   4.341   4.683   2.882
 3244SOL    HW2 9746   4.234   4.594   2.968
 3245SOL     OW 9747   4.031   3.937   3.093
 3245SOL    HW1 9748   4.008   3.974   3.183
 3245SOL    HW2 9749   4.001   3.842   3.087
 3246SOL     OW 9750   4.456   4.358   2.926
 3246SOL    HW1 9751   4.515   4.332   2.850
 3246SOL    HW2 9752   4.428   4.454   2.915
 3247SOL     OW 9753   4.031   3.787   2.480
 3247SOL    HW1 9754   4.020   3.881   2.513
 3247SOL    HW2 9755   4.026   3.724   2.557
 3248SOL     OW 9756   4.747   4.490   2.828
 3248SOL    HW1 9757   4.762   4.511   2.924
 3248SOL    HW2 9758   4.717   4.395   2.819
 3249SOL     OW 9759   4.043   4.534   2.811
 3249SOL    HW1 9760   4.136   4.570   2.816
 3249SOL    HW2 9761   4.037   4.449   2.863
 3250SOL     OW 9762   4.063   4.233   2.868
 3250SOL    HW1 9763   4.011   4.150   2.851
 3250SOL    HW2 9764   4.140   4.238   2.804
 3251SOL     OW 9765   4.726   4.520   3.100
 3251SOL    HW1 9766   4.767   4.488   3.186
 3251SOL    HW2 9767   4.630   4.493   3.097
 3252SOL     OW 9768   3.764   4.268   2.976
 3252SOL    HW1 9769   3.849   4.235   2.935
 3252SOL    HW2 9770   3.777   4.283   3.074
 3253SOL     OW 9771   3.913   4.244   3.584
 3253SOL    HW1 9772   3.972   4.204   3.514
 3253SOL    HW2 9773   3.855   4.315   3.543
 3254SOL     OW 9774   4.539   4.296   2.187
 3254SOL    HW1 9775   4.546   4.207   2.141
 3254SOL    HW2 9776   4.445   4.330   2.179
 3255SOL     OW 9777   4.395   4.188   3.131
 3255SOL    HW1 9778   4.361   4.099   3.101
 3255SOL    HW2 9779   4.421   4.242   3.051
 3256SOL     OW 9780   4.197   4.224   2.053
 3256SOL    HW1 9781   4.258   4.304   2.057
 3256SOL    HW2 9782   4.102   4.255   2.060
 3257SOL     OW 9783   4.627   3.810   1.995
 3257SOL    HW1 9784   4.678   3.811   1.909
 3257SOL    HW2 9785   4.683   3.768   2.066
 3258SOL     OW 9786   3.987   4.050   2.582
 3258SOL    HW1 9787   3.908   4.101   2.548
 3258SOL    HW2 9788   3.978   4.035   2.680
 3259SOL     OW 9789   4.763   4.822   2.558
 3259SOL    HW1 9790   4.693   4.775   2.612
 3259SOL    HW2 9791   4.822   4.754   2.515
 3260SOL     OW 9792   3.829   4.737   3.588
 3260SOL    HW1 9793   3.752   4.704   3.642
 3260SOL    HW2 9794   3.914   4.707   3.630
 3261SOL     OW 9795   4.396   3.927   3.351
 3261SOL    HW1 9796   4.486   3.911   3.311
 3261SOL    HW2 9797   4.404   3.932   3.450
 3262SOL     OW 9798   3.799   4.069   1.895
 3262SOL    HW1 9799   3.707   4.041   1.866
 3262SOL    HW2 9800   3.830   4.146   1.839
 3263SOL     OW 9801   3.796   3.890   2.180
 3263SOL    HW1 9802   3.779   3.973   2.126
 3263SOL    HW2 9803   3.886   3.853   2.158
 3264SOL     OW 9804   4.337   4.566   3.293
 3264SOL    HW1 9805   4.393   4.647   3.276
 3264SOL    HW2 9806   4.396   4.486   3.296
 3265SOL     OW 9807   4.440   4.289   3.570
 3265SOL    HW1 9808   4.459   4.354   3.644
 3265SOL    HW2 9809   4.500   4.209   3.579
 3266SOL     OW 9810   4.318   4.469   2.514
 3266SOL    HW1 9811   4.368   4.554   2.495
 3266SOL    HW2 9812   4.230   4.471   2.466
 3267SOL     OW 9813   4.152   4.148   2.382
 3267SOL    HW1 9814   4.182   4.076   2.320
 3267SOL    HW2 9815   4.113   4.108   2.465
 3268SOL     OW 9816   4.041   4.271   3.142
 3268SOL    HW1 9817   4.079   4.212   3.214
 3268SOL    HW2 9818   4.081   4.245   3.054
 3269SOL     OW 9819   4.725   3.758   3.016
 3269SOL    HW1 9820   4.662   3.686   2.985
 3269SOL    HW2 9821   4.818   3.722   3.016
 3270SOL     OW 9822   3.954   4.352   3.837
 3270SOL    HW1 9823   3.861   4.350   3.874
 3270SOL    HW2 9824   3.955   4.313   3.745
 3271SOL     OW 9825   3.949   3.999   4.720
 3271SOL    HW1 9826   3.984   3.982   4.812
 3271SOL    HW2 9827   3.861   3.954   4.708
 3272SOL     OW 9828   3.743   4.092   4.371
 3272SOL    HW1 9829   3.661   4.135   4.410
 3272SOL    HW2 9830   3.715   4.019   4.308
 3273SOL     OW 9831   4.409   4.736   4.389
 3273SOL    HW1 9832   4.478   4.720   4.459
 3273SOL    HW2 9833   4.336   4.793   4.427
 3274SOL     OW 9834   3.846   4.367   4.287
 3274SOL    HW1 9835   3.801   4.279   4.304
 3274SOL    HW2 9836   3.845   4.421   4.371
 3275SOL     OW 9837   4.533   3.728   4.226
 3275SOL    HW1 9838   4.573   3.819   4.217
 3275SOL    HW2 9839   4.433   3.736   4.232
 3276SOL     OW 9840   4.322   4.453   3.994
 3276SOL    HW1 9841   4.346   4.522   3.926
 3276SOL    HW2 9842   4.244   4.486   4.048
 3277SOL     OW 9843   3.800   4.535   4.513
 3277SOL    HW1 9844   3.899   4.523   4.522
 3277SOL    HW2 9845   3.776   4.630   4.534
 3278SOL     OW 9846   4.589   4.072   3.919
 3278SOL    HW1 9847   4.648   4.135   3.870
 3278SOL    HW2 9848   4.608   3.978   3.890
 3279SOL     OW 9849   4.274   3.920   4.609
 3279SOL    HW1 9850   4.269   3.915   4.709
 3279SOL    HW2 9851   4.276   4.016   4.580
 3280SOL     OW 9852   4.106   4.424   4.204
 3280SOL    HW1 9853   4.151   4.334   4.201
 3280SOL    HW2 9854   4.012   4.413   4.237
 3281SOL     OW 9855   4.338   3.846   3.841
 3281SOL    HW1 9856   4.436   3.824   3.848
 3281SOL    HW2 9857   4.307   3.829   3.748
 3282SOL     OW 9858   4.263   3.788   4.236
 3282SOL    HW1 9859   4.182   3.789   4.294
 3282SOL    HW2 9860   4.266   3.871   4.181
 3283SOL     OW 9861   4.021   3.759   3.895
 3283SOL    HW1 9862   4.070   3.843   3.874
 3283SOL    HW2 9863   4.083   3.694   3.940
 3284SOL     OW 9864   4.251   3.980   4.052
 3284SOL    HW1 9865   4.278   3.921   3.977
 3284SOL    HW2 9866   4.251   4.075   4.021
 3285SOL     OW 9867   4.290   4.261   4.589
 3285SOL    HW1 9868   4.302   4.327   4.515
 3285SOL    HW2 9869   4.336   4.295   4.672
 3286SOL     OW 9870   4.456   4.358   4.788
 3286SOL    HW1 9871   4.515   4.332   4.712
 3286SOL    HW2 9872   4.428   4.454   4.777
 3287SOL     OW 9873   4.031   3.787   4.342
 3287SOL    HW1 9874   4.020   3.881   4.375
 3287SOL    HW2 9875   4.026   3.724   4.419
 3288SOL     OW 9876   4.747   4.490   4.690
 3288SOL    HW1 9877   4.762   4.511   4.786
 3288SOL    HW2 9878   4.717   4.395   4.681
 3289SOL     OW 9879   4.539   4.296   4.049
 3289SOL    HW1 9880   4.546   4.207   4.003
 3289SOL    HW2 9881   4.445   4.330   4.041
 3290SOL     OW 9882   4.197   4.224   3.915
 3290SOL    HW1 9883   4.258   4.304   3.919
 3290SOL    HW2 9884   4.102   4.255   3.922
 3291SOL     OW 9885   4.627   3.810   3.857
 3291SOL    HW1 9886   4.678   3.811   3.771
 3291SOL    HW2 9887   4.683   3.768   3.928
 3292SOL     OW 9888   3.987   4.050   4.444
 3292SOL    HW1 9889   3.908   4.101   4.410
 3292SOL    HW2 9890   3.978   4.035   4.542
 3293SOL     OW 9891   4.763   4.822   4.420
 3293SOL    HW1 9892   4.693   4.775   4.474
 3293SOL    HW2 9893   4.822   4.754   4.377
 3294SOL     OW 9894   3.799   4.069   3.757
 3294SOL    HW1 9895   3.707   4.041   3.728
 3294SOL    HW2 9896   3.830   4.146   3.701
 3295SOL     OW 9897   3.796   3.890   4.042
 3295SOL    HW1 9898   3.779   3.973   3.988
 3295SOL    HW2 9899   3.886   3.853   4.020
 3296SOL     OW 9900   4.318   4.469   4.376
 3296SOL    HW1 9901   4.368   4.554   4.357
 3296SOL    HW2 9902   4.230   4.471   4.328
 3297SOL     OW 9903   4.152   4.148   4.244
 3297SOL    HW1 9904   4.182   4.076   4.182
 3297SOL    HW2 9905   4.113   4.108   4.327
   4.67667   4.67667   4.67667
