mobley_3452749_GMX.gro created by acpype (v: 2023.10.27) on Wed May 20 23:51:16 2026
   21
    1MOL     C1    1   2.333   2.324   2.094
    1MOL     C2    2   2.226   2.384   2.161
    1MOL     C3    3   2.438   2.268   2.166
    1MOL     C4    4   2.224   2.387   2.301
    1MOL     C5    5   2.436   2.271   2.306
    1MOL     C6    6   2.329   2.330   2.373
    1MOL     C7    7   2.109   2.451   2.370
    1MOL     C8    8   2.549   2.209   2.381
    1MOL     C9    9   2.327   2.334   2.522
    1MOL     H1   10   2.334   2.322   1.985
    1MOL     H2   11   2.144   2.428   2.104
    1MOL     H3   12   2.520   2.221   2.113
    1MOL     H4   13   2.114   2.432   2.478
    1MOL     H5   14   2.108   2.560   2.354
    1MOL     H6   15   2.013   2.413   2.332
    1MOL     H7   16   2.600   2.285   2.442
    1MOL     H8   17   2.515   2.129   2.447
    1MOL     H9   18   2.623   2.165   2.312
    1MOL    H10   19   2.418   2.383   2.560
    1MOL    H11   20   2.240   2.388   2.560
    1MOL    H12   21   2.322   2.232   2.564
   4.65879   4.65879   4.65879
