mobley_8208692_GMX.gro created by acpype (v: 2023.10.27) on Wed May 20 23:51:30 2026
   22
    1MOL     C1    1   2.683   2.437   2.497
    1MOL     C2    2   2.260   2.535   2.366
    1MOL     C3    3   2.575   2.495   2.564
    1MOL     C4    4   2.469   2.555   2.484
    1MOL     C5    5   2.786   2.378   2.569
    1MOL     C6    6   2.361   2.478   2.443
    1MOL     C7    7   2.266   2.669   2.331
    1MOL     C8    8   2.570   2.493   2.704
    1MOL     C9    9   2.476   2.690   2.449
    1MOL    C10   10   2.782   2.376   2.708
    1MOL    C11   11   2.375   2.747   2.372
    1MOL    C12   12   2.674   2.433   2.776
    1MOL    CL1   13   2.916   2.309   2.478
    1MOL    CL2   14   2.347   2.310   2.484
    1MOL    CL3   15   2.137   2.733   2.235
    1MOL    CL4   16   2.435   2.565   2.786
    1MOL    CL5   17   2.612   2.786   2.501
    1MOL    CL6   18   2.912   2.301   2.797
    1MOL    CL7   19   2.382   2.915   2.327
    1MOL    CL8   20   2.669   2.431   2.950
    1MOL     H1   21   2.686   2.439   2.388
    1MOL     H2   22   2.175   2.474   2.334
   5.05028   5.05028   5.05028
